PSF EXT CMAP XPLOR

         2 !NTITLE
* GENERATED BY CHARMM-GUI FF-Converter
* DATE:   08/15/25   16:54:18

    106170 !NATOM
         1 MEMB     1        POPC     N        NTL     -0.600000       14.0070           0
         2 MEMB     1        POPC     C12      CTL2    -0.100000       12.0110           0
         3 MEMB     1        POPC     H12A     HL       0.250000       1.00800           0
         4 MEMB     1        POPC     H12B     HL       0.250000       1.00800           0
         5 MEMB     1        POPC     C13      CTL5    -0.350000       12.0110           0
         6 MEMB     1        POPC     H13A     HL       0.250000       1.00800           0
         7 MEMB     1        POPC     H13B     HL       0.250000       1.00800           0
         8 MEMB     1        POPC     H13C     HL       0.250000       1.00800           0
         9 MEMB     1        POPC     C14      CTL5    -0.350000       12.0110           0
        10 MEMB     1        POPC     H14A     HL       0.250000       1.00800           0
        11 MEMB     1        POPC     H14B     HL       0.250000       1.00800           0
        12 MEMB     1        POPC     H14C     HL       0.250000       1.00800           0
        13 MEMB     1        POPC     C15      CTL5    -0.350000       12.0110           0
        14 MEMB     1        POPC     H15A     HL       0.250000       1.00800           0
        15 MEMB     1        POPC     H15B     HL       0.250000       1.00800           0
        16 MEMB     1        POPC     H15C     HL       0.250000       1.00800           0
        17 MEMB     1        POPC     C11      CTL2    -0.800000E-01   12.0110           0
        18 MEMB     1        POPC     H11A     HAL2     0.900000E-01   1.00800           0
        19 MEMB     1        POPC     H11B     HAL2     0.900000E-01   1.00800           0
        20 MEMB     1        POPC     P        PL       1.500000       30.9740           0
        21 MEMB     1        POPC     O13      O2L     -0.780000       15.9994           0
        22 MEMB     1        POPC     O14      O2L     -0.780000       15.9994           0
        23 MEMB     1        POPC     O12      OSLP    -0.570000       15.9994           0
        24 MEMB     1        POPC     O11      OSLP    -0.570000       15.9994           0
        25 MEMB     1        POPC     C1       CTL2    -0.800000E-01   12.0110           0
        26 MEMB     1        POPC     HA       HAL2     0.900000E-01   1.00800           0
        27 MEMB     1        POPC     HB       HAL2     0.900000E-01   1.00800           0
        28 MEMB     1        POPC     C2       CTL1     0.170000       12.0110           0
        29 MEMB     1        POPC     HS       HAL1     0.900000E-01   1.00800           0
        30 MEMB     1        POPC     O21      OSL     -0.490000       15.9994           0
        31 MEMB     1        POPC     C21      CL       0.900000       12.0110           0
        32 MEMB     1        POPC     O22      OBL     -0.630000       15.9994           0
        33 MEMB     1        POPC     C22      CTL2    -0.220000       12.0110           0
        34 MEMB     1        POPC     H2R      HAL2     0.900000E-01   1.00800           0
        35 MEMB     1        POPC     H2S      HAL2     0.900000E-01   1.00800           0
        36 MEMB     1        POPC     C3       CTL2     0.800000E-01   12.0110           0
        37 MEMB     1        POPC     HX       HAL2     0.900000E-01   1.00800           0
        38 MEMB     1        POPC     HY       HAL2     0.900000E-01   1.00800           0
        39 MEMB     1        POPC     O31      OSL     -0.490000       15.9994           0
        40 MEMB     1        POPC     C31      CL       0.900000       12.0110           0
        41 MEMB     1        POPC     O32      OBL     -0.630000       15.9994           0
        42 MEMB     1        POPC     C32      CTL2    -0.220000       12.0110           0
        43 MEMB     1        POPC     H2X      HAL2     0.900000E-01   1.00800           0
        44 MEMB     1        POPC     H2Y      HAL2     0.900000E-01   1.00800           0
        45 MEMB     1        POPC     C23      CTL2    -0.180000       12.0110           0
        46 MEMB     1        POPC     H3R      HAL2     0.900000E-01   1.00800           0
        47 MEMB     1        POPC     H3S      HAL2     0.900000E-01   1.00800           0
        48 MEMB     1        POPC     C24      CTL2    -0.180000       12.0110           0
        49 MEMB     1        POPC     H4R      HAL2     0.900000E-01   1.00800           0
        50 MEMB     1        POPC     H4S      HAL2     0.900000E-01   1.00800           0
        51 MEMB     1        POPC     C25      CTL2    -0.180000       12.0110           0
        52 MEMB     1        POPC     H5R      HAL2     0.900000E-01   1.00800           0
        53 MEMB     1        POPC     H5S      HAL2     0.900000E-01   1.00800           0
        54 MEMB     1        POPC     C26      CTL2    -0.180000       12.0110           0
        55 MEMB     1        POPC     H6R      HAL2     0.900000E-01   1.00800           0
        56 MEMB     1        POPC     H6S      HAL2     0.900000E-01   1.00800           0
        57 MEMB     1        POPC     C27      CTL2    -0.180000       12.0110           0
        58 MEMB     1        POPC     H7R      HAL2     0.900000E-01   1.00800           0
        59 MEMB     1        POPC     H7S      HAL2     0.900000E-01   1.00800           0
        60 MEMB     1        POPC     C28      CTL2    -0.180000       12.0110           0
        61 MEMB     1        POPC     H8R      HAL2     0.900000E-01   1.00800           0
        62 MEMB     1        POPC     H8S      HAL2     0.900000E-01   1.00800           0
        63 MEMB     1        POPC     C29      CEL1    -0.150000       12.0110           0
        64 MEMB     1        POPC     H91      HEL1     0.150000       1.00800           0
        65 MEMB     1        POPC     C210     CEL1    -0.150000       12.0110           0
        66 MEMB     1        POPC     H101     HEL1     0.150000       1.00800           0
        67 MEMB     1        POPC     C211     CTL2    -0.180000       12.0110           0
        68 MEMB     1        POPC     H11R     HAL2     0.900000E-01   1.00800           0
        69 MEMB     1        POPC     H11S     HAL2     0.900000E-01   1.00800           0
        70 MEMB     1        POPC     C212     CTL2    -0.180000       12.0110           0
        71 MEMB     1        POPC     H12R     HAL2     0.900000E-01   1.00800           0
        72 MEMB     1        POPC     H12S     HAL2     0.900000E-01   1.00800           0
        73 MEMB     1        POPC     C213     CTL2    -0.180000       12.0110           0
        74 MEMB     1        POPC     H13R     HAL2     0.900000E-01   1.00800           0
        75 MEMB     1        POPC     H13S     HAL2     0.900000E-01   1.00800           0
        76 MEMB     1        POPC     C214     CTL2    -0.180000       12.0110           0
        77 MEMB     1        POPC     H14R     HAL2     0.900000E-01   1.00800           0
        78 MEMB     1        POPC     H14S     HAL2     0.900000E-01   1.00800           0
        79 MEMB     1        POPC     C215     CTL2    -0.180000       12.0110           0
        80 MEMB     1        POPC     H15R     HAL2     0.900000E-01   1.00800           0
        81 MEMB     1        POPC     H15S     HAL2     0.900000E-01   1.00800           0
        82 MEMB     1        POPC     C216     CTL2    -0.180000       12.0110           0
        83 MEMB     1        POPC     H16R     HAL2     0.900000E-01   1.00800           0
        84 MEMB     1        POPC     H16S     HAL2     0.900000E-01   1.00800           0
        85 MEMB     1        POPC     C217     CTL2    -0.180000       12.0110           0
        86 MEMB     1        POPC     H17R     HAL2     0.900000E-01   1.00800           0
        87 MEMB     1        POPC     H17S     HAL2     0.900000E-01   1.00800           0
        88 MEMB     1        POPC     C218     CTL3    -0.270000       12.0110           0
        89 MEMB     1        POPC     H18R     HAL3     0.900000E-01   1.00800           0
        90 MEMB     1        POPC     H18S     HAL3     0.900000E-01   1.00800           0
        91 MEMB     1        POPC     H18T     HAL3     0.900000E-01   1.00800           0
        92 MEMB     1        POPC     C33      CTL2    -0.180000       12.0110           0
        93 MEMB     1        POPC     H3X      HAL2     0.900000E-01   1.00800           0
        94 MEMB     1        POPC     H3Y      HAL2     0.900000E-01   1.00800           0
        95 MEMB     1        POPC     C34      CTL2    -0.180000       12.0110           0
        96 MEMB     1        POPC     H4X      HAL2     0.900000E-01   1.00800           0
        97 MEMB     1        POPC     H4Y      HAL2     0.900000E-01   1.00800           0
        98 MEMB     1        POPC     C35      CTL2    -0.180000       12.0110           0
        99 MEMB     1        POPC     H5X      HAL2     0.900000E-01   1.00800           0
       100 MEMB     1        POPC     H5Y      HAL2     0.900000E-01   1.00800           0
       101 MEMB     1        POPC     C36      CTL2    -0.180000       12.0110           0
       102 MEMB     1        POPC     H6X      HAL2     0.900000E-01   1.00800           0
       103 MEMB     1        POPC     H6Y      HAL2     0.900000E-01   1.00800           0
       104 MEMB     1        POPC     C37      CTL2    -0.180000       12.0110           0
       105 MEMB     1        POPC     H7X      HAL2     0.900000E-01   1.00800           0
       106 MEMB     1        POPC     H7Y      HAL2     0.900000E-01   1.00800           0
       107 MEMB     1        POPC     C38      CTL2    -0.180000       12.0110           0
       108 MEMB     1        POPC     H8X      HAL2     0.900000E-01   1.00800           0
       109 MEMB     1        POPC     H8Y      HAL2     0.900000E-01   1.00800           0
       110 MEMB     1        POPC     C39      CTL2    -0.180000       12.0110           0
       111 MEMB     1        POPC     H9X      HAL2     0.900000E-01   1.00800           0
       112 MEMB     1        POPC     H9Y      HAL2     0.900000E-01   1.00800           0
       113 MEMB     1        POPC     C310     CTL2    -0.180000       12.0110           0
       114 MEMB     1        POPC     H10X     HAL2     0.900000E-01   1.00800           0
       115 MEMB     1        POPC     H10Y     HAL2     0.900000E-01   1.00800           0
       116 MEMB     1        POPC     C311     CTL2    -0.180000       12.0110           0
       117 MEMB     1        POPC     H11X     HAL2     0.900000E-01   1.00800           0
       118 MEMB     1        POPC     H11Y     HAL2     0.900000E-01   1.00800           0
       119 MEMB     1        POPC     C312     CTL2    -0.180000       12.0110           0
       120 MEMB     1        POPC     H12X     HAL2     0.900000E-01   1.00800           0
       121 MEMB     1        POPC     H12Y     HAL2     0.900000E-01   1.00800           0
       122 MEMB     1        POPC     C313     CTL2    -0.180000       12.0110           0
       123 MEMB     1        POPC     H13X     HAL2     0.900000E-01   1.00800           0
       124 MEMB     1        POPC     H13Y     HAL2     0.900000E-01   1.00800           0
       125 MEMB     1        POPC     C314     CTL2    -0.180000       12.0110           0
       126 MEMB     1        POPC     H14X     HAL2     0.900000E-01   1.00800           0
       127 MEMB     1        POPC     H14Y     HAL2     0.900000E-01   1.00800           0
       128 MEMB     1        POPC     C315     CTL2    -0.180000       12.0110           0
       129 MEMB     1        POPC     H15X     HAL2     0.900000E-01   1.00800           0
       130 MEMB     1        POPC     H15Y     HAL2     0.900000E-01   1.00800           0
       131 MEMB     1        POPC     C316     CTL3    -0.270000       12.0110           0
       132 MEMB     1        POPC     H16X     HAL3     0.900000E-01   1.00800           0
       133 MEMB     1        POPC     H16Y     HAL3     0.900000E-01   1.00800           0
       134 MEMB     1        POPC     H16Z     HAL3     0.900000E-01   1.00800           0
       135 MEMB     2        POPC     N        NTL     -0.600000       14.0070           0
       136 MEMB     2        POPC     C12      CTL2    -0.100000       12.0110           0
       137 MEMB     2        POPC     H12A     HL       0.250000       1.00800           0
       138 MEMB     2        POPC     H12B     HL       0.250000       1.00800           0
       139 MEMB     2        POPC     C13      CTL5    -0.350000       12.0110           0
       140 MEMB     2        POPC     H13A     HL       0.250000       1.00800           0
       141 MEMB     2        POPC     H13B     HL       0.250000       1.00800           0
       142 MEMB     2        POPC     H13C     HL       0.250000       1.00800           0
       143 MEMB     2        POPC     C14      CTL5    -0.350000       12.0110           0
       144 MEMB     2        POPC     H14A     HL       0.250000       1.00800           0
       145 MEMB     2        POPC     H14B     HL       0.250000       1.00800           0
       146 MEMB     2        POPC     H14C     HL       0.250000       1.00800           0
       147 MEMB     2        POPC     C15      CTL5    -0.350000       12.0110           0
       148 MEMB     2        POPC     H15A     HL       0.250000       1.00800           0
       149 MEMB     2        POPC     H15B     HL       0.250000       1.00800           0
       150 MEMB     2        POPC     H15C     HL       0.250000       1.00800           0
       151 MEMB     2        POPC     C11      CTL2    -0.800000E-01   12.0110           0
       152 MEMB     2        POPC     H11A     HAL2     0.900000E-01   1.00800           0
       153 MEMB     2        POPC     H11B     HAL2     0.900000E-01   1.00800           0
       154 MEMB     2        POPC     P        PL       1.500000       30.9740           0
       155 MEMB     2        POPC     O13      O2L     -0.780000       15.9994           0
       156 MEMB     2        POPC     O14      O2L     -0.780000       15.9994           0
       157 MEMB     2        POPC     O12      OSLP    -0.570000       15.9994           0
       158 MEMB     2        POPC     O11      OSLP    -0.570000       15.9994           0
       159 MEMB     2        POPC     C1       CTL2    -0.800000E-01   12.0110           0
       160 MEMB     2        POPC     HA       HAL2     0.900000E-01   1.00800           0
       161 MEMB     2        POPC     HB       HAL2     0.900000E-01   1.00800           0
       162 MEMB     2        POPC     C2       CTL1     0.170000       12.0110           0
       163 MEMB     2        POPC     HS       HAL1     0.900000E-01   1.00800           0
       164 MEMB     2        POPC     O21      OSL     -0.490000       15.9994           0
       165 MEMB     2        POPC     C21      CL       0.900000       12.0110           0
       166 MEMB     2        POPC     O22      OBL     -0.630000       15.9994           0
       167 MEMB     2        POPC     C22      CTL2    -0.220000       12.0110           0
       168 MEMB     2        POPC     H2R      HAL2     0.900000E-01   1.00800           0
       169 MEMB     2        POPC     H2S      HAL2     0.900000E-01   1.00800           0
       170 MEMB     2        POPC     C3       CTL2     0.800000E-01   12.0110           0
       171 MEMB     2        POPC     HX       HAL2     0.900000E-01   1.00800           0
       172 MEMB     2        POPC     HY       HAL2     0.900000E-01   1.00800           0
       173 MEMB     2        POPC     O31      OSL     -0.490000       15.9994           0
       174 MEMB     2        POPC     C31      CL       0.900000       12.0110           0
       175 MEMB     2        POPC     O32      OBL     -0.630000       15.9994           0
       176 MEMB     2        POPC     C32      CTL2    -0.220000       12.0110           0
       177 MEMB     2        POPC     H2X      HAL2     0.900000E-01   1.00800           0
       178 MEMB     2        POPC     H2Y      HAL2     0.900000E-01   1.00800           0
       179 MEMB     2        POPC     C23      CTL2    -0.180000       12.0110           0
       180 MEMB     2        POPC     H3R      HAL2     0.900000E-01   1.00800           0
       181 MEMB     2        POPC     H3S      HAL2     0.900000E-01   1.00800           0
       182 MEMB     2        POPC     C24      CTL2    -0.180000       12.0110           0
       183 MEMB     2        POPC     H4R      HAL2     0.900000E-01   1.00800           0
       184 MEMB     2        POPC     H4S      HAL2     0.900000E-01   1.00800           0
       185 MEMB     2        POPC     C25      CTL2    -0.180000       12.0110           0
       186 MEMB     2        POPC     H5R      HAL2     0.900000E-01   1.00800           0
       187 MEMB     2        POPC     H5S      HAL2     0.900000E-01   1.00800           0
       188 MEMB     2        POPC     C26      CTL2    -0.180000       12.0110           0
       189 MEMB     2        POPC     H6R      HAL2     0.900000E-01   1.00800           0
       190 MEMB     2        POPC     H6S      HAL2     0.900000E-01   1.00800           0
       191 MEMB     2        POPC     C27      CTL2    -0.180000       12.0110           0
       192 MEMB     2        POPC     H7R      HAL2     0.900000E-01   1.00800           0
       193 MEMB     2        POPC     H7S      HAL2     0.900000E-01   1.00800           0
       194 MEMB     2        POPC     C28      CTL2    -0.180000       12.0110           0
       195 MEMB     2        POPC     H8R      HAL2     0.900000E-01   1.00800           0
       196 MEMB     2        POPC     H8S      HAL2     0.900000E-01   1.00800           0
       197 MEMB     2        POPC     C29      CEL1    -0.150000       12.0110           0
       198 MEMB     2        POPC     H91      HEL1     0.150000       1.00800           0
       199 MEMB     2        POPC     C210     CEL1    -0.150000       12.0110           0
       200 MEMB     2        POPC     H101     HEL1     0.150000       1.00800           0
       201 MEMB     2        POPC     C211     CTL2    -0.180000       12.0110           0
       202 MEMB     2        POPC     H11R     HAL2     0.900000E-01   1.00800           0
       203 MEMB     2        POPC     H11S     HAL2     0.900000E-01   1.00800           0
       204 MEMB     2        POPC     C212     CTL2    -0.180000       12.0110           0
       205 MEMB     2        POPC     H12R     HAL2     0.900000E-01   1.00800           0
       206 MEMB     2        POPC     H12S     HAL2     0.900000E-01   1.00800           0
       207 MEMB     2        POPC     C213     CTL2    -0.180000       12.0110           0
       208 MEMB     2        POPC     H13R     HAL2     0.900000E-01   1.00800           0
       209 MEMB     2        POPC     H13S     HAL2     0.900000E-01   1.00800           0
       210 MEMB     2        POPC     C214     CTL2    -0.180000       12.0110           0
       211 MEMB     2        POPC     H14R     HAL2     0.900000E-01   1.00800           0
       212 MEMB     2        POPC     H14S     HAL2     0.900000E-01   1.00800           0
       213 MEMB     2        POPC     C215     CTL2    -0.180000       12.0110           0
       214 MEMB     2        POPC     H15R     HAL2     0.900000E-01   1.00800           0
       215 MEMB     2        POPC     H15S     HAL2     0.900000E-01   1.00800           0
       216 MEMB     2        POPC     C216     CTL2    -0.180000       12.0110           0
       217 MEMB     2        POPC     H16R     HAL2     0.900000E-01   1.00800           0
       218 MEMB     2        POPC     H16S     HAL2     0.900000E-01   1.00800           0
       219 MEMB     2        POPC     C217     CTL2    -0.180000       12.0110           0
       220 MEMB     2        POPC     H17R     HAL2     0.900000E-01   1.00800           0
       221 MEMB     2        POPC     H17S     HAL2     0.900000E-01   1.00800           0
       222 MEMB     2        POPC     C218     CTL3    -0.270000       12.0110           0
       223 MEMB     2        POPC     H18R     HAL3     0.900000E-01   1.00800           0
       224 MEMB     2        POPC     H18S     HAL3     0.900000E-01   1.00800           0
       225 MEMB     2        POPC     H18T     HAL3     0.900000E-01   1.00800           0
       226 MEMB     2        POPC     C33      CTL2    -0.180000       12.0110           0
       227 MEMB     2        POPC     H3X      HAL2     0.900000E-01   1.00800           0
       228 MEMB     2        POPC     H3Y      HAL2     0.900000E-01   1.00800           0
       229 MEMB     2        POPC     C34      CTL2    -0.180000       12.0110           0
       230 MEMB     2        POPC     H4X      HAL2     0.900000E-01   1.00800           0
       231 MEMB     2        POPC     H4Y      HAL2     0.900000E-01   1.00800           0
       232 MEMB     2        POPC     C35      CTL2    -0.180000       12.0110           0
       233 MEMB     2        POPC     H5X      HAL2     0.900000E-01   1.00800           0
       234 MEMB     2        POPC     H5Y      HAL2     0.900000E-01   1.00800           0
       235 MEMB     2        POPC     C36      CTL2    -0.180000       12.0110           0
       236 MEMB     2        POPC     H6X      HAL2     0.900000E-01   1.00800           0
       237 MEMB     2        POPC     H6Y      HAL2     0.900000E-01   1.00800           0
       238 MEMB     2        POPC     C37      CTL2    -0.180000       12.0110           0
       239 MEMB     2        POPC     H7X      HAL2     0.900000E-01   1.00800           0
       240 MEMB     2        POPC     H7Y      HAL2     0.900000E-01   1.00800           0
       241 MEMB     2        POPC     C38      CTL2    -0.180000       12.0110           0
       242 MEMB     2        POPC     H8X      HAL2     0.900000E-01   1.00800           0
       243 MEMB     2        POPC     H8Y      HAL2     0.900000E-01   1.00800           0
       244 MEMB     2        POPC     C39      CTL2    -0.180000       12.0110           0
       245 MEMB     2        POPC     H9X      HAL2     0.900000E-01   1.00800           0
       246 MEMB     2        POPC     H9Y      HAL2     0.900000E-01   1.00800           0
       247 MEMB     2        POPC     C310     CTL2    -0.180000       12.0110           0
       248 MEMB     2        POPC     H10X     HAL2     0.900000E-01   1.00800           0
       249 MEMB     2        POPC     H10Y     HAL2     0.900000E-01   1.00800           0
       250 MEMB     2        POPC     C311     CTL2    -0.180000       12.0110           0
       251 MEMB     2        POPC     H11X     HAL2     0.900000E-01   1.00800           0
       252 MEMB     2        POPC     H11Y     HAL2     0.900000E-01   1.00800           0
       253 MEMB     2        POPC     C312     CTL2    -0.180000       12.0110           0
       254 MEMB     2        POPC     H12X     HAL2     0.900000E-01   1.00800           0
       255 MEMB     2        POPC     H12Y     HAL2     0.900000E-01   1.00800           0
       256 MEMB     2        POPC     C313     CTL2    -0.180000       12.0110           0
       257 MEMB     2        POPC     H13X     HAL2     0.900000E-01   1.00800           0
       258 MEMB     2        POPC     H13Y     HAL2     0.900000E-01   1.00800           0
       259 MEMB     2        POPC     C314     CTL2    -0.180000       12.0110           0
       260 MEMB     2        POPC     H14X     HAL2     0.900000E-01   1.00800           0
       261 MEMB     2        POPC     H14Y     HAL2     0.900000E-01   1.00800           0
       262 MEMB     2        POPC     C315     CTL2    -0.180000       12.0110           0
       263 MEMB     2        POPC     H15X     HAL2     0.900000E-01   1.00800           0
       264 MEMB     2        POPC     H15Y     HAL2     0.900000E-01   1.00800           0
       265 MEMB     2        POPC     C316     CTL3    -0.270000       12.0110           0
       266 MEMB     2        POPC     H16X     HAL3     0.900000E-01   1.00800           0
       267 MEMB     2        POPC     H16Y     HAL3     0.900000E-01   1.00800           0
       268 MEMB     2        POPC     H16Z     HAL3     0.900000E-01   1.00800           0
       269 MEMB     3        POPC     N        NTL     -0.600000       14.0070           0
       270 MEMB     3        POPC     C12      CTL2    -0.100000       12.0110           0
       271 MEMB     3        POPC     H12A     HL       0.250000       1.00800           0
       272 MEMB     3        POPC     H12B     HL       0.250000       1.00800           0
       273 MEMB     3        POPC     C13      CTL5    -0.350000       12.0110           0
       274 MEMB     3        POPC     H13A     HL       0.250000       1.00800           0
       275 MEMB     3        POPC     H13B     HL       0.250000       1.00800           0
       276 MEMB     3        POPC     H13C     HL       0.250000       1.00800           0
       277 MEMB     3        POPC     C14      CTL5    -0.350000       12.0110           0
       278 MEMB     3        POPC     H14A     HL       0.250000       1.00800           0
       279 MEMB     3        POPC     H14B     HL       0.250000       1.00800           0
       280 MEMB     3        POPC     H14C     HL       0.250000       1.00800           0
       281 MEMB     3        POPC     C15      CTL5    -0.350000       12.0110           0
       282 MEMB     3        POPC     H15A     HL       0.250000       1.00800           0
       283 MEMB     3        POPC     H15B     HL       0.250000       1.00800           0
       284 MEMB     3        POPC     H15C     HL       0.250000       1.00800           0
       285 MEMB     3        POPC     C11      CTL2    -0.800000E-01   12.0110           0
       286 MEMB     3        POPC     H11A     HAL2     0.900000E-01   1.00800           0
       287 MEMB     3        POPC     H11B     HAL2     0.900000E-01   1.00800           0
       288 MEMB     3        POPC     P        PL       1.500000       30.9740           0
       289 MEMB     3        POPC     O13      O2L     -0.780000       15.9994           0
       290 MEMB     3        POPC     O14      O2L     -0.780000       15.9994           0
       291 MEMB     3        POPC     O12      OSLP    -0.570000       15.9994           0
       292 MEMB     3        POPC     O11      OSLP    -0.570000       15.9994           0
       293 MEMB     3        POPC     C1       CTL2    -0.800000E-01   12.0110           0
       294 MEMB     3        POPC     HA       HAL2     0.900000E-01   1.00800           0
       295 MEMB     3        POPC     HB       HAL2     0.900000E-01   1.00800           0
       296 MEMB     3        POPC     C2       CTL1     0.170000       12.0110           0
       297 MEMB     3        POPC     HS       HAL1     0.900000E-01   1.00800           0
       298 MEMB     3        POPC     O21      OSL     -0.490000       15.9994           0
       299 MEMB     3        POPC     C21      CL       0.900000       12.0110           0
       300 MEMB     3        POPC     O22      OBL     -0.630000       15.9994           0
       301 MEMB     3        POPC     C22      CTL2    -0.220000       12.0110           0
       302 MEMB     3        POPC     H2R      HAL2     0.900000E-01   1.00800           0
       303 MEMB     3        POPC     H2S      HAL2     0.900000E-01   1.00800           0
       304 MEMB     3        POPC     C3       CTL2     0.800000E-01   12.0110           0
       305 MEMB     3        POPC     HX       HAL2     0.900000E-01   1.00800           0
       306 MEMB     3        POPC     HY       HAL2     0.900000E-01   1.00800           0
       307 MEMB     3        POPC     O31      OSL     -0.490000       15.9994           0
       308 MEMB     3        POPC     C31      CL       0.900000       12.0110           0
       309 MEMB     3        POPC     O32      OBL     -0.630000       15.9994           0
       310 MEMB     3        POPC     C32      CTL2    -0.220000       12.0110           0
       311 MEMB     3        POPC     H2X      HAL2     0.900000E-01   1.00800           0
       312 MEMB     3        POPC     H2Y      HAL2     0.900000E-01   1.00800           0
       313 MEMB     3        POPC     C23      CTL2    -0.180000       12.0110           0
       314 MEMB     3        POPC     H3R      HAL2     0.900000E-01   1.00800           0
       315 MEMB     3        POPC     H3S      HAL2     0.900000E-01   1.00800           0
       316 MEMB     3        POPC     C24      CTL2    -0.180000       12.0110           0
       317 MEMB     3        POPC     H4R      HAL2     0.900000E-01   1.00800           0
       318 MEMB     3        POPC     H4S      HAL2     0.900000E-01   1.00800           0
       319 MEMB     3        POPC     C25      CTL2    -0.180000       12.0110           0
       320 MEMB     3        POPC     H5R      HAL2     0.900000E-01   1.00800           0
       321 MEMB     3        POPC     H5S      HAL2     0.900000E-01   1.00800           0
       322 MEMB     3        POPC     C26      CTL2    -0.180000       12.0110           0
       323 MEMB     3        POPC     H6R      HAL2     0.900000E-01   1.00800           0
       324 MEMB     3        POPC     H6S      HAL2     0.900000E-01   1.00800           0
       325 MEMB     3        POPC     C27      CTL2    -0.180000       12.0110           0
       326 MEMB     3        POPC     H7R      HAL2     0.900000E-01   1.00800           0
       327 MEMB     3        POPC     H7S      HAL2     0.900000E-01   1.00800           0
       328 MEMB     3        POPC     C28      CTL2    -0.180000       12.0110           0
       329 MEMB     3        POPC     H8R      HAL2     0.900000E-01   1.00800           0
       330 MEMB     3        POPC     H8S      HAL2     0.900000E-01   1.00800           0
       331 MEMB     3        POPC     C29      CEL1    -0.150000       12.0110           0
       332 MEMB     3        POPC     H91      HEL1     0.150000       1.00800           0
       333 MEMB     3        POPC     C210     CEL1    -0.150000       12.0110           0
       334 MEMB     3        POPC     H101     HEL1     0.150000       1.00800           0
       335 MEMB     3        POPC     C211     CTL2    -0.180000       12.0110           0
       336 MEMB     3        POPC     H11R     HAL2     0.900000E-01   1.00800           0
       337 MEMB     3        POPC     H11S     HAL2     0.900000E-01   1.00800           0
       338 MEMB     3        POPC     C212     CTL2    -0.180000       12.0110           0
       339 MEMB     3        POPC     H12R     HAL2     0.900000E-01   1.00800           0
       340 MEMB     3        POPC     H12S     HAL2     0.900000E-01   1.00800           0
       341 MEMB     3        POPC     C213     CTL2    -0.180000       12.0110           0
       342 MEMB     3        POPC     H13R     HAL2     0.900000E-01   1.00800           0
       343 MEMB     3        POPC     H13S     HAL2     0.900000E-01   1.00800           0
       344 MEMB     3        POPC     C214     CTL2    -0.180000       12.0110           0
       345 MEMB     3        POPC     H14R     HAL2     0.900000E-01   1.00800           0
       346 MEMB     3        POPC     H14S     HAL2     0.900000E-01   1.00800           0
       347 MEMB     3        POPC     C215     CTL2    -0.180000       12.0110           0
       348 MEMB     3        POPC     H15R     HAL2     0.900000E-01   1.00800           0
       349 MEMB     3        POPC     H15S     HAL2     0.900000E-01   1.00800           0
       350 MEMB     3        POPC     C216     CTL2    -0.180000       12.0110           0
       351 MEMB     3        POPC     H16R     HAL2     0.900000E-01   1.00800           0
       352 MEMB     3        POPC     H16S     HAL2     0.900000E-01   1.00800           0
       353 MEMB     3        POPC     C217     CTL2    -0.180000       12.0110           0
       354 MEMB     3        POPC     H17R     HAL2     0.900000E-01   1.00800           0
       355 MEMB     3        POPC     H17S     HAL2     0.900000E-01   1.00800           0
       356 MEMB     3        POPC     C218     CTL3    -0.270000       12.0110           0
       357 MEMB     3        POPC     H18R     HAL3     0.900000E-01   1.00800           0
       358 MEMB     3        POPC     H18S     HAL3     0.900000E-01   1.00800           0
       359 MEMB     3        POPC     H18T     HAL3     0.900000E-01   1.00800           0
       360 MEMB     3        POPC     C33      CTL2    -0.180000       12.0110           0
       361 MEMB     3        POPC     H3X      HAL2     0.900000E-01   1.00800           0
       362 MEMB     3        POPC     H3Y      HAL2     0.900000E-01   1.00800           0
       363 MEMB     3        POPC     C34      CTL2    -0.180000       12.0110           0
       364 MEMB     3        POPC     H4X      HAL2     0.900000E-01   1.00800           0
       365 MEMB     3        POPC     H4Y      HAL2     0.900000E-01   1.00800           0
       366 MEMB     3        POPC     C35      CTL2    -0.180000       12.0110           0
       367 MEMB     3        POPC     H5X      HAL2     0.900000E-01   1.00800           0
       368 MEMB     3        POPC     H5Y      HAL2     0.900000E-01   1.00800           0
       369 MEMB     3        POPC     C36      CTL2    -0.180000       12.0110           0
       370 MEMB     3        POPC     H6X      HAL2     0.900000E-01   1.00800           0
       371 MEMB     3        POPC     H6Y      HAL2     0.900000E-01   1.00800           0
       372 MEMB     3        POPC     C37      CTL2    -0.180000       12.0110           0
       373 MEMB     3        POPC     H7X      HAL2     0.900000E-01   1.00800           0
       374 MEMB     3        POPC     H7Y      HAL2     0.900000E-01   1.00800           0
       375 MEMB     3        POPC     C38      CTL2    -0.180000       12.0110           0
       376 MEMB     3        POPC     H8X      HAL2     0.900000E-01   1.00800           0
       377 MEMB     3        POPC     H8Y      HAL2     0.900000E-01   1.00800           0
       378 MEMB     3        POPC     C39      CTL2    -0.180000       12.0110           0
       379 MEMB     3        POPC     H9X      HAL2     0.900000E-01   1.00800           0
       380 MEMB     3        POPC     H9Y      HAL2     0.900000E-01   1.00800           0
       381 MEMB     3        POPC     C310     CTL2    -0.180000       12.0110           0
       382 MEMB     3        POPC     H10X     HAL2     0.900000E-01   1.00800           0
       383 MEMB     3        POPC     H10Y     HAL2     0.900000E-01   1.00800           0
       384 MEMB     3        POPC     C311     CTL2    -0.180000       12.0110           0
       385 MEMB     3        POPC     H11X     HAL2     0.900000E-01   1.00800           0
       386 MEMB     3        POPC     H11Y     HAL2     0.900000E-01   1.00800           0
       387 MEMB     3        POPC     C312     CTL2    -0.180000       12.0110           0
       388 MEMB     3        POPC     H12X     HAL2     0.900000E-01   1.00800           0
       389 MEMB     3        POPC     H12Y     HAL2     0.900000E-01   1.00800           0
       390 MEMB     3        POPC     C313     CTL2    -0.180000       12.0110           0
       391 MEMB     3        POPC     H13X     HAL2     0.900000E-01   1.00800           0
       392 MEMB     3        POPC     H13Y     HAL2     0.900000E-01   1.00800           0
       393 MEMB     3        POPC     C314     CTL2    -0.180000       12.0110           0
       394 MEMB     3        POPC     H14X     HAL2     0.900000E-01   1.00800           0
       395 MEMB     3        POPC     H14Y     HAL2     0.900000E-01   1.00800           0
       396 MEMB     3        POPC     C315     CTL2    -0.180000       12.0110           0
       397 MEMB     3        POPC     H15X     HAL2     0.900000E-01   1.00800           0
       398 MEMB     3        POPC     H15Y     HAL2     0.900000E-01   1.00800           0
       399 MEMB     3        POPC     C316     CTL3    -0.270000       12.0110           0
       400 MEMB     3        POPC     H16X     HAL3     0.900000E-01   1.00800           0
       401 MEMB     3        POPC     H16Y     HAL3     0.900000E-01   1.00800           0
       402 MEMB     3        POPC     H16Z     HAL3     0.900000E-01   1.00800           0
       403 MEMB     4        POPC     N        NTL     -0.600000       14.0070           0
       404 MEMB     4        POPC     C12      CTL2    -0.100000       12.0110           0
       405 MEMB     4        POPC     H12A     HL       0.250000       1.00800           0
       406 MEMB     4        POPC     H12B     HL       0.250000       1.00800           0
       407 MEMB     4        POPC     C13      CTL5    -0.350000       12.0110           0
       408 MEMB     4        POPC     H13A     HL       0.250000       1.00800           0
       409 MEMB     4        POPC     H13B     HL       0.250000       1.00800           0
       410 MEMB     4        POPC     H13C     HL       0.250000       1.00800           0
       411 MEMB     4        POPC     C14      CTL5    -0.350000       12.0110           0
       412 MEMB     4        POPC     H14A     HL       0.250000       1.00800           0
       413 MEMB     4        POPC     H14B     HL       0.250000       1.00800           0
       414 MEMB     4        POPC     H14C     HL       0.250000       1.00800           0
       415 MEMB     4        POPC     C15      CTL5    -0.350000       12.0110           0
       416 MEMB     4        POPC     H15A     HL       0.250000       1.00800           0
       417 MEMB     4        POPC     H15B     HL       0.250000       1.00800           0
       418 MEMB     4        POPC     H15C     HL       0.250000       1.00800           0
       419 MEMB     4        POPC     C11      CTL2    -0.800000E-01   12.0110           0
       420 MEMB     4        POPC     H11A     HAL2     0.900000E-01   1.00800           0
       421 MEMB     4        POPC     H11B     HAL2     0.900000E-01   1.00800           0
       422 MEMB     4        POPC     P        PL       1.500000       30.9740           0
       423 MEMB     4        POPC     O13      O2L     -0.780000       15.9994           0
       424 MEMB     4        POPC     O14      O2L     -0.780000       15.9994           0
       425 MEMB     4        POPC     O12      OSLP    -0.570000       15.9994           0
       426 MEMB     4        POPC     O11      OSLP    -0.570000       15.9994           0
       427 MEMB     4        POPC     C1       CTL2    -0.800000E-01   12.0110           0
       428 MEMB     4        POPC     HA       HAL2     0.900000E-01   1.00800           0
       429 MEMB     4        POPC     HB       HAL2     0.900000E-01   1.00800           0
       430 MEMB     4        POPC     C2       CTL1     0.170000       12.0110           0
       431 MEMB     4        POPC     HS       HAL1     0.900000E-01   1.00800           0
       432 MEMB     4        POPC     O21      OSL     -0.490000       15.9994           0
       433 MEMB     4        POPC     C21      CL       0.900000       12.0110           0
       434 MEMB     4        POPC     O22      OBL     -0.630000       15.9994           0
       435 MEMB     4        POPC     C22      CTL2    -0.220000       12.0110           0
       436 MEMB     4        POPC     H2R      HAL2     0.900000E-01   1.00800           0
       437 MEMB     4        POPC     H2S      HAL2     0.900000E-01   1.00800           0
       438 MEMB     4        POPC     C3       CTL2     0.800000E-01   12.0110           0
       439 MEMB     4        POPC     HX       HAL2     0.900000E-01   1.00800           0
       440 MEMB     4        POPC     HY       HAL2     0.900000E-01   1.00800           0
       441 MEMB     4        POPC     O31      OSL     -0.490000       15.9994           0
       442 MEMB     4        POPC     C31      CL       0.900000       12.0110           0
       443 MEMB     4        POPC     O32      OBL     -0.630000       15.9994           0
       444 MEMB     4        POPC     C32      CTL2    -0.220000       12.0110           0
       445 MEMB     4        POPC     H2X      HAL2     0.900000E-01   1.00800           0
       446 MEMB     4        POPC     H2Y      HAL2     0.900000E-01   1.00800           0
       447 MEMB     4        POPC     C23      CTL2    -0.180000       12.0110           0
       448 MEMB     4        POPC     H3R      HAL2     0.900000E-01   1.00800           0
       449 MEMB     4        POPC     H3S      HAL2     0.900000E-01   1.00800           0
       450 MEMB     4        POPC     C24      CTL2    -0.180000       12.0110           0
       451 MEMB     4        POPC     H4R      HAL2     0.900000E-01   1.00800           0
       452 MEMB     4        POPC     H4S      HAL2     0.900000E-01   1.00800           0
       453 MEMB     4        POPC     C25      CTL2    -0.180000       12.0110           0
       454 MEMB     4        POPC     H5R      HAL2     0.900000E-01   1.00800           0
       455 MEMB     4        POPC     H5S      HAL2     0.900000E-01   1.00800           0
       456 MEMB     4        POPC     C26      CTL2    -0.180000       12.0110           0
       457 MEMB     4        POPC     H6R      HAL2     0.900000E-01   1.00800           0
       458 MEMB     4        POPC     H6S      HAL2     0.900000E-01   1.00800           0
       459 MEMB     4        POPC     C27      CTL2    -0.180000       12.0110           0
       460 MEMB     4        POPC     H7R      HAL2     0.900000E-01   1.00800           0
       461 MEMB     4        POPC     H7S      HAL2     0.900000E-01   1.00800           0
       462 MEMB     4        POPC     C28      CTL2    -0.180000       12.0110           0
       463 MEMB     4        POPC     H8R      HAL2     0.900000E-01   1.00800           0
       464 MEMB     4        POPC     H8S      HAL2     0.900000E-01   1.00800           0
       465 MEMB     4        POPC     C29      CEL1    -0.150000       12.0110           0
       466 MEMB     4        POPC     H91      HEL1     0.150000       1.00800           0
       467 MEMB     4        POPC     C210     CEL1    -0.150000       12.0110           0
       468 MEMB     4        POPC     H101     HEL1     0.150000       1.00800           0
       469 MEMB     4        POPC     C211     CTL2    -0.180000       12.0110           0
       470 MEMB     4        POPC     H11R     HAL2     0.900000E-01   1.00800           0
       471 MEMB     4        POPC     H11S     HAL2     0.900000E-01   1.00800           0
       472 MEMB     4        POPC     C212     CTL2    -0.180000       12.0110           0
       473 MEMB     4        POPC     H12R     HAL2     0.900000E-01   1.00800           0
       474 MEMB     4        POPC     H12S     HAL2     0.900000E-01   1.00800           0
       475 MEMB     4        POPC     C213     CTL2    -0.180000       12.0110           0
       476 MEMB     4        POPC     H13R     HAL2     0.900000E-01   1.00800           0
       477 MEMB     4        POPC     H13S     HAL2     0.900000E-01   1.00800           0
       478 MEMB     4        POPC     C214     CTL2    -0.180000       12.0110           0
       479 MEMB     4        POPC     H14R     HAL2     0.900000E-01   1.00800           0
       480 MEMB     4        POPC     H14S     HAL2     0.900000E-01   1.00800           0
       481 MEMB     4        POPC     C215     CTL2    -0.180000       12.0110           0
       482 MEMB     4        POPC     H15R     HAL2     0.900000E-01   1.00800           0
       483 MEMB     4        POPC     H15S     HAL2     0.900000E-01   1.00800           0
       484 MEMB     4        POPC     C216     CTL2    -0.180000       12.0110           0
       485 MEMB     4        POPC     H16R     HAL2     0.900000E-01   1.00800           0
       486 MEMB     4        POPC     H16S     HAL2     0.900000E-01   1.00800           0
       487 MEMB     4        POPC     C217     CTL2    -0.180000       12.0110           0
       488 MEMB     4        POPC     H17R     HAL2     0.900000E-01   1.00800           0
       489 MEMB     4        POPC     H17S     HAL2     0.900000E-01   1.00800           0
       490 MEMB     4        POPC     C218     CTL3    -0.270000       12.0110           0
       491 MEMB     4        POPC     H18R     HAL3     0.900000E-01   1.00800           0
       492 MEMB     4        POPC     H18S     HAL3     0.900000E-01   1.00800           0
       493 MEMB     4        POPC     H18T     HAL3     0.900000E-01   1.00800           0
       494 MEMB     4        POPC     C33      CTL2    -0.180000       12.0110           0
       495 MEMB     4        POPC     H3X      HAL2     0.900000E-01   1.00800           0
       496 MEMB     4        POPC     H3Y      HAL2     0.900000E-01   1.00800           0
       497 MEMB     4        POPC     C34      CTL2    -0.180000       12.0110           0
       498 MEMB     4        POPC     H4X      HAL2     0.900000E-01   1.00800           0
       499 MEMB     4        POPC     H4Y      HAL2     0.900000E-01   1.00800           0
       500 MEMB     4        POPC     C35      CTL2    -0.180000       12.0110           0
       501 MEMB     4        POPC     H5X      HAL2     0.900000E-01   1.00800           0
       502 MEMB     4        POPC     H5Y      HAL2     0.900000E-01   1.00800           0
       503 MEMB     4        POPC     C36      CTL2    -0.180000       12.0110           0
       504 MEMB     4        POPC     H6X      HAL2     0.900000E-01   1.00800           0
       505 MEMB     4        POPC     H6Y      HAL2     0.900000E-01   1.00800           0
       506 MEMB     4        POPC     C37      CTL2    -0.180000       12.0110           0
       507 MEMB     4        POPC     H7X      HAL2     0.900000E-01   1.00800           0
       508 MEMB     4        POPC     H7Y      HAL2     0.900000E-01   1.00800           0
       509 MEMB     4        POPC     C38      CTL2    -0.180000       12.0110           0
       510 MEMB     4        POPC     H8X      HAL2     0.900000E-01   1.00800           0
       511 MEMB     4        POPC     H8Y      HAL2     0.900000E-01   1.00800           0
       512 MEMB     4        POPC     C39      CTL2    -0.180000       12.0110           0
       513 MEMB     4        POPC     H9X      HAL2     0.900000E-01   1.00800           0
       514 MEMB     4        POPC     H9Y      HAL2     0.900000E-01   1.00800           0
       515 MEMB     4        POPC     C310     CTL2    -0.180000       12.0110           0
       516 MEMB     4        POPC     H10X     HAL2     0.900000E-01   1.00800           0
       517 MEMB     4        POPC     H10Y     HAL2     0.900000E-01   1.00800           0
       518 MEMB     4        POPC     C311     CTL2    -0.180000       12.0110           0
       519 MEMB     4        POPC     H11X     HAL2     0.900000E-01   1.00800           0
       520 MEMB     4        POPC     H11Y     HAL2     0.900000E-01   1.00800           0
       521 MEMB     4        POPC     C312     CTL2    -0.180000       12.0110           0
       522 MEMB     4        POPC     H12X     HAL2     0.900000E-01   1.00800           0
       523 MEMB     4        POPC     H12Y     HAL2     0.900000E-01   1.00800           0
       524 MEMB     4        POPC     C313     CTL2    -0.180000       12.0110           0
       525 MEMB     4        POPC     H13X     HAL2     0.900000E-01   1.00800           0
       526 MEMB     4        POPC     H13Y     HAL2     0.900000E-01   1.00800           0
       527 MEMB     4        POPC     C314     CTL2    -0.180000       12.0110           0
       528 MEMB     4        POPC     H14X     HAL2     0.900000E-01   1.00800           0
       529 MEMB     4        POPC     H14Y     HAL2     0.900000E-01   1.00800           0
       530 MEMB     4        POPC     C315     CTL2    -0.180000       12.0110           0
       531 MEMB     4        POPC     H15X     HAL2     0.900000E-01   1.00800           0
       532 MEMB     4        POPC     H15Y     HAL2     0.900000E-01   1.00800           0
       533 MEMB     4        POPC     C316     CTL3    -0.270000       12.0110           0
       534 MEMB     4        POPC     H16X     HAL3     0.900000E-01   1.00800           0
       535 MEMB     4        POPC     H16Y     HAL3     0.900000E-01   1.00800           0
       536 MEMB     4        POPC     H16Z     HAL3     0.900000E-01   1.00800           0
       537 MEMB     5        POPC     N        NTL     -0.600000       14.0070           0
       538 MEMB     5        POPC     C12      CTL2    -0.100000       12.0110           0
       539 MEMB     5        POPC     H12A     HL       0.250000       1.00800           0
       540 MEMB     5        POPC     H12B     HL       0.250000       1.00800           0
       541 MEMB     5        POPC     C13      CTL5    -0.350000       12.0110           0
       542 MEMB     5        POPC     H13A     HL       0.250000       1.00800           0
       543 MEMB     5        POPC     H13B     HL       0.250000       1.00800           0
       544 MEMB     5        POPC     H13C     HL       0.250000       1.00800           0
       545 MEMB     5        POPC     C14      CTL5    -0.350000       12.0110           0
       546 MEMB     5        POPC     H14A     HL       0.250000       1.00800           0
       547 MEMB     5        POPC     H14B     HL       0.250000       1.00800           0
       548 MEMB     5        POPC     H14C     HL       0.250000       1.00800           0
       549 MEMB     5        POPC     C15      CTL5    -0.350000       12.0110           0
       550 MEMB     5        POPC     H15A     HL       0.250000       1.00800           0
       551 MEMB     5        POPC     H15B     HL       0.250000       1.00800           0
       552 MEMB     5        POPC     H15C     HL       0.250000       1.00800           0
       553 MEMB     5        POPC     C11      CTL2    -0.800000E-01   12.0110           0
       554 MEMB     5        POPC     H11A     HAL2     0.900000E-01   1.00800           0
       555 MEMB     5        POPC     H11B     HAL2     0.900000E-01   1.00800           0
       556 MEMB     5        POPC     P        PL       1.500000       30.9740           0
       557 MEMB     5        POPC     O13      O2L     -0.780000       15.9994           0
       558 MEMB     5        POPC     O14      O2L     -0.780000       15.9994           0
       559 MEMB     5        POPC     O12      OSLP    -0.570000       15.9994           0
       560 MEMB     5        POPC     O11      OSLP    -0.570000       15.9994           0
       561 MEMB     5        POPC     C1       CTL2    -0.800000E-01   12.0110           0
       562 MEMB     5        POPC     HA       HAL2     0.900000E-01   1.00800           0
       563 MEMB     5        POPC     HB       HAL2     0.900000E-01   1.00800           0
       564 MEMB     5        POPC     C2       CTL1     0.170000       12.0110           0
       565 MEMB     5        POPC     HS       HAL1     0.900000E-01   1.00800           0
       566 MEMB     5        POPC     O21      OSL     -0.490000       15.9994           0
       567 MEMB     5        POPC     C21      CL       0.900000       12.0110           0
       568 MEMB     5        POPC     O22      OBL     -0.630000       15.9994           0
       569 MEMB     5        POPC     C22      CTL2    -0.220000       12.0110           0
       570 MEMB     5        POPC     H2R      HAL2     0.900000E-01   1.00800           0
       571 MEMB     5        POPC     H2S      HAL2     0.900000E-01   1.00800           0
       572 MEMB     5        POPC     C3       CTL2     0.800000E-01   12.0110           0
       573 MEMB     5        POPC     HX       HAL2     0.900000E-01   1.00800           0
       574 MEMB     5        POPC     HY       HAL2     0.900000E-01   1.00800           0
       575 MEMB     5        POPC     O31      OSL     -0.490000       15.9994           0
       576 MEMB     5        POPC     C31      CL       0.900000       12.0110           0
       577 MEMB     5        POPC     O32      OBL     -0.630000       15.9994           0
       578 MEMB     5        POPC     C32      CTL2    -0.220000       12.0110           0
       579 MEMB     5        POPC     H2X      HAL2     0.900000E-01   1.00800           0
       580 MEMB     5        POPC     H2Y      HAL2     0.900000E-01   1.00800           0
       581 MEMB     5        POPC     C23      CTL2    -0.180000       12.0110           0
       582 MEMB     5        POPC     H3R      HAL2     0.900000E-01   1.00800           0
       583 MEMB     5        POPC     H3S      HAL2     0.900000E-01   1.00800           0
       584 MEMB     5        POPC     C24      CTL2    -0.180000       12.0110           0
       585 MEMB     5        POPC     H4R      HAL2     0.900000E-01   1.00800           0
       586 MEMB     5        POPC     H4S      HAL2     0.900000E-01   1.00800           0
       587 MEMB     5        POPC     C25      CTL2    -0.180000       12.0110           0
       588 MEMB     5        POPC     H5R      HAL2     0.900000E-01   1.00800           0
       589 MEMB     5        POPC     H5S      HAL2     0.900000E-01   1.00800           0
       590 MEMB     5        POPC     C26      CTL2    -0.180000       12.0110           0
       591 MEMB     5        POPC     H6R      HAL2     0.900000E-01   1.00800           0
       592 MEMB     5        POPC     H6S      HAL2     0.900000E-01   1.00800           0
       593 MEMB     5        POPC     C27      CTL2    -0.180000       12.0110           0
       594 MEMB     5        POPC     H7R      HAL2     0.900000E-01   1.00800           0
       595 MEMB     5        POPC     H7S      HAL2     0.900000E-01   1.00800           0
       596 MEMB     5        POPC     C28      CTL2    -0.180000       12.0110           0
       597 MEMB     5        POPC     H8R      HAL2     0.900000E-01   1.00800           0
       598 MEMB     5        POPC     H8S      HAL2     0.900000E-01   1.00800           0
       599 MEMB     5        POPC     C29      CEL1    -0.150000       12.0110           0
       600 MEMB     5        POPC     H91      HEL1     0.150000       1.00800           0
       601 MEMB     5        POPC     C210     CEL1    -0.150000       12.0110           0
       602 MEMB     5        POPC     H101     HEL1     0.150000       1.00800           0
       603 MEMB     5        POPC     C211     CTL2    -0.180000       12.0110           0
       604 MEMB     5        POPC     H11R     HAL2     0.900000E-01   1.00800           0
       605 MEMB     5        POPC     H11S     HAL2     0.900000E-01   1.00800           0
       606 MEMB     5        POPC     C212     CTL2    -0.180000       12.0110           0
       607 MEMB     5        POPC     H12R     HAL2     0.900000E-01   1.00800           0
       608 MEMB     5        POPC     H12S     HAL2     0.900000E-01   1.00800           0
       609 MEMB     5        POPC     C213     CTL2    -0.180000       12.0110           0
       610 MEMB     5        POPC     H13R     HAL2     0.900000E-01   1.00800           0
       611 MEMB     5        POPC     H13S     HAL2     0.900000E-01   1.00800           0
       612 MEMB     5        POPC     C214     CTL2    -0.180000       12.0110           0
       613 MEMB     5        POPC     H14R     HAL2     0.900000E-01   1.00800           0
       614 MEMB     5        POPC     H14S     HAL2     0.900000E-01   1.00800           0
       615 MEMB     5        POPC     C215     CTL2    -0.180000       12.0110           0
       616 MEMB     5        POPC     H15R     HAL2     0.900000E-01   1.00800           0
       617 MEMB     5        POPC     H15S     HAL2     0.900000E-01   1.00800           0
       618 MEMB     5        POPC     C216     CTL2    -0.180000       12.0110           0
       619 MEMB     5        POPC     H16R     HAL2     0.900000E-01   1.00800           0
       620 MEMB     5        POPC     H16S     HAL2     0.900000E-01   1.00800           0
       621 MEMB     5        POPC     C217     CTL2    -0.180000       12.0110           0
       622 MEMB     5        POPC     H17R     HAL2     0.900000E-01   1.00800           0
       623 MEMB     5        POPC     H17S     HAL2     0.900000E-01   1.00800           0
       624 MEMB     5        POPC     C218     CTL3    -0.270000       12.0110           0
       625 MEMB     5        POPC     H18R     HAL3     0.900000E-01   1.00800           0
       626 MEMB     5        POPC     H18S     HAL3     0.900000E-01   1.00800           0
       627 MEMB     5        POPC     H18T     HAL3     0.900000E-01   1.00800           0
       628 MEMB     5        POPC     C33      CTL2    -0.180000       12.0110           0
       629 MEMB     5        POPC     H3X      HAL2     0.900000E-01   1.00800           0
       630 MEMB     5        POPC     H3Y      HAL2     0.900000E-01   1.00800           0
       631 MEMB     5        POPC     C34      CTL2    -0.180000       12.0110           0
       632 MEMB     5        POPC     H4X      HAL2     0.900000E-01   1.00800           0
       633 MEMB     5        POPC     H4Y      HAL2     0.900000E-01   1.00800           0
       634 MEMB     5        POPC     C35      CTL2    -0.180000       12.0110           0
       635 MEMB     5        POPC     H5X      HAL2     0.900000E-01   1.00800           0
       636 MEMB     5        POPC     H5Y      HAL2     0.900000E-01   1.00800           0
       637 MEMB     5        POPC     C36      CTL2    -0.180000       12.0110           0
       638 MEMB     5        POPC     H6X      HAL2     0.900000E-01   1.00800           0
       639 MEMB     5        POPC     H6Y      HAL2     0.900000E-01   1.00800           0
       640 MEMB     5        POPC     C37      CTL2    -0.180000       12.0110           0
       641 MEMB     5        POPC     H7X      HAL2     0.900000E-01   1.00800           0
       642 MEMB     5        POPC     H7Y      HAL2     0.900000E-01   1.00800           0
       643 MEMB     5        POPC     C38      CTL2    -0.180000       12.0110           0
       644 MEMB     5        POPC     H8X      HAL2     0.900000E-01   1.00800           0
       645 MEMB     5        POPC     H8Y      HAL2     0.900000E-01   1.00800           0
       646 MEMB     5        POPC     C39      CTL2    -0.180000       12.0110           0
       647 MEMB     5        POPC     H9X      HAL2     0.900000E-01   1.00800           0
       648 MEMB     5        POPC     H9Y      HAL2     0.900000E-01   1.00800           0
       649 MEMB     5        POPC     C310     CTL2    -0.180000       12.0110           0
       650 MEMB     5        POPC     H10X     HAL2     0.900000E-01   1.00800           0
       651 MEMB     5        POPC     H10Y     HAL2     0.900000E-01   1.00800           0
       652 MEMB     5        POPC     C311     CTL2    -0.180000       12.0110           0
       653 MEMB     5        POPC     H11X     HAL2     0.900000E-01   1.00800           0
       654 MEMB     5        POPC     H11Y     HAL2     0.900000E-01   1.00800           0
       655 MEMB     5        POPC     C312     CTL2    -0.180000       12.0110           0
       656 MEMB     5        POPC     H12X     HAL2     0.900000E-01   1.00800           0
       657 MEMB     5        POPC     H12Y     HAL2     0.900000E-01   1.00800           0
       658 MEMB     5        POPC     C313     CTL2    -0.180000       12.0110           0
       659 MEMB     5        POPC     H13X     HAL2     0.900000E-01   1.00800           0
       660 MEMB     5        POPC     H13Y     HAL2     0.900000E-01   1.00800           0
       661 MEMB     5        POPC     C314     CTL2    -0.180000       12.0110           0
       662 MEMB     5        POPC     H14X     HAL2     0.900000E-01   1.00800           0
       663 MEMB     5        POPC     H14Y     HAL2     0.900000E-01   1.00800           0
       664 MEMB     5        POPC     C315     CTL2    -0.180000       12.0110           0
       665 MEMB     5        POPC     H15X     HAL2     0.900000E-01   1.00800           0
       666 MEMB     5        POPC     H15Y     HAL2     0.900000E-01   1.00800           0
       667 MEMB     5        POPC     C316     CTL3    -0.270000       12.0110           0
       668 MEMB     5        POPC     H16X     HAL3     0.900000E-01   1.00800           0
       669 MEMB     5        POPC     H16Y     HAL3     0.900000E-01   1.00800           0
       670 MEMB     5        POPC     H16Z     HAL3     0.900000E-01   1.00800           0
       671 MEMB     6        POPC     N        NTL     -0.600000       14.0070           0
       672 MEMB     6        POPC     C12      CTL2    -0.100000       12.0110           0
       673 MEMB     6        POPC     H12A     HL       0.250000       1.00800           0
       674 MEMB     6        POPC     H12B     HL       0.250000       1.00800           0
       675 MEMB     6        POPC     C13      CTL5    -0.350000       12.0110           0
       676 MEMB     6        POPC     H13A     HL       0.250000       1.00800           0
       677 MEMB     6        POPC     H13B     HL       0.250000       1.00800           0
       678 MEMB     6        POPC     H13C     HL       0.250000       1.00800           0
       679 MEMB     6        POPC     C14      CTL5    -0.350000       12.0110           0
       680 MEMB     6        POPC     H14A     HL       0.250000       1.00800           0
       681 MEMB     6        POPC     H14B     HL       0.250000       1.00800           0
       682 MEMB     6        POPC     H14C     HL       0.250000       1.00800           0
       683 MEMB     6        POPC     C15      CTL5    -0.350000       12.0110           0
       684 MEMB     6        POPC     H15A     HL       0.250000       1.00800           0
       685 MEMB     6        POPC     H15B     HL       0.250000       1.00800           0
       686 MEMB     6        POPC     H15C     HL       0.250000       1.00800           0
       687 MEMB     6        POPC     C11      CTL2    -0.800000E-01   12.0110           0
       688 MEMB     6        POPC     H11A     HAL2     0.900000E-01   1.00800           0
       689 MEMB     6        POPC     H11B     HAL2     0.900000E-01   1.00800           0
       690 MEMB     6        POPC     P        PL       1.500000       30.9740           0
       691 MEMB     6        POPC     O13      O2L     -0.780000       15.9994           0
       692 MEMB     6        POPC     O14      O2L     -0.780000       15.9994           0
       693 MEMB     6        POPC     O12      OSLP    -0.570000       15.9994           0
       694 MEMB     6        POPC     O11      OSLP    -0.570000       15.9994           0
       695 MEMB     6        POPC     C1       CTL2    -0.800000E-01   12.0110           0
       696 MEMB     6        POPC     HA       HAL2     0.900000E-01   1.00800           0
       697 MEMB     6        POPC     HB       HAL2     0.900000E-01   1.00800           0
       698 MEMB     6        POPC     C2       CTL1     0.170000       12.0110           0
       699 MEMB     6        POPC     HS       HAL1     0.900000E-01   1.00800           0
       700 MEMB     6        POPC     O21      OSL     -0.490000       15.9994           0
       701 MEMB     6        POPC     C21      CL       0.900000       12.0110           0
       702 MEMB     6        POPC     O22      OBL     -0.630000       15.9994           0
       703 MEMB     6        POPC     C22      CTL2    -0.220000       12.0110           0
       704 MEMB     6        POPC     H2R      HAL2     0.900000E-01   1.00800           0
       705 MEMB     6        POPC     H2S      HAL2     0.900000E-01   1.00800           0
       706 MEMB     6        POPC     C3       CTL2     0.800000E-01   12.0110           0
       707 MEMB     6        POPC     HX       HAL2     0.900000E-01   1.00800           0
       708 MEMB     6        POPC     HY       HAL2     0.900000E-01   1.00800           0
       709 MEMB     6        POPC     O31      OSL     -0.490000       15.9994           0
       710 MEMB     6        POPC     C31      CL       0.900000       12.0110           0
       711 MEMB     6        POPC     O32      OBL     -0.630000       15.9994           0
       712 MEMB     6        POPC     C32      CTL2    -0.220000       12.0110           0
       713 MEMB     6        POPC     H2X      HAL2     0.900000E-01   1.00800           0
       714 MEMB     6        POPC     H2Y      HAL2     0.900000E-01   1.00800           0
       715 MEMB     6        POPC     C23      CTL2    -0.180000       12.0110           0
       716 MEMB     6        POPC     H3R      HAL2     0.900000E-01   1.00800           0
       717 MEMB     6        POPC     H3S      HAL2     0.900000E-01   1.00800           0
       718 MEMB     6        POPC     C24      CTL2    -0.180000       12.0110           0
       719 MEMB     6        POPC     H4R      HAL2     0.900000E-01   1.00800           0
       720 MEMB     6        POPC     H4S      HAL2     0.900000E-01   1.00800           0
       721 MEMB     6        POPC     C25      CTL2    -0.180000       12.0110           0
       722 MEMB     6        POPC     H5R      HAL2     0.900000E-01   1.00800           0
       723 MEMB     6        POPC     H5S      HAL2     0.900000E-01   1.00800           0
       724 MEMB     6        POPC     C26      CTL2    -0.180000       12.0110           0
       725 MEMB     6        POPC     H6R      HAL2     0.900000E-01   1.00800           0
       726 MEMB     6        POPC     H6S      HAL2     0.900000E-01   1.00800           0
       727 MEMB     6        POPC     C27      CTL2    -0.180000       12.0110           0
       728 MEMB     6        POPC     H7R      HAL2     0.900000E-01   1.00800           0
       729 MEMB     6        POPC     H7S      HAL2     0.900000E-01   1.00800           0
       730 MEMB     6        POPC     C28      CTL2    -0.180000       12.0110           0
       731 MEMB     6        POPC     H8R      HAL2     0.900000E-01   1.00800           0
       732 MEMB     6        POPC     H8S      HAL2     0.900000E-01   1.00800           0
       733 MEMB     6        POPC     C29      CEL1    -0.150000       12.0110           0
       734 MEMB     6        POPC     H91      HEL1     0.150000       1.00800           0
       735 MEMB     6        POPC     C210     CEL1    -0.150000       12.0110           0
       736 MEMB     6        POPC     H101     HEL1     0.150000       1.00800           0
       737 MEMB     6        POPC     C211     CTL2    -0.180000       12.0110           0
       738 MEMB     6        POPC     H11R     HAL2     0.900000E-01   1.00800           0
       739 MEMB     6        POPC     H11S     HAL2     0.900000E-01   1.00800           0
       740 MEMB     6        POPC     C212     CTL2    -0.180000       12.0110           0
       741 MEMB     6        POPC     H12R     HAL2     0.900000E-01   1.00800           0
       742 MEMB     6        POPC     H12S     HAL2     0.900000E-01   1.00800           0
       743 MEMB     6        POPC     C213     CTL2    -0.180000       12.0110           0
       744 MEMB     6        POPC     H13R     HAL2     0.900000E-01   1.00800           0
       745 MEMB     6        POPC     H13S     HAL2     0.900000E-01   1.00800           0
       746 MEMB     6        POPC     C214     CTL2    -0.180000       12.0110           0
       747 MEMB     6        POPC     H14R     HAL2     0.900000E-01   1.00800           0
       748 MEMB     6        POPC     H14S     HAL2     0.900000E-01   1.00800           0
       749 MEMB     6        POPC     C215     CTL2    -0.180000       12.0110           0
       750 MEMB     6        POPC     H15R     HAL2     0.900000E-01   1.00800           0
       751 MEMB     6        POPC     H15S     HAL2     0.900000E-01   1.00800           0
       752 MEMB     6        POPC     C216     CTL2    -0.180000       12.0110           0
       753 MEMB     6        POPC     H16R     HAL2     0.900000E-01   1.00800           0
       754 MEMB     6        POPC     H16S     HAL2     0.900000E-01   1.00800           0
       755 MEMB     6        POPC     C217     CTL2    -0.180000       12.0110           0
       756 MEMB     6        POPC     H17R     HAL2     0.900000E-01   1.00800           0
       757 MEMB     6        POPC     H17S     HAL2     0.900000E-01   1.00800           0
       758 MEMB     6        POPC     C218     CTL3    -0.270000       12.0110           0
       759 MEMB     6        POPC     H18R     HAL3     0.900000E-01   1.00800           0
       760 MEMB     6        POPC     H18S     HAL3     0.900000E-01   1.00800           0
       761 MEMB     6        POPC     H18T     HAL3     0.900000E-01   1.00800           0
       762 MEMB     6        POPC     C33      CTL2    -0.180000       12.0110           0
       763 MEMB     6        POPC     H3X      HAL2     0.900000E-01   1.00800           0
       764 MEMB     6        POPC     H3Y      HAL2     0.900000E-01   1.00800           0
       765 MEMB     6        POPC     C34      CTL2    -0.180000       12.0110           0
       766 MEMB     6        POPC     H4X      HAL2     0.900000E-01   1.00800           0
       767 MEMB     6        POPC     H4Y      HAL2     0.900000E-01   1.00800           0
       768 MEMB     6        POPC     C35      CTL2    -0.180000       12.0110           0
       769 MEMB     6        POPC     H5X      HAL2     0.900000E-01   1.00800           0
       770 MEMB     6        POPC     H5Y      HAL2     0.900000E-01   1.00800           0
       771 MEMB     6        POPC     C36      CTL2    -0.180000       12.0110           0
       772 MEMB     6        POPC     H6X      HAL2     0.900000E-01   1.00800           0
       773 MEMB     6        POPC     H6Y      HAL2     0.900000E-01   1.00800           0
       774 MEMB     6        POPC     C37      CTL2    -0.180000       12.0110           0
       775 MEMB     6        POPC     H7X      HAL2     0.900000E-01   1.00800           0
       776 MEMB     6        POPC     H7Y      HAL2     0.900000E-01   1.00800           0
       777 MEMB     6        POPC     C38      CTL2    -0.180000       12.0110           0
       778 MEMB     6        POPC     H8X      HAL2     0.900000E-01   1.00800           0
       779 MEMB     6        POPC     H8Y      HAL2     0.900000E-01   1.00800           0
       780 MEMB     6        POPC     C39      CTL2    -0.180000       12.0110           0
       781 MEMB     6        POPC     H9X      HAL2     0.900000E-01   1.00800           0
       782 MEMB     6        POPC     H9Y      HAL2     0.900000E-01   1.00800           0
       783 MEMB     6        POPC     C310     CTL2    -0.180000       12.0110           0
       784 MEMB     6        POPC     H10X     HAL2     0.900000E-01   1.00800           0
       785 MEMB     6        POPC     H10Y     HAL2     0.900000E-01   1.00800           0
       786 MEMB     6        POPC     C311     CTL2    -0.180000       12.0110           0
       787 MEMB     6        POPC     H11X     HAL2     0.900000E-01   1.00800           0
       788 MEMB     6        POPC     H11Y     HAL2     0.900000E-01   1.00800           0
       789 MEMB     6        POPC     C312     CTL2    -0.180000       12.0110           0
       790 MEMB     6        POPC     H12X     HAL2     0.900000E-01   1.00800           0
       791 MEMB     6        POPC     H12Y     HAL2     0.900000E-01   1.00800           0
       792 MEMB     6        POPC     C313     CTL2    -0.180000       12.0110           0
       793 MEMB     6        POPC     H13X     HAL2     0.900000E-01   1.00800           0
       794 MEMB     6        POPC     H13Y     HAL2     0.900000E-01   1.00800           0
       795 MEMB     6        POPC     C314     CTL2    -0.180000       12.0110           0
       796 MEMB     6        POPC     H14X     HAL2     0.900000E-01   1.00800           0
       797 MEMB     6        POPC     H14Y     HAL2     0.900000E-01   1.00800           0
       798 MEMB     6        POPC     C315     CTL2    -0.180000       12.0110           0
       799 MEMB     6        POPC     H15X     HAL2     0.900000E-01   1.00800           0
       800 MEMB     6        POPC     H15Y     HAL2     0.900000E-01   1.00800           0
       801 MEMB     6        POPC     C316     CTL3    -0.270000       12.0110           0
       802 MEMB     6        POPC     H16X     HAL3     0.900000E-01   1.00800           0
       803 MEMB     6        POPC     H16Y     HAL3     0.900000E-01   1.00800           0
       804 MEMB     6        POPC     H16Z     HAL3     0.900000E-01   1.00800           0
       805 MEMB     7        POPC     N        NTL     -0.600000       14.0070           0
       806 MEMB     7        POPC     C12      CTL2    -0.100000       12.0110           0
       807 MEMB     7        POPC     H12A     HL       0.250000       1.00800           0
       808 MEMB     7        POPC     H12B     HL       0.250000       1.00800           0
       809 MEMB     7        POPC     C13      CTL5    -0.350000       12.0110           0
       810 MEMB     7        POPC     H13A     HL       0.250000       1.00800           0
       811 MEMB     7        POPC     H13B     HL       0.250000       1.00800           0
       812 MEMB     7        POPC     H13C     HL       0.250000       1.00800           0
       813 MEMB     7        POPC     C14      CTL5    -0.350000       12.0110           0
       814 MEMB     7        POPC     H14A     HL       0.250000       1.00800           0
       815 MEMB     7        POPC     H14B     HL       0.250000       1.00800           0
       816 MEMB     7        POPC     H14C     HL       0.250000       1.00800           0
       817 MEMB     7        POPC     C15      CTL5    -0.350000       12.0110           0
       818 MEMB     7        POPC     H15A     HL       0.250000       1.00800           0
       819 MEMB     7        POPC     H15B     HL       0.250000       1.00800           0
       820 MEMB     7        POPC     H15C     HL       0.250000       1.00800           0
       821 MEMB     7        POPC     C11      CTL2    -0.800000E-01   12.0110           0
       822 MEMB     7        POPC     H11A     HAL2     0.900000E-01   1.00800           0
       823 MEMB     7        POPC     H11B     HAL2     0.900000E-01   1.00800           0
       824 MEMB     7        POPC     P        PL       1.500000       30.9740           0
       825 MEMB     7        POPC     O13      O2L     -0.780000       15.9994           0
       826 MEMB     7        POPC     O14      O2L     -0.780000       15.9994           0
       827 MEMB     7        POPC     O12      OSLP    -0.570000       15.9994           0
       828 MEMB     7        POPC     O11      OSLP    -0.570000       15.9994           0
       829 MEMB     7        POPC     C1       CTL2    -0.800000E-01   12.0110           0
       830 MEMB     7        POPC     HA       HAL2     0.900000E-01   1.00800           0
       831 MEMB     7        POPC     HB       HAL2     0.900000E-01   1.00800           0
       832 MEMB     7        POPC     C2       CTL1     0.170000       12.0110           0
       833 MEMB     7        POPC     HS       HAL1     0.900000E-01   1.00800           0
       834 MEMB     7        POPC     O21      OSL     -0.490000       15.9994           0
       835 MEMB     7        POPC     C21      CL       0.900000       12.0110           0
       836 MEMB     7        POPC     O22      OBL     -0.630000       15.9994           0
       837 MEMB     7        POPC     C22      CTL2    -0.220000       12.0110           0
       838 MEMB     7        POPC     H2R      HAL2     0.900000E-01   1.00800           0
       839 MEMB     7        POPC     H2S      HAL2     0.900000E-01   1.00800           0
       840 MEMB     7        POPC     C3       CTL2     0.800000E-01   12.0110           0
       841 MEMB     7        POPC     HX       HAL2     0.900000E-01   1.00800           0
       842 MEMB     7        POPC     HY       HAL2     0.900000E-01   1.00800           0
       843 MEMB     7        POPC     O31      OSL     -0.490000       15.9994           0
       844 MEMB     7        POPC     C31      CL       0.900000       12.0110           0
       845 MEMB     7        POPC     O32      OBL     -0.630000       15.9994           0
       846 MEMB     7        POPC     C32      CTL2    -0.220000       12.0110           0
       847 MEMB     7        POPC     H2X      HAL2     0.900000E-01   1.00800           0
       848 MEMB     7        POPC     H2Y      HAL2     0.900000E-01   1.00800           0
       849 MEMB     7        POPC     C23      CTL2    -0.180000       12.0110           0
       850 MEMB     7        POPC     H3R      HAL2     0.900000E-01   1.00800           0
       851 MEMB     7        POPC     H3S      HAL2     0.900000E-01   1.00800           0
       852 MEMB     7        POPC     C24      CTL2    -0.180000       12.0110           0
       853 MEMB     7        POPC     H4R      HAL2     0.900000E-01   1.00800           0
       854 MEMB     7        POPC     H4S      HAL2     0.900000E-01   1.00800           0
       855 MEMB     7        POPC     C25      CTL2    -0.180000       12.0110           0
       856 MEMB     7        POPC     H5R      HAL2     0.900000E-01   1.00800           0
       857 MEMB     7        POPC     H5S      HAL2     0.900000E-01   1.00800           0
       858 MEMB     7        POPC     C26      CTL2    -0.180000       12.0110           0
       859 MEMB     7        POPC     H6R      HAL2     0.900000E-01   1.00800           0
       860 MEMB     7        POPC     H6S      HAL2     0.900000E-01   1.00800           0
       861 MEMB     7        POPC     C27      CTL2    -0.180000       12.0110           0
       862 MEMB     7        POPC     H7R      HAL2     0.900000E-01   1.00800           0
       863 MEMB     7        POPC     H7S      HAL2     0.900000E-01   1.00800           0
       864 MEMB     7        POPC     C28      CTL2    -0.180000       12.0110           0
       865 MEMB     7        POPC     H8R      HAL2     0.900000E-01   1.00800           0
       866 MEMB     7        POPC     H8S      HAL2     0.900000E-01   1.00800           0
       867 MEMB     7        POPC     C29      CEL1    -0.150000       12.0110           0
       868 MEMB     7        POPC     H91      HEL1     0.150000       1.00800           0
       869 MEMB     7        POPC     C210     CEL1    -0.150000       12.0110           0
       870 MEMB     7        POPC     H101     HEL1     0.150000       1.00800           0
       871 MEMB     7        POPC     C211     CTL2    -0.180000       12.0110           0
       872 MEMB     7        POPC     H11R     HAL2     0.900000E-01   1.00800           0
       873 MEMB     7        POPC     H11S     HAL2     0.900000E-01   1.00800           0
       874 MEMB     7        POPC     C212     CTL2    -0.180000       12.0110           0
       875 MEMB     7        POPC     H12R     HAL2     0.900000E-01   1.00800           0
       876 MEMB     7        POPC     H12S     HAL2     0.900000E-01   1.00800           0
       877 MEMB     7        POPC     C213     CTL2    -0.180000       12.0110           0
       878 MEMB     7        POPC     H13R     HAL2     0.900000E-01   1.00800           0
       879 MEMB     7        POPC     H13S     HAL2     0.900000E-01   1.00800           0
       880 MEMB     7        POPC     C214     CTL2    -0.180000       12.0110           0
       881 MEMB     7        POPC     H14R     HAL2     0.900000E-01   1.00800           0
       882 MEMB     7        POPC     H14S     HAL2     0.900000E-01   1.00800           0
       883 MEMB     7        POPC     C215     CTL2    -0.180000       12.0110           0
       884 MEMB     7        POPC     H15R     HAL2     0.900000E-01   1.00800           0
       885 MEMB     7        POPC     H15S     HAL2     0.900000E-01   1.00800           0
       886 MEMB     7        POPC     C216     CTL2    -0.180000       12.0110           0
       887 MEMB     7        POPC     H16R     HAL2     0.900000E-01   1.00800           0
       888 MEMB     7        POPC     H16S     HAL2     0.900000E-01   1.00800           0
       889 MEMB     7        POPC     C217     CTL2    -0.180000       12.0110           0
       890 MEMB     7        POPC     H17R     HAL2     0.900000E-01   1.00800           0
       891 MEMB     7        POPC     H17S     HAL2     0.900000E-01   1.00800           0
       892 MEMB     7        POPC     C218     CTL3    -0.270000       12.0110           0
       893 MEMB     7        POPC     H18R     HAL3     0.900000E-01   1.00800           0
       894 MEMB     7        POPC     H18S     HAL3     0.900000E-01   1.00800           0
       895 MEMB     7        POPC     H18T     HAL3     0.900000E-01   1.00800           0
       896 MEMB     7        POPC     C33      CTL2    -0.180000       12.0110           0
       897 MEMB     7        POPC     H3X      HAL2     0.900000E-01   1.00800           0
       898 MEMB     7        POPC     H3Y      HAL2     0.900000E-01   1.00800           0
       899 MEMB     7        POPC     C34      CTL2    -0.180000       12.0110           0
       900 MEMB     7        POPC     H4X      HAL2     0.900000E-01   1.00800           0
       901 MEMB     7        POPC     H4Y      HAL2     0.900000E-01   1.00800           0
       902 MEMB     7        POPC     C35      CTL2    -0.180000       12.0110           0
       903 MEMB     7        POPC     H5X      HAL2     0.900000E-01   1.00800           0
       904 MEMB     7        POPC     H5Y      HAL2     0.900000E-01   1.00800           0
       905 MEMB     7        POPC     C36      CTL2    -0.180000       12.0110           0
       906 MEMB     7        POPC     H6X      HAL2     0.900000E-01   1.00800           0
       907 MEMB     7        POPC     H6Y      HAL2     0.900000E-01   1.00800           0
       908 MEMB     7        POPC     C37      CTL2    -0.180000       12.0110           0
       909 MEMB     7        POPC     H7X      HAL2     0.900000E-01   1.00800           0
       910 MEMB     7        POPC     H7Y      HAL2     0.900000E-01   1.00800           0
       911 MEMB     7        POPC     C38      CTL2    -0.180000       12.0110           0
       912 MEMB     7        POPC     H8X      HAL2     0.900000E-01   1.00800           0
       913 MEMB     7        POPC     H8Y      HAL2     0.900000E-01   1.00800           0
       914 MEMB     7        POPC     C39      CTL2    -0.180000       12.0110           0
       915 MEMB     7        POPC     H9X      HAL2     0.900000E-01   1.00800           0
       916 MEMB     7        POPC     H9Y      HAL2     0.900000E-01   1.00800           0
       917 MEMB     7        POPC     C310     CTL2    -0.180000       12.0110           0
       918 MEMB     7        POPC     H10X     HAL2     0.900000E-01   1.00800           0
       919 MEMB     7        POPC     H10Y     HAL2     0.900000E-01   1.00800           0
       920 MEMB     7        POPC     C311     CTL2    -0.180000       12.0110           0
       921 MEMB     7        POPC     H11X     HAL2     0.900000E-01   1.00800           0
       922 MEMB     7        POPC     H11Y     HAL2     0.900000E-01   1.00800           0
       923 MEMB     7        POPC     C312     CTL2    -0.180000       12.0110           0
       924 MEMB     7        POPC     H12X     HAL2     0.900000E-01   1.00800           0
       925 MEMB     7        POPC     H12Y     HAL2     0.900000E-01   1.00800           0
       926 MEMB     7        POPC     C313     CTL2    -0.180000       12.0110           0
       927 MEMB     7        POPC     H13X     HAL2     0.900000E-01   1.00800           0
       928 MEMB     7        POPC     H13Y     HAL2     0.900000E-01   1.00800           0
       929 MEMB     7        POPC     C314     CTL2    -0.180000       12.0110           0
       930 MEMB     7        POPC     H14X     HAL2     0.900000E-01   1.00800           0
       931 MEMB     7        POPC     H14Y     HAL2     0.900000E-01   1.00800           0
       932 MEMB     7        POPC     C315     CTL2    -0.180000       12.0110           0
       933 MEMB     7        POPC     H15X     HAL2     0.900000E-01   1.00800           0
       934 MEMB     7        POPC     H15Y     HAL2     0.900000E-01   1.00800           0
       935 MEMB     7        POPC     C316     CTL3    -0.270000       12.0110           0
       936 MEMB     7        POPC     H16X     HAL3     0.900000E-01   1.00800           0
       937 MEMB     7        POPC     H16Y     HAL3     0.900000E-01   1.00800           0
       938 MEMB     7        POPC     H16Z     HAL3     0.900000E-01   1.00800           0
       939 MEMB     8        POPC     N        NTL     -0.600000       14.0070           0
       940 MEMB     8        POPC     C12      CTL2    -0.100000       12.0110           0
       941 MEMB     8        POPC     H12A     HL       0.250000       1.00800           0
       942 MEMB     8        POPC     H12B     HL       0.250000       1.00800           0
       943 MEMB     8        POPC     C13      CTL5    -0.350000       12.0110           0
       944 MEMB     8        POPC     H13A     HL       0.250000       1.00800           0
       945 MEMB     8        POPC     H13B     HL       0.250000       1.00800           0
       946 MEMB     8        POPC     H13C     HL       0.250000       1.00800           0
       947 MEMB     8        POPC     C14      CTL5    -0.350000       12.0110           0
       948 MEMB     8        POPC     H14A     HL       0.250000       1.00800           0
       949 MEMB     8        POPC     H14B     HL       0.250000       1.00800           0
       950 MEMB     8        POPC     H14C     HL       0.250000       1.00800           0
       951 MEMB     8        POPC     C15      CTL5    -0.350000       12.0110           0
       952 MEMB     8        POPC     H15A     HL       0.250000       1.00800           0
       953 MEMB     8        POPC     H15B     HL       0.250000       1.00800           0
       954 MEMB     8        POPC     H15C     HL       0.250000       1.00800           0
       955 MEMB     8        POPC     C11      CTL2    -0.800000E-01   12.0110           0
       956 MEMB     8        POPC     H11A     HAL2     0.900000E-01   1.00800           0
       957 MEMB     8        POPC     H11B     HAL2     0.900000E-01   1.00800           0
       958 MEMB     8        POPC     P        PL       1.500000       30.9740           0
       959 MEMB     8        POPC     O13      O2L     -0.780000       15.9994           0
       960 MEMB     8        POPC     O14      O2L     -0.780000       15.9994           0
       961 MEMB     8        POPC     O12      OSLP    -0.570000       15.9994           0
       962 MEMB     8        POPC     O11      OSLP    -0.570000       15.9994           0
       963 MEMB     8        POPC     C1       CTL2    -0.800000E-01   12.0110           0
       964 MEMB     8        POPC     HA       HAL2     0.900000E-01   1.00800           0
       965 MEMB     8        POPC     HB       HAL2     0.900000E-01   1.00800           0
       966 MEMB     8        POPC     C2       CTL1     0.170000       12.0110           0
       967 MEMB     8        POPC     HS       HAL1     0.900000E-01   1.00800           0
       968 MEMB     8        POPC     O21      OSL     -0.490000       15.9994           0
       969 MEMB     8        POPC     C21      CL       0.900000       12.0110           0
       970 MEMB     8        POPC     O22      OBL     -0.630000       15.9994           0
       971 MEMB     8        POPC     C22      CTL2    -0.220000       12.0110           0
       972 MEMB     8        POPC     H2R      HAL2     0.900000E-01   1.00800           0
       973 MEMB     8        POPC     H2S      HAL2     0.900000E-01   1.00800           0
       974 MEMB     8        POPC     C3       CTL2     0.800000E-01   12.0110           0
       975 MEMB     8        POPC     HX       HAL2     0.900000E-01   1.00800           0
       976 MEMB     8        POPC     HY       HAL2     0.900000E-01   1.00800           0
       977 MEMB     8        POPC     O31      OSL     -0.490000       15.9994           0
       978 MEMB     8        POPC     C31      CL       0.900000       12.0110           0
       979 MEMB     8        POPC     O32      OBL     -0.630000       15.9994           0
       980 MEMB     8        POPC     C32      CTL2    -0.220000       12.0110           0
       981 MEMB     8        POPC     H2X      HAL2     0.900000E-01   1.00800           0
       982 MEMB     8        POPC     H2Y      HAL2     0.900000E-01   1.00800           0
       983 MEMB     8        POPC     C23      CTL2    -0.180000       12.0110           0
       984 MEMB     8        POPC     H3R      HAL2     0.900000E-01   1.00800           0
       985 MEMB     8        POPC     H3S      HAL2     0.900000E-01   1.00800           0
       986 MEMB     8        POPC     C24      CTL2    -0.180000       12.0110           0
       987 MEMB     8        POPC     H4R      HAL2     0.900000E-01   1.00800           0
       988 MEMB     8        POPC     H4S      HAL2     0.900000E-01   1.00800           0
       989 MEMB     8        POPC     C25      CTL2    -0.180000       12.0110           0
       990 MEMB     8        POPC     H5R      HAL2     0.900000E-01   1.00800           0
       991 MEMB     8        POPC     H5S      HAL2     0.900000E-01   1.00800           0
       992 MEMB     8        POPC     C26      CTL2    -0.180000       12.0110           0
       993 MEMB     8        POPC     H6R      HAL2     0.900000E-01   1.00800           0
       994 MEMB     8        POPC     H6S      HAL2     0.900000E-01   1.00800           0
       995 MEMB     8        POPC     C27      CTL2    -0.180000       12.0110           0
       996 MEMB     8        POPC     H7R      HAL2     0.900000E-01   1.00800           0
       997 MEMB     8        POPC     H7S      HAL2     0.900000E-01   1.00800           0
       998 MEMB     8        POPC     C28      CTL2    -0.180000       12.0110           0
       999 MEMB     8        POPC     H8R      HAL2     0.900000E-01   1.00800           0
      1000 MEMB     8        POPC     H8S      HAL2     0.900000E-01   1.00800           0
      1001 MEMB     8        POPC     C29      CEL1    -0.150000       12.0110           0
      1002 MEMB     8        POPC     H91      HEL1     0.150000       1.00800           0
      1003 MEMB     8        POPC     C210     CEL1    -0.150000       12.0110           0
      1004 MEMB     8        POPC     H101     HEL1     0.150000       1.00800           0
      1005 MEMB     8        POPC     C211     CTL2    -0.180000       12.0110           0
      1006 MEMB     8        POPC     H11R     HAL2     0.900000E-01   1.00800           0
      1007 MEMB     8        POPC     H11S     HAL2     0.900000E-01   1.00800           0
      1008 MEMB     8        POPC     C212     CTL2    -0.180000       12.0110           0
      1009 MEMB     8        POPC     H12R     HAL2     0.900000E-01   1.00800           0
      1010 MEMB     8        POPC     H12S     HAL2     0.900000E-01   1.00800           0
      1011 MEMB     8        POPC     C213     CTL2    -0.180000       12.0110           0
      1012 MEMB     8        POPC     H13R     HAL2     0.900000E-01   1.00800           0
      1013 MEMB     8        POPC     H13S     HAL2     0.900000E-01   1.00800           0
      1014 MEMB     8        POPC     C214     CTL2    -0.180000       12.0110           0
      1015 MEMB     8        POPC     H14R     HAL2     0.900000E-01   1.00800           0
      1016 MEMB     8        POPC     H14S     HAL2     0.900000E-01   1.00800           0
      1017 MEMB     8        POPC     C215     CTL2    -0.180000       12.0110           0
      1018 MEMB     8        POPC     H15R     HAL2     0.900000E-01   1.00800           0
      1019 MEMB     8        POPC     H15S     HAL2     0.900000E-01   1.00800           0
      1020 MEMB     8        POPC     C216     CTL2    -0.180000       12.0110           0
      1021 MEMB     8        POPC     H16R     HAL2     0.900000E-01   1.00800           0
      1022 MEMB     8        POPC     H16S     HAL2     0.900000E-01   1.00800           0
      1023 MEMB     8        POPC     C217     CTL2    -0.180000       12.0110           0
      1024 MEMB     8        POPC     H17R     HAL2     0.900000E-01   1.00800           0
      1025 MEMB     8        POPC     H17S     HAL2     0.900000E-01   1.00800           0
      1026 MEMB     8        POPC     C218     CTL3    -0.270000       12.0110           0
      1027 MEMB     8        POPC     H18R     HAL3     0.900000E-01   1.00800           0
      1028 MEMB     8        POPC     H18S     HAL3     0.900000E-01   1.00800           0
      1029 MEMB     8        POPC     H18T     HAL3     0.900000E-01   1.00800           0
      1030 MEMB     8        POPC     C33      CTL2    -0.180000       12.0110           0
      1031 MEMB     8        POPC     H3X      HAL2     0.900000E-01   1.00800           0
      1032 MEMB     8        POPC     H3Y      HAL2     0.900000E-01   1.00800           0
      1033 MEMB     8        POPC     C34      CTL2    -0.180000       12.0110           0
      1034 MEMB     8        POPC     H4X      HAL2     0.900000E-01   1.00800           0
      1035 MEMB     8        POPC     H4Y      HAL2     0.900000E-01   1.00800           0
      1036 MEMB     8        POPC     C35      CTL2    -0.180000       12.0110           0
      1037 MEMB     8        POPC     H5X      HAL2     0.900000E-01   1.00800           0
      1038 MEMB     8        POPC     H5Y      HAL2     0.900000E-01   1.00800           0
      1039 MEMB     8        POPC     C36      CTL2    -0.180000       12.0110           0
      1040 MEMB     8        POPC     H6X      HAL2     0.900000E-01   1.00800           0
      1041 MEMB     8        POPC     H6Y      HAL2     0.900000E-01   1.00800           0
      1042 MEMB     8        POPC     C37      CTL2    -0.180000       12.0110           0
      1043 MEMB     8        POPC     H7X      HAL2     0.900000E-01   1.00800           0
      1044 MEMB     8        POPC     H7Y      HAL2     0.900000E-01   1.00800           0
      1045 MEMB     8        POPC     C38      CTL2    -0.180000       12.0110           0
      1046 MEMB     8        POPC     H8X      HAL2     0.900000E-01   1.00800           0
      1047 MEMB     8        POPC     H8Y      HAL2     0.900000E-01   1.00800           0
      1048 MEMB     8        POPC     C39      CTL2    -0.180000       12.0110           0
      1049 MEMB     8        POPC     H9X      HAL2     0.900000E-01   1.00800           0
      1050 MEMB     8        POPC     H9Y      HAL2     0.900000E-01   1.00800           0
      1051 MEMB     8        POPC     C310     CTL2    -0.180000       12.0110           0
      1052 MEMB     8        POPC     H10X     HAL2     0.900000E-01   1.00800           0
      1053 MEMB     8        POPC     H10Y     HAL2     0.900000E-01   1.00800           0
      1054 MEMB     8        POPC     C311     CTL2    -0.180000       12.0110           0
      1055 MEMB     8        POPC     H11X     HAL2     0.900000E-01   1.00800           0
      1056 MEMB     8        POPC     H11Y     HAL2     0.900000E-01   1.00800           0
      1057 MEMB     8        POPC     C312     CTL2    -0.180000       12.0110           0
      1058 MEMB     8        POPC     H12X     HAL2     0.900000E-01   1.00800           0
      1059 MEMB     8        POPC     H12Y     HAL2     0.900000E-01   1.00800           0
      1060 MEMB     8        POPC     C313     CTL2    -0.180000       12.0110           0
      1061 MEMB     8        POPC     H13X     HAL2     0.900000E-01   1.00800           0
      1062 MEMB     8        POPC     H13Y     HAL2     0.900000E-01   1.00800           0
      1063 MEMB     8        POPC     C314     CTL2    -0.180000       12.0110           0
      1064 MEMB     8        POPC     H14X     HAL2     0.900000E-01   1.00800           0
      1065 MEMB     8        POPC     H14Y     HAL2     0.900000E-01   1.00800           0
      1066 MEMB     8        POPC     C315     CTL2    -0.180000       12.0110           0
      1067 MEMB     8        POPC     H15X     HAL2     0.900000E-01   1.00800           0
      1068 MEMB     8        POPC     H15Y     HAL2     0.900000E-01   1.00800           0
      1069 MEMB     8        POPC     C316     CTL3    -0.270000       12.0110           0
      1070 MEMB     8        POPC     H16X     HAL3     0.900000E-01   1.00800           0
      1071 MEMB     8        POPC     H16Y     HAL3     0.900000E-01   1.00800           0
      1072 MEMB     8        POPC     H16Z     HAL3     0.900000E-01   1.00800           0
      1073 MEMB     9        POPC     N        NTL     -0.600000       14.0070           0
      1074 MEMB     9        POPC     C12      CTL2    -0.100000       12.0110           0
      1075 MEMB     9        POPC     H12A     HL       0.250000       1.00800           0
      1076 MEMB     9        POPC     H12B     HL       0.250000       1.00800           0
      1077 MEMB     9        POPC     C13      CTL5    -0.350000       12.0110           0
      1078 MEMB     9        POPC     H13A     HL       0.250000       1.00800           0
      1079 MEMB     9        POPC     H13B     HL       0.250000       1.00800           0
      1080 MEMB     9        POPC     H13C     HL       0.250000       1.00800           0
      1081 MEMB     9        POPC     C14      CTL5    -0.350000       12.0110           0
      1082 MEMB     9        POPC     H14A     HL       0.250000       1.00800           0
      1083 MEMB     9        POPC     H14B     HL       0.250000       1.00800           0
      1084 MEMB     9        POPC     H14C     HL       0.250000       1.00800           0
      1085 MEMB     9        POPC     C15      CTL5    -0.350000       12.0110           0
      1086 MEMB     9        POPC     H15A     HL       0.250000       1.00800           0
      1087 MEMB     9        POPC     H15B     HL       0.250000       1.00800           0
      1088 MEMB     9        POPC     H15C     HL       0.250000       1.00800           0
      1089 MEMB     9        POPC     C11      CTL2    -0.800000E-01   12.0110           0
      1090 MEMB     9        POPC     H11A     HAL2     0.900000E-01   1.00800           0
      1091 MEMB     9        POPC     H11B     HAL2     0.900000E-01   1.00800           0
      1092 MEMB     9        POPC     P        PL       1.500000       30.9740           0
      1093 MEMB     9        POPC     O13      O2L     -0.780000       15.9994           0
      1094 MEMB     9        POPC     O14      O2L     -0.780000       15.9994           0
      1095 MEMB     9        POPC     O12      OSLP    -0.570000       15.9994           0
      1096 MEMB     9        POPC     O11      OSLP    -0.570000       15.9994           0
      1097 MEMB     9        POPC     C1       CTL2    -0.800000E-01   12.0110           0
      1098 MEMB     9        POPC     HA       HAL2     0.900000E-01   1.00800           0
      1099 MEMB     9        POPC     HB       HAL2     0.900000E-01   1.00800           0
      1100 MEMB     9        POPC     C2       CTL1     0.170000       12.0110           0
      1101 MEMB     9        POPC     HS       HAL1     0.900000E-01   1.00800           0
      1102 MEMB     9        POPC     O21      OSL     -0.490000       15.9994           0
      1103 MEMB     9        POPC     C21      CL       0.900000       12.0110           0
      1104 MEMB     9        POPC     O22      OBL     -0.630000       15.9994           0
      1105 MEMB     9        POPC     C22      CTL2    -0.220000       12.0110           0
      1106 MEMB     9        POPC     H2R      HAL2     0.900000E-01   1.00800           0
      1107 MEMB     9        POPC     H2S      HAL2     0.900000E-01   1.00800           0
      1108 MEMB     9        POPC     C3       CTL2     0.800000E-01   12.0110           0
      1109 MEMB     9        POPC     HX       HAL2     0.900000E-01   1.00800           0
      1110 MEMB     9        POPC     HY       HAL2     0.900000E-01   1.00800           0
      1111 MEMB     9        POPC     O31      OSL     -0.490000       15.9994           0
      1112 MEMB     9        POPC     C31      CL       0.900000       12.0110           0
      1113 MEMB     9        POPC     O32      OBL     -0.630000       15.9994           0
      1114 MEMB     9        POPC     C32      CTL2    -0.220000       12.0110           0
      1115 MEMB     9        POPC     H2X      HAL2     0.900000E-01   1.00800           0
      1116 MEMB     9        POPC     H2Y      HAL2     0.900000E-01   1.00800           0
      1117 MEMB     9        POPC     C23      CTL2    -0.180000       12.0110           0
      1118 MEMB     9        POPC     H3R      HAL2     0.900000E-01   1.00800           0
      1119 MEMB     9        POPC     H3S      HAL2     0.900000E-01   1.00800           0
      1120 MEMB     9        POPC     C24      CTL2    -0.180000       12.0110           0
      1121 MEMB     9        POPC     H4R      HAL2     0.900000E-01   1.00800           0
      1122 MEMB     9        POPC     H4S      HAL2     0.900000E-01   1.00800           0
      1123 MEMB     9        POPC     C25      CTL2    -0.180000       12.0110           0
      1124 MEMB     9        POPC     H5R      HAL2     0.900000E-01   1.00800           0
      1125 MEMB     9        POPC     H5S      HAL2     0.900000E-01   1.00800           0
      1126 MEMB     9        POPC     C26      CTL2    -0.180000       12.0110           0
      1127 MEMB     9        POPC     H6R      HAL2     0.900000E-01   1.00800           0
      1128 MEMB     9        POPC     H6S      HAL2     0.900000E-01   1.00800           0
      1129 MEMB     9        POPC     C27      CTL2    -0.180000       12.0110           0
      1130 MEMB     9        POPC     H7R      HAL2     0.900000E-01   1.00800           0
      1131 MEMB     9        POPC     H7S      HAL2     0.900000E-01   1.00800           0
      1132 MEMB     9        POPC     C28      CTL2    -0.180000       12.0110           0
      1133 MEMB     9        POPC     H8R      HAL2     0.900000E-01   1.00800           0
      1134 MEMB     9        POPC     H8S      HAL2     0.900000E-01   1.00800           0
      1135 MEMB     9        POPC     C29      CEL1    -0.150000       12.0110           0
      1136 MEMB     9        POPC     H91      HEL1     0.150000       1.00800           0
      1137 MEMB     9        POPC     C210     CEL1    -0.150000       12.0110           0
      1138 MEMB     9        POPC     H101     HEL1     0.150000       1.00800           0
      1139 MEMB     9        POPC     C211     CTL2    -0.180000       12.0110           0
      1140 MEMB     9        POPC     H11R     HAL2     0.900000E-01   1.00800           0
      1141 MEMB     9        POPC     H11S     HAL2     0.900000E-01   1.00800           0
      1142 MEMB     9        POPC     C212     CTL2    -0.180000       12.0110           0
      1143 MEMB     9        POPC     H12R     HAL2     0.900000E-01   1.00800           0
      1144 MEMB     9        POPC     H12S     HAL2     0.900000E-01   1.00800           0
      1145 MEMB     9        POPC     C213     CTL2    -0.180000       12.0110           0
      1146 MEMB     9        POPC     H13R     HAL2     0.900000E-01   1.00800           0
      1147 MEMB     9        POPC     H13S     HAL2     0.900000E-01   1.00800           0
      1148 MEMB     9        POPC     C214     CTL2    -0.180000       12.0110           0
      1149 MEMB     9        POPC     H14R     HAL2     0.900000E-01   1.00800           0
      1150 MEMB     9        POPC     H14S     HAL2     0.900000E-01   1.00800           0
      1151 MEMB     9        POPC     C215     CTL2    -0.180000       12.0110           0
      1152 MEMB     9        POPC     H15R     HAL2     0.900000E-01   1.00800           0
      1153 MEMB     9        POPC     H15S     HAL2     0.900000E-01   1.00800           0
      1154 MEMB     9        POPC     C216     CTL2    -0.180000       12.0110           0
      1155 MEMB     9        POPC     H16R     HAL2     0.900000E-01   1.00800           0
      1156 MEMB     9        POPC     H16S     HAL2     0.900000E-01   1.00800           0
      1157 MEMB     9        POPC     C217     CTL2    -0.180000       12.0110           0
      1158 MEMB     9        POPC     H17R     HAL2     0.900000E-01   1.00800           0
      1159 MEMB     9        POPC     H17S     HAL2     0.900000E-01   1.00800           0
      1160 MEMB     9        POPC     C218     CTL3    -0.270000       12.0110           0
      1161 MEMB     9        POPC     H18R     HAL3     0.900000E-01   1.00800           0
      1162 MEMB     9        POPC     H18S     HAL3     0.900000E-01   1.00800           0
      1163 MEMB     9        POPC     H18T     HAL3     0.900000E-01   1.00800           0
      1164 MEMB     9        POPC     C33      CTL2    -0.180000       12.0110           0
      1165 MEMB     9        POPC     H3X      HAL2     0.900000E-01   1.00800           0
      1166 MEMB     9        POPC     H3Y      HAL2     0.900000E-01   1.00800           0
      1167 MEMB     9        POPC     C34      CTL2    -0.180000       12.0110           0
      1168 MEMB     9        POPC     H4X      HAL2     0.900000E-01   1.00800           0
      1169 MEMB     9        POPC     H4Y      HAL2     0.900000E-01   1.00800           0
      1170 MEMB     9        POPC     C35      CTL2    -0.180000       12.0110           0
      1171 MEMB     9        POPC     H5X      HAL2     0.900000E-01   1.00800           0
      1172 MEMB     9        POPC     H5Y      HAL2     0.900000E-01   1.00800           0
      1173 MEMB     9        POPC     C36      CTL2    -0.180000       12.0110           0
      1174 MEMB     9        POPC     H6X      HAL2     0.900000E-01   1.00800           0
      1175 MEMB     9        POPC     H6Y      HAL2     0.900000E-01   1.00800           0
      1176 MEMB     9        POPC     C37      CTL2    -0.180000       12.0110           0
      1177 MEMB     9        POPC     H7X      HAL2     0.900000E-01   1.00800           0
      1178 MEMB     9        POPC     H7Y      HAL2     0.900000E-01   1.00800           0
      1179 MEMB     9        POPC     C38      CTL2    -0.180000       12.0110           0
      1180 MEMB     9        POPC     H8X      HAL2     0.900000E-01   1.00800           0
      1181 MEMB     9        POPC     H8Y      HAL2     0.900000E-01   1.00800           0
      1182 MEMB     9        POPC     C39      CTL2    -0.180000       12.0110           0
      1183 MEMB     9        POPC     H9X      HAL2     0.900000E-01   1.00800           0
      1184 MEMB     9        POPC     H9Y      HAL2     0.900000E-01   1.00800           0
      1185 MEMB     9        POPC     C310     CTL2    -0.180000       12.0110           0
      1186 MEMB     9        POPC     H10X     HAL2     0.900000E-01   1.00800           0
      1187 MEMB     9        POPC     H10Y     HAL2     0.900000E-01   1.00800           0
      1188 MEMB     9        POPC     C311     CTL2    -0.180000       12.0110           0
      1189 MEMB     9        POPC     H11X     HAL2     0.900000E-01   1.00800           0
      1190 MEMB     9        POPC     H11Y     HAL2     0.900000E-01   1.00800           0
      1191 MEMB     9        POPC     C312     CTL2    -0.180000       12.0110           0
      1192 MEMB     9        POPC     H12X     HAL2     0.900000E-01   1.00800           0
      1193 MEMB     9        POPC     H12Y     HAL2     0.900000E-01   1.00800           0
      1194 MEMB     9        POPC     C313     CTL2    -0.180000       12.0110           0
      1195 MEMB     9        POPC     H13X     HAL2     0.900000E-01   1.00800           0
      1196 MEMB     9        POPC     H13Y     HAL2     0.900000E-01   1.00800           0
      1197 MEMB     9        POPC     C314     CTL2    -0.180000       12.0110           0
      1198 MEMB     9        POPC     H14X     HAL2     0.900000E-01   1.00800           0
      1199 MEMB     9        POPC     H14Y     HAL2     0.900000E-01   1.00800           0
      1200 MEMB     9        POPC     C315     CTL2    -0.180000       12.0110           0
      1201 MEMB     9        POPC     H15X     HAL2     0.900000E-01   1.00800           0
      1202 MEMB     9        POPC     H15Y     HAL2     0.900000E-01   1.00800           0
      1203 MEMB     9        POPC     C316     CTL3    -0.270000       12.0110           0
      1204 MEMB     9        POPC     H16X     HAL3     0.900000E-01   1.00800           0
      1205 MEMB     9        POPC     H16Y     HAL3     0.900000E-01   1.00800           0
      1206 MEMB     9        POPC     H16Z     HAL3     0.900000E-01   1.00800           0
      1207 MEMB     10       POPC     N        NTL     -0.600000       14.0070           0
      1208 MEMB     10       POPC     C12      CTL2    -0.100000       12.0110           0
      1209 MEMB     10       POPC     H12A     HL       0.250000       1.00800           0
      1210 MEMB     10       POPC     H12B     HL       0.250000       1.00800           0
      1211 MEMB     10       POPC     C13      CTL5    -0.350000       12.0110           0
      1212 MEMB     10       POPC     H13A     HL       0.250000       1.00800           0
      1213 MEMB     10       POPC     H13B     HL       0.250000       1.00800           0
      1214 MEMB     10       POPC     H13C     HL       0.250000       1.00800           0
      1215 MEMB     10       POPC     C14      CTL5    -0.350000       12.0110           0
      1216 MEMB     10       POPC     H14A     HL       0.250000       1.00800           0
      1217 MEMB     10       POPC     H14B     HL       0.250000       1.00800           0
      1218 MEMB     10       POPC     H14C     HL       0.250000       1.00800           0
      1219 MEMB     10       POPC     C15      CTL5    -0.350000       12.0110           0
      1220 MEMB     10       POPC     H15A     HL       0.250000       1.00800           0
      1221 MEMB     10       POPC     H15B     HL       0.250000       1.00800           0
      1222 MEMB     10       POPC     H15C     HL       0.250000       1.00800           0
      1223 MEMB     10       POPC     C11      CTL2    -0.800000E-01   12.0110           0
      1224 MEMB     10       POPC     H11A     HAL2     0.900000E-01   1.00800           0
      1225 MEMB     10       POPC     H11B     HAL2     0.900000E-01   1.00800           0
      1226 MEMB     10       POPC     P        PL       1.500000       30.9740           0
      1227 MEMB     10       POPC     O13      O2L     -0.780000       15.9994           0
      1228 MEMB     10       POPC     O14      O2L     -0.780000       15.9994           0
      1229 MEMB     10       POPC     O12      OSLP    -0.570000       15.9994           0
      1230 MEMB     10       POPC     O11      OSLP    -0.570000       15.9994           0
      1231 MEMB     10       POPC     C1       CTL2    -0.800000E-01   12.0110           0
      1232 MEMB     10       POPC     HA       HAL2     0.900000E-01   1.00800           0
      1233 MEMB     10       POPC     HB       HAL2     0.900000E-01   1.00800           0
      1234 MEMB     10       POPC     C2       CTL1     0.170000       12.0110           0
      1235 MEMB     10       POPC     HS       HAL1     0.900000E-01   1.00800           0
      1236 MEMB     10       POPC     O21      OSL     -0.490000       15.9994           0
      1237 MEMB     10       POPC     C21      CL       0.900000       12.0110           0
      1238 MEMB     10       POPC     O22      OBL     -0.630000       15.9994           0
      1239 MEMB     10       POPC     C22      CTL2    -0.220000       12.0110           0
      1240 MEMB     10       POPC     H2R      HAL2     0.900000E-01   1.00800           0
      1241 MEMB     10       POPC     H2S      HAL2     0.900000E-01   1.00800           0
      1242 MEMB     10       POPC     C3       CTL2     0.800000E-01   12.0110           0
      1243 MEMB     10       POPC     HX       HAL2     0.900000E-01   1.00800           0
      1244 MEMB     10       POPC     HY       HAL2     0.900000E-01   1.00800           0
      1245 MEMB     10       POPC     O31      OSL     -0.490000       15.9994           0
      1246 MEMB     10       POPC     C31      CL       0.900000       12.0110           0
      1247 MEMB     10       POPC     O32      OBL     -0.630000       15.9994           0
      1248 MEMB     10       POPC     C32      CTL2    -0.220000       12.0110           0
      1249 MEMB     10       POPC     H2X      HAL2     0.900000E-01   1.00800           0
      1250 MEMB     10       POPC     H2Y      HAL2     0.900000E-01   1.00800           0
      1251 MEMB     10       POPC     C23      CTL2    -0.180000       12.0110           0
      1252 MEMB     10       POPC     H3R      HAL2     0.900000E-01   1.00800           0
      1253 MEMB     10       POPC     H3S      HAL2     0.900000E-01   1.00800           0
      1254 MEMB     10       POPC     C24      CTL2    -0.180000       12.0110           0
      1255 MEMB     10       POPC     H4R      HAL2     0.900000E-01   1.00800           0
      1256 MEMB     10       POPC     H4S      HAL2     0.900000E-01   1.00800           0
      1257 MEMB     10       POPC     C25      CTL2    -0.180000       12.0110           0
      1258 MEMB     10       POPC     H5R      HAL2     0.900000E-01   1.00800           0
      1259 MEMB     10       POPC     H5S      HAL2     0.900000E-01   1.00800           0
      1260 MEMB     10       POPC     C26      CTL2    -0.180000       12.0110           0
      1261 MEMB     10       POPC     H6R      HAL2     0.900000E-01   1.00800           0
      1262 MEMB     10       POPC     H6S      HAL2     0.900000E-01   1.00800           0
      1263 MEMB     10       POPC     C27      CTL2    -0.180000       12.0110           0
      1264 MEMB     10       POPC     H7R      HAL2     0.900000E-01   1.00800           0
      1265 MEMB     10       POPC     H7S      HAL2     0.900000E-01   1.00800           0
      1266 MEMB     10       POPC     C28      CTL2    -0.180000       12.0110           0
      1267 MEMB     10       POPC     H8R      HAL2     0.900000E-01   1.00800           0
      1268 MEMB     10       POPC     H8S      HAL2     0.900000E-01   1.00800           0
      1269 MEMB     10       POPC     C29      CEL1    -0.150000       12.0110           0
      1270 MEMB     10       POPC     H91      HEL1     0.150000       1.00800           0
      1271 MEMB     10       POPC     C210     CEL1    -0.150000       12.0110           0
      1272 MEMB     10       POPC     H101     HEL1     0.150000       1.00800           0
      1273 MEMB     10       POPC     C211     CTL2    -0.180000       12.0110           0
      1274 MEMB     10       POPC     H11R     HAL2     0.900000E-01   1.00800           0
      1275 MEMB     10       POPC     H11S     HAL2     0.900000E-01   1.00800           0
      1276 MEMB     10       POPC     C212     CTL2    -0.180000       12.0110           0
      1277 MEMB     10       POPC     H12R     HAL2     0.900000E-01   1.00800           0
      1278 MEMB     10       POPC     H12S     HAL2     0.900000E-01   1.00800           0
      1279 MEMB     10       POPC     C213     CTL2    -0.180000       12.0110           0
      1280 MEMB     10       POPC     H13R     HAL2     0.900000E-01   1.00800           0
      1281 MEMB     10       POPC     H13S     HAL2     0.900000E-01   1.00800           0
      1282 MEMB     10       POPC     C214     CTL2    -0.180000       12.0110           0
      1283 MEMB     10       POPC     H14R     HAL2     0.900000E-01   1.00800           0
      1284 MEMB     10       POPC     H14S     HAL2     0.900000E-01   1.00800           0
      1285 MEMB     10       POPC     C215     CTL2    -0.180000       12.0110           0
      1286 MEMB     10       POPC     H15R     HAL2     0.900000E-01   1.00800           0
      1287 MEMB     10       POPC     H15S     HAL2     0.900000E-01   1.00800           0
      1288 MEMB     10       POPC     C216     CTL2    -0.180000       12.0110           0
      1289 MEMB     10       POPC     H16R     HAL2     0.900000E-01   1.00800           0
      1290 MEMB     10       POPC     H16S     HAL2     0.900000E-01   1.00800           0
      1291 MEMB     10       POPC     C217     CTL2    -0.180000       12.0110           0
      1292 MEMB     10       POPC     H17R     HAL2     0.900000E-01   1.00800           0
      1293 MEMB     10       POPC     H17S     HAL2     0.900000E-01   1.00800           0
      1294 MEMB     10       POPC     C218     CTL3    -0.270000       12.0110           0
      1295 MEMB     10       POPC     H18R     HAL3     0.900000E-01   1.00800           0
      1296 MEMB     10       POPC     H18S     HAL3     0.900000E-01   1.00800           0
      1297 MEMB     10       POPC     H18T     HAL3     0.900000E-01   1.00800           0
      1298 MEMB     10       POPC     C33      CTL2    -0.180000       12.0110           0
      1299 MEMB     10       POPC     H3X      HAL2     0.900000E-01   1.00800           0
      1300 MEMB     10       POPC     H3Y      HAL2     0.900000E-01   1.00800           0
      1301 MEMB     10       POPC     C34      CTL2    -0.180000       12.0110           0
      1302 MEMB     10       POPC     H4X      HAL2     0.900000E-01   1.00800           0
      1303 MEMB     10       POPC     H4Y      HAL2     0.900000E-01   1.00800           0
      1304 MEMB     10       POPC     C35      CTL2    -0.180000       12.0110           0
      1305 MEMB     10       POPC     H5X      HAL2     0.900000E-01   1.00800           0
      1306 MEMB     10       POPC     H5Y      HAL2     0.900000E-01   1.00800           0
      1307 MEMB     10       POPC     C36      CTL2    -0.180000       12.0110           0
      1308 MEMB     10       POPC     H6X      HAL2     0.900000E-01   1.00800           0
      1309 MEMB     10       POPC     H6Y      HAL2     0.900000E-01   1.00800           0
      1310 MEMB     10       POPC     C37      CTL2    -0.180000       12.0110           0
      1311 MEMB     10       POPC     H7X      HAL2     0.900000E-01   1.00800           0
      1312 MEMB     10       POPC     H7Y      HAL2     0.900000E-01   1.00800           0
      1313 MEMB     10       POPC     C38      CTL2    -0.180000       12.0110           0
      1314 MEMB     10       POPC     H8X      HAL2     0.900000E-01   1.00800           0
      1315 MEMB     10       POPC     H8Y      HAL2     0.900000E-01   1.00800           0
      1316 MEMB     10       POPC     C39      CTL2    -0.180000       12.0110           0
      1317 MEMB     10       POPC     H9X      HAL2     0.900000E-01   1.00800           0
      1318 MEMB     10       POPC     H9Y      HAL2     0.900000E-01   1.00800           0
      1319 MEMB     10       POPC     C310     CTL2    -0.180000       12.0110           0
      1320 MEMB     10       POPC     H10X     HAL2     0.900000E-01   1.00800           0
      1321 MEMB     10       POPC     H10Y     HAL2     0.900000E-01   1.00800           0
      1322 MEMB     10       POPC     C311     CTL2    -0.180000       12.0110           0
      1323 MEMB     10       POPC     H11X     HAL2     0.900000E-01   1.00800           0
      1324 MEMB     10       POPC     H11Y     HAL2     0.900000E-01   1.00800           0
      1325 MEMB     10       POPC     C312     CTL2    -0.180000       12.0110           0
      1326 MEMB     10       POPC     H12X     HAL2     0.900000E-01   1.00800           0
      1327 MEMB     10       POPC     H12Y     HAL2     0.900000E-01   1.00800           0
      1328 MEMB     10       POPC     C313     CTL2    -0.180000       12.0110           0
      1329 MEMB     10       POPC     H13X     HAL2     0.900000E-01   1.00800           0
      1330 MEMB     10       POPC     H13Y     HAL2     0.900000E-01   1.00800           0
      1331 MEMB     10       POPC     C314     CTL2    -0.180000       12.0110           0
      1332 MEMB     10       POPC     H14X     HAL2     0.900000E-01   1.00800           0
      1333 MEMB     10       POPC     H14Y     HAL2     0.900000E-01   1.00800           0
      1334 MEMB     10       POPC     C315     CTL2    -0.180000       12.0110           0
      1335 MEMB     10       POPC     H15X     HAL2     0.900000E-01   1.00800           0
      1336 MEMB     10       POPC     H15Y     HAL2     0.900000E-01   1.00800           0
      1337 MEMB     10       POPC     C316     CTL3    -0.270000       12.0110           0
      1338 MEMB     10       POPC     H16X     HAL3     0.900000E-01   1.00800           0
      1339 MEMB     10       POPC     H16Y     HAL3     0.900000E-01   1.00800           0
      1340 MEMB     10       POPC     H16Z     HAL3     0.900000E-01   1.00800           0
      1341 MEMB     11       POPC     N        NTL     -0.600000       14.0070           0
      1342 MEMB     11       POPC     C12      CTL2    -0.100000       12.0110           0
      1343 MEMB     11       POPC     H12A     HL       0.250000       1.00800           0
      1344 MEMB     11       POPC     H12B     HL       0.250000       1.00800           0
      1345 MEMB     11       POPC     C13      CTL5    -0.350000       12.0110           0
      1346 MEMB     11       POPC     H13A     HL       0.250000       1.00800           0
      1347 MEMB     11       POPC     H13B     HL       0.250000       1.00800           0
      1348 MEMB     11       POPC     H13C     HL       0.250000       1.00800           0
      1349 MEMB     11       POPC     C14      CTL5    -0.350000       12.0110           0
      1350 MEMB     11       POPC     H14A     HL       0.250000       1.00800           0
      1351 MEMB     11       POPC     H14B     HL       0.250000       1.00800           0
      1352 MEMB     11       POPC     H14C     HL       0.250000       1.00800           0
      1353 MEMB     11       POPC     C15      CTL5    -0.350000       12.0110           0
      1354 MEMB     11       POPC     H15A     HL       0.250000       1.00800           0
      1355 MEMB     11       POPC     H15B     HL       0.250000       1.00800           0
      1356 MEMB     11       POPC     H15C     HL       0.250000       1.00800           0
      1357 MEMB     11       POPC     C11      CTL2    -0.800000E-01   12.0110           0
      1358 MEMB     11       POPC     H11A     HAL2     0.900000E-01   1.00800           0
      1359 MEMB     11       POPC     H11B     HAL2     0.900000E-01   1.00800           0
      1360 MEMB     11       POPC     P        PL       1.500000       30.9740           0
      1361 MEMB     11       POPC     O13      O2L     -0.780000       15.9994           0
      1362 MEMB     11       POPC     O14      O2L     -0.780000       15.9994           0
      1363 MEMB     11       POPC     O12      OSLP    -0.570000       15.9994           0
      1364 MEMB     11       POPC     O11      OSLP    -0.570000       15.9994           0
      1365 MEMB     11       POPC     C1       CTL2    -0.800000E-01   12.0110           0
      1366 MEMB     11       POPC     HA       HAL2     0.900000E-01   1.00800           0
      1367 MEMB     11       POPC     HB       HAL2     0.900000E-01   1.00800           0
      1368 MEMB     11       POPC     C2       CTL1     0.170000       12.0110           0
      1369 MEMB     11       POPC     HS       HAL1     0.900000E-01   1.00800           0
      1370 MEMB     11       POPC     O21      OSL     -0.490000       15.9994           0
      1371 MEMB     11       POPC     C21      CL       0.900000       12.0110           0
      1372 MEMB     11       POPC     O22      OBL     -0.630000       15.9994           0
      1373 MEMB     11       POPC     C22      CTL2    -0.220000       12.0110           0
      1374 MEMB     11       POPC     H2R      HAL2     0.900000E-01   1.00800           0
      1375 MEMB     11       POPC     H2S      HAL2     0.900000E-01   1.00800           0
      1376 MEMB     11       POPC     C3       CTL2     0.800000E-01   12.0110           0
      1377 MEMB     11       POPC     HX       HAL2     0.900000E-01   1.00800           0
      1378 MEMB     11       POPC     HY       HAL2     0.900000E-01   1.00800           0
      1379 MEMB     11       POPC     O31      OSL     -0.490000       15.9994           0
      1380 MEMB     11       POPC     C31      CL       0.900000       12.0110           0
      1381 MEMB     11       POPC     O32      OBL     -0.630000       15.9994           0
      1382 MEMB     11       POPC     C32      CTL2    -0.220000       12.0110           0
      1383 MEMB     11       POPC     H2X      HAL2     0.900000E-01   1.00800           0
      1384 MEMB     11       POPC     H2Y      HAL2     0.900000E-01   1.00800           0
      1385 MEMB     11       POPC     C23      CTL2    -0.180000       12.0110           0
      1386 MEMB     11       POPC     H3R      HAL2     0.900000E-01   1.00800           0
      1387 MEMB     11       POPC     H3S      HAL2     0.900000E-01   1.00800           0
      1388 MEMB     11       POPC     C24      CTL2    -0.180000       12.0110           0
      1389 MEMB     11       POPC     H4R      HAL2     0.900000E-01   1.00800           0
      1390 MEMB     11       POPC     H4S      HAL2     0.900000E-01   1.00800           0
      1391 MEMB     11       POPC     C25      CTL2    -0.180000       12.0110           0
      1392 MEMB     11       POPC     H5R      HAL2     0.900000E-01   1.00800           0
      1393 MEMB     11       POPC     H5S      HAL2     0.900000E-01   1.00800           0
      1394 MEMB     11       POPC     C26      CTL2    -0.180000       12.0110           0
      1395 MEMB     11       POPC     H6R      HAL2     0.900000E-01   1.00800           0
      1396 MEMB     11       POPC     H6S      HAL2     0.900000E-01   1.00800           0
      1397 MEMB     11       POPC     C27      CTL2    -0.180000       12.0110           0
      1398 MEMB     11       POPC     H7R      HAL2     0.900000E-01   1.00800           0
      1399 MEMB     11       POPC     H7S      HAL2     0.900000E-01   1.00800           0
      1400 MEMB     11       POPC     C28      CTL2    -0.180000       12.0110           0
      1401 MEMB     11       POPC     H8R      HAL2     0.900000E-01   1.00800           0
      1402 MEMB     11       POPC     H8S      HAL2     0.900000E-01   1.00800           0
      1403 MEMB     11       POPC     C29      CEL1    -0.150000       12.0110           0
      1404 MEMB     11       POPC     H91      HEL1     0.150000       1.00800           0
      1405 MEMB     11       POPC     C210     CEL1    -0.150000       12.0110           0
      1406 MEMB     11       POPC     H101     HEL1     0.150000       1.00800           0
      1407 MEMB     11       POPC     C211     CTL2    -0.180000       12.0110           0
      1408 MEMB     11       POPC     H11R     HAL2     0.900000E-01   1.00800           0
      1409 MEMB     11       POPC     H11S     HAL2     0.900000E-01   1.00800           0
      1410 MEMB     11       POPC     C212     CTL2    -0.180000       12.0110           0
      1411 MEMB     11       POPC     H12R     HAL2     0.900000E-01   1.00800           0
      1412 MEMB     11       POPC     H12S     HAL2     0.900000E-01   1.00800           0
      1413 MEMB     11       POPC     C213     CTL2    -0.180000       12.0110           0
      1414 MEMB     11       POPC     H13R     HAL2     0.900000E-01   1.00800           0
      1415 MEMB     11       POPC     H13S     HAL2     0.900000E-01   1.00800           0
      1416 MEMB     11       POPC     C214     CTL2    -0.180000       12.0110           0
      1417 MEMB     11       POPC     H14R     HAL2     0.900000E-01   1.00800           0
      1418 MEMB     11       POPC     H14S     HAL2     0.900000E-01   1.00800           0
      1419 MEMB     11       POPC     C215     CTL2    -0.180000       12.0110           0
      1420 MEMB     11       POPC     H15R     HAL2     0.900000E-01   1.00800           0
      1421 MEMB     11       POPC     H15S     HAL2     0.900000E-01   1.00800           0
      1422 MEMB     11       POPC     C216     CTL2    -0.180000       12.0110           0
      1423 MEMB     11       POPC     H16R     HAL2     0.900000E-01   1.00800           0
      1424 MEMB     11       POPC     H16S     HAL2     0.900000E-01   1.00800           0
      1425 MEMB     11       POPC     C217     CTL2    -0.180000       12.0110           0
      1426 MEMB     11       POPC     H17R     HAL2     0.900000E-01   1.00800           0
      1427 MEMB     11       POPC     H17S     HAL2     0.900000E-01   1.00800           0
      1428 MEMB     11       POPC     C218     CTL3    -0.270000       12.0110           0
      1429 MEMB     11       POPC     H18R     HAL3     0.900000E-01   1.00800           0
      1430 MEMB     11       POPC     H18S     HAL3     0.900000E-01   1.00800           0
      1431 MEMB     11       POPC     H18T     HAL3     0.900000E-01   1.00800           0
      1432 MEMB     11       POPC     C33      CTL2    -0.180000       12.0110           0
      1433 MEMB     11       POPC     H3X      HAL2     0.900000E-01   1.00800           0
      1434 MEMB     11       POPC     H3Y      HAL2     0.900000E-01   1.00800           0
      1435 MEMB     11       POPC     C34      CTL2    -0.180000       12.0110           0
      1436 MEMB     11       POPC     H4X      HAL2     0.900000E-01   1.00800           0
      1437 MEMB     11       POPC     H4Y      HAL2     0.900000E-01   1.00800           0
      1438 MEMB     11       POPC     C35      CTL2    -0.180000       12.0110           0
      1439 MEMB     11       POPC     H5X      HAL2     0.900000E-01   1.00800           0
      1440 MEMB     11       POPC     H5Y      HAL2     0.900000E-01   1.00800           0
      1441 MEMB     11       POPC     C36      CTL2    -0.180000       12.0110           0
      1442 MEMB     11       POPC     H6X      HAL2     0.900000E-01   1.00800           0
      1443 MEMB     11       POPC     H6Y      HAL2     0.900000E-01   1.00800           0
      1444 MEMB     11       POPC     C37      CTL2    -0.180000       12.0110           0
      1445 MEMB     11       POPC     H7X      HAL2     0.900000E-01   1.00800           0
      1446 MEMB     11       POPC     H7Y      HAL2     0.900000E-01   1.00800           0
      1447 MEMB     11       POPC     C38      CTL2    -0.180000       12.0110           0
      1448 MEMB     11       POPC     H8X      HAL2     0.900000E-01   1.00800           0
      1449 MEMB     11       POPC     H8Y      HAL2     0.900000E-01   1.00800           0
      1450 MEMB     11       POPC     C39      CTL2    -0.180000       12.0110           0
      1451 MEMB     11       POPC     H9X      HAL2     0.900000E-01   1.00800           0
      1452 MEMB     11       POPC     H9Y      HAL2     0.900000E-01   1.00800           0
      1453 MEMB     11       POPC     C310     CTL2    -0.180000       12.0110           0
      1454 MEMB     11       POPC     H10X     HAL2     0.900000E-01   1.00800           0
      1455 MEMB     11       POPC     H10Y     HAL2     0.900000E-01   1.00800           0
      1456 MEMB     11       POPC     C311     CTL2    -0.180000       12.0110           0
      1457 MEMB     11       POPC     H11X     HAL2     0.900000E-01   1.00800           0
      1458 MEMB     11       POPC     H11Y     HAL2     0.900000E-01   1.00800           0
      1459 MEMB     11       POPC     C312     CTL2    -0.180000       12.0110           0
      1460 MEMB     11       POPC     H12X     HAL2     0.900000E-01   1.00800           0
      1461 MEMB     11       POPC     H12Y     HAL2     0.900000E-01   1.00800           0
      1462 MEMB     11       POPC     C313     CTL2    -0.180000       12.0110           0
      1463 MEMB     11       POPC     H13X     HAL2     0.900000E-01   1.00800           0
      1464 MEMB     11       POPC     H13Y     HAL2     0.900000E-01   1.00800           0
      1465 MEMB     11       POPC     C314     CTL2    -0.180000       12.0110           0
      1466 MEMB     11       POPC     H14X     HAL2     0.900000E-01   1.00800           0
      1467 MEMB     11       POPC     H14Y     HAL2     0.900000E-01   1.00800           0
      1468 MEMB     11       POPC     C315     CTL2    -0.180000       12.0110           0
      1469 MEMB     11       POPC     H15X     HAL2     0.900000E-01   1.00800           0
      1470 MEMB     11       POPC     H15Y     HAL2     0.900000E-01   1.00800           0
      1471 MEMB     11       POPC     C316     CTL3    -0.270000       12.0110           0
      1472 MEMB     11       POPC     H16X     HAL3     0.900000E-01   1.00800           0
      1473 MEMB     11       POPC     H16Y     HAL3     0.900000E-01   1.00800           0
      1474 MEMB     11       POPC     H16Z     HAL3     0.900000E-01   1.00800           0
      1475 MEMB     12       POPC     N        NTL     -0.600000       14.0070           0
      1476 MEMB     12       POPC     C12      CTL2    -0.100000       12.0110           0
      1477 MEMB     12       POPC     H12A     HL       0.250000       1.00800           0
      1478 MEMB     12       POPC     H12B     HL       0.250000       1.00800           0
      1479 MEMB     12       POPC     C13      CTL5    -0.350000       12.0110           0
      1480 MEMB     12       POPC     H13A     HL       0.250000       1.00800           0
      1481 MEMB     12       POPC     H13B     HL       0.250000       1.00800           0
      1482 MEMB     12       POPC     H13C     HL       0.250000       1.00800           0
      1483 MEMB     12       POPC     C14      CTL5    -0.350000       12.0110           0
      1484 MEMB     12       POPC     H14A     HL       0.250000       1.00800           0
      1485 MEMB     12       POPC     H14B     HL       0.250000       1.00800           0
      1486 MEMB     12       POPC     H14C     HL       0.250000       1.00800           0
      1487 MEMB     12       POPC     C15      CTL5    -0.350000       12.0110           0
      1488 MEMB     12       POPC     H15A     HL       0.250000       1.00800           0
      1489 MEMB     12       POPC     H15B     HL       0.250000       1.00800           0
      1490 MEMB     12       POPC     H15C     HL       0.250000       1.00800           0
      1491 MEMB     12       POPC     C11      CTL2    -0.800000E-01   12.0110           0
      1492 MEMB     12       POPC     H11A     HAL2     0.900000E-01   1.00800           0
      1493 MEMB     12       POPC     H11B     HAL2     0.900000E-01   1.00800           0
      1494 MEMB     12       POPC     P        PL       1.500000       30.9740           0
      1495 MEMB     12       POPC     O13      O2L     -0.780000       15.9994           0
      1496 MEMB     12       POPC     O14      O2L     -0.780000       15.9994           0
      1497 MEMB     12       POPC     O12      OSLP    -0.570000       15.9994           0
      1498 MEMB     12       POPC     O11      OSLP    -0.570000       15.9994           0
      1499 MEMB     12       POPC     C1       CTL2    -0.800000E-01   12.0110           0
      1500 MEMB     12       POPC     HA       HAL2     0.900000E-01   1.00800           0
      1501 MEMB     12       POPC     HB       HAL2     0.900000E-01   1.00800           0
      1502 MEMB     12       POPC     C2       CTL1     0.170000       12.0110           0
      1503 MEMB     12       POPC     HS       HAL1     0.900000E-01   1.00800           0
      1504 MEMB     12       POPC     O21      OSL     -0.490000       15.9994           0
      1505 MEMB     12       POPC     C21      CL       0.900000       12.0110           0
      1506 MEMB     12       POPC     O22      OBL     -0.630000       15.9994           0
      1507 MEMB     12       POPC     C22      CTL2    -0.220000       12.0110           0
      1508 MEMB     12       POPC     H2R      HAL2     0.900000E-01   1.00800           0
      1509 MEMB     12       POPC     H2S      HAL2     0.900000E-01   1.00800           0
      1510 MEMB     12       POPC     C3       CTL2     0.800000E-01   12.0110           0
      1511 MEMB     12       POPC     HX       HAL2     0.900000E-01   1.00800           0
      1512 MEMB     12       POPC     HY       HAL2     0.900000E-01   1.00800           0
      1513 MEMB     12       POPC     O31      OSL     -0.490000       15.9994           0
      1514 MEMB     12       POPC     C31      CL       0.900000       12.0110           0
      1515 MEMB     12       POPC     O32      OBL     -0.630000       15.9994           0
      1516 MEMB     12       POPC     C32      CTL2    -0.220000       12.0110           0
      1517 MEMB     12       POPC     H2X      HAL2     0.900000E-01   1.00800           0
      1518 MEMB     12       POPC     H2Y      HAL2     0.900000E-01   1.00800           0
      1519 MEMB     12       POPC     C23      CTL2    -0.180000       12.0110           0
      1520 MEMB     12       POPC     H3R      HAL2     0.900000E-01   1.00800           0
      1521 MEMB     12       POPC     H3S      HAL2     0.900000E-01   1.00800           0
      1522 MEMB     12       POPC     C24      CTL2    -0.180000       12.0110           0
      1523 MEMB     12       POPC     H4R      HAL2     0.900000E-01   1.00800           0
      1524 MEMB     12       POPC     H4S      HAL2     0.900000E-01   1.00800           0
      1525 MEMB     12       POPC     C25      CTL2    -0.180000       12.0110           0
      1526 MEMB     12       POPC     H5R      HAL2     0.900000E-01   1.00800           0
      1527 MEMB     12       POPC     H5S      HAL2     0.900000E-01   1.00800           0
      1528 MEMB     12       POPC     C26      CTL2    -0.180000       12.0110           0
      1529 MEMB     12       POPC     H6R      HAL2     0.900000E-01   1.00800           0
      1530 MEMB     12       POPC     H6S      HAL2     0.900000E-01   1.00800           0
      1531 MEMB     12       POPC     C27      CTL2    -0.180000       12.0110           0
      1532 MEMB     12       POPC     H7R      HAL2     0.900000E-01   1.00800           0
      1533 MEMB     12       POPC     H7S      HAL2     0.900000E-01   1.00800           0
      1534 MEMB     12       POPC     C28      CTL2    -0.180000       12.0110           0
      1535 MEMB     12       POPC     H8R      HAL2     0.900000E-01   1.00800           0
      1536 MEMB     12       POPC     H8S      HAL2     0.900000E-01   1.00800           0
      1537 MEMB     12       POPC     C29      CEL1    -0.150000       12.0110           0
      1538 MEMB     12       POPC     H91      HEL1     0.150000       1.00800           0
      1539 MEMB     12       POPC     C210     CEL1    -0.150000       12.0110           0
      1540 MEMB     12       POPC     H101     HEL1     0.150000       1.00800           0
      1541 MEMB     12       POPC     C211     CTL2    -0.180000       12.0110           0
      1542 MEMB     12       POPC     H11R     HAL2     0.900000E-01   1.00800           0
      1543 MEMB     12       POPC     H11S     HAL2     0.900000E-01   1.00800           0
      1544 MEMB     12       POPC     C212     CTL2    -0.180000       12.0110           0
      1545 MEMB     12       POPC     H12R     HAL2     0.900000E-01   1.00800           0
      1546 MEMB     12       POPC     H12S     HAL2     0.900000E-01   1.00800           0
      1547 MEMB     12       POPC     C213     CTL2    -0.180000       12.0110           0
      1548 MEMB     12       POPC     H13R     HAL2     0.900000E-01   1.00800           0
      1549 MEMB     12       POPC     H13S     HAL2     0.900000E-01   1.00800           0
      1550 MEMB     12       POPC     C214     CTL2    -0.180000       12.0110           0
      1551 MEMB     12       POPC     H14R     HAL2     0.900000E-01   1.00800           0
      1552 MEMB     12       POPC     H14S     HAL2     0.900000E-01   1.00800           0
      1553 MEMB     12       POPC     C215     CTL2    -0.180000       12.0110           0
      1554 MEMB     12       POPC     H15R     HAL2     0.900000E-01   1.00800           0
      1555 MEMB     12       POPC     H15S     HAL2     0.900000E-01   1.00800           0
      1556 MEMB     12       POPC     C216     CTL2    -0.180000       12.0110           0
      1557 MEMB     12       POPC     H16R     HAL2     0.900000E-01   1.00800           0
      1558 MEMB     12       POPC     H16S     HAL2     0.900000E-01   1.00800           0
      1559 MEMB     12       POPC     C217     CTL2    -0.180000       12.0110           0
      1560 MEMB     12       POPC     H17R     HAL2     0.900000E-01   1.00800           0
      1561 MEMB     12       POPC     H17S     HAL2     0.900000E-01   1.00800           0
      1562 MEMB     12       POPC     C218     CTL3    -0.270000       12.0110           0
      1563 MEMB     12       POPC     H18R     HAL3     0.900000E-01   1.00800           0
      1564 MEMB     12       POPC     H18S     HAL3     0.900000E-01   1.00800           0
      1565 MEMB     12       POPC     H18T     HAL3     0.900000E-01   1.00800           0
      1566 MEMB     12       POPC     C33      CTL2    -0.180000       12.0110           0
      1567 MEMB     12       POPC     H3X      HAL2     0.900000E-01   1.00800           0
      1568 MEMB     12       POPC     H3Y      HAL2     0.900000E-01   1.00800           0
      1569 MEMB     12       POPC     C34      CTL2    -0.180000       12.0110           0
      1570 MEMB     12       POPC     H4X      HAL2     0.900000E-01   1.00800           0
      1571 MEMB     12       POPC     H4Y      HAL2     0.900000E-01   1.00800           0
      1572 MEMB     12       POPC     C35      CTL2    -0.180000       12.0110           0
      1573 MEMB     12       POPC     H5X      HAL2     0.900000E-01   1.00800           0
      1574 MEMB     12       POPC     H5Y      HAL2     0.900000E-01   1.00800           0
      1575 MEMB     12       POPC     C36      CTL2    -0.180000       12.0110           0
      1576 MEMB     12       POPC     H6X      HAL2     0.900000E-01   1.00800           0
      1577 MEMB     12       POPC     H6Y      HAL2     0.900000E-01   1.00800           0
      1578 MEMB     12       POPC     C37      CTL2    -0.180000       12.0110           0
      1579 MEMB     12       POPC     H7X      HAL2     0.900000E-01   1.00800           0
      1580 MEMB     12       POPC     H7Y      HAL2     0.900000E-01   1.00800           0
      1581 MEMB     12       POPC     C38      CTL2    -0.180000       12.0110           0
      1582 MEMB     12       POPC     H8X      HAL2     0.900000E-01   1.00800           0
      1583 MEMB     12       POPC     H8Y      HAL2     0.900000E-01   1.00800           0
      1584 MEMB     12       POPC     C39      CTL2    -0.180000       12.0110           0
      1585 MEMB     12       POPC     H9X      HAL2     0.900000E-01   1.00800           0
      1586 MEMB     12       POPC     H9Y      HAL2     0.900000E-01   1.00800           0
      1587 MEMB     12       POPC     C310     CTL2    -0.180000       12.0110           0
      1588 MEMB     12       POPC     H10X     HAL2     0.900000E-01   1.00800           0
      1589 MEMB     12       POPC     H10Y     HAL2     0.900000E-01   1.00800           0
      1590 MEMB     12       POPC     C311     CTL2    -0.180000       12.0110           0
      1591 MEMB     12       POPC     H11X     HAL2     0.900000E-01   1.00800           0
      1592 MEMB     12       POPC     H11Y     HAL2     0.900000E-01   1.00800           0
      1593 MEMB     12       POPC     C312     CTL2    -0.180000       12.0110           0
      1594 MEMB     12       POPC     H12X     HAL2     0.900000E-01   1.00800           0
      1595 MEMB     12       POPC     H12Y     HAL2     0.900000E-01   1.00800           0
      1596 MEMB     12       POPC     C313     CTL2    -0.180000       12.0110           0
      1597 MEMB     12       POPC     H13X     HAL2     0.900000E-01   1.00800           0
      1598 MEMB     12       POPC     H13Y     HAL2     0.900000E-01   1.00800           0
      1599 MEMB     12       POPC     C314     CTL2    -0.180000       12.0110           0
      1600 MEMB     12       POPC     H14X     HAL2     0.900000E-01   1.00800           0
      1601 MEMB     12       POPC     H14Y     HAL2     0.900000E-01   1.00800           0
      1602 MEMB     12       POPC     C315     CTL2    -0.180000       12.0110           0
      1603 MEMB     12       POPC     H15X     HAL2     0.900000E-01   1.00800           0
      1604 MEMB     12       POPC     H15Y     HAL2     0.900000E-01   1.00800           0
      1605 MEMB     12       POPC     C316     CTL3    -0.270000       12.0110           0
      1606 MEMB     12       POPC     H16X     HAL3     0.900000E-01   1.00800           0
      1607 MEMB     12       POPC     H16Y     HAL3     0.900000E-01   1.00800           0
      1608 MEMB     12       POPC     H16Z     HAL3     0.900000E-01   1.00800           0
      1609 MEMB     13       POPC     N        NTL     -0.600000       14.0070           0
      1610 MEMB     13       POPC     C12      CTL2    -0.100000       12.0110           0
      1611 MEMB     13       POPC     H12A     HL       0.250000       1.00800           0
      1612 MEMB     13       POPC     H12B     HL       0.250000       1.00800           0
      1613 MEMB     13       POPC     C13      CTL5    -0.350000       12.0110           0
      1614 MEMB     13       POPC     H13A     HL       0.250000       1.00800           0
      1615 MEMB     13       POPC     H13B     HL       0.250000       1.00800           0
      1616 MEMB     13       POPC     H13C     HL       0.250000       1.00800           0
      1617 MEMB     13       POPC     C14      CTL5    -0.350000       12.0110           0
      1618 MEMB     13       POPC     H14A     HL       0.250000       1.00800           0
      1619 MEMB     13       POPC     H14B     HL       0.250000       1.00800           0
      1620 MEMB     13       POPC     H14C     HL       0.250000       1.00800           0
      1621 MEMB     13       POPC     C15      CTL5    -0.350000       12.0110           0
      1622 MEMB     13       POPC     H15A     HL       0.250000       1.00800           0
      1623 MEMB     13       POPC     H15B     HL       0.250000       1.00800           0
      1624 MEMB     13       POPC     H15C     HL       0.250000       1.00800           0
      1625 MEMB     13       POPC     C11      CTL2    -0.800000E-01   12.0110           0
      1626 MEMB     13       POPC     H11A     HAL2     0.900000E-01   1.00800           0
      1627 MEMB     13       POPC     H11B     HAL2     0.900000E-01   1.00800           0
      1628 MEMB     13       POPC     P        PL       1.500000       30.9740           0
      1629 MEMB     13       POPC     O13      O2L     -0.780000       15.9994           0
      1630 MEMB     13       POPC     O14      O2L     -0.780000       15.9994           0
      1631 MEMB     13       POPC     O12      OSLP    -0.570000       15.9994           0
      1632 MEMB     13       POPC     O11      OSLP    -0.570000       15.9994           0
      1633 MEMB     13       POPC     C1       CTL2    -0.800000E-01   12.0110           0
      1634 MEMB     13       POPC     HA       HAL2     0.900000E-01   1.00800           0
      1635 MEMB     13       POPC     HB       HAL2     0.900000E-01   1.00800           0
      1636 MEMB     13       POPC     C2       CTL1     0.170000       12.0110           0
      1637 MEMB     13       POPC     HS       HAL1     0.900000E-01   1.00800           0
      1638 MEMB     13       POPC     O21      OSL     -0.490000       15.9994           0
      1639 MEMB     13       POPC     C21      CL       0.900000       12.0110           0
      1640 MEMB     13       POPC     O22      OBL     -0.630000       15.9994           0
      1641 MEMB     13       POPC     C22      CTL2    -0.220000       12.0110           0
      1642 MEMB     13       POPC     H2R      HAL2     0.900000E-01   1.00800           0
      1643 MEMB     13       POPC     H2S      HAL2     0.900000E-01   1.00800           0
      1644 MEMB     13       POPC     C3       CTL2     0.800000E-01   12.0110           0
      1645 MEMB     13       POPC     HX       HAL2     0.900000E-01   1.00800           0
      1646 MEMB     13       POPC     HY       HAL2     0.900000E-01   1.00800           0
      1647 MEMB     13       POPC     O31      OSL     -0.490000       15.9994           0
      1648 MEMB     13       POPC     C31      CL       0.900000       12.0110           0
      1649 MEMB     13       POPC     O32      OBL     -0.630000       15.9994           0
      1650 MEMB     13       POPC     C32      CTL2    -0.220000       12.0110           0
      1651 MEMB     13       POPC     H2X      HAL2     0.900000E-01   1.00800           0
      1652 MEMB     13       POPC     H2Y      HAL2     0.900000E-01   1.00800           0
      1653 MEMB     13       POPC     C23      CTL2    -0.180000       12.0110           0
      1654 MEMB     13       POPC     H3R      HAL2     0.900000E-01   1.00800           0
      1655 MEMB     13       POPC     H3S      HAL2     0.900000E-01   1.00800           0
      1656 MEMB     13       POPC     C24      CTL2    -0.180000       12.0110           0
      1657 MEMB     13       POPC     H4R      HAL2     0.900000E-01   1.00800           0
      1658 MEMB     13       POPC     H4S      HAL2     0.900000E-01   1.00800           0
      1659 MEMB     13       POPC     C25      CTL2    -0.180000       12.0110           0
      1660 MEMB     13       POPC     H5R      HAL2     0.900000E-01   1.00800           0
      1661 MEMB     13       POPC     H5S      HAL2     0.900000E-01   1.00800           0
      1662 MEMB     13       POPC     C26      CTL2    -0.180000       12.0110           0
      1663 MEMB     13       POPC     H6R      HAL2     0.900000E-01   1.00800           0
      1664 MEMB     13       POPC     H6S      HAL2     0.900000E-01   1.00800           0
      1665 MEMB     13       POPC     C27      CTL2    -0.180000       12.0110           0
      1666 MEMB     13       POPC     H7R      HAL2     0.900000E-01   1.00800           0
      1667 MEMB     13       POPC     H7S      HAL2     0.900000E-01   1.00800           0
      1668 MEMB     13       POPC     C28      CTL2    -0.180000       12.0110           0
      1669 MEMB     13       POPC     H8R      HAL2     0.900000E-01   1.00800           0
      1670 MEMB     13       POPC     H8S      HAL2     0.900000E-01   1.00800           0
      1671 MEMB     13       POPC     C29      CEL1    -0.150000       12.0110           0
      1672 MEMB     13       POPC     H91      HEL1     0.150000       1.00800           0
      1673 MEMB     13       POPC     C210     CEL1    -0.150000       12.0110           0
      1674 MEMB     13       POPC     H101     HEL1     0.150000       1.00800           0
      1675 MEMB     13       POPC     C211     CTL2    -0.180000       12.0110           0
      1676 MEMB     13       POPC     H11R     HAL2     0.900000E-01   1.00800           0
      1677 MEMB     13       POPC     H11S     HAL2     0.900000E-01   1.00800           0
      1678 MEMB     13       POPC     C212     CTL2    -0.180000       12.0110           0
      1679 MEMB     13       POPC     H12R     HAL2     0.900000E-01   1.00800           0
      1680 MEMB     13       POPC     H12S     HAL2     0.900000E-01   1.00800           0
      1681 MEMB     13       POPC     C213     CTL2    -0.180000       12.0110           0
      1682 MEMB     13       POPC     H13R     HAL2     0.900000E-01   1.00800           0
      1683 MEMB     13       POPC     H13S     HAL2     0.900000E-01   1.00800           0
      1684 MEMB     13       POPC     C214     CTL2    -0.180000       12.0110           0
      1685 MEMB     13       POPC     H14R     HAL2     0.900000E-01   1.00800           0
      1686 MEMB     13       POPC     H14S     HAL2     0.900000E-01   1.00800           0
      1687 MEMB     13       POPC     C215     CTL2    -0.180000       12.0110           0
      1688 MEMB     13       POPC     H15R     HAL2     0.900000E-01   1.00800           0
      1689 MEMB     13       POPC     H15S     HAL2     0.900000E-01   1.00800           0
      1690 MEMB     13       POPC     C216     CTL2    -0.180000       12.0110           0
      1691 MEMB     13       POPC     H16R     HAL2     0.900000E-01   1.00800           0
      1692 MEMB     13       POPC     H16S     HAL2     0.900000E-01   1.00800           0
      1693 MEMB     13       POPC     C217     CTL2    -0.180000       12.0110           0
      1694 MEMB     13       POPC     H17R     HAL2     0.900000E-01   1.00800           0
      1695 MEMB     13       POPC     H17S     HAL2     0.900000E-01   1.00800           0
      1696 MEMB     13       POPC     C218     CTL3    -0.270000       12.0110           0
      1697 MEMB     13       POPC     H18R     HAL3     0.900000E-01   1.00800           0
      1698 MEMB     13       POPC     H18S     HAL3     0.900000E-01   1.00800           0
      1699 MEMB     13       POPC     H18T     HAL3     0.900000E-01   1.00800           0
      1700 MEMB     13       POPC     C33      CTL2    -0.180000       12.0110           0
      1701 MEMB     13       POPC     H3X      HAL2     0.900000E-01   1.00800           0
      1702 MEMB     13       POPC     H3Y      HAL2     0.900000E-01   1.00800           0
      1703 MEMB     13       POPC     C34      CTL2    -0.180000       12.0110           0
      1704 MEMB     13       POPC     H4X      HAL2     0.900000E-01   1.00800           0
      1705 MEMB     13       POPC     H4Y      HAL2     0.900000E-01   1.00800           0
      1706 MEMB     13       POPC     C35      CTL2    -0.180000       12.0110           0
      1707 MEMB     13       POPC     H5X      HAL2     0.900000E-01   1.00800           0
      1708 MEMB     13       POPC     H5Y      HAL2     0.900000E-01   1.00800           0
      1709 MEMB     13       POPC     C36      CTL2    -0.180000       12.0110           0
      1710 MEMB     13       POPC     H6X      HAL2     0.900000E-01   1.00800           0
      1711 MEMB     13       POPC     H6Y      HAL2     0.900000E-01   1.00800           0
      1712 MEMB     13       POPC     C37      CTL2    -0.180000       12.0110           0
      1713 MEMB     13       POPC     H7X      HAL2     0.900000E-01   1.00800           0
      1714 MEMB     13       POPC     H7Y      HAL2     0.900000E-01   1.00800           0
      1715 MEMB     13       POPC     C38      CTL2    -0.180000       12.0110           0
      1716 MEMB     13       POPC     H8X      HAL2     0.900000E-01   1.00800           0
      1717 MEMB     13       POPC     H8Y      HAL2     0.900000E-01   1.00800           0
      1718 MEMB     13       POPC     C39      CTL2    -0.180000       12.0110           0
      1719 MEMB     13       POPC     H9X      HAL2     0.900000E-01   1.00800           0
      1720 MEMB     13       POPC     H9Y      HAL2     0.900000E-01   1.00800           0
      1721 MEMB     13       POPC     C310     CTL2    -0.180000       12.0110           0
      1722 MEMB     13       POPC     H10X     HAL2     0.900000E-01   1.00800           0
      1723 MEMB     13       POPC     H10Y     HAL2     0.900000E-01   1.00800           0
      1724 MEMB     13       POPC     C311     CTL2    -0.180000       12.0110           0
      1725 MEMB     13       POPC     H11X     HAL2     0.900000E-01   1.00800           0
      1726 MEMB     13       POPC     H11Y     HAL2     0.900000E-01   1.00800           0
      1727 MEMB     13       POPC     C312     CTL2    -0.180000       12.0110           0
      1728 MEMB     13       POPC     H12X     HAL2     0.900000E-01   1.00800           0
      1729 MEMB     13       POPC     H12Y     HAL2     0.900000E-01   1.00800           0
      1730 MEMB     13       POPC     C313     CTL2    -0.180000       12.0110           0
      1731 MEMB     13       POPC     H13X     HAL2     0.900000E-01   1.00800           0
      1732 MEMB     13       POPC     H13Y     HAL2     0.900000E-01   1.00800           0
      1733 MEMB     13       POPC     C314     CTL2    -0.180000       12.0110           0
      1734 MEMB     13       POPC     H14X     HAL2     0.900000E-01   1.00800           0
      1735 MEMB     13       POPC     H14Y     HAL2     0.900000E-01   1.00800           0
      1736 MEMB     13       POPC     C315     CTL2    -0.180000       12.0110           0
      1737 MEMB     13       POPC     H15X     HAL2     0.900000E-01   1.00800           0
      1738 MEMB     13       POPC     H15Y     HAL2     0.900000E-01   1.00800           0
      1739 MEMB     13       POPC     C316     CTL3    -0.270000       12.0110           0
      1740 MEMB     13       POPC     H16X     HAL3     0.900000E-01   1.00800           0
      1741 MEMB     13       POPC     H16Y     HAL3     0.900000E-01   1.00800           0
      1742 MEMB     13       POPC     H16Z     HAL3     0.900000E-01   1.00800           0
      1743 MEMB     14       POPC     N        NTL     -0.600000       14.0070           0
      1744 MEMB     14       POPC     C12      CTL2    -0.100000       12.0110           0
      1745 MEMB     14       POPC     H12A     HL       0.250000       1.00800           0
      1746 MEMB     14       POPC     H12B     HL       0.250000       1.00800           0
      1747 MEMB     14       POPC     C13      CTL5    -0.350000       12.0110           0
      1748 MEMB     14       POPC     H13A     HL       0.250000       1.00800           0
      1749 MEMB     14       POPC     H13B     HL       0.250000       1.00800           0
      1750 MEMB     14       POPC     H13C     HL       0.250000       1.00800           0
      1751 MEMB     14       POPC     C14      CTL5    -0.350000       12.0110           0
      1752 MEMB     14       POPC     H14A     HL       0.250000       1.00800           0
      1753 MEMB     14       POPC     H14B     HL       0.250000       1.00800           0
      1754 MEMB     14       POPC     H14C     HL       0.250000       1.00800           0
      1755 MEMB     14       POPC     C15      CTL5    -0.350000       12.0110           0
      1756 MEMB     14       POPC     H15A     HL       0.250000       1.00800           0
      1757 MEMB     14       POPC     H15B     HL       0.250000       1.00800           0
      1758 MEMB     14       POPC     H15C     HL       0.250000       1.00800           0
      1759 MEMB     14       POPC     C11      CTL2    -0.800000E-01   12.0110           0
      1760 MEMB     14       POPC     H11A     HAL2     0.900000E-01   1.00800           0
      1761 MEMB     14       POPC     H11B     HAL2     0.900000E-01   1.00800           0
      1762 MEMB     14       POPC     P        PL       1.500000       30.9740           0
      1763 MEMB     14       POPC     O13      O2L     -0.780000       15.9994           0
      1764 MEMB     14       POPC     O14      O2L     -0.780000       15.9994           0
      1765 MEMB     14       POPC     O12      OSLP    -0.570000       15.9994           0
      1766 MEMB     14       POPC     O11      OSLP    -0.570000       15.9994           0
      1767 MEMB     14       POPC     C1       CTL2    -0.800000E-01   12.0110           0
      1768 MEMB     14       POPC     HA       HAL2     0.900000E-01   1.00800           0
      1769 MEMB     14       POPC     HB       HAL2     0.900000E-01   1.00800           0
      1770 MEMB     14       POPC     C2       CTL1     0.170000       12.0110           0
      1771 MEMB     14       POPC     HS       HAL1     0.900000E-01   1.00800           0
      1772 MEMB     14       POPC     O21      OSL     -0.490000       15.9994           0
      1773 MEMB     14       POPC     C21      CL       0.900000       12.0110           0
      1774 MEMB     14       POPC     O22      OBL     -0.630000       15.9994           0
      1775 MEMB     14       POPC     C22      CTL2    -0.220000       12.0110           0
      1776 MEMB     14       POPC     H2R      HAL2     0.900000E-01   1.00800           0
      1777 MEMB     14       POPC     H2S      HAL2     0.900000E-01   1.00800           0
      1778 MEMB     14       POPC     C3       CTL2     0.800000E-01   12.0110           0
      1779 MEMB     14       POPC     HX       HAL2     0.900000E-01   1.00800           0
      1780 MEMB     14       POPC     HY       HAL2     0.900000E-01   1.00800           0
      1781 MEMB     14       POPC     O31      OSL     -0.490000       15.9994           0
      1782 MEMB     14       POPC     C31      CL       0.900000       12.0110           0
      1783 MEMB     14       POPC     O32      OBL     -0.630000       15.9994           0
      1784 MEMB     14       POPC     C32      CTL2    -0.220000       12.0110           0
      1785 MEMB     14       POPC     H2X      HAL2     0.900000E-01   1.00800           0
      1786 MEMB     14       POPC     H2Y      HAL2     0.900000E-01   1.00800           0
      1787 MEMB     14       POPC     C23      CTL2    -0.180000       12.0110           0
      1788 MEMB     14       POPC     H3R      HAL2     0.900000E-01   1.00800           0
      1789 MEMB     14       POPC     H3S      HAL2     0.900000E-01   1.00800           0
      1790 MEMB     14       POPC     C24      CTL2    -0.180000       12.0110           0
      1791 MEMB     14       POPC     H4R      HAL2     0.900000E-01   1.00800           0
      1792 MEMB     14       POPC     H4S      HAL2     0.900000E-01   1.00800           0
      1793 MEMB     14       POPC     C25      CTL2    -0.180000       12.0110           0
      1794 MEMB     14       POPC     H5R      HAL2     0.900000E-01   1.00800           0
      1795 MEMB     14       POPC     H5S      HAL2     0.900000E-01   1.00800           0
      1796 MEMB     14       POPC     C26      CTL2    -0.180000       12.0110           0
      1797 MEMB     14       POPC     H6R      HAL2     0.900000E-01   1.00800           0
      1798 MEMB     14       POPC     H6S      HAL2     0.900000E-01   1.00800           0
      1799 MEMB     14       POPC     C27      CTL2    -0.180000       12.0110           0
      1800 MEMB     14       POPC     H7R      HAL2     0.900000E-01   1.00800           0
      1801 MEMB     14       POPC     H7S      HAL2     0.900000E-01   1.00800           0
      1802 MEMB     14       POPC     C28      CTL2    -0.180000       12.0110           0
      1803 MEMB     14       POPC     H8R      HAL2     0.900000E-01   1.00800           0
      1804 MEMB     14       POPC     H8S      HAL2     0.900000E-01   1.00800           0
      1805 MEMB     14       POPC     C29      CEL1    -0.150000       12.0110           0
      1806 MEMB     14       POPC     H91      HEL1     0.150000       1.00800           0
      1807 MEMB     14       POPC     C210     CEL1    -0.150000       12.0110           0
      1808 MEMB     14       POPC     H101     HEL1     0.150000       1.00800           0
      1809 MEMB     14       POPC     C211     CTL2    -0.180000       12.0110           0
      1810 MEMB     14       POPC     H11R     HAL2     0.900000E-01   1.00800           0
      1811 MEMB     14       POPC     H11S     HAL2     0.900000E-01   1.00800           0
      1812 MEMB     14       POPC     C212     CTL2    -0.180000       12.0110           0
      1813 MEMB     14       POPC     H12R     HAL2     0.900000E-01   1.00800           0
      1814 MEMB     14       POPC     H12S     HAL2     0.900000E-01   1.00800           0
      1815 MEMB     14       POPC     C213     CTL2    -0.180000       12.0110           0
      1816 MEMB     14       POPC     H13R     HAL2     0.900000E-01   1.00800           0
      1817 MEMB     14       POPC     H13S     HAL2     0.900000E-01   1.00800           0
      1818 MEMB     14       POPC     C214     CTL2    -0.180000       12.0110           0
      1819 MEMB     14       POPC     H14R     HAL2     0.900000E-01   1.00800           0
      1820 MEMB     14       POPC     H14S     HAL2     0.900000E-01   1.00800           0
      1821 MEMB     14       POPC     C215     CTL2    -0.180000       12.0110           0
      1822 MEMB     14       POPC     H15R     HAL2     0.900000E-01   1.00800           0
      1823 MEMB     14       POPC     H15S     HAL2     0.900000E-01   1.00800           0
      1824 MEMB     14       POPC     C216     CTL2    -0.180000       12.0110           0
      1825 MEMB     14       POPC     H16R     HAL2     0.900000E-01   1.00800           0
      1826 MEMB     14       POPC     H16S     HAL2     0.900000E-01   1.00800           0
      1827 MEMB     14       POPC     C217     CTL2    -0.180000       12.0110           0
      1828 MEMB     14       POPC     H17R     HAL2     0.900000E-01   1.00800           0
      1829 MEMB     14       POPC     H17S     HAL2     0.900000E-01   1.00800           0
      1830 MEMB     14       POPC     C218     CTL3    -0.270000       12.0110           0
      1831 MEMB     14       POPC     H18R     HAL3     0.900000E-01   1.00800           0
      1832 MEMB     14       POPC     H18S     HAL3     0.900000E-01   1.00800           0
      1833 MEMB     14       POPC     H18T     HAL3     0.900000E-01   1.00800           0
      1834 MEMB     14       POPC     C33      CTL2    -0.180000       12.0110           0
      1835 MEMB     14       POPC     H3X      HAL2     0.900000E-01   1.00800           0
      1836 MEMB     14       POPC     H3Y      HAL2     0.900000E-01   1.00800           0
      1837 MEMB     14       POPC     C34      CTL2    -0.180000       12.0110           0
      1838 MEMB     14       POPC     H4X      HAL2     0.900000E-01   1.00800           0
      1839 MEMB     14       POPC     H4Y      HAL2     0.900000E-01   1.00800           0
      1840 MEMB     14       POPC     C35      CTL2    -0.180000       12.0110           0
      1841 MEMB     14       POPC     H5X      HAL2     0.900000E-01   1.00800           0
      1842 MEMB     14       POPC     H5Y      HAL2     0.900000E-01   1.00800           0
      1843 MEMB     14       POPC     C36      CTL2    -0.180000       12.0110           0
      1844 MEMB     14       POPC     H6X      HAL2     0.900000E-01   1.00800           0
      1845 MEMB     14       POPC     H6Y      HAL2     0.900000E-01   1.00800           0
      1846 MEMB     14       POPC     C37      CTL2    -0.180000       12.0110           0
      1847 MEMB     14       POPC     H7X      HAL2     0.900000E-01   1.00800           0
      1848 MEMB     14       POPC     H7Y      HAL2     0.900000E-01   1.00800           0
      1849 MEMB     14       POPC     C38      CTL2    -0.180000       12.0110           0
      1850 MEMB     14       POPC     H8X      HAL2     0.900000E-01   1.00800           0
      1851 MEMB     14       POPC     H8Y      HAL2     0.900000E-01   1.00800           0
      1852 MEMB     14       POPC     C39      CTL2    -0.180000       12.0110           0
      1853 MEMB     14       POPC     H9X      HAL2     0.900000E-01   1.00800           0
      1854 MEMB     14       POPC     H9Y      HAL2     0.900000E-01   1.00800           0
      1855 MEMB     14       POPC     C310     CTL2    -0.180000       12.0110           0
      1856 MEMB     14       POPC     H10X     HAL2     0.900000E-01   1.00800           0
      1857 MEMB     14       POPC     H10Y     HAL2     0.900000E-01   1.00800           0
      1858 MEMB     14       POPC     C311     CTL2    -0.180000       12.0110           0
      1859 MEMB     14       POPC     H11X     HAL2     0.900000E-01   1.00800           0
      1860 MEMB     14       POPC     H11Y     HAL2     0.900000E-01   1.00800           0
      1861 MEMB     14       POPC     C312     CTL2    -0.180000       12.0110           0
      1862 MEMB     14       POPC     H12X     HAL2     0.900000E-01   1.00800           0
      1863 MEMB     14       POPC     H12Y     HAL2     0.900000E-01   1.00800           0
      1864 MEMB     14       POPC     C313     CTL2    -0.180000       12.0110           0
      1865 MEMB     14       POPC     H13X     HAL2     0.900000E-01   1.00800           0
      1866 MEMB     14       POPC     H13Y     HAL2     0.900000E-01   1.00800           0
      1867 MEMB     14       POPC     C314     CTL2    -0.180000       12.0110           0
      1868 MEMB     14       POPC     H14X     HAL2     0.900000E-01   1.00800           0
      1869 MEMB     14       POPC     H14Y     HAL2     0.900000E-01   1.00800           0
      1870 MEMB     14       POPC     C315     CTL2    -0.180000       12.0110           0
      1871 MEMB     14       POPC     H15X     HAL2     0.900000E-01   1.00800           0
      1872 MEMB     14       POPC     H15Y     HAL2     0.900000E-01   1.00800           0
      1873 MEMB     14       POPC     C316     CTL3    -0.270000       12.0110           0
      1874 MEMB     14       POPC     H16X     HAL3     0.900000E-01   1.00800           0
      1875 MEMB     14       POPC     H16Y     HAL3     0.900000E-01   1.00800           0
      1876 MEMB     14       POPC     H16Z     HAL3     0.900000E-01   1.00800           0
      1877 MEMB     15       POPC     N        NTL     -0.600000       14.0070           0
      1878 MEMB     15       POPC     C12      CTL2    -0.100000       12.0110           0
      1879 MEMB     15       POPC     H12A     HL       0.250000       1.00800           0
      1880 MEMB     15       POPC     H12B     HL       0.250000       1.00800           0
      1881 MEMB     15       POPC     C13      CTL5    -0.350000       12.0110           0
      1882 MEMB     15       POPC     H13A     HL       0.250000       1.00800           0
      1883 MEMB     15       POPC     H13B     HL       0.250000       1.00800           0
      1884 MEMB     15       POPC     H13C     HL       0.250000       1.00800           0
      1885 MEMB     15       POPC     C14      CTL5    -0.350000       12.0110           0
      1886 MEMB     15       POPC     H14A     HL       0.250000       1.00800           0
      1887 MEMB     15       POPC     H14B     HL       0.250000       1.00800           0
      1888 MEMB     15       POPC     H14C     HL       0.250000       1.00800           0
      1889 MEMB     15       POPC     C15      CTL5    -0.350000       12.0110           0
      1890 MEMB     15       POPC     H15A     HL       0.250000       1.00800           0
      1891 MEMB     15       POPC     H15B     HL       0.250000       1.00800           0
      1892 MEMB     15       POPC     H15C     HL       0.250000       1.00800           0
      1893 MEMB     15       POPC     C11      CTL2    -0.800000E-01   12.0110           0
      1894 MEMB     15       POPC     H11A     HAL2     0.900000E-01   1.00800           0
      1895 MEMB     15       POPC     H11B     HAL2     0.900000E-01   1.00800           0
      1896 MEMB     15       POPC     P        PL       1.500000       30.9740           0
      1897 MEMB     15       POPC     O13      O2L     -0.780000       15.9994           0
      1898 MEMB     15       POPC     O14      O2L     -0.780000       15.9994           0
      1899 MEMB     15       POPC     O12      OSLP    -0.570000       15.9994           0
      1900 MEMB     15       POPC     O11      OSLP    -0.570000       15.9994           0
      1901 MEMB     15       POPC     C1       CTL2    -0.800000E-01   12.0110           0
      1902 MEMB     15       POPC     HA       HAL2     0.900000E-01   1.00800           0
      1903 MEMB     15       POPC     HB       HAL2     0.900000E-01   1.00800           0
      1904 MEMB     15       POPC     C2       CTL1     0.170000       12.0110           0
      1905 MEMB     15       POPC     HS       HAL1     0.900000E-01   1.00800           0
      1906 MEMB     15       POPC     O21      OSL     -0.490000       15.9994           0
      1907 MEMB     15       POPC     C21      CL       0.900000       12.0110           0
      1908 MEMB     15       POPC     O22      OBL     -0.630000       15.9994           0
      1909 MEMB     15       POPC     C22      CTL2    -0.220000       12.0110           0
      1910 MEMB     15       POPC     H2R      HAL2     0.900000E-01   1.00800           0
      1911 MEMB     15       POPC     H2S      HAL2     0.900000E-01   1.00800           0
      1912 MEMB     15       POPC     C3       CTL2     0.800000E-01   12.0110           0
      1913 MEMB     15       POPC     HX       HAL2     0.900000E-01   1.00800           0
      1914 MEMB     15       POPC     HY       HAL2     0.900000E-01   1.00800           0
      1915 MEMB     15       POPC     O31      OSL     -0.490000       15.9994           0
      1916 MEMB     15       POPC     C31      CL       0.900000       12.0110           0
      1917 MEMB     15       POPC     O32      OBL     -0.630000       15.9994           0
      1918 MEMB     15       POPC     C32      CTL2    -0.220000       12.0110           0
      1919 MEMB     15       POPC     H2X      HAL2     0.900000E-01   1.00800           0
      1920 MEMB     15       POPC     H2Y      HAL2     0.900000E-01   1.00800           0
      1921 MEMB     15       POPC     C23      CTL2    -0.180000       12.0110           0
      1922 MEMB     15       POPC     H3R      HAL2     0.900000E-01   1.00800           0
      1923 MEMB     15       POPC     H3S      HAL2     0.900000E-01   1.00800           0
      1924 MEMB     15       POPC     C24      CTL2    -0.180000       12.0110           0
      1925 MEMB     15       POPC     H4R      HAL2     0.900000E-01   1.00800           0
      1926 MEMB     15       POPC     H4S      HAL2     0.900000E-01   1.00800           0
      1927 MEMB     15       POPC     C25      CTL2    -0.180000       12.0110           0
      1928 MEMB     15       POPC     H5R      HAL2     0.900000E-01   1.00800           0
      1929 MEMB     15       POPC     H5S      HAL2     0.900000E-01   1.00800           0
      1930 MEMB     15       POPC     C26      CTL2    -0.180000       12.0110           0
      1931 MEMB     15       POPC     H6R      HAL2     0.900000E-01   1.00800           0
      1932 MEMB     15       POPC     H6S      HAL2     0.900000E-01   1.00800           0
      1933 MEMB     15       POPC     C27      CTL2    -0.180000       12.0110           0
      1934 MEMB     15       POPC     H7R      HAL2     0.900000E-01   1.00800           0
      1935 MEMB     15       POPC     H7S      HAL2     0.900000E-01   1.00800           0
      1936 MEMB     15       POPC     C28      CTL2    -0.180000       12.0110           0
      1937 MEMB     15       POPC     H8R      HAL2     0.900000E-01   1.00800           0
      1938 MEMB     15       POPC     H8S      HAL2     0.900000E-01   1.00800           0
      1939 MEMB     15       POPC     C29      CEL1    -0.150000       12.0110           0
      1940 MEMB     15       POPC     H91      HEL1     0.150000       1.00800           0
      1941 MEMB     15       POPC     C210     CEL1    -0.150000       12.0110           0
      1942 MEMB     15       POPC     H101     HEL1     0.150000       1.00800           0
      1943 MEMB     15       POPC     C211     CTL2    -0.180000       12.0110           0
      1944 MEMB     15       POPC     H11R     HAL2     0.900000E-01   1.00800           0
      1945 MEMB     15       POPC     H11S     HAL2     0.900000E-01   1.00800           0
      1946 MEMB     15       POPC     C212     CTL2    -0.180000       12.0110           0
      1947 MEMB     15       POPC     H12R     HAL2     0.900000E-01   1.00800           0
      1948 MEMB     15       POPC     H12S     HAL2     0.900000E-01   1.00800           0
      1949 MEMB     15       POPC     C213     CTL2    -0.180000       12.0110           0
      1950 MEMB     15       POPC     H13R     HAL2     0.900000E-01   1.00800           0
      1951 MEMB     15       POPC     H13S     HAL2     0.900000E-01   1.00800           0
      1952 MEMB     15       POPC     C214     CTL2    -0.180000       12.0110           0
      1953 MEMB     15       POPC     H14R     HAL2     0.900000E-01   1.00800           0
      1954 MEMB     15       POPC     H14S     HAL2     0.900000E-01   1.00800           0
      1955 MEMB     15       POPC     C215     CTL2    -0.180000       12.0110           0
      1956 MEMB     15       POPC     H15R     HAL2     0.900000E-01   1.00800           0
      1957 MEMB     15       POPC     H15S     HAL2     0.900000E-01   1.00800           0
      1958 MEMB     15       POPC     C216     CTL2    -0.180000       12.0110           0
      1959 MEMB     15       POPC     H16R     HAL2     0.900000E-01   1.00800           0
      1960 MEMB     15       POPC     H16S     HAL2     0.900000E-01   1.00800           0
      1961 MEMB     15       POPC     C217     CTL2    -0.180000       12.0110           0
      1962 MEMB     15       POPC     H17R     HAL2     0.900000E-01   1.00800           0
      1963 MEMB     15       POPC     H17S     HAL2     0.900000E-01   1.00800           0
      1964 MEMB     15       POPC     C218     CTL3    -0.270000       12.0110           0
      1965 MEMB     15       POPC     H18R     HAL3     0.900000E-01   1.00800           0
      1966 MEMB     15       POPC     H18S     HAL3     0.900000E-01   1.00800           0
      1967 MEMB     15       POPC     H18T     HAL3     0.900000E-01   1.00800           0
      1968 MEMB     15       POPC     C33      CTL2    -0.180000       12.0110           0
      1969 MEMB     15       POPC     H3X      HAL2     0.900000E-01   1.00800           0
      1970 MEMB     15       POPC     H3Y      HAL2     0.900000E-01   1.00800           0
      1971 MEMB     15       POPC     C34      CTL2    -0.180000       12.0110           0
      1972 MEMB     15       POPC     H4X      HAL2     0.900000E-01   1.00800           0
      1973 MEMB     15       POPC     H4Y      HAL2     0.900000E-01   1.00800           0
      1974 MEMB     15       POPC     C35      CTL2    -0.180000       12.0110           0
      1975 MEMB     15       POPC     H5X      HAL2     0.900000E-01   1.00800           0
      1976 MEMB     15       POPC     H5Y      HAL2     0.900000E-01   1.00800           0
      1977 MEMB     15       POPC     C36      CTL2    -0.180000       12.0110           0
      1978 MEMB     15       POPC     H6X      HAL2     0.900000E-01   1.00800           0
      1979 MEMB     15       POPC     H6Y      HAL2     0.900000E-01   1.00800           0
      1980 MEMB     15       POPC     C37      CTL2    -0.180000       12.0110           0
      1981 MEMB     15       POPC     H7X      HAL2     0.900000E-01   1.00800           0
      1982 MEMB     15       POPC     H7Y      HAL2     0.900000E-01   1.00800           0
      1983 MEMB     15       POPC     C38      CTL2    -0.180000       12.0110           0
      1984 MEMB     15       POPC     H8X      HAL2     0.900000E-01   1.00800           0
      1985 MEMB     15       POPC     H8Y      HAL2     0.900000E-01   1.00800           0
      1986 MEMB     15       POPC     C39      CTL2    -0.180000       12.0110           0
      1987 MEMB     15       POPC     H9X      HAL2     0.900000E-01   1.00800           0
      1988 MEMB     15       POPC     H9Y      HAL2     0.900000E-01   1.00800           0
      1989 MEMB     15       POPC     C310     CTL2    -0.180000       12.0110           0
      1990 MEMB     15       POPC     H10X     HAL2     0.900000E-01   1.00800           0
      1991 MEMB     15       POPC     H10Y     HAL2     0.900000E-01   1.00800           0
      1992 MEMB     15       POPC     C311     CTL2    -0.180000       12.0110           0
      1993 MEMB     15       POPC     H11X     HAL2     0.900000E-01   1.00800           0
      1994 MEMB     15       POPC     H11Y     HAL2     0.900000E-01   1.00800           0
      1995 MEMB     15       POPC     C312     CTL2    -0.180000       12.0110           0
      1996 MEMB     15       POPC     H12X     HAL2     0.900000E-01   1.00800           0
      1997 MEMB     15       POPC     H12Y     HAL2     0.900000E-01   1.00800           0
      1998 MEMB     15       POPC     C313     CTL2    -0.180000       12.0110           0
      1999 MEMB     15       POPC     H13X     HAL2     0.900000E-01   1.00800           0
      2000 MEMB     15       POPC     H13Y     HAL2     0.900000E-01   1.00800           0
      2001 MEMB     15       POPC     C314     CTL2    -0.180000       12.0110           0
      2002 MEMB     15       POPC     H14X     HAL2     0.900000E-01   1.00800           0
      2003 MEMB     15       POPC     H14Y     HAL2     0.900000E-01   1.00800           0
      2004 MEMB     15       POPC     C315     CTL2    -0.180000       12.0110           0
      2005 MEMB     15       POPC     H15X     HAL2     0.900000E-01   1.00800           0
      2006 MEMB     15       POPC     H15Y     HAL2     0.900000E-01   1.00800           0
      2007 MEMB     15       POPC     C316     CTL3    -0.270000       12.0110           0
      2008 MEMB     15       POPC     H16X     HAL3     0.900000E-01   1.00800           0
      2009 MEMB     15       POPC     H16Y     HAL3     0.900000E-01   1.00800           0
      2010 MEMB     15       POPC     H16Z     HAL3     0.900000E-01   1.00800           0
      2011 MEMB     16       POPC     N        NTL     -0.600000       14.0070           0
      2012 MEMB     16       POPC     C12      CTL2    -0.100000       12.0110           0
      2013 MEMB     16       POPC     H12A     HL       0.250000       1.00800           0
      2014 MEMB     16       POPC     H12B     HL       0.250000       1.00800           0
      2015 MEMB     16       POPC     C13      CTL5    -0.350000       12.0110           0
      2016 MEMB     16       POPC     H13A     HL       0.250000       1.00800           0
      2017 MEMB     16       POPC     H13B     HL       0.250000       1.00800           0
      2018 MEMB     16       POPC     H13C     HL       0.250000       1.00800           0
      2019 MEMB     16       POPC     C14      CTL5    -0.350000       12.0110           0
      2020 MEMB     16       POPC     H14A     HL       0.250000       1.00800           0
      2021 MEMB     16       POPC     H14B     HL       0.250000       1.00800           0
      2022 MEMB     16       POPC     H14C     HL       0.250000       1.00800           0
      2023 MEMB     16       POPC     C15      CTL5    -0.350000       12.0110           0
      2024 MEMB     16       POPC     H15A     HL       0.250000       1.00800           0
      2025 MEMB     16       POPC     H15B     HL       0.250000       1.00800           0
      2026 MEMB     16       POPC     H15C     HL       0.250000       1.00800           0
      2027 MEMB     16       POPC     C11      CTL2    -0.800000E-01   12.0110           0
      2028 MEMB     16       POPC     H11A     HAL2     0.900000E-01   1.00800           0
      2029 MEMB     16       POPC     H11B     HAL2     0.900000E-01   1.00800           0
      2030 MEMB     16       POPC     P        PL       1.500000       30.9740           0
      2031 MEMB     16       POPC     O13      O2L     -0.780000       15.9994           0
      2032 MEMB     16       POPC     O14      O2L     -0.780000       15.9994           0
      2033 MEMB     16       POPC     O12      OSLP    -0.570000       15.9994           0
      2034 MEMB     16       POPC     O11      OSLP    -0.570000       15.9994           0
      2035 MEMB     16       POPC     C1       CTL2    -0.800000E-01   12.0110           0
      2036 MEMB     16       POPC     HA       HAL2     0.900000E-01   1.00800           0
      2037 MEMB     16       POPC     HB       HAL2     0.900000E-01   1.00800           0
      2038 MEMB     16       POPC     C2       CTL1     0.170000       12.0110           0
      2039 MEMB     16       POPC     HS       HAL1     0.900000E-01   1.00800           0
      2040 MEMB     16       POPC     O21      OSL     -0.490000       15.9994           0
      2041 MEMB     16       POPC     C21      CL       0.900000       12.0110           0
      2042 MEMB     16       POPC     O22      OBL     -0.630000       15.9994           0
      2043 MEMB     16       POPC     C22      CTL2    -0.220000       12.0110           0
      2044 MEMB     16       POPC     H2R      HAL2     0.900000E-01   1.00800           0
      2045 MEMB     16       POPC     H2S      HAL2     0.900000E-01   1.00800           0
      2046 MEMB     16       POPC     C3       CTL2     0.800000E-01   12.0110           0
      2047 MEMB     16       POPC     HX       HAL2     0.900000E-01   1.00800           0
      2048 MEMB     16       POPC     HY       HAL2     0.900000E-01   1.00800           0
      2049 MEMB     16       POPC     O31      OSL     -0.490000       15.9994           0
      2050 MEMB     16       POPC     C31      CL       0.900000       12.0110           0
      2051 MEMB     16       POPC     O32      OBL     -0.630000       15.9994           0
      2052 MEMB     16       POPC     C32      CTL2    -0.220000       12.0110           0
      2053 MEMB     16       POPC     H2X      HAL2     0.900000E-01   1.00800           0
      2054 MEMB     16       POPC     H2Y      HAL2     0.900000E-01   1.00800           0
      2055 MEMB     16       POPC     C23      CTL2    -0.180000       12.0110           0
      2056 MEMB     16       POPC     H3R      HAL2     0.900000E-01   1.00800           0
      2057 MEMB     16       POPC     H3S      HAL2     0.900000E-01   1.00800           0
      2058 MEMB     16       POPC     C24      CTL2    -0.180000       12.0110           0
      2059 MEMB     16       POPC     H4R      HAL2     0.900000E-01   1.00800           0
      2060 MEMB     16       POPC     H4S      HAL2     0.900000E-01   1.00800           0
      2061 MEMB     16       POPC     C25      CTL2    -0.180000       12.0110           0
      2062 MEMB     16       POPC     H5R      HAL2     0.900000E-01   1.00800           0
      2063 MEMB     16       POPC     H5S      HAL2     0.900000E-01   1.00800           0
      2064 MEMB     16       POPC     C26      CTL2    -0.180000       12.0110           0
      2065 MEMB     16       POPC     H6R      HAL2     0.900000E-01   1.00800           0
      2066 MEMB     16       POPC     H6S      HAL2     0.900000E-01   1.00800           0
      2067 MEMB     16       POPC     C27      CTL2    -0.180000       12.0110           0
      2068 MEMB     16       POPC     H7R      HAL2     0.900000E-01   1.00800           0
      2069 MEMB     16       POPC     H7S      HAL2     0.900000E-01   1.00800           0
      2070 MEMB     16       POPC     C28      CTL2    -0.180000       12.0110           0
      2071 MEMB     16       POPC     H8R      HAL2     0.900000E-01   1.00800           0
      2072 MEMB     16       POPC     H8S      HAL2     0.900000E-01   1.00800           0
      2073 MEMB     16       POPC     C29      CEL1    -0.150000       12.0110           0
      2074 MEMB     16       POPC     H91      HEL1     0.150000       1.00800           0
      2075 MEMB     16       POPC     C210     CEL1    -0.150000       12.0110           0
      2076 MEMB     16       POPC     H101     HEL1     0.150000       1.00800           0
      2077 MEMB     16       POPC     C211     CTL2    -0.180000       12.0110           0
      2078 MEMB     16       POPC     H11R     HAL2     0.900000E-01   1.00800           0
      2079 MEMB     16       POPC     H11S     HAL2     0.900000E-01   1.00800           0
      2080 MEMB     16       POPC     C212     CTL2    -0.180000       12.0110           0
      2081 MEMB     16       POPC     H12R     HAL2     0.900000E-01   1.00800           0
      2082 MEMB     16       POPC     H12S     HAL2     0.900000E-01   1.00800           0
      2083 MEMB     16       POPC     C213     CTL2    -0.180000       12.0110           0
      2084 MEMB     16       POPC     H13R     HAL2     0.900000E-01   1.00800           0
      2085 MEMB     16       POPC     H13S     HAL2     0.900000E-01   1.00800           0
      2086 MEMB     16       POPC     C214     CTL2    -0.180000       12.0110           0
      2087 MEMB     16       POPC     H14R     HAL2     0.900000E-01   1.00800           0
      2088 MEMB     16       POPC     H14S     HAL2     0.900000E-01   1.00800           0
      2089 MEMB     16       POPC     C215     CTL2    -0.180000       12.0110           0
      2090 MEMB     16       POPC     H15R     HAL2     0.900000E-01   1.00800           0
      2091 MEMB     16       POPC     H15S     HAL2     0.900000E-01   1.00800           0
      2092 MEMB     16       POPC     C216     CTL2    -0.180000       12.0110           0
      2093 MEMB     16       POPC     H16R     HAL2     0.900000E-01   1.00800           0
      2094 MEMB     16       POPC     H16S     HAL2     0.900000E-01   1.00800           0
      2095 MEMB     16       POPC     C217     CTL2    -0.180000       12.0110           0
      2096 MEMB     16       POPC     H17R     HAL2     0.900000E-01   1.00800           0
      2097 MEMB     16       POPC     H17S     HAL2     0.900000E-01   1.00800           0
      2098 MEMB     16       POPC     C218     CTL3    -0.270000       12.0110           0
      2099 MEMB     16       POPC     H18R     HAL3     0.900000E-01   1.00800           0
      2100 MEMB     16       POPC     H18S     HAL3     0.900000E-01   1.00800           0
      2101 MEMB     16       POPC     H18T     HAL3     0.900000E-01   1.00800           0
      2102 MEMB     16       POPC     C33      CTL2    -0.180000       12.0110           0
      2103 MEMB     16       POPC     H3X      HAL2     0.900000E-01   1.00800           0
      2104 MEMB     16       POPC     H3Y      HAL2     0.900000E-01   1.00800           0
      2105 MEMB     16       POPC     C34      CTL2    -0.180000       12.0110           0
      2106 MEMB     16       POPC     H4X      HAL2     0.900000E-01   1.00800           0
      2107 MEMB     16       POPC     H4Y      HAL2     0.900000E-01   1.00800           0
      2108 MEMB     16       POPC     C35      CTL2    -0.180000       12.0110           0
      2109 MEMB     16       POPC     H5X      HAL2     0.900000E-01   1.00800           0
      2110 MEMB     16       POPC     H5Y      HAL2     0.900000E-01   1.00800           0
      2111 MEMB     16       POPC     C36      CTL2    -0.180000       12.0110           0
      2112 MEMB     16       POPC     H6X      HAL2     0.900000E-01   1.00800           0
      2113 MEMB     16       POPC     H6Y      HAL2     0.900000E-01   1.00800           0
      2114 MEMB     16       POPC     C37      CTL2    -0.180000       12.0110           0
      2115 MEMB     16       POPC     H7X      HAL2     0.900000E-01   1.00800           0
      2116 MEMB     16       POPC     H7Y      HAL2     0.900000E-01   1.00800           0
      2117 MEMB     16       POPC     C38      CTL2    -0.180000       12.0110           0
      2118 MEMB     16       POPC     H8X      HAL2     0.900000E-01   1.00800           0
      2119 MEMB     16       POPC     H8Y      HAL2     0.900000E-01   1.00800           0
      2120 MEMB     16       POPC     C39      CTL2    -0.180000       12.0110           0
      2121 MEMB     16       POPC     H9X      HAL2     0.900000E-01   1.00800           0
      2122 MEMB     16       POPC     H9Y      HAL2     0.900000E-01   1.00800           0
      2123 MEMB     16       POPC     C310     CTL2    -0.180000       12.0110           0
      2124 MEMB     16       POPC     H10X     HAL2     0.900000E-01   1.00800           0
      2125 MEMB     16       POPC     H10Y     HAL2     0.900000E-01   1.00800           0
      2126 MEMB     16       POPC     C311     CTL2    -0.180000       12.0110           0
      2127 MEMB     16       POPC     H11X     HAL2     0.900000E-01   1.00800           0
      2128 MEMB     16       POPC     H11Y     HAL2     0.900000E-01   1.00800           0
      2129 MEMB     16       POPC     C312     CTL2    -0.180000       12.0110           0
      2130 MEMB     16       POPC     H12X     HAL2     0.900000E-01   1.00800           0
      2131 MEMB     16       POPC     H12Y     HAL2     0.900000E-01   1.00800           0
      2132 MEMB     16       POPC     C313     CTL2    -0.180000       12.0110           0
      2133 MEMB     16       POPC     H13X     HAL2     0.900000E-01   1.00800           0
      2134 MEMB     16       POPC     H13Y     HAL2     0.900000E-01   1.00800           0
      2135 MEMB     16       POPC     C314     CTL2    -0.180000       12.0110           0
      2136 MEMB     16       POPC     H14X     HAL2     0.900000E-01   1.00800           0
      2137 MEMB     16       POPC     H14Y     HAL2     0.900000E-01   1.00800           0
      2138 MEMB     16       POPC     C315     CTL2    -0.180000       12.0110           0
      2139 MEMB     16       POPC     H15X     HAL2     0.900000E-01   1.00800           0
      2140 MEMB     16       POPC     H15Y     HAL2     0.900000E-01   1.00800           0
      2141 MEMB     16       POPC     C316     CTL3    -0.270000       12.0110           0
      2142 MEMB     16       POPC     H16X     HAL3     0.900000E-01   1.00800           0
      2143 MEMB     16       POPC     H16Y     HAL3     0.900000E-01   1.00800           0
      2144 MEMB     16       POPC     H16Z     HAL3     0.900000E-01   1.00800           0
      2145 MEMB     17       POPC     N        NTL     -0.600000       14.0070           0
      2146 MEMB     17       POPC     C12      CTL2    -0.100000       12.0110           0
      2147 MEMB     17       POPC     H12A     HL       0.250000       1.00800           0
      2148 MEMB     17       POPC     H12B     HL       0.250000       1.00800           0
      2149 MEMB     17       POPC     C13      CTL5    -0.350000       12.0110           0
      2150 MEMB     17       POPC     H13A     HL       0.250000       1.00800           0
      2151 MEMB     17       POPC     H13B     HL       0.250000       1.00800           0
      2152 MEMB     17       POPC     H13C     HL       0.250000       1.00800           0
      2153 MEMB     17       POPC     C14      CTL5    -0.350000       12.0110           0
      2154 MEMB     17       POPC     H14A     HL       0.250000       1.00800           0
      2155 MEMB     17       POPC     H14B     HL       0.250000       1.00800           0
      2156 MEMB     17       POPC     H14C     HL       0.250000       1.00800           0
      2157 MEMB     17       POPC     C15      CTL5    -0.350000       12.0110           0
      2158 MEMB     17       POPC     H15A     HL       0.250000       1.00800           0
      2159 MEMB     17       POPC     H15B     HL       0.250000       1.00800           0
      2160 MEMB     17       POPC     H15C     HL       0.250000       1.00800           0
      2161 MEMB     17       POPC     C11      CTL2    -0.800000E-01   12.0110           0
      2162 MEMB     17       POPC     H11A     HAL2     0.900000E-01   1.00800           0
      2163 MEMB     17       POPC     H11B     HAL2     0.900000E-01   1.00800           0
      2164 MEMB     17       POPC     P        PL       1.500000       30.9740           0
      2165 MEMB     17       POPC     O13      O2L     -0.780000       15.9994           0
      2166 MEMB     17       POPC     O14      O2L     -0.780000       15.9994           0
      2167 MEMB     17       POPC     O12      OSLP    -0.570000       15.9994           0
      2168 MEMB     17       POPC     O11      OSLP    -0.570000       15.9994           0
      2169 MEMB     17       POPC     C1       CTL2    -0.800000E-01   12.0110           0
      2170 MEMB     17       POPC     HA       HAL2     0.900000E-01   1.00800           0
      2171 MEMB     17       POPC     HB       HAL2     0.900000E-01   1.00800           0
      2172 MEMB     17       POPC     C2       CTL1     0.170000       12.0110           0
      2173 MEMB     17       POPC     HS       HAL1     0.900000E-01   1.00800           0
      2174 MEMB     17       POPC     O21      OSL     -0.490000       15.9994           0
      2175 MEMB     17       POPC     C21      CL       0.900000       12.0110           0
      2176 MEMB     17       POPC     O22      OBL     -0.630000       15.9994           0
      2177 MEMB     17       POPC     C22      CTL2    -0.220000       12.0110           0
      2178 MEMB     17       POPC     H2R      HAL2     0.900000E-01   1.00800           0
      2179 MEMB     17       POPC     H2S      HAL2     0.900000E-01   1.00800           0
      2180 MEMB     17       POPC     C3       CTL2     0.800000E-01   12.0110           0
      2181 MEMB     17       POPC     HX       HAL2     0.900000E-01   1.00800           0
      2182 MEMB     17       POPC     HY       HAL2     0.900000E-01   1.00800           0
      2183 MEMB     17       POPC     O31      OSL     -0.490000       15.9994           0
      2184 MEMB     17       POPC     C31      CL       0.900000       12.0110           0
      2185 MEMB     17       POPC     O32      OBL     -0.630000       15.9994           0
      2186 MEMB     17       POPC     C32      CTL2    -0.220000       12.0110           0
      2187 MEMB     17       POPC     H2X      HAL2     0.900000E-01   1.00800           0
      2188 MEMB     17       POPC     H2Y      HAL2     0.900000E-01   1.00800           0
      2189 MEMB     17       POPC     C23      CTL2    -0.180000       12.0110           0
      2190 MEMB     17       POPC     H3R      HAL2     0.900000E-01   1.00800           0
      2191 MEMB     17       POPC     H3S      HAL2     0.900000E-01   1.00800           0
      2192 MEMB     17       POPC     C24      CTL2    -0.180000       12.0110           0
      2193 MEMB     17       POPC     H4R      HAL2     0.900000E-01   1.00800           0
      2194 MEMB     17       POPC     H4S      HAL2     0.900000E-01   1.00800           0
      2195 MEMB     17       POPC     C25      CTL2    -0.180000       12.0110           0
      2196 MEMB     17       POPC     H5R      HAL2     0.900000E-01   1.00800           0
      2197 MEMB     17       POPC     H5S      HAL2     0.900000E-01   1.00800           0
      2198 MEMB     17       POPC     C26      CTL2    -0.180000       12.0110           0
      2199 MEMB     17       POPC     H6R      HAL2     0.900000E-01   1.00800           0
      2200 MEMB     17       POPC     H6S      HAL2     0.900000E-01   1.00800           0
      2201 MEMB     17       POPC     C27      CTL2    -0.180000       12.0110           0
      2202 MEMB     17       POPC     H7R      HAL2     0.900000E-01   1.00800           0
      2203 MEMB     17       POPC     H7S      HAL2     0.900000E-01   1.00800           0
      2204 MEMB     17       POPC     C28      CTL2    -0.180000       12.0110           0
      2205 MEMB     17       POPC     H8R      HAL2     0.900000E-01   1.00800           0
      2206 MEMB     17       POPC     H8S      HAL2     0.900000E-01   1.00800           0
      2207 MEMB     17       POPC     C29      CEL1    -0.150000       12.0110           0
      2208 MEMB     17       POPC     H91      HEL1     0.150000       1.00800           0
      2209 MEMB     17       POPC     C210     CEL1    -0.150000       12.0110           0
      2210 MEMB     17       POPC     H101     HEL1     0.150000       1.00800           0
      2211 MEMB     17       POPC     C211     CTL2    -0.180000       12.0110           0
      2212 MEMB     17       POPC     H11R     HAL2     0.900000E-01   1.00800           0
      2213 MEMB     17       POPC     H11S     HAL2     0.900000E-01   1.00800           0
      2214 MEMB     17       POPC     C212     CTL2    -0.180000       12.0110           0
      2215 MEMB     17       POPC     H12R     HAL2     0.900000E-01   1.00800           0
      2216 MEMB     17       POPC     H12S     HAL2     0.900000E-01   1.00800           0
      2217 MEMB     17       POPC     C213     CTL2    -0.180000       12.0110           0
      2218 MEMB     17       POPC     H13R     HAL2     0.900000E-01   1.00800           0
      2219 MEMB     17       POPC     H13S     HAL2     0.900000E-01   1.00800           0
      2220 MEMB     17       POPC     C214     CTL2    -0.180000       12.0110           0
      2221 MEMB     17       POPC     H14R     HAL2     0.900000E-01   1.00800           0
      2222 MEMB     17       POPC     H14S     HAL2     0.900000E-01   1.00800           0
      2223 MEMB     17       POPC     C215     CTL2    -0.180000       12.0110           0
      2224 MEMB     17       POPC     H15R     HAL2     0.900000E-01   1.00800           0
      2225 MEMB     17       POPC     H15S     HAL2     0.900000E-01   1.00800           0
      2226 MEMB     17       POPC     C216     CTL2    -0.180000       12.0110           0
      2227 MEMB     17       POPC     H16R     HAL2     0.900000E-01   1.00800           0
      2228 MEMB     17       POPC     H16S     HAL2     0.900000E-01   1.00800           0
      2229 MEMB     17       POPC     C217     CTL2    -0.180000       12.0110           0
      2230 MEMB     17       POPC     H17R     HAL2     0.900000E-01   1.00800           0
      2231 MEMB     17       POPC     H17S     HAL2     0.900000E-01   1.00800           0
      2232 MEMB     17       POPC     C218     CTL3    -0.270000       12.0110           0
      2233 MEMB     17       POPC     H18R     HAL3     0.900000E-01   1.00800           0
      2234 MEMB     17       POPC     H18S     HAL3     0.900000E-01   1.00800           0
      2235 MEMB     17       POPC     H18T     HAL3     0.900000E-01   1.00800           0
      2236 MEMB     17       POPC     C33      CTL2    -0.180000       12.0110           0
      2237 MEMB     17       POPC     H3X      HAL2     0.900000E-01   1.00800           0
      2238 MEMB     17       POPC     H3Y      HAL2     0.900000E-01   1.00800           0
      2239 MEMB     17       POPC     C34      CTL2    -0.180000       12.0110           0
      2240 MEMB     17       POPC     H4X      HAL2     0.900000E-01   1.00800           0
      2241 MEMB     17       POPC     H4Y      HAL2     0.900000E-01   1.00800           0
      2242 MEMB     17       POPC     C35      CTL2    -0.180000       12.0110           0
      2243 MEMB     17       POPC     H5X      HAL2     0.900000E-01   1.00800           0
      2244 MEMB     17       POPC     H5Y      HAL2     0.900000E-01   1.00800           0
      2245 MEMB     17       POPC     C36      CTL2    -0.180000       12.0110           0
      2246 MEMB     17       POPC     H6X      HAL2     0.900000E-01   1.00800           0
      2247 MEMB     17       POPC     H6Y      HAL2     0.900000E-01   1.00800           0
      2248 MEMB     17       POPC     C37      CTL2    -0.180000       12.0110           0
      2249 MEMB     17       POPC     H7X      HAL2     0.900000E-01   1.00800           0
      2250 MEMB     17       POPC     H7Y      HAL2     0.900000E-01   1.00800           0
      2251 MEMB     17       POPC     C38      CTL2    -0.180000       12.0110           0
      2252 MEMB     17       POPC     H8X      HAL2     0.900000E-01   1.00800           0
      2253 MEMB     17       POPC     H8Y      HAL2     0.900000E-01   1.00800           0
      2254 MEMB     17       POPC     C39      CTL2    -0.180000       12.0110           0
      2255 MEMB     17       POPC     H9X      HAL2     0.900000E-01   1.00800           0
      2256 MEMB     17       POPC     H9Y      HAL2     0.900000E-01   1.00800           0
      2257 MEMB     17       POPC     C310     CTL2    -0.180000       12.0110           0
      2258 MEMB     17       POPC     H10X     HAL2     0.900000E-01   1.00800           0
      2259 MEMB     17       POPC     H10Y     HAL2     0.900000E-01   1.00800           0
      2260 MEMB     17       POPC     C311     CTL2    -0.180000       12.0110           0
      2261 MEMB     17       POPC     H11X     HAL2     0.900000E-01   1.00800           0
      2262 MEMB     17       POPC     H11Y     HAL2     0.900000E-01   1.00800           0
      2263 MEMB     17       POPC     C312     CTL2    -0.180000       12.0110           0
      2264 MEMB     17       POPC     H12X     HAL2     0.900000E-01   1.00800           0
      2265 MEMB     17       POPC     H12Y     HAL2     0.900000E-01   1.00800           0
      2266 MEMB     17       POPC     C313     CTL2    -0.180000       12.0110           0
      2267 MEMB     17       POPC     H13X     HAL2     0.900000E-01   1.00800           0
      2268 MEMB     17       POPC     H13Y     HAL2     0.900000E-01   1.00800           0
      2269 MEMB     17       POPC     C314     CTL2    -0.180000       12.0110           0
      2270 MEMB     17       POPC     H14X     HAL2     0.900000E-01   1.00800           0
      2271 MEMB     17       POPC     H14Y     HAL2     0.900000E-01   1.00800           0
      2272 MEMB     17       POPC     C315     CTL2    -0.180000       12.0110           0
      2273 MEMB     17       POPC     H15X     HAL2     0.900000E-01   1.00800           0
      2274 MEMB     17       POPC     H15Y     HAL2     0.900000E-01   1.00800           0
      2275 MEMB     17       POPC     C316     CTL3    -0.270000       12.0110           0
      2276 MEMB     17       POPC     H16X     HAL3     0.900000E-01   1.00800           0
      2277 MEMB     17       POPC     H16Y     HAL3     0.900000E-01   1.00800           0
      2278 MEMB     17       POPC     H16Z     HAL3     0.900000E-01   1.00800           0
      2279 MEMB     18       POPC     N        NTL     -0.600000       14.0070           0
      2280 MEMB     18       POPC     C12      CTL2    -0.100000       12.0110           0
      2281 MEMB     18       POPC     H12A     HL       0.250000       1.00800           0
      2282 MEMB     18       POPC     H12B     HL       0.250000       1.00800           0
      2283 MEMB     18       POPC     C13      CTL5    -0.350000       12.0110           0
      2284 MEMB     18       POPC     H13A     HL       0.250000       1.00800           0
      2285 MEMB     18       POPC     H13B     HL       0.250000       1.00800           0
      2286 MEMB     18       POPC     H13C     HL       0.250000       1.00800           0
      2287 MEMB     18       POPC     C14      CTL5    -0.350000       12.0110           0
      2288 MEMB     18       POPC     H14A     HL       0.250000       1.00800           0
      2289 MEMB     18       POPC     H14B     HL       0.250000       1.00800           0
      2290 MEMB     18       POPC     H14C     HL       0.250000       1.00800           0
      2291 MEMB     18       POPC     C15      CTL5    -0.350000       12.0110           0
      2292 MEMB     18       POPC     H15A     HL       0.250000       1.00800           0
      2293 MEMB     18       POPC     H15B     HL       0.250000       1.00800           0
      2294 MEMB     18       POPC     H15C     HL       0.250000       1.00800           0
      2295 MEMB     18       POPC     C11      CTL2    -0.800000E-01   12.0110           0
      2296 MEMB     18       POPC     H11A     HAL2     0.900000E-01   1.00800           0
      2297 MEMB     18       POPC     H11B     HAL2     0.900000E-01   1.00800           0
      2298 MEMB     18       POPC     P        PL       1.500000       30.9740           0
      2299 MEMB     18       POPC     O13      O2L     -0.780000       15.9994           0
      2300 MEMB     18       POPC     O14      O2L     -0.780000       15.9994           0
      2301 MEMB     18       POPC     O12      OSLP    -0.570000       15.9994           0
      2302 MEMB     18       POPC     O11      OSLP    -0.570000       15.9994           0
      2303 MEMB     18       POPC     C1       CTL2    -0.800000E-01   12.0110           0
      2304 MEMB     18       POPC     HA       HAL2     0.900000E-01   1.00800           0
      2305 MEMB     18       POPC     HB       HAL2     0.900000E-01   1.00800           0
      2306 MEMB     18       POPC     C2       CTL1     0.170000       12.0110           0
      2307 MEMB     18       POPC     HS       HAL1     0.900000E-01   1.00800           0
      2308 MEMB     18       POPC     O21      OSL     -0.490000       15.9994           0
      2309 MEMB     18       POPC     C21      CL       0.900000       12.0110           0
      2310 MEMB     18       POPC     O22      OBL     -0.630000       15.9994           0
      2311 MEMB     18       POPC     C22      CTL2    -0.220000       12.0110           0
      2312 MEMB     18       POPC     H2R      HAL2     0.900000E-01   1.00800           0
      2313 MEMB     18       POPC     H2S      HAL2     0.900000E-01   1.00800           0
      2314 MEMB     18       POPC     C3       CTL2     0.800000E-01   12.0110           0
      2315 MEMB     18       POPC     HX       HAL2     0.900000E-01   1.00800           0
      2316 MEMB     18       POPC     HY       HAL2     0.900000E-01   1.00800           0
      2317 MEMB     18       POPC     O31      OSL     -0.490000       15.9994           0
      2318 MEMB     18       POPC     C31      CL       0.900000       12.0110           0
      2319 MEMB     18       POPC     O32      OBL     -0.630000       15.9994           0
      2320 MEMB     18       POPC     C32      CTL2    -0.220000       12.0110           0
      2321 MEMB     18       POPC     H2X      HAL2     0.900000E-01   1.00800           0
      2322 MEMB     18       POPC     H2Y      HAL2     0.900000E-01   1.00800           0
      2323 MEMB     18       POPC     C23      CTL2    -0.180000       12.0110           0
      2324 MEMB     18       POPC     H3R      HAL2     0.900000E-01   1.00800           0
      2325 MEMB     18       POPC     H3S      HAL2     0.900000E-01   1.00800           0
      2326 MEMB     18       POPC     C24      CTL2    -0.180000       12.0110           0
      2327 MEMB     18       POPC     H4R      HAL2     0.900000E-01   1.00800           0
      2328 MEMB     18       POPC     H4S      HAL2     0.900000E-01   1.00800           0
      2329 MEMB     18       POPC     C25      CTL2    -0.180000       12.0110           0
      2330 MEMB     18       POPC     H5R      HAL2     0.900000E-01   1.00800           0
      2331 MEMB     18       POPC     H5S      HAL2     0.900000E-01   1.00800           0
      2332 MEMB     18       POPC     C26      CTL2    -0.180000       12.0110           0
      2333 MEMB     18       POPC     H6R      HAL2     0.900000E-01   1.00800           0
      2334 MEMB     18       POPC     H6S      HAL2     0.900000E-01   1.00800           0
      2335 MEMB     18       POPC     C27      CTL2    -0.180000       12.0110           0
      2336 MEMB     18       POPC     H7R      HAL2     0.900000E-01   1.00800           0
      2337 MEMB     18       POPC     H7S      HAL2     0.900000E-01   1.00800           0
      2338 MEMB     18       POPC     C28      CTL2    -0.180000       12.0110           0
      2339 MEMB     18       POPC     H8R      HAL2     0.900000E-01   1.00800           0
      2340 MEMB     18       POPC     H8S      HAL2     0.900000E-01   1.00800           0
      2341 MEMB     18       POPC     C29      CEL1    -0.150000       12.0110           0
      2342 MEMB     18       POPC     H91      HEL1     0.150000       1.00800           0
      2343 MEMB     18       POPC     C210     CEL1    -0.150000       12.0110           0
      2344 MEMB     18       POPC     H101     HEL1     0.150000       1.00800           0
      2345 MEMB     18       POPC     C211     CTL2    -0.180000       12.0110           0
      2346 MEMB     18       POPC     H11R     HAL2     0.900000E-01   1.00800           0
      2347 MEMB     18       POPC     H11S     HAL2     0.900000E-01   1.00800           0
      2348 MEMB     18       POPC     C212     CTL2    -0.180000       12.0110           0
      2349 MEMB     18       POPC     H12R     HAL2     0.900000E-01   1.00800           0
      2350 MEMB     18       POPC     H12S     HAL2     0.900000E-01   1.00800           0
      2351 MEMB     18       POPC     C213     CTL2    -0.180000       12.0110           0
      2352 MEMB     18       POPC     H13R     HAL2     0.900000E-01   1.00800           0
      2353 MEMB     18       POPC     H13S     HAL2     0.900000E-01   1.00800           0
      2354 MEMB     18       POPC     C214     CTL2    -0.180000       12.0110           0
      2355 MEMB     18       POPC     H14R     HAL2     0.900000E-01   1.00800           0
      2356 MEMB     18       POPC     H14S     HAL2     0.900000E-01   1.00800           0
      2357 MEMB     18       POPC     C215     CTL2    -0.180000       12.0110           0
      2358 MEMB     18       POPC     H15R     HAL2     0.900000E-01   1.00800           0
      2359 MEMB     18       POPC     H15S     HAL2     0.900000E-01   1.00800           0
      2360 MEMB     18       POPC     C216     CTL2    -0.180000       12.0110           0
      2361 MEMB     18       POPC     H16R     HAL2     0.900000E-01   1.00800           0
      2362 MEMB     18       POPC     H16S     HAL2     0.900000E-01   1.00800           0
      2363 MEMB     18       POPC     C217     CTL2    -0.180000       12.0110           0
      2364 MEMB     18       POPC     H17R     HAL2     0.900000E-01   1.00800           0
      2365 MEMB     18       POPC     H17S     HAL2     0.900000E-01   1.00800           0
      2366 MEMB     18       POPC     C218     CTL3    -0.270000       12.0110           0
      2367 MEMB     18       POPC     H18R     HAL3     0.900000E-01   1.00800           0
      2368 MEMB     18       POPC     H18S     HAL3     0.900000E-01   1.00800           0
      2369 MEMB     18       POPC     H18T     HAL3     0.900000E-01   1.00800           0
      2370 MEMB     18       POPC     C33      CTL2    -0.180000       12.0110           0
      2371 MEMB     18       POPC     H3X      HAL2     0.900000E-01   1.00800           0
      2372 MEMB     18       POPC     H3Y      HAL2     0.900000E-01   1.00800           0
      2373 MEMB     18       POPC     C34      CTL2    -0.180000       12.0110           0
      2374 MEMB     18       POPC     H4X      HAL2     0.900000E-01   1.00800           0
      2375 MEMB     18       POPC     H4Y      HAL2     0.900000E-01   1.00800           0
      2376 MEMB     18       POPC     C35      CTL2    -0.180000       12.0110           0
      2377 MEMB     18       POPC     H5X      HAL2     0.900000E-01   1.00800           0
      2378 MEMB     18       POPC     H5Y      HAL2     0.900000E-01   1.00800           0
      2379 MEMB     18       POPC     C36      CTL2    -0.180000       12.0110           0
      2380 MEMB     18       POPC     H6X      HAL2     0.900000E-01   1.00800           0
      2381 MEMB     18       POPC     H6Y      HAL2     0.900000E-01   1.00800           0
      2382 MEMB     18       POPC     C37      CTL2    -0.180000       12.0110           0
      2383 MEMB     18       POPC     H7X      HAL2     0.900000E-01   1.00800           0
      2384 MEMB     18       POPC     H7Y      HAL2     0.900000E-01   1.00800           0
      2385 MEMB     18       POPC     C38      CTL2    -0.180000       12.0110           0
      2386 MEMB     18       POPC     H8X      HAL2     0.900000E-01   1.00800           0
      2387 MEMB     18       POPC     H8Y      HAL2     0.900000E-01   1.00800           0
      2388 MEMB     18       POPC     C39      CTL2    -0.180000       12.0110           0
      2389 MEMB     18       POPC     H9X      HAL2     0.900000E-01   1.00800           0
      2390 MEMB     18       POPC     H9Y      HAL2     0.900000E-01   1.00800           0
      2391 MEMB     18       POPC     C310     CTL2    -0.180000       12.0110           0
      2392 MEMB     18       POPC     H10X     HAL2     0.900000E-01   1.00800           0
      2393 MEMB     18       POPC     H10Y     HAL2     0.900000E-01   1.00800           0
      2394 MEMB     18       POPC     C311     CTL2    -0.180000       12.0110           0
      2395 MEMB     18       POPC     H11X     HAL2     0.900000E-01   1.00800           0
      2396 MEMB     18       POPC     H11Y     HAL2     0.900000E-01   1.00800           0
      2397 MEMB     18       POPC     C312     CTL2    -0.180000       12.0110           0
      2398 MEMB     18       POPC     H12X     HAL2     0.900000E-01   1.00800           0
      2399 MEMB     18       POPC     H12Y     HAL2     0.900000E-01   1.00800           0
      2400 MEMB     18       POPC     C313     CTL2    -0.180000       12.0110           0
      2401 MEMB     18       POPC     H13X     HAL2     0.900000E-01   1.00800           0
      2402 MEMB     18       POPC     H13Y     HAL2     0.900000E-01   1.00800           0
      2403 MEMB     18       POPC     C314     CTL2    -0.180000       12.0110           0
      2404 MEMB     18       POPC     H14X     HAL2     0.900000E-01   1.00800           0
      2405 MEMB     18       POPC     H14Y     HAL2     0.900000E-01   1.00800           0
      2406 MEMB     18       POPC     C315     CTL2    -0.180000       12.0110           0
      2407 MEMB     18       POPC     H15X     HAL2     0.900000E-01   1.00800           0
      2408 MEMB     18       POPC     H15Y     HAL2     0.900000E-01   1.00800           0
      2409 MEMB     18       POPC     C316     CTL3    -0.270000       12.0110           0
      2410 MEMB     18       POPC     H16X     HAL3     0.900000E-01   1.00800           0
      2411 MEMB     18       POPC     H16Y     HAL3     0.900000E-01   1.00800           0
      2412 MEMB     18       POPC     H16Z     HAL3     0.900000E-01   1.00800           0
      2413 MEMB     19       POPC     N        NTL     -0.600000       14.0070           0
      2414 MEMB     19       POPC     C12      CTL2    -0.100000       12.0110           0
      2415 MEMB     19       POPC     H12A     HL       0.250000       1.00800           0
      2416 MEMB     19       POPC     H12B     HL       0.250000       1.00800           0
      2417 MEMB     19       POPC     C13      CTL5    -0.350000       12.0110           0
      2418 MEMB     19       POPC     H13A     HL       0.250000       1.00800           0
      2419 MEMB     19       POPC     H13B     HL       0.250000       1.00800           0
      2420 MEMB     19       POPC     H13C     HL       0.250000       1.00800           0
      2421 MEMB     19       POPC     C14      CTL5    -0.350000       12.0110           0
      2422 MEMB     19       POPC     H14A     HL       0.250000       1.00800           0
      2423 MEMB     19       POPC     H14B     HL       0.250000       1.00800           0
      2424 MEMB     19       POPC     H14C     HL       0.250000       1.00800           0
      2425 MEMB     19       POPC     C15      CTL5    -0.350000       12.0110           0
      2426 MEMB     19       POPC     H15A     HL       0.250000       1.00800           0
      2427 MEMB     19       POPC     H15B     HL       0.250000       1.00800           0
      2428 MEMB     19       POPC     H15C     HL       0.250000       1.00800           0
      2429 MEMB     19       POPC     C11      CTL2    -0.800000E-01   12.0110           0
      2430 MEMB     19       POPC     H11A     HAL2     0.900000E-01   1.00800           0
      2431 MEMB     19       POPC     H11B     HAL2     0.900000E-01   1.00800           0
      2432 MEMB     19       POPC     P        PL       1.500000       30.9740           0
      2433 MEMB     19       POPC     O13      O2L     -0.780000       15.9994           0
      2434 MEMB     19       POPC     O14      O2L     -0.780000       15.9994           0
      2435 MEMB     19       POPC     O12      OSLP    -0.570000       15.9994           0
      2436 MEMB     19       POPC     O11      OSLP    -0.570000       15.9994           0
      2437 MEMB     19       POPC     C1       CTL2    -0.800000E-01   12.0110           0
      2438 MEMB     19       POPC     HA       HAL2     0.900000E-01   1.00800           0
      2439 MEMB     19       POPC     HB       HAL2     0.900000E-01   1.00800           0
      2440 MEMB     19       POPC     C2       CTL1     0.170000       12.0110           0
      2441 MEMB     19       POPC     HS       HAL1     0.900000E-01   1.00800           0
      2442 MEMB     19       POPC     O21      OSL     -0.490000       15.9994           0
      2443 MEMB     19       POPC     C21      CL       0.900000       12.0110           0
      2444 MEMB     19       POPC     O22      OBL     -0.630000       15.9994           0
      2445 MEMB     19       POPC     C22      CTL2    -0.220000       12.0110           0
      2446 MEMB     19       POPC     H2R      HAL2     0.900000E-01   1.00800           0
      2447 MEMB     19       POPC     H2S      HAL2     0.900000E-01   1.00800           0
      2448 MEMB     19       POPC     C3       CTL2     0.800000E-01   12.0110           0
      2449 MEMB     19       POPC     HX       HAL2     0.900000E-01   1.00800           0
      2450 MEMB     19       POPC     HY       HAL2     0.900000E-01   1.00800           0
      2451 MEMB     19       POPC     O31      OSL     -0.490000       15.9994           0
      2452 MEMB     19       POPC     C31      CL       0.900000       12.0110           0
      2453 MEMB     19       POPC     O32      OBL     -0.630000       15.9994           0
      2454 MEMB     19       POPC     C32      CTL2    -0.220000       12.0110           0
      2455 MEMB     19       POPC     H2X      HAL2     0.900000E-01   1.00800           0
      2456 MEMB     19       POPC     H2Y      HAL2     0.900000E-01   1.00800           0
      2457 MEMB     19       POPC     C23      CTL2    -0.180000       12.0110           0
      2458 MEMB     19       POPC     H3R      HAL2     0.900000E-01   1.00800           0
      2459 MEMB     19       POPC     H3S      HAL2     0.900000E-01   1.00800           0
      2460 MEMB     19       POPC     C24      CTL2    -0.180000       12.0110           0
      2461 MEMB     19       POPC     H4R      HAL2     0.900000E-01   1.00800           0
      2462 MEMB     19       POPC     H4S      HAL2     0.900000E-01   1.00800           0
      2463 MEMB     19       POPC     C25      CTL2    -0.180000       12.0110           0
      2464 MEMB     19       POPC     H5R      HAL2     0.900000E-01   1.00800           0
      2465 MEMB     19       POPC     H5S      HAL2     0.900000E-01   1.00800           0
      2466 MEMB     19       POPC     C26      CTL2    -0.180000       12.0110           0
      2467 MEMB     19       POPC     H6R      HAL2     0.900000E-01   1.00800           0
      2468 MEMB     19       POPC     H6S      HAL2     0.900000E-01   1.00800           0
      2469 MEMB     19       POPC     C27      CTL2    -0.180000       12.0110           0
      2470 MEMB     19       POPC     H7R      HAL2     0.900000E-01   1.00800           0
      2471 MEMB     19       POPC     H7S      HAL2     0.900000E-01   1.00800           0
      2472 MEMB     19       POPC     C28      CTL2    -0.180000       12.0110           0
      2473 MEMB     19       POPC     H8R      HAL2     0.900000E-01   1.00800           0
      2474 MEMB     19       POPC     H8S      HAL2     0.900000E-01   1.00800           0
      2475 MEMB     19       POPC     C29      CEL1    -0.150000       12.0110           0
      2476 MEMB     19       POPC     H91      HEL1     0.150000       1.00800           0
      2477 MEMB     19       POPC     C210     CEL1    -0.150000       12.0110           0
      2478 MEMB     19       POPC     H101     HEL1     0.150000       1.00800           0
      2479 MEMB     19       POPC     C211     CTL2    -0.180000       12.0110           0
      2480 MEMB     19       POPC     H11R     HAL2     0.900000E-01   1.00800           0
      2481 MEMB     19       POPC     H11S     HAL2     0.900000E-01   1.00800           0
      2482 MEMB     19       POPC     C212     CTL2    -0.180000       12.0110           0
      2483 MEMB     19       POPC     H12R     HAL2     0.900000E-01   1.00800           0
      2484 MEMB     19       POPC     H12S     HAL2     0.900000E-01   1.00800           0
      2485 MEMB     19       POPC     C213     CTL2    -0.180000       12.0110           0
      2486 MEMB     19       POPC     H13R     HAL2     0.900000E-01   1.00800           0
      2487 MEMB     19       POPC     H13S     HAL2     0.900000E-01   1.00800           0
      2488 MEMB     19       POPC     C214     CTL2    -0.180000       12.0110           0
      2489 MEMB     19       POPC     H14R     HAL2     0.900000E-01   1.00800           0
      2490 MEMB     19       POPC     H14S     HAL2     0.900000E-01   1.00800           0
      2491 MEMB     19       POPC     C215     CTL2    -0.180000       12.0110           0
      2492 MEMB     19       POPC     H15R     HAL2     0.900000E-01   1.00800           0
      2493 MEMB     19       POPC     H15S     HAL2     0.900000E-01   1.00800           0
      2494 MEMB     19       POPC     C216     CTL2    -0.180000       12.0110           0
      2495 MEMB     19       POPC     H16R     HAL2     0.900000E-01   1.00800           0
      2496 MEMB     19       POPC     H16S     HAL2     0.900000E-01   1.00800           0
      2497 MEMB     19       POPC     C217     CTL2    -0.180000       12.0110           0
      2498 MEMB     19       POPC     H17R     HAL2     0.900000E-01   1.00800           0
      2499 MEMB     19       POPC     H17S     HAL2     0.900000E-01   1.00800           0
      2500 MEMB     19       POPC     C218     CTL3    -0.270000       12.0110           0
      2501 MEMB     19       POPC     H18R     HAL3     0.900000E-01   1.00800           0
      2502 MEMB     19       POPC     H18S     HAL3     0.900000E-01   1.00800           0
      2503 MEMB     19       POPC     H18T     HAL3     0.900000E-01   1.00800           0
      2504 MEMB     19       POPC     C33      CTL2    -0.180000       12.0110           0
      2505 MEMB     19       POPC     H3X      HAL2     0.900000E-01   1.00800           0
      2506 MEMB     19       POPC     H3Y      HAL2     0.900000E-01   1.00800           0
      2507 MEMB     19       POPC     C34      CTL2    -0.180000       12.0110           0
      2508 MEMB     19       POPC     H4X      HAL2     0.900000E-01   1.00800           0
      2509 MEMB     19       POPC     H4Y      HAL2     0.900000E-01   1.00800           0
      2510 MEMB     19       POPC     C35      CTL2    -0.180000       12.0110           0
      2511 MEMB     19       POPC     H5X      HAL2     0.900000E-01   1.00800           0
      2512 MEMB     19       POPC     H5Y      HAL2     0.900000E-01   1.00800           0
      2513 MEMB     19       POPC     C36      CTL2    -0.180000       12.0110           0
      2514 MEMB     19       POPC     H6X      HAL2     0.900000E-01   1.00800           0
      2515 MEMB     19       POPC     H6Y      HAL2     0.900000E-01   1.00800           0
      2516 MEMB     19       POPC     C37      CTL2    -0.180000       12.0110           0
      2517 MEMB     19       POPC     H7X      HAL2     0.900000E-01   1.00800           0
      2518 MEMB     19       POPC     H7Y      HAL2     0.900000E-01   1.00800           0
      2519 MEMB     19       POPC     C38      CTL2    -0.180000       12.0110           0
      2520 MEMB     19       POPC     H8X      HAL2     0.900000E-01   1.00800           0
      2521 MEMB     19       POPC     H8Y      HAL2     0.900000E-01   1.00800           0
      2522 MEMB     19       POPC     C39      CTL2    -0.180000       12.0110           0
      2523 MEMB     19       POPC     H9X      HAL2     0.900000E-01   1.00800           0
      2524 MEMB     19       POPC     H9Y      HAL2     0.900000E-01   1.00800           0
      2525 MEMB     19       POPC     C310     CTL2    -0.180000       12.0110           0
      2526 MEMB     19       POPC     H10X     HAL2     0.900000E-01   1.00800           0
      2527 MEMB     19       POPC     H10Y     HAL2     0.900000E-01   1.00800           0
      2528 MEMB     19       POPC     C311     CTL2    -0.180000       12.0110           0
      2529 MEMB     19       POPC     H11X     HAL2     0.900000E-01   1.00800           0
      2530 MEMB     19       POPC     H11Y     HAL2     0.900000E-01   1.00800           0
      2531 MEMB     19       POPC     C312     CTL2    -0.180000       12.0110           0
      2532 MEMB     19       POPC     H12X     HAL2     0.900000E-01   1.00800           0
      2533 MEMB     19       POPC     H12Y     HAL2     0.900000E-01   1.00800           0
      2534 MEMB     19       POPC     C313     CTL2    -0.180000       12.0110           0
      2535 MEMB     19       POPC     H13X     HAL2     0.900000E-01   1.00800           0
      2536 MEMB     19       POPC     H13Y     HAL2     0.900000E-01   1.00800           0
      2537 MEMB     19       POPC     C314     CTL2    -0.180000       12.0110           0
      2538 MEMB     19       POPC     H14X     HAL2     0.900000E-01   1.00800           0
      2539 MEMB     19       POPC     H14Y     HAL2     0.900000E-01   1.00800           0
      2540 MEMB     19       POPC     C315     CTL2    -0.180000       12.0110           0
      2541 MEMB     19       POPC     H15X     HAL2     0.900000E-01   1.00800           0
      2542 MEMB     19       POPC     H15Y     HAL2     0.900000E-01   1.00800           0
      2543 MEMB     19       POPC     C316     CTL3    -0.270000       12.0110           0
      2544 MEMB     19       POPC     H16X     HAL3     0.900000E-01   1.00800           0
      2545 MEMB     19       POPC     H16Y     HAL3     0.900000E-01   1.00800           0
      2546 MEMB     19       POPC     H16Z     HAL3     0.900000E-01   1.00800           0
      2547 MEMB     20       POPC     N        NTL     -0.600000       14.0070           0
      2548 MEMB     20       POPC     C12      CTL2    -0.100000       12.0110           0
      2549 MEMB     20       POPC     H12A     HL       0.250000       1.00800           0
      2550 MEMB     20       POPC     H12B     HL       0.250000       1.00800           0
      2551 MEMB     20       POPC     C13      CTL5    -0.350000       12.0110           0
      2552 MEMB     20       POPC     H13A     HL       0.250000       1.00800           0
      2553 MEMB     20       POPC     H13B     HL       0.250000       1.00800           0
      2554 MEMB     20       POPC     H13C     HL       0.250000       1.00800           0
      2555 MEMB     20       POPC     C14      CTL5    -0.350000       12.0110           0
      2556 MEMB     20       POPC     H14A     HL       0.250000       1.00800           0
      2557 MEMB     20       POPC     H14B     HL       0.250000       1.00800           0
      2558 MEMB     20       POPC     H14C     HL       0.250000       1.00800           0
      2559 MEMB     20       POPC     C15      CTL5    -0.350000       12.0110           0
      2560 MEMB     20       POPC     H15A     HL       0.250000       1.00800           0
      2561 MEMB     20       POPC     H15B     HL       0.250000       1.00800           0
      2562 MEMB     20       POPC     H15C     HL       0.250000       1.00800           0
      2563 MEMB     20       POPC     C11      CTL2    -0.800000E-01   12.0110           0
      2564 MEMB     20       POPC     H11A     HAL2     0.900000E-01   1.00800           0
      2565 MEMB     20       POPC     H11B     HAL2     0.900000E-01   1.00800           0
      2566 MEMB     20       POPC     P        PL       1.500000       30.9740           0
      2567 MEMB     20       POPC     O13      O2L     -0.780000       15.9994           0
      2568 MEMB     20       POPC     O14      O2L     -0.780000       15.9994           0
      2569 MEMB     20       POPC     O12      OSLP    -0.570000       15.9994           0
      2570 MEMB     20       POPC     O11      OSLP    -0.570000       15.9994           0
      2571 MEMB     20       POPC     C1       CTL2    -0.800000E-01   12.0110           0
      2572 MEMB     20       POPC     HA       HAL2     0.900000E-01   1.00800           0
      2573 MEMB     20       POPC     HB       HAL2     0.900000E-01   1.00800           0
      2574 MEMB     20       POPC     C2       CTL1     0.170000       12.0110           0
      2575 MEMB     20       POPC     HS       HAL1     0.900000E-01   1.00800           0
      2576 MEMB     20       POPC     O21      OSL     -0.490000       15.9994           0
      2577 MEMB     20       POPC     C21      CL       0.900000       12.0110           0
      2578 MEMB     20       POPC     O22      OBL     -0.630000       15.9994           0
      2579 MEMB     20       POPC     C22      CTL2    -0.220000       12.0110           0
      2580 MEMB     20       POPC     H2R      HAL2     0.900000E-01   1.00800           0
      2581 MEMB     20       POPC     H2S      HAL2     0.900000E-01   1.00800           0
      2582 MEMB     20       POPC     C3       CTL2     0.800000E-01   12.0110           0
      2583 MEMB     20       POPC     HX       HAL2     0.900000E-01   1.00800           0
      2584 MEMB     20       POPC     HY       HAL2     0.900000E-01   1.00800           0
      2585 MEMB     20       POPC     O31      OSL     -0.490000       15.9994           0
      2586 MEMB     20       POPC     C31      CL       0.900000       12.0110           0
      2587 MEMB     20       POPC     O32      OBL     -0.630000       15.9994           0
      2588 MEMB     20       POPC     C32      CTL2    -0.220000       12.0110           0
      2589 MEMB     20       POPC     H2X      HAL2     0.900000E-01   1.00800           0
      2590 MEMB     20       POPC     H2Y      HAL2     0.900000E-01   1.00800           0
      2591 MEMB     20       POPC     C23      CTL2    -0.180000       12.0110           0
      2592 MEMB     20       POPC     H3R      HAL2     0.900000E-01   1.00800           0
      2593 MEMB     20       POPC     H3S      HAL2     0.900000E-01   1.00800           0
      2594 MEMB     20       POPC     C24      CTL2    -0.180000       12.0110           0
      2595 MEMB     20       POPC     H4R      HAL2     0.900000E-01   1.00800           0
      2596 MEMB     20       POPC     H4S      HAL2     0.900000E-01   1.00800           0
      2597 MEMB     20       POPC     C25      CTL2    -0.180000       12.0110           0
      2598 MEMB     20       POPC     H5R      HAL2     0.900000E-01   1.00800           0
      2599 MEMB     20       POPC     H5S      HAL2     0.900000E-01   1.00800           0
      2600 MEMB     20       POPC     C26      CTL2    -0.180000       12.0110           0
      2601 MEMB     20       POPC     H6R      HAL2     0.900000E-01   1.00800           0
      2602 MEMB     20       POPC     H6S      HAL2     0.900000E-01   1.00800           0
      2603 MEMB     20       POPC     C27      CTL2    -0.180000       12.0110           0
      2604 MEMB     20       POPC     H7R      HAL2     0.900000E-01   1.00800           0
      2605 MEMB     20       POPC     H7S      HAL2     0.900000E-01   1.00800           0
      2606 MEMB     20       POPC     C28      CTL2    -0.180000       12.0110           0
      2607 MEMB     20       POPC     H8R      HAL2     0.900000E-01   1.00800           0
      2608 MEMB     20       POPC     H8S      HAL2     0.900000E-01   1.00800           0
      2609 MEMB     20       POPC     C29      CEL1    -0.150000       12.0110           0
      2610 MEMB     20       POPC     H91      HEL1     0.150000       1.00800           0
      2611 MEMB     20       POPC     C210     CEL1    -0.150000       12.0110           0
      2612 MEMB     20       POPC     H101     HEL1     0.150000       1.00800           0
      2613 MEMB     20       POPC     C211     CTL2    -0.180000       12.0110           0
      2614 MEMB     20       POPC     H11R     HAL2     0.900000E-01   1.00800           0
      2615 MEMB     20       POPC     H11S     HAL2     0.900000E-01   1.00800           0
      2616 MEMB     20       POPC     C212     CTL2    -0.180000       12.0110           0
      2617 MEMB     20       POPC     H12R     HAL2     0.900000E-01   1.00800           0
      2618 MEMB     20       POPC     H12S     HAL2     0.900000E-01   1.00800           0
      2619 MEMB     20       POPC     C213     CTL2    -0.180000       12.0110           0
      2620 MEMB     20       POPC     H13R     HAL2     0.900000E-01   1.00800           0
      2621 MEMB     20       POPC     H13S     HAL2     0.900000E-01   1.00800           0
      2622 MEMB     20       POPC     C214     CTL2    -0.180000       12.0110           0
      2623 MEMB     20       POPC     H14R     HAL2     0.900000E-01   1.00800           0
      2624 MEMB     20       POPC     H14S     HAL2     0.900000E-01   1.00800           0
      2625 MEMB     20       POPC     C215     CTL2    -0.180000       12.0110           0
      2626 MEMB     20       POPC     H15R     HAL2     0.900000E-01   1.00800           0
      2627 MEMB     20       POPC     H15S     HAL2     0.900000E-01   1.00800           0
      2628 MEMB     20       POPC     C216     CTL2    -0.180000       12.0110           0
      2629 MEMB     20       POPC     H16R     HAL2     0.900000E-01   1.00800           0
      2630 MEMB     20       POPC     H16S     HAL2     0.900000E-01   1.00800           0
      2631 MEMB     20       POPC     C217     CTL2    -0.180000       12.0110           0
      2632 MEMB     20       POPC     H17R     HAL2     0.900000E-01   1.00800           0
      2633 MEMB     20       POPC     H17S     HAL2     0.900000E-01   1.00800           0
      2634 MEMB     20       POPC     C218     CTL3    -0.270000       12.0110           0
      2635 MEMB     20       POPC     H18R     HAL3     0.900000E-01   1.00800           0
      2636 MEMB     20       POPC     H18S     HAL3     0.900000E-01   1.00800           0
      2637 MEMB     20       POPC     H18T     HAL3     0.900000E-01   1.00800           0
      2638 MEMB     20       POPC     C33      CTL2    -0.180000       12.0110           0
      2639 MEMB     20       POPC     H3X      HAL2     0.900000E-01   1.00800           0
      2640 MEMB     20       POPC     H3Y      HAL2     0.900000E-01   1.00800           0
      2641 MEMB     20       POPC     C34      CTL2    -0.180000       12.0110           0
      2642 MEMB     20       POPC     H4X      HAL2     0.900000E-01   1.00800           0
      2643 MEMB     20       POPC     H4Y      HAL2     0.900000E-01   1.00800           0
      2644 MEMB     20       POPC     C35      CTL2    -0.180000       12.0110           0
      2645 MEMB     20       POPC     H5X      HAL2     0.900000E-01   1.00800           0
      2646 MEMB     20       POPC     H5Y      HAL2     0.900000E-01   1.00800           0
      2647 MEMB     20       POPC     C36      CTL2    -0.180000       12.0110           0
      2648 MEMB     20       POPC     H6X      HAL2     0.900000E-01   1.00800           0
      2649 MEMB     20       POPC     H6Y      HAL2     0.900000E-01   1.00800           0
      2650 MEMB     20       POPC     C37      CTL2    -0.180000       12.0110           0
      2651 MEMB     20       POPC     H7X      HAL2     0.900000E-01   1.00800           0
      2652 MEMB     20       POPC     H7Y      HAL2     0.900000E-01   1.00800           0
      2653 MEMB     20       POPC     C38      CTL2    -0.180000       12.0110           0
      2654 MEMB     20       POPC     H8X      HAL2     0.900000E-01   1.00800           0
      2655 MEMB     20       POPC     H8Y      HAL2     0.900000E-01   1.00800           0
      2656 MEMB     20       POPC     C39      CTL2    -0.180000       12.0110           0
      2657 MEMB     20       POPC     H9X      HAL2     0.900000E-01   1.00800           0
      2658 MEMB     20       POPC     H9Y      HAL2     0.900000E-01   1.00800           0
      2659 MEMB     20       POPC     C310     CTL2    -0.180000       12.0110           0
      2660 MEMB     20       POPC     H10X     HAL2     0.900000E-01   1.00800           0
      2661 MEMB     20       POPC     H10Y     HAL2     0.900000E-01   1.00800           0
      2662 MEMB     20       POPC     C311     CTL2    -0.180000       12.0110           0
      2663 MEMB     20       POPC     H11X     HAL2     0.900000E-01   1.00800           0
      2664 MEMB     20       POPC     H11Y     HAL2     0.900000E-01   1.00800           0
      2665 MEMB     20       POPC     C312     CTL2    -0.180000       12.0110           0
      2666 MEMB     20       POPC     H12X     HAL2     0.900000E-01   1.00800           0
      2667 MEMB     20       POPC     H12Y     HAL2     0.900000E-01   1.00800           0
      2668 MEMB     20       POPC     C313     CTL2    -0.180000       12.0110           0
      2669 MEMB     20       POPC     H13X     HAL2     0.900000E-01   1.00800           0
      2670 MEMB     20       POPC     H13Y     HAL2     0.900000E-01   1.00800           0
      2671 MEMB     20       POPC     C314     CTL2    -0.180000       12.0110           0
      2672 MEMB     20       POPC     H14X     HAL2     0.900000E-01   1.00800           0
      2673 MEMB     20       POPC     H14Y     HAL2     0.900000E-01   1.00800           0
      2674 MEMB     20       POPC     C315     CTL2    -0.180000       12.0110           0
      2675 MEMB     20       POPC     H15X     HAL2     0.900000E-01   1.00800           0
      2676 MEMB     20       POPC     H15Y     HAL2     0.900000E-01   1.00800           0
      2677 MEMB     20       POPC     C316     CTL3    -0.270000       12.0110           0
      2678 MEMB     20       POPC     H16X     HAL3     0.900000E-01   1.00800           0
      2679 MEMB     20       POPC     H16Y     HAL3     0.900000E-01   1.00800           0
      2680 MEMB     20       POPC     H16Z     HAL3     0.900000E-01   1.00800           0
      2681 MEMB     21       POPC     N        NTL     -0.600000       14.0070           0
      2682 MEMB     21       POPC     C12      CTL2    -0.100000       12.0110           0
      2683 MEMB     21       POPC     H12A     HL       0.250000       1.00800           0
      2684 MEMB     21       POPC     H12B     HL       0.250000       1.00800           0
      2685 MEMB     21       POPC     C13      CTL5    -0.350000       12.0110           0
      2686 MEMB     21       POPC     H13A     HL       0.250000       1.00800           0
      2687 MEMB     21       POPC     H13B     HL       0.250000       1.00800           0
      2688 MEMB     21       POPC     H13C     HL       0.250000       1.00800           0
      2689 MEMB     21       POPC     C14      CTL5    -0.350000       12.0110           0
      2690 MEMB     21       POPC     H14A     HL       0.250000       1.00800           0
      2691 MEMB     21       POPC     H14B     HL       0.250000       1.00800           0
      2692 MEMB     21       POPC     H14C     HL       0.250000       1.00800           0
      2693 MEMB     21       POPC     C15      CTL5    -0.350000       12.0110           0
      2694 MEMB     21       POPC     H15A     HL       0.250000       1.00800           0
      2695 MEMB     21       POPC     H15B     HL       0.250000       1.00800           0
      2696 MEMB     21       POPC     H15C     HL       0.250000       1.00800           0
      2697 MEMB     21       POPC     C11      CTL2    -0.800000E-01   12.0110           0
      2698 MEMB     21       POPC     H11A     HAL2     0.900000E-01   1.00800           0
      2699 MEMB     21       POPC     H11B     HAL2     0.900000E-01   1.00800           0
      2700 MEMB     21       POPC     P        PL       1.500000       30.9740           0
      2701 MEMB     21       POPC     O13      O2L     -0.780000       15.9994           0
      2702 MEMB     21       POPC     O14      O2L     -0.780000       15.9994           0
      2703 MEMB     21       POPC     O12      OSLP    -0.570000       15.9994           0
      2704 MEMB     21       POPC     O11      OSLP    -0.570000       15.9994           0
      2705 MEMB     21       POPC     C1       CTL2    -0.800000E-01   12.0110           0
      2706 MEMB     21       POPC     HA       HAL2     0.900000E-01   1.00800           0
      2707 MEMB     21       POPC     HB       HAL2     0.900000E-01   1.00800           0
      2708 MEMB     21       POPC     C2       CTL1     0.170000       12.0110           0
      2709 MEMB     21       POPC     HS       HAL1     0.900000E-01   1.00800           0
      2710 MEMB     21       POPC     O21      OSL     -0.490000       15.9994           0
      2711 MEMB     21       POPC     C21      CL       0.900000       12.0110           0
      2712 MEMB     21       POPC     O22      OBL     -0.630000       15.9994           0
      2713 MEMB     21       POPC     C22      CTL2    -0.220000       12.0110           0
      2714 MEMB     21       POPC     H2R      HAL2     0.900000E-01   1.00800           0
      2715 MEMB     21       POPC     H2S      HAL2     0.900000E-01   1.00800           0
      2716 MEMB     21       POPC     C3       CTL2     0.800000E-01   12.0110           0
      2717 MEMB     21       POPC     HX       HAL2     0.900000E-01   1.00800           0
      2718 MEMB     21       POPC     HY       HAL2     0.900000E-01   1.00800           0
      2719 MEMB     21       POPC     O31      OSL     -0.490000       15.9994           0
      2720 MEMB     21       POPC     C31      CL       0.900000       12.0110           0
      2721 MEMB     21       POPC     O32      OBL     -0.630000       15.9994           0
      2722 MEMB     21       POPC     C32      CTL2    -0.220000       12.0110           0
      2723 MEMB     21       POPC     H2X      HAL2     0.900000E-01   1.00800           0
      2724 MEMB     21       POPC     H2Y      HAL2     0.900000E-01   1.00800           0
      2725 MEMB     21       POPC     C23      CTL2    -0.180000       12.0110           0
      2726 MEMB     21       POPC     H3R      HAL2     0.900000E-01   1.00800           0
      2727 MEMB     21       POPC     H3S      HAL2     0.900000E-01   1.00800           0
      2728 MEMB     21       POPC     C24      CTL2    -0.180000       12.0110           0
      2729 MEMB     21       POPC     H4R      HAL2     0.900000E-01   1.00800           0
      2730 MEMB     21       POPC     H4S      HAL2     0.900000E-01   1.00800           0
      2731 MEMB     21       POPC     C25      CTL2    -0.180000       12.0110           0
      2732 MEMB     21       POPC     H5R      HAL2     0.900000E-01   1.00800           0
      2733 MEMB     21       POPC     H5S      HAL2     0.900000E-01   1.00800           0
      2734 MEMB     21       POPC     C26      CTL2    -0.180000       12.0110           0
      2735 MEMB     21       POPC     H6R      HAL2     0.900000E-01   1.00800           0
      2736 MEMB     21       POPC     H6S      HAL2     0.900000E-01   1.00800           0
      2737 MEMB     21       POPC     C27      CTL2    -0.180000       12.0110           0
      2738 MEMB     21       POPC     H7R      HAL2     0.900000E-01   1.00800           0
      2739 MEMB     21       POPC     H7S      HAL2     0.900000E-01   1.00800           0
      2740 MEMB     21       POPC     C28      CTL2    -0.180000       12.0110           0
      2741 MEMB     21       POPC     H8R      HAL2     0.900000E-01   1.00800           0
      2742 MEMB     21       POPC     H8S      HAL2     0.900000E-01   1.00800           0
      2743 MEMB     21       POPC     C29      CEL1    -0.150000       12.0110           0
      2744 MEMB     21       POPC     H91      HEL1     0.150000       1.00800           0
      2745 MEMB     21       POPC     C210     CEL1    -0.150000       12.0110           0
      2746 MEMB     21       POPC     H101     HEL1     0.150000       1.00800           0
      2747 MEMB     21       POPC     C211     CTL2    -0.180000       12.0110           0
      2748 MEMB     21       POPC     H11R     HAL2     0.900000E-01   1.00800           0
      2749 MEMB     21       POPC     H11S     HAL2     0.900000E-01   1.00800           0
      2750 MEMB     21       POPC     C212     CTL2    -0.180000       12.0110           0
      2751 MEMB     21       POPC     H12R     HAL2     0.900000E-01   1.00800           0
      2752 MEMB     21       POPC     H12S     HAL2     0.900000E-01   1.00800           0
      2753 MEMB     21       POPC     C213     CTL2    -0.180000       12.0110           0
      2754 MEMB     21       POPC     H13R     HAL2     0.900000E-01   1.00800           0
      2755 MEMB     21       POPC     H13S     HAL2     0.900000E-01   1.00800           0
      2756 MEMB     21       POPC     C214     CTL2    -0.180000       12.0110           0
      2757 MEMB     21       POPC     H14R     HAL2     0.900000E-01   1.00800           0
      2758 MEMB     21       POPC     H14S     HAL2     0.900000E-01   1.00800           0
      2759 MEMB     21       POPC     C215     CTL2    -0.180000       12.0110           0
      2760 MEMB     21       POPC     H15R     HAL2     0.900000E-01   1.00800           0
      2761 MEMB     21       POPC     H15S     HAL2     0.900000E-01   1.00800           0
      2762 MEMB     21       POPC     C216     CTL2    -0.180000       12.0110           0
      2763 MEMB     21       POPC     H16R     HAL2     0.900000E-01   1.00800           0
      2764 MEMB     21       POPC     H16S     HAL2     0.900000E-01   1.00800           0
      2765 MEMB     21       POPC     C217     CTL2    -0.180000       12.0110           0
      2766 MEMB     21       POPC     H17R     HAL2     0.900000E-01   1.00800           0
      2767 MEMB     21       POPC     H17S     HAL2     0.900000E-01   1.00800           0
      2768 MEMB     21       POPC     C218     CTL3    -0.270000       12.0110           0
      2769 MEMB     21       POPC     H18R     HAL3     0.900000E-01   1.00800           0
      2770 MEMB     21       POPC     H18S     HAL3     0.900000E-01   1.00800           0
      2771 MEMB     21       POPC     H18T     HAL3     0.900000E-01   1.00800           0
      2772 MEMB     21       POPC     C33      CTL2    -0.180000       12.0110           0
      2773 MEMB     21       POPC     H3X      HAL2     0.900000E-01   1.00800           0
      2774 MEMB     21       POPC     H3Y      HAL2     0.900000E-01   1.00800           0
      2775 MEMB     21       POPC     C34      CTL2    -0.180000       12.0110           0
      2776 MEMB     21       POPC     H4X      HAL2     0.900000E-01   1.00800           0
      2777 MEMB     21       POPC     H4Y      HAL2     0.900000E-01   1.00800           0
      2778 MEMB     21       POPC     C35      CTL2    -0.180000       12.0110           0
      2779 MEMB     21       POPC     H5X      HAL2     0.900000E-01   1.00800           0
      2780 MEMB     21       POPC     H5Y      HAL2     0.900000E-01   1.00800           0
      2781 MEMB     21       POPC     C36      CTL2    -0.180000       12.0110           0
      2782 MEMB     21       POPC     H6X      HAL2     0.900000E-01   1.00800           0
      2783 MEMB     21       POPC     H6Y      HAL2     0.900000E-01   1.00800           0
      2784 MEMB     21       POPC     C37      CTL2    -0.180000       12.0110           0
      2785 MEMB     21       POPC     H7X      HAL2     0.900000E-01   1.00800           0
      2786 MEMB     21       POPC     H7Y      HAL2     0.900000E-01   1.00800           0
      2787 MEMB     21       POPC     C38      CTL2    -0.180000       12.0110           0
      2788 MEMB     21       POPC     H8X      HAL2     0.900000E-01   1.00800           0
      2789 MEMB     21       POPC     H8Y      HAL2     0.900000E-01   1.00800           0
      2790 MEMB     21       POPC     C39      CTL2    -0.180000       12.0110           0
      2791 MEMB     21       POPC     H9X      HAL2     0.900000E-01   1.00800           0
      2792 MEMB     21       POPC     H9Y      HAL2     0.900000E-01   1.00800           0
      2793 MEMB     21       POPC     C310     CTL2    -0.180000       12.0110           0
      2794 MEMB     21       POPC     H10X     HAL2     0.900000E-01   1.00800           0
      2795 MEMB     21       POPC     H10Y     HAL2     0.900000E-01   1.00800           0
      2796 MEMB     21       POPC     C311     CTL2    -0.180000       12.0110           0
      2797 MEMB     21       POPC     H11X     HAL2     0.900000E-01   1.00800           0
      2798 MEMB     21       POPC     H11Y     HAL2     0.900000E-01   1.00800           0
      2799 MEMB     21       POPC     C312     CTL2    -0.180000       12.0110           0
      2800 MEMB     21       POPC     H12X     HAL2     0.900000E-01   1.00800           0
      2801 MEMB     21       POPC     H12Y     HAL2     0.900000E-01   1.00800           0
      2802 MEMB     21       POPC     C313     CTL2    -0.180000       12.0110           0
      2803 MEMB     21       POPC     H13X     HAL2     0.900000E-01   1.00800           0
      2804 MEMB     21       POPC     H13Y     HAL2     0.900000E-01   1.00800           0
      2805 MEMB     21       POPC     C314     CTL2    -0.180000       12.0110           0
      2806 MEMB     21       POPC     H14X     HAL2     0.900000E-01   1.00800           0
      2807 MEMB     21       POPC     H14Y     HAL2     0.900000E-01   1.00800           0
      2808 MEMB     21       POPC     C315     CTL2    -0.180000       12.0110           0
      2809 MEMB     21       POPC     H15X     HAL2     0.900000E-01   1.00800           0
      2810 MEMB     21       POPC     H15Y     HAL2     0.900000E-01   1.00800           0
      2811 MEMB     21       POPC     C316     CTL3    -0.270000       12.0110           0
      2812 MEMB     21       POPC     H16X     HAL3     0.900000E-01   1.00800           0
      2813 MEMB     21       POPC     H16Y     HAL3     0.900000E-01   1.00800           0
      2814 MEMB     21       POPC     H16Z     HAL3     0.900000E-01   1.00800           0
      2815 MEMB     22       POPC     N        NTL     -0.600000       14.0070           0
      2816 MEMB     22       POPC     C12      CTL2    -0.100000       12.0110           0
      2817 MEMB     22       POPC     H12A     HL       0.250000       1.00800           0
      2818 MEMB     22       POPC     H12B     HL       0.250000       1.00800           0
      2819 MEMB     22       POPC     C13      CTL5    -0.350000       12.0110           0
      2820 MEMB     22       POPC     H13A     HL       0.250000       1.00800           0
      2821 MEMB     22       POPC     H13B     HL       0.250000       1.00800           0
      2822 MEMB     22       POPC     H13C     HL       0.250000       1.00800           0
      2823 MEMB     22       POPC     C14      CTL5    -0.350000       12.0110           0
      2824 MEMB     22       POPC     H14A     HL       0.250000       1.00800           0
      2825 MEMB     22       POPC     H14B     HL       0.250000       1.00800           0
      2826 MEMB     22       POPC     H14C     HL       0.250000       1.00800           0
      2827 MEMB     22       POPC     C15      CTL5    -0.350000       12.0110           0
      2828 MEMB     22       POPC     H15A     HL       0.250000       1.00800           0
      2829 MEMB     22       POPC     H15B     HL       0.250000       1.00800           0
      2830 MEMB     22       POPC     H15C     HL       0.250000       1.00800           0
      2831 MEMB     22       POPC     C11      CTL2    -0.800000E-01   12.0110           0
      2832 MEMB     22       POPC     H11A     HAL2     0.900000E-01   1.00800           0
      2833 MEMB     22       POPC     H11B     HAL2     0.900000E-01   1.00800           0
      2834 MEMB     22       POPC     P        PL       1.500000       30.9740           0
      2835 MEMB     22       POPC     O13      O2L     -0.780000       15.9994           0
      2836 MEMB     22       POPC     O14      O2L     -0.780000       15.9994           0
      2837 MEMB     22       POPC     O12      OSLP    -0.570000       15.9994           0
      2838 MEMB     22       POPC     O11      OSLP    -0.570000       15.9994           0
      2839 MEMB     22       POPC     C1       CTL2    -0.800000E-01   12.0110           0
      2840 MEMB     22       POPC     HA       HAL2     0.900000E-01   1.00800           0
      2841 MEMB     22       POPC     HB       HAL2     0.900000E-01   1.00800           0
      2842 MEMB     22       POPC     C2       CTL1     0.170000       12.0110           0
      2843 MEMB     22       POPC     HS       HAL1     0.900000E-01   1.00800           0
      2844 MEMB     22       POPC     O21      OSL     -0.490000       15.9994           0
      2845 MEMB     22       POPC     C21      CL       0.900000       12.0110           0
      2846 MEMB     22       POPC     O22      OBL     -0.630000       15.9994           0
      2847 MEMB     22       POPC     C22      CTL2    -0.220000       12.0110           0
      2848 MEMB     22       POPC     H2R      HAL2     0.900000E-01   1.00800           0
      2849 MEMB     22       POPC     H2S      HAL2     0.900000E-01   1.00800           0
      2850 MEMB     22       POPC     C3       CTL2     0.800000E-01   12.0110           0
      2851 MEMB     22       POPC     HX       HAL2     0.900000E-01   1.00800           0
      2852 MEMB     22       POPC     HY       HAL2     0.900000E-01   1.00800           0
      2853 MEMB     22       POPC     O31      OSL     -0.490000       15.9994           0
      2854 MEMB     22       POPC     C31      CL       0.900000       12.0110           0
      2855 MEMB     22       POPC     O32      OBL     -0.630000       15.9994           0
      2856 MEMB     22       POPC     C32      CTL2    -0.220000       12.0110           0
      2857 MEMB     22       POPC     H2X      HAL2     0.900000E-01   1.00800           0
      2858 MEMB     22       POPC     H2Y      HAL2     0.900000E-01   1.00800           0
      2859 MEMB     22       POPC     C23      CTL2    -0.180000       12.0110           0
      2860 MEMB     22       POPC     H3R      HAL2     0.900000E-01   1.00800           0
      2861 MEMB     22       POPC     H3S      HAL2     0.900000E-01   1.00800           0
      2862 MEMB     22       POPC     C24      CTL2    -0.180000       12.0110           0
      2863 MEMB     22       POPC     H4R      HAL2     0.900000E-01   1.00800           0
      2864 MEMB     22       POPC     H4S      HAL2     0.900000E-01   1.00800           0
      2865 MEMB     22       POPC     C25      CTL2    -0.180000       12.0110           0
      2866 MEMB     22       POPC     H5R      HAL2     0.900000E-01   1.00800           0
      2867 MEMB     22       POPC     H5S      HAL2     0.900000E-01   1.00800           0
      2868 MEMB     22       POPC     C26      CTL2    -0.180000       12.0110           0
      2869 MEMB     22       POPC     H6R      HAL2     0.900000E-01   1.00800           0
      2870 MEMB     22       POPC     H6S      HAL2     0.900000E-01   1.00800           0
      2871 MEMB     22       POPC     C27      CTL2    -0.180000       12.0110           0
      2872 MEMB     22       POPC     H7R      HAL2     0.900000E-01   1.00800           0
      2873 MEMB     22       POPC     H7S      HAL2     0.900000E-01   1.00800           0
      2874 MEMB     22       POPC     C28      CTL2    -0.180000       12.0110           0
      2875 MEMB     22       POPC     H8R      HAL2     0.900000E-01   1.00800           0
      2876 MEMB     22       POPC     H8S      HAL2     0.900000E-01   1.00800           0
      2877 MEMB     22       POPC     C29      CEL1    -0.150000       12.0110           0
      2878 MEMB     22       POPC     H91      HEL1     0.150000       1.00800           0
      2879 MEMB     22       POPC     C210     CEL1    -0.150000       12.0110           0
      2880 MEMB     22       POPC     H101     HEL1     0.150000       1.00800           0
      2881 MEMB     22       POPC     C211     CTL2    -0.180000       12.0110           0
      2882 MEMB     22       POPC     H11R     HAL2     0.900000E-01   1.00800           0
      2883 MEMB     22       POPC     H11S     HAL2     0.900000E-01   1.00800           0
      2884 MEMB     22       POPC     C212     CTL2    -0.180000       12.0110           0
      2885 MEMB     22       POPC     H12R     HAL2     0.900000E-01   1.00800           0
      2886 MEMB     22       POPC     H12S     HAL2     0.900000E-01   1.00800           0
      2887 MEMB     22       POPC     C213     CTL2    -0.180000       12.0110           0
      2888 MEMB     22       POPC     H13R     HAL2     0.900000E-01   1.00800           0
      2889 MEMB     22       POPC     H13S     HAL2     0.900000E-01   1.00800           0
      2890 MEMB     22       POPC     C214     CTL2    -0.180000       12.0110           0
      2891 MEMB     22       POPC     H14R     HAL2     0.900000E-01   1.00800           0
      2892 MEMB     22       POPC     H14S     HAL2     0.900000E-01   1.00800           0
      2893 MEMB     22       POPC     C215     CTL2    -0.180000       12.0110           0
      2894 MEMB     22       POPC     H15R     HAL2     0.900000E-01   1.00800           0
      2895 MEMB     22       POPC     H15S     HAL2     0.900000E-01   1.00800           0
      2896 MEMB     22       POPC     C216     CTL2    -0.180000       12.0110           0
      2897 MEMB     22       POPC     H16R     HAL2     0.900000E-01   1.00800           0
      2898 MEMB     22       POPC     H16S     HAL2     0.900000E-01   1.00800           0
      2899 MEMB     22       POPC     C217     CTL2    -0.180000       12.0110           0
      2900 MEMB     22       POPC     H17R     HAL2     0.900000E-01   1.00800           0
      2901 MEMB     22       POPC     H17S     HAL2     0.900000E-01   1.00800           0
      2902 MEMB     22       POPC     C218     CTL3    -0.270000       12.0110           0
      2903 MEMB     22       POPC     H18R     HAL3     0.900000E-01   1.00800           0
      2904 MEMB     22       POPC     H18S     HAL3     0.900000E-01   1.00800           0
      2905 MEMB     22       POPC     H18T     HAL3     0.900000E-01   1.00800           0
      2906 MEMB     22       POPC     C33      CTL2    -0.180000       12.0110           0
      2907 MEMB     22       POPC     H3X      HAL2     0.900000E-01   1.00800           0
      2908 MEMB     22       POPC     H3Y      HAL2     0.900000E-01   1.00800           0
      2909 MEMB     22       POPC     C34      CTL2    -0.180000       12.0110           0
      2910 MEMB     22       POPC     H4X      HAL2     0.900000E-01   1.00800           0
      2911 MEMB     22       POPC     H4Y      HAL2     0.900000E-01   1.00800           0
      2912 MEMB     22       POPC     C35      CTL2    -0.180000       12.0110           0
      2913 MEMB     22       POPC     H5X      HAL2     0.900000E-01   1.00800           0
      2914 MEMB     22       POPC     H5Y      HAL2     0.900000E-01   1.00800           0
      2915 MEMB     22       POPC     C36      CTL2    -0.180000       12.0110           0
      2916 MEMB     22       POPC     H6X      HAL2     0.900000E-01   1.00800           0
      2917 MEMB     22       POPC     H6Y      HAL2     0.900000E-01   1.00800           0
      2918 MEMB     22       POPC     C37      CTL2    -0.180000       12.0110           0
      2919 MEMB     22       POPC     H7X      HAL2     0.900000E-01   1.00800           0
      2920 MEMB     22       POPC     H7Y      HAL2     0.900000E-01   1.00800           0
      2921 MEMB     22       POPC     C38      CTL2    -0.180000       12.0110           0
      2922 MEMB     22       POPC     H8X      HAL2     0.900000E-01   1.00800           0
      2923 MEMB     22       POPC     H8Y      HAL2     0.900000E-01   1.00800           0
      2924 MEMB     22       POPC     C39      CTL2    -0.180000       12.0110           0
      2925 MEMB     22       POPC     H9X      HAL2     0.900000E-01   1.00800           0
      2926 MEMB     22       POPC     H9Y      HAL2     0.900000E-01   1.00800           0
      2927 MEMB     22       POPC     C310     CTL2    -0.180000       12.0110           0
      2928 MEMB     22       POPC     H10X     HAL2     0.900000E-01   1.00800           0
      2929 MEMB     22       POPC     H10Y     HAL2     0.900000E-01   1.00800           0
      2930 MEMB     22       POPC     C311     CTL2    -0.180000       12.0110           0
      2931 MEMB     22       POPC     H11X     HAL2     0.900000E-01   1.00800           0
      2932 MEMB     22       POPC     H11Y     HAL2     0.900000E-01   1.00800           0
      2933 MEMB     22       POPC     C312     CTL2    -0.180000       12.0110           0
      2934 MEMB     22       POPC     H12X     HAL2     0.900000E-01   1.00800           0
      2935 MEMB     22       POPC     H12Y     HAL2     0.900000E-01   1.00800           0
      2936 MEMB     22       POPC     C313     CTL2    -0.180000       12.0110           0
      2937 MEMB     22       POPC     H13X     HAL2     0.900000E-01   1.00800           0
      2938 MEMB     22       POPC     H13Y     HAL2     0.900000E-01   1.00800           0
      2939 MEMB     22       POPC     C314     CTL2    -0.180000       12.0110           0
      2940 MEMB     22       POPC     H14X     HAL2     0.900000E-01   1.00800           0
      2941 MEMB     22       POPC     H14Y     HAL2     0.900000E-01   1.00800           0
      2942 MEMB     22       POPC     C315     CTL2    -0.180000       12.0110           0
      2943 MEMB     22       POPC     H15X     HAL2     0.900000E-01   1.00800           0
      2944 MEMB     22       POPC     H15Y     HAL2     0.900000E-01   1.00800           0
      2945 MEMB     22       POPC     C316     CTL3    -0.270000       12.0110           0
      2946 MEMB     22       POPC     H16X     HAL3     0.900000E-01   1.00800           0
      2947 MEMB     22       POPC     H16Y     HAL3     0.900000E-01   1.00800           0
      2948 MEMB     22       POPC     H16Z     HAL3     0.900000E-01   1.00800           0
      2949 MEMB     23       POPC     N        NTL     -0.600000       14.0070           0
      2950 MEMB     23       POPC     C12      CTL2    -0.100000       12.0110           0
      2951 MEMB     23       POPC     H12A     HL       0.250000       1.00800           0
      2952 MEMB     23       POPC     H12B     HL       0.250000       1.00800           0
      2953 MEMB     23       POPC     C13      CTL5    -0.350000       12.0110           0
      2954 MEMB     23       POPC     H13A     HL       0.250000       1.00800           0
      2955 MEMB     23       POPC     H13B     HL       0.250000       1.00800           0
      2956 MEMB     23       POPC     H13C     HL       0.250000       1.00800           0
      2957 MEMB     23       POPC     C14      CTL5    -0.350000       12.0110           0
      2958 MEMB     23       POPC     H14A     HL       0.250000       1.00800           0
      2959 MEMB     23       POPC     H14B     HL       0.250000       1.00800           0
      2960 MEMB     23       POPC     H14C     HL       0.250000       1.00800           0
      2961 MEMB     23       POPC     C15      CTL5    -0.350000       12.0110           0
      2962 MEMB     23       POPC     H15A     HL       0.250000       1.00800           0
      2963 MEMB     23       POPC     H15B     HL       0.250000       1.00800           0
      2964 MEMB     23       POPC     H15C     HL       0.250000       1.00800           0
      2965 MEMB     23       POPC     C11      CTL2    -0.800000E-01   12.0110           0
      2966 MEMB     23       POPC     H11A     HAL2     0.900000E-01   1.00800           0
      2967 MEMB     23       POPC     H11B     HAL2     0.900000E-01   1.00800           0
      2968 MEMB     23       POPC     P        PL       1.500000       30.9740           0
      2969 MEMB     23       POPC     O13      O2L     -0.780000       15.9994           0
      2970 MEMB     23       POPC     O14      O2L     -0.780000       15.9994           0
      2971 MEMB     23       POPC     O12      OSLP    -0.570000       15.9994           0
      2972 MEMB     23       POPC     O11      OSLP    -0.570000       15.9994           0
      2973 MEMB     23       POPC     C1       CTL2    -0.800000E-01   12.0110           0
      2974 MEMB     23       POPC     HA       HAL2     0.900000E-01   1.00800           0
      2975 MEMB     23       POPC     HB       HAL2     0.900000E-01   1.00800           0
      2976 MEMB     23       POPC     C2       CTL1     0.170000       12.0110           0
      2977 MEMB     23       POPC     HS       HAL1     0.900000E-01   1.00800           0
      2978 MEMB     23       POPC     O21      OSL     -0.490000       15.9994           0
      2979 MEMB     23       POPC     C21      CL       0.900000       12.0110           0
      2980 MEMB     23       POPC     O22      OBL     -0.630000       15.9994           0
      2981 MEMB     23       POPC     C22      CTL2    -0.220000       12.0110           0
      2982 MEMB     23       POPC     H2R      HAL2     0.900000E-01   1.00800           0
      2983 MEMB     23       POPC     H2S      HAL2     0.900000E-01   1.00800           0
      2984 MEMB     23       POPC     C3       CTL2     0.800000E-01   12.0110           0
      2985 MEMB     23       POPC     HX       HAL2     0.900000E-01   1.00800           0
      2986 MEMB     23       POPC     HY       HAL2     0.900000E-01   1.00800           0
      2987 MEMB     23       POPC     O31      OSL     -0.490000       15.9994           0
      2988 MEMB     23       POPC     C31      CL       0.900000       12.0110           0
      2989 MEMB     23       POPC     O32      OBL     -0.630000       15.9994           0
      2990 MEMB     23       POPC     C32      CTL2    -0.220000       12.0110           0
      2991 MEMB     23       POPC     H2X      HAL2     0.900000E-01   1.00800           0
      2992 MEMB     23       POPC     H2Y      HAL2     0.900000E-01   1.00800           0
      2993 MEMB     23       POPC     C23      CTL2    -0.180000       12.0110           0
      2994 MEMB     23       POPC     H3R      HAL2     0.900000E-01   1.00800           0
      2995 MEMB     23       POPC     H3S      HAL2     0.900000E-01   1.00800           0
      2996 MEMB     23       POPC     C24      CTL2    -0.180000       12.0110           0
      2997 MEMB     23       POPC     H4R      HAL2     0.900000E-01   1.00800           0
      2998 MEMB     23       POPC     H4S      HAL2     0.900000E-01   1.00800           0
      2999 MEMB     23       POPC     C25      CTL2    -0.180000       12.0110           0
      3000 MEMB     23       POPC     H5R      HAL2     0.900000E-01   1.00800           0
      3001 MEMB     23       POPC     H5S      HAL2     0.900000E-01   1.00800           0
      3002 MEMB     23       POPC     C26      CTL2    -0.180000       12.0110           0
      3003 MEMB     23       POPC     H6R      HAL2     0.900000E-01   1.00800           0
      3004 MEMB     23       POPC     H6S      HAL2     0.900000E-01   1.00800           0
      3005 MEMB     23       POPC     C27      CTL2    -0.180000       12.0110           0
      3006 MEMB     23       POPC     H7R      HAL2     0.900000E-01   1.00800           0
      3007 MEMB     23       POPC     H7S      HAL2     0.900000E-01   1.00800           0
      3008 MEMB     23       POPC     C28      CTL2    -0.180000       12.0110           0
      3009 MEMB     23       POPC     H8R      HAL2     0.900000E-01   1.00800           0
      3010 MEMB     23       POPC     H8S      HAL2     0.900000E-01   1.00800           0
      3011 MEMB     23       POPC     C29      CEL1    -0.150000       12.0110           0
      3012 MEMB     23       POPC     H91      HEL1     0.150000       1.00800           0
      3013 MEMB     23       POPC     C210     CEL1    -0.150000       12.0110           0
      3014 MEMB     23       POPC     H101     HEL1     0.150000       1.00800           0
      3015 MEMB     23       POPC     C211     CTL2    -0.180000       12.0110           0
      3016 MEMB     23       POPC     H11R     HAL2     0.900000E-01   1.00800           0
      3017 MEMB     23       POPC     H11S     HAL2     0.900000E-01   1.00800           0
      3018 MEMB     23       POPC     C212     CTL2    -0.180000       12.0110           0
      3019 MEMB     23       POPC     H12R     HAL2     0.900000E-01   1.00800           0
      3020 MEMB     23       POPC     H12S     HAL2     0.900000E-01   1.00800           0
      3021 MEMB     23       POPC     C213     CTL2    -0.180000       12.0110           0
      3022 MEMB     23       POPC     H13R     HAL2     0.900000E-01   1.00800           0
      3023 MEMB     23       POPC     H13S     HAL2     0.900000E-01   1.00800           0
      3024 MEMB     23       POPC     C214     CTL2    -0.180000       12.0110           0
      3025 MEMB     23       POPC     H14R     HAL2     0.900000E-01   1.00800           0
      3026 MEMB     23       POPC     H14S     HAL2     0.900000E-01   1.00800           0
      3027 MEMB     23       POPC     C215     CTL2    -0.180000       12.0110           0
      3028 MEMB     23       POPC     H15R     HAL2     0.900000E-01   1.00800           0
      3029 MEMB     23       POPC     H15S     HAL2     0.900000E-01   1.00800           0
      3030 MEMB     23       POPC     C216     CTL2    -0.180000       12.0110           0
      3031 MEMB     23       POPC     H16R     HAL2     0.900000E-01   1.00800           0
      3032 MEMB     23       POPC     H16S     HAL2     0.900000E-01   1.00800           0
      3033 MEMB     23       POPC     C217     CTL2    -0.180000       12.0110           0
      3034 MEMB     23       POPC     H17R     HAL2     0.900000E-01   1.00800           0
      3035 MEMB     23       POPC     H17S     HAL2     0.900000E-01   1.00800           0
      3036 MEMB     23       POPC     C218     CTL3    -0.270000       12.0110           0
      3037 MEMB     23       POPC     H18R     HAL3     0.900000E-01   1.00800           0
      3038 MEMB     23       POPC     H18S     HAL3     0.900000E-01   1.00800           0
      3039 MEMB     23       POPC     H18T     HAL3     0.900000E-01   1.00800           0
      3040 MEMB     23       POPC     C33      CTL2    -0.180000       12.0110           0
      3041 MEMB     23       POPC     H3X      HAL2     0.900000E-01   1.00800           0
      3042 MEMB     23       POPC     H3Y      HAL2     0.900000E-01   1.00800           0
      3043 MEMB     23       POPC     C34      CTL2    -0.180000       12.0110           0
      3044 MEMB     23       POPC     H4X      HAL2     0.900000E-01   1.00800           0
      3045 MEMB     23       POPC     H4Y      HAL2     0.900000E-01   1.00800           0
      3046 MEMB     23       POPC     C35      CTL2    -0.180000       12.0110           0
      3047 MEMB     23       POPC     H5X      HAL2     0.900000E-01   1.00800           0
      3048 MEMB     23       POPC     H5Y      HAL2     0.900000E-01   1.00800           0
      3049 MEMB     23       POPC     C36      CTL2    -0.180000       12.0110           0
      3050 MEMB     23       POPC     H6X      HAL2     0.900000E-01   1.00800           0
      3051 MEMB     23       POPC     H6Y      HAL2     0.900000E-01   1.00800           0
      3052 MEMB     23       POPC     C37      CTL2    -0.180000       12.0110           0
      3053 MEMB     23       POPC     H7X      HAL2     0.900000E-01   1.00800           0
      3054 MEMB     23       POPC     H7Y      HAL2     0.900000E-01   1.00800           0
      3055 MEMB     23       POPC     C38      CTL2    -0.180000       12.0110           0
      3056 MEMB     23       POPC     H8X      HAL2     0.900000E-01   1.00800           0
      3057 MEMB     23       POPC     H8Y      HAL2     0.900000E-01   1.00800           0
      3058 MEMB     23       POPC     C39      CTL2    -0.180000       12.0110           0
      3059 MEMB     23       POPC     H9X      HAL2     0.900000E-01   1.00800           0
      3060 MEMB     23       POPC     H9Y      HAL2     0.900000E-01   1.00800           0
      3061 MEMB     23       POPC     C310     CTL2    -0.180000       12.0110           0
      3062 MEMB     23       POPC     H10X     HAL2     0.900000E-01   1.00800           0
      3063 MEMB     23       POPC     H10Y     HAL2     0.900000E-01   1.00800           0
      3064 MEMB     23       POPC     C311     CTL2    -0.180000       12.0110           0
      3065 MEMB     23       POPC     H11X     HAL2     0.900000E-01   1.00800           0
      3066 MEMB     23       POPC     H11Y     HAL2     0.900000E-01   1.00800           0
      3067 MEMB     23       POPC     C312     CTL2    -0.180000       12.0110           0
      3068 MEMB     23       POPC     H12X     HAL2     0.900000E-01   1.00800           0
      3069 MEMB     23       POPC     H12Y     HAL2     0.900000E-01   1.00800           0
      3070 MEMB     23       POPC     C313     CTL2    -0.180000       12.0110           0
      3071 MEMB     23       POPC     H13X     HAL2     0.900000E-01   1.00800           0
      3072 MEMB     23       POPC     H13Y     HAL2     0.900000E-01   1.00800           0
      3073 MEMB     23       POPC     C314     CTL2    -0.180000       12.0110           0
      3074 MEMB     23       POPC     H14X     HAL2     0.900000E-01   1.00800           0
      3075 MEMB     23       POPC     H14Y     HAL2     0.900000E-01   1.00800           0
      3076 MEMB     23       POPC     C315     CTL2    -0.180000       12.0110           0
      3077 MEMB     23       POPC     H15X     HAL2     0.900000E-01   1.00800           0
      3078 MEMB     23       POPC     H15Y     HAL2     0.900000E-01   1.00800           0
      3079 MEMB     23       POPC     C316     CTL3    -0.270000       12.0110           0
      3080 MEMB     23       POPC     H16X     HAL3     0.900000E-01   1.00800           0
      3081 MEMB     23       POPC     H16Y     HAL3     0.900000E-01   1.00800           0
      3082 MEMB     23       POPC     H16Z     HAL3     0.900000E-01   1.00800           0
      3083 MEMB     24       POPC     N        NTL     -0.600000       14.0070           0
      3084 MEMB     24       POPC     C12      CTL2    -0.100000       12.0110           0
      3085 MEMB     24       POPC     H12A     HL       0.250000       1.00800           0
      3086 MEMB     24       POPC     H12B     HL       0.250000       1.00800           0
      3087 MEMB     24       POPC     C13      CTL5    -0.350000       12.0110           0
      3088 MEMB     24       POPC     H13A     HL       0.250000       1.00800           0
      3089 MEMB     24       POPC     H13B     HL       0.250000       1.00800           0
      3090 MEMB     24       POPC     H13C     HL       0.250000       1.00800           0
      3091 MEMB     24       POPC     C14      CTL5    -0.350000       12.0110           0
      3092 MEMB     24       POPC     H14A     HL       0.250000       1.00800           0
      3093 MEMB     24       POPC     H14B     HL       0.250000       1.00800           0
      3094 MEMB     24       POPC     H14C     HL       0.250000       1.00800           0
      3095 MEMB     24       POPC     C15      CTL5    -0.350000       12.0110           0
      3096 MEMB     24       POPC     H15A     HL       0.250000       1.00800           0
      3097 MEMB     24       POPC     H15B     HL       0.250000       1.00800           0
      3098 MEMB     24       POPC     H15C     HL       0.250000       1.00800           0
      3099 MEMB     24       POPC     C11      CTL2    -0.800000E-01   12.0110           0
      3100 MEMB     24       POPC     H11A     HAL2     0.900000E-01   1.00800           0
      3101 MEMB     24       POPC     H11B     HAL2     0.900000E-01   1.00800           0
      3102 MEMB     24       POPC     P        PL       1.500000       30.9740           0
      3103 MEMB     24       POPC     O13      O2L     -0.780000       15.9994           0
      3104 MEMB     24       POPC     O14      O2L     -0.780000       15.9994           0
      3105 MEMB     24       POPC     O12      OSLP    -0.570000       15.9994           0
      3106 MEMB     24       POPC     O11      OSLP    -0.570000       15.9994           0
      3107 MEMB     24       POPC     C1       CTL2    -0.800000E-01   12.0110           0
      3108 MEMB     24       POPC     HA       HAL2     0.900000E-01   1.00800           0
      3109 MEMB     24       POPC     HB       HAL2     0.900000E-01   1.00800           0
      3110 MEMB     24       POPC     C2       CTL1     0.170000       12.0110           0
      3111 MEMB     24       POPC     HS       HAL1     0.900000E-01   1.00800           0
      3112 MEMB     24       POPC     O21      OSL     -0.490000       15.9994           0
      3113 MEMB     24       POPC     C21      CL       0.900000       12.0110           0
      3114 MEMB     24       POPC     O22      OBL     -0.630000       15.9994           0
      3115 MEMB     24       POPC     C22      CTL2    -0.220000       12.0110           0
      3116 MEMB     24       POPC     H2R      HAL2     0.900000E-01   1.00800           0
      3117 MEMB     24       POPC     H2S      HAL2     0.900000E-01   1.00800           0
      3118 MEMB     24       POPC     C3       CTL2     0.800000E-01   12.0110           0
      3119 MEMB     24       POPC     HX       HAL2     0.900000E-01   1.00800           0
      3120 MEMB     24       POPC     HY       HAL2     0.900000E-01   1.00800           0
      3121 MEMB     24       POPC     O31      OSL     -0.490000       15.9994           0
      3122 MEMB     24       POPC     C31      CL       0.900000       12.0110           0
      3123 MEMB     24       POPC     O32      OBL     -0.630000       15.9994           0
      3124 MEMB     24       POPC     C32      CTL2    -0.220000       12.0110           0
      3125 MEMB     24       POPC     H2X      HAL2     0.900000E-01   1.00800           0
      3126 MEMB     24       POPC     H2Y      HAL2     0.900000E-01   1.00800           0
      3127 MEMB     24       POPC     C23      CTL2    -0.180000       12.0110           0
      3128 MEMB     24       POPC     H3R      HAL2     0.900000E-01   1.00800           0
      3129 MEMB     24       POPC     H3S      HAL2     0.900000E-01   1.00800           0
      3130 MEMB     24       POPC     C24      CTL2    -0.180000       12.0110           0
      3131 MEMB     24       POPC     H4R      HAL2     0.900000E-01   1.00800           0
      3132 MEMB     24       POPC     H4S      HAL2     0.900000E-01   1.00800           0
      3133 MEMB     24       POPC     C25      CTL2    -0.180000       12.0110           0
      3134 MEMB     24       POPC     H5R      HAL2     0.900000E-01   1.00800           0
      3135 MEMB     24       POPC     H5S      HAL2     0.900000E-01   1.00800           0
      3136 MEMB     24       POPC     C26      CTL2    -0.180000       12.0110           0
      3137 MEMB     24       POPC     H6R      HAL2     0.900000E-01   1.00800           0
      3138 MEMB     24       POPC     H6S      HAL2     0.900000E-01   1.00800           0
      3139 MEMB     24       POPC     C27      CTL2    -0.180000       12.0110           0
      3140 MEMB     24       POPC     H7R      HAL2     0.900000E-01   1.00800           0
      3141 MEMB     24       POPC     H7S      HAL2     0.900000E-01   1.00800           0
      3142 MEMB     24       POPC     C28      CTL2    -0.180000       12.0110           0
      3143 MEMB     24       POPC     H8R      HAL2     0.900000E-01   1.00800           0
      3144 MEMB     24       POPC     H8S      HAL2     0.900000E-01   1.00800           0
      3145 MEMB     24       POPC     C29      CEL1    -0.150000       12.0110           0
      3146 MEMB     24       POPC     H91      HEL1     0.150000       1.00800           0
      3147 MEMB     24       POPC     C210     CEL1    -0.150000       12.0110           0
      3148 MEMB     24       POPC     H101     HEL1     0.150000       1.00800           0
      3149 MEMB     24       POPC     C211     CTL2    -0.180000       12.0110           0
      3150 MEMB     24       POPC     H11R     HAL2     0.900000E-01   1.00800           0
      3151 MEMB     24       POPC     H11S     HAL2     0.900000E-01   1.00800           0
      3152 MEMB     24       POPC     C212     CTL2    -0.180000       12.0110           0
      3153 MEMB     24       POPC     H12R     HAL2     0.900000E-01   1.00800           0
      3154 MEMB     24       POPC     H12S     HAL2     0.900000E-01   1.00800           0
      3155 MEMB     24       POPC     C213     CTL2    -0.180000       12.0110           0
      3156 MEMB     24       POPC     H13R     HAL2     0.900000E-01   1.00800           0
      3157 MEMB     24       POPC     H13S     HAL2     0.900000E-01   1.00800           0
      3158 MEMB     24       POPC     C214     CTL2    -0.180000       12.0110           0
      3159 MEMB     24       POPC     H14R     HAL2     0.900000E-01   1.00800           0
      3160 MEMB     24       POPC     H14S     HAL2     0.900000E-01   1.00800           0
      3161 MEMB     24       POPC     C215     CTL2    -0.180000       12.0110           0
      3162 MEMB     24       POPC     H15R     HAL2     0.900000E-01   1.00800           0
      3163 MEMB     24       POPC     H15S     HAL2     0.900000E-01   1.00800           0
      3164 MEMB     24       POPC     C216     CTL2    -0.180000       12.0110           0
      3165 MEMB     24       POPC     H16R     HAL2     0.900000E-01   1.00800           0
      3166 MEMB     24       POPC     H16S     HAL2     0.900000E-01   1.00800           0
      3167 MEMB     24       POPC     C217     CTL2    -0.180000       12.0110           0
      3168 MEMB     24       POPC     H17R     HAL2     0.900000E-01   1.00800           0
      3169 MEMB     24       POPC     H17S     HAL2     0.900000E-01   1.00800           0
      3170 MEMB     24       POPC     C218     CTL3    -0.270000       12.0110           0
      3171 MEMB     24       POPC     H18R     HAL3     0.900000E-01   1.00800           0
      3172 MEMB     24       POPC     H18S     HAL3     0.900000E-01   1.00800           0
      3173 MEMB     24       POPC     H18T     HAL3     0.900000E-01   1.00800           0
      3174 MEMB     24       POPC     C33      CTL2    -0.180000       12.0110           0
      3175 MEMB     24       POPC     H3X      HAL2     0.900000E-01   1.00800           0
      3176 MEMB     24       POPC     H3Y      HAL2     0.900000E-01   1.00800           0
      3177 MEMB     24       POPC     C34      CTL2    -0.180000       12.0110           0
      3178 MEMB     24       POPC     H4X      HAL2     0.900000E-01   1.00800           0
      3179 MEMB     24       POPC     H4Y      HAL2     0.900000E-01   1.00800           0
      3180 MEMB     24       POPC     C35      CTL2    -0.180000       12.0110           0
      3181 MEMB     24       POPC     H5X      HAL2     0.900000E-01   1.00800           0
      3182 MEMB     24       POPC     H5Y      HAL2     0.900000E-01   1.00800           0
      3183 MEMB     24       POPC     C36      CTL2    -0.180000       12.0110           0
      3184 MEMB     24       POPC     H6X      HAL2     0.900000E-01   1.00800           0
      3185 MEMB     24       POPC     H6Y      HAL2     0.900000E-01   1.00800           0
      3186 MEMB     24       POPC     C37      CTL2    -0.180000       12.0110           0
      3187 MEMB     24       POPC     H7X      HAL2     0.900000E-01   1.00800           0
      3188 MEMB     24       POPC     H7Y      HAL2     0.900000E-01   1.00800           0
      3189 MEMB     24       POPC     C38      CTL2    -0.180000       12.0110           0
      3190 MEMB     24       POPC     H8X      HAL2     0.900000E-01   1.00800           0
      3191 MEMB     24       POPC     H8Y      HAL2     0.900000E-01   1.00800           0
      3192 MEMB     24       POPC     C39      CTL2    -0.180000       12.0110           0
      3193 MEMB     24       POPC     H9X      HAL2     0.900000E-01   1.00800           0
      3194 MEMB     24       POPC     H9Y      HAL2     0.900000E-01   1.00800           0
      3195 MEMB     24       POPC     C310     CTL2    -0.180000       12.0110           0
      3196 MEMB     24       POPC     H10X     HAL2     0.900000E-01   1.00800           0
      3197 MEMB     24       POPC     H10Y     HAL2     0.900000E-01   1.00800           0
      3198 MEMB     24       POPC     C311     CTL2    -0.180000       12.0110           0
      3199 MEMB     24       POPC     H11X     HAL2     0.900000E-01   1.00800           0
      3200 MEMB     24       POPC     H11Y     HAL2     0.900000E-01   1.00800           0
      3201 MEMB     24       POPC     C312     CTL2    -0.180000       12.0110           0
      3202 MEMB     24       POPC     H12X     HAL2     0.900000E-01   1.00800           0
      3203 MEMB     24       POPC     H12Y     HAL2     0.900000E-01   1.00800           0
      3204 MEMB     24       POPC     C313     CTL2    -0.180000       12.0110           0
      3205 MEMB     24       POPC     H13X     HAL2     0.900000E-01   1.00800           0
      3206 MEMB     24       POPC     H13Y     HAL2     0.900000E-01   1.00800           0
      3207 MEMB     24       POPC     C314     CTL2    -0.180000       12.0110           0
      3208 MEMB     24       POPC     H14X     HAL2     0.900000E-01   1.00800           0
      3209 MEMB     24       POPC     H14Y     HAL2     0.900000E-01   1.00800           0
      3210 MEMB     24       POPC     C315     CTL2    -0.180000       12.0110           0
      3211 MEMB     24       POPC     H15X     HAL2     0.900000E-01   1.00800           0
      3212 MEMB     24       POPC     H15Y     HAL2     0.900000E-01   1.00800           0
      3213 MEMB     24       POPC     C316     CTL3    -0.270000       12.0110           0
      3214 MEMB     24       POPC     H16X     HAL3     0.900000E-01   1.00800           0
      3215 MEMB     24       POPC     H16Y     HAL3     0.900000E-01   1.00800           0
      3216 MEMB     24       POPC     H16Z     HAL3     0.900000E-01   1.00800           0
      3217 MEMB     25       POPC     N        NTL     -0.600000       14.0070           0
      3218 MEMB     25       POPC     C12      CTL2    -0.100000       12.0110           0
      3219 MEMB     25       POPC     H12A     HL       0.250000       1.00800           0
      3220 MEMB     25       POPC     H12B     HL       0.250000       1.00800           0
      3221 MEMB     25       POPC     C13      CTL5    -0.350000       12.0110           0
      3222 MEMB     25       POPC     H13A     HL       0.250000       1.00800           0
      3223 MEMB     25       POPC     H13B     HL       0.250000       1.00800           0
      3224 MEMB     25       POPC     H13C     HL       0.250000       1.00800           0
      3225 MEMB     25       POPC     C14      CTL5    -0.350000       12.0110           0
      3226 MEMB     25       POPC     H14A     HL       0.250000       1.00800           0
      3227 MEMB     25       POPC     H14B     HL       0.250000       1.00800           0
      3228 MEMB     25       POPC     H14C     HL       0.250000       1.00800           0
      3229 MEMB     25       POPC     C15      CTL5    -0.350000       12.0110           0
      3230 MEMB     25       POPC     H15A     HL       0.250000       1.00800           0
      3231 MEMB     25       POPC     H15B     HL       0.250000       1.00800           0
      3232 MEMB     25       POPC     H15C     HL       0.250000       1.00800           0
      3233 MEMB     25       POPC     C11      CTL2    -0.800000E-01   12.0110           0
      3234 MEMB     25       POPC     H11A     HAL2     0.900000E-01   1.00800           0
      3235 MEMB     25       POPC     H11B     HAL2     0.900000E-01   1.00800           0
      3236 MEMB     25       POPC     P        PL       1.500000       30.9740           0
      3237 MEMB     25       POPC     O13      O2L     -0.780000       15.9994           0
      3238 MEMB     25       POPC     O14      O2L     -0.780000       15.9994           0
      3239 MEMB     25       POPC     O12      OSLP    -0.570000       15.9994           0
      3240 MEMB     25       POPC     O11      OSLP    -0.570000       15.9994           0
      3241 MEMB     25       POPC     C1       CTL2    -0.800000E-01   12.0110           0
      3242 MEMB     25       POPC     HA       HAL2     0.900000E-01   1.00800           0
      3243 MEMB     25       POPC     HB       HAL2     0.900000E-01   1.00800           0
      3244 MEMB     25       POPC     C2       CTL1     0.170000       12.0110           0
      3245 MEMB     25       POPC     HS       HAL1     0.900000E-01   1.00800           0
      3246 MEMB     25       POPC     O21      OSL     -0.490000       15.9994           0
      3247 MEMB     25       POPC     C21      CL       0.900000       12.0110           0
      3248 MEMB     25       POPC     O22      OBL     -0.630000       15.9994           0
      3249 MEMB     25       POPC     C22      CTL2    -0.220000       12.0110           0
      3250 MEMB     25       POPC     H2R      HAL2     0.900000E-01   1.00800           0
      3251 MEMB     25       POPC     H2S      HAL2     0.900000E-01   1.00800           0
      3252 MEMB     25       POPC     C3       CTL2     0.800000E-01   12.0110           0
      3253 MEMB     25       POPC     HX       HAL2     0.900000E-01   1.00800           0
      3254 MEMB     25       POPC     HY       HAL2     0.900000E-01   1.00800           0
      3255 MEMB     25       POPC     O31      OSL     -0.490000       15.9994           0
      3256 MEMB     25       POPC     C31      CL       0.900000       12.0110           0
      3257 MEMB     25       POPC     O32      OBL     -0.630000       15.9994           0
      3258 MEMB     25       POPC     C32      CTL2    -0.220000       12.0110           0
      3259 MEMB     25       POPC     H2X      HAL2     0.900000E-01   1.00800           0
      3260 MEMB     25       POPC     H2Y      HAL2     0.900000E-01   1.00800           0
      3261 MEMB     25       POPC     C23      CTL2    -0.180000       12.0110           0
      3262 MEMB     25       POPC     H3R      HAL2     0.900000E-01   1.00800           0
      3263 MEMB     25       POPC     H3S      HAL2     0.900000E-01   1.00800           0
      3264 MEMB     25       POPC     C24      CTL2    -0.180000       12.0110           0
      3265 MEMB     25       POPC     H4R      HAL2     0.900000E-01   1.00800           0
      3266 MEMB     25       POPC     H4S      HAL2     0.900000E-01   1.00800           0
      3267 MEMB     25       POPC     C25      CTL2    -0.180000       12.0110           0
      3268 MEMB     25       POPC     H5R      HAL2     0.900000E-01   1.00800           0
      3269 MEMB     25       POPC     H5S      HAL2     0.900000E-01   1.00800           0
      3270 MEMB     25       POPC     C26      CTL2    -0.180000       12.0110           0
      3271 MEMB     25       POPC     H6R      HAL2     0.900000E-01   1.00800           0
      3272 MEMB     25       POPC     H6S      HAL2     0.900000E-01   1.00800           0
      3273 MEMB     25       POPC     C27      CTL2    -0.180000       12.0110           0
      3274 MEMB     25       POPC     H7R      HAL2     0.900000E-01   1.00800           0
      3275 MEMB     25       POPC     H7S      HAL2     0.900000E-01   1.00800           0
      3276 MEMB     25       POPC     C28      CTL2    -0.180000       12.0110           0
      3277 MEMB     25       POPC     H8R      HAL2     0.900000E-01   1.00800           0
      3278 MEMB     25       POPC     H8S      HAL2     0.900000E-01   1.00800           0
      3279 MEMB     25       POPC     C29      CEL1    -0.150000       12.0110           0
      3280 MEMB     25       POPC     H91      HEL1     0.150000       1.00800           0
      3281 MEMB     25       POPC     C210     CEL1    -0.150000       12.0110           0
      3282 MEMB     25       POPC     H101     HEL1     0.150000       1.00800           0
      3283 MEMB     25       POPC     C211     CTL2    -0.180000       12.0110           0
      3284 MEMB     25       POPC     H11R     HAL2     0.900000E-01   1.00800           0
      3285 MEMB     25       POPC     H11S     HAL2     0.900000E-01   1.00800           0
      3286 MEMB     25       POPC     C212     CTL2    -0.180000       12.0110           0
      3287 MEMB     25       POPC     H12R     HAL2     0.900000E-01   1.00800           0
      3288 MEMB     25       POPC     H12S     HAL2     0.900000E-01   1.00800           0
      3289 MEMB     25       POPC     C213     CTL2    -0.180000       12.0110           0
      3290 MEMB     25       POPC     H13R     HAL2     0.900000E-01   1.00800           0
      3291 MEMB     25       POPC     H13S     HAL2     0.900000E-01   1.00800           0
      3292 MEMB     25       POPC     C214     CTL2    -0.180000       12.0110           0
      3293 MEMB     25       POPC     H14R     HAL2     0.900000E-01   1.00800           0
      3294 MEMB     25       POPC     H14S     HAL2     0.900000E-01   1.00800           0
      3295 MEMB     25       POPC     C215     CTL2    -0.180000       12.0110           0
      3296 MEMB     25       POPC     H15R     HAL2     0.900000E-01   1.00800           0
      3297 MEMB     25       POPC     H15S     HAL2     0.900000E-01   1.00800           0
      3298 MEMB     25       POPC     C216     CTL2    -0.180000       12.0110           0
      3299 MEMB     25       POPC     H16R     HAL2     0.900000E-01   1.00800           0
      3300 MEMB     25       POPC     H16S     HAL2     0.900000E-01   1.00800           0
      3301 MEMB     25       POPC     C217     CTL2    -0.180000       12.0110           0
      3302 MEMB     25       POPC     H17R     HAL2     0.900000E-01   1.00800           0
      3303 MEMB     25       POPC     H17S     HAL2     0.900000E-01   1.00800           0
      3304 MEMB     25       POPC     C218     CTL3    -0.270000       12.0110           0
      3305 MEMB     25       POPC     H18R     HAL3     0.900000E-01   1.00800           0
      3306 MEMB     25       POPC     H18S     HAL3     0.900000E-01   1.00800           0
      3307 MEMB     25       POPC     H18T     HAL3     0.900000E-01   1.00800           0
      3308 MEMB     25       POPC     C33      CTL2    -0.180000       12.0110           0
      3309 MEMB     25       POPC     H3X      HAL2     0.900000E-01   1.00800           0
      3310 MEMB     25       POPC     H3Y      HAL2     0.900000E-01   1.00800           0
      3311 MEMB     25       POPC     C34      CTL2    -0.180000       12.0110           0
      3312 MEMB     25       POPC     H4X      HAL2     0.900000E-01   1.00800           0
      3313 MEMB     25       POPC     H4Y      HAL2     0.900000E-01   1.00800           0
      3314 MEMB     25       POPC     C35      CTL2    -0.180000       12.0110           0
      3315 MEMB     25       POPC     H5X      HAL2     0.900000E-01   1.00800           0
      3316 MEMB     25       POPC     H5Y      HAL2     0.900000E-01   1.00800           0
      3317 MEMB     25       POPC     C36      CTL2    -0.180000       12.0110           0
      3318 MEMB     25       POPC     H6X      HAL2     0.900000E-01   1.00800           0
      3319 MEMB     25       POPC     H6Y      HAL2     0.900000E-01   1.00800           0
      3320 MEMB     25       POPC     C37      CTL2    -0.180000       12.0110           0
      3321 MEMB     25       POPC     H7X      HAL2     0.900000E-01   1.00800           0
      3322 MEMB     25       POPC     H7Y      HAL2     0.900000E-01   1.00800           0
      3323 MEMB     25       POPC     C38      CTL2    -0.180000       12.0110           0
      3324 MEMB     25       POPC     H8X      HAL2     0.900000E-01   1.00800           0
      3325 MEMB     25       POPC     H8Y      HAL2     0.900000E-01   1.00800           0
      3326 MEMB     25       POPC     C39      CTL2    -0.180000       12.0110           0
      3327 MEMB     25       POPC     H9X      HAL2     0.900000E-01   1.00800           0
      3328 MEMB     25       POPC     H9Y      HAL2     0.900000E-01   1.00800           0
      3329 MEMB     25       POPC     C310     CTL2    -0.180000       12.0110           0
      3330 MEMB     25       POPC     H10X     HAL2     0.900000E-01   1.00800           0
      3331 MEMB     25       POPC     H10Y     HAL2     0.900000E-01   1.00800           0
      3332 MEMB     25       POPC     C311     CTL2    -0.180000       12.0110           0
      3333 MEMB     25       POPC     H11X     HAL2     0.900000E-01   1.00800           0
      3334 MEMB     25       POPC     H11Y     HAL2     0.900000E-01   1.00800           0
      3335 MEMB     25       POPC     C312     CTL2    -0.180000       12.0110           0
      3336 MEMB     25       POPC     H12X     HAL2     0.900000E-01   1.00800           0
      3337 MEMB     25       POPC     H12Y     HAL2     0.900000E-01   1.00800           0
      3338 MEMB     25       POPC     C313     CTL2    -0.180000       12.0110           0
      3339 MEMB     25       POPC     H13X     HAL2     0.900000E-01   1.00800           0
      3340 MEMB     25       POPC     H13Y     HAL2     0.900000E-01   1.00800           0
      3341 MEMB     25       POPC     C314     CTL2    -0.180000       12.0110           0
      3342 MEMB     25       POPC     H14X     HAL2     0.900000E-01   1.00800           0
      3343 MEMB     25       POPC     H14Y     HAL2     0.900000E-01   1.00800           0
      3344 MEMB     25       POPC     C315     CTL2    -0.180000       12.0110           0
      3345 MEMB     25       POPC     H15X     HAL2     0.900000E-01   1.00800           0
      3346 MEMB     25       POPC     H15Y     HAL2     0.900000E-01   1.00800           0
      3347 MEMB     25       POPC     C316     CTL3    -0.270000       12.0110           0
      3348 MEMB     25       POPC     H16X     HAL3     0.900000E-01   1.00800           0
      3349 MEMB     25       POPC     H16Y     HAL3     0.900000E-01   1.00800           0
      3350 MEMB     25       POPC     H16Z     HAL3     0.900000E-01   1.00800           0
      3351 MEMB     26       POPC     N        NTL     -0.600000       14.0070           0
      3352 MEMB     26       POPC     C12      CTL2    -0.100000       12.0110           0
      3353 MEMB     26       POPC     H12A     HL       0.250000       1.00800           0
      3354 MEMB     26       POPC     H12B     HL       0.250000       1.00800           0
      3355 MEMB     26       POPC     C13      CTL5    -0.350000       12.0110           0
      3356 MEMB     26       POPC     H13A     HL       0.250000       1.00800           0
      3357 MEMB     26       POPC     H13B     HL       0.250000       1.00800           0
      3358 MEMB     26       POPC     H13C     HL       0.250000       1.00800           0
      3359 MEMB     26       POPC     C14      CTL5    -0.350000       12.0110           0
      3360 MEMB     26       POPC     H14A     HL       0.250000       1.00800           0
      3361 MEMB     26       POPC     H14B     HL       0.250000       1.00800           0
      3362 MEMB     26       POPC     H14C     HL       0.250000       1.00800           0
      3363 MEMB     26       POPC     C15      CTL5    -0.350000       12.0110           0
      3364 MEMB     26       POPC     H15A     HL       0.250000       1.00800           0
      3365 MEMB     26       POPC     H15B     HL       0.250000       1.00800           0
      3366 MEMB     26       POPC     H15C     HL       0.250000       1.00800           0
      3367 MEMB     26       POPC     C11      CTL2    -0.800000E-01   12.0110           0
      3368 MEMB     26       POPC     H11A     HAL2     0.900000E-01   1.00800           0
      3369 MEMB     26       POPC     H11B     HAL2     0.900000E-01   1.00800           0
      3370 MEMB     26       POPC     P        PL       1.500000       30.9740           0
      3371 MEMB     26       POPC     O13      O2L     -0.780000       15.9994           0
      3372 MEMB     26       POPC     O14      O2L     -0.780000       15.9994           0
      3373 MEMB     26       POPC     O12      OSLP    -0.570000       15.9994           0
      3374 MEMB     26       POPC     O11      OSLP    -0.570000       15.9994           0
      3375 MEMB     26       POPC     C1       CTL2    -0.800000E-01   12.0110           0
      3376 MEMB     26       POPC     HA       HAL2     0.900000E-01   1.00800           0
      3377 MEMB     26       POPC     HB       HAL2     0.900000E-01   1.00800           0
      3378 MEMB     26       POPC     C2       CTL1     0.170000       12.0110           0
      3379 MEMB     26       POPC     HS       HAL1     0.900000E-01   1.00800           0
      3380 MEMB     26       POPC     O21      OSL     -0.490000       15.9994           0
      3381 MEMB     26       POPC     C21      CL       0.900000       12.0110           0
      3382 MEMB     26       POPC     O22      OBL     -0.630000       15.9994           0
      3383 MEMB     26       POPC     C22      CTL2    -0.220000       12.0110           0
      3384 MEMB     26       POPC     H2R      HAL2     0.900000E-01   1.00800           0
      3385 MEMB     26       POPC     H2S      HAL2     0.900000E-01   1.00800           0
      3386 MEMB     26       POPC     C3       CTL2     0.800000E-01   12.0110           0
      3387 MEMB     26       POPC     HX       HAL2     0.900000E-01   1.00800           0
      3388 MEMB     26       POPC     HY       HAL2     0.900000E-01   1.00800           0
      3389 MEMB     26       POPC     O31      OSL     -0.490000       15.9994           0
      3390 MEMB     26       POPC     C31      CL       0.900000       12.0110           0
      3391 MEMB     26       POPC     O32      OBL     -0.630000       15.9994           0
      3392 MEMB     26       POPC     C32      CTL2    -0.220000       12.0110           0
      3393 MEMB     26       POPC     H2X      HAL2     0.900000E-01   1.00800           0
      3394 MEMB     26       POPC     H2Y      HAL2     0.900000E-01   1.00800           0
      3395 MEMB     26       POPC     C23      CTL2    -0.180000       12.0110           0
      3396 MEMB     26       POPC     H3R      HAL2     0.900000E-01   1.00800           0
      3397 MEMB     26       POPC     H3S      HAL2     0.900000E-01   1.00800           0
      3398 MEMB     26       POPC     C24      CTL2    -0.180000       12.0110           0
      3399 MEMB     26       POPC     H4R      HAL2     0.900000E-01   1.00800           0
      3400 MEMB     26       POPC     H4S      HAL2     0.900000E-01   1.00800           0
      3401 MEMB     26       POPC     C25      CTL2    -0.180000       12.0110           0
      3402 MEMB     26       POPC     H5R      HAL2     0.900000E-01   1.00800           0
      3403 MEMB     26       POPC     H5S      HAL2     0.900000E-01   1.00800           0
      3404 MEMB     26       POPC     C26      CTL2    -0.180000       12.0110           0
      3405 MEMB     26       POPC     H6R      HAL2     0.900000E-01   1.00800           0
      3406 MEMB     26       POPC     H6S      HAL2     0.900000E-01   1.00800           0
      3407 MEMB     26       POPC     C27      CTL2    -0.180000       12.0110           0
      3408 MEMB     26       POPC     H7R      HAL2     0.900000E-01   1.00800           0
      3409 MEMB     26       POPC     H7S      HAL2     0.900000E-01   1.00800           0
      3410 MEMB     26       POPC     C28      CTL2    -0.180000       12.0110           0
      3411 MEMB     26       POPC     H8R      HAL2     0.900000E-01   1.00800           0
      3412 MEMB     26       POPC     H8S      HAL2     0.900000E-01   1.00800           0
      3413 MEMB     26       POPC     C29      CEL1    -0.150000       12.0110           0
      3414 MEMB     26       POPC     H91      HEL1     0.150000       1.00800           0
      3415 MEMB     26       POPC     C210     CEL1    -0.150000       12.0110           0
      3416 MEMB     26       POPC     H101     HEL1     0.150000       1.00800           0
      3417 MEMB     26       POPC     C211     CTL2    -0.180000       12.0110           0
      3418 MEMB     26       POPC     H11R     HAL2     0.900000E-01   1.00800           0
      3419 MEMB     26       POPC     H11S     HAL2     0.900000E-01   1.00800           0
      3420 MEMB     26       POPC     C212     CTL2    -0.180000       12.0110           0
      3421 MEMB     26       POPC     H12R     HAL2     0.900000E-01   1.00800           0
      3422 MEMB     26       POPC     H12S     HAL2     0.900000E-01   1.00800           0
      3423 MEMB     26       POPC     C213     CTL2    -0.180000       12.0110           0
      3424 MEMB     26       POPC     H13R     HAL2     0.900000E-01   1.00800           0
      3425 MEMB     26       POPC     H13S     HAL2     0.900000E-01   1.00800           0
      3426 MEMB     26       POPC     C214     CTL2    -0.180000       12.0110           0
      3427 MEMB     26       POPC     H14R     HAL2     0.900000E-01   1.00800           0
      3428 MEMB     26       POPC     H14S     HAL2     0.900000E-01   1.00800           0
      3429 MEMB     26       POPC     C215     CTL2    -0.180000       12.0110           0
      3430 MEMB     26       POPC     H15R     HAL2     0.900000E-01   1.00800           0
      3431 MEMB     26       POPC     H15S     HAL2     0.900000E-01   1.00800           0
      3432 MEMB     26       POPC     C216     CTL2    -0.180000       12.0110           0
      3433 MEMB     26       POPC     H16R     HAL2     0.900000E-01   1.00800           0
      3434 MEMB     26       POPC     H16S     HAL2     0.900000E-01   1.00800           0
      3435 MEMB     26       POPC     C217     CTL2    -0.180000       12.0110           0
      3436 MEMB     26       POPC     H17R     HAL2     0.900000E-01   1.00800           0
      3437 MEMB     26       POPC     H17S     HAL2     0.900000E-01   1.00800           0
      3438 MEMB     26       POPC     C218     CTL3    -0.270000       12.0110           0
      3439 MEMB     26       POPC     H18R     HAL3     0.900000E-01   1.00800           0
      3440 MEMB     26       POPC     H18S     HAL3     0.900000E-01   1.00800           0
      3441 MEMB     26       POPC     H18T     HAL3     0.900000E-01   1.00800           0
      3442 MEMB     26       POPC     C33      CTL2    -0.180000       12.0110           0
      3443 MEMB     26       POPC     H3X      HAL2     0.900000E-01   1.00800           0
      3444 MEMB     26       POPC     H3Y      HAL2     0.900000E-01   1.00800           0
      3445 MEMB     26       POPC     C34      CTL2    -0.180000       12.0110           0
      3446 MEMB     26       POPC     H4X      HAL2     0.900000E-01   1.00800           0
      3447 MEMB     26       POPC     H4Y      HAL2     0.900000E-01   1.00800           0
      3448 MEMB     26       POPC     C35      CTL2    -0.180000       12.0110           0
      3449 MEMB     26       POPC     H5X      HAL2     0.900000E-01   1.00800           0
      3450 MEMB     26       POPC     H5Y      HAL2     0.900000E-01   1.00800           0
      3451 MEMB     26       POPC     C36      CTL2    -0.180000       12.0110           0
      3452 MEMB     26       POPC     H6X      HAL2     0.900000E-01   1.00800           0
      3453 MEMB     26       POPC     H6Y      HAL2     0.900000E-01   1.00800           0
      3454 MEMB     26       POPC     C37      CTL2    -0.180000       12.0110           0
      3455 MEMB     26       POPC     H7X      HAL2     0.900000E-01   1.00800           0
      3456 MEMB     26       POPC     H7Y      HAL2     0.900000E-01   1.00800           0
      3457 MEMB     26       POPC     C38      CTL2    -0.180000       12.0110           0
      3458 MEMB     26       POPC     H8X      HAL2     0.900000E-01   1.00800           0
      3459 MEMB     26       POPC     H8Y      HAL2     0.900000E-01   1.00800           0
      3460 MEMB     26       POPC     C39      CTL2    -0.180000       12.0110           0
      3461 MEMB     26       POPC     H9X      HAL2     0.900000E-01   1.00800           0
      3462 MEMB     26       POPC     H9Y      HAL2     0.900000E-01   1.00800           0
      3463 MEMB     26       POPC     C310     CTL2    -0.180000       12.0110           0
      3464 MEMB     26       POPC     H10X     HAL2     0.900000E-01   1.00800           0
      3465 MEMB     26       POPC     H10Y     HAL2     0.900000E-01   1.00800           0
      3466 MEMB     26       POPC     C311     CTL2    -0.180000       12.0110           0
      3467 MEMB     26       POPC     H11X     HAL2     0.900000E-01   1.00800           0
      3468 MEMB     26       POPC     H11Y     HAL2     0.900000E-01   1.00800           0
      3469 MEMB     26       POPC     C312     CTL2    -0.180000       12.0110           0
      3470 MEMB     26       POPC     H12X     HAL2     0.900000E-01   1.00800           0
      3471 MEMB     26       POPC     H12Y     HAL2     0.900000E-01   1.00800           0
      3472 MEMB     26       POPC     C313     CTL2    -0.180000       12.0110           0
      3473 MEMB     26       POPC     H13X     HAL2     0.900000E-01   1.00800           0
      3474 MEMB     26       POPC     H13Y     HAL2     0.900000E-01   1.00800           0
      3475 MEMB     26       POPC     C314     CTL2    -0.180000       12.0110           0
      3476 MEMB     26       POPC     H14X     HAL2     0.900000E-01   1.00800           0
      3477 MEMB     26       POPC     H14Y     HAL2     0.900000E-01   1.00800           0
      3478 MEMB     26       POPC     C315     CTL2    -0.180000       12.0110           0
      3479 MEMB     26       POPC     H15X     HAL2     0.900000E-01   1.00800           0
      3480 MEMB     26       POPC     H15Y     HAL2     0.900000E-01   1.00800           0
      3481 MEMB     26       POPC     C316     CTL3    -0.270000       12.0110           0
      3482 MEMB     26       POPC     H16X     HAL3     0.900000E-01   1.00800           0
      3483 MEMB     26       POPC     H16Y     HAL3     0.900000E-01   1.00800           0
      3484 MEMB     26       POPC     H16Z     HAL3     0.900000E-01   1.00800           0
      3485 MEMB     27       POPC     N        NTL     -0.600000       14.0070           0
      3486 MEMB     27       POPC     C12      CTL2    -0.100000       12.0110           0
      3487 MEMB     27       POPC     H12A     HL       0.250000       1.00800           0
      3488 MEMB     27       POPC     H12B     HL       0.250000       1.00800           0
      3489 MEMB     27       POPC     C13      CTL5    -0.350000       12.0110           0
      3490 MEMB     27       POPC     H13A     HL       0.250000       1.00800           0
      3491 MEMB     27       POPC     H13B     HL       0.250000       1.00800           0
      3492 MEMB     27       POPC     H13C     HL       0.250000       1.00800           0
      3493 MEMB     27       POPC     C14      CTL5    -0.350000       12.0110           0
      3494 MEMB     27       POPC     H14A     HL       0.250000       1.00800           0
      3495 MEMB     27       POPC     H14B     HL       0.250000       1.00800           0
      3496 MEMB     27       POPC     H14C     HL       0.250000       1.00800           0
      3497 MEMB     27       POPC     C15      CTL5    -0.350000       12.0110           0
      3498 MEMB     27       POPC     H15A     HL       0.250000       1.00800           0
      3499 MEMB     27       POPC     H15B     HL       0.250000       1.00800           0
      3500 MEMB     27       POPC     H15C     HL       0.250000       1.00800           0
      3501 MEMB     27       POPC     C11      CTL2    -0.800000E-01   12.0110           0
      3502 MEMB     27       POPC     H11A     HAL2     0.900000E-01   1.00800           0
      3503 MEMB     27       POPC     H11B     HAL2     0.900000E-01   1.00800           0
      3504 MEMB     27       POPC     P        PL       1.500000       30.9740           0
      3505 MEMB     27       POPC     O13      O2L     -0.780000       15.9994           0
      3506 MEMB     27       POPC     O14      O2L     -0.780000       15.9994           0
      3507 MEMB     27       POPC     O12      OSLP    -0.570000       15.9994           0
      3508 MEMB     27       POPC     O11      OSLP    -0.570000       15.9994           0
      3509 MEMB     27       POPC     C1       CTL2    -0.800000E-01   12.0110           0
      3510 MEMB     27       POPC     HA       HAL2     0.900000E-01   1.00800           0
      3511 MEMB     27       POPC     HB       HAL2     0.900000E-01   1.00800           0
      3512 MEMB     27       POPC     C2       CTL1     0.170000       12.0110           0
      3513 MEMB     27       POPC     HS       HAL1     0.900000E-01   1.00800           0
      3514 MEMB     27       POPC     O21      OSL     -0.490000       15.9994           0
      3515 MEMB     27       POPC     C21      CL       0.900000       12.0110           0
      3516 MEMB     27       POPC     O22      OBL     -0.630000       15.9994           0
      3517 MEMB     27       POPC     C22      CTL2    -0.220000       12.0110           0
      3518 MEMB     27       POPC     H2R      HAL2     0.900000E-01   1.00800           0
      3519 MEMB     27       POPC     H2S      HAL2     0.900000E-01   1.00800           0
      3520 MEMB     27       POPC     C3       CTL2     0.800000E-01   12.0110           0
      3521 MEMB     27       POPC     HX       HAL2     0.900000E-01   1.00800           0
      3522 MEMB     27       POPC     HY       HAL2     0.900000E-01   1.00800           0
      3523 MEMB     27       POPC     O31      OSL     -0.490000       15.9994           0
      3524 MEMB     27       POPC     C31      CL       0.900000       12.0110           0
      3525 MEMB     27       POPC     O32      OBL     -0.630000       15.9994           0
      3526 MEMB     27       POPC     C32      CTL2    -0.220000       12.0110           0
      3527 MEMB     27       POPC     H2X      HAL2     0.900000E-01   1.00800           0
      3528 MEMB     27       POPC     H2Y      HAL2     0.900000E-01   1.00800           0
      3529 MEMB     27       POPC     C23      CTL2    -0.180000       12.0110           0
      3530 MEMB     27       POPC     H3R      HAL2     0.900000E-01   1.00800           0
      3531 MEMB     27       POPC     H3S      HAL2     0.900000E-01   1.00800           0
      3532 MEMB     27       POPC     C24      CTL2    -0.180000       12.0110           0
      3533 MEMB     27       POPC     H4R      HAL2     0.900000E-01   1.00800           0
      3534 MEMB     27       POPC     H4S      HAL2     0.900000E-01   1.00800           0
      3535 MEMB     27       POPC     C25      CTL2    -0.180000       12.0110           0
      3536 MEMB     27       POPC     H5R      HAL2     0.900000E-01   1.00800           0
      3537 MEMB     27       POPC     H5S      HAL2     0.900000E-01   1.00800           0
      3538 MEMB     27       POPC     C26      CTL2    -0.180000       12.0110           0
      3539 MEMB     27       POPC     H6R      HAL2     0.900000E-01   1.00800           0
      3540 MEMB     27       POPC     H6S      HAL2     0.900000E-01   1.00800           0
      3541 MEMB     27       POPC     C27      CTL2    -0.180000       12.0110           0
      3542 MEMB     27       POPC     H7R      HAL2     0.900000E-01   1.00800           0
      3543 MEMB     27       POPC     H7S      HAL2     0.900000E-01   1.00800           0
      3544 MEMB     27       POPC     C28      CTL2    -0.180000       12.0110           0
      3545 MEMB     27       POPC     H8R      HAL2     0.900000E-01   1.00800           0
      3546 MEMB     27       POPC     H8S      HAL2     0.900000E-01   1.00800           0
      3547 MEMB     27       POPC     C29      CEL1    -0.150000       12.0110           0
      3548 MEMB     27       POPC     H91      HEL1     0.150000       1.00800           0
      3549 MEMB     27       POPC     C210     CEL1    -0.150000       12.0110           0
      3550 MEMB     27       POPC     H101     HEL1     0.150000       1.00800           0
      3551 MEMB     27       POPC     C211     CTL2    -0.180000       12.0110           0
      3552 MEMB     27       POPC     H11R     HAL2     0.900000E-01   1.00800           0
      3553 MEMB     27       POPC     H11S     HAL2     0.900000E-01   1.00800           0
      3554 MEMB     27       POPC     C212     CTL2    -0.180000       12.0110           0
      3555 MEMB     27       POPC     H12R     HAL2     0.900000E-01   1.00800           0
      3556 MEMB     27       POPC     H12S     HAL2     0.900000E-01   1.00800           0
      3557 MEMB     27       POPC     C213     CTL2    -0.180000       12.0110           0
      3558 MEMB     27       POPC     H13R     HAL2     0.900000E-01   1.00800           0
      3559 MEMB     27       POPC     H13S     HAL2     0.900000E-01   1.00800           0
      3560 MEMB     27       POPC     C214     CTL2    -0.180000       12.0110           0
      3561 MEMB     27       POPC     H14R     HAL2     0.900000E-01   1.00800           0
      3562 MEMB     27       POPC     H14S     HAL2     0.900000E-01   1.00800           0
      3563 MEMB     27       POPC     C215     CTL2    -0.180000       12.0110           0
      3564 MEMB     27       POPC     H15R     HAL2     0.900000E-01   1.00800           0
      3565 MEMB     27       POPC     H15S     HAL2     0.900000E-01   1.00800           0
      3566 MEMB     27       POPC     C216     CTL2    -0.180000       12.0110           0
      3567 MEMB     27       POPC     H16R     HAL2     0.900000E-01   1.00800           0
      3568 MEMB     27       POPC     H16S     HAL2     0.900000E-01   1.00800           0
      3569 MEMB     27       POPC     C217     CTL2    -0.180000       12.0110           0
      3570 MEMB     27       POPC     H17R     HAL2     0.900000E-01   1.00800           0
      3571 MEMB     27       POPC     H17S     HAL2     0.900000E-01   1.00800           0
      3572 MEMB     27       POPC     C218     CTL3    -0.270000       12.0110           0
      3573 MEMB     27       POPC     H18R     HAL3     0.900000E-01   1.00800           0
      3574 MEMB     27       POPC     H18S     HAL3     0.900000E-01   1.00800           0
      3575 MEMB     27       POPC     H18T     HAL3     0.900000E-01   1.00800           0
      3576 MEMB     27       POPC     C33      CTL2    -0.180000       12.0110           0
      3577 MEMB     27       POPC     H3X      HAL2     0.900000E-01   1.00800           0
      3578 MEMB     27       POPC     H3Y      HAL2     0.900000E-01   1.00800           0
      3579 MEMB     27       POPC     C34      CTL2    -0.180000       12.0110           0
      3580 MEMB     27       POPC     H4X      HAL2     0.900000E-01   1.00800           0
      3581 MEMB     27       POPC     H4Y      HAL2     0.900000E-01   1.00800           0
      3582 MEMB     27       POPC     C35      CTL2    -0.180000       12.0110           0
      3583 MEMB     27       POPC     H5X      HAL2     0.900000E-01   1.00800           0
      3584 MEMB     27       POPC     H5Y      HAL2     0.900000E-01   1.00800           0
      3585 MEMB     27       POPC     C36      CTL2    -0.180000       12.0110           0
      3586 MEMB     27       POPC     H6X      HAL2     0.900000E-01   1.00800           0
      3587 MEMB     27       POPC     H6Y      HAL2     0.900000E-01   1.00800           0
      3588 MEMB     27       POPC     C37      CTL2    -0.180000       12.0110           0
      3589 MEMB     27       POPC     H7X      HAL2     0.900000E-01   1.00800           0
      3590 MEMB     27       POPC     H7Y      HAL2     0.900000E-01   1.00800           0
      3591 MEMB     27       POPC     C38      CTL2    -0.180000       12.0110           0
      3592 MEMB     27       POPC     H8X      HAL2     0.900000E-01   1.00800           0
      3593 MEMB     27       POPC     H8Y      HAL2     0.900000E-01   1.00800           0
      3594 MEMB     27       POPC     C39      CTL2    -0.180000       12.0110           0
      3595 MEMB     27       POPC     H9X      HAL2     0.900000E-01   1.00800           0
      3596 MEMB     27       POPC     H9Y      HAL2     0.900000E-01   1.00800           0
      3597 MEMB     27       POPC     C310     CTL2    -0.180000       12.0110           0
      3598 MEMB     27       POPC     H10X     HAL2     0.900000E-01   1.00800           0
      3599 MEMB     27       POPC     H10Y     HAL2     0.900000E-01   1.00800           0
      3600 MEMB     27       POPC     C311     CTL2    -0.180000       12.0110           0
      3601 MEMB     27       POPC     H11X     HAL2     0.900000E-01   1.00800           0
      3602 MEMB     27       POPC     H11Y     HAL2     0.900000E-01   1.00800           0
      3603 MEMB     27       POPC     C312     CTL2    -0.180000       12.0110           0
      3604 MEMB     27       POPC     H12X     HAL2     0.900000E-01   1.00800           0
      3605 MEMB     27       POPC     H12Y     HAL2     0.900000E-01   1.00800           0
      3606 MEMB     27       POPC     C313     CTL2    -0.180000       12.0110           0
      3607 MEMB     27       POPC     H13X     HAL2     0.900000E-01   1.00800           0
      3608 MEMB     27       POPC     H13Y     HAL2     0.900000E-01   1.00800           0
      3609 MEMB     27       POPC     C314     CTL2    -0.180000       12.0110           0
      3610 MEMB     27       POPC     H14X     HAL2     0.900000E-01   1.00800           0
      3611 MEMB     27       POPC     H14Y     HAL2     0.900000E-01   1.00800           0
      3612 MEMB     27       POPC     C315     CTL2    -0.180000       12.0110           0
      3613 MEMB     27       POPC     H15X     HAL2     0.900000E-01   1.00800           0
      3614 MEMB     27       POPC     H15Y     HAL2     0.900000E-01   1.00800           0
      3615 MEMB     27       POPC     C316     CTL3    -0.270000       12.0110           0
      3616 MEMB     27       POPC     H16X     HAL3     0.900000E-01   1.00800           0
      3617 MEMB     27       POPC     H16Y     HAL3     0.900000E-01   1.00800           0
      3618 MEMB     27       POPC     H16Z     HAL3     0.900000E-01   1.00800           0
      3619 MEMB     28       POPC     N        NTL     -0.600000       14.0070           0
      3620 MEMB     28       POPC     C12      CTL2    -0.100000       12.0110           0
      3621 MEMB     28       POPC     H12A     HL       0.250000       1.00800           0
      3622 MEMB     28       POPC     H12B     HL       0.250000       1.00800           0
      3623 MEMB     28       POPC     C13      CTL5    -0.350000       12.0110           0
      3624 MEMB     28       POPC     H13A     HL       0.250000       1.00800           0
      3625 MEMB     28       POPC     H13B     HL       0.250000       1.00800           0
      3626 MEMB     28       POPC     H13C     HL       0.250000       1.00800           0
      3627 MEMB     28       POPC     C14      CTL5    -0.350000       12.0110           0
      3628 MEMB     28       POPC     H14A     HL       0.250000       1.00800           0
      3629 MEMB     28       POPC     H14B     HL       0.250000       1.00800           0
      3630 MEMB     28       POPC     H14C     HL       0.250000       1.00800           0
      3631 MEMB     28       POPC     C15      CTL5    -0.350000       12.0110           0
      3632 MEMB     28       POPC     H15A     HL       0.250000       1.00800           0
      3633 MEMB     28       POPC     H15B     HL       0.250000       1.00800           0
      3634 MEMB     28       POPC     H15C     HL       0.250000       1.00800           0
      3635 MEMB     28       POPC     C11      CTL2    -0.800000E-01   12.0110           0
      3636 MEMB     28       POPC     H11A     HAL2     0.900000E-01   1.00800           0
      3637 MEMB     28       POPC     H11B     HAL2     0.900000E-01   1.00800           0
      3638 MEMB     28       POPC     P        PL       1.500000       30.9740           0
      3639 MEMB     28       POPC     O13      O2L     -0.780000       15.9994           0
      3640 MEMB     28       POPC     O14      O2L     -0.780000       15.9994           0
      3641 MEMB     28       POPC     O12      OSLP    -0.570000       15.9994           0
      3642 MEMB     28       POPC     O11      OSLP    -0.570000       15.9994           0
      3643 MEMB     28       POPC     C1       CTL2    -0.800000E-01   12.0110           0
      3644 MEMB     28       POPC     HA       HAL2     0.900000E-01   1.00800           0
      3645 MEMB     28       POPC     HB       HAL2     0.900000E-01   1.00800           0
      3646 MEMB     28       POPC     C2       CTL1     0.170000       12.0110           0
      3647 MEMB     28       POPC     HS       HAL1     0.900000E-01   1.00800           0
      3648 MEMB     28       POPC     O21      OSL     -0.490000       15.9994           0
      3649 MEMB     28       POPC     C21      CL       0.900000       12.0110           0
      3650 MEMB     28       POPC     O22      OBL     -0.630000       15.9994           0
      3651 MEMB     28       POPC     C22      CTL2    -0.220000       12.0110           0
      3652 MEMB     28       POPC     H2R      HAL2     0.900000E-01   1.00800           0
      3653 MEMB     28       POPC     H2S      HAL2     0.900000E-01   1.00800           0
      3654 MEMB     28       POPC     C3       CTL2     0.800000E-01   12.0110           0
      3655 MEMB     28       POPC     HX       HAL2     0.900000E-01   1.00800           0
      3656 MEMB     28       POPC     HY       HAL2     0.900000E-01   1.00800           0
      3657 MEMB     28       POPC     O31      OSL     -0.490000       15.9994           0
      3658 MEMB     28       POPC     C31      CL       0.900000       12.0110           0
      3659 MEMB     28       POPC     O32      OBL     -0.630000       15.9994           0
      3660 MEMB     28       POPC     C32      CTL2    -0.220000       12.0110           0
      3661 MEMB     28       POPC     H2X      HAL2     0.900000E-01   1.00800           0
      3662 MEMB     28       POPC     H2Y      HAL2     0.900000E-01   1.00800           0
      3663 MEMB     28       POPC     C23      CTL2    -0.180000       12.0110           0
      3664 MEMB     28       POPC     H3R      HAL2     0.900000E-01   1.00800           0
      3665 MEMB     28       POPC     H3S      HAL2     0.900000E-01   1.00800           0
      3666 MEMB     28       POPC     C24      CTL2    -0.180000       12.0110           0
      3667 MEMB     28       POPC     H4R      HAL2     0.900000E-01   1.00800           0
      3668 MEMB     28       POPC     H4S      HAL2     0.900000E-01   1.00800           0
      3669 MEMB     28       POPC     C25      CTL2    -0.180000       12.0110           0
      3670 MEMB     28       POPC     H5R      HAL2     0.900000E-01   1.00800           0
      3671 MEMB     28       POPC     H5S      HAL2     0.900000E-01   1.00800           0
      3672 MEMB     28       POPC     C26      CTL2    -0.180000       12.0110           0
      3673 MEMB     28       POPC     H6R      HAL2     0.900000E-01   1.00800           0
      3674 MEMB     28       POPC     H6S      HAL2     0.900000E-01   1.00800           0
      3675 MEMB     28       POPC     C27      CTL2    -0.180000       12.0110           0
      3676 MEMB     28       POPC     H7R      HAL2     0.900000E-01   1.00800           0
      3677 MEMB     28       POPC     H7S      HAL2     0.900000E-01   1.00800           0
      3678 MEMB     28       POPC     C28      CTL2    -0.180000       12.0110           0
      3679 MEMB     28       POPC     H8R      HAL2     0.900000E-01   1.00800           0
      3680 MEMB     28       POPC     H8S      HAL2     0.900000E-01   1.00800           0
      3681 MEMB     28       POPC     C29      CEL1    -0.150000       12.0110           0
      3682 MEMB     28       POPC     H91      HEL1     0.150000       1.00800           0
      3683 MEMB     28       POPC     C210     CEL1    -0.150000       12.0110           0
      3684 MEMB     28       POPC     H101     HEL1     0.150000       1.00800           0
      3685 MEMB     28       POPC     C211     CTL2    -0.180000       12.0110           0
      3686 MEMB     28       POPC     H11R     HAL2     0.900000E-01   1.00800           0
      3687 MEMB     28       POPC     H11S     HAL2     0.900000E-01   1.00800           0
      3688 MEMB     28       POPC     C212     CTL2    -0.180000       12.0110           0
      3689 MEMB     28       POPC     H12R     HAL2     0.900000E-01   1.00800           0
      3690 MEMB     28       POPC     H12S     HAL2     0.900000E-01   1.00800           0
      3691 MEMB     28       POPC     C213     CTL2    -0.180000       12.0110           0
      3692 MEMB     28       POPC     H13R     HAL2     0.900000E-01   1.00800           0
      3693 MEMB     28       POPC     H13S     HAL2     0.900000E-01   1.00800           0
      3694 MEMB     28       POPC     C214     CTL2    -0.180000       12.0110           0
      3695 MEMB     28       POPC     H14R     HAL2     0.900000E-01   1.00800           0
      3696 MEMB     28       POPC     H14S     HAL2     0.900000E-01   1.00800           0
      3697 MEMB     28       POPC     C215     CTL2    -0.180000       12.0110           0
      3698 MEMB     28       POPC     H15R     HAL2     0.900000E-01   1.00800           0
      3699 MEMB     28       POPC     H15S     HAL2     0.900000E-01   1.00800           0
      3700 MEMB     28       POPC     C216     CTL2    -0.180000       12.0110           0
      3701 MEMB     28       POPC     H16R     HAL2     0.900000E-01   1.00800           0
      3702 MEMB     28       POPC     H16S     HAL2     0.900000E-01   1.00800           0
      3703 MEMB     28       POPC     C217     CTL2    -0.180000       12.0110           0
      3704 MEMB     28       POPC     H17R     HAL2     0.900000E-01   1.00800           0
      3705 MEMB     28       POPC     H17S     HAL2     0.900000E-01   1.00800           0
      3706 MEMB     28       POPC     C218     CTL3    -0.270000       12.0110           0
      3707 MEMB     28       POPC     H18R     HAL3     0.900000E-01   1.00800           0
      3708 MEMB     28       POPC     H18S     HAL3     0.900000E-01   1.00800           0
      3709 MEMB     28       POPC     H18T     HAL3     0.900000E-01   1.00800           0
      3710 MEMB     28       POPC     C33      CTL2    -0.180000       12.0110           0
      3711 MEMB     28       POPC     H3X      HAL2     0.900000E-01   1.00800           0
      3712 MEMB     28       POPC     H3Y      HAL2     0.900000E-01   1.00800           0
      3713 MEMB     28       POPC     C34      CTL2    -0.180000       12.0110           0
      3714 MEMB     28       POPC     H4X      HAL2     0.900000E-01   1.00800           0
      3715 MEMB     28       POPC     H4Y      HAL2     0.900000E-01   1.00800           0
      3716 MEMB     28       POPC     C35      CTL2    -0.180000       12.0110           0
      3717 MEMB     28       POPC     H5X      HAL2     0.900000E-01   1.00800           0
      3718 MEMB     28       POPC     H5Y      HAL2     0.900000E-01   1.00800           0
      3719 MEMB     28       POPC     C36      CTL2    -0.180000       12.0110           0
      3720 MEMB     28       POPC     H6X      HAL2     0.900000E-01   1.00800           0
      3721 MEMB     28       POPC     H6Y      HAL2     0.900000E-01   1.00800           0
      3722 MEMB     28       POPC     C37      CTL2    -0.180000       12.0110           0
      3723 MEMB     28       POPC     H7X      HAL2     0.900000E-01   1.00800           0
      3724 MEMB     28       POPC     H7Y      HAL2     0.900000E-01   1.00800           0
      3725 MEMB     28       POPC     C38      CTL2    -0.180000       12.0110           0
      3726 MEMB     28       POPC     H8X      HAL2     0.900000E-01   1.00800           0
      3727 MEMB     28       POPC     H8Y      HAL2     0.900000E-01   1.00800           0
      3728 MEMB     28       POPC     C39      CTL2    -0.180000       12.0110           0
      3729 MEMB     28       POPC     H9X      HAL2     0.900000E-01   1.00800           0
      3730 MEMB     28       POPC     H9Y      HAL2     0.900000E-01   1.00800           0
      3731 MEMB     28       POPC     C310     CTL2    -0.180000       12.0110           0
      3732 MEMB     28       POPC     H10X     HAL2     0.900000E-01   1.00800           0
      3733 MEMB     28       POPC     H10Y     HAL2     0.900000E-01   1.00800           0
      3734 MEMB     28       POPC     C311     CTL2    -0.180000       12.0110           0
      3735 MEMB     28       POPC     H11X     HAL2     0.900000E-01   1.00800           0
      3736 MEMB     28       POPC     H11Y     HAL2     0.900000E-01   1.00800           0
      3737 MEMB     28       POPC     C312     CTL2    -0.180000       12.0110           0
      3738 MEMB     28       POPC     H12X     HAL2     0.900000E-01   1.00800           0
      3739 MEMB     28       POPC     H12Y     HAL2     0.900000E-01   1.00800           0
      3740 MEMB     28       POPC     C313     CTL2    -0.180000       12.0110           0
      3741 MEMB     28       POPC     H13X     HAL2     0.900000E-01   1.00800           0
      3742 MEMB     28       POPC     H13Y     HAL2     0.900000E-01   1.00800           0
      3743 MEMB     28       POPC     C314     CTL2    -0.180000       12.0110           0
      3744 MEMB     28       POPC     H14X     HAL2     0.900000E-01   1.00800           0
      3745 MEMB     28       POPC     H14Y     HAL2     0.900000E-01   1.00800           0
      3746 MEMB     28       POPC     C315     CTL2    -0.180000       12.0110           0
      3747 MEMB     28       POPC     H15X     HAL2     0.900000E-01   1.00800           0
      3748 MEMB     28       POPC     H15Y     HAL2     0.900000E-01   1.00800           0
      3749 MEMB     28       POPC     C316     CTL3    -0.270000       12.0110           0
      3750 MEMB     28       POPC     H16X     HAL3     0.900000E-01   1.00800           0
      3751 MEMB     28       POPC     H16Y     HAL3     0.900000E-01   1.00800           0
      3752 MEMB     28       POPC     H16Z     HAL3     0.900000E-01   1.00800           0
      3753 MEMB     29       POPC     N        NTL     -0.600000       14.0070           0
      3754 MEMB     29       POPC     C12      CTL2    -0.100000       12.0110           0
      3755 MEMB     29       POPC     H12A     HL       0.250000       1.00800           0
      3756 MEMB     29       POPC     H12B     HL       0.250000       1.00800           0
      3757 MEMB     29       POPC     C13      CTL5    -0.350000       12.0110           0
      3758 MEMB     29       POPC     H13A     HL       0.250000       1.00800           0
      3759 MEMB     29       POPC     H13B     HL       0.250000       1.00800           0
      3760 MEMB     29       POPC     H13C     HL       0.250000       1.00800           0
      3761 MEMB     29       POPC     C14      CTL5    -0.350000       12.0110           0
      3762 MEMB     29       POPC     H14A     HL       0.250000       1.00800           0
      3763 MEMB     29       POPC     H14B     HL       0.250000       1.00800           0
      3764 MEMB     29       POPC     H14C     HL       0.250000       1.00800           0
      3765 MEMB     29       POPC     C15      CTL5    -0.350000       12.0110           0
      3766 MEMB     29       POPC     H15A     HL       0.250000       1.00800           0
      3767 MEMB     29       POPC     H15B     HL       0.250000       1.00800           0
      3768 MEMB     29       POPC     H15C     HL       0.250000       1.00800           0
      3769 MEMB     29       POPC     C11      CTL2    -0.800000E-01   12.0110           0
      3770 MEMB     29       POPC     H11A     HAL2     0.900000E-01   1.00800           0
      3771 MEMB     29       POPC     H11B     HAL2     0.900000E-01   1.00800           0
      3772 MEMB     29       POPC     P        PL       1.500000       30.9740           0
      3773 MEMB     29       POPC     O13      O2L     -0.780000       15.9994           0
      3774 MEMB     29       POPC     O14      O2L     -0.780000       15.9994           0
      3775 MEMB     29       POPC     O12      OSLP    -0.570000       15.9994           0
      3776 MEMB     29       POPC     O11      OSLP    -0.570000       15.9994           0
      3777 MEMB     29       POPC     C1       CTL2    -0.800000E-01   12.0110           0
      3778 MEMB     29       POPC     HA       HAL2     0.900000E-01   1.00800           0
      3779 MEMB     29       POPC     HB       HAL2     0.900000E-01   1.00800           0
      3780 MEMB     29       POPC     C2       CTL1     0.170000       12.0110           0
      3781 MEMB     29       POPC     HS       HAL1     0.900000E-01   1.00800           0
      3782 MEMB     29       POPC     O21      OSL     -0.490000       15.9994           0
      3783 MEMB     29       POPC     C21      CL       0.900000       12.0110           0
      3784 MEMB     29       POPC     O22      OBL     -0.630000       15.9994           0
      3785 MEMB     29       POPC     C22      CTL2    -0.220000       12.0110           0
      3786 MEMB     29       POPC     H2R      HAL2     0.900000E-01   1.00800           0
      3787 MEMB     29       POPC     H2S      HAL2     0.900000E-01   1.00800           0
      3788 MEMB     29       POPC     C3       CTL2     0.800000E-01   12.0110           0
      3789 MEMB     29       POPC     HX       HAL2     0.900000E-01   1.00800           0
      3790 MEMB     29       POPC     HY       HAL2     0.900000E-01   1.00800           0
      3791 MEMB     29       POPC     O31      OSL     -0.490000       15.9994           0
      3792 MEMB     29       POPC     C31      CL       0.900000       12.0110           0
      3793 MEMB     29       POPC     O32      OBL     -0.630000       15.9994           0
      3794 MEMB     29       POPC     C32      CTL2    -0.220000       12.0110           0
      3795 MEMB     29       POPC     H2X      HAL2     0.900000E-01   1.00800           0
      3796 MEMB     29       POPC     H2Y      HAL2     0.900000E-01   1.00800           0
      3797 MEMB     29       POPC     C23      CTL2    -0.180000       12.0110           0
      3798 MEMB     29       POPC     H3R      HAL2     0.900000E-01   1.00800           0
      3799 MEMB     29       POPC     H3S      HAL2     0.900000E-01   1.00800           0
      3800 MEMB     29       POPC     C24      CTL2    -0.180000       12.0110           0
      3801 MEMB     29       POPC     H4R      HAL2     0.900000E-01   1.00800           0
      3802 MEMB     29       POPC     H4S      HAL2     0.900000E-01   1.00800           0
      3803 MEMB     29       POPC     C25      CTL2    -0.180000       12.0110           0
      3804 MEMB     29       POPC     H5R      HAL2     0.900000E-01   1.00800           0
      3805 MEMB     29       POPC     H5S      HAL2     0.900000E-01   1.00800           0
      3806 MEMB     29       POPC     C26      CTL2    -0.180000       12.0110           0
      3807 MEMB     29       POPC     H6R      HAL2     0.900000E-01   1.00800           0
      3808 MEMB     29       POPC     H6S      HAL2     0.900000E-01   1.00800           0
      3809 MEMB     29       POPC     C27      CTL2    -0.180000       12.0110           0
      3810 MEMB     29       POPC     H7R      HAL2     0.900000E-01   1.00800           0
      3811 MEMB     29       POPC     H7S      HAL2     0.900000E-01   1.00800           0
      3812 MEMB     29       POPC     C28      CTL2    -0.180000       12.0110           0
      3813 MEMB     29       POPC     H8R      HAL2     0.900000E-01   1.00800           0
      3814 MEMB     29       POPC     H8S      HAL2     0.900000E-01   1.00800           0
      3815 MEMB     29       POPC     C29      CEL1    -0.150000       12.0110           0
      3816 MEMB     29       POPC     H91      HEL1     0.150000       1.00800           0
      3817 MEMB     29       POPC     C210     CEL1    -0.150000       12.0110           0
      3818 MEMB     29       POPC     H101     HEL1     0.150000       1.00800           0
      3819 MEMB     29       POPC     C211     CTL2    -0.180000       12.0110           0
      3820 MEMB     29       POPC     H11R     HAL2     0.900000E-01   1.00800           0
      3821 MEMB     29       POPC     H11S     HAL2     0.900000E-01   1.00800           0
      3822 MEMB     29       POPC     C212     CTL2    -0.180000       12.0110           0
      3823 MEMB     29       POPC     H12R     HAL2     0.900000E-01   1.00800           0
      3824 MEMB     29       POPC     H12S     HAL2     0.900000E-01   1.00800           0
      3825 MEMB     29       POPC     C213     CTL2    -0.180000       12.0110           0
      3826 MEMB     29       POPC     H13R     HAL2     0.900000E-01   1.00800           0
      3827 MEMB     29       POPC     H13S     HAL2     0.900000E-01   1.00800           0
      3828 MEMB     29       POPC     C214     CTL2    -0.180000       12.0110           0
      3829 MEMB     29       POPC     H14R     HAL2     0.900000E-01   1.00800           0
      3830 MEMB     29       POPC     H14S     HAL2     0.900000E-01   1.00800           0
      3831 MEMB     29       POPC     C215     CTL2    -0.180000       12.0110           0
      3832 MEMB     29       POPC     H15R     HAL2     0.900000E-01   1.00800           0
      3833 MEMB     29       POPC     H15S     HAL2     0.900000E-01   1.00800           0
      3834 MEMB     29       POPC     C216     CTL2    -0.180000       12.0110           0
      3835 MEMB     29       POPC     H16R     HAL2     0.900000E-01   1.00800           0
      3836 MEMB     29       POPC     H16S     HAL2     0.900000E-01   1.00800           0
      3837 MEMB     29       POPC     C217     CTL2    -0.180000       12.0110           0
      3838 MEMB     29       POPC     H17R     HAL2     0.900000E-01   1.00800           0
      3839 MEMB     29       POPC     H17S     HAL2     0.900000E-01   1.00800           0
      3840 MEMB     29       POPC     C218     CTL3    -0.270000       12.0110           0
      3841 MEMB     29       POPC     H18R     HAL3     0.900000E-01   1.00800           0
      3842 MEMB     29       POPC     H18S     HAL3     0.900000E-01   1.00800           0
      3843 MEMB     29       POPC     H18T     HAL3     0.900000E-01   1.00800           0
      3844 MEMB     29       POPC     C33      CTL2    -0.180000       12.0110           0
      3845 MEMB     29       POPC     H3X      HAL2     0.900000E-01   1.00800           0
      3846 MEMB     29       POPC     H3Y      HAL2     0.900000E-01   1.00800           0
      3847 MEMB     29       POPC     C34      CTL2    -0.180000       12.0110           0
      3848 MEMB     29       POPC     H4X      HAL2     0.900000E-01   1.00800           0
      3849 MEMB     29       POPC     H4Y      HAL2     0.900000E-01   1.00800           0
      3850 MEMB     29       POPC     C35      CTL2    -0.180000       12.0110           0
      3851 MEMB     29       POPC     H5X      HAL2     0.900000E-01   1.00800           0
      3852 MEMB     29       POPC     H5Y      HAL2     0.900000E-01   1.00800           0
      3853 MEMB     29       POPC     C36      CTL2    -0.180000       12.0110           0
      3854 MEMB     29       POPC     H6X      HAL2     0.900000E-01   1.00800           0
      3855 MEMB     29       POPC     H6Y      HAL2     0.900000E-01   1.00800           0
      3856 MEMB     29       POPC     C37      CTL2    -0.180000       12.0110           0
      3857 MEMB     29       POPC     H7X      HAL2     0.900000E-01   1.00800           0
      3858 MEMB     29       POPC     H7Y      HAL2     0.900000E-01   1.00800           0
      3859 MEMB     29       POPC     C38      CTL2    -0.180000       12.0110           0
      3860 MEMB     29       POPC     H8X      HAL2     0.900000E-01   1.00800           0
      3861 MEMB     29       POPC     H8Y      HAL2     0.900000E-01   1.00800           0
      3862 MEMB     29       POPC     C39      CTL2    -0.180000       12.0110           0
      3863 MEMB     29       POPC     H9X      HAL2     0.900000E-01   1.00800           0
      3864 MEMB     29       POPC     H9Y      HAL2     0.900000E-01   1.00800           0
      3865 MEMB     29       POPC     C310     CTL2    -0.180000       12.0110           0
      3866 MEMB     29       POPC     H10X     HAL2     0.900000E-01   1.00800           0
      3867 MEMB     29       POPC     H10Y     HAL2     0.900000E-01   1.00800           0
      3868 MEMB     29       POPC     C311     CTL2    -0.180000       12.0110           0
      3869 MEMB     29       POPC     H11X     HAL2     0.900000E-01   1.00800           0
      3870 MEMB     29       POPC     H11Y     HAL2     0.900000E-01   1.00800           0
      3871 MEMB     29       POPC     C312     CTL2    -0.180000       12.0110           0
      3872 MEMB     29       POPC     H12X     HAL2     0.900000E-01   1.00800           0
      3873 MEMB     29       POPC     H12Y     HAL2     0.900000E-01   1.00800           0
      3874 MEMB     29       POPC     C313     CTL2    -0.180000       12.0110           0
      3875 MEMB     29       POPC     H13X     HAL2     0.900000E-01   1.00800           0
      3876 MEMB     29       POPC     H13Y     HAL2     0.900000E-01   1.00800           0
      3877 MEMB     29       POPC     C314     CTL2    -0.180000       12.0110           0
      3878 MEMB     29       POPC     H14X     HAL2     0.900000E-01   1.00800           0
      3879 MEMB     29       POPC     H14Y     HAL2     0.900000E-01   1.00800           0
      3880 MEMB     29       POPC     C315     CTL2    -0.180000       12.0110           0
      3881 MEMB     29       POPC     H15X     HAL2     0.900000E-01   1.00800           0
      3882 MEMB     29       POPC     H15Y     HAL2     0.900000E-01   1.00800           0
      3883 MEMB     29       POPC     C316     CTL3    -0.270000       12.0110           0
      3884 MEMB     29       POPC     H16X     HAL3     0.900000E-01   1.00800           0
      3885 MEMB     29       POPC     H16Y     HAL3     0.900000E-01   1.00800           0
      3886 MEMB     29       POPC     H16Z     HAL3     0.900000E-01   1.00800           0
      3887 MEMB     30       POPC     N        NTL     -0.600000       14.0070           0
      3888 MEMB     30       POPC     C12      CTL2    -0.100000       12.0110           0
      3889 MEMB     30       POPC     H12A     HL       0.250000       1.00800           0
      3890 MEMB     30       POPC     H12B     HL       0.250000       1.00800           0
      3891 MEMB     30       POPC     C13      CTL5    -0.350000       12.0110           0
      3892 MEMB     30       POPC     H13A     HL       0.250000       1.00800           0
      3893 MEMB     30       POPC     H13B     HL       0.250000       1.00800           0
      3894 MEMB     30       POPC     H13C     HL       0.250000       1.00800           0
      3895 MEMB     30       POPC     C14      CTL5    -0.350000       12.0110           0
      3896 MEMB     30       POPC     H14A     HL       0.250000       1.00800           0
      3897 MEMB     30       POPC     H14B     HL       0.250000       1.00800           0
      3898 MEMB     30       POPC     H14C     HL       0.250000       1.00800           0
      3899 MEMB     30       POPC     C15      CTL5    -0.350000       12.0110           0
      3900 MEMB     30       POPC     H15A     HL       0.250000       1.00800           0
      3901 MEMB     30       POPC     H15B     HL       0.250000       1.00800           0
      3902 MEMB     30       POPC     H15C     HL       0.250000       1.00800           0
      3903 MEMB     30       POPC     C11      CTL2    -0.800000E-01   12.0110           0
      3904 MEMB     30       POPC     H11A     HAL2     0.900000E-01   1.00800           0
      3905 MEMB     30       POPC     H11B     HAL2     0.900000E-01   1.00800           0
      3906 MEMB     30       POPC     P        PL       1.500000       30.9740           0
      3907 MEMB     30       POPC     O13      O2L     -0.780000       15.9994           0
      3908 MEMB     30       POPC     O14      O2L     -0.780000       15.9994           0
      3909 MEMB     30       POPC     O12      OSLP    -0.570000       15.9994           0
      3910 MEMB     30       POPC     O11      OSLP    -0.570000       15.9994           0
      3911 MEMB     30       POPC     C1       CTL2    -0.800000E-01   12.0110           0
      3912 MEMB     30       POPC     HA       HAL2     0.900000E-01   1.00800           0
      3913 MEMB     30       POPC     HB       HAL2     0.900000E-01   1.00800           0
      3914 MEMB     30       POPC     C2       CTL1     0.170000       12.0110           0
      3915 MEMB     30       POPC     HS       HAL1     0.900000E-01   1.00800           0
      3916 MEMB     30       POPC     O21      OSL     -0.490000       15.9994           0
      3917 MEMB     30       POPC     C21      CL       0.900000       12.0110           0
      3918 MEMB     30       POPC     O22      OBL     -0.630000       15.9994           0
      3919 MEMB     30       POPC     C22      CTL2    -0.220000       12.0110           0
      3920 MEMB     30       POPC     H2R      HAL2     0.900000E-01   1.00800           0
      3921 MEMB     30       POPC     H2S      HAL2     0.900000E-01   1.00800           0
      3922 MEMB     30       POPC     C3       CTL2     0.800000E-01   12.0110           0
      3923 MEMB     30       POPC     HX       HAL2     0.900000E-01   1.00800           0
      3924 MEMB     30       POPC     HY       HAL2     0.900000E-01   1.00800           0
      3925 MEMB     30       POPC     O31      OSL     -0.490000       15.9994           0
      3926 MEMB     30       POPC     C31      CL       0.900000       12.0110           0
      3927 MEMB     30       POPC     O32      OBL     -0.630000       15.9994           0
      3928 MEMB     30       POPC     C32      CTL2    -0.220000       12.0110           0
      3929 MEMB     30       POPC     H2X      HAL2     0.900000E-01   1.00800           0
      3930 MEMB     30       POPC     H2Y      HAL2     0.900000E-01   1.00800           0
      3931 MEMB     30       POPC     C23      CTL2    -0.180000       12.0110           0
      3932 MEMB     30       POPC     H3R      HAL2     0.900000E-01   1.00800           0
      3933 MEMB     30       POPC     H3S      HAL2     0.900000E-01   1.00800           0
      3934 MEMB     30       POPC     C24      CTL2    -0.180000       12.0110           0
      3935 MEMB     30       POPC     H4R      HAL2     0.900000E-01   1.00800           0
      3936 MEMB     30       POPC     H4S      HAL2     0.900000E-01   1.00800           0
      3937 MEMB     30       POPC     C25      CTL2    -0.180000       12.0110           0
      3938 MEMB     30       POPC     H5R      HAL2     0.900000E-01   1.00800           0
      3939 MEMB     30       POPC     H5S      HAL2     0.900000E-01   1.00800           0
      3940 MEMB     30       POPC     C26      CTL2    -0.180000       12.0110           0
      3941 MEMB     30       POPC     H6R      HAL2     0.900000E-01   1.00800           0
      3942 MEMB     30       POPC     H6S      HAL2     0.900000E-01   1.00800           0
      3943 MEMB     30       POPC     C27      CTL2    -0.180000       12.0110           0
      3944 MEMB     30       POPC     H7R      HAL2     0.900000E-01   1.00800           0
      3945 MEMB     30       POPC     H7S      HAL2     0.900000E-01   1.00800           0
      3946 MEMB     30       POPC     C28      CTL2    -0.180000       12.0110           0
      3947 MEMB     30       POPC     H8R      HAL2     0.900000E-01   1.00800           0
      3948 MEMB     30       POPC     H8S      HAL2     0.900000E-01   1.00800           0
      3949 MEMB     30       POPC     C29      CEL1    -0.150000       12.0110           0
      3950 MEMB     30       POPC     H91      HEL1     0.150000       1.00800           0
      3951 MEMB     30       POPC     C210     CEL1    -0.150000       12.0110           0
      3952 MEMB     30       POPC     H101     HEL1     0.150000       1.00800           0
      3953 MEMB     30       POPC     C211     CTL2    -0.180000       12.0110           0
      3954 MEMB     30       POPC     H11R     HAL2     0.900000E-01   1.00800           0
      3955 MEMB     30       POPC     H11S     HAL2     0.900000E-01   1.00800           0
      3956 MEMB     30       POPC     C212     CTL2    -0.180000       12.0110           0
      3957 MEMB     30       POPC     H12R     HAL2     0.900000E-01   1.00800           0
      3958 MEMB     30       POPC     H12S     HAL2     0.900000E-01   1.00800           0
      3959 MEMB     30       POPC     C213     CTL2    -0.180000       12.0110           0
      3960 MEMB     30       POPC     H13R     HAL2     0.900000E-01   1.00800           0
      3961 MEMB     30       POPC     H13S     HAL2     0.900000E-01   1.00800           0
      3962 MEMB     30       POPC     C214     CTL2    -0.180000       12.0110           0
      3963 MEMB     30       POPC     H14R     HAL2     0.900000E-01   1.00800           0
      3964 MEMB     30       POPC     H14S     HAL2     0.900000E-01   1.00800           0
      3965 MEMB     30       POPC     C215     CTL2    -0.180000       12.0110           0
      3966 MEMB     30       POPC     H15R     HAL2     0.900000E-01   1.00800           0
      3967 MEMB     30       POPC     H15S     HAL2     0.900000E-01   1.00800           0
      3968 MEMB     30       POPC     C216     CTL2    -0.180000       12.0110           0
      3969 MEMB     30       POPC     H16R     HAL2     0.900000E-01   1.00800           0
      3970 MEMB     30       POPC     H16S     HAL2     0.900000E-01   1.00800           0
      3971 MEMB     30       POPC     C217     CTL2    -0.180000       12.0110           0
      3972 MEMB     30       POPC     H17R     HAL2     0.900000E-01   1.00800           0
      3973 MEMB     30       POPC     H17S     HAL2     0.900000E-01   1.00800           0
      3974 MEMB     30       POPC     C218     CTL3    -0.270000       12.0110           0
      3975 MEMB     30       POPC     H18R     HAL3     0.900000E-01   1.00800           0
      3976 MEMB     30       POPC     H18S     HAL3     0.900000E-01   1.00800           0
      3977 MEMB     30       POPC     H18T     HAL3     0.900000E-01   1.00800           0
      3978 MEMB     30       POPC     C33      CTL2    -0.180000       12.0110           0
      3979 MEMB     30       POPC     H3X      HAL2     0.900000E-01   1.00800           0
      3980 MEMB     30       POPC     H3Y      HAL2     0.900000E-01   1.00800           0
      3981 MEMB     30       POPC     C34      CTL2    -0.180000       12.0110           0
      3982 MEMB     30       POPC     H4X      HAL2     0.900000E-01   1.00800           0
      3983 MEMB     30       POPC     H4Y      HAL2     0.900000E-01   1.00800           0
      3984 MEMB     30       POPC     C35      CTL2    -0.180000       12.0110           0
      3985 MEMB     30       POPC     H5X      HAL2     0.900000E-01   1.00800           0
      3986 MEMB     30       POPC     H5Y      HAL2     0.900000E-01   1.00800           0
      3987 MEMB     30       POPC     C36      CTL2    -0.180000       12.0110           0
      3988 MEMB     30       POPC     H6X      HAL2     0.900000E-01   1.00800           0
      3989 MEMB     30       POPC     H6Y      HAL2     0.900000E-01   1.00800           0
      3990 MEMB     30       POPC     C37      CTL2    -0.180000       12.0110           0
      3991 MEMB     30       POPC     H7X      HAL2     0.900000E-01   1.00800           0
      3992 MEMB     30       POPC     H7Y      HAL2     0.900000E-01   1.00800           0
      3993 MEMB     30       POPC     C38      CTL2    -0.180000       12.0110           0
      3994 MEMB     30       POPC     H8X      HAL2     0.900000E-01   1.00800           0
      3995 MEMB     30       POPC     H8Y      HAL2     0.900000E-01   1.00800           0
      3996 MEMB     30       POPC     C39      CTL2    -0.180000       12.0110           0
      3997 MEMB     30       POPC     H9X      HAL2     0.900000E-01   1.00800           0
      3998 MEMB     30       POPC     H9Y      HAL2     0.900000E-01   1.00800           0
      3999 MEMB     30       POPC     C310     CTL2    -0.180000       12.0110           0
      4000 MEMB     30       POPC     H10X     HAL2     0.900000E-01   1.00800           0
      4001 MEMB     30       POPC     H10Y     HAL2     0.900000E-01   1.00800           0
      4002 MEMB     30       POPC     C311     CTL2    -0.180000       12.0110           0
      4003 MEMB     30       POPC     H11X     HAL2     0.900000E-01   1.00800           0
      4004 MEMB     30       POPC     H11Y     HAL2     0.900000E-01   1.00800           0
      4005 MEMB     30       POPC     C312     CTL2    -0.180000       12.0110           0
      4006 MEMB     30       POPC     H12X     HAL2     0.900000E-01   1.00800           0
      4007 MEMB     30       POPC     H12Y     HAL2     0.900000E-01   1.00800           0
      4008 MEMB     30       POPC     C313     CTL2    -0.180000       12.0110           0
      4009 MEMB     30       POPC     H13X     HAL2     0.900000E-01   1.00800           0
      4010 MEMB     30       POPC     H13Y     HAL2     0.900000E-01   1.00800           0
      4011 MEMB     30       POPC     C314     CTL2    -0.180000       12.0110           0
      4012 MEMB     30       POPC     H14X     HAL2     0.900000E-01   1.00800           0
      4013 MEMB     30       POPC     H14Y     HAL2     0.900000E-01   1.00800           0
      4014 MEMB     30       POPC     C315     CTL2    -0.180000       12.0110           0
      4015 MEMB     30       POPC     H15X     HAL2     0.900000E-01   1.00800           0
      4016 MEMB     30       POPC     H15Y     HAL2     0.900000E-01   1.00800           0
      4017 MEMB     30       POPC     C316     CTL3    -0.270000       12.0110           0
      4018 MEMB     30       POPC     H16X     HAL3     0.900000E-01   1.00800           0
      4019 MEMB     30       POPC     H16Y     HAL3     0.900000E-01   1.00800           0
      4020 MEMB     30       POPC     H16Z     HAL3     0.900000E-01   1.00800           0
      4021 MEMB     31       POPC     N        NTL     -0.600000       14.0070           0
      4022 MEMB     31       POPC     C12      CTL2    -0.100000       12.0110           0
      4023 MEMB     31       POPC     H12A     HL       0.250000       1.00800           0
      4024 MEMB     31       POPC     H12B     HL       0.250000       1.00800           0
      4025 MEMB     31       POPC     C13      CTL5    -0.350000       12.0110           0
      4026 MEMB     31       POPC     H13A     HL       0.250000       1.00800           0
      4027 MEMB     31       POPC     H13B     HL       0.250000       1.00800           0
      4028 MEMB     31       POPC     H13C     HL       0.250000       1.00800           0
      4029 MEMB     31       POPC     C14      CTL5    -0.350000       12.0110           0
      4030 MEMB     31       POPC     H14A     HL       0.250000       1.00800           0
      4031 MEMB     31       POPC     H14B     HL       0.250000       1.00800           0
      4032 MEMB     31       POPC     H14C     HL       0.250000       1.00800           0
      4033 MEMB     31       POPC     C15      CTL5    -0.350000       12.0110           0
      4034 MEMB     31       POPC     H15A     HL       0.250000       1.00800           0
      4035 MEMB     31       POPC     H15B     HL       0.250000       1.00800           0
      4036 MEMB     31       POPC     H15C     HL       0.250000       1.00800           0
      4037 MEMB     31       POPC     C11      CTL2    -0.800000E-01   12.0110           0
      4038 MEMB     31       POPC     H11A     HAL2     0.900000E-01   1.00800           0
      4039 MEMB     31       POPC     H11B     HAL2     0.900000E-01   1.00800           0
      4040 MEMB     31       POPC     P        PL       1.500000       30.9740           0
      4041 MEMB     31       POPC     O13      O2L     -0.780000       15.9994           0
      4042 MEMB     31       POPC     O14      O2L     -0.780000       15.9994           0
      4043 MEMB     31       POPC     O12      OSLP    -0.570000       15.9994           0
      4044 MEMB     31       POPC     O11      OSLP    -0.570000       15.9994           0
      4045 MEMB     31       POPC     C1       CTL2    -0.800000E-01   12.0110           0
      4046 MEMB     31       POPC     HA       HAL2     0.900000E-01   1.00800           0
      4047 MEMB     31       POPC     HB       HAL2     0.900000E-01   1.00800           0
      4048 MEMB     31       POPC     C2       CTL1     0.170000       12.0110           0
      4049 MEMB     31       POPC     HS       HAL1     0.900000E-01   1.00800           0
      4050 MEMB     31       POPC     O21      OSL     -0.490000       15.9994           0
      4051 MEMB     31       POPC     C21      CL       0.900000       12.0110           0
      4052 MEMB     31       POPC     O22      OBL     -0.630000       15.9994           0
      4053 MEMB     31       POPC     C22      CTL2    -0.220000       12.0110           0
      4054 MEMB     31       POPC     H2R      HAL2     0.900000E-01   1.00800           0
      4055 MEMB     31       POPC     H2S      HAL2     0.900000E-01   1.00800           0
      4056 MEMB     31       POPC     C3       CTL2     0.800000E-01   12.0110           0
      4057 MEMB     31       POPC     HX       HAL2     0.900000E-01   1.00800           0
      4058 MEMB     31       POPC     HY       HAL2     0.900000E-01   1.00800           0
      4059 MEMB     31       POPC     O31      OSL     -0.490000       15.9994           0
      4060 MEMB     31       POPC     C31      CL       0.900000       12.0110           0
      4061 MEMB     31       POPC     O32      OBL     -0.630000       15.9994           0
      4062 MEMB     31       POPC     C32      CTL2    -0.220000       12.0110           0
      4063 MEMB     31       POPC     H2X      HAL2     0.900000E-01   1.00800           0
      4064 MEMB     31       POPC     H2Y      HAL2     0.900000E-01   1.00800           0
      4065 MEMB     31       POPC     C23      CTL2    -0.180000       12.0110           0
      4066 MEMB     31       POPC     H3R      HAL2     0.900000E-01   1.00800           0
      4067 MEMB     31       POPC     H3S      HAL2     0.900000E-01   1.00800           0
      4068 MEMB     31       POPC     C24      CTL2    -0.180000       12.0110           0
      4069 MEMB     31       POPC     H4R      HAL2     0.900000E-01   1.00800           0
      4070 MEMB     31       POPC     H4S      HAL2     0.900000E-01   1.00800           0
      4071 MEMB     31       POPC     C25      CTL2    -0.180000       12.0110           0
      4072 MEMB     31       POPC     H5R      HAL2     0.900000E-01   1.00800           0
      4073 MEMB     31       POPC     H5S      HAL2     0.900000E-01   1.00800           0
      4074 MEMB     31       POPC     C26      CTL2    -0.180000       12.0110           0
      4075 MEMB     31       POPC     H6R      HAL2     0.900000E-01   1.00800           0
      4076 MEMB     31       POPC     H6S      HAL2     0.900000E-01   1.00800           0
      4077 MEMB     31       POPC     C27      CTL2    -0.180000       12.0110           0
      4078 MEMB     31       POPC     H7R      HAL2     0.900000E-01   1.00800           0
      4079 MEMB     31       POPC     H7S      HAL2     0.900000E-01   1.00800           0
      4080 MEMB     31       POPC     C28      CTL2    -0.180000       12.0110           0
      4081 MEMB     31       POPC     H8R      HAL2     0.900000E-01   1.00800           0
      4082 MEMB     31       POPC     H8S      HAL2     0.900000E-01   1.00800           0
      4083 MEMB     31       POPC     C29      CEL1    -0.150000       12.0110           0
      4084 MEMB     31       POPC     H91      HEL1     0.150000       1.00800           0
      4085 MEMB     31       POPC     C210     CEL1    -0.150000       12.0110           0
      4086 MEMB     31       POPC     H101     HEL1     0.150000       1.00800           0
      4087 MEMB     31       POPC     C211     CTL2    -0.180000       12.0110           0
      4088 MEMB     31       POPC     H11R     HAL2     0.900000E-01   1.00800           0
      4089 MEMB     31       POPC     H11S     HAL2     0.900000E-01   1.00800           0
      4090 MEMB     31       POPC     C212     CTL2    -0.180000       12.0110           0
      4091 MEMB     31       POPC     H12R     HAL2     0.900000E-01   1.00800           0
      4092 MEMB     31       POPC     H12S     HAL2     0.900000E-01   1.00800           0
      4093 MEMB     31       POPC     C213     CTL2    -0.180000       12.0110           0
      4094 MEMB     31       POPC     H13R     HAL2     0.900000E-01   1.00800           0
      4095 MEMB     31       POPC     H13S     HAL2     0.900000E-01   1.00800           0
      4096 MEMB     31       POPC     C214     CTL2    -0.180000       12.0110           0
      4097 MEMB     31       POPC     H14R     HAL2     0.900000E-01   1.00800           0
      4098 MEMB     31       POPC     H14S     HAL2     0.900000E-01   1.00800           0
      4099 MEMB     31       POPC     C215     CTL2    -0.180000       12.0110           0
      4100 MEMB     31       POPC     H15R     HAL2     0.900000E-01   1.00800           0
      4101 MEMB     31       POPC     H15S     HAL2     0.900000E-01   1.00800           0
      4102 MEMB     31       POPC     C216     CTL2    -0.180000       12.0110           0
      4103 MEMB     31       POPC     H16R     HAL2     0.900000E-01   1.00800           0
      4104 MEMB     31       POPC     H16S     HAL2     0.900000E-01   1.00800           0
      4105 MEMB     31       POPC     C217     CTL2    -0.180000       12.0110           0
      4106 MEMB     31       POPC     H17R     HAL2     0.900000E-01   1.00800           0
      4107 MEMB     31       POPC     H17S     HAL2     0.900000E-01   1.00800           0
      4108 MEMB     31       POPC     C218     CTL3    -0.270000       12.0110           0
      4109 MEMB     31       POPC     H18R     HAL3     0.900000E-01   1.00800           0
      4110 MEMB     31       POPC     H18S     HAL3     0.900000E-01   1.00800           0
      4111 MEMB     31       POPC     H18T     HAL3     0.900000E-01   1.00800           0
      4112 MEMB     31       POPC     C33      CTL2    -0.180000       12.0110           0
      4113 MEMB     31       POPC     H3X      HAL2     0.900000E-01   1.00800           0
      4114 MEMB     31       POPC     H3Y      HAL2     0.900000E-01   1.00800           0
      4115 MEMB     31       POPC     C34      CTL2    -0.180000       12.0110           0
      4116 MEMB     31       POPC     H4X      HAL2     0.900000E-01   1.00800           0
      4117 MEMB     31       POPC     H4Y      HAL2     0.900000E-01   1.00800           0
      4118 MEMB     31       POPC     C35      CTL2    -0.180000       12.0110           0
      4119 MEMB     31       POPC     H5X      HAL2     0.900000E-01   1.00800           0
      4120 MEMB     31       POPC     H5Y      HAL2     0.900000E-01   1.00800           0
      4121 MEMB     31       POPC     C36      CTL2    -0.180000       12.0110           0
      4122 MEMB     31       POPC     H6X      HAL2     0.900000E-01   1.00800           0
      4123 MEMB     31       POPC     H6Y      HAL2     0.900000E-01   1.00800           0
      4124 MEMB     31       POPC     C37      CTL2    -0.180000       12.0110           0
      4125 MEMB     31       POPC     H7X      HAL2     0.900000E-01   1.00800           0
      4126 MEMB     31       POPC     H7Y      HAL2     0.900000E-01   1.00800           0
      4127 MEMB     31       POPC     C38      CTL2    -0.180000       12.0110           0
      4128 MEMB     31       POPC     H8X      HAL2     0.900000E-01   1.00800           0
      4129 MEMB     31       POPC     H8Y      HAL2     0.900000E-01   1.00800           0
      4130 MEMB     31       POPC     C39      CTL2    -0.180000       12.0110           0
      4131 MEMB     31       POPC     H9X      HAL2     0.900000E-01   1.00800           0
      4132 MEMB     31       POPC     H9Y      HAL2     0.900000E-01   1.00800           0
      4133 MEMB     31       POPC     C310     CTL2    -0.180000       12.0110           0
      4134 MEMB     31       POPC     H10X     HAL2     0.900000E-01   1.00800           0
      4135 MEMB     31       POPC     H10Y     HAL2     0.900000E-01   1.00800           0
      4136 MEMB     31       POPC     C311     CTL2    -0.180000       12.0110           0
      4137 MEMB     31       POPC     H11X     HAL2     0.900000E-01   1.00800           0
      4138 MEMB     31       POPC     H11Y     HAL2     0.900000E-01   1.00800           0
      4139 MEMB     31       POPC     C312     CTL2    -0.180000       12.0110           0
      4140 MEMB     31       POPC     H12X     HAL2     0.900000E-01   1.00800           0
      4141 MEMB     31       POPC     H12Y     HAL2     0.900000E-01   1.00800           0
      4142 MEMB     31       POPC     C313     CTL2    -0.180000       12.0110           0
      4143 MEMB     31       POPC     H13X     HAL2     0.900000E-01   1.00800           0
      4144 MEMB     31       POPC     H13Y     HAL2     0.900000E-01   1.00800           0
      4145 MEMB     31       POPC     C314     CTL2    -0.180000       12.0110           0
      4146 MEMB     31       POPC     H14X     HAL2     0.900000E-01   1.00800           0
      4147 MEMB     31       POPC     H14Y     HAL2     0.900000E-01   1.00800           0
      4148 MEMB     31       POPC     C315     CTL2    -0.180000       12.0110           0
      4149 MEMB     31       POPC     H15X     HAL2     0.900000E-01   1.00800           0
      4150 MEMB     31       POPC     H15Y     HAL2     0.900000E-01   1.00800           0
      4151 MEMB     31       POPC     C316     CTL3    -0.270000       12.0110           0
      4152 MEMB     31       POPC     H16X     HAL3     0.900000E-01   1.00800           0
      4153 MEMB     31       POPC     H16Y     HAL3     0.900000E-01   1.00800           0
      4154 MEMB     31       POPC     H16Z     HAL3     0.900000E-01   1.00800           0
      4155 MEMB     32       POPC     N        NTL     -0.600000       14.0070           0
      4156 MEMB     32       POPC     C12      CTL2    -0.100000       12.0110           0
      4157 MEMB     32       POPC     H12A     HL       0.250000       1.00800           0
      4158 MEMB     32       POPC     H12B     HL       0.250000       1.00800           0
      4159 MEMB     32       POPC     C13      CTL5    -0.350000       12.0110           0
      4160 MEMB     32       POPC     H13A     HL       0.250000       1.00800           0
      4161 MEMB     32       POPC     H13B     HL       0.250000       1.00800           0
      4162 MEMB     32       POPC     H13C     HL       0.250000       1.00800           0
      4163 MEMB     32       POPC     C14      CTL5    -0.350000       12.0110           0
      4164 MEMB     32       POPC     H14A     HL       0.250000       1.00800           0
      4165 MEMB     32       POPC     H14B     HL       0.250000       1.00800           0
      4166 MEMB     32       POPC     H14C     HL       0.250000       1.00800           0
      4167 MEMB     32       POPC     C15      CTL5    -0.350000       12.0110           0
      4168 MEMB     32       POPC     H15A     HL       0.250000       1.00800           0
      4169 MEMB     32       POPC     H15B     HL       0.250000       1.00800           0
      4170 MEMB     32       POPC     H15C     HL       0.250000       1.00800           0
      4171 MEMB     32       POPC     C11      CTL2    -0.800000E-01   12.0110           0
      4172 MEMB     32       POPC     H11A     HAL2     0.900000E-01   1.00800           0
      4173 MEMB     32       POPC     H11B     HAL2     0.900000E-01   1.00800           0
      4174 MEMB     32       POPC     P        PL       1.500000       30.9740           0
      4175 MEMB     32       POPC     O13      O2L     -0.780000       15.9994           0
      4176 MEMB     32       POPC     O14      O2L     -0.780000       15.9994           0
      4177 MEMB     32       POPC     O12      OSLP    -0.570000       15.9994           0
      4178 MEMB     32       POPC     O11      OSLP    -0.570000       15.9994           0
      4179 MEMB     32       POPC     C1       CTL2    -0.800000E-01   12.0110           0
      4180 MEMB     32       POPC     HA       HAL2     0.900000E-01   1.00800           0
      4181 MEMB     32       POPC     HB       HAL2     0.900000E-01   1.00800           0
      4182 MEMB     32       POPC     C2       CTL1     0.170000       12.0110           0
      4183 MEMB     32       POPC     HS       HAL1     0.900000E-01   1.00800           0
      4184 MEMB     32       POPC     O21      OSL     -0.490000       15.9994           0
      4185 MEMB     32       POPC     C21      CL       0.900000       12.0110           0
      4186 MEMB     32       POPC     O22      OBL     -0.630000       15.9994           0
      4187 MEMB     32       POPC     C22      CTL2    -0.220000       12.0110           0
      4188 MEMB     32       POPC     H2R      HAL2     0.900000E-01   1.00800           0
      4189 MEMB     32       POPC     H2S      HAL2     0.900000E-01   1.00800           0
      4190 MEMB     32       POPC     C3       CTL2     0.800000E-01   12.0110           0
      4191 MEMB     32       POPC     HX       HAL2     0.900000E-01   1.00800           0
      4192 MEMB     32       POPC     HY       HAL2     0.900000E-01   1.00800           0
      4193 MEMB     32       POPC     O31      OSL     -0.490000       15.9994           0
      4194 MEMB     32       POPC     C31      CL       0.900000       12.0110           0
      4195 MEMB     32       POPC     O32      OBL     -0.630000       15.9994           0
      4196 MEMB     32       POPC     C32      CTL2    -0.220000       12.0110           0
      4197 MEMB     32       POPC     H2X      HAL2     0.900000E-01   1.00800           0
      4198 MEMB     32       POPC     H2Y      HAL2     0.900000E-01   1.00800           0
      4199 MEMB     32       POPC     C23      CTL2    -0.180000       12.0110           0
      4200 MEMB     32       POPC     H3R      HAL2     0.900000E-01   1.00800           0
      4201 MEMB     32       POPC     H3S      HAL2     0.900000E-01   1.00800           0
      4202 MEMB     32       POPC     C24      CTL2    -0.180000       12.0110           0
      4203 MEMB     32       POPC     H4R      HAL2     0.900000E-01   1.00800           0
      4204 MEMB     32       POPC     H4S      HAL2     0.900000E-01   1.00800           0
      4205 MEMB     32       POPC     C25      CTL2    -0.180000       12.0110           0
      4206 MEMB     32       POPC     H5R      HAL2     0.900000E-01   1.00800           0
      4207 MEMB     32       POPC     H5S      HAL2     0.900000E-01   1.00800           0
      4208 MEMB     32       POPC     C26      CTL2    -0.180000       12.0110           0
      4209 MEMB     32       POPC     H6R      HAL2     0.900000E-01   1.00800           0
      4210 MEMB     32       POPC     H6S      HAL2     0.900000E-01   1.00800           0
      4211 MEMB     32       POPC     C27      CTL2    -0.180000       12.0110           0
      4212 MEMB     32       POPC     H7R      HAL2     0.900000E-01   1.00800           0
      4213 MEMB     32       POPC     H7S      HAL2     0.900000E-01   1.00800           0
      4214 MEMB     32       POPC     C28      CTL2    -0.180000       12.0110           0
      4215 MEMB     32       POPC     H8R      HAL2     0.900000E-01   1.00800           0
      4216 MEMB     32       POPC     H8S      HAL2     0.900000E-01   1.00800           0
      4217 MEMB     32       POPC     C29      CEL1    -0.150000       12.0110           0
      4218 MEMB     32       POPC     H91      HEL1     0.150000       1.00800           0
      4219 MEMB     32       POPC     C210     CEL1    -0.150000       12.0110           0
      4220 MEMB     32       POPC     H101     HEL1     0.150000       1.00800           0
      4221 MEMB     32       POPC     C211     CTL2    -0.180000       12.0110           0
      4222 MEMB     32       POPC     H11R     HAL2     0.900000E-01   1.00800           0
      4223 MEMB     32       POPC     H11S     HAL2     0.900000E-01   1.00800           0
      4224 MEMB     32       POPC     C212     CTL2    -0.180000       12.0110           0
      4225 MEMB     32       POPC     H12R     HAL2     0.900000E-01   1.00800           0
      4226 MEMB     32       POPC     H12S     HAL2     0.900000E-01   1.00800           0
      4227 MEMB     32       POPC     C213     CTL2    -0.180000       12.0110           0
      4228 MEMB     32       POPC     H13R     HAL2     0.900000E-01   1.00800           0
      4229 MEMB     32       POPC     H13S     HAL2     0.900000E-01   1.00800           0
      4230 MEMB     32       POPC     C214     CTL2    -0.180000       12.0110           0
      4231 MEMB     32       POPC     H14R     HAL2     0.900000E-01   1.00800           0
      4232 MEMB     32       POPC     H14S     HAL2     0.900000E-01   1.00800           0
      4233 MEMB     32       POPC     C215     CTL2    -0.180000       12.0110           0
      4234 MEMB     32       POPC     H15R     HAL2     0.900000E-01   1.00800           0
      4235 MEMB     32       POPC     H15S     HAL2     0.900000E-01   1.00800           0
      4236 MEMB     32       POPC     C216     CTL2    -0.180000       12.0110           0
      4237 MEMB     32       POPC     H16R     HAL2     0.900000E-01   1.00800           0
      4238 MEMB     32       POPC     H16S     HAL2     0.900000E-01   1.00800           0
      4239 MEMB     32       POPC     C217     CTL2    -0.180000       12.0110           0
      4240 MEMB     32       POPC     H17R     HAL2     0.900000E-01   1.00800           0
      4241 MEMB     32       POPC     H17S     HAL2     0.900000E-01   1.00800           0
      4242 MEMB     32       POPC     C218     CTL3    -0.270000       12.0110           0
      4243 MEMB     32       POPC     H18R     HAL3     0.900000E-01   1.00800           0
      4244 MEMB     32       POPC     H18S     HAL3     0.900000E-01   1.00800           0
      4245 MEMB     32       POPC     H18T     HAL3     0.900000E-01   1.00800           0
      4246 MEMB     32       POPC     C33      CTL2    -0.180000       12.0110           0
      4247 MEMB     32       POPC     H3X      HAL2     0.900000E-01   1.00800           0
      4248 MEMB     32       POPC     H3Y      HAL2     0.900000E-01   1.00800           0
      4249 MEMB     32       POPC     C34      CTL2    -0.180000       12.0110           0
      4250 MEMB     32       POPC     H4X      HAL2     0.900000E-01   1.00800           0
      4251 MEMB     32       POPC     H4Y      HAL2     0.900000E-01   1.00800           0
      4252 MEMB     32       POPC     C35      CTL2    -0.180000       12.0110           0
      4253 MEMB     32       POPC     H5X      HAL2     0.900000E-01   1.00800           0
      4254 MEMB     32       POPC     H5Y      HAL2     0.900000E-01   1.00800           0
      4255 MEMB     32       POPC     C36      CTL2    -0.180000       12.0110           0
      4256 MEMB     32       POPC     H6X      HAL2     0.900000E-01   1.00800           0
      4257 MEMB     32       POPC     H6Y      HAL2     0.900000E-01   1.00800           0
      4258 MEMB     32       POPC     C37      CTL2    -0.180000       12.0110           0
      4259 MEMB     32       POPC     H7X      HAL2     0.900000E-01   1.00800           0
      4260 MEMB     32       POPC     H7Y      HAL2     0.900000E-01   1.00800           0
      4261 MEMB     32       POPC     C38      CTL2    -0.180000       12.0110           0
      4262 MEMB     32       POPC     H8X      HAL2     0.900000E-01   1.00800           0
      4263 MEMB     32       POPC     H8Y      HAL2     0.900000E-01   1.00800           0
      4264 MEMB     32       POPC     C39      CTL2    -0.180000       12.0110           0
      4265 MEMB     32       POPC     H9X      HAL2     0.900000E-01   1.00800           0
      4266 MEMB     32       POPC     H9Y      HAL2     0.900000E-01   1.00800           0
      4267 MEMB     32       POPC     C310     CTL2    -0.180000       12.0110           0
      4268 MEMB     32       POPC     H10X     HAL2     0.900000E-01   1.00800           0
      4269 MEMB     32       POPC     H10Y     HAL2     0.900000E-01   1.00800           0
      4270 MEMB     32       POPC     C311     CTL2    -0.180000       12.0110           0
      4271 MEMB     32       POPC     H11X     HAL2     0.900000E-01   1.00800           0
      4272 MEMB     32       POPC     H11Y     HAL2     0.900000E-01   1.00800           0
      4273 MEMB     32       POPC     C312     CTL2    -0.180000       12.0110           0
      4274 MEMB     32       POPC     H12X     HAL2     0.900000E-01   1.00800           0
      4275 MEMB     32       POPC     H12Y     HAL2     0.900000E-01   1.00800           0
      4276 MEMB     32       POPC     C313     CTL2    -0.180000       12.0110           0
      4277 MEMB     32       POPC     H13X     HAL2     0.900000E-01   1.00800           0
      4278 MEMB     32       POPC     H13Y     HAL2     0.900000E-01   1.00800           0
      4279 MEMB     32       POPC     C314     CTL2    -0.180000       12.0110           0
      4280 MEMB     32       POPC     H14X     HAL2     0.900000E-01   1.00800           0
      4281 MEMB     32       POPC     H14Y     HAL2     0.900000E-01   1.00800           0
      4282 MEMB     32       POPC     C315     CTL2    -0.180000       12.0110           0
      4283 MEMB     32       POPC     H15X     HAL2     0.900000E-01   1.00800           0
      4284 MEMB     32       POPC     H15Y     HAL2     0.900000E-01   1.00800           0
      4285 MEMB     32       POPC     C316     CTL3    -0.270000       12.0110           0
      4286 MEMB     32       POPC     H16X     HAL3     0.900000E-01   1.00800           0
      4287 MEMB     32       POPC     H16Y     HAL3     0.900000E-01   1.00800           0
      4288 MEMB     32       POPC     H16Z     HAL3     0.900000E-01   1.00800           0
      4289 MEMB     33       POPC     N        NTL     -0.600000       14.0070           0
      4290 MEMB     33       POPC     C12      CTL2    -0.100000       12.0110           0
      4291 MEMB     33       POPC     H12A     HL       0.250000       1.00800           0
      4292 MEMB     33       POPC     H12B     HL       0.250000       1.00800           0
      4293 MEMB     33       POPC     C13      CTL5    -0.350000       12.0110           0
      4294 MEMB     33       POPC     H13A     HL       0.250000       1.00800           0
      4295 MEMB     33       POPC     H13B     HL       0.250000       1.00800           0
      4296 MEMB     33       POPC     H13C     HL       0.250000       1.00800           0
      4297 MEMB     33       POPC     C14      CTL5    -0.350000       12.0110           0
      4298 MEMB     33       POPC     H14A     HL       0.250000       1.00800           0
      4299 MEMB     33       POPC     H14B     HL       0.250000       1.00800           0
      4300 MEMB     33       POPC     H14C     HL       0.250000       1.00800           0
      4301 MEMB     33       POPC     C15      CTL5    -0.350000       12.0110           0
      4302 MEMB     33       POPC     H15A     HL       0.250000       1.00800           0
      4303 MEMB     33       POPC     H15B     HL       0.250000       1.00800           0
      4304 MEMB     33       POPC     H15C     HL       0.250000       1.00800           0
      4305 MEMB     33       POPC     C11      CTL2    -0.800000E-01   12.0110           0
      4306 MEMB     33       POPC     H11A     HAL2     0.900000E-01   1.00800           0
      4307 MEMB     33       POPC     H11B     HAL2     0.900000E-01   1.00800           0
      4308 MEMB     33       POPC     P        PL       1.500000       30.9740           0
      4309 MEMB     33       POPC     O13      O2L     -0.780000       15.9994           0
      4310 MEMB     33       POPC     O14      O2L     -0.780000       15.9994           0
      4311 MEMB     33       POPC     O12      OSLP    -0.570000       15.9994           0
      4312 MEMB     33       POPC     O11      OSLP    -0.570000       15.9994           0
      4313 MEMB     33       POPC     C1       CTL2    -0.800000E-01   12.0110           0
      4314 MEMB     33       POPC     HA       HAL2     0.900000E-01   1.00800           0
      4315 MEMB     33       POPC     HB       HAL2     0.900000E-01   1.00800           0
      4316 MEMB     33       POPC     C2       CTL1     0.170000       12.0110           0
      4317 MEMB     33       POPC     HS       HAL1     0.900000E-01   1.00800           0
      4318 MEMB     33       POPC     O21      OSL     -0.490000       15.9994           0
      4319 MEMB     33       POPC     C21      CL       0.900000       12.0110           0
      4320 MEMB     33       POPC     O22      OBL     -0.630000       15.9994           0
      4321 MEMB     33       POPC     C22      CTL2    -0.220000       12.0110           0
      4322 MEMB     33       POPC     H2R      HAL2     0.900000E-01   1.00800           0
      4323 MEMB     33       POPC     H2S      HAL2     0.900000E-01   1.00800           0
      4324 MEMB     33       POPC     C3       CTL2     0.800000E-01   12.0110           0
      4325 MEMB     33       POPC     HX       HAL2     0.900000E-01   1.00800           0
      4326 MEMB     33       POPC     HY       HAL2     0.900000E-01   1.00800           0
      4327 MEMB     33       POPC     O31      OSL     -0.490000       15.9994           0
      4328 MEMB     33       POPC     C31      CL       0.900000       12.0110           0
      4329 MEMB     33       POPC     O32      OBL     -0.630000       15.9994           0
      4330 MEMB     33       POPC     C32      CTL2    -0.220000       12.0110           0
      4331 MEMB     33       POPC     H2X      HAL2     0.900000E-01   1.00800           0
      4332 MEMB     33       POPC     H2Y      HAL2     0.900000E-01   1.00800           0
      4333 MEMB     33       POPC     C23      CTL2    -0.180000       12.0110           0
      4334 MEMB     33       POPC     H3R      HAL2     0.900000E-01   1.00800           0
      4335 MEMB     33       POPC     H3S      HAL2     0.900000E-01   1.00800           0
      4336 MEMB     33       POPC     C24      CTL2    -0.180000       12.0110           0
      4337 MEMB     33       POPC     H4R      HAL2     0.900000E-01   1.00800           0
      4338 MEMB     33       POPC     H4S      HAL2     0.900000E-01   1.00800           0
      4339 MEMB     33       POPC     C25      CTL2    -0.180000       12.0110           0
      4340 MEMB     33       POPC     H5R      HAL2     0.900000E-01   1.00800           0
      4341 MEMB     33       POPC     H5S      HAL2     0.900000E-01   1.00800           0
      4342 MEMB     33       POPC     C26      CTL2    -0.180000       12.0110           0
      4343 MEMB     33       POPC     H6R      HAL2     0.900000E-01   1.00800           0
      4344 MEMB     33       POPC     H6S      HAL2     0.900000E-01   1.00800           0
      4345 MEMB     33       POPC     C27      CTL2    -0.180000       12.0110           0
      4346 MEMB     33       POPC     H7R      HAL2     0.900000E-01   1.00800           0
      4347 MEMB     33       POPC     H7S      HAL2     0.900000E-01   1.00800           0
      4348 MEMB     33       POPC     C28      CTL2    -0.180000       12.0110           0
      4349 MEMB     33       POPC     H8R      HAL2     0.900000E-01   1.00800           0
      4350 MEMB     33       POPC     H8S      HAL2     0.900000E-01   1.00800           0
      4351 MEMB     33       POPC     C29      CEL1    -0.150000       12.0110           0
      4352 MEMB     33       POPC     H91      HEL1     0.150000       1.00800           0
      4353 MEMB     33       POPC     C210     CEL1    -0.150000       12.0110           0
      4354 MEMB     33       POPC     H101     HEL1     0.150000       1.00800           0
      4355 MEMB     33       POPC     C211     CTL2    -0.180000       12.0110           0
      4356 MEMB     33       POPC     H11R     HAL2     0.900000E-01   1.00800           0
      4357 MEMB     33       POPC     H11S     HAL2     0.900000E-01   1.00800           0
      4358 MEMB     33       POPC     C212     CTL2    -0.180000       12.0110           0
      4359 MEMB     33       POPC     H12R     HAL2     0.900000E-01   1.00800           0
      4360 MEMB     33       POPC     H12S     HAL2     0.900000E-01   1.00800           0
      4361 MEMB     33       POPC     C213     CTL2    -0.180000       12.0110           0
      4362 MEMB     33       POPC     H13R     HAL2     0.900000E-01   1.00800           0
      4363 MEMB     33       POPC     H13S     HAL2     0.900000E-01   1.00800           0
      4364 MEMB     33       POPC     C214     CTL2    -0.180000       12.0110           0
      4365 MEMB     33       POPC     H14R     HAL2     0.900000E-01   1.00800           0
      4366 MEMB     33       POPC     H14S     HAL2     0.900000E-01   1.00800           0
      4367 MEMB     33       POPC     C215     CTL2    -0.180000       12.0110           0
      4368 MEMB     33       POPC     H15R     HAL2     0.900000E-01   1.00800           0
      4369 MEMB     33       POPC     H15S     HAL2     0.900000E-01   1.00800           0
      4370 MEMB     33       POPC     C216     CTL2    -0.180000       12.0110           0
      4371 MEMB     33       POPC     H16R     HAL2     0.900000E-01   1.00800           0
      4372 MEMB     33       POPC     H16S     HAL2     0.900000E-01   1.00800           0
      4373 MEMB     33       POPC     C217     CTL2    -0.180000       12.0110           0
      4374 MEMB     33       POPC     H17R     HAL2     0.900000E-01   1.00800           0
      4375 MEMB     33       POPC     H17S     HAL2     0.900000E-01   1.00800           0
      4376 MEMB     33       POPC     C218     CTL3    -0.270000       12.0110           0
      4377 MEMB     33       POPC     H18R     HAL3     0.900000E-01   1.00800           0
      4378 MEMB     33       POPC     H18S     HAL3     0.900000E-01   1.00800           0
      4379 MEMB     33       POPC     H18T     HAL3     0.900000E-01   1.00800           0
      4380 MEMB     33       POPC     C33      CTL2    -0.180000       12.0110           0
      4381 MEMB     33       POPC     H3X      HAL2     0.900000E-01   1.00800           0
      4382 MEMB     33       POPC     H3Y      HAL2     0.900000E-01   1.00800           0
      4383 MEMB     33       POPC     C34      CTL2    -0.180000       12.0110           0
      4384 MEMB     33       POPC     H4X      HAL2     0.900000E-01   1.00800           0
      4385 MEMB     33       POPC     H4Y      HAL2     0.900000E-01   1.00800           0
      4386 MEMB     33       POPC     C35      CTL2    -0.180000       12.0110           0
      4387 MEMB     33       POPC     H5X      HAL2     0.900000E-01   1.00800           0
      4388 MEMB     33       POPC     H5Y      HAL2     0.900000E-01   1.00800           0
      4389 MEMB     33       POPC     C36      CTL2    -0.180000       12.0110           0
      4390 MEMB     33       POPC     H6X      HAL2     0.900000E-01   1.00800           0
      4391 MEMB     33       POPC     H6Y      HAL2     0.900000E-01   1.00800           0
      4392 MEMB     33       POPC     C37      CTL2    -0.180000       12.0110           0
      4393 MEMB     33       POPC     H7X      HAL2     0.900000E-01   1.00800           0
      4394 MEMB     33       POPC     H7Y      HAL2     0.900000E-01   1.00800           0
      4395 MEMB     33       POPC     C38      CTL2    -0.180000       12.0110           0
      4396 MEMB     33       POPC     H8X      HAL2     0.900000E-01   1.00800           0
      4397 MEMB     33       POPC     H8Y      HAL2     0.900000E-01   1.00800           0
      4398 MEMB     33       POPC     C39      CTL2    -0.180000       12.0110           0
      4399 MEMB     33       POPC     H9X      HAL2     0.900000E-01   1.00800           0
      4400 MEMB     33       POPC     H9Y      HAL2     0.900000E-01   1.00800           0
      4401 MEMB     33       POPC     C310     CTL2    -0.180000       12.0110           0
      4402 MEMB     33       POPC     H10X     HAL2     0.900000E-01   1.00800           0
      4403 MEMB     33       POPC     H10Y     HAL2     0.900000E-01   1.00800           0
      4404 MEMB     33       POPC     C311     CTL2    -0.180000       12.0110           0
      4405 MEMB     33       POPC     H11X     HAL2     0.900000E-01   1.00800           0
      4406 MEMB     33       POPC     H11Y     HAL2     0.900000E-01   1.00800           0
      4407 MEMB     33       POPC     C312     CTL2    -0.180000       12.0110           0
      4408 MEMB     33       POPC     H12X     HAL2     0.900000E-01   1.00800           0
      4409 MEMB     33       POPC     H12Y     HAL2     0.900000E-01   1.00800           0
      4410 MEMB     33       POPC     C313     CTL2    -0.180000       12.0110           0
      4411 MEMB     33       POPC     H13X     HAL2     0.900000E-01   1.00800           0
      4412 MEMB     33       POPC     H13Y     HAL2     0.900000E-01   1.00800           0
      4413 MEMB     33       POPC     C314     CTL2    -0.180000       12.0110           0
      4414 MEMB     33       POPC     H14X     HAL2     0.900000E-01   1.00800           0
      4415 MEMB     33       POPC     H14Y     HAL2     0.900000E-01   1.00800           0
      4416 MEMB     33       POPC     C315     CTL2    -0.180000       12.0110           0
      4417 MEMB     33       POPC     H15X     HAL2     0.900000E-01   1.00800           0
      4418 MEMB     33       POPC     H15Y     HAL2     0.900000E-01   1.00800           0
      4419 MEMB     33       POPC     C316     CTL3    -0.270000       12.0110           0
      4420 MEMB     33       POPC     H16X     HAL3     0.900000E-01   1.00800           0
      4421 MEMB     33       POPC     H16Y     HAL3     0.900000E-01   1.00800           0
      4422 MEMB     33       POPC     H16Z     HAL3     0.900000E-01   1.00800           0
      4423 MEMB     34       POPC     N        NTL     -0.600000       14.0070           0
      4424 MEMB     34       POPC     C12      CTL2    -0.100000       12.0110           0
      4425 MEMB     34       POPC     H12A     HL       0.250000       1.00800           0
      4426 MEMB     34       POPC     H12B     HL       0.250000       1.00800           0
      4427 MEMB     34       POPC     C13      CTL5    -0.350000       12.0110           0
      4428 MEMB     34       POPC     H13A     HL       0.250000       1.00800           0
      4429 MEMB     34       POPC     H13B     HL       0.250000       1.00800           0
      4430 MEMB     34       POPC     H13C     HL       0.250000       1.00800           0
      4431 MEMB     34       POPC     C14      CTL5    -0.350000       12.0110           0
      4432 MEMB     34       POPC     H14A     HL       0.250000       1.00800           0
      4433 MEMB     34       POPC     H14B     HL       0.250000       1.00800           0
      4434 MEMB     34       POPC     H14C     HL       0.250000       1.00800           0
      4435 MEMB     34       POPC     C15      CTL5    -0.350000       12.0110           0
      4436 MEMB     34       POPC     H15A     HL       0.250000       1.00800           0
      4437 MEMB     34       POPC     H15B     HL       0.250000       1.00800           0
      4438 MEMB     34       POPC     H15C     HL       0.250000       1.00800           0
      4439 MEMB     34       POPC     C11      CTL2    -0.800000E-01   12.0110           0
      4440 MEMB     34       POPC     H11A     HAL2     0.900000E-01   1.00800           0
      4441 MEMB     34       POPC     H11B     HAL2     0.900000E-01   1.00800           0
      4442 MEMB     34       POPC     P        PL       1.500000       30.9740           0
      4443 MEMB     34       POPC     O13      O2L     -0.780000       15.9994           0
      4444 MEMB     34       POPC     O14      O2L     -0.780000       15.9994           0
      4445 MEMB     34       POPC     O12      OSLP    -0.570000       15.9994           0
      4446 MEMB     34       POPC     O11      OSLP    -0.570000       15.9994           0
      4447 MEMB     34       POPC     C1       CTL2    -0.800000E-01   12.0110           0
      4448 MEMB     34       POPC     HA       HAL2     0.900000E-01   1.00800           0
      4449 MEMB     34       POPC     HB       HAL2     0.900000E-01   1.00800           0
      4450 MEMB     34       POPC     C2       CTL1     0.170000       12.0110           0
      4451 MEMB     34       POPC     HS       HAL1     0.900000E-01   1.00800           0
      4452 MEMB     34       POPC     O21      OSL     -0.490000       15.9994           0
      4453 MEMB     34       POPC     C21      CL       0.900000       12.0110           0
      4454 MEMB     34       POPC     O22      OBL     -0.630000       15.9994           0
      4455 MEMB     34       POPC     C22      CTL2    -0.220000       12.0110           0
      4456 MEMB     34       POPC     H2R      HAL2     0.900000E-01   1.00800           0
      4457 MEMB     34       POPC     H2S      HAL2     0.900000E-01   1.00800           0
      4458 MEMB     34       POPC     C3       CTL2     0.800000E-01   12.0110           0
      4459 MEMB     34       POPC     HX       HAL2     0.900000E-01   1.00800           0
      4460 MEMB     34       POPC     HY       HAL2     0.900000E-01   1.00800           0
      4461 MEMB     34       POPC     O31      OSL     -0.490000       15.9994           0
      4462 MEMB     34       POPC     C31      CL       0.900000       12.0110           0
      4463 MEMB     34       POPC     O32      OBL     -0.630000       15.9994           0
      4464 MEMB     34       POPC     C32      CTL2    -0.220000       12.0110           0
      4465 MEMB     34       POPC     H2X      HAL2     0.900000E-01   1.00800           0
      4466 MEMB     34       POPC     H2Y      HAL2     0.900000E-01   1.00800           0
      4467 MEMB     34       POPC     C23      CTL2    -0.180000       12.0110           0
      4468 MEMB     34       POPC     H3R      HAL2     0.900000E-01   1.00800           0
      4469 MEMB     34       POPC     H3S      HAL2     0.900000E-01   1.00800           0
      4470 MEMB     34       POPC     C24      CTL2    -0.180000       12.0110           0
      4471 MEMB     34       POPC     H4R      HAL2     0.900000E-01   1.00800           0
      4472 MEMB     34       POPC     H4S      HAL2     0.900000E-01   1.00800           0
      4473 MEMB     34       POPC     C25      CTL2    -0.180000       12.0110           0
      4474 MEMB     34       POPC     H5R      HAL2     0.900000E-01   1.00800           0
      4475 MEMB     34       POPC     H5S      HAL2     0.900000E-01   1.00800           0
      4476 MEMB     34       POPC     C26      CTL2    -0.180000       12.0110           0
      4477 MEMB     34       POPC     H6R      HAL2     0.900000E-01   1.00800           0
      4478 MEMB     34       POPC     H6S      HAL2     0.900000E-01   1.00800           0
      4479 MEMB     34       POPC     C27      CTL2    -0.180000       12.0110           0
      4480 MEMB     34       POPC     H7R      HAL2     0.900000E-01   1.00800           0
      4481 MEMB     34       POPC     H7S      HAL2     0.900000E-01   1.00800           0
      4482 MEMB     34       POPC     C28      CTL2    -0.180000       12.0110           0
      4483 MEMB     34       POPC     H8R      HAL2     0.900000E-01   1.00800           0
      4484 MEMB     34       POPC     H8S      HAL2     0.900000E-01   1.00800           0
      4485 MEMB     34       POPC     C29      CEL1    -0.150000       12.0110           0
      4486 MEMB     34       POPC     H91      HEL1     0.150000       1.00800           0
      4487 MEMB     34       POPC     C210     CEL1    -0.150000       12.0110           0
      4488 MEMB     34       POPC     H101     HEL1     0.150000       1.00800           0
      4489 MEMB     34       POPC     C211     CTL2    -0.180000       12.0110           0
      4490 MEMB     34       POPC     H11R     HAL2     0.900000E-01   1.00800           0
      4491 MEMB     34       POPC     H11S     HAL2     0.900000E-01   1.00800           0
      4492 MEMB     34       POPC     C212     CTL2    -0.180000       12.0110           0
      4493 MEMB     34       POPC     H12R     HAL2     0.900000E-01   1.00800           0
      4494 MEMB     34       POPC     H12S     HAL2     0.900000E-01   1.00800           0
      4495 MEMB     34       POPC     C213     CTL2    -0.180000       12.0110           0
      4496 MEMB     34       POPC     H13R     HAL2     0.900000E-01   1.00800           0
      4497 MEMB     34       POPC     H13S     HAL2     0.900000E-01   1.00800           0
      4498 MEMB     34       POPC     C214     CTL2    -0.180000       12.0110           0
      4499 MEMB     34       POPC     H14R     HAL2     0.900000E-01   1.00800           0
      4500 MEMB     34       POPC     H14S     HAL2     0.900000E-01   1.00800           0
      4501 MEMB     34       POPC     C215     CTL2    -0.180000       12.0110           0
      4502 MEMB     34       POPC     H15R     HAL2     0.900000E-01   1.00800           0
      4503 MEMB     34       POPC     H15S     HAL2     0.900000E-01   1.00800           0
      4504 MEMB     34       POPC     C216     CTL2    -0.180000       12.0110           0
      4505 MEMB     34       POPC     H16R     HAL2     0.900000E-01   1.00800           0
      4506 MEMB     34       POPC     H16S     HAL2     0.900000E-01   1.00800           0
      4507 MEMB     34       POPC     C217     CTL2    -0.180000       12.0110           0
      4508 MEMB     34       POPC     H17R     HAL2     0.900000E-01   1.00800           0
      4509 MEMB     34       POPC     H17S     HAL2     0.900000E-01   1.00800           0
      4510 MEMB     34       POPC     C218     CTL3    -0.270000       12.0110           0
      4511 MEMB     34       POPC     H18R     HAL3     0.900000E-01   1.00800           0
      4512 MEMB     34       POPC     H18S     HAL3     0.900000E-01   1.00800           0
      4513 MEMB     34       POPC     H18T     HAL3     0.900000E-01   1.00800           0
      4514 MEMB     34       POPC     C33      CTL2    -0.180000       12.0110           0
      4515 MEMB     34       POPC     H3X      HAL2     0.900000E-01   1.00800           0
      4516 MEMB     34       POPC     H3Y      HAL2     0.900000E-01   1.00800           0
      4517 MEMB     34       POPC     C34      CTL2    -0.180000       12.0110           0
      4518 MEMB     34       POPC     H4X      HAL2     0.900000E-01   1.00800           0
      4519 MEMB     34       POPC     H4Y      HAL2     0.900000E-01   1.00800           0
      4520 MEMB     34       POPC     C35      CTL2    -0.180000       12.0110           0
      4521 MEMB     34       POPC     H5X      HAL2     0.900000E-01   1.00800           0
      4522 MEMB     34       POPC     H5Y      HAL2     0.900000E-01   1.00800           0
      4523 MEMB     34       POPC     C36      CTL2    -0.180000       12.0110           0
      4524 MEMB     34       POPC     H6X      HAL2     0.900000E-01   1.00800           0
      4525 MEMB     34       POPC     H6Y      HAL2     0.900000E-01   1.00800           0
      4526 MEMB     34       POPC     C37      CTL2    -0.180000       12.0110           0
      4527 MEMB     34       POPC     H7X      HAL2     0.900000E-01   1.00800           0
      4528 MEMB     34       POPC     H7Y      HAL2     0.900000E-01   1.00800           0
      4529 MEMB     34       POPC     C38      CTL2    -0.180000       12.0110           0
      4530 MEMB     34       POPC     H8X      HAL2     0.900000E-01   1.00800           0
      4531 MEMB     34       POPC     H8Y      HAL2     0.900000E-01   1.00800           0
      4532 MEMB     34       POPC     C39      CTL2    -0.180000       12.0110           0
      4533 MEMB     34       POPC     H9X      HAL2     0.900000E-01   1.00800           0
      4534 MEMB     34       POPC     H9Y      HAL2     0.900000E-01   1.00800           0
      4535 MEMB     34       POPC     C310     CTL2    -0.180000       12.0110           0
      4536 MEMB     34       POPC     H10X     HAL2     0.900000E-01   1.00800           0
      4537 MEMB     34       POPC     H10Y     HAL2     0.900000E-01   1.00800           0
      4538 MEMB     34       POPC     C311     CTL2    -0.180000       12.0110           0
      4539 MEMB     34       POPC     H11X     HAL2     0.900000E-01   1.00800           0
      4540 MEMB     34       POPC     H11Y     HAL2     0.900000E-01   1.00800           0
      4541 MEMB     34       POPC     C312     CTL2    -0.180000       12.0110           0
      4542 MEMB     34       POPC     H12X     HAL2     0.900000E-01   1.00800           0
      4543 MEMB     34       POPC     H12Y     HAL2     0.900000E-01   1.00800           0
      4544 MEMB     34       POPC     C313     CTL2    -0.180000       12.0110           0
      4545 MEMB     34       POPC     H13X     HAL2     0.900000E-01   1.00800           0
      4546 MEMB     34       POPC     H13Y     HAL2     0.900000E-01   1.00800           0
      4547 MEMB     34       POPC     C314     CTL2    -0.180000       12.0110           0
      4548 MEMB     34       POPC     H14X     HAL2     0.900000E-01   1.00800           0
      4549 MEMB     34       POPC     H14Y     HAL2     0.900000E-01   1.00800           0
      4550 MEMB     34       POPC     C315     CTL2    -0.180000       12.0110           0
      4551 MEMB     34       POPC     H15X     HAL2     0.900000E-01   1.00800           0
      4552 MEMB     34       POPC     H15Y     HAL2     0.900000E-01   1.00800           0
      4553 MEMB     34       POPC     C316     CTL3    -0.270000       12.0110           0
      4554 MEMB     34       POPC     H16X     HAL3     0.900000E-01   1.00800           0
      4555 MEMB     34       POPC     H16Y     HAL3     0.900000E-01   1.00800           0
      4556 MEMB     34       POPC     H16Z     HAL3     0.900000E-01   1.00800           0
      4557 MEMB     35       POPC     N        NTL     -0.600000       14.0070           0
      4558 MEMB     35       POPC     C12      CTL2    -0.100000       12.0110           0
      4559 MEMB     35       POPC     H12A     HL       0.250000       1.00800           0
      4560 MEMB     35       POPC     H12B     HL       0.250000       1.00800           0
      4561 MEMB     35       POPC     C13      CTL5    -0.350000       12.0110           0
      4562 MEMB     35       POPC     H13A     HL       0.250000       1.00800           0
      4563 MEMB     35       POPC     H13B     HL       0.250000       1.00800           0
      4564 MEMB     35       POPC     H13C     HL       0.250000       1.00800           0
      4565 MEMB     35       POPC     C14      CTL5    -0.350000       12.0110           0
      4566 MEMB     35       POPC     H14A     HL       0.250000       1.00800           0
      4567 MEMB     35       POPC     H14B     HL       0.250000       1.00800           0
      4568 MEMB     35       POPC     H14C     HL       0.250000       1.00800           0
      4569 MEMB     35       POPC     C15      CTL5    -0.350000       12.0110           0
      4570 MEMB     35       POPC     H15A     HL       0.250000       1.00800           0
      4571 MEMB     35       POPC     H15B     HL       0.250000       1.00800           0
      4572 MEMB     35       POPC     H15C     HL       0.250000       1.00800           0
      4573 MEMB     35       POPC     C11      CTL2    -0.800000E-01   12.0110           0
      4574 MEMB     35       POPC     H11A     HAL2     0.900000E-01   1.00800           0
      4575 MEMB     35       POPC     H11B     HAL2     0.900000E-01   1.00800           0
      4576 MEMB     35       POPC     P        PL       1.500000       30.9740           0
      4577 MEMB     35       POPC     O13      O2L     -0.780000       15.9994           0
      4578 MEMB     35       POPC     O14      O2L     -0.780000       15.9994           0
      4579 MEMB     35       POPC     O12      OSLP    -0.570000       15.9994           0
      4580 MEMB     35       POPC     O11      OSLP    -0.570000       15.9994           0
      4581 MEMB     35       POPC     C1       CTL2    -0.800000E-01   12.0110           0
      4582 MEMB     35       POPC     HA       HAL2     0.900000E-01   1.00800           0
      4583 MEMB     35       POPC     HB       HAL2     0.900000E-01   1.00800           0
      4584 MEMB     35       POPC     C2       CTL1     0.170000       12.0110           0
      4585 MEMB     35       POPC     HS       HAL1     0.900000E-01   1.00800           0
      4586 MEMB     35       POPC     O21      OSL     -0.490000       15.9994           0
      4587 MEMB     35       POPC     C21      CL       0.900000       12.0110           0
      4588 MEMB     35       POPC     O22      OBL     -0.630000       15.9994           0
      4589 MEMB     35       POPC     C22      CTL2    -0.220000       12.0110           0
      4590 MEMB     35       POPC     H2R      HAL2     0.900000E-01   1.00800           0
      4591 MEMB     35       POPC     H2S      HAL2     0.900000E-01   1.00800           0
      4592 MEMB     35       POPC     C3       CTL2     0.800000E-01   12.0110           0
      4593 MEMB     35       POPC     HX       HAL2     0.900000E-01   1.00800           0
      4594 MEMB     35       POPC     HY       HAL2     0.900000E-01   1.00800           0
      4595 MEMB     35       POPC     O31      OSL     -0.490000       15.9994           0
      4596 MEMB     35       POPC     C31      CL       0.900000       12.0110           0
      4597 MEMB     35       POPC     O32      OBL     -0.630000       15.9994           0
      4598 MEMB     35       POPC     C32      CTL2    -0.220000       12.0110           0
      4599 MEMB     35       POPC     H2X      HAL2     0.900000E-01   1.00800           0
      4600 MEMB     35       POPC     H2Y      HAL2     0.900000E-01   1.00800           0
      4601 MEMB     35       POPC     C23      CTL2    -0.180000       12.0110           0
      4602 MEMB     35       POPC     H3R      HAL2     0.900000E-01   1.00800           0
      4603 MEMB     35       POPC     H3S      HAL2     0.900000E-01   1.00800           0
      4604 MEMB     35       POPC     C24      CTL2    -0.180000       12.0110           0
      4605 MEMB     35       POPC     H4R      HAL2     0.900000E-01   1.00800           0
      4606 MEMB     35       POPC     H4S      HAL2     0.900000E-01   1.00800           0
      4607 MEMB     35       POPC     C25      CTL2    -0.180000       12.0110           0
      4608 MEMB     35       POPC     H5R      HAL2     0.900000E-01   1.00800           0
      4609 MEMB     35       POPC     H5S      HAL2     0.900000E-01   1.00800           0
      4610 MEMB     35       POPC     C26      CTL2    -0.180000       12.0110           0
      4611 MEMB     35       POPC     H6R      HAL2     0.900000E-01   1.00800           0
      4612 MEMB     35       POPC     H6S      HAL2     0.900000E-01   1.00800           0
      4613 MEMB     35       POPC     C27      CTL2    -0.180000       12.0110           0
      4614 MEMB     35       POPC     H7R      HAL2     0.900000E-01   1.00800           0
      4615 MEMB     35       POPC     H7S      HAL2     0.900000E-01   1.00800           0
      4616 MEMB     35       POPC     C28      CTL2    -0.180000       12.0110           0
      4617 MEMB     35       POPC     H8R      HAL2     0.900000E-01   1.00800           0
      4618 MEMB     35       POPC     H8S      HAL2     0.900000E-01   1.00800           0
      4619 MEMB     35       POPC     C29      CEL1    -0.150000       12.0110           0
      4620 MEMB     35       POPC     H91      HEL1     0.150000       1.00800           0
      4621 MEMB     35       POPC     C210     CEL1    -0.150000       12.0110           0
      4622 MEMB     35       POPC     H101     HEL1     0.150000       1.00800           0
      4623 MEMB     35       POPC     C211     CTL2    -0.180000       12.0110           0
      4624 MEMB     35       POPC     H11R     HAL2     0.900000E-01   1.00800           0
      4625 MEMB     35       POPC     H11S     HAL2     0.900000E-01   1.00800           0
      4626 MEMB     35       POPC     C212     CTL2    -0.180000       12.0110           0
      4627 MEMB     35       POPC     H12R     HAL2     0.900000E-01   1.00800           0
      4628 MEMB     35       POPC     H12S     HAL2     0.900000E-01   1.00800           0
      4629 MEMB     35       POPC     C213     CTL2    -0.180000       12.0110           0
      4630 MEMB     35       POPC     H13R     HAL2     0.900000E-01   1.00800           0
      4631 MEMB     35       POPC     H13S     HAL2     0.900000E-01   1.00800           0
      4632 MEMB     35       POPC     C214     CTL2    -0.180000       12.0110           0
      4633 MEMB     35       POPC     H14R     HAL2     0.900000E-01   1.00800           0
      4634 MEMB     35       POPC     H14S     HAL2     0.900000E-01   1.00800           0
      4635 MEMB     35       POPC     C215     CTL2    -0.180000       12.0110           0
      4636 MEMB     35       POPC     H15R     HAL2     0.900000E-01   1.00800           0
      4637 MEMB     35       POPC     H15S     HAL2     0.900000E-01   1.00800           0
      4638 MEMB     35       POPC     C216     CTL2    -0.180000       12.0110           0
      4639 MEMB     35       POPC     H16R     HAL2     0.900000E-01   1.00800           0
      4640 MEMB     35       POPC     H16S     HAL2     0.900000E-01   1.00800           0
      4641 MEMB     35       POPC     C217     CTL2    -0.180000       12.0110           0
      4642 MEMB     35       POPC     H17R     HAL2     0.900000E-01   1.00800           0
      4643 MEMB     35       POPC     H17S     HAL2     0.900000E-01   1.00800           0
      4644 MEMB     35       POPC     C218     CTL3    -0.270000       12.0110           0
      4645 MEMB     35       POPC     H18R     HAL3     0.900000E-01   1.00800           0
      4646 MEMB     35       POPC     H18S     HAL3     0.900000E-01   1.00800           0
      4647 MEMB     35       POPC     H18T     HAL3     0.900000E-01   1.00800           0
      4648 MEMB     35       POPC     C33      CTL2    -0.180000       12.0110           0
      4649 MEMB     35       POPC     H3X      HAL2     0.900000E-01   1.00800           0
      4650 MEMB     35       POPC     H3Y      HAL2     0.900000E-01   1.00800           0
      4651 MEMB     35       POPC     C34      CTL2    -0.180000       12.0110           0
      4652 MEMB     35       POPC     H4X      HAL2     0.900000E-01   1.00800           0
      4653 MEMB     35       POPC     H4Y      HAL2     0.900000E-01   1.00800           0
      4654 MEMB     35       POPC     C35      CTL2    -0.180000       12.0110           0
      4655 MEMB     35       POPC     H5X      HAL2     0.900000E-01   1.00800           0
      4656 MEMB     35       POPC     H5Y      HAL2     0.900000E-01   1.00800           0
      4657 MEMB     35       POPC     C36      CTL2    -0.180000       12.0110           0
      4658 MEMB     35       POPC     H6X      HAL2     0.900000E-01   1.00800           0
      4659 MEMB     35       POPC     H6Y      HAL2     0.900000E-01   1.00800           0
      4660 MEMB     35       POPC     C37      CTL2    -0.180000       12.0110           0
      4661 MEMB     35       POPC     H7X      HAL2     0.900000E-01   1.00800           0
      4662 MEMB     35       POPC     H7Y      HAL2     0.900000E-01   1.00800           0
      4663 MEMB     35       POPC     C38      CTL2    -0.180000       12.0110           0
      4664 MEMB     35       POPC     H8X      HAL2     0.900000E-01   1.00800           0
      4665 MEMB     35       POPC     H8Y      HAL2     0.900000E-01   1.00800           0
      4666 MEMB     35       POPC     C39      CTL2    -0.180000       12.0110           0
      4667 MEMB     35       POPC     H9X      HAL2     0.900000E-01   1.00800           0
      4668 MEMB     35       POPC     H9Y      HAL2     0.900000E-01   1.00800           0
      4669 MEMB     35       POPC     C310     CTL2    -0.180000       12.0110           0
      4670 MEMB     35       POPC     H10X     HAL2     0.900000E-01   1.00800           0
      4671 MEMB     35       POPC     H10Y     HAL2     0.900000E-01   1.00800           0
      4672 MEMB     35       POPC     C311     CTL2    -0.180000       12.0110           0
      4673 MEMB     35       POPC     H11X     HAL2     0.900000E-01   1.00800           0
      4674 MEMB     35       POPC     H11Y     HAL2     0.900000E-01   1.00800           0
      4675 MEMB     35       POPC     C312     CTL2    -0.180000       12.0110           0
      4676 MEMB     35       POPC     H12X     HAL2     0.900000E-01   1.00800           0
      4677 MEMB     35       POPC     H12Y     HAL2     0.900000E-01   1.00800           0
      4678 MEMB     35       POPC     C313     CTL2    -0.180000       12.0110           0
      4679 MEMB     35       POPC     H13X     HAL2     0.900000E-01   1.00800           0
      4680 MEMB     35       POPC     H13Y     HAL2     0.900000E-01   1.00800           0
      4681 MEMB     35       POPC     C314     CTL2    -0.180000       12.0110           0
      4682 MEMB     35       POPC     H14X     HAL2     0.900000E-01   1.00800           0
      4683 MEMB     35       POPC     H14Y     HAL2     0.900000E-01   1.00800           0
      4684 MEMB     35       POPC     C315     CTL2    -0.180000       12.0110           0
      4685 MEMB     35       POPC     H15X     HAL2     0.900000E-01   1.00800           0
      4686 MEMB     35       POPC     H15Y     HAL2     0.900000E-01   1.00800           0
      4687 MEMB     35       POPC     C316     CTL3    -0.270000       12.0110           0
      4688 MEMB     35       POPC     H16X     HAL3     0.900000E-01   1.00800           0
      4689 MEMB     35       POPC     H16Y     HAL3     0.900000E-01   1.00800           0
      4690 MEMB     35       POPC     H16Z     HAL3     0.900000E-01   1.00800           0
      4691 MEMB     36       POPC     N        NTL     -0.600000       14.0070           0
      4692 MEMB     36       POPC     C12      CTL2    -0.100000       12.0110           0
      4693 MEMB     36       POPC     H12A     HL       0.250000       1.00800           0
      4694 MEMB     36       POPC     H12B     HL       0.250000       1.00800           0
      4695 MEMB     36       POPC     C13      CTL5    -0.350000       12.0110           0
      4696 MEMB     36       POPC     H13A     HL       0.250000       1.00800           0
      4697 MEMB     36       POPC     H13B     HL       0.250000       1.00800           0
      4698 MEMB     36       POPC     H13C     HL       0.250000       1.00800           0
      4699 MEMB     36       POPC     C14      CTL5    -0.350000       12.0110           0
      4700 MEMB     36       POPC     H14A     HL       0.250000       1.00800           0
      4701 MEMB     36       POPC     H14B     HL       0.250000       1.00800           0
      4702 MEMB     36       POPC     H14C     HL       0.250000       1.00800           0
      4703 MEMB     36       POPC     C15      CTL5    -0.350000       12.0110           0
      4704 MEMB     36       POPC     H15A     HL       0.250000       1.00800           0
      4705 MEMB     36       POPC     H15B     HL       0.250000       1.00800           0
      4706 MEMB     36       POPC     H15C     HL       0.250000       1.00800           0
      4707 MEMB     36       POPC     C11      CTL2    -0.800000E-01   12.0110           0
      4708 MEMB     36       POPC     H11A     HAL2     0.900000E-01   1.00800           0
      4709 MEMB     36       POPC     H11B     HAL2     0.900000E-01   1.00800           0
      4710 MEMB     36       POPC     P        PL       1.500000       30.9740           0
      4711 MEMB     36       POPC     O13      O2L     -0.780000       15.9994           0
      4712 MEMB     36       POPC     O14      O2L     -0.780000       15.9994           0
      4713 MEMB     36       POPC     O12      OSLP    -0.570000       15.9994           0
      4714 MEMB     36       POPC     O11      OSLP    -0.570000       15.9994           0
      4715 MEMB     36       POPC     C1       CTL2    -0.800000E-01   12.0110           0
      4716 MEMB     36       POPC     HA       HAL2     0.900000E-01   1.00800           0
      4717 MEMB     36       POPC     HB       HAL2     0.900000E-01   1.00800           0
      4718 MEMB     36       POPC     C2       CTL1     0.170000       12.0110           0
      4719 MEMB     36       POPC     HS       HAL1     0.900000E-01   1.00800           0
      4720 MEMB     36       POPC     O21      OSL     -0.490000       15.9994           0
      4721 MEMB     36       POPC     C21      CL       0.900000       12.0110           0
      4722 MEMB     36       POPC     O22      OBL     -0.630000       15.9994           0
      4723 MEMB     36       POPC     C22      CTL2    -0.220000       12.0110           0
      4724 MEMB     36       POPC     H2R      HAL2     0.900000E-01   1.00800           0
      4725 MEMB     36       POPC     H2S      HAL2     0.900000E-01   1.00800           0
      4726 MEMB     36       POPC     C3       CTL2     0.800000E-01   12.0110           0
      4727 MEMB     36       POPC     HX       HAL2     0.900000E-01   1.00800           0
      4728 MEMB     36       POPC     HY       HAL2     0.900000E-01   1.00800           0
      4729 MEMB     36       POPC     O31      OSL     -0.490000       15.9994           0
      4730 MEMB     36       POPC     C31      CL       0.900000       12.0110           0
      4731 MEMB     36       POPC     O32      OBL     -0.630000       15.9994           0
      4732 MEMB     36       POPC     C32      CTL2    -0.220000       12.0110           0
      4733 MEMB     36       POPC     H2X      HAL2     0.900000E-01   1.00800           0
      4734 MEMB     36       POPC     H2Y      HAL2     0.900000E-01   1.00800           0
      4735 MEMB     36       POPC     C23      CTL2    -0.180000       12.0110           0
      4736 MEMB     36       POPC     H3R      HAL2     0.900000E-01   1.00800           0
      4737 MEMB     36       POPC     H3S      HAL2     0.900000E-01   1.00800           0
      4738 MEMB     36       POPC     C24      CTL2    -0.180000       12.0110           0
      4739 MEMB     36       POPC     H4R      HAL2     0.900000E-01   1.00800           0
      4740 MEMB     36       POPC     H4S      HAL2     0.900000E-01   1.00800           0
      4741 MEMB     36       POPC     C25      CTL2    -0.180000       12.0110           0
      4742 MEMB     36       POPC     H5R      HAL2     0.900000E-01   1.00800           0
      4743 MEMB     36       POPC     H5S      HAL2     0.900000E-01   1.00800           0
      4744 MEMB     36       POPC     C26      CTL2    -0.180000       12.0110           0
      4745 MEMB     36       POPC     H6R      HAL2     0.900000E-01   1.00800           0
      4746 MEMB     36       POPC     H6S      HAL2     0.900000E-01   1.00800           0
      4747 MEMB     36       POPC     C27      CTL2    -0.180000       12.0110           0
      4748 MEMB     36       POPC     H7R      HAL2     0.900000E-01   1.00800           0
      4749 MEMB     36       POPC     H7S      HAL2     0.900000E-01   1.00800           0
      4750 MEMB     36       POPC     C28      CTL2    -0.180000       12.0110           0
      4751 MEMB     36       POPC     H8R      HAL2     0.900000E-01   1.00800           0
      4752 MEMB     36       POPC     H8S      HAL2     0.900000E-01   1.00800           0
      4753 MEMB     36       POPC     C29      CEL1    -0.150000       12.0110           0
      4754 MEMB     36       POPC     H91      HEL1     0.150000       1.00800           0
      4755 MEMB     36       POPC     C210     CEL1    -0.150000       12.0110           0
      4756 MEMB     36       POPC     H101     HEL1     0.150000       1.00800           0
      4757 MEMB     36       POPC     C211     CTL2    -0.180000       12.0110           0
      4758 MEMB     36       POPC     H11R     HAL2     0.900000E-01   1.00800           0
      4759 MEMB     36       POPC     H11S     HAL2     0.900000E-01   1.00800           0
      4760 MEMB     36       POPC     C212     CTL2    -0.180000       12.0110           0
      4761 MEMB     36       POPC     H12R     HAL2     0.900000E-01   1.00800           0
      4762 MEMB     36       POPC     H12S     HAL2     0.900000E-01   1.00800           0
      4763 MEMB     36       POPC     C213     CTL2    -0.180000       12.0110           0
      4764 MEMB     36       POPC     H13R     HAL2     0.900000E-01   1.00800           0
      4765 MEMB     36       POPC     H13S     HAL2     0.900000E-01   1.00800           0
      4766 MEMB     36       POPC     C214     CTL2    -0.180000       12.0110           0
      4767 MEMB     36       POPC     H14R     HAL2     0.900000E-01   1.00800           0
      4768 MEMB     36       POPC     H14S     HAL2     0.900000E-01   1.00800           0
      4769 MEMB     36       POPC     C215     CTL2    -0.180000       12.0110           0
      4770 MEMB     36       POPC     H15R     HAL2     0.900000E-01   1.00800           0
      4771 MEMB     36       POPC     H15S     HAL2     0.900000E-01   1.00800           0
      4772 MEMB     36       POPC     C216     CTL2    -0.180000       12.0110           0
      4773 MEMB     36       POPC     H16R     HAL2     0.900000E-01   1.00800           0
      4774 MEMB     36       POPC     H16S     HAL2     0.900000E-01   1.00800           0
      4775 MEMB     36       POPC     C217     CTL2    -0.180000       12.0110           0
      4776 MEMB     36       POPC     H17R     HAL2     0.900000E-01   1.00800           0
      4777 MEMB     36       POPC     H17S     HAL2     0.900000E-01   1.00800           0
      4778 MEMB     36       POPC     C218     CTL3    -0.270000       12.0110           0
      4779 MEMB     36       POPC     H18R     HAL3     0.900000E-01   1.00800           0
      4780 MEMB     36       POPC     H18S     HAL3     0.900000E-01   1.00800           0
      4781 MEMB     36       POPC     H18T     HAL3     0.900000E-01   1.00800           0
      4782 MEMB     36       POPC     C33      CTL2    -0.180000       12.0110           0
      4783 MEMB     36       POPC     H3X      HAL2     0.900000E-01   1.00800           0
      4784 MEMB     36       POPC     H3Y      HAL2     0.900000E-01   1.00800           0
      4785 MEMB     36       POPC     C34      CTL2    -0.180000       12.0110           0
      4786 MEMB     36       POPC     H4X      HAL2     0.900000E-01   1.00800           0
      4787 MEMB     36       POPC     H4Y      HAL2     0.900000E-01   1.00800           0
      4788 MEMB     36       POPC     C35      CTL2    -0.180000       12.0110           0
      4789 MEMB     36       POPC     H5X      HAL2     0.900000E-01   1.00800           0
      4790 MEMB     36       POPC     H5Y      HAL2     0.900000E-01   1.00800           0
      4791 MEMB     36       POPC     C36      CTL2    -0.180000       12.0110           0
      4792 MEMB     36       POPC     H6X      HAL2     0.900000E-01   1.00800           0
      4793 MEMB     36       POPC     H6Y      HAL2     0.900000E-01   1.00800           0
      4794 MEMB     36       POPC     C37      CTL2    -0.180000       12.0110           0
      4795 MEMB     36       POPC     H7X      HAL2     0.900000E-01   1.00800           0
      4796 MEMB     36       POPC     H7Y      HAL2     0.900000E-01   1.00800           0
      4797 MEMB     36       POPC     C38      CTL2    -0.180000       12.0110           0
      4798 MEMB     36       POPC     H8X      HAL2     0.900000E-01   1.00800           0
      4799 MEMB     36       POPC     H8Y      HAL2     0.900000E-01   1.00800           0
      4800 MEMB     36       POPC     C39      CTL2    -0.180000       12.0110           0
      4801 MEMB     36       POPC     H9X      HAL2     0.900000E-01   1.00800           0
      4802 MEMB     36       POPC     H9Y      HAL2     0.900000E-01   1.00800           0
      4803 MEMB     36       POPC     C310     CTL2    -0.180000       12.0110           0
      4804 MEMB     36       POPC     H10X     HAL2     0.900000E-01   1.00800           0
      4805 MEMB     36       POPC     H10Y     HAL2     0.900000E-01   1.00800           0
      4806 MEMB     36       POPC     C311     CTL2    -0.180000       12.0110           0
      4807 MEMB     36       POPC     H11X     HAL2     0.900000E-01   1.00800           0
      4808 MEMB     36       POPC     H11Y     HAL2     0.900000E-01   1.00800           0
      4809 MEMB     36       POPC     C312     CTL2    -0.180000       12.0110           0
      4810 MEMB     36       POPC     H12X     HAL2     0.900000E-01   1.00800           0
      4811 MEMB     36       POPC     H12Y     HAL2     0.900000E-01   1.00800           0
      4812 MEMB     36       POPC     C313     CTL2    -0.180000       12.0110           0
      4813 MEMB     36       POPC     H13X     HAL2     0.900000E-01   1.00800           0
      4814 MEMB     36       POPC     H13Y     HAL2     0.900000E-01   1.00800           0
      4815 MEMB     36       POPC     C314     CTL2    -0.180000       12.0110           0
      4816 MEMB     36       POPC     H14X     HAL2     0.900000E-01   1.00800           0
      4817 MEMB     36       POPC     H14Y     HAL2     0.900000E-01   1.00800           0
      4818 MEMB     36       POPC     C315     CTL2    -0.180000       12.0110           0
      4819 MEMB     36       POPC     H15X     HAL2     0.900000E-01   1.00800           0
      4820 MEMB     36       POPC     H15Y     HAL2     0.900000E-01   1.00800           0
      4821 MEMB     36       POPC     C316     CTL3    -0.270000       12.0110           0
      4822 MEMB     36       POPC     H16X     HAL3     0.900000E-01   1.00800           0
      4823 MEMB     36       POPC     H16Y     HAL3     0.900000E-01   1.00800           0
      4824 MEMB     36       POPC     H16Z     HAL3     0.900000E-01   1.00800           0
      4825 MEMB     37       POPC     N        NTL     -0.600000       14.0070           0
      4826 MEMB     37       POPC     C12      CTL2    -0.100000       12.0110           0
      4827 MEMB     37       POPC     H12A     HL       0.250000       1.00800           0
      4828 MEMB     37       POPC     H12B     HL       0.250000       1.00800           0
      4829 MEMB     37       POPC     C13      CTL5    -0.350000       12.0110           0
      4830 MEMB     37       POPC     H13A     HL       0.250000       1.00800           0
      4831 MEMB     37       POPC     H13B     HL       0.250000       1.00800           0
      4832 MEMB     37       POPC     H13C     HL       0.250000       1.00800           0
      4833 MEMB     37       POPC     C14      CTL5    -0.350000       12.0110           0
      4834 MEMB     37       POPC     H14A     HL       0.250000       1.00800           0
      4835 MEMB     37       POPC     H14B     HL       0.250000       1.00800           0
      4836 MEMB     37       POPC     H14C     HL       0.250000       1.00800           0
      4837 MEMB     37       POPC     C15      CTL5    -0.350000       12.0110           0
      4838 MEMB     37       POPC     H15A     HL       0.250000       1.00800           0
      4839 MEMB     37       POPC     H15B     HL       0.250000       1.00800           0
      4840 MEMB     37       POPC     H15C     HL       0.250000       1.00800           0
      4841 MEMB     37       POPC     C11      CTL2    -0.800000E-01   12.0110           0
      4842 MEMB     37       POPC     H11A     HAL2     0.900000E-01   1.00800           0
      4843 MEMB     37       POPC     H11B     HAL2     0.900000E-01   1.00800           0
      4844 MEMB     37       POPC     P        PL       1.500000       30.9740           0
      4845 MEMB     37       POPC     O13      O2L     -0.780000       15.9994           0
      4846 MEMB     37       POPC     O14      O2L     -0.780000       15.9994           0
      4847 MEMB     37       POPC     O12      OSLP    -0.570000       15.9994           0
      4848 MEMB     37       POPC     O11      OSLP    -0.570000       15.9994           0
      4849 MEMB     37       POPC     C1       CTL2    -0.800000E-01   12.0110           0
      4850 MEMB     37       POPC     HA       HAL2     0.900000E-01   1.00800           0
      4851 MEMB     37       POPC     HB       HAL2     0.900000E-01   1.00800           0
      4852 MEMB     37       POPC     C2       CTL1     0.170000       12.0110           0
      4853 MEMB     37       POPC     HS       HAL1     0.900000E-01   1.00800           0
      4854 MEMB     37       POPC     O21      OSL     -0.490000       15.9994           0
      4855 MEMB     37       POPC     C21      CL       0.900000       12.0110           0
      4856 MEMB     37       POPC     O22      OBL     -0.630000       15.9994           0
      4857 MEMB     37       POPC     C22      CTL2    -0.220000       12.0110           0
      4858 MEMB     37       POPC     H2R      HAL2     0.900000E-01   1.00800           0
      4859 MEMB     37       POPC     H2S      HAL2     0.900000E-01   1.00800           0
      4860 MEMB     37       POPC     C3       CTL2     0.800000E-01   12.0110           0
      4861 MEMB     37       POPC     HX       HAL2     0.900000E-01   1.00800           0
      4862 MEMB     37       POPC     HY       HAL2     0.900000E-01   1.00800           0
      4863 MEMB     37       POPC     O31      OSL     -0.490000       15.9994           0
      4864 MEMB     37       POPC     C31      CL       0.900000       12.0110           0
      4865 MEMB     37       POPC     O32      OBL     -0.630000       15.9994           0
      4866 MEMB     37       POPC     C32      CTL2    -0.220000       12.0110           0
      4867 MEMB     37       POPC     H2X      HAL2     0.900000E-01   1.00800           0
      4868 MEMB     37       POPC     H2Y      HAL2     0.900000E-01   1.00800           0
      4869 MEMB     37       POPC     C23      CTL2    -0.180000       12.0110           0
      4870 MEMB     37       POPC     H3R      HAL2     0.900000E-01   1.00800           0
      4871 MEMB     37       POPC     H3S      HAL2     0.900000E-01   1.00800           0
      4872 MEMB     37       POPC     C24      CTL2    -0.180000       12.0110           0
      4873 MEMB     37       POPC     H4R      HAL2     0.900000E-01   1.00800           0
      4874 MEMB     37       POPC     H4S      HAL2     0.900000E-01   1.00800           0
      4875 MEMB     37       POPC     C25      CTL2    -0.180000       12.0110           0
      4876 MEMB     37       POPC     H5R      HAL2     0.900000E-01   1.00800           0
      4877 MEMB     37       POPC     H5S      HAL2     0.900000E-01   1.00800           0
      4878 MEMB     37       POPC     C26      CTL2    -0.180000       12.0110           0
      4879 MEMB     37       POPC     H6R      HAL2     0.900000E-01   1.00800           0
      4880 MEMB     37       POPC     H6S      HAL2     0.900000E-01   1.00800           0
      4881 MEMB     37       POPC     C27      CTL2    -0.180000       12.0110           0
      4882 MEMB     37       POPC     H7R      HAL2     0.900000E-01   1.00800           0
      4883 MEMB     37       POPC     H7S      HAL2     0.900000E-01   1.00800           0
      4884 MEMB     37       POPC     C28      CTL2    -0.180000       12.0110           0
      4885 MEMB     37       POPC     H8R      HAL2     0.900000E-01   1.00800           0
      4886 MEMB     37       POPC     H8S      HAL2     0.900000E-01   1.00800           0
      4887 MEMB     37       POPC     C29      CEL1    -0.150000       12.0110           0
      4888 MEMB     37       POPC     H91      HEL1     0.150000       1.00800           0
      4889 MEMB     37       POPC     C210     CEL1    -0.150000       12.0110           0
      4890 MEMB     37       POPC     H101     HEL1     0.150000       1.00800           0
      4891 MEMB     37       POPC     C211     CTL2    -0.180000       12.0110           0
      4892 MEMB     37       POPC     H11R     HAL2     0.900000E-01   1.00800           0
      4893 MEMB     37       POPC     H11S     HAL2     0.900000E-01   1.00800           0
      4894 MEMB     37       POPC     C212     CTL2    -0.180000       12.0110           0
      4895 MEMB     37       POPC     H12R     HAL2     0.900000E-01   1.00800           0
      4896 MEMB     37       POPC     H12S     HAL2     0.900000E-01   1.00800           0
      4897 MEMB     37       POPC     C213     CTL2    -0.180000       12.0110           0
      4898 MEMB     37       POPC     H13R     HAL2     0.900000E-01   1.00800           0
      4899 MEMB     37       POPC     H13S     HAL2     0.900000E-01   1.00800           0
      4900 MEMB     37       POPC     C214     CTL2    -0.180000       12.0110           0
      4901 MEMB     37       POPC     H14R     HAL2     0.900000E-01   1.00800           0
      4902 MEMB     37       POPC     H14S     HAL2     0.900000E-01   1.00800           0
      4903 MEMB     37       POPC     C215     CTL2    -0.180000       12.0110           0
      4904 MEMB     37       POPC     H15R     HAL2     0.900000E-01   1.00800           0
      4905 MEMB     37       POPC     H15S     HAL2     0.900000E-01   1.00800           0
      4906 MEMB     37       POPC     C216     CTL2    -0.180000       12.0110           0
      4907 MEMB     37       POPC     H16R     HAL2     0.900000E-01   1.00800           0
      4908 MEMB     37       POPC     H16S     HAL2     0.900000E-01   1.00800           0
      4909 MEMB     37       POPC     C217     CTL2    -0.180000       12.0110           0
      4910 MEMB     37       POPC     H17R     HAL2     0.900000E-01   1.00800           0
      4911 MEMB     37       POPC     H17S     HAL2     0.900000E-01   1.00800           0
      4912 MEMB     37       POPC     C218     CTL3    -0.270000       12.0110           0
      4913 MEMB     37       POPC     H18R     HAL3     0.900000E-01   1.00800           0
      4914 MEMB     37       POPC     H18S     HAL3     0.900000E-01   1.00800           0
      4915 MEMB     37       POPC     H18T     HAL3     0.900000E-01   1.00800           0
      4916 MEMB     37       POPC     C33      CTL2    -0.180000       12.0110           0
      4917 MEMB     37       POPC     H3X      HAL2     0.900000E-01   1.00800           0
      4918 MEMB     37       POPC     H3Y      HAL2     0.900000E-01   1.00800           0
      4919 MEMB     37       POPC     C34      CTL2    -0.180000       12.0110           0
      4920 MEMB     37       POPC     H4X      HAL2     0.900000E-01   1.00800           0
      4921 MEMB     37       POPC     H4Y      HAL2     0.900000E-01   1.00800           0
      4922 MEMB     37       POPC     C35      CTL2    -0.180000       12.0110           0
      4923 MEMB     37       POPC     H5X      HAL2     0.900000E-01   1.00800           0
      4924 MEMB     37       POPC     H5Y      HAL2     0.900000E-01   1.00800           0
      4925 MEMB     37       POPC     C36      CTL2    -0.180000       12.0110           0
      4926 MEMB     37       POPC     H6X      HAL2     0.900000E-01   1.00800           0
      4927 MEMB     37       POPC     H6Y      HAL2     0.900000E-01   1.00800           0
      4928 MEMB     37       POPC     C37      CTL2    -0.180000       12.0110           0
      4929 MEMB     37       POPC     H7X      HAL2     0.900000E-01   1.00800           0
      4930 MEMB     37       POPC     H7Y      HAL2     0.900000E-01   1.00800           0
      4931 MEMB     37       POPC     C38      CTL2    -0.180000       12.0110           0
      4932 MEMB     37       POPC     H8X      HAL2     0.900000E-01   1.00800           0
      4933 MEMB     37       POPC     H8Y      HAL2     0.900000E-01   1.00800           0
      4934 MEMB     37       POPC     C39      CTL2    -0.180000       12.0110           0
      4935 MEMB     37       POPC     H9X      HAL2     0.900000E-01   1.00800           0
      4936 MEMB     37       POPC     H9Y      HAL2     0.900000E-01   1.00800           0
      4937 MEMB     37       POPC     C310     CTL2    -0.180000       12.0110           0
      4938 MEMB     37       POPC     H10X     HAL2     0.900000E-01   1.00800           0
      4939 MEMB     37       POPC     H10Y     HAL2     0.900000E-01   1.00800           0
      4940 MEMB     37       POPC     C311     CTL2    -0.180000       12.0110           0
      4941 MEMB     37       POPC     H11X     HAL2     0.900000E-01   1.00800           0
      4942 MEMB     37       POPC     H11Y     HAL2     0.900000E-01   1.00800           0
      4943 MEMB     37       POPC     C312     CTL2    -0.180000       12.0110           0
      4944 MEMB     37       POPC     H12X     HAL2     0.900000E-01   1.00800           0
      4945 MEMB     37       POPC     H12Y     HAL2     0.900000E-01   1.00800           0
      4946 MEMB     37       POPC     C313     CTL2    -0.180000       12.0110           0
      4947 MEMB     37       POPC     H13X     HAL2     0.900000E-01   1.00800           0
      4948 MEMB     37       POPC     H13Y     HAL2     0.900000E-01   1.00800           0
      4949 MEMB     37       POPC     C314     CTL2    -0.180000       12.0110           0
      4950 MEMB     37       POPC     H14X     HAL2     0.900000E-01   1.00800           0
      4951 MEMB     37       POPC     H14Y     HAL2     0.900000E-01   1.00800           0
      4952 MEMB     37       POPC     C315     CTL2    -0.180000       12.0110           0
      4953 MEMB     37       POPC     H15X     HAL2     0.900000E-01   1.00800           0
      4954 MEMB     37       POPC     H15Y     HAL2     0.900000E-01   1.00800           0
      4955 MEMB     37       POPC     C316     CTL3    -0.270000       12.0110           0
      4956 MEMB     37       POPC     H16X     HAL3     0.900000E-01   1.00800           0
      4957 MEMB     37       POPC     H16Y     HAL3     0.900000E-01   1.00800           0
      4958 MEMB     37       POPC     H16Z     HAL3     0.900000E-01   1.00800           0
      4959 MEMB     38       POPC     N        NTL     -0.600000       14.0070           0
      4960 MEMB     38       POPC     C12      CTL2    -0.100000       12.0110           0
      4961 MEMB     38       POPC     H12A     HL       0.250000       1.00800           0
      4962 MEMB     38       POPC     H12B     HL       0.250000       1.00800           0
      4963 MEMB     38       POPC     C13      CTL5    -0.350000       12.0110           0
      4964 MEMB     38       POPC     H13A     HL       0.250000       1.00800           0
      4965 MEMB     38       POPC     H13B     HL       0.250000       1.00800           0
      4966 MEMB     38       POPC     H13C     HL       0.250000       1.00800           0
      4967 MEMB     38       POPC     C14      CTL5    -0.350000       12.0110           0
      4968 MEMB     38       POPC     H14A     HL       0.250000       1.00800           0
      4969 MEMB     38       POPC     H14B     HL       0.250000       1.00800           0
      4970 MEMB     38       POPC     H14C     HL       0.250000       1.00800           0
      4971 MEMB     38       POPC     C15      CTL5    -0.350000       12.0110           0
      4972 MEMB     38       POPC     H15A     HL       0.250000       1.00800           0
      4973 MEMB     38       POPC     H15B     HL       0.250000       1.00800           0
      4974 MEMB     38       POPC     H15C     HL       0.250000       1.00800           0
      4975 MEMB     38       POPC     C11      CTL2    -0.800000E-01   12.0110           0
      4976 MEMB     38       POPC     H11A     HAL2     0.900000E-01   1.00800           0
      4977 MEMB     38       POPC     H11B     HAL2     0.900000E-01   1.00800           0
      4978 MEMB     38       POPC     P        PL       1.500000       30.9740           0
      4979 MEMB     38       POPC     O13      O2L     -0.780000       15.9994           0
      4980 MEMB     38       POPC     O14      O2L     -0.780000       15.9994           0
      4981 MEMB     38       POPC     O12      OSLP    -0.570000       15.9994           0
      4982 MEMB     38       POPC     O11      OSLP    -0.570000       15.9994           0
      4983 MEMB     38       POPC     C1       CTL2    -0.800000E-01   12.0110           0
      4984 MEMB     38       POPC     HA       HAL2     0.900000E-01   1.00800           0
      4985 MEMB     38       POPC     HB       HAL2     0.900000E-01   1.00800           0
      4986 MEMB     38       POPC     C2       CTL1     0.170000       12.0110           0
      4987 MEMB     38       POPC     HS       HAL1     0.900000E-01   1.00800           0
      4988 MEMB     38       POPC     O21      OSL     -0.490000       15.9994           0
      4989 MEMB     38       POPC     C21      CL       0.900000       12.0110           0
      4990 MEMB     38       POPC     O22      OBL     -0.630000       15.9994           0
      4991 MEMB     38       POPC     C22      CTL2    -0.220000       12.0110           0
      4992 MEMB     38       POPC     H2R      HAL2     0.900000E-01   1.00800           0
      4993 MEMB     38       POPC     H2S      HAL2     0.900000E-01   1.00800           0
      4994 MEMB     38       POPC     C3       CTL2     0.800000E-01   12.0110           0
      4995 MEMB     38       POPC     HX       HAL2     0.900000E-01   1.00800           0
      4996 MEMB     38       POPC     HY       HAL2     0.900000E-01   1.00800           0
      4997 MEMB     38       POPC     O31      OSL     -0.490000       15.9994           0
      4998 MEMB     38       POPC     C31      CL       0.900000       12.0110           0
      4999 MEMB     38       POPC     O32      OBL     -0.630000       15.9994           0
      5000 MEMB     38       POPC     C32      CTL2    -0.220000       12.0110           0
      5001 MEMB     38       POPC     H2X      HAL2     0.900000E-01   1.00800           0
      5002 MEMB     38       POPC     H2Y      HAL2     0.900000E-01   1.00800           0
      5003 MEMB     38       POPC     C23      CTL2    -0.180000       12.0110           0
      5004 MEMB     38       POPC     H3R      HAL2     0.900000E-01   1.00800           0
      5005 MEMB     38       POPC     H3S      HAL2     0.900000E-01   1.00800           0
      5006 MEMB     38       POPC     C24      CTL2    -0.180000       12.0110           0
      5007 MEMB     38       POPC     H4R      HAL2     0.900000E-01   1.00800           0
      5008 MEMB     38       POPC     H4S      HAL2     0.900000E-01   1.00800           0
      5009 MEMB     38       POPC     C25      CTL2    -0.180000       12.0110           0
      5010 MEMB     38       POPC     H5R      HAL2     0.900000E-01   1.00800           0
      5011 MEMB     38       POPC     H5S      HAL2     0.900000E-01   1.00800           0
      5012 MEMB     38       POPC     C26      CTL2    -0.180000       12.0110           0
      5013 MEMB     38       POPC     H6R      HAL2     0.900000E-01   1.00800           0
      5014 MEMB     38       POPC     H6S      HAL2     0.900000E-01   1.00800           0
      5015 MEMB     38       POPC     C27      CTL2    -0.180000       12.0110           0
      5016 MEMB     38       POPC     H7R      HAL2     0.900000E-01   1.00800           0
      5017 MEMB     38       POPC     H7S      HAL2     0.900000E-01   1.00800           0
      5018 MEMB     38       POPC     C28      CTL2    -0.180000       12.0110           0
      5019 MEMB     38       POPC     H8R      HAL2     0.900000E-01   1.00800           0
      5020 MEMB     38       POPC     H8S      HAL2     0.900000E-01   1.00800           0
      5021 MEMB     38       POPC     C29      CEL1    -0.150000       12.0110           0
      5022 MEMB     38       POPC     H91      HEL1     0.150000       1.00800           0
      5023 MEMB     38       POPC     C210     CEL1    -0.150000       12.0110           0
      5024 MEMB     38       POPC     H101     HEL1     0.150000       1.00800           0
      5025 MEMB     38       POPC     C211     CTL2    -0.180000       12.0110           0
      5026 MEMB     38       POPC     H11R     HAL2     0.900000E-01   1.00800           0
      5027 MEMB     38       POPC     H11S     HAL2     0.900000E-01   1.00800           0
      5028 MEMB     38       POPC     C212     CTL2    -0.180000       12.0110           0
      5029 MEMB     38       POPC     H12R     HAL2     0.900000E-01   1.00800           0
      5030 MEMB     38       POPC     H12S     HAL2     0.900000E-01   1.00800           0
      5031 MEMB     38       POPC     C213     CTL2    -0.180000       12.0110           0
      5032 MEMB     38       POPC     H13R     HAL2     0.900000E-01   1.00800           0
      5033 MEMB     38       POPC     H13S     HAL2     0.900000E-01   1.00800           0
      5034 MEMB     38       POPC     C214     CTL2    -0.180000       12.0110           0
      5035 MEMB     38       POPC     H14R     HAL2     0.900000E-01   1.00800           0
      5036 MEMB     38       POPC     H14S     HAL2     0.900000E-01   1.00800           0
      5037 MEMB     38       POPC     C215     CTL2    -0.180000       12.0110           0
      5038 MEMB     38       POPC     H15R     HAL2     0.900000E-01   1.00800           0
      5039 MEMB     38       POPC     H15S     HAL2     0.900000E-01   1.00800           0
      5040 MEMB     38       POPC     C216     CTL2    -0.180000       12.0110           0
      5041 MEMB     38       POPC     H16R     HAL2     0.900000E-01   1.00800           0
      5042 MEMB     38       POPC     H16S     HAL2     0.900000E-01   1.00800           0
      5043 MEMB     38       POPC     C217     CTL2    -0.180000       12.0110           0
      5044 MEMB     38       POPC     H17R     HAL2     0.900000E-01   1.00800           0
      5045 MEMB     38       POPC     H17S     HAL2     0.900000E-01   1.00800           0
      5046 MEMB     38       POPC     C218     CTL3    -0.270000       12.0110           0
      5047 MEMB     38       POPC     H18R     HAL3     0.900000E-01   1.00800           0
      5048 MEMB     38       POPC     H18S     HAL3     0.900000E-01   1.00800           0
      5049 MEMB     38       POPC     H18T     HAL3     0.900000E-01   1.00800           0
      5050 MEMB     38       POPC     C33      CTL2    -0.180000       12.0110           0
      5051 MEMB     38       POPC     H3X      HAL2     0.900000E-01   1.00800           0
      5052 MEMB     38       POPC     H3Y      HAL2     0.900000E-01   1.00800           0
      5053 MEMB     38       POPC     C34      CTL2    -0.180000       12.0110           0
      5054 MEMB     38       POPC     H4X      HAL2     0.900000E-01   1.00800           0
      5055 MEMB     38       POPC     H4Y      HAL2     0.900000E-01   1.00800           0
      5056 MEMB     38       POPC     C35      CTL2    -0.180000       12.0110           0
      5057 MEMB     38       POPC     H5X      HAL2     0.900000E-01   1.00800           0
      5058 MEMB     38       POPC     H5Y      HAL2     0.900000E-01   1.00800           0
      5059 MEMB     38       POPC     C36      CTL2    -0.180000       12.0110           0
      5060 MEMB     38       POPC     H6X      HAL2     0.900000E-01   1.00800           0
      5061 MEMB     38       POPC     H6Y      HAL2     0.900000E-01   1.00800           0
      5062 MEMB     38       POPC     C37      CTL2    -0.180000       12.0110           0
      5063 MEMB     38       POPC     H7X      HAL2     0.900000E-01   1.00800           0
      5064 MEMB     38       POPC     H7Y      HAL2     0.900000E-01   1.00800           0
      5065 MEMB     38       POPC     C38      CTL2    -0.180000       12.0110           0
      5066 MEMB     38       POPC     H8X      HAL2     0.900000E-01   1.00800           0
      5067 MEMB     38       POPC     H8Y      HAL2     0.900000E-01   1.00800           0
      5068 MEMB     38       POPC     C39      CTL2    -0.180000       12.0110           0
      5069 MEMB     38       POPC     H9X      HAL2     0.900000E-01   1.00800           0
      5070 MEMB     38       POPC     H9Y      HAL2     0.900000E-01   1.00800           0
      5071 MEMB     38       POPC     C310     CTL2    -0.180000       12.0110           0
      5072 MEMB     38       POPC     H10X     HAL2     0.900000E-01   1.00800           0
      5073 MEMB     38       POPC     H10Y     HAL2     0.900000E-01   1.00800           0
      5074 MEMB     38       POPC     C311     CTL2    -0.180000       12.0110           0
      5075 MEMB     38       POPC     H11X     HAL2     0.900000E-01   1.00800           0
      5076 MEMB     38       POPC     H11Y     HAL2     0.900000E-01   1.00800           0
      5077 MEMB     38       POPC     C312     CTL2    -0.180000       12.0110           0
      5078 MEMB     38       POPC     H12X     HAL2     0.900000E-01   1.00800           0
      5079 MEMB     38       POPC     H12Y     HAL2     0.900000E-01   1.00800           0
      5080 MEMB     38       POPC     C313     CTL2    -0.180000       12.0110           0
      5081 MEMB     38       POPC     H13X     HAL2     0.900000E-01   1.00800           0
      5082 MEMB     38       POPC     H13Y     HAL2     0.900000E-01   1.00800           0
      5083 MEMB     38       POPC     C314     CTL2    -0.180000       12.0110           0
      5084 MEMB     38       POPC     H14X     HAL2     0.900000E-01   1.00800           0
      5085 MEMB     38       POPC     H14Y     HAL2     0.900000E-01   1.00800           0
      5086 MEMB     38       POPC     C315     CTL2    -0.180000       12.0110           0
      5087 MEMB     38       POPC     H15X     HAL2     0.900000E-01   1.00800           0
      5088 MEMB     38       POPC     H15Y     HAL2     0.900000E-01   1.00800           0
      5089 MEMB     38       POPC     C316     CTL3    -0.270000       12.0110           0
      5090 MEMB     38       POPC     H16X     HAL3     0.900000E-01   1.00800           0
      5091 MEMB     38       POPC     H16Y     HAL3     0.900000E-01   1.00800           0
      5092 MEMB     38       POPC     H16Z     HAL3     0.900000E-01   1.00800           0
      5093 MEMB     39       POPC     N        NTL     -0.600000       14.0070           0
      5094 MEMB     39       POPC     C12      CTL2    -0.100000       12.0110           0
      5095 MEMB     39       POPC     H12A     HL       0.250000       1.00800           0
      5096 MEMB     39       POPC     H12B     HL       0.250000       1.00800           0
      5097 MEMB     39       POPC     C13      CTL5    -0.350000       12.0110           0
      5098 MEMB     39       POPC     H13A     HL       0.250000       1.00800           0
      5099 MEMB     39       POPC     H13B     HL       0.250000       1.00800           0
      5100 MEMB     39       POPC     H13C     HL       0.250000       1.00800           0
      5101 MEMB     39       POPC     C14      CTL5    -0.350000       12.0110           0
      5102 MEMB     39       POPC     H14A     HL       0.250000       1.00800           0
      5103 MEMB     39       POPC     H14B     HL       0.250000       1.00800           0
      5104 MEMB     39       POPC     H14C     HL       0.250000       1.00800           0
      5105 MEMB     39       POPC     C15      CTL5    -0.350000       12.0110           0
      5106 MEMB     39       POPC     H15A     HL       0.250000       1.00800           0
      5107 MEMB     39       POPC     H15B     HL       0.250000       1.00800           0
      5108 MEMB     39       POPC     H15C     HL       0.250000       1.00800           0
      5109 MEMB     39       POPC     C11      CTL2    -0.800000E-01   12.0110           0
      5110 MEMB     39       POPC     H11A     HAL2     0.900000E-01   1.00800           0
      5111 MEMB     39       POPC     H11B     HAL2     0.900000E-01   1.00800           0
      5112 MEMB     39       POPC     P        PL       1.500000       30.9740           0
      5113 MEMB     39       POPC     O13      O2L     -0.780000       15.9994           0
      5114 MEMB     39       POPC     O14      O2L     -0.780000       15.9994           0
      5115 MEMB     39       POPC     O12      OSLP    -0.570000       15.9994           0
      5116 MEMB     39       POPC     O11      OSLP    -0.570000       15.9994           0
      5117 MEMB     39       POPC     C1       CTL2    -0.800000E-01   12.0110           0
      5118 MEMB     39       POPC     HA       HAL2     0.900000E-01   1.00800           0
      5119 MEMB     39       POPC     HB       HAL2     0.900000E-01   1.00800           0
      5120 MEMB     39       POPC     C2       CTL1     0.170000       12.0110           0
      5121 MEMB     39       POPC     HS       HAL1     0.900000E-01   1.00800           0
      5122 MEMB     39       POPC     O21      OSL     -0.490000       15.9994           0
      5123 MEMB     39       POPC     C21      CL       0.900000       12.0110           0
      5124 MEMB     39       POPC     O22      OBL     -0.630000       15.9994           0
      5125 MEMB     39       POPC     C22      CTL2    -0.220000       12.0110           0
      5126 MEMB     39       POPC     H2R      HAL2     0.900000E-01   1.00800           0
      5127 MEMB     39       POPC     H2S      HAL2     0.900000E-01   1.00800           0
      5128 MEMB     39       POPC     C3       CTL2     0.800000E-01   12.0110           0
      5129 MEMB     39       POPC     HX       HAL2     0.900000E-01   1.00800           0
      5130 MEMB     39       POPC     HY       HAL2     0.900000E-01   1.00800           0
      5131 MEMB     39       POPC     O31      OSL     -0.490000       15.9994           0
      5132 MEMB     39       POPC     C31      CL       0.900000       12.0110           0
      5133 MEMB     39       POPC     O32      OBL     -0.630000       15.9994           0
      5134 MEMB     39       POPC     C32      CTL2    -0.220000       12.0110           0
      5135 MEMB     39       POPC     H2X      HAL2     0.900000E-01   1.00800           0
      5136 MEMB     39       POPC     H2Y      HAL2     0.900000E-01   1.00800           0
      5137 MEMB     39       POPC     C23      CTL2    -0.180000       12.0110           0
      5138 MEMB     39       POPC     H3R      HAL2     0.900000E-01   1.00800           0
      5139 MEMB     39       POPC     H3S      HAL2     0.900000E-01   1.00800           0
      5140 MEMB     39       POPC     C24      CTL2    -0.180000       12.0110           0
      5141 MEMB     39       POPC     H4R      HAL2     0.900000E-01   1.00800           0
      5142 MEMB     39       POPC     H4S      HAL2     0.900000E-01   1.00800           0
      5143 MEMB     39       POPC     C25      CTL2    -0.180000       12.0110           0
      5144 MEMB     39       POPC     H5R      HAL2     0.900000E-01   1.00800           0
      5145 MEMB     39       POPC     H5S      HAL2     0.900000E-01   1.00800           0
      5146 MEMB     39       POPC     C26      CTL2    -0.180000       12.0110           0
      5147 MEMB     39       POPC     H6R      HAL2     0.900000E-01   1.00800           0
      5148 MEMB     39       POPC     H6S      HAL2     0.900000E-01   1.00800           0
      5149 MEMB     39       POPC     C27      CTL2    -0.180000       12.0110           0
      5150 MEMB     39       POPC     H7R      HAL2     0.900000E-01   1.00800           0
      5151 MEMB     39       POPC     H7S      HAL2     0.900000E-01   1.00800           0
      5152 MEMB     39       POPC     C28      CTL2    -0.180000       12.0110           0
      5153 MEMB     39       POPC     H8R      HAL2     0.900000E-01   1.00800           0
      5154 MEMB     39       POPC     H8S      HAL2     0.900000E-01   1.00800           0
      5155 MEMB     39       POPC     C29      CEL1    -0.150000       12.0110           0
      5156 MEMB     39       POPC     H91      HEL1     0.150000       1.00800           0
      5157 MEMB     39       POPC     C210     CEL1    -0.150000       12.0110           0
      5158 MEMB     39       POPC     H101     HEL1     0.150000       1.00800           0
      5159 MEMB     39       POPC     C211     CTL2    -0.180000       12.0110           0
      5160 MEMB     39       POPC     H11R     HAL2     0.900000E-01   1.00800           0
      5161 MEMB     39       POPC     H11S     HAL2     0.900000E-01   1.00800           0
      5162 MEMB     39       POPC     C212     CTL2    -0.180000       12.0110           0
      5163 MEMB     39       POPC     H12R     HAL2     0.900000E-01   1.00800           0
      5164 MEMB     39       POPC     H12S     HAL2     0.900000E-01   1.00800           0
      5165 MEMB     39       POPC     C213     CTL2    -0.180000       12.0110           0
      5166 MEMB     39       POPC     H13R     HAL2     0.900000E-01   1.00800           0
      5167 MEMB     39       POPC     H13S     HAL2     0.900000E-01   1.00800           0
      5168 MEMB     39       POPC     C214     CTL2    -0.180000       12.0110           0
      5169 MEMB     39       POPC     H14R     HAL2     0.900000E-01   1.00800           0
      5170 MEMB     39       POPC     H14S     HAL2     0.900000E-01   1.00800           0
      5171 MEMB     39       POPC     C215     CTL2    -0.180000       12.0110           0
      5172 MEMB     39       POPC     H15R     HAL2     0.900000E-01   1.00800           0
      5173 MEMB     39       POPC     H15S     HAL2     0.900000E-01   1.00800           0
      5174 MEMB     39       POPC     C216     CTL2    -0.180000       12.0110           0
      5175 MEMB     39       POPC     H16R     HAL2     0.900000E-01   1.00800           0
      5176 MEMB     39       POPC     H16S     HAL2     0.900000E-01   1.00800           0
      5177 MEMB     39       POPC     C217     CTL2    -0.180000       12.0110           0
      5178 MEMB     39       POPC     H17R     HAL2     0.900000E-01   1.00800           0
      5179 MEMB     39       POPC     H17S     HAL2     0.900000E-01   1.00800           0
      5180 MEMB     39       POPC     C218     CTL3    -0.270000       12.0110           0
      5181 MEMB     39       POPC     H18R     HAL3     0.900000E-01   1.00800           0
      5182 MEMB     39       POPC     H18S     HAL3     0.900000E-01   1.00800           0
      5183 MEMB     39       POPC     H18T     HAL3     0.900000E-01   1.00800           0
      5184 MEMB     39       POPC     C33      CTL2    -0.180000       12.0110           0
      5185 MEMB     39       POPC     H3X      HAL2     0.900000E-01   1.00800           0
      5186 MEMB     39       POPC     H3Y      HAL2     0.900000E-01   1.00800           0
      5187 MEMB     39       POPC     C34      CTL2    -0.180000       12.0110           0
      5188 MEMB     39       POPC     H4X      HAL2     0.900000E-01   1.00800           0
      5189 MEMB     39       POPC     H4Y      HAL2     0.900000E-01   1.00800           0
      5190 MEMB     39       POPC     C35      CTL2    -0.180000       12.0110           0
      5191 MEMB     39       POPC     H5X      HAL2     0.900000E-01   1.00800           0
      5192 MEMB     39       POPC     H5Y      HAL2     0.900000E-01   1.00800           0
      5193 MEMB     39       POPC     C36      CTL2    -0.180000       12.0110           0
      5194 MEMB     39       POPC     H6X      HAL2     0.900000E-01   1.00800           0
      5195 MEMB     39       POPC     H6Y      HAL2     0.900000E-01   1.00800           0
      5196 MEMB     39       POPC     C37      CTL2    -0.180000       12.0110           0
      5197 MEMB     39       POPC     H7X      HAL2     0.900000E-01   1.00800           0
      5198 MEMB     39       POPC     H7Y      HAL2     0.900000E-01   1.00800           0
      5199 MEMB     39       POPC     C38      CTL2    -0.180000       12.0110           0
      5200 MEMB     39       POPC     H8X      HAL2     0.900000E-01   1.00800           0
      5201 MEMB     39       POPC     H8Y      HAL2     0.900000E-01   1.00800           0
      5202 MEMB     39       POPC     C39      CTL2    -0.180000       12.0110           0
      5203 MEMB     39       POPC     H9X      HAL2     0.900000E-01   1.00800           0
      5204 MEMB     39       POPC     H9Y      HAL2     0.900000E-01   1.00800           0
      5205 MEMB     39       POPC     C310     CTL2    -0.180000       12.0110           0
      5206 MEMB     39       POPC     H10X     HAL2     0.900000E-01   1.00800           0
      5207 MEMB     39       POPC     H10Y     HAL2     0.900000E-01   1.00800           0
      5208 MEMB     39       POPC     C311     CTL2    -0.180000       12.0110           0
      5209 MEMB     39       POPC     H11X     HAL2     0.900000E-01   1.00800           0
      5210 MEMB     39       POPC     H11Y     HAL2     0.900000E-01   1.00800           0
      5211 MEMB     39       POPC     C312     CTL2    -0.180000       12.0110           0
      5212 MEMB     39       POPC     H12X     HAL2     0.900000E-01   1.00800           0
      5213 MEMB     39       POPC     H12Y     HAL2     0.900000E-01   1.00800           0
      5214 MEMB     39       POPC     C313     CTL2    -0.180000       12.0110           0
      5215 MEMB     39       POPC     H13X     HAL2     0.900000E-01   1.00800           0
      5216 MEMB     39       POPC     H13Y     HAL2     0.900000E-01   1.00800           0
      5217 MEMB     39       POPC     C314     CTL2    -0.180000       12.0110           0
      5218 MEMB     39       POPC     H14X     HAL2     0.900000E-01   1.00800           0
      5219 MEMB     39       POPC     H14Y     HAL2     0.900000E-01   1.00800           0
      5220 MEMB     39       POPC     C315     CTL2    -0.180000       12.0110           0
      5221 MEMB     39       POPC     H15X     HAL2     0.900000E-01   1.00800           0
      5222 MEMB     39       POPC     H15Y     HAL2     0.900000E-01   1.00800           0
      5223 MEMB     39       POPC     C316     CTL3    -0.270000       12.0110           0
      5224 MEMB     39       POPC     H16X     HAL3     0.900000E-01   1.00800           0
      5225 MEMB     39       POPC     H16Y     HAL3     0.900000E-01   1.00800           0
      5226 MEMB     39       POPC     H16Z     HAL3     0.900000E-01   1.00800           0
      5227 MEMB     40       POPC     N        NTL     -0.600000       14.0070           0
      5228 MEMB     40       POPC     C12      CTL2    -0.100000       12.0110           0
      5229 MEMB     40       POPC     H12A     HL       0.250000       1.00800           0
      5230 MEMB     40       POPC     H12B     HL       0.250000       1.00800           0
      5231 MEMB     40       POPC     C13      CTL5    -0.350000       12.0110           0
      5232 MEMB     40       POPC     H13A     HL       0.250000       1.00800           0
      5233 MEMB     40       POPC     H13B     HL       0.250000       1.00800           0
      5234 MEMB     40       POPC     H13C     HL       0.250000       1.00800           0
      5235 MEMB     40       POPC     C14      CTL5    -0.350000       12.0110           0
      5236 MEMB     40       POPC     H14A     HL       0.250000       1.00800           0
      5237 MEMB     40       POPC     H14B     HL       0.250000       1.00800           0
      5238 MEMB     40       POPC     H14C     HL       0.250000       1.00800           0
      5239 MEMB     40       POPC     C15      CTL5    -0.350000       12.0110           0
      5240 MEMB     40       POPC     H15A     HL       0.250000       1.00800           0
      5241 MEMB     40       POPC     H15B     HL       0.250000       1.00800           0
      5242 MEMB     40       POPC     H15C     HL       0.250000       1.00800           0
      5243 MEMB     40       POPC     C11      CTL2    -0.800000E-01   12.0110           0
      5244 MEMB     40       POPC     H11A     HAL2     0.900000E-01   1.00800           0
      5245 MEMB     40       POPC     H11B     HAL2     0.900000E-01   1.00800           0
      5246 MEMB     40       POPC     P        PL       1.500000       30.9740           0
      5247 MEMB     40       POPC     O13      O2L     -0.780000       15.9994           0
      5248 MEMB     40       POPC     O14      O2L     -0.780000       15.9994           0
      5249 MEMB     40       POPC     O12      OSLP    -0.570000       15.9994           0
      5250 MEMB     40       POPC     O11      OSLP    -0.570000       15.9994           0
      5251 MEMB     40       POPC     C1       CTL2    -0.800000E-01   12.0110           0
      5252 MEMB     40       POPC     HA       HAL2     0.900000E-01   1.00800           0
      5253 MEMB     40       POPC     HB       HAL2     0.900000E-01   1.00800           0
      5254 MEMB     40       POPC     C2       CTL1     0.170000       12.0110           0
      5255 MEMB     40       POPC     HS       HAL1     0.900000E-01   1.00800           0
      5256 MEMB     40       POPC     O21      OSL     -0.490000       15.9994           0
      5257 MEMB     40       POPC     C21      CL       0.900000       12.0110           0
      5258 MEMB     40       POPC     O22      OBL     -0.630000       15.9994           0
      5259 MEMB     40       POPC     C22      CTL2    -0.220000       12.0110           0
      5260 MEMB     40       POPC     H2R      HAL2     0.900000E-01   1.00800           0
      5261 MEMB     40       POPC     H2S      HAL2     0.900000E-01   1.00800           0
      5262 MEMB     40       POPC     C3       CTL2     0.800000E-01   12.0110           0
      5263 MEMB     40       POPC     HX       HAL2     0.900000E-01   1.00800           0
      5264 MEMB     40       POPC     HY       HAL2     0.900000E-01   1.00800           0
      5265 MEMB     40       POPC     O31      OSL     -0.490000       15.9994           0
      5266 MEMB     40       POPC     C31      CL       0.900000       12.0110           0
      5267 MEMB     40       POPC     O32      OBL     -0.630000       15.9994           0
      5268 MEMB     40       POPC     C32      CTL2    -0.220000       12.0110           0
      5269 MEMB     40       POPC     H2X      HAL2     0.900000E-01   1.00800           0
      5270 MEMB     40       POPC     H2Y      HAL2     0.900000E-01   1.00800           0
      5271 MEMB     40       POPC     C23      CTL2    -0.180000       12.0110           0
      5272 MEMB     40       POPC     H3R      HAL2     0.900000E-01   1.00800           0
      5273 MEMB     40       POPC     H3S      HAL2     0.900000E-01   1.00800           0
      5274 MEMB     40       POPC     C24      CTL2    -0.180000       12.0110           0
      5275 MEMB     40       POPC     H4R      HAL2     0.900000E-01   1.00800           0
      5276 MEMB     40       POPC     H4S      HAL2     0.900000E-01   1.00800           0
      5277 MEMB     40       POPC     C25      CTL2    -0.180000       12.0110           0
      5278 MEMB     40       POPC     H5R      HAL2     0.900000E-01   1.00800           0
      5279 MEMB     40       POPC     H5S      HAL2     0.900000E-01   1.00800           0
      5280 MEMB     40       POPC     C26      CTL2    -0.180000       12.0110           0
      5281 MEMB     40       POPC     H6R      HAL2     0.900000E-01   1.00800           0
      5282 MEMB     40       POPC     H6S      HAL2     0.900000E-01   1.00800           0
      5283 MEMB     40       POPC     C27      CTL2    -0.180000       12.0110           0
      5284 MEMB     40       POPC     H7R      HAL2     0.900000E-01   1.00800           0
      5285 MEMB     40       POPC     H7S      HAL2     0.900000E-01   1.00800           0
      5286 MEMB     40       POPC     C28      CTL2    -0.180000       12.0110           0
      5287 MEMB     40       POPC     H8R      HAL2     0.900000E-01   1.00800           0
      5288 MEMB     40       POPC     H8S      HAL2     0.900000E-01   1.00800           0
      5289 MEMB     40       POPC     C29      CEL1    -0.150000       12.0110           0
      5290 MEMB     40       POPC     H91      HEL1     0.150000       1.00800           0
      5291 MEMB     40       POPC     C210     CEL1    -0.150000       12.0110           0
      5292 MEMB     40       POPC     H101     HEL1     0.150000       1.00800           0
      5293 MEMB     40       POPC     C211     CTL2    -0.180000       12.0110           0
      5294 MEMB     40       POPC     H11R     HAL2     0.900000E-01   1.00800           0
      5295 MEMB     40       POPC     H11S     HAL2     0.900000E-01   1.00800           0
      5296 MEMB     40       POPC     C212     CTL2    -0.180000       12.0110           0
      5297 MEMB     40       POPC     H12R     HAL2     0.900000E-01   1.00800           0
      5298 MEMB     40       POPC     H12S     HAL2     0.900000E-01   1.00800           0
      5299 MEMB     40       POPC     C213     CTL2    -0.180000       12.0110           0
      5300 MEMB     40       POPC     H13R     HAL2     0.900000E-01   1.00800           0
      5301 MEMB     40       POPC     H13S     HAL2     0.900000E-01   1.00800           0
      5302 MEMB     40       POPC     C214     CTL2    -0.180000       12.0110           0
      5303 MEMB     40       POPC     H14R     HAL2     0.900000E-01   1.00800           0
      5304 MEMB     40       POPC     H14S     HAL2     0.900000E-01   1.00800           0
      5305 MEMB     40       POPC     C215     CTL2    -0.180000       12.0110           0
      5306 MEMB     40       POPC     H15R     HAL2     0.900000E-01   1.00800           0
      5307 MEMB     40       POPC     H15S     HAL2     0.900000E-01   1.00800           0
      5308 MEMB     40       POPC     C216     CTL2    -0.180000       12.0110           0
      5309 MEMB     40       POPC     H16R     HAL2     0.900000E-01   1.00800           0
      5310 MEMB     40       POPC     H16S     HAL2     0.900000E-01   1.00800           0
      5311 MEMB     40       POPC     C217     CTL2    -0.180000       12.0110           0
      5312 MEMB     40       POPC     H17R     HAL2     0.900000E-01   1.00800           0
      5313 MEMB     40       POPC     H17S     HAL2     0.900000E-01   1.00800           0
      5314 MEMB     40       POPC     C218     CTL3    -0.270000       12.0110           0
      5315 MEMB     40       POPC     H18R     HAL3     0.900000E-01   1.00800           0
      5316 MEMB     40       POPC     H18S     HAL3     0.900000E-01   1.00800           0
      5317 MEMB     40       POPC     H18T     HAL3     0.900000E-01   1.00800           0
      5318 MEMB     40       POPC     C33      CTL2    -0.180000       12.0110           0
      5319 MEMB     40       POPC     H3X      HAL2     0.900000E-01   1.00800           0
      5320 MEMB     40       POPC     H3Y      HAL2     0.900000E-01   1.00800           0
      5321 MEMB     40       POPC     C34      CTL2    -0.180000       12.0110           0
      5322 MEMB     40       POPC     H4X      HAL2     0.900000E-01   1.00800           0
      5323 MEMB     40       POPC     H4Y      HAL2     0.900000E-01   1.00800           0
      5324 MEMB     40       POPC     C35      CTL2    -0.180000       12.0110           0
      5325 MEMB     40       POPC     H5X      HAL2     0.900000E-01   1.00800           0
      5326 MEMB     40       POPC     H5Y      HAL2     0.900000E-01   1.00800           0
      5327 MEMB     40       POPC     C36      CTL2    -0.180000       12.0110           0
      5328 MEMB     40       POPC     H6X      HAL2     0.900000E-01   1.00800           0
      5329 MEMB     40       POPC     H6Y      HAL2     0.900000E-01   1.00800           0
      5330 MEMB     40       POPC     C37      CTL2    -0.180000       12.0110           0
      5331 MEMB     40       POPC     H7X      HAL2     0.900000E-01   1.00800           0
      5332 MEMB     40       POPC     H7Y      HAL2     0.900000E-01   1.00800           0
      5333 MEMB     40       POPC     C38      CTL2    -0.180000       12.0110           0
      5334 MEMB     40       POPC     H8X      HAL2     0.900000E-01   1.00800           0
      5335 MEMB     40       POPC     H8Y      HAL2     0.900000E-01   1.00800           0
      5336 MEMB     40       POPC     C39      CTL2    -0.180000       12.0110           0
      5337 MEMB     40       POPC     H9X      HAL2     0.900000E-01   1.00800           0
      5338 MEMB     40       POPC     H9Y      HAL2     0.900000E-01   1.00800           0
      5339 MEMB     40       POPC     C310     CTL2    -0.180000       12.0110           0
      5340 MEMB     40       POPC     H10X     HAL2     0.900000E-01   1.00800           0
      5341 MEMB     40       POPC     H10Y     HAL2     0.900000E-01   1.00800           0
      5342 MEMB     40       POPC     C311     CTL2    -0.180000       12.0110           0
      5343 MEMB     40       POPC     H11X     HAL2     0.900000E-01   1.00800           0
      5344 MEMB     40       POPC     H11Y     HAL2     0.900000E-01   1.00800           0
      5345 MEMB     40       POPC     C312     CTL2    -0.180000       12.0110           0
      5346 MEMB     40       POPC     H12X     HAL2     0.900000E-01   1.00800           0
      5347 MEMB     40       POPC     H12Y     HAL2     0.900000E-01   1.00800           0
      5348 MEMB     40       POPC     C313     CTL2    -0.180000       12.0110           0
      5349 MEMB     40       POPC     H13X     HAL2     0.900000E-01   1.00800           0
      5350 MEMB     40       POPC     H13Y     HAL2     0.900000E-01   1.00800           0
      5351 MEMB     40       POPC     C314     CTL2    -0.180000       12.0110           0
      5352 MEMB     40       POPC     H14X     HAL2     0.900000E-01   1.00800           0
      5353 MEMB     40       POPC     H14Y     HAL2     0.900000E-01   1.00800           0
      5354 MEMB     40       POPC     C315     CTL2    -0.180000       12.0110           0
      5355 MEMB     40       POPC     H15X     HAL2     0.900000E-01   1.00800           0
      5356 MEMB     40       POPC     H15Y     HAL2     0.900000E-01   1.00800           0
      5357 MEMB     40       POPC     C316     CTL3    -0.270000       12.0110           0
      5358 MEMB     40       POPC     H16X     HAL3     0.900000E-01   1.00800           0
      5359 MEMB     40       POPC     H16Y     HAL3     0.900000E-01   1.00800           0
      5360 MEMB     40       POPC     H16Z     HAL3     0.900000E-01   1.00800           0
      5361 MEMB     41       POPC     N        NTL     -0.600000       14.0070           0
      5362 MEMB     41       POPC     C12      CTL2    -0.100000       12.0110           0
      5363 MEMB     41       POPC     H12A     HL       0.250000       1.00800           0
      5364 MEMB     41       POPC     H12B     HL       0.250000       1.00800           0
      5365 MEMB     41       POPC     C13      CTL5    -0.350000       12.0110           0
      5366 MEMB     41       POPC     H13A     HL       0.250000       1.00800           0
      5367 MEMB     41       POPC     H13B     HL       0.250000       1.00800           0
      5368 MEMB     41       POPC     H13C     HL       0.250000       1.00800           0
      5369 MEMB     41       POPC     C14      CTL5    -0.350000       12.0110           0
      5370 MEMB     41       POPC     H14A     HL       0.250000       1.00800           0
      5371 MEMB     41       POPC     H14B     HL       0.250000       1.00800           0
      5372 MEMB     41       POPC     H14C     HL       0.250000       1.00800           0
      5373 MEMB     41       POPC     C15      CTL5    -0.350000       12.0110           0
      5374 MEMB     41       POPC     H15A     HL       0.250000       1.00800           0
      5375 MEMB     41       POPC     H15B     HL       0.250000       1.00800           0
      5376 MEMB     41       POPC     H15C     HL       0.250000       1.00800           0
      5377 MEMB     41       POPC     C11      CTL2    -0.800000E-01   12.0110           0
      5378 MEMB     41       POPC     H11A     HAL2     0.900000E-01   1.00800           0
      5379 MEMB     41       POPC     H11B     HAL2     0.900000E-01   1.00800           0
      5380 MEMB     41       POPC     P        PL       1.500000       30.9740           0
      5381 MEMB     41       POPC     O13      O2L     -0.780000       15.9994           0
      5382 MEMB     41       POPC     O14      O2L     -0.780000       15.9994           0
      5383 MEMB     41       POPC     O12      OSLP    -0.570000       15.9994           0
      5384 MEMB     41       POPC     O11      OSLP    -0.570000       15.9994           0
      5385 MEMB     41       POPC     C1       CTL2    -0.800000E-01   12.0110           0
      5386 MEMB     41       POPC     HA       HAL2     0.900000E-01   1.00800           0
      5387 MEMB     41       POPC     HB       HAL2     0.900000E-01   1.00800           0
      5388 MEMB     41       POPC     C2       CTL1     0.170000       12.0110           0
      5389 MEMB     41       POPC     HS       HAL1     0.900000E-01   1.00800           0
      5390 MEMB     41       POPC     O21      OSL     -0.490000       15.9994           0
      5391 MEMB     41       POPC     C21      CL       0.900000       12.0110           0
      5392 MEMB     41       POPC     O22      OBL     -0.630000       15.9994           0
      5393 MEMB     41       POPC     C22      CTL2    -0.220000       12.0110           0
      5394 MEMB     41       POPC     H2R      HAL2     0.900000E-01   1.00800           0
      5395 MEMB     41       POPC     H2S      HAL2     0.900000E-01   1.00800           0
      5396 MEMB     41       POPC     C3       CTL2     0.800000E-01   12.0110           0
      5397 MEMB     41       POPC     HX       HAL2     0.900000E-01   1.00800           0
      5398 MEMB     41       POPC     HY       HAL2     0.900000E-01   1.00800           0
      5399 MEMB     41       POPC     O31      OSL     -0.490000       15.9994           0
      5400 MEMB     41       POPC     C31      CL       0.900000       12.0110           0
      5401 MEMB     41       POPC     O32      OBL     -0.630000       15.9994           0
      5402 MEMB     41       POPC     C32      CTL2    -0.220000       12.0110           0
      5403 MEMB     41       POPC     H2X      HAL2     0.900000E-01   1.00800           0
      5404 MEMB     41       POPC     H2Y      HAL2     0.900000E-01   1.00800           0
      5405 MEMB     41       POPC     C23      CTL2    -0.180000       12.0110           0
      5406 MEMB     41       POPC     H3R      HAL2     0.900000E-01   1.00800           0
      5407 MEMB     41       POPC     H3S      HAL2     0.900000E-01   1.00800           0
      5408 MEMB     41       POPC     C24      CTL2    -0.180000       12.0110           0
      5409 MEMB     41       POPC     H4R      HAL2     0.900000E-01   1.00800           0
      5410 MEMB     41       POPC     H4S      HAL2     0.900000E-01   1.00800           0
      5411 MEMB     41       POPC     C25      CTL2    -0.180000       12.0110           0
      5412 MEMB     41       POPC     H5R      HAL2     0.900000E-01   1.00800           0
      5413 MEMB     41       POPC     H5S      HAL2     0.900000E-01   1.00800           0
      5414 MEMB     41       POPC     C26      CTL2    -0.180000       12.0110           0
      5415 MEMB     41       POPC     H6R      HAL2     0.900000E-01   1.00800           0
      5416 MEMB     41       POPC     H6S      HAL2     0.900000E-01   1.00800           0
      5417 MEMB     41       POPC     C27      CTL2    -0.180000       12.0110           0
      5418 MEMB     41       POPC     H7R      HAL2     0.900000E-01   1.00800           0
      5419 MEMB     41       POPC     H7S      HAL2     0.900000E-01   1.00800           0
      5420 MEMB     41       POPC     C28      CTL2    -0.180000       12.0110           0
      5421 MEMB     41       POPC     H8R      HAL2     0.900000E-01   1.00800           0
      5422 MEMB     41       POPC     H8S      HAL2     0.900000E-01   1.00800           0
      5423 MEMB     41       POPC     C29      CEL1    -0.150000       12.0110           0
      5424 MEMB     41       POPC     H91      HEL1     0.150000       1.00800           0
      5425 MEMB     41       POPC     C210     CEL1    -0.150000       12.0110           0
      5426 MEMB     41       POPC     H101     HEL1     0.150000       1.00800           0
      5427 MEMB     41       POPC     C211     CTL2    -0.180000       12.0110           0
      5428 MEMB     41       POPC     H11R     HAL2     0.900000E-01   1.00800           0
      5429 MEMB     41       POPC     H11S     HAL2     0.900000E-01   1.00800           0
      5430 MEMB     41       POPC     C212     CTL2    -0.180000       12.0110           0
      5431 MEMB     41       POPC     H12R     HAL2     0.900000E-01   1.00800           0
      5432 MEMB     41       POPC     H12S     HAL2     0.900000E-01   1.00800           0
      5433 MEMB     41       POPC     C213     CTL2    -0.180000       12.0110           0
      5434 MEMB     41       POPC     H13R     HAL2     0.900000E-01   1.00800           0
      5435 MEMB     41       POPC     H13S     HAL2     0.900000E-01   1.00800           0
      5436 MEMB     41       POPC     C214     CTL2    -0.180000       12.0110           0
      5437 MEMB     41       POPC     H14R     HAL2     0.900000E-01   1.00800           0
      5438 MEMB     41       POPC     H14S     HAL2     0.900000E-01   1.00800           0
      5439 MEMB     41       POPC     C215     CTL2    -0.180000       12.0110           0
      5440 MEMB     41       POPC     H15R     HAL2     0.900000E-01   1.00800           0
      5441 MEMB     41       POPC     H15S     HAL2     0.900000E-01   1.00800           0
      5442 MEMB     41       POPC     C216     CTL2    -0.180000       12.0110           0
      5443 MEMB     41       POPC     H16R     HAL2     0.900000E-01   1.00800           0
      5444 MEMB     41       POPC     H16S     HAL2     0.900000E-01   1.00800           0
      5445 MEMB     41       POPC     C217     CTL2    -0.180000       12.0110           0
      5446 MEMB     41       POPC     H17R     HAL2     0.900000E-01   1.00800           0
      5447 MEMB     41       POPC     H17S     HAL2     0.900000E-01   1.00800           0
      5448 MEMB     41       POPC     C218     CTL3    -0.270000       12.0110           0
      5449 MEMB     41       POPC     H18R     HAL3     0.900000E-01   1.00800           0
      5450 MEMB     41       POPC     H18S     HAL3     0.900000E-01   1.00800           0
      5451 MEMB     41       POPC     H18T     HAL3     0.900000E-01   1.00800           0
      5452 MEMB     41       POPC     C33      CTL2    -0.180000       12.0110           0
      5453 MEMB     41       POPC     H3X      HAL2     0.900000E-01   1.00800           0
      5454 MEMB     41       POPC     H3Y      HAL2     0.900000E-01   1.00800           0
      5455 MEMB     41       POPC     C34      CTL2    -0.180000       12.0110           0
      5456 MEMB     41       POPC     H4X      HAL2     0.900000E-01   1.00800           0
      5457 MEMB     41       POPC     H4Y      HAL2     0.900000E-01   1.00800           0
      5458 MEMB     41       POPC     C35      CTL2    -0.180000       12.0110           0
      5459 MEMB     41       POPC     H5X      HAL2     0.900000E-01   1.00800           0
      5460 MEMB     41       POPC     H5Y      HAL2     0.900000E-01   1.00800           0
      5461 MEMB     41       POPC     C36      CTL2    -0.180000       12.0110           0
      5462 MEMB     41       POPC     H6X      HAL2     0.900000E-01   1.00800           0
      5463 MEMB     41       POPC     H6Y      HAL2     0.900000E-01   1.00800           0
      5464 MEMB     41       POPC     C37      CTL2    -0.180000       12.0110           0
      5465 MEMB     41       POPC     H7X      HAL2     0.900000E-01   1.00800           0
      5466 MEMB     41       POPC     H7Y      HAL2     0.900000E-01   1.00800           0
      5467 MEMB     41       POPC     C38      CTL2    -0.180000       12.0110           0
      5468 MEMB     41       POPC     H8X      HAL2     0.900000E-01   1.00800           0
      5469 MEMB     41       POPC     H8Y      HAL2     0.900000E-01   1.00800           0
      5470 MEMB     41       POPC     C39      CTL2    -0.180000       12.0110           0
      5471 MEMB     41       POPC     H9X      HAL2     0.900000E-01   1.00800           0
      5472 MEMB     41       POPC     H9Y      HAL2     0.900000E-01   1.00800           0
      5473 MEMB     41       POPC     C310     CTL2    -0.180000       12.0110           0
      5474 MEMB     41       POPC     H10X     HAL2     0.900000E-01   1.00800           0
      5475 MEMB     41       POPC     H10Y     HAL2     0.900000E-01   1.00800           0
      5476 MEMB     41       POPC     C311     CTL2    -0.180000       12.0110           0
      5477 MEMB     41       POPC     H11X     HAL2     0.900000E-01   1.00800           0
      5478 MEMB     41       POPC     H11Y     HAL2     0.900000E-01   1.00800           0
      5479 MEMB     41       POPC     C312     CTL2    -0.180000       12.0110           0
      5480 MEMB     41       POPC     H12X     HAL2     0.900000E-01   1.00800           0
      5481 MEMB     41       POPC     H12Y     HAL2     0.900000E-01   1.00800           0
      5482 MEMB     41       POPC     C313     CTL2    -0.180000       12.0110           0
      5483 MEMB     41       POPC     H13X     HAL2     0.900000E-01   1.00800           0
      5484 MEMB     41       POPC     H13Y     HAL2     0.900000E-01   1.00800           0
      5485 MEMB     41       POPC     C314     CTL2    -0.180000       12.0110           0
      5486 MEMB     41       POPC     H14X     HAL2     0.900000E-01   1.00800           0
      5487 MEMB     41       POPC     H14Y     HAL2     0.900000E-01   1.00800           0
      5488 MEMB     41       POPC     C315     CTL2    -0.180000       12.0110           0
      5489 MEMB     41       POPC     H15X     HAL2     0.900000E-01   1.00800           0
      5490 MEMB     41       POPC     H15Y     HAL2     0.900000E-01   1.00800           0
      5491 MEMB     41       POPC     C316     CTL3    -0.270000       12.0110           0
      5492 MEMB     41       POPC     H16X     HAL3     0.900000E-01   1.00800           0
      5493 MEMB     41       POPC     H16Y     HAL3     0.900000E-01   1.00800           0
      5494 MEMB     41       POPC     H16Z     HAL3     0.900000E-01   1.00800           0
      5495 MEMB     42       POPC     N        NTL     -0.600000       14.0070           0
      5496 MEMB     42       POPC     C12      CTL2    -0.100000       12.0110           0
      5497 MEMB     42       POPC     H12A     HL       0.250000       1.00800           0
      5498 MEMB     42       POPC     H12B     HL       0.250000       1.00800           0
      5499 MEMB     42       POPC     C13      CTL5    -0.350000       12.0110           0
      5500 MEMB     42       POPC     H13A     HL       0.250000       1.00800           0
      5501 MEMB     42       POPC     H13B     HL       0.250000       1.00800           0
      5502 MEMB     42       POPC     H13C     HL       0.250000       1.00800           0
      5503 MEMB     42       POPC     C14      CTL5    -0.350000       12.0110           0
      5504 MEMB     42       POPC     H14A     HL       0.250000       1.00800           0
      5505 MEMB     42       POPC     H14B     HL       0.250000       1.00800           0
      5506 MEMB     42       POPC     H14C     HL       0.250000       1.00800           0
      5507 MEMB     42       POPC     C15      CTL5    -0.350000       12.0110           0
      5508 MEMB     42       POPC     H15A     HL       0.250000       1.00800           0
      5509 MEMB     42       POPC     H15B     HL       0.250000       1.00800           0
      5510 MEMB     42       POPC     H15C     HL       0.250000       1.00800           0
      5511 MEMB     42       POPC     C11      CTL2    -0.800000E-01   12.0110           0
      5512 MEMB     42       POPC     H11A     HAL2     0.900000E-01   1.00800           0
      5513 MEMB     42       POPC     H11B     HAL2     0.900000E-01   1.00800           0
      5514 MEMB     42       POPC     P        PL       1.500000       30.9740           0
      5515 MEMB     42       POPC     O13      O2L     -0.780000       15.9994           0
      5516 MEMB     42       POPC     O14      O2L     -0.780000       15.9994           0
      5517 MEMB     42       POPC     O12      OSLP    -0.570000       15.9994           0
      5518 MEMB     42       POPC     O11      OSLP    -0.570000       15.9994           0
      5519 MEMB     42       POPC     C1       CTL2    -0.800000E-01   12.0110           0
      5520 MEMB     42       POPC     HA       HAL2     0.900000E-01   1.00800           0
      5521 MEMB     42       POPC     HB       HAL2     0.900000E-01   1.00800           0
      5522 MEMB     42       POPC     C2       CTL1     0.170000       12.0110           0
      5523 MEMB     42       POPC     HS       HAL1     0.900000E-01   1.00800           0
      5524 MEMB     42       POPC     O21      OSL     -0.490000       15.9994           0
      5525 MEMB     42       POPC     C21      CL       0.900000       12.0110           0
      5526 MEMB     42       POPC     O22      OBL     -0.630000       15.9994           0
      5527 MEMB     42       POPC     C22      CTL2    -0.220000       12.0110           0
      5528 MEMB     42       POPC     H2R      HAL2     0.900000E-01   1.00800           0
      5529 MEMB     42       POPC     H2S      HAL2     0.900000E-01   1.00800           0
      5530 MEMB     42       POPC     C3       CTL2     0.800000E-01   12.0110           0
      5531 MEMB     42       POPC     HX       HAL2     0.900000E-01   1.00800           0
      5532 MEMB     42       POPC     HY       HAL2     0.900000E-01   1.00800           0
      5533 MEMB     42       POPC     O31      OSL     -0.490000       15.9994           0
      5534 MEMB     42       POPC     C31      CL       0.900000       12.0110           0
      5535 MEMB     42       POPC     O32      OBL     -0.630000       15.9994           0
      5536 MEMB     42       POPC     C32      CTL2    -0.220000       12.0110           0
      5537 MEMB     42       POPC     H2X      HAL2     0.900000E-01   1.00800           0
      5538 MEMB     42       POPC     H2Y      HAL2     0.900000E-01   1.00800           0
      5539 MEMB     42       POPC     C23      CTL2    -0.180000       12.0110           0
      5540 MEMB     42       POPC     H3R      HAL2     0.900000E-01   1.00800           0
      5541 MEMB     42       POPC     H3S      HAL2     0.900000E-01   1.00800           0
      5542 MEMB     42       POPC     C24      CTL2    -0.180000       12.0110           0
      5543 MEMB     42       POPC     H4R      HAL2     0.900000E-01   1.00800           0
      5544 MEMB     42       POPC     H4S      HAL2     0.900000E-01   1.00800           0
      5545 MEMB     42       POPC     C25      CTL2    -0.180000       12.0110           0
      5546 MEMB     42       POPC     H5R      HAL2     0.900000E-01   1.00800           0
      5547 MEMB     42       POPC     H5S      HAL2     0.900000E-01   1.00800           0
      5548 MEMB     42       POPC     C26      CTL2    -0.180000       12.0110           0
      5549 MEMB     42       POPC     H6R      HAL2     0.900000E-01   1.00800           0
      5550 MEMB     42       POPC     H6S      HAL2     0.900000E-01   1.00800           0
      5551 MEMB     42       POPC     C27      CTL2    -0.180000       12.0110           0
      5552 MEMB     42       POPC     H7R      HAL2     0.900000E-01   1.00800           0
      5553 MEMB     42       POPC     H7S      HAL2     0.900000E-01   1.00800           0
      5554 MEMB     42       POPC     C28      CTL2    -0.180000       12.0110           0
      5555 MEMB     42       POPC     H8R      HAL2     0.900000E-01   1.00800           0
      5556 MEMB     42       POPC     H8S      HAL2     0.900000E-01   1.00800           0
      5557 MEMB     42       POPC     C29      CEL1    -0.150000       12.0110           0
      5558 MEMB     42       POPC     H91      HEL1     0.150000       1.00800           0
      5559 MEMB     42       POPC     C210     CEL1    -0.150000       12.0110           0
      5560 MEMB     42       POPC     H101     HEL1     0.150000       1.00800           0
      5561 MEMB     42       POPC     C211     CTL2    -0.180000       12.0110           0
      5562 MEMB     42       POPC     H11R     HAL2     0.900000E-01   1.00800           0
      5563 MEMB     42       POPC     H11S     HAL2     0.900000E-01   1.00800           0
      5564 MEMB     42       POPC     C212     CTL2    -0.180000       12.0110           0
      5565 MEMB     42       POPC     H12R     HAL2     0.900000E-01   1.00800           0
      5566 MEMB     42       POPC     H12S     HAL2     0.900000E-01   1.00800           0
      5567 MEMB     42       POPC     C213     CTL2    -0.180000       12.0110           0
      5568 MEMB     42       POPC     H13R     HAL2     0.900000E-01   1.00800           0
      5569 MEMB     42       POPC     H13S     HAL2     0.900000E-01   1.00800           0
      5570 MEMB     42       POPC     C214     CTL2    -0.180000       12.0110           0
      5571 MEMB     42       POPC     H14R     HAL2     0.900000E-01   1.00800           0
      5572 MEMB     42       POPC     H14S     HAL2     0.900000E-01   1.00800           0
      5573 MEMB     42       POPC     C215     CTL2    -0.180000       12.0110           0
      5574 MEMB     42       POPC     H15R     HAL2     0.900000E-01   1.00800           0
      5575 MEMB     42       POPC     H15S     HAL2     0.900000E-01   1.00800           0
      5576 MEMB     42       POPC     C216     CTL2    -0.180000       12.0110           0
      5577 MEMB     42       POPC     H16R     HAL2     0.900000E-01   1.00800           0
      5578 MEMB     42       POPC     H16S     HAL2     0.900000E-01   1.00800           0
      5579 MEMB     42       POPC     C217     CTL2    -0.180000       12.0110           0
      5580 MEMB     42       POPC     H17R     HAL2     0.900000E-01   1.00800           0
      5581 MEMB     42       POPC     H17S     HAL2     0.900000E-01   1.00800           0
      5582 MEMB     42       POPC     C218     CTL3    -0.270000       12.0110           0
      5583 MEMB     42       POPC     H18R     HAL3     0.900000E-01   1.00800           0
      5584 MEMB     42       POPC     H18S     HAL3     0.900000E-01   1.00800           0
      5585 MEMB     42       POPC     H18T     HAL3     0.900000E-01   1.00800           0
      5586 MEMB     42       POPC     C33      CTL2    -0.180000       12.0110           0
      5587 MEMB     42       POPC     H3X      HAL2     0.900000E-01   1.00800           0
      5588 MEMB     42       POPC     H3Y      HAL2     0.900000E-01   1.00800           0
      5589 MEMB     42       POPC     C34      CTL2    -0.180000       12.0110           0
      5590 MEMB     42       POPC     H4X      HAL2     0.900000E-01   1.00800           0
      5591 MEMB     42       POPC     H4Y      HAL2     0.900000E-01   1.00800           0
      5592 MEMB     42       POPC     C35      CTL2    -0.180000       12.0110           0
      5593 MEMB     42       POPC     H5X      HAL2     0.900000E-01   1.00800           0
      5594 MEMB     42       POPC     H5Y      HAL2     0.900000E-01   1.00800           0
      5595 MEMB     42       POPC     C36      CTL2    -0.180000       12.0110           0
      5596 MEMB     42       POPC     H6X      HAL2     0.900000E-01   1.00800           0
      5597 MEMB     42       POPC     H6Y      HAL2     0.900000E-01   1.00800           0
      5598 MEMB     42       POPC     C37      CTL2    -0.180000       12.0110           0
      5599 MEMB     42       POPC     H7X      HAL2     0.900000E-01   1.00800           0
      5600 MEMB     42       POPC     H7Y      HAL2     0.900000E-01   1.00800           0
      5601 MEMB     42       POPC     C38      CTL2    -0.180000       12.0110           0
      5602 MEMB     42       POPC     H8X      HAL2     0.900000E-01   1.00800           0
      5603 MEMB     42       POPC     H8Y      HAL2     0.900000E-01   1.00800           0
      5604 MEMB     42       POPC     C39      CTL2    -0.180000       12.0110           0
      5605 MEMB     42       POPC     H9X      HAL2     0.900000E-01   1.00800           0
      5606 MEMB     42       POPC     H9Y      HAL2     0.900000E-01   1.00800           0
      5607 MEMB     42       POPC     C310     CTL2    -0.180000       12.0110           0
      5608 MEMB     42       POPC     H10X     HAL2     0.900000E-01   1.00800           0
      5609 MEMB     42       POPC     H10Y     HAL2     0.900000E-01   1.00800           0
      5610 MEMB     42       POPC     C311     CTL2    -0.180000       12.0110           0
      5611 MEMB     42       POPC     H11X     HAL2     0.900000E-01   1.00800           0
      5612 MEMB     42       POPC     H11Y     HAL2     0.900000E-01   1.00800           0
      5613 MEMB     42       POPC     C312     CTL2    -0.180000       12.0110           0
      5614 MEMB     42       POPC     H12X     HAL2     0.900000E-01   1.00800           0
      5615 MEMB     42       POPC     H12Y     HAL2     0.900000E-01   1.00800           0
      5616 MEMB     42       POPC     C313     CTL2    -0.180000       12.0110           0
      5617 MEMB     42       POPC     H13X     HAL2     0.900000E-01   1.00800           0
      5618 MEMB     42       POPC     H13Y     HAL2     0.900000E-01   1.00800           0
      5619 MEMB     42       POPC     C314     CTL2    -0.180000       12.0110           0
      5620 MEMB     42       POPC     H14X     HAL2     0.900000E-01   1.00800           0
      5621 MEMB     42       POPC     H14Y     HAL2     0.900000E-01   1.00800           0
      5622 MEMB     42       POPC     C315     CTL2    -0.180000       12.0110           0
      5623 MEMB     42       POPC     H15X     HAL2     0.900000E-01   1.00800           0
      5624 MEMB     42       POPC     H15Y     HAL2     0.900000E-01   1.00800           0
      5625 MEMB     42       POPC     C316     CTL3    -0.270000       12.0110           0
      5626 MEMB     42       POPC     H16X     HAL3     0.900000E-01   1.00800           0
      5627 MEMB     42       POPC     H16Y     HAL3     0.900000E-01   1.00800           0
      5628 MEMB     42       POPC     H16Z     HAL3     0.900000E-01   1.00800           0
      5629 MEMB     43       POPC     N        NTL     -0.600000       14.0070           0
      5630 MEMB     43       POPC     C12      CTL2    -0.100000       12.0110           0
      5631 MEMB     43       POPC     H12A     HL       0.250000       1.00800           0
      5632 MEMB     43       POPC     H12B     HL       0.250000       1.00800           0
      5633 MEMB     43       POPC     C13      CTL5    -0.350000       12.0110           0
      5634 MEMB     43       POPC     H13A     HL       0.250000       1.00800           0
      5635 MEMB     43       POPC     H13B     HL       0.250000       1.00800           0
      5636 MEMB     43       POPC     H13C     HL       0.250000       1.00800           0
      5637 MEMB     43       POPC     C14      CTL5    -0.350000       12.0110           0
      5638 MEMB     43       POPC     H14A     HL       0.250000       1.00800           0
      5639 MEMB     43       POPC     H14B     HL       0.250000       1.00800           0
      5640 MEMB     43       POPC     H14C     HL       0.250000       1.00800           0
      5641 MEMB     43       POPC     C15      CTL5    -0.350000       12.0110           0
      5642 MEMB     43       POPC     H15A     HL       0.250000       1.00800           0
      5643 MEMB     43       POPC     H15B     HL       0.250000       1.00800           0
      5644 MEMB     43       POPC     H15C     HL       0.250000       1.00800           0
      5645 MEMB     43       POPC     C11      CTL2    -0.800000E-01   12.0110           0
      5646 MEMB     43       POPC     H11A     HAL2     0.900000E-01   1.00800           0
      5647 MEMB     43       POPC     H11B     HAL2     0.900000E-01   1.00800           0
      5648 MEMB     43       POPC     P        PL       1.500000       30.9740           0
      5649 MEMB     43       POPC     O13      O2L     -0.780000       15.9994           0
      5650 MEMB     43       POPC     O14      O2L     -0.780000       15.9994           0
      5651 MEMB     43       POPC     O12      OSLP    -0.570000       15.9994           0
      5652 MEMB     43       POPC     O11      OSLP    -0.570000       15.9994           0
      5653 MEMB     43       POPC     C1       CTL2    -0.800000E-01   12.0110           0
      5654 MEMB     43       POPC     HA       HAL2     0.900000E-01   1.00800           0
      5655 MEMB     43       POPC     HB       HAL2     0.900000E-01   1.00800           0
      5656 MEMB     43       POPC     C2       CTL1     0.170000       12.0110           0
      5657 MEMB     43       POPC     HS       HAL1     0.900000E-01   1.00800           0
      5658 MEMB     43       POPC     O21      OSL     -0.490000       15.9994           0
      5659 MEMB     43       POPC     C21      CL       0.900000       12.0110           0
      5660 MEMB     43       POPC     O22      OBL     -0.630000       15.9994           0
      5661 MEMB     43       POPC     C22      CTL2    -0.220000       12.0110           0
      5662 MEMB     43       POPC     H2R      HAL2     0.900000E-01   1.00800           0
      5663 MEMB     43       POPC     H2S      HAL2     0.900000E-01   1.00800           0
      5664 MEMB     43       POPC     C3       CTL2     0.800000E-01   12.0110           0
      5665 MEMB     43       POPC     HX       HAL2     0.900000E-01   1.00800           0
      5666 MEMB     43       POPC     HY       HAL2     0.900000E-01   1.00800           0
      5667 MEMB     43       POPC     O31      OSL     -0.490000       15.9994           0
      5668 MEMB     43       POPC     C31      CL       0.900000       12.0110           0
      5669 MEMB     43       POPC     O32      OBL     -0.630000       15.9994           0
      5670 MEMB     43       POPC     C32      CTL2    -0.220000       12.0110           0
      5671 MEMB     43       POPC     H2X      HAL2     0.900000E-01   1.00800           0
      5672 MEMB     43       POPC     H2Y      HAL2     0.900000E-01   1.00800           0
      5673 MEMB     43       POPC     C23      CTL2    -0.180000       12.0110           0
      5674 MEMB     43       POPC     H3R      HAL2     0.900000E-01   1.00800           0
      5675 MEMB     43       POPC     H3S      HAL2     0.900000E-01   1.00800           0
      5676 MEMB     43       POPC     C24      CTL2    -0.180000       12.0110           0
      5677 MEMB     43       POPC     H4R      HAL2     0.900000E-01   1.00800           0
      5678 MEMB     43       POPC     H4S      HAL2     0.900000E-01   1.00800           0
      5679 MEMB     43       POPC     C25      CTL2    -0.180000       12.0110           0
      5680 MEMB     43       POPC     H5R      HAL2     0.900000E-01   1.00800           0
      5681 MEMB     43       POPC     H5S      HAL2     0.900000E-01   1.00800           0
      5682 MEMB     43       POPC     C26      CTL2    -0.180000       12.0110           0
      5683 MEMB     43       POPC     H6R      HAL2     0.900000E-01   1.00800           0
      5684 MEMB     43       POPC     H6S      HAL2     0.900000E-01   1.00800           0
      5685 MEMB     43       POPC     C27      CTL2    -0.180000       12.0110           0
      5686 MEMB     43       POPC     H7R      HAL2     0.900000E-01   1.00800           0
      5687 MEMB     43       POPC     H7S      HAL2     0.900000E-01   1.00800           0
      5688 MEMB     43       POPC     C28      CTL2    -0.180000       12.0110           0
      5689 MEMB     43       POPC     H8R      HAL2     0.900000E-01   1.00800           0
      5690 MEMB     43       POPC     H8S      HAL2     0.900000E-01   1.00800           0
      5691 MEMB     43       POPC     C29      CEL1    -0.150000       12.0110           0
      5692 MEMB     43       POPC     H91      HEL1     0.150000       1.00800           0
      5693 MEMB     43       POPC     C210     CEL1    -0.150000       12.0110           0
      5694 MEMB     43       POPC     H101     HEL1     0.150000       1.00800           0
      5695 MEMB     43       POPC     C211     CTL2    -0.180000       12.0110           0
      5696 MEMB     43       POPC     H11R     HAL2     0.900000E-01   1.00800           0
      5697 MEMB     43       POPC     H11S     HAL2     0.900000E-01   1.00800           0
      5698 MEMB     43       POPC     C212     CTL2    -0.180000       12.0110           0
      5699 MEMB     43       POPC     H12R     HAL2     0.900000E-01   1.00800           0
      5700 MEMB     43       POPC     H12S     HAL2     0.900000E-01   1.00800           0
      5701 MEMB     43       POPC     C213     CTL2    -0.180000       12.0110           0
      5702 MEMB     43       POPC     H13R     HAL2     0.900000E-01   1.00800           0
      5703 MEMB     43       POPC     H13S     HAL2     0.900000E-01   1.00800           0
      5704 MEMB     43       POPC     C214     CTL2    -0.180000       12.0110           0
      5705 MEMB     43       POPC     H14R     HAL2     0.900000E-01   1.00800           0
      5706 MEMB     43       POPC     H14S     HAL2     0.900000E-01   1.00800           0
      5707 MEMB     43       POPC     C215     CTL2    -0.180000       12.0110           0
      5708 MEMB     43       POPC     H15R     HAL2     0.900000E-01   1.00800           0
      5709 MEMB     43       POPC     H15S     HAL2     0.900000E-01   1.00800           0
      5710 MEMB     43       POPC     C216     CTL2    -0.180000       12.0110           0
      5711 MEMB     43       POPC     H16R     HAL2     0.900000E-01   1.00800           0
      5712 MEMB     43       POPC     H16S     HAL2     0.900000E-01   1.00800           0
      5713 MEMB     43       POPC     C217     CTL2    -0.180000       12.0110           0
      5714 MEMB     43       POPC     H17R     HAL2     0.900000E-01   1.00800           0
      5715 MEMB     43       POPC     H17S     HAL2     0.900000E-01   1.00800           0
      5716 MEMB     43       POPC     C218     CTL3    -0.270000       12.0110           0
      5717 MEMB     43       POPC     H18R     HAL3     0.900000E-01   1.00800           0
      5718 MEMB     43       POPC     H18S     HAL3     0.900000E-01   1.00800           0
      5719 MEMB     43       POPC     H18T     HAL3     0.900000E-01   1.00800           0
      5720 MEMB     43       POPC     C33      CTL2    -0.180000       12.0110           0
      5721 MEMB     43       POPC     H3X      HAL2     0.900000E-01   1.00800           0
      5722 MEMB     43       POPC     H3Y      HAL2     0.900000E-01   1.00800           0
      5723 MEMB     43       POPC     C34      CTL2    -0.180000       12.0110           0
      5724 MEMB     43       POPC     H4X      HAL2     0.900000E-01   1.00800           0
      5725 MEMB     43       POPC     H4Y      HAL2     0.900000E-01   1.00800           0
      5726 MEMB     43       POPC     C35      CTL2    -0.180000       12.0110           0
      5727 MEMB     43       POPC     H5X      HAL2     0.900000E-01   1.00800           0
      5728 MEMB     43       POPC     H5Y      HAL2     0.900000E-01   1.00800           0
      5729 MEMB     43       POPC     C36      CTL2    -0.180000       12.0110           0
      5730 MEMB     43       POPC     H6X      HAL2     0.900000E-01   1.00800           0
      5731 MEMB     43       POPC     H6Y      HAL2     0.900000E-01   1.00800           0
      5732 MEMB     43       POPC     C37      CTL2    -0.180000       12.0110           0
      5733 MEMB     43       POPC     H7X      HAL2     0.900000E-01   1.00800           0
      5734 MEMB     43       POPC     H7Y      HAL2     0.900000E-01   1.00800           0
      5735 MEMB     43       POPC     C38      CTL2    -0.180000       12.0110           0
      5736 MEMB     43       POPC     H8X      HAL2     0.900000E-01   1.00800           0
      5737 MEMB     43       POPC     H8Y      HAL2     0.900000E-01   1.00800           0
      5738 MEMB     43       POPC     C39      CTL2    -0.180000       12.0110           0
      5739 MEMB     43       POPC     H9X      HAL2     0.900000E-01   1.00800           0
      5740 MEMB     43       POPC     H9Y      HAL2     0.900000E-01   1.00800           0
      5741 MEMB     43       POPC     C310     CTL2    -0.180000       12.0110           0
      5742 MEMB     43       POPC     H10X     HAL2     0.900000E-01   1.00800           0
      5743 MEMB     43       POPC     H10Y     HAL2     0.900000E-01   1.00800           0
      5744 MEMB     43       POPC     C311     CTL2    -0.180000       12.0110           0
      5745 MEMB     43       POPC     H11X     HAL2     0.900000E-01   1.00800           0
      5746 MEMB     43       POPC     H11Y     HAL2     0.900000E-01   1.00800           0
      5747 MEMB     43       POPC     C312     CTL2    -0.180000       12.0110           0
      5748 MEMB     43       POPC     H12X     HAL2     0.900000E-01   1.00800           0
      5749 MEMB     43       POPC     H12Y     HAL2     0.900000E-01   1.00800           0
      5750 MEMB     43       POPC     C313     CTL2    -0.180000       12.0110           0
      5751 MEMB     43       POPC     H13X     HAL2     0.900000E-01   1.00800           0
      5752 MEMB     43       POPC     H13Y     HAL2     0.900000E-01   1.00800           0
      5753 MEMB     43       POPC     C314     CTL2    -0.180000       12.0110           0
      5754 MEMB     43       POPC     H14X     HAL2     0.900000E-01   1.00800           0
      5755 MEMB     43       POPC     H14Y     HAL2     0.900000E-01   1.00800           0
      5756 MEMB     43       POPC     C315     CTL2    -0.180000       12.0110           0
      5757 MEMB     43       POPC     H15X     HAL2     0.900000E-01   1.00800           0
      5758 MEMB     43       POPC     H15Y     HAL2     0.900000E-01   1.00800           0
      5759 MEMB     43       POPC     C316     CTL3    -0.270000       12.0110           0
      5760 MEMB     43       POPC     H16X     HAL3     0.900000E-01   1.00800           0
      5761 MEMB     43       POPC     H16Y     HAL3     0.900000E-01   1.00800           0
      5762 MEMB     43       POPC     H16Z     HAL3     0.900000E-01   1.00800           0
      5763 MEMB     44       POPC     N        NTL     -0.600000       14.0070           0
      5764 MEMB     44       POPC     C12      CTL2    -0.100000       12.0110           0
      5765 MEMB     44       POPC     H12A     HL       0.250000       1.00800           0
      5766 MEMB     44       POPC     H12B     HL       0.250000       1.00800           0
      5767 MEMB     44       POPC     C13      CTL5    -0.350000       12.0110           0
      5768 MEMB     44       POPC     H13A     HL       0.250000       1.00800           0
      5769 MEMB     44       POPC     H13B     HL       0.250000       1.00800           0
      5770 MEMB     44       POPC     H13C     HL       0.250000       1.00800           0
      5771 MEMB     44       POPC     C14      CTL5    -0.350000       12.0110           0
      5772 MEMB     44       POPC     H14A     HL       0.250000       1.00800           0
      5773 MEMB     44       POPC     H14B     HL       0.250000       1.00800           0
      5774 MEMB     44       POPC     H14C     HL       0.250000       1.00800           0
      5775 MEMB     44       POPC     C15      CTL5    -0.350000       12.0110           0
      5776 MEMB     44       POPC     H15A     HL       0.250000       1.00800           0
      5777 MEMB     44       POPC     H15B     HL       0.250000       1.00800           0
      5778 MEMB     44       POPC     H15C     HL       0.250000       1.00800           0
      5779 MEMB     44       POPC     C11      CTL2    -0.800000E-01   12.0110           0
      5780 MEMB     44       POPC     H11A     HAL2     0.900000E-01   1.00800           0
      5781 MEMB     44       POPC     H11B     HAL2     0.900000E-01   1.00800           0
      5782 MEMB     44       POPC     P        PL       1.500000       30.9740           0
      5783 MEMB     44       POPC     O13      O2L     -0.780000       15.9994           0
      5784 MEMB     44       POPC     O14      O2L     -0.780000       15.9994           0
      5785 MEMB     44       POPC     O12      OSLP    -0.570000       15.9994           0
      5786 MEMB     44       POPC     O11      OSLP    -0.570000       15.9994           0
      5787 MEMB     44       POPC     C1       CTL2    -0.800000E-01   12.0110           0
      5788 MEMB     44       POPC     HA       HAL2     0.900000E-01   1.00800           0
      5789 MEMB     44       POPC     HB       HAL2     0.900000E-01   1.00800           0
      5790 MEMB     44       POPC     C2       CTL1     0.170000       12.0110           0
      5791 MEMB     44       POPC     HS       HAL1     0.900000E-01   1.00800           0
      5792 MEMB     44       POPC     O21      OSL     -0.490000       15.9994           0
      5793 MEMB     44       POPC     C21      CL       0.900000       12.0110           0
      5794 MEMB     44       POPC     O22      OBL     -0.630000       15.9994           0
      5795 MEMB     44       POPC     C22      CTL2    -0.220000       12.0110           0
      5796 MEMB     44       POPC     H2R      HAL2     0.900000E-01   1.00800           0
      5797 MEMB     44       POPC     H2S      HAL2     0.900000E-01   1.00800           0
      5798 MEMB     44       POPC     C3       CTL2     0.800000E-01   12.0110           0
      5799 MEMB     44       POPC     HX       HAL2     0.900000E-01   1.00800           0
      5800 MEMB     44       POPC     HY       HAL2     0.900000E-01   1.00800           0
      5801 MEMB     44       POPC     O31      OSL     -0.490000       15.9994           0
      5802 MEMB     44       POPC     C31      CL       0.900000       12.0110           0
      5803 MEMB     44       POPC     O32      OBL     -0.630000       15.9994           0
      5804 MEMB     44       POPC     C32      CTL2    -0.220000       12.0110           0
      5805 MEMB     44       POPC     H2X      HAL2     0.900000E-01   1.00800           0
      5806 MEMB     44       POPC     H2Y      HAL2     0.900000E-01   1.00800           0
      5807 MEMB     44       POPC     C23      CTL2    -0.180000       12.0110           0
      5808 MEMB     44       POPC     H3R      HAL2     0.900000E-01   1.00800           0
      5809 MEMB     44       POPC     H3S      HAL2     0.900000E-01   1.00800           0
      5810 MEMB     44       POPC     C24      CTL2    -0.180000       12.0110           0
      5811 MEMB     44       POPC     H4R      HAL2     0.900000E-01   1.00800           0
      5812 MEMB     44       POPC     H4S      HAL2     0.900000E-01   1.00800           0
      5813 MEMB     44       POPC     C25      CTL2    -0.180000       12.0110           0
      5814 MEMB     44       POPC     H5R      HAL2     0.900000E-01   1.00800           0
      5815 MEMB     44       POPC     H5S      HAL2     0.900000E-01   1.00800           0
      5816 MEMB     44       POPC     C26      CTL2    -0.180000       12.0110           0
      5817 MEMB     44       POPC     H6R      HAL2     0.900000E-01   1.00800           0
      5818 MEMB     44       POPC     H6S      HAL2     0.900000E-01   1.00800           0
      5819 MEMB     44       POPC     C27      CTL2    -0.180000       12.0110           0
      5820 MEMB     44       POPC     H7R      HAL2     0.900000E-01   1.00800           0
      5821 MEMB     44       POPC     H7S      HAL2     0.900000E-01   1.00800           0
      5822 MEMB     44       POPC     C28      CTL2    -0.180000       12.0110           0
      5823 MEMB     44       POPC     H8R      HAL2     0.900000E-01   1.00800           0
      5824 MEMB     44       POPC     H8S      HAL2     0.900000E-01   1.00800           0
      5825 MEMB     44       POPC     C29      CEL1    -0.150000       12.0110           0
      5826 MEMB     44       POPC     H91      HEL1     0.150000       1.00800           0
      5827 MEMB     44       POPC     C210     CEL1    -0.150000       12.0110           0
      5828 MEMB     44       POPC     H101     HEL1     0.150000       1.00800           0
      5829 MEMB     44       POPC     C211     CTL2    -0.180000       12.0110           0
      5830 MEMB     44       POPC     H11R     HAL2     0.900000E-01   1.00800           0
      5831 MEMB     44       POPC     H11S     HAL2     0.900000E-01   1.00800           0
      5832 MEMB     44       POPC     C212     CTL2    -0.180000       12.0110           0
      5833 MEMB     44       POPC     H12R     HAL2     0.900000E-01   1.00800           0
      5834 MEMB     44       POPC     H12S     HAL2     0.900000E-01   1.00800           0
      5835 MEMB     44       POPC     C213     CTL2    -0.180000       12.0110           0
      5836 MEMB     44       POPC     H13R     HAL2     0.900000E-01   1.00800           0
      5837 MEMB     44       POPC     H13S     HAL2     0.900000E-01   1.00800           0
      5838 MEMB     44       POPC     C214     CTL2    -0.180000       12.0110           0
      5839 MEMB     44       POPC     H14R     HAL2     0.900000E-01   1.00800           0
      5840 MEMB     44       POPC     H14S     HAL2     0.900000E-01   1.00800           0
      5841 MEMB     44       POPC     C215     CTL2    -0.180000       12.0110           0
      5842 MEMB     44       POPC     H15R     HAL2     0.900000E-01   1.00800           0
      5843 MEMB     44       POPC     H15S     HAL2     0.900000E-01   1.00800           0
      5844 MEMB     44       POPC     C216     CTL2    -0.180000       12.0110           0
      5845 MEMB     44       POPC     H16R     HAL2     0.900000E-01   1.00800           0
      5846 MEMB     44       POPC     H16S     HAL2     0.900000E-01   1.00800           0
      5847 MEMB     44       POPC     C217     CTL2    -0.180000       12.0110           0
      5848 MEMB     44       POPC     H17R     HAL2     0.900000E-01   1.00800           0
      5849 MEMB     44       POPC     H17S     HAL2     0.900000E-01   1.00800           0
      5850 MEMB     44       POPC     C218     CTL3    -0.270000       12.0110           0
      5851 MEMB     44       POPC     H18R     HAL3     0.900000E-01   1.00800           0
      5852 MEMB     44       POPC     H18S     HAL3     0.900000E-01   1.00800           0
      5853 MEMB     44       POPC     H18T     HAL3     0.900000E-01   1.00800           0
      5854 MEMB     44       POPC     C33      CTL2    -0.180000       12.0110           0
      5855 MEMB     44       POPC     H3X      HAL2     0.900000E-01   1.00800           0
      5856 MEMB     44       POPC     H3Y      HAL2     0.900000E-01   1.00800           0
      5857 MEMB     44       POPC     C34      CTL2    -0.180000       12.0110           0
      5858 MEMB     44       POPC     H4X      HAL2     0.900000E-01   1.00800           0
      5859 MEMB     44       POPC     H4Y      HAL2     0.900000E-01   1.00800           0
      5860 MEMB     44       POPC     C35      CTL2    -0.180000       12.0110           0
      5861 MEMB     44       POPC     H5X      HAL2     0.900000E-01   1.00800           0
      5862 MEMB     44       POPC     H5Y      HAL2     0.900000E-01   1.00800           0
      5863 MEMB     44       POPC     C36      CTL2    -0.180000       12.0110           0
      5864 MEMB     44       POPC     H6X      HAL2     0.900000E-01   1.00800           0
      5865 MEMB     44       POPC     H6Y      HAL2     0.900000E-01   1.00800           0
      5866 MEMB     44       POPC     C37      CTL2    -0.180000       12.0110           0
      5867 MEMB     44       POPC     H7X      HAL2     0.900000E-01   1.00800           0
      5868 MEMB     44       POPC     H7Y      HAL2     0.900000E-01   1.00800           0
      5869 MEMB     44       POPC     C38      CTL2    -0.180000       12.0110           0
      5870 MEMB     44       POPC     H8X      HAL2     0.900000E-01   1.00800           0
      5871 MEMB     44       POPC     H8Y      HAL2     0.900000E-01   1.00800           0
      5872 MEMB     44       POPC     C39      CTL2    -0.180000       12.0110           0
      5873 MEMB     44       POPC     H9X      HAL2     0.900000E-01   1.00800           0
      5874 MEMB     44       POPC     H9Y      HAL2     0.900000E-01   1.00800           0
      5875 MEMB     44       POPC     C310     CTL2    -0.180000       12.0110           0
      5876 MEMB     44       POPC     H10X     HAL2     0.900000E-01   1.00800           0
      5877 MEMB     44       POPC     H10Y     HAL2     0.900000E-01   1.00800           0
      5878 MEMB     44       POPC     C311     CTL2    -0.180000       12.0110           0
      5879 MEMB     44       POPC     H11X     HAL2     0.900000E-01   1.00800           0
      5880 MEMB     44       POPC     H11Y     HAL2     0.900000E-01   1.00800           0
      5881 MEMB     44       POPC     C312     CTL2    -0.180000       12.0110           0
      5882 MEMB     44       POPC     H12X     HAL2     0.900000E-01   1.00800           0
      5883 MEMB     44       POPC     H12Y     HAL2     0.900000E-01   1.00800           0
      5884 MEMB     44       POPC     C313     CTL2    -0.180000       12.0110           0
      5885 MEMB     44       POPC     H13X     HAL2     0.900000E-01   1.00800           0
      5886 MEMB     44       POPC     H13Y     HAL2     0.900000E-01   1.00800           0
      5887 MEMB     44       POPC     C314     CTL2    -0.180000       12.0110           0
      5888 MEMB     44       POPC     H14X     HAL2     0.900000E-01   1.00800           0
      5889 MEMB     44       POPC     H14Y     HAL2     0.900000E-01   1.00800           0
      5890 MEMB     44       POPC     C315     CTL2    -0.180000       12.0110           0
      5891 MEMB     44       POPC     H15X     HAL2     0.900000E-01   1.00800           0
      5892 MEMB     44       POPC     H15Y     HAL2     0.900000E-01   1.00800           0
      5893 MEMB     44       POPC     C316     CTL3    -0.270000       12.0110           0
      5894 MEMB     44       POPC     H16X     HAL3     0.900000E-01   1.00800           0
      5895 MEMB     44       POPC     H16Y     HAL3     0.900000E-01   1.00800           0
      5896 MEMB     44       POPC     H16Z     HAL3     0.900000E-01   1.00800           0
      5897 MEMB     45       POPC     N        NTL     -0.600000       14.0070           0
      5898 MEMB     45       POPC     C12      CTL2    -0.100000       12.0110           0
      5899 MEMB     45       POPC     H12A     HL       0.250000       1.00800           0
      5900 MEMB     45       POPC     H12B     HL       0.250000       1.00800           0
      5901 MEMB     45       POPC     C13      CTL5    -0.350000       12.0110           0
      5902 MEMB     45       POPC     H13A     HL       0.250000       1.00800           0
      5903 MEMB     45       POPC     H13B     HL       0.250000       1.00800           0
      5904 MEMB     45       POPC     H13C     HL       0.250000       1.00800           0
      5905 MEMB     45       POPC     C14      CTL5    -0.350000       12.0110           0
      5906 MEMB     45       POPC     H14A     HL       0.250000       1.00800           0
      5907 MEMB     45       POPC     H14B     HL       0.250000       1.00800           0
      5908 MEMB     45       POPC     H14C     HL       0.250000       1.00800           0
      5909 MEMB     45       POPC     C15      CTL5    -0.350000       12.0110           0
      5910 MEMB     45       POPC     H15A     HL       0.250000       1.00800           0
      5911 MEMB     45       POPC     H15B     HL       0.250000       1.00800           0
      5912 MEMB     45       POPC     H15C     HL       0.250000       1.00800           0
      5913 MEMB     45       POPC     C11      CTL2    -0.800000E-01   12.0110           0
      5914 MEMB     45       POPC     H11A     HAL2     0.900000E-01   1.00800           0
      5915 MEMB     45       POPC     H11B     HAL2     0.900000E-01   1.00800           0
      5916 MEMB     45       POPC     P        PL       1.500000       30.9740           0
      5917 MEMB     45       POPC     O13      O2L     -0.780000       15.9994           0
      5918 MEMB     45       POPC     O14      O2L     -0.780000       15.9994           0
      5919 MEMB     45       POPC     O12      OSLP    -0.570000       15.9994           0
      5920 MEMB     45       POPC     O11      OSLP    -0.570000       15.9994           0
      5921 MEMB     45       POPC     C1       CTL2    -0.800000E-01   12.0110           0
      5922 MEMB     45       POPC     HA       HAL2     0.900000E-01   1.00800           0
      5923 MEMB     45       POPC     HB       HAL2     0.900000E-01   1.00800           0
      5924 MEMB     45       POPC     C2       CTL1     0.170000       12.0110           0
      5925 MEMB     45       POPC     HS       HAL1     0.900000E-01   1.00800           0
      5926 MEMB     45       POPC     O21      OSL     -0.490000       15.9994           0
      5927 MEMB     45       POPC     C21      CL       0.900000       12.0110           0
      5928 MEMB     45       POPC     O22      OBL     -0.630000       15.9994           0
      5929 MEMB     45       POPC     C22      CTL2    -0.220000       12.0110           0
      5930 MEMB     45       POPC     H2R      HAL2     0.900000E-01   1.00800           0
      5931 MEMB     45       POPC     H2S      HAL2     0.900000E-01   1.00800           0
      5932 MEMB     45       POPC     C3       CTL2     0.800000E-01   12.0110           0
      5933 MEMB     45       POPC     HX       HAL2     0.900000E-01   1.00800           0
      5934 MEMB     45       POPC     HY       HAL2     0.900000E-01   1.00800           0
      5935 MEMB     45       POPC     O31      OSL     -0.490000       15.9994           0
      5936 MEMB     45       POPC     C31      CL       0.900000       12.0110           0
      5937 MEMB     45       POPC     O32      OBL     -0.630000       15.9994           0
      5938 MEMB     45       POPC     C32      CTL2    -0.220000       12.0110           0
      5939 MEMB     45       POPC     H2X      HAL2     0.900000E-01   1.00800           0
      5940 MEMB     45       POPC     H2Y      HAL2     0.900000E-01   1.00800           0
      5941 MEMB     45       POPC     C23      CTL2    -0.180000       12.0110           0
      5942 MEMB     45       POPC     H3R      HAL2     0.900000E-01   1.00800           0
      5943 MEMB     45       POPC     H3S      HAL2     0.900000E-01   1.00800           0
      5944 MEMB     45       POPC     C24      CTL2    -0.180000       12.0110           0
      5945 MEMB     45       POPC     H4R      HAL2     0.900000E-01   1.00800           0
      5946 MEMB     45       POPC     H4S      HAL2     0.900000E-01   1.00800           0
      5947 MEMB     45       POPC     C25      CTL2    -0.180000       12.0110           0
      5948 MEMB     45       POPC     H5R      HAL2     0.900000E-01   1.00800           0
      5949 MEMB     45       POPC     H5S      HAL2     0.900000E-01   1.00800           0
      5950 MEMB     45       POPC     C26      CTL2    -0.180000       12.0110           0
      5951 MEMB     45       POPC     H6R      HAL2     0.900000E-01   1.00800           0
      5952 MEMB     45       POPC     H6S      HAL2     0.900000E-01   1.00800           0
      5953 MEMB     45       POPC     C27      CTL2    -0.180000       12.0110           0
      5954 MEMB     45       POPC     H7R      HAL2     0.900000E-01   1.00800           0
      5955 MEMB     45       POPC     H7S      HAL2     0.900000E-01   1.00800           0
      5956 MEMB     45       POPC     C28      CTL2    -0.180000       12.0110           0
      5957 MEMB     45       POPC     H8R      HAL2     0.900000E-01   1.00800           0
      5958 MEMB     45       POPC     H8S      HAL2     0.900000E-01   1.00800           0
      5959 MEMB     45       POPC     C29      CEL1    -0.150000       12.0110           0
      5960 MEMB     45       POPC     H91      HEL1     0.150000       1.00800           0
      5961 MEMB     45       POPC     C210     CEL1    -0.150000       12.0110           0
      5962 MEMB     45       POPC     H101     HEL1     0.150000       1.00800           0
      5963 MEMB     45       POPC     C211     CTL2    -0.180000       12.0110           0
      5964 MEMB     45       POPC     H11R     HAL2     0.900000E-01   1.00800           0
      5965 MEMB     45       POPC     H11S     HAL2     0.900000E-01   1.00800           0
      5966 MEMB     45       POPC     C212     CTL2    -0.180000       12.0110           0
      5967 MEMB     45       POPC     H12R     HAL2     0.900000E-01   1.00800           0
      5968 MEMB     45       POPC     H12S     HAL2     0.900000E-01   1.00800           0
      5969 MEMB     45       POPC     C213     CTL2    -0.180000       12.0110           0
      5970 MEMB     45       POPC     H13R     HAL2     0.900000E-01   1.00800           0
      5971 MEMB     45       POPC     H13S     HAL2     0.900000E-01   1.00800           0
      5972 MEMB     45       POPC     C214     CTL2    -0.180000       12.0110           0
      5973 MEMB     45       POPC     H14R     HAL2     0.900000E-01   1.00800           0
      5974 MEMB     45       POPC     H14S     HAL2     0.900000E-01   1.00800           0
      5975 MEMB     45       POPC     C215     CTL2    -0.180000       12.0110           0
      5976 MEMB     45       POPC     H15R     HAL2     0.900000E-01   1.00800           0
      5977 MEMB     45       POPC     H15S     HAL2     0.900000E-01   1.00800           0
      5978 MEMB     45       POPC     C216     CTL2    -0.180000       12.0110           0
      5979 MEMB     45       POPC     H16R     HAL2     0.900000E-01   1.00800           0
      5980 MEMB     45       POPC     H16S     HAL2     0.900000E-01   1.00800           0
      5981 MEMB     45       POPC     C217     CTL2    -0.180000       12.0110           0
      5982 MEMB     45       POPC     H17R     HAL2     0.900000E-01   1.00800           0
      5983 MEMB     45       POPC     H17S     HAL2     0.900000E-01   1.00800           0
      5984 MEMB     45       POPC     C218     CTL3    -0.270000       12.0110           0
      5985 MEMB     45       POPC     H18R     HAL3     0.900000E-01   1.00800           0
      5986 MEMB     45       POPC     H18S     HAL3     0.900000E-01   1.00800           0
      5987 MEMB     45       POPC     H18T     HAL3     0.900000E-01   1.00800           0
      5988 MEMB     45       POPC     C33      CTL2    -0.180000       12.0110           0
      5989 MEMB     45       POPC     H3X      HAL2     0.900000E-01   1.00800           0
      5990 MEMB     45       POPC     H3Y      HAL2     0.900000E-01   1.00800           0
      5991 MEMB     45       POPC     C34      CTL2    -0.180000       12.0110           0
      5992 MEMB     45       POPC     H4X      HAL2     0.900000E-01   1.00800           0
      5993 MEMB     45       POPC     H4Y      HAL2     0.900000E-01   1.00800           0
      5994 MEMB     45       POPC     C35      CTL2    -0.180000       12.0110           0
      5995 MEMB     45       POPC     H5X      HAL2     0.900000E-01   1.00800           0
      5996 MEMB     45       POPC     H5Y      HAL2     0.900000E-01   1.00800           0
      5997 MEMB     45       POPC     C36      CTL2    -0.180000       12.0110           0
      5998 MEMB     45       POPC     H6X      HAL2     0.900000E-01   1.00800           0
      5999 MEMB     45       POPC     H6Y      HAL2     0.900000E-01   1.00800           0
      6000 MEMB     45       POPC     C37      CTL2    -0.180000       12.0110           0
      6001 MEMB     45       POPC     H7X      HAL2     0.900000E-01   1.00800           0
      6002 MEMB     45       POPC     H7Y      HAL2     0.900000E-01   1.00800           0
      6003 MEMB     45       POPC     C38      CTL2    -0.180000       12.0110           0
      6004 MEMB     45       POPC     H8X      HAL2     0.900000E-01   1.00800           0
      6005 MEMB     45       POPC     H8Y      HAL2     0.900000E-01   1.00800           0
      6006 MEMB     45       POPC     C39      CTL2    -0.180000       12.0110           0
      6007 MEMB     45       POPC     H9X      HAL2     0.900000E-01   1.00800           0
      6008 MEMB     45       POPC     H9Y      HAL2     0.900000E-01   1.00800           0
      6009 MEMB     45       POPC     C310     CTL2    -0.180000       12.0110           0
      6010 MEMB     45       POPC     H10X     HAL2     0.900000E-01   1.00800           0
      6011 MEMB     45       POPC     H10Y     HAL2     0.900000E-01   1.00800           0
      6012 MEMB     45       POPC     C311     CTL2    -0.180000       12.0110           0
      6013 MEMB     45       POPC     H11X     HAL2     0.900000E-01   1.00800           0
      6014 MEMB     45       POPC     H11Y     HAL2     0.900000E-01   1.00800           0
      6015 MEMB     45       POPC     C312     CTL2    -0.180000       12.0110           0
      6016 MEMB     45       POPC     H12X     HAL2     0.900000E-01   1.00800           0
      6017 MEMB     45       POPC     H12Y     HAL2     0.900000E-01   1.00800           0
      6018 MEMB     45       POPC     C313     CTL2    -0.180000       12.0110           0
      6019 MEMB     45       POPC     H13X     HAL2     0.900000E-01   1.00800           0
      6020 MEMB     45       POPC     H13Y     HAL2     0.900000E-01   1.00800           0
      6021 MEMB     45       POPC     C314     CTL2    -0.180000       12.0110           0
      6022 MEMB     45       POPC     H14X     HAL2     0.900000E-01   1.00800           0
      6023 MEMB     45       POPC     H14Y     HAL2     0.900000E-01   1.00800           0
      6024 MEMB     45       POPC     C315     CTL2    -0.180000       12.0110           0
      6025 MEMB     45       POPC     H15X     HAL2     0.900000E-01   1.00800           0
      6026 MEMB     45       POPC     H15Y     HAL2     0.900000E-01   1.00800           0
      6027 MEMB     45       POPC     C316     CTL3    -0.270000       12.0110           0
      6028 MEMB     45       POPC     H16X     HAL3     0.900000E-01   1.00800           0
      6029 MEMB     45       POPC     H16Y     HAL3     0.900000E-01   1.00800           0
      6030 MEMB     45       POPC     H16Z     HAL3     0.900000E-01   1.00800           0
      6031 MEMB     46       POPC     N        NTL     -0.600000       14.0070           0
      6032 MEMB     46       POPC     C12      CTL2    -0.100000       12.0110           0
      6033 MEMB     46       POPC     H12A     HL       0.250000       1.00800           0
      6034 MEMB     46       POPC     H12B     HL       0.250000       1.00800           0
      6035 MEMB     46       POPC     C13      CTL5    -0.350000       12.0110           0
      6036 MEMB     46       POPC     H13A     HL       0.250000       1.00800           0
      6037 MEMB     46       POPC     H13B     HL       0.250000       1.00800           0
      6038 MEMB     46       POPC     H13C     HL       0.250000       1.00800           0
      6039 MEMB     46       POPC     C14      CTL5    -0.350000       12.0110           0
      6040 MEMB     46       POPC     H14A     HL       0.250000       1.00800           0
      6041 MEMB     46       POPC     H14B     HL       0.250000       1.00800           0
      6042 MEMB     46       POPC     H14C     HL       0.250000       1.00800           0
      6043 MEMB     46       POPC     C15      CTL5    -0.350000       12.0110           0
      6044 MEMB     46       POPC     H15A     HL       0.250000       1.00800           0
      6045 MEMB     46       POPC     H15B     HL       0.250000       1.00800           0
      6046 MEMB     46       POPC     H15C     HL       0.250000       1.00800           0
      6047 MEMB     46       POPC     C11      CTL2    -0.800000E-01   12.0110           0
      6048 MEMB     46       POPC     H11A     HAL2     0.900000E-01   1.00800           0
      6049 MEMB     46       POPC     H11B     HAL2     0.900000E-01   1.00800           0
      6050 MEMB     46       POPC     P        PL       1.500000       30.9740           0
      6051 MEMB     46       POPC     O13      O2L     -0.780000       15.9994           0
      6052 MEMB     46       POPC     O14      O2L     -0.780000       15.9994           0
      6053 MEMB     46       POPC     O12      OSLP    -0.570000       15.9994           0
      6054 MEMB     46       POPC     O11      OSLP    -0.570000       15.9994           0
      6055 MEMB     46       POPC     C1       CTL2    -0.800000E-01   12.0110           0
      6056 MEMB     46       POPC     HA       HAL2     0.900000E-01   1.00800           0
      6057 MEMB     46       POPC     HB       HAL2     0.900000E-01   1.00800           0
      6058 MEMB     46       POPC     C2       CTL1     0.170000       12.0110           0
      6059 MEMB     46       POPC     HS       HAL1     0.900000E-01   1.00800           0
      6060 MEMB     46       POPC     O21      OSL     -0.490000       15.9994           0
      6061 MEMB     46       POPC     C21      CL       0.900000       12.0110           0
      6062 MEMB     46       POPC     O22      OBL     -0.630000       15.9994           0
      6063 MEMB     46       POPC     C22      CTL2    -0.220000       12.0110           0
      6064 MEMB     46       POPC     H2R      HAL2     0.900000E-01   1.00800           0
      6065 MEMB     46       POPC     H2S      HAL2     0.900000E-01   1.00800           0
      6066 MEMB     46       POPC     C3       CTL2     0.800000E-01   12.0110           0
      6067 MEMB     46       POPC     HX       HAL2     0.900000E-01   1.00800           0
      6068 MEMB     46       POPC     HY       HAL2     0.900000E-01   1.00800           0
      6069 MEMB     46       POPC     O31      OSL     -0.490000       15.9994           0
      6070 MEMB     46       POPC     C31      CL       0.900000       12.0110           0
      6071 MEMB     46       POPC     O32      OBL     -0.630000       15.9994           0
      6072 MEMB     46       POPC     C32      CTL2    -0.220000       12.0110           0
      6073 MEMB     46       POPC     H2X      HAL2     0.900000E-01   1.00800           0
      6074 MEMB     46       POPC     H2Y      HAL2     0.900000E-01   1.00800           0
      6075 MEMB     46       POPC     C23      CTL2    -0.180000       12.0110           0
      6076 MEMB     46       POPC     H3R      HAL2     0.900000E-01   1.00800           0
      6077 MEMB     46       POPC     H3S      HAL2     0.900000E-01   1.00800           0
      6078 MEMB     46       POPC     C24      CTL2    -0.180000       12.0110           0
      6079 MEMB     46       POPC     H4R      HAL2     0.900000E-01   1.00800           0
      6080 MEMB     46       POPC     H4S      HAL2     0.900000E-01   1.00800           0
      6081 MEMB     46       POPC     C25      CTL2    -0.180000       12.0110           0
      6082 MEMB     46       POPC     H5R      HAL2     0.900000E-01   1.00800           0
      6083 MEMB     46       POPC     H5S      HAL2     0.900000E-01   1.00800           0
      6084 MEMB     46       POPC     C26      CTL2    -0.180000       12.0110           0
      6085 MEMB     46       POPC     H6R      HAL2     0.900000E-01   1.00800           0
      6086 MEMB     46       POPC     H6S      HAL2     0.900000E-01   1.00800           0
      6087 MEMB     46       POPC     C27      CTL2    -0.180000       12.0110           0
      6088 MEMB     46       POPC     H7R      HAL2     0.900000E-01   1.00800           0
      6089 MEMB     46       POPC     H7S      HAL2     0.900000E-01   1.00800           0
      6090 MEMB     46       POPC     C28      CTL2    -0.180000       12.0110           0
      6091 MEMB     46       POPC     H8R      HAL2     0.900000E-01   1.00800           0
      6092 MEMB     46       POPC     H8S      HAL2     0.900000E-01   1.00800           0
      6093 MEMB     46       POPC     C29      CEL1    -0.150000       12.0110           0
      6094 MEMB     46       POPC     H91      HEL1     0.150000       1.00800           0
      6095 MEMB     46       POPC     C210     CEL1    -0.150000       12.0110           0
      6096 MEMB     46       POPC     H101     HEL1     0.150000       1.00800           0
      6097 MEMB     46       POPC     C211     CTL2    -0.180000       12.0110           0
      6098 MEMB     46       POPC     H11R     HAL2     0.900000E-01   1.00800           0
      6099 MEMB     46       POPC     H11S     HAL2     0.900000E-01   1.00800           0
      6100 MEMB     46       POPC     C212     CTL2    -0.180000       12.0110           0
      6101 MEMB     46       POPC     H12R     HAL2     0.900000E-01   1.00800           0
      6102 MEMB     46       POPC     H12S     HAL2     0.900000E-01   1.00800           0
      6103 MEMB     46       POPC     C213     CTL2    -0.180000       12.0110           0
      6104 MEMB     46       POPC     H13R     HAL2     0.900000E-01   1.00800           0
      6105 MEMB     46       POPC     H13S     HAL2     0.900000E-01   1.00800           0
      6106 MEMB     46       POPC     C214     CTL2    -0.180000       12.0110           0
      6107 MEMB     46       POPC     H14R     HAL2     0.900000E-01   1.00800           0
      6108 MEMB     46       POPC     H14S     HAL2     0.900000E-01   1.00800           0
      6109 MEMB     46       POPC     C215     CTL2    -0.180000       12.0110           0
      6110 MEMB     46       POPC     H15R     HAL2     0.900000E-01   1.00800           0
      6111 MEMB     46       POPC     H15S     HAL2     0.900000E-01   1.00800           0
      6112 MEMB     46       POPC     C216     CTL2    -0.180000       12.0110           0
      6113 MEMB     46       POPC     H16R     HAL2     0.900000E-01   1.00800           0
      6114 MEMB     46       POPC     H16S     HAL2     0.900000E-01   1.00800           0
      6115 MEMB     46       POPC     C217     CTL2    -0.180000       12.0110           0
      6116 MEMB     46       POPC     H17R     HAL2     0.900000E-01   1.00800           0
      6117 MEMB     46       POPC     H17S     HAL2     0.900000E-01   1.00800           0
      6118 MEMB     46       POPC     C218     CTL3    -0.270000       12.0110           0
      6119 MEMB     46       POPC     H18R     HAL3     0.900000E-01   1.00800           0
      6120 MEMB     46       POPC     H18S     HAL3     0.900000E-01   1.00800           0
      6121 MEMB     46       POPC     H18T     HAL3     0.900000E-01   1.00800           0
      6122 MEMB     46       POPC     C33      CTL2    -0.180000       12.0110           0
      6123 MEMB     46       POPC     H3X      HAL2     0.900000E-01   1.00800           0
      6124 MEMB     46       POPC     H3Y      HAL2     0.900000E-01   1.00800           0
      6125 MEMB     46       POPC     C34      CTL2    -0.180000       12.0110           0
      6126 MEMB     46       POPC     H4X      HAL2     0.900000E-01   1.00800           0
      6127 MEMB     46       POPC     H4Y      HAL2     0.900000E-01   1.00800           0
      6128 MEMB     46       POPC     C35      CTL2    -0.180000       12.0110           0
      6129 MEMB     46       POPC     H5X      HAL2     0.900000E-01   1.00800           0
      6130 MEMB     46       POPC     H5Y      HAL2     0.900000E-01   1.00800           0
      6131 MEMB     46       POPC     C36      CTL2    -0.180000       12.0110           0
      6132 MEMB     46       POPC     H6X      HAL2     0.900000E-01   1.00800           0
      6133 MEMB     46       POPC     H6Y      HAL2     0.900000E-01   1.00800           0
      6134 MEMB     46       POPC     C37      CTL2    -0.180000       12.0110           0
      6135 MEMB     46       POPC     H7X      HAL2     0.900000E-01   1.00800           0
      6136 MEMB     46       POPC     H7Y      HAL2     0.900000E-01   1.00800           0
      6137 MEMB     46       POPC     C38      CTL2    -0.180000       12.0110           0
      6138 MEMB     46       POPC     H8X      HAL2     0.900000E-01   1.00800           0
      6139 MEMB     46       POPC     H8Y      HAL2     0.900000E-01   1.00800           0
      6140 MEMB     46       POPC     C39      CTL2    -0.180000       12.0110           0
      6141 MEMB     46       POPC     H9X      HAL2     0.900000E-01   1.00800           0
      6142 MEMB     46       POPC     H9Y      HAL2     0.900000E-01   1.00800           0
      6143 MEMB     46       POPC     C310     CTL2    -0.180000       12.0110           0
      6144 MEMB     46       POPC     H10X     HAL2     0.900000E-01   1.00800           0
      6145 MEMB     46       POPC     H10Y     HAL2     0.900000E-01   1.00800           0
      6146 MEMB     46       POPC     C311     CTL2    -0.180000       12.0110           0
      6147 MEMB     46       POPC     H11X     HAL2     0.900000E-01   1.00800           0
      6148 MEMB     46       POPC     H11Y     HAL2     0.900000E-01   1.00800           0
      6149 MEMB     46       POPC     C312     CTL2    -0.180000       12.0110           0
      6150 MEMB     46       POPC     H12X     HAL2     0.900000E-01   1.00800           0
      6151 MEMB     46       POPC     H12Y     HAL2     0.900000E-01   1.00800           0
      6152 MEMB     46       POPC     C313     CTL2    -0.180000       12.0110           0
      6153 MEMB     46       POPC     H13X     HAL2     0.900000E-01   1.00800           0
      6154 MEMB     46       POPC     H13Y     HAL2     0.900000E-01   1.00800           0
      6155 MEMB     46       POPC     C314     CTL2    -0.180000       12.0110           0
      6156 MEMB     46       POPC     H14X     HAL2     0.900000E-01   1.00800           0
      6157 MEMB     46       POPC     H14Y     HAL2     0.900000E-01   1.00800           0
      6158 MEMB     46       POPC     C315     CTL2    -0.180000       12.0110           0
      6159 MEMB     46       POPC     H15X     HAL2     0.900000E-01   1.00800           0
      6160 MEMB     46       POPC     H15Y     HAL2     0.900000E-01   1.00800           0
      6161 MEMB     46       POPC     C316     CTL3    -0.270000       12.0110           0
      6162 MEMB     46       POPC     H16X     HAL3     0.900000E-01   1.00800           0
      6163 MEMB     46       POPC     H16Y     HAL3     0.900000E-01   1.00800           0
      6164 MEMB     46       POPC     H16Z     HAL3     0.900000E-01   1.00800           0
      6165 MEMB     47       POPC     N        NTL     -0.600000       14.0070           0
      6166 MEMB     47       POPC     C12      CTL2    -0.100000       12.0110           0
      6167 MEMB     47       POPC     H12A     HL       0.250000       1.00800           0
      6168 MEMB     47       POPC     H12B     HL       0.250000       1.00800           0
      6169 MEMB     47       POPC     C13      CTL5    -0.350000       12.0110           0
      6170 MEMB     47       POPC     H13A     HL       0.250000       1.00800           0
      6171 MEMB     47       POPC     H13B     HL       0.250000       1.00800           0
      6172 MEMB     47       POPC     H13C     HL       0.250000       1.00800           0
      6173 MEMB     47       POPC     C14      CTL5    -0.350000       12.0110           0
      6174 MEMB     47       POPC     H14A     HL       0.250000       1.00800           0
      6175 MEMB     47       POPC     H14B     HL       0.250000       1.00800           0
      6176 MEMB     47       POPC     H14C     HL       0.250000       1.00800           0
      6177 MEMB     47       POPC     C15      CTL5    -0.350000       12.0110           0
      6178 MEMB     47       POPC     H15A     HL       0.250000       1.00800           0
      6179 MEMB     47       POPC     H15B     HL       0.250000       1.00800           0
      6180 MEMB     47       POPC     H15C     HL       0.250000       1.00800           0
      6181 MEMB     47       POPC     C11      CTL2    -0.800000E-01   12.0110           0
      6182 MEMB     47       POPC     H11A     HAL2     0.900000E-01   1.00800           0
      6183 MEMB     47       POPC     H11B     HAL2     0.900000E-01   1.00800           0
      6184 MEMB     47       POPC     P        PL       1.500000       30.9740           0
      6185 MEMB     47       POPC     O13      O2L     -0.780000       15.9994           0
      6186 MEMB     47       POPC     O14      O2L     -0.780000       15.9994           0
      6187 MEMB     47       POPC     O12      OSLP    -0.570000       15.9994           0
      6188 MEMB     47       POPC     O11      OSLP    -0.570000       15.9994           0
      6189 MEMB     47       POPC     C1       CTL2    -0.800000E-01   12.0110           0
      6190 MEMB     47       POPC     HA       HAL2     0.900000E-01   1.00800           0
      6191 MEMB     47       POPC     HB       HAL2     0.900000E-01   1.00800           0
      6192 MEMB     47       POPC     C2       CTL1     0.170000       12.0110           0
      6193 MEMB     47       POPC     HS       HAL1     0.900000E-01   1.00800           0
      6194 MEMB     47       POPC     O21      OSL     -0.490000       15.9994           0
      6195 MEMB     47       POPC     C21      CL       0.900000       12.0110           0
      6196 MEMB     47       POPC     O22      OBL     -0.630000       15.9994           0
      6197 MEMB     47       POPC     C22      CTL2    -0.220000       12.0110           0
      6198 MEMB     47       POPC     H2R      HAL2     0.900000E-01   1.00800           0
      6199 MEMB     47       POPC     H2S      HAL2     0.900000E-01   1.00800           0
      6200 MEMB     47       POPC     C3       CTL2     0.800000E-01   12.0110           0
      6201 MEMB     47       POPC     HX       HAL2     0.900000E-01   1.00800           0
      6202 MEMB     47       POPC     HY       HAL2     0.900000E-01   1.00800           0
      6203 MEMB     47       POPC     O31      OSL     -0.490000       15.9994           0
      6204 MEMB     47       POPC     C31      CL       0.900000       12.0110           0
      6205 MEMB     47       POPC     O32      OBL     -0.630000       15.9994           0
      6206 MEMB     47       POPC     C32      CTL2    -0.220000       12.0110           0
      6207 MEMB     47       POPC     H2X      HAL2     0.900000E-01   1.00800           0
      6208 MEMB     47       POPC     H2Y      HAL2     0.900000E-01   1.00800           0
      6209 MEMB     47       POPC     C23      CTL2    -0.180000       12.0110           0
      6210 MEMB     47       POPC     H3R      HAL2     0.900000E-01   1.00800           0
      6211 MEMB     47       POPC     H3S      HAL2     0.900000E-01   1.00800           0
      6212 MEMB     47       POPC     C24      CTL2    -0.180000       12.0110           0
      6213 MEMB     47       POPC     H4R      HAL2     0.900000E-01   1.00800           0
      6214 MEMB     47       POPC     H4S      HAL2     0.900000E-01   1.00800           0
      6215 MEMB     47       POPC     C25      CTL2    -0.180000       12.0110           0
      6216 MEMB     47       POPC     H5R      HAL2     0.900000E-01   1.00800           0
      6217 MEMB     47       POPC     H5S      HAL2     0.900000E-01   1.00800           0
      6218 MEMB     47       POPC     C26      CTL2    -0.180000       12.0110           0
      6219 MEMB     47       POPC     H6R      HAL2     0.900000E-01   1.00800           0
      6220 MEMB     47       POPC     H6S      HAL2     0.900000E-01   1.00800           0
      6221 MEMB     47       POPC     C27      CTL2    -0.180000       12.0110           0
      6222 MEMB     47       POPC     H7R      HAL2     0.900000E-01   1.00800           0
      6223 MEMB     47       POPC     H7S      HAL2     0.900000E-01   1.00800           0
      6224 MEMB     47       POPC     C28      CTL2    -0.180000       12.0110           0
      6225 MEMB     47       POPC     H8R      HAL2     0.900000E-01   1.00800           0
      6226 MEMB     47       POPC     H8S      HAL2     0.900000E-01   1.00800           0
      6227 MEMB     47       POPC     C29      CEL1    -0.150000       12.0110           0
      6228 MEMB     47       POPC     H91      HEL1     0.150000       1.00800           0
      6229 MEMB     47       POPC     C210     CEL1    -0.150000       12.0110           0
      6230 MEMB     47       POPC     H101     HEL1     0.150000       1.00800           0
      6231 MEMB     47       POPC     C211     CTL2    -0.180000       12.0110           0
      6232 MEMB     47       POPC     H11R     HAL2     0.900000E-01   1.00800           0
      6233 MEMB     47       POPC     H11S     HAL2     0.900000E-01   1.00800           0
      6234 MEMB     47       POPC     C212     CTL2    -0.180000       12.0110           0
      6235 MEMB     47       POPC     H12R     HAL2     0.900000E-01   1.00800           0
      6236 MEMB     47       POPC     H12S     HAL2     0.900000E-01   1.00800           0
      6237 MEMB     47       POPC     C213     CTL2    -0.180000       12.0110           0
      6238 MEMB     47       POPC     H13R     HAL2     0.900000E-01   1.00800           0
      6239 MEMB     47       POPC     H13S     HAL2     0.900000E-01   1.00800           0
      6240 MEMB     47       POPC     C214     CTL2    -0.180000       12.0110           0
      6241 MEMB     47       POPC     H14R     HAL2     0.900000E-01   1.00800           0
      6242 MEMB     47       POPC     H14S     HAL2     0.900000E-01   1.00800           0
      6243 MEMB     47       POPC     C215     CTL2    -0.180000       12.0110           0
      6244 MEMB     47       POPC     H15R     HAL2     0.900000E-01   1.00800           0
      6245 MEMB     47       POPC     H15S     HAL2     0.900000E-01   1.00800           0
      6246 MEMB     47       POPC     C216     CTL2    -0.180000       12.0110           0
      6247 MEMB     47       POPC     H16R     HAL2     0.900000E-01   1.00800           0
      6248 MEMB     47       POPC     H16S     HAL2     0.900000E-01   1.00800           0
      6249 MEMB     47       POPC     C217     CTL2    -0.180000       12.0110           0
      6250 MEMB     47       POPC     H17R     HAL2     0.900000E-01   1.00800           0
      6251 MEMB     47       POPC     H17S     HAL2     0.900000E-01   1.00800           0
      6252 MEMB     47       POPC     C218     CTL3    -0.270000       12.0110           0
      6253 MEMB     47       POPC     H18R     HAL3     0.900000E-01   1.00800           0
      6254 MEMB     47       POPC     H18S     HAL3     0.900000E-01   1.00800           0
      6255 MEMB     47       POPC     H18T     HAL3     0.900000E-01   1.00800           0
      6256 MEMB     47       POPC     C33      CTL2    -0.180000       12.0110           0
      6257 MEMB     47       POPC     H3X      HAL2     0.900000E-01   1.00800           0
      6258 MEMB     47       POPC     H3Y      HAL2     0.900000E-01   1.00800           0
      6259 MEMB     47       POPC     C34      CTL2    -0.180000       12.0110           0
      6260 MEMB     47       POPC     H4X      HAL2     0.900000E-01   1.00800           0
      6261 MEMB     47       POPC     H4Y      HAL2     0.900000E-01   1.00800           0
      6262 MEMB     47       POPC     C35      CTL2    -0.180000       12.0110           0
      6263 MEMB     47       POPC     H5X      HAL2     0.900000E-01   1.00800           0
      6264 MEMB     47       POPC     H5Y      HAL2     0.900000E-01   1.00800           0
      6265 MEMB     47       POPC     C36      CTL2    -0.180000       12.0110           0
      6266 MEMB     47       POPC     H6X      HAL2     0.900000E-01   1.00800           0
      6267 MEMB     47       POPC     H6Y      HAL2     0.900000E-01   1.00800           0
      6268 MEMB     47       POPC     C37      CTL2    -0.180000       12.0110           0
      6269 MEMB     47       POPC     H7X      HAL2     0.900000E-01   1.00800           0
      6270 MEMB     47       POPC     H7Y      HAL2     0.900000E-01   1.00800           0
      6271 MEMB     47       POPC     C38      CTL2    -0.180000       12.0110           0
      6272 MEMB     47       POPC     H8X      HAL2     0.900000E-01   1.00800           0
      6273 MEMB     47       POPC     H8Y      HAL2     0.900000E-01   1.00800           0
      6274 MEMB     47       POPC     C39      CTL2    -0.180000       12.0110           0
      6275 MEMB     47       POPC     H9X      HAL2     0.900000E-01   1.00800           0
      6276 MEMB     47       POPC     H9Y      HAL2     0.900000E-01   1.00800           0
      6277 MEMB     47       POPC     C310     CTL2    -0.180000       12.0110           0
      6278 MEMB     47       POPC     H10X     HAL2     0.900000E-01   1.00800           0
      6279 MEMB     47       POPC     H10Y     HAL2     0.900000E-01   1.00800           0
      6280 MEMB     47       POPC     C311     CTL2    -0.180000       12.0110           0
      6281 MEMB     47       POPC     H11X     HAL2     0.900000E-01   1.00800           0
      6282 MEMB     47       POPC     H11Y     HAL2     0.900000E-01   1.00800           0
      6283 MEMB     47       POPC     C312     CTL2    -0.180000       12.0110           0
      6284 MEMB     47       POPC     H12X     HAL2     0.900000E-01   1.00800           0
      6285 MEMB     47       POPC     H12Y     HAL2     0.900000E-01   1.00800           0
      6286 MEMB     47       POPC     C313     CTL2    -0.180000       12.0110           0
      6287 MEMB     47       POPC     H13X     HAL2     0.900000E-01   1.00800           0
      6288 MEMB     47       POPC     H13Y     HAL2     0.900000E-01   1.00800           0
      6289 MEMB     47       POPC     C314     CTL2    -0.180000       12.0110           0
      6290 MEMB     47       POPC     H14X     HAL2     0.900000E-01   1.00800           0
      6291 MEMB     47       POPC     H14Y     HAL2     0.900000E-01   1.00800           0
      6292 MEMB     47       POPC     C315     CTL2    -0.180000       12.0110           0
      6293 MEMB     47       POPC     H15X     HAL2     0.900000E-01   1.00800           0
      6294 MEMB     47       POPC     H15Y     HAL2     0.900000E-01   1.00800           0
      6295 MEMB     47       POPC     C316     CTL3    -0.270000       12.0110           0
      6296 MEMB     47       POPC     H16X     HAL3     0.900000E-01   1.00800           0
      6297 MEMB     47       POPC     H16Y     HAL3     0.900000E-01   1.00800           0
      6298 MEMB     47       POPC     H16Z     HAL3     0.900000E-01   1.00800           0
      6299 MEMB     48       POPC     N        NTL     -0.600000       14.0070           0
      6300 MEMB     48       POPC     C12      CTL2    -0.100000       12.0110           0
      6301 MEMB     48       POPC     H12A     HL       0.250000       1.00800           0
      6302 MEMB     48       POPC     H12B     HL       0.250000       1.00800           0
      6303 MEMB     48       POPC     C13      CTL5    -0.350000       12.0110           0
      6304 MEMB     48       POPC     H13A     HL       0.250000       1.00800           0
      6305 MEMB     48       POPC     H13B     HL       0.250000       1.00800           0
      6306 MEMB     48       POPC     H13C     HL       0.250000       1.00800           0
      6307 MEMB     48       POPC     C14      CTL5    -0.350000       12.0110           0
      6308 MEMB     48       POPC     H14A     HL       0.250000       1.00800           0
      6309 MEMB     48       POPC     H14B     HL       0.250000       1.00800           0
      6310 MEMB     48       POPC     H14C     HL       0.250000       1.00800           0
      6311 MEMB     48       POPC     C15      CTL5    -0.350000       12.0110           0
      6312 MEMB     48       POPC     H15A     HL       0.250000       1.00800           0
      6313 MEMB     48       POPC     H15B     HL       0.250000       1.00800           0
      6314 MEMB     48       POPC     H15C     HL       0.250000       1.00800           0
      6315 MEMB     48       POPC     C11      CTL2    -0.800000E-01   12.0110           0
      6316 MEMB     48       POPC     H11A     HAL2     0.900000E-01   1.00800           0
      6317 MEMB     48       POPC     H11B     HAL2     0.900000E-01   1.00800           0
      6318 MEMB     48       POPC     P        PL       1.500000       30.9740           0
      6319 MEMB     48       POPC     O13      O2L     -0.780000       15.9994           0
      6320 MEMB     48       POPC     O14      O2L     -0.780000       15.9994           0
      6321 MEMB     48       POPC     O12      OSLP    -0.570000       15.9994           0
      6322 MEMB     48       POPC     O11      OSLP    -0.570000       15.9994           0
      6323 MEMB     48       POPC     C1       CTL2    -0.800000E-01   12.0110           0
      6324 MEMB     48       POPC     HA       HAL2     0.900000E-01   1.00800           0
      6325 MEMB     48       POPC     HB       HAL2     0.900000E-01   1.00800           0
      6326 MEMB     48       POPC     C2       CTL1     0.170000       12.0110           0
      6327 MEMB     48       POPC     HS       HAL1     0.900000E-01   1.00800           0
      6328 MEMB     48       POPC     O21      OSL     -0.490000       15.9994           0
      6329 MEMB     48       POPC     C21      CL       0.900000       12.0110           0
      6330 MEMB     48       POPC     O22      OBL     -0.630000       15.9994           0
      6331 MEMB     48       POPC     C22      CTL2    -0.220000       12.0110           0
      6332 MEMB     48       POPC     H2R      HAL2     0.900000E-01   1.00800           0
      6333 MEMB     48       POPC     H2S      HAL2     0.900000E-01   1.00800           0
      6334 MEMB     48       POPC     C3       CTL2     0.800000E-01   12.0110           0
      6335 MEMB     48       POPC     HX       HAL2     0.900000E-01   1.00800           0
      6336 MEMB     48       POPC     HY       HAL2     0.900000E-01   1.00800           0
      6337 MEMB     48       POPC     O31      OSL     -0.490000       15.9994           0
      6338 MEMB     48       POPC     C31      CL       0.900000       12.0110           0
      6339 MEMB     48       POPC     O32      OBL     -0.630000       15.9994           0
      6340 MEMB     48       POPC     C32      CTL2    -0.220000       12.0110           0
      6341 MEMB     48       POPC     H2X      HAL2     0.900000E-01   1.00800           0
      6342 MEMB     48       POPC     H2Y      HAL2     0.900000E-01   1.00800           0
      6343 MEMB     48       POPC     C23      CTL2    -0.180000       12.0110           0
      6344 MEMB     48       POPC     H3R      HAL2     0.900000E-01   1.00800           0
      6345 MEMB     48       POPC     H3S      HAL2     0.900000E-01   1.00800           0
      6346 MEMB     48       POPC     C24      CTL2    -0.180000       12.0110           0
      6347 MEMB     48       POPC     H4R      HAL2     0.900000E-01   1.00800           0
      6348 MEMB     48       POPC     H4S      HAL2     0.900000E-01   1.00800           0
      6349 MEMB     48       POPC     C25      CTL2    -0.180000       12.0110           0
      6350 MEMB     48       POPC     H5R      HAL2     0.900000E-01   1.00800           0
      6351 MEMB     48       POPC     H5S      HAL2     0.900000E-01   1.00800           0
      6352 MEMB     48       POPC     C26      CTL2    -0.180000       12.0110           0
      6353 MEMB     48       POPC     H6R      HAL2     0.900000E-01   1.00800           0
      6354 MEMB     48       POPC     H6S      HAL2     0.900000E-01   1.00800           0
      6355 MEMB     48       POPC     C27      CTL2    -0.180000       12.0110           0
      6356 MEMB     48       POPC     H7R      HAL2     0.900000E-01   1.00800           0
      6357 MEMB     48       POPC     H7S      HAL2     0.900000E-01   1.00800           0
      6358 MEMB     48       POPC     C28      CTL2    -0.180000       12.0110           0
      6359 MEMB     48       POPC     H8R      HAL2     0.900000E-01   1.00800           0
      6360 MEMB     48       POPC     H8S      HAL2     0.900000E-01   1.00800           0
      6361 MEMB     48       POPC     C29      CEL1    -0.150000       12.0110           0
      6362 MEMB     48       POPC     H91      HEL1     0.150000       1.00800           0
      6363 MEMB     48       POPC     C210     CEL1    -0.150000       12.0110           0
      6364 MEMB     48       POPC     H101     HEL1     0.150000       1.00800           0
      6365 MEMB     48       POPC     C211     CTL2    -0.180000       12.0110           0
      6366 MEMB     48       POPC     H11R     HAL2     0.900000E-01   1.00800           0
      6367 MEMB     48       POPC     H11S     HAL2     0.900000E-01   1.00800           0
      6368 MEMB     48       POPC     C212     CTL2    -0.180000       12.0110           0
      6369 MEMB     48       POPC     H12R     HAL2     0.900000E-01   1.00800           0
      6370 MEMB     48       POPC     H12S     HAL2     0.900000E-01   1.00800           0
      6371 MEMB     48       POPC     C213     CTL2    -0.180000       12.0110           0
      6372 MEMB     48       POPC     H13R     HAL2     0.900000E-01   1.00800           0
      6373 MEMB     48       POPC     H13S     HAL2     0.900000E-01   1.00800           0
      6374 MEMB     48       POPC     C214     CTL2    -0.180000       12.0110           0
      6375 MEMB     48       POPC     H14R     HAL2     0.900000E-01   1.00800           0
      6376 MEMB     48       POPC     H14S     HAL2     0.900000E-01   1.00800           0
      6377 MEMB     48       POPC     C215     CTL2    -0.180000       12.0110           0
      6378 MEMB     48       POPC     H15R     HAL2     0.900000E-01   1.00800           0
      6379 MEMB     48       POPC     H15S     HAL2     0.900000E-01   1.00800           0
      6380 MEMB     48       POPC     C216     CTL2    -0.180000       12.0110           0
      6381 MEMB     48       POPC     H16R     HAL2     0.900000E-01   1.00800           0
      6382 MEMB     48       POPC     H16S     HAL2     0.900000E-01   1.00800           0
      6383 MEMB     48       POPC     C217     CTL2    -0.180000       12.0110           0
      6384 MEMB     48       POPC     H17R     HAL2     0.900000E-01   1.00800           0
      6385 MEMB     48       POPC     H17S     HAL2     0.900000E-01   1.00800           0
      6386 MEMB     48       POPC     C218     CTL3    -0.270000       12.0110           0
      6387 MEMB     48       POPC     H18R     HAL3     0.900000E-01   1.00800           0
      6388 MEMB     48       POPC     H18S     HAL3     0.900000E-01   1.00800           0
      6389 MEMB     48       POPC     H18T     HAL3     0.900000E-01   1.00800           0
      6390 MEMB     48       POPC     C33      CTL2    -0.180000       12.0110           0
      6391 MEMB     48       POPC     H3X      HAL2     0.900000E-01   1.00800           0
      6392 MEMB     48       POPC     H3Y      HAL2     0.900000E-01   1.00800           0
      6393 MEMB     48       POPC     C34      CTL2    -0.180000       12.0110           0
      6394 MEMB     48       POPC     H4X      HAL2     0.900000E-01   1.00800           0
      6395 MEMB     48       POPC     H4Y      HAL2     0.900000E-01   1.00800           0
      6396 MEMB     48       POPC     C35      CTL2    -0.180000       12.0110           0
      6397 MEMB     48       POPC     H5X      HAL2     0.900000E-01   1.00800           0
      6398 MEMB     48       POPC     H5Y      HAL2     0.900000E-01   1.00800           0
      6399 MEMB     48       POPC     C36      CTL2    -0.180000       12.0110           0
      6400 MEMB     48       POPC     H6X      HAL2     0.900000E-01   1.00800           0
      6401 MEMB     48       POPC     H6Y      HAL2     0.900000E-01   1.00800           0
      6402 MEMB     48       POPC     C37      CTL2    -0.180000       12.0110           0
      6403 MEMB     48       POPC     H7X      HAL2     0.900000E-01   1.00800           0
      6404 MEMB     48       POPC     H7Y      HAL2     0.900000E-01   1.00800           0
      6405 MEMB     48       POPC     C38      CTL2    -0.180000       12.0110           0
      6406 MEMB     48       POPC     H8X      HAL2     0.900000E-01   1.00800           0
      6407 MEMB     48       POPC     H8Y      HAL2     0.900000E-01   1.00800           0
      6408 MEMB     48       POPC     C39      CTL2    -0.180000       12.0110           0
      6409 MEMB     48       POPC     H9X      HAL2     0.900000E-01   1.00800           0
      6410 MEMB     48       POPC     H9Y      HAL2     0.900000E-01   1.00800           0
      6411 MEMB     48       POPC     C310     CTL2    -0.180000       12.0110           0
      6412 MEMB     48       POPC     H10X     HAL2     0.900000E-01   1.00800           0
      6413 MEMB     48       POPC     H10Y     HAL2     0.900000E-01   1.00800           0
      6414 MEMB     48       POPC     C311     CTL2    -0.180000       12.0110           0
      6415 MEMB     48       POPC     H11X     HAL2     0.900000E-01   1.00800           0
      6416 MEMB     48       POPC     H11Y     HAL2     0.900000E-01   1.00800           0
      6417 MEMB     48       POPC     C312     CTL2    -0.180000       12.0110           0
      6418 MEMB     48       POPC     H12X     HAL2     0.900000E-01   1.00800           0
      6419 MEMB     48       POPC     H12Y     HAL2     0.900000E-01   1.00800           0
      6420 MEMB     48       POPC     C313     CTL2    -0.180000       12.0110           0
      6421 MEMB     48       POPC     H13X     HAL2     0.900000E-01   1.00800           0
      6422 MEMB     48       POPC     H13Y     HAL2     0.900000E-01   1.00800           0
      6423 MEMB     48       POPC     C314     CTL2    -0.180000       12.0110           0
      6424 MEMB     48       POPC     H14X     HAL2     0.900000E-01   1.00800           0
      6425 MEMB     48       POPC     H14Y     HAL2     0.900000E-01   1.00800           0
      6426 MEMB     48       POPC     C315     CTL2    -0.180000       12.0110           0
      6427 MEMB     48       POPC     H15X     HAL2     0.900000E-01   1.00800           0
      6428 MEMB     48       POPC     H15Y     HAL2     0.900000E-01   1.00800           0
      6429 MEMB     48       POPC     C316     CTL3    -0.270000       12.0110           0
      6430 MEMB     48       POPC     H16X     HAL3     0.900000E-01   1.00800           0
      6431 MEMB     48       POPC     H16Y     HAL3     0.900000E-01   1.00800           0
      6432 MEMB     48       POPC     H16Z     HAL3     0.900000E-01   1.00800           0
      6433 MEMB     49       POPC     N        NTL     -0.600000       14.0070           0
      6434 MEMB     49       POPC     C12      CTL2    -0.100000       12.0110           0
      6435 MEMB     49       POPC     H12A     HL       0.250000       1.00800           0
      6436 MEMB     49       POPC     H12B     HL       0.250000       1.00800           0
      6437 MEMB     49       POPC     C13      CTL5    -0.350000       12.0110           0
      6438 MEMB     49       POPC     H13A     HL       0.250000       1.00800           0
      6439 MEMB     49       POPC     H13B     HL       0.250000       1.00800           0
      6440 MEMB     49       POPC     H13C     HL       0.250000       1.00800           0
      6441 MEMB     49       POPC     C14      CTL5    -0.350000       12.0110           0
      6442 MEMB     49       POPC     H14A     HL       0.250000       1.00800           0
      6443 MEMB     49       POPC     H14B     HL       0.250000       1.00800           0
      6444 MEMB     49       POPC     H14C     HL       0.250000       1.00800           0
      6445 MEMB     49       POPC     C15      CTL5    -0.350000       12.0110           0
      6446 MEMB     49       POPC     H15A     HL       0.250000       1.00800           0
      6447 MEMB     49       POPC     H15B     HL       0.250000       1.00800           0
      6448 MEMB     49       POPC     H15C     HL       0.250000       1.00800           0
      6449 MEMB     49       POPC     C11      CTL2    -0.800000E-01   12.0110           0
      6450 MEMB     49       POPC     H11A     HAL2     0.900000E-01   1.00800           0
      6451 MEMB     49       POPC     H11B     HAL2     0.900000E-01   1.00800           0
      6452 MEMB     49       POPC     P        PL       1.500000       30.9740           0
      6453 MEMB     49       POPC     O13      O2L     -0.780000       15.9994           0
      6454 MEMB     49       POPC     O14      O2L     -0.780000       15.9994           0
      6455 MEMB     49       POPC     O12      OSLP    -0.570000       15.9994           0
      6456 MEMB     49       POPC     O11      OSLP    -0.570000       15.9994           0
      6457 MEMB     49       POPC     C1       CTL2    -0.800000E-01   12.0110           0
      6458 MEMB     49       POPC     HA       HAL2     0.900000E-01   1.00800           0
      6459 MEMB     49       POPC     HB       HAL2     0.900000E-01   1.00800           0
      6460 MEMB     49       POPC     C2       CTL1     0.170000       12.0110           0
      6461 MEMB     49       POPC     HS       HAL1     0.900000E-01   1.00800           0
      6462 MEMB     49       POPC     O21      OSL     -0.490000       15.9994           0
      6463 MEMB     49       POPC     C21      CL       0.900000       12.0110           0
      6464 MEMB     49       POPC     O22      OBL     -0.630000       15.9994           0
      6465 MEMB     49       POPC     C22      CTL2    -0.220000       12.0110           0
      6466 MEMB     49       POPC     H2R      HAL2     0.900000E-01   1.00800           0
      6467 MEMB     49       POPC     H2S      HAL2     0.900000E-01   1.00800           0
      6468 MEMB     49       POPC     C3       CTL2     0.800000E-01   12.0110           0
      6469 MEMB     49       POPC     HX       HAL2     0.900000E-01   1.00800           0
      6470 MEMB     49       POPC     HY       HAL2     0.900000E-01   1.00800           0
      6471 MEMB     49       POPC     O31      OSL     -0.490000       15.9994           0
      6472 MEMB     49       POPC     C31      CL       0.900000       12.0110           0
      6473 MEMB     49       POPC     O32      OBL     -0.630000       15.9994           0
      6474 MEMB     49       POPC     C32      CTL2    -0.220000       12.0110           0
      6475 MEMB     49       POPC     H2X      HAL2     0.900000E-01   1.00800           0
      6476 MEMB     49       POPC     H2Y      HAL2     0.900000E-01   1.00800           0
      6477 MEMB     49       POPC     C23      CTL2    -0.180000       12.0110           0
      6478 MEMB     49       POPC     H3R      HAL2     0.900000E-01   1.00800           0
      6479 MEMB     49       POPC     H3S      HAL2     0.900000E-01   1.00800           0
      6480 MEMB     49       POPC     C24      CTL2    -0.180000       12.0110           0
      6481 MEMB     49       POPC     H4R      HAL2     0.900000E-01   1.00800           0
      6482 MEMB     49       POPC     H4S      HAL2     0.900000E-01   1.00800           0
      6483 MEMB     49       POPC     C25      CTL2    -0.180000       12.0110           0
      6484 MEMB     49       POPC     H5R      HAL2     0.900000E-01   1.00800           0
      6485 MEMB     49       POPC     H5S      HAL2     0.900000E-01   1.00800           0
      6486 MEMB     49       POPC     C26      CTL2    -0.180000       12.0110           0
      6487 MEMB     49       POPC     H6R      HAL2     0.900000E-01   1.00800           0
      6488 MEMB     49       POPC     H6S      HAL2     0.900000E-01   1.00800           0
      6489 MEMB     49       POPC     C27      CTL2    -0.180000       12.0110           0
      6490 MEMB     49       POPC     H7R      HAL2     0.900000E-01   1.00800           0
      6491 MEMB     49       POPC     H7S      HAL2     0.900000E-01   1.00800           0
      6492 MEMB     49       POPC     C28      CTL2    -0.180000       12.0110           0
      6493 MEMB     49       POPC     H8R      HAL2     0.900000E-01   1.00800           0
      6494 MEMB     49       POPC     H8S      HAL2     0.900000E-01   1.00800           0
      6495 MEMB     49       POPC     C29      CEL1    -0.150000       12.0110           0
      6496 MEMB     49       POPC     H91      HEL1     0.150000       1.00800           0
      6497 MEMB     49       POPC     C210     CEL1    -0.150000       12.0110           0
      6498 MEMB     49       POPC     H101     HEL1     0.150000       1.00800           0
      6499 MEMB     49       POPC     C211     CTL2    -0.180000       12.0110           0
      6500 MEMB     49       POPC     H11R     HAL2     0.900000E-01   1.00800           0
      6501 MEMB     49       POPC     H11S     HAL2     0.900000E-01   1.00800           0
      6502 MEMB     49       POPC     C212     CTL2    -0.180000       12.0110           0
      6503 MEMB     49       POPC     H12R     HAL2     0.900000E-01   1.00800           0
      6504 MEMB     49       POPC     H12S     HAL2     0.900000E-01   1.00800           0
      6505 MEMB     49       POPC     C213     CTL2    -0.180000       12.0110           0
      6506 MEMB     49       POPC     H13R     HAL2     0.900000E-01   1.00800           0
      6507 MEMB     49       POPC     H13S     HAL2     0.900000E-01   1.00800           0
      6508 MEMB     49       POPC     C214     CTL2    -0.180000       12.0110           0
      6509 MEMB     49       POPC     H14R     HAL2     0.900000E-01   1.00800           0
      6510 MEMB     49       POPC     H14S     HAL2     0.900000E-01   1.00800           0
      6511 MEMB     49       POPC     C215     CTL2    -0.180000       12.0110           0
      6512 MEMB     49       POPC     H15R     HAL2     0.900000E-01   1.00800           0
      6513 MEMB     49       POPC     H15S     HAL2     0.900000E-01   1.00800           0
      6514 MEMB     49       POPC     C216     CTL2    -0.180000       12.0110           0
      6515 MEMB     49       POPC     H16R     HAL2     0.900000E-01   1.00800           0
      6516 MEMB     49       POPC     H16S     HAL2     0.900000E-01   1.00800           0
      6517 MEMB     49       POPC     C217     CTL2    -0.180000       12.0110           0
      6518 MEMB     49       POPC     H17R     HAL2     0.900000E-01   1.00800           0
      6519 MEMB     49       POPC     H17S     HAL2     0.900000E-01   1.00800           0
      6520 MEMB     49       POPC     C218     CTL3    -0.270000       12.0110           0
      6521 MEMB     49       POPC     H18R     HAL3     0.900000E-01   1.00800           0
      6522 MEMB     49       POPC     H18S     HAL3     0.900000E-01   1.00800           0
      6523 MEMB     49       POPC     H18T     HAL3     0.900000E-01   1.00800           0
      6524 MEMB     49       POPC     C33      CTL2    -0.180000       12.0110           0
      6525 MEMB     49       POPC     H3X      HAL2     0.900000E-01   1.00800           0
      6526 MEMB     49       POPC     H3Y      HAL2     0.900000E-01   1.00800           0
      6527 MEMB     49       POPC     C34      CTL2    -0.180000       12.0110           0
      6528 MEMB     49       POPC     H4X      HAL2     0.900000E-01   1.00800           0
      6529 MEMB     49       POPC     H4Y      HAL2     0.900000E-01   1.00800           0
      6530 MEMB     49       POPC     C35      CTL2    -0.180000       12.0110           0
      6531 MEMB     49       POPC     H5X      HAL2     0.900000E-01   1.00800           0
      6532 MEMB     49       POPC     H5Y      HAL2     0.900000E-01   1.00800           0
      6533 MEMB     49       POPC     C36      CTL2    -0.180000       12.0110           0
      6534 MEMB     49       POPC     H6X      HAL2     0.900000E-01   1.00800           0
      6535 MEMB     49       POPC     H6Y      HAL2     0.900000E-01   1.00800           0
      6536 MEMB     49       POPC     C37      CTL2    -0.180000       12.0110           0
      6537 MEMB     49       POPC     H7X      HAL2     0.900000E-01   1.00800           0
      6538 MEMB     49       POPC     H7Y      HAL2     0.900000E-01   1.00800           0
      6539 MEMB     49       POPC     C38      CTL2    -0.180000       12.0110           0
      6540 MEMB     49       POPC     H8X      HAL2     0.900000E-01   1.00800           0
      6541 MEMB     49       POPC     H8Y      HAL2     0.900000E-01   1.00800           0
      6542 MEMB     49       POPC     C39      CTL2    -0.180000       12.0110           0
      6543 MEMB     49       POPC     H9X      HAL2     0.900000E-01   1.00800           0
      6544 MEMB     49       POPC     H9Y      HAL2     0.900000E-01   1.00800           0
      6545 MEMB     49       POPC     C310     CTL2    -0.180000       12.0110           0
      6546 MEMB     49       POPC     H10X     HAL2     0.900000E-01   1.00800           0
      6547 MEMB     49       POPC     H10Y     HAL2     0.900000E-01   1.00800           0
      6548 MEMB     49       POPC     C311     CTL2    -0.180000       12.0110           0
      6549 MEMB     49       POPC     H11X     HAL2     0.900000E-01   1.00800           0
      6550 MEMB     49       POPC     H11Y     HAL2     0.900000E-01   1.00800           0
      6551 MEMB     49       POPC     C312     CTL2    -0.180000       12.0110           0
      6552 MEMB     49       POPC     H12X     HAL2     0.900000E-01   1.00800           0
      6553 MEMB     49       POPC     H12Y     HAL2     0.900000E-01   1.00800           0
      6554 MEMB     49       POPC     C313     CTL2    -0.180000       12.0110           0
      6555 MEMB     49       POPC     H13X     HAL2     0.900000E-01   1.00800           0
      6556 MEMB     49       POPC     H13Y     HAL2     0.900000E-01   1.00800           0
      6557 MEMB     49       POPC     C314     CTL2    -0.180000       12.0110           0
      6558 MEMB     49       POPC     H14X     HAL2     0.900000E-01   1.00800           0
      6559 MEMB     49       POPC     H14Y     HAL2     0.900000E-01   1.00800           0
      6560 MEMB     49       POPC     C315     CTL2    -0.180000       12.0110           0
      6561 MEMB     49       POPC     H15X     HAL2     0.900000E-01   1.00800           0
      6562 MEMB     49       POPC     H15Y     HAL2     0.900000E-01   1.00800           0
      6563 MEMB     49       POPC     C316     CTL3    -0.270000       12.0110           0
      6564 MEMB     49       POPC     H16X     HAL3     0.900000E-01   1.00800           0
      6565 MEMB     49       POPC     H16Y     HAL3     0.900000E-01   1.00800           0
      6566 MEMB     49       POPC     H16Z     HAL3     0.900000E-01   1.00800           0
      6567 MEMB     50       POPC     N        NTL     -0.600000       14.0070           0
      6568 MEMB     50       POPC     C12      CTL2    -0.100000       12.0110           0
      6569 MEMB     50       POPC     H12A     HL       0.250000       1.00800           0
      6570 MEMB     50       POPC     H12B     HL       0.250000       1.00800           0
      6571 MEMB     50       POPC     C13      CTL5    -0.350000       12.0110           0
      6572 MEMB     50       POPC     H13A     HL       0.250000       1.00800           0
      6573 MEMB     50       POPC     H13B     HL       0.250000       1.00800           0
      6574 MEMB     50       POPC     H13C     HL       0.250000       1.00800           0
      6575 MEMB     50       POPC     C14      CTL5    -0.350000       12.0110           0
      6576 MEMB     50       POPC     H14A     HL       0.250000       1.00800           0
      6577 MEMB     50       POPC     H14B     HL       0.250000       1.00800           0
      6578 MEMB     50       POPC     H14C     HL       0.250000       1.00800           0
      6579 MEMB     50       POPC     C15      CTL5    -0.350000       12.0110           0
      6580 MEMB     50       POPC     H15A     HL       0.250000       1.00800           0
      6581 MEMB     50       POPC     H15B     HL       0.250000       1.00800           0
      6582 MEMB     50       POPC     H15C     HL       0.250000       1.00800           0
      6583 MEMB     50       POPC     C11      CTL2    -0.800000E-01   12.0110           0
      6584 MEMB     50       POPC     H11A     HAL2     0.900000E-01   1.00800           0
      6585 MEMB     50       POPC     H11B     HAL2     0.900000E-01   1.00800           0
      6586 MEMB     50       POPC     P        PL       1.500000       30.9740           0
      6587 MEMB     50       POPC     O13      O2L     -0.780000       15.9994           0
      6588 MEMB     50       POPC     O14      O2L     -0.780000       15.9994           0
      6589 MEMB     50       POPC     O12      OSLP    -0.570000       15.9994           0
      6590 MEMB     50       POPC     O11      OSLP    -0.570000       15.9994           0
      6591 MEMB     50       POPC     C1       CTL2    -0.800000E-01   12.0110           0
      6592 MEMB     50       POPC     HA       HAL2     0.900000E-01   1.00800           0
      6593 MEMB     50       POPC     HB       HAL2     0.900000E-01   1.00800           0
      6594 MEMB     50       POPC     C2       CTL1     0.170000       12.0110           0
      6595 MEMB     50       POPC     HS       HAL1     0.900000E-01   1.00800           0
      6596 MEMB     50       POPC     O21      OSL     -0.490000       15.9994           0
      6597 MEMB     50       POPC     C21      CL       0.900000       12.0110           0
      6598 MEMB     50       POPC     O22      OBL     -0.630000       15.9994           0
      6599 MEMB     50       POPC     C22      CTL2    -0.220000       12.0110           0
      6600 MEMB     50       POPC     H2R      HAL2     0.900000E-01   1.00800           0
      6601 MEMB     50       POPC     H2S      HAL2     0.900000E-01   1.00800           0
      6602 MEMB     50       POPC     C3       CTL2     0.800000E-01   12.0110           0
      6603 MEMB     50       POPC     HX       HAL2     0.900000E-01   1.00800           0
      6604 MEMB     50       POPC     HY       HAL2     0.900000E-01   1.00800           0
      6605 MEMB     50       POPC     O31      OSL     -0.490000       15.9994           0
      6606 MEMB     50       POPC     C31      CL       0.900000       12.0110           0
      6607 MEMB     50       POPC     O32      OBL     -0.630000       15.9994           0
      6608 MEMB     50       POPC     C32      CTL2    -0.220000       12.0110           0
      6609 MEMB     50       POPC     H2X      HAL2     0.900000E-01   1.00800           0
      6610 MEMB     50       POPC     H2Y      HAL2     0.900000E-01   1.00800           0
      6611 MEMB     50       POPC     C23      CTL2    -0.180000       12.0110           0
      6612 MEMB     50       POPC     H3R      HAL2     0.900000E-01   1.00800           0
      6613 MEMB     50       POPC     H3S      HAL2     0.900000E-01   1.00800           0
      6614 MEMB     50       POPC     C24      CTL2    -0.180000       12.0110           0
      6615 MEMB     50       POPC     H4R      HAL2     0.900000E-01   1.00800           0
      6616 MEMB     50       POPC     H4S      HAL2     0.900000E-01   1.00800           0
      6617 MEMB     50       POPC     C25      CTL2    -0.180000       12.0110           0
      6618 MEMB     50       POPC     H5R      HAL2     0.900000E-01   1.00800           0
      6619 MEMB     50       POPC     H5S      HAL2     0.900000E-01   1.00800           0
      6620 MEMB     50       POPC     C26      CTL2    -0.180000       12.0110           0
      6621 MEMB     50       POPC     H6R      HAL2     0.900000E-01   1.00800           0
      6622 MEMB     50       POPC     H6S      HAL2     0.900000E-01   1.00800           0
      6623 MEMB     50       POPC     C27      CTL2    -0.180000       12.0110           0
      6624 MEMB     50       POPC     H7R      HAL2     0.900000E-01   1.00800           0
      6625 MEMB     50       POPC     H7S      HAL2     0.900000E-01   1.00800           0
      6626 MEMB     50       POPC     C28      CTL2    -0.180000       12.0110           0
      6627 MEMB     50       POPC     H8R      HAL2     0.900000E-01   1.00800           0
      6628 MEMB     50       POPC     H8S      HAL2     0.900000E-01   1.00800           0
      6629 MEMB     50       POPC     C29      CEL1    -0.150000       12.0110           0
      6630 MEMB     50       POPC     H91      HEL1     0.150000       1.00800           0
      6631 MEMB     50       POPC     C210     CEL1    -0.150000       12.0110           0
      6632 MEMB     50       POPC     H101     HEL1     0.150000       1.00800           0
      6633 MEMB     50       POPC     C211     CTL2    -0.180000       12.0110           0
      6634 MEMB     50       POPC     H11R     HAL2     0.900000E-01   1.00800           0
      6635 MEMB     50       POPC     H11S     HAL2     0.900000E-01   1.00800           0
      6636 MEMB     50       POPC     C212     CTL2    -0.180000       12.0110           0
      6637 MEMB     50       POPC     H12R     HAL2     0.900000E-01   1.00800           0
      6638 MEMB     50       POPC     H12S     HAL2     0.900000E-01   1.00800           0
      6639 MEMB     50       POPC     C213     CTL2    -0.180000       12.0110           0
      6640 MEMB     50       POPC     H13R     HAL2     0.900000E-01   1.00800           0
      6641 MEMB     50       POPC     H13S     HAL2     0.900000E-01   1.00800           0
      6642 MEMB     50       POPC     C214     CTL2    -0.180000       12.0110           0
      6643 MEMB     50       POPC     H14R     HAL2     0.900000E-01   1.00800           0
      6644 MEMB     50       POPC     H14S     HAL2     0.900000E-01   1.00800           0
      6645 MEMB     50       POPC     C215     CTL2    -0.180000       12.0110           0
      6646 MEMB     50       POPC     H15R     HAL2     0.900000E-01   1.00800           0
      6647 MEMB     50       POPC     H15S     HAL2     0.900000E-01   1.00800           0
      6648 MEMB     50       POPC     C216     CTL2    -0.180000       12.0110           0
      6649 MEMB     50       POPC     H16R     HAL2     0.900000E-01   1.00800           0
      6650 MEMB     50       POPC     H16S     HAL2     0.900000E-01   1.00800           0
      6651 MEMB     50       POPC     C217     CTL2    -0.180000       12.0110           0
      6652 MEMB     50       POPC     H17R     HAL2     0.900000E-01   1.00800           0
      6653 MEMB     50       POPC     H17S     HAL2     0.900000E-01   1.00800           0
      6654 MEMB     50       POPC     C218     CTL3    -0.270000       12.0110           0
      6655 MEMB     50       POPC     H18R     HAL3     0.900000E-01   1.00800           0
      6656 MEMB     50       POPC     H18S     HAL3     0.900000E-01   1.00800           0
      6657 MEMB     50       POPC     H18T     HAL3     0.900000E-01   1.00800           0
      6658 MEMB     50       POPC     C33      CTL2    -0.180000       12.0110           0
      6659 MEMB     50       POPC     H3X      HAL2     0.900000E-01   1.00800           0
      6660 MEMB     50       POPC     H3Y      HAL2     0.900000E-01   1.00800           0
      6661 MEMB     50       POPC     C34      CTL2    -0.180000       12.0110           0
      6662 MEMB     50       POPC     H4X      HAL2     0.900000E-01   1.00800           0
      6663 MEMB     50       POPC     H4Y      HAL2     0.900000E-01   1.00800           0
      6664 MEMB     50       POPC     C35      CTL2    -0.180000       12.0110           0
      6665 MEMB     50       POPC     H5X      HAL2     0.900000E-01   1.00800           0
      6666 MEMB     50       POPC     H5Y      HAL2     0.900000E-01   1.00800           0
      6667 MEMB     50       POPC     C36      CTL2    -0.180000       12.0110           0
      6668 MEMB     50       POPC     H6X      HAL2     0.900000E-01   1.00800           0
      6669 MEMB     50       POPC     H6Y      HAL2     0.900000E-01   1.00800           0
      6670 MEMB     50       POPC     C37      CTL2    -0.180000       12.0110           0
      6671 MEMB     50       POPC     H7X      HAL2     0.900000E-01   1.00800           0
      6672 MEMB     50       POPC     H7Y      HAL2     0.900000E-01   1.00800           0
      6673 MEMB     50       POPC     C38      CTL2    -0.180000       12.0110           0
      6674 MEMB     50       POPC     H8X      HAL2     0.900000E-01   1.00800           0
      6675 MEMB     50       POPC     H8Y      HAL2     0.900000E-01   1.00800           0
      6676 MEMB     50       POPC     C39      CTL2    -0.180000       12.0110           0
      6677 MEMB     50       POPC     H9X      HAL2     0.900000E-01   1.00800           0
      6678 MEMB     50       POPC     H9Y      HAL2     0.900000E-01   1.00800           0
      6679 MEMB     50       POPC     C310     CTL2    -0.180000       12.0110           0
      6680 MEMB     50       POPC     H10X     HAL2     0.900000E-01   1.00800           0
      6681 MEMB     50       POPC     H10Y     HAL2     0.900000E-01   1.00800           0
      6682 MEMB     50       POPC     C311     CTL2    -0.180000       12.0110           0
      6683 MEMB     50       POPC     H11X     HAL2     0.900000E-01   1.00800           0
      6684 MEMB     50       POPC     H11Y     HAL2     0.900000E-01   1.00800           0
      6685 MEMB     50       POPC     C312     CTL2    -0.180000       12.0110           0
      6686 MEMB     50       POPC     H12X     HAL2     0.900000E-01   1.00800           0
      6687 MEMB     50       POPC     H12Y     HAL2     0.900000E-01   1.00800           0
      6688 MEMB     50       POPC     C313     CTL2    -0.180000       12.0110           0
      6689 MEMB     50       POPC     H13X     HAL2     0.900000E-01   1.00800           0
      6690 MEMB     50       POPC     H13Y     HAL2     0.900000E-01   1.00800           0
      6691 MEMB     50       POPC     C314     CTL2    -0.180000       12.0110           0
      6692 MEMB     50       POPC     H14X     HAL2     0.900000E-01   1.00800           0
      6693 MEMB     50       POPC     H14Y     HAL2     0.900000E-01   1.00800           0
      6694 MEMB     50       POPC     C315     CTL2    -0.180000       12.0110           0
      6695 MEMB     50       POPC     H15X     HAL2     0.900000E-01   1.00800           0
      6696 MEMB     50       POPC     H15Y     HAL2     0.900000E-01   1.00800           0
      6697 MEMB     50       POPC     C316     CTL3    -0.270000       12.0110           0
      6698 MEMB     50       POPC     H16X     HAL3     0.900000E-01   1.00800           0
      6699 MEMB     50       POPC     H16Y     HAL3     0.900000E-01   1.00800           0
      6700 MEMB     50       POPC     H16Z     HAL3     0.900000E-01   1.00800           0
      6701 MEMB     51       POPC     N        NTL     -0.600000       14.0070           0
      6702 MEMB     51       POPC     C12      CTL2    -0.100000       12.0110           0
      6703 MEMB     51       POPC     H12A     HL       0.250000       1.00800           0
      6704 MEMB     51       POPC     H12B     HL       0.250000       1.00800           0
      6705 MEMB     51       POPC     C13      CTL5    -0.350000       12.0110           0
      6706 MEMB     51       POPC     H13A     HL       0.250000       1.00800           0
      6707 MEMB     51       POPC     H13B     HL       0.250000       1.00800           0
      6708 MEMB     51       POPC     H13C     HL       0.250000       1.00800           0
      6709 MEMB     51       POPC     C14      CTL5    -0.350000       12.0110           0
      6710 MEMB     51       POPC     H14A     HL       0.250000       1.00800           0
      6711 MEMB     51       POPC     H14B     HL       0.250000       1.00800           0
      6712 MEMB     51       POPC     H14C     HL       0.250000       1.00800           0
      6713 MEMB     51       POPC     C15      CTL5    -0.350000       12.0110           0
      6714 MEMB     51       POPC     H15A     HL       0.250000       1.00800           0
      6715 MEMB     51       POPC     H15B     HL       0.250000       1.00800           0
      6716 MEMB     51       POPC     H15C     HL       0.250000       1.00800           0
      6717 MEMB     51       POPC     C11      CTL2    -0.800000E-01   12.0110           0
      6718 MEMB     51       POPC     H11A     HAL2     0.900000E-01   1.00800           0
      6719 MEMB     51       POPC     H11B     HAL2     0.900000E-01   1.00800           0
      6720 MEMB     51       POPC     P        PL       1.500000       30.9740           0
      6721 MEMB     51       POPC     O13      O2L     -0.780000       15.9994           0
      6722 MEMB     51       POPC     O14      O2L     -0.780000       15.9994           0
      6723 MEMB     51       POPC     O12      OSLP    -0.570000       15.9994           0
      6724 MEMB     51       POPC     O11      OSLP    -0.570000       15.9994           0
      6725 MEMB     51       POPC     C1       CTL2    -0.800000E-01   12.0110           0
      6726 MEMB     51       POPC     HA       HAL2     0.900000E-01   1.00800           0
      6727 MEMB     51       POPC     HB       HAL2     0.900000E-01   1.00800           0
      6728 MEMB     51       POPC     C2       CTL1     0.170000       12.0110           0
      6729 MEMB     51       POPC     HS       HAL1     0.900000E-01   1.00800           0
      6730 MEMB     51       POPC     O21      OSL     -0.490000       15.9994           0
      6731 MEMB     51       POPC     C21      CL       0.900000       12.0110           0
      6732 MEMB     51       POPC     O22      OBL     -0.630000       15.9994           0
      6733 MEMB     51       POPC     C22      CTL2    -0.220000       12.0110           0
      6734 MEMB     51       POPC     H2R      HAL2     0.900000E-01   1.00800           0
      6735 MEMB     51       POPC     H2S      HAL2     0.900000E-01   1.00800           0
      6736 MEMB     51       POPC     C3       CTL2     0.800000E-01   12.0110           0
      6737 MEMB     51       POPC     HX       HAL2     0.900000E-01   1.00800           0
      6738 MEMB     51       POPC     HY       HAL2     0.900000E-01   1.00800           0
      6739 MEMB     51       POPC     O31      OSL     -0.490000       15.9994           0
      6740 MEMB     51       POPC     C31      CL       0.900000       12.0110           0
      6741 MEMB     51       POPC     O32      OBL     -0.630000       15.9994           0
      6742 MEMB     51       POPC     C32      CTL2    -0.220000       12.0110           0
      6743 MEMB     51       POPC     H2X      HAL2     0.900000E-01   1.00800           0
      6744 MEMB     51       POPC     H2Y      HAL2     0.900000E-01   1.00800           0
      6745 MEMB     51       POPC     C23      CTL2    -0.180000       12.0110           0
      6746 MEMB     51       POPC     H3R      HAL2     0.900000E-01   1.00800           0
      6747 MEMB     51       POPC     H3S      HAL2     0.900000E-01   1.00800           0
      6748 MEMB     51       POPC     C24      CTL2    -0.180000       12.0110           0
      6749 MEMB     51       POPC     H4R      HAL2     0.900000E-01   1.00800           0
      6750 MEMB     51       POPC     H4S      HAL2     0.900000E-01   1.00800           0
      6751 MEMB     51       POPC     C25      CTL2    -0.180000       12.0110           0
      6752 MEMB     51       POPC     H5R      HAL2     0.900000E-01   1.00800           0
      6753 MEMB     51       POPC     H5S      HAL2     0.900000E-01   1.00800           0
      6754 MEMB     51       POPC     C26      CTL2    -0.180000       12.0110           0
      6755 MEMB     51       POPC     H6R      HAL2     0.900000E-01   1.00800           0
      6756 MEMB     51       POPC     H6S      HAL2     0.900000E-01   1.00800           0
      6757 MEMB     51       POPC     C27      CTL2    -0.180000       12.0110           0
      6758 MEMB     51       POPC     H7R      HAL2     0.900000E-01   1.00800           0
      6759 MEMB     51       POPC     H7S      HAL2     0.900000E-01   1.00800           0
      6760 MEMB     51       POPC     C28      CTL2    -0.180000       12.0110           0
      6761 MEMB     51       POPC     H8R      HAL2     0.900000E-01   1.00800           0
      6762 MEMB     51       POPC     H8S      HAL2     0.900000E-01   1.00800           0
      6763 MEMB     51       POPC     C29      CEL1    -0.150000       12.0110           0
      6764 MEMB     51       POPC     H91      HEL1     0.150000       1.00800           0
      6765 MEMB     51       POPC     C210     CEL1    -0.150000       12.0110           0
      6766 MEMB     51       POPC     H101     HEL1     0.150000       1.00800           0
      6767 MEMB     51       POPC     C211     CTL2    -0.180000       12.0110           0
      6768 MEMB     51       POPC     H11R     HAL2     0.900000E-01   1.00800           0
      6769 MEMB     51       POPC     H11S     HAL2     0.900000E-01   1.00800           0
      6770 MEMB     51       POPC     C212     CTL2    -0.180000       12.0110           0
      6771 MEMB     51       POPC     H12R     HAL2     0.900000E-01   1.00800           0
      6772 MEMB     51       POPC     H12S     HAL2     0.900000E-01   1.00800           0
      6773 MEMB     51       POPC     C213     CTL2    -0.180000       12.0110           0
      6774 MEMB     51       POPC     H13R     HAL2     0.900000E-01   1.00800           0
      6775 MEMB     51       POPC     H13S     HAL2     0.900000E-01   1.00800           0
      6776 MEMB     51       POPC     C214     CTL2    -0.180000       12.0110           0
      6777 MEMB     51       POPC     H14R     HAL2     0.900000E-01   1.00800           0
      6778 MEMB     51       POPC     H14S     HAL2     0.900000E-01   1.00800           0
      6779 MEMB     51       POPC     C215     CTL2    -0.180000       12.0110           0
      6780 MEMB     51       POPC     H15R     HAL2     0.900000E-01   1.00800           0
      6781 MEMB     51       POPC     H15S     HAL2     0.900000E-01   1.00800           0
      6782 MEMB     51       POPC     C216     CTL2    -0.180000       12.0110           0
      6783 MEMB     51       POPC     H16R     HAL2     0.900000E-01   1.00800           0
      6784 MEMB     51       POPC     H16S     HAL2     0.900000E-01   1.00800           0
      6785 MEMB     51       POPC     C217     CTL2    -0.180000       12.0110           0
      6786 MEMB     51       POPC     H17R     HAL2     0.900000E-01   1.00800           0
      6787 MEMB     51       POPC     H17S     HAL2     0.900000E-01   1.00800           0
      6788 MEMB     51       POPC     C218     CTL3    -0.270000       12.0110           0
      6789 MEMB     51       POPC     H18R     HAL3     0.900000E-01   1.00800           0
      6790 MEMB     51       POPC     H18S     HAL3     0.900000E-01   1.00800           0
      6791 MEMB     51       POPC     H18T     HAL3     0.900000E-01   1.00800           0
      6792 MEMB     51       POPC     C33      CTL2    -0.180000       12.0110           0
      6793 MEMB     51       POPC     H3X      HAL2     0.900000E-01   1.00800           0
      6794 MEMB     51       POPC     H3Y      HAL2     0.900000E-01   1.00800           0
      6795 MEMB     51       POPC     C34      CTL2    -0.180000       12.0110           0
      6796 MEMB     51       POPC     H4X      HAL2     0.900000E-01   1.00800           0
      6797 MEMB     51       POPC     H4Y      HAL2     0.900000E-01   1.00800           0
      6798 MEMB     51       POPC     C35      CTL2    -0.180000       12.0110           0
      6799 MEMB     51       POPC     H5X      HAL2     0.900000E-01   1.00800           0
      6800 MEMB     51       POPC     H5Y      HAL2     0.900000E-01   1.00800           0
      6801 MEMB     51       POPC     C36      CTL2    -0.180000       12.0110           0
      6802 MEMB     51       POPC     H6X      HAL2     0.900000E-01   1.00800           0
      6803 MEMB     51       POPC     H6Y      HAL2     0.900000E-01   1.00800           0
      6804 MEMB     51       POPC     C37      CTL2    -0.180000       12.0110           0
      6805 MEMB     51       POPC     H7X      HAL2     0.900000E-01   1.00800           0
      6806 MEMB     51       POPC     H7Y      HAL2     0.900000E-01   1.00800           0
      6807 MEMB     51       POPC     C38      CTL2    -0.180000       12.0110           0
      6808 MEMB     51       POPC     H8X      HAL2     0.900000E-01   1.00800           0
      6809 MEMB     51       POPC     H8Y      HAL2     0.900000E-01   1.00800           0
      6810 MEMB     51       POPC     C39      CTL2    -0.180000       12.0110           0
      6811 MEMB     51       POPC     H9X      HAL2     0.900000E-01   1.00800           0
      6812 MEMB     51       POPC     H9Y      HAL2     0.900000E-01   1.00800           0
      6813 MEMB     51       POPC     C310     CTL2    -0.180000       12.0110           0
      6814 MEMB     51       POPC     H10X     HAL2     0.900000E-01   1.00800           0
      6815 MEMB     51       POPC     H10Y     HAL2     0.900000E-01   1.00800           0
      6816 MEMB     51       POPC     C311     CTL2    -0.180000       12.0110           0
      6817 MEMB     51       POPC     H11X     HAL2     0.900000E-01   1.00800           0
      6818 MEMB     51       POPC     H11Y     HAL2     0.900000E-01   1.00800           0
      6819 MEMB     51       POPC     C312     CTL2    -0.180000       12.0110           0
      6820 MEMB     51       POPC     H12X     HAL2     0.900000E-01   1.00800           0
      6821 MEMB     51       POPC     H12Y     HAL2     0.900000E-01   1.00800           0
      6822 MEMB     51       POPC     C313     CTL2    -0.180000       12.0110           0
      6823 MEMB     51       POPC     H13X     HAL2     0.900000E-01   1.00800           0
      6824 MEMB     51       POPC     H13Y     HAL2     0.900000E-01   1.00800           0
      6825 MEMB     51       POPC     C314     CTL2    -0.180000       12.0110           0
      6826 MEMB     51       POPC     H14X     HAL2     0.900000E-01   1.00800           0
      6827 MEMB     51       POPC     H14Y     HAL2     0.900000E-01   1.00800           0
      6828 MEMB     51       POPC     C315     CTL2    -0.180000       12.0110           0
      6829 MEMB     51       POPC     H15X     HAL2     0.900000E-01   1.00800           0
      6830 MEMB     51       POPC     H15Y     HAL2     0.900000E-01   1.00800           0
      6831 MEMB     51       POPC     C316     CTL3    -0.270000       12.0110           0
      6832 MEMB     51       POPC     H16X     HAL3     0.900000E-01   1.00800           0
      6833 MEMB     51       POPC     H16Y     HAL3     0.900000E-01   1.00800           0
      6834 MEMB     51       POPC     H16Z     HAL3     0.900000E-01   1.00800           0
      6835 MEMB     52       POPC     N        NTL     -0.600000       14.0070           0
      6836 MEMB     52       POPC     C12      CTL2    -0.100000       12.0110           0
      6837 MEMB     52       POPC     H12A     HL       0.250000       1.00800           0
      6838 MEMB     52       POPC     H12B     HL       0.250000       1.00800           0
      6839 MEMB     52       POPC     C13      CTL5    -0.350000       12.0110           0
      6840 MEMB     52       POPC     H13A     HL       0.250000       1.00800           0
      6841 MEMB     52       POPC     H13B     HL       0.250000       1.00800           0
      6842 MEMB     52       POPC     H13C     HL       0.250000       1.00800           0
      6843 MEMB     52       POPC     C14      CTL5    -0.350000       12.0110           0
      6844 MEMB     52       POPC     H14A     HL       0.250000       1.00800           0
      6845 MEMB     52       POPC     H14B     HL       0.250000       1.00800           0
      6846 MEMB     52       POPC     H14C     HL       0.250000       1.00800           0
      6847 MEMB     52       POPC     C15      CTL5    -0.350000       12.0110           0
      6848 MEMB     52       POPC     H15A     HL       0.250000       1.00800           0
      6849 MEMB     52       POPC     H15B     HL       0.250000       1.00800           0
      6850 MEMB     52       POPC     H15C     HL       0.250000       1.00800           0
      6851 MEMB     52       POPC     C11      CTL2    -0.800000E-01   12.0110           0
      6852 MEMB     52       POPC     H11A     HAL2     0.900000E-01   1.00800           0
      6853 MEMB     52       POPC     H11B     HAL2     0.900000E-01   1.00800           0
      6854 MEMB     52       POPC     P        PL       1.500000       30.9740           0
      6855 MEMB     52       POPC     O13      O2L     -0.780000       15.9994           0
      6856 MEMB     52       POPC     O14      O2L     -0.780000       15.9994           0
      6857 MEMB     52       POPC     O12      OSLP    -0.570000       15.9994           0
      6858 MEMB     52       POPC     O11      OSLP    -0.570000       15.9994           0
      6859 MEMB     52       POPC     C1       CTL2    -0.800000E-01   12.0110           0
      6860 MEMB     52       POPC     HA       HAL2     0.900000E-01   1.00800           0
      6861 MEMB     52       POPC     HB       HAL2     0.900000E-01   1.00800           0
      6862 MEMB     52       POPC     C2       CTL1     0.170000       12.0110           0
      6863 MEMB     52       POPC     HS       HAL1     0.900000E-01   1.00800           0
      6864 MEMB     52       POPC     O21      OSL     -0.490000       15.9994           0
      6865 MEMB     52       POPC     C21      CL       0.900000       12.0110           0
      6866 MEMB     52       POPC     O22      OBL     -0.630000       15.9994           0
      6867 MEMB     52       POPC     C22      CTL2    -0.220000       12.0110           0
      6868 MEMB     52       POPC     H2R      HAL2     0.900000E-01   1.00800           0
      6869 MEMB     52       POPC     H2S      HAL2     0.900000E-01   1.00800           0
      6870 MEMB     52       POPC     C3       CTL2     0.800000E-01   12.0110           0
      6871 MEMB     52       POPC     HX       HAL2     0.900000E-01   1.00800           0
      6872 MEMB     52       POPC     HY       HAL2     0.900000E-01   1.00800           0
      6873 MEMB     52       POPC     O31      OSL     -0.490000       15.9994           0
      6874 MEMB     52       POPC     C31      CL       0.900000       12.0110           0
      6875 MEMB     52       POPC     O32      OBL     -0.630000       15.9994           0
      6876 MEMB     52       POPC     C32      CTL2    -0.220000       12.0110           0
      6877 MEMB     52       POPC     H2X      HAL2     0.900000E-01   1.00800           0
      6878 MEMB     52       POPC     H2Y      HAL2     0.900000E-01   1.00800           0
      6879 MEMB     52       POPC     C23      CTL2    -0.180000       12.0110           0
      6880 MEMB     52       POPC     H3R      HAL2     0.900000E-01   1.00800           0
      6881 MEMB     52       POPC     H3S      HAL2     0.900000E-01   1.00800           0
      6882 MEMB     52       POPC     C24      CTL2    -0.180000       12.0110           0
      6883 MEMB     52       POPC     H4R      HAL2     0.900000E-01   1.00800           0
      6884 MEMB     52       POPC     H4S      HAL2     0.900000E-01   1.00800           0
      6885 MEMB     52       POPC     C25      CTL2    -0.180000       12.0110           0
      6886 MEMB     52       POPC     H5R      HAL2     0.900000E-01   1.00800           0
      6887 MEMB     52       POPC     H5S      HAL2     0.900000E-01   1.00800           0
      6888 MEMB     52       POPC     C26      CTL2    -0.180000       12.0110           0
      6889 MEMB     52       POPC     H6R      HAL2     0.900000E-01   1.00800           0
      6890 MEMB     52       POPC     H6S      HAL2     0.900000E-01   1.00800           0
      6891 MEMB     52       POPC     C27      CTL2    -0.180000       12.0110           0
      6892 MEMB     52       POPC     H7R      HAL2     0.900000E-01   1.00800           0
      6893 MEMB     52       POPC     H7S      HAL2     0.900000E-01   1.00800           0
      6894 MEMB     52       POPC     C28      CTL2    -0.180000       12.0110           0
      6895 MEMB     52       POPC     H8R      HAL2     0.900000E-01   1.00800           0
      6896 MEMB     52       POPC     H8S      HAL2     0.900000E-01   1.00800           0
      6897 MEMB     52       POPC     C29      CEL1    -0.150000       12.0110           0
      6898 MEMB     52       POPC     H91      HEL1     0.150000       1.00800           0
      6899 MEMB     52       POPC     C210     CEL1    -0.150000       12.0110           0
      6900 MEMB     52       POPC     H101     HEL1     0.150000       1.00800           0
      6901 MEMB     52       POPC     C211     CTL2    -0.180000       12.0110           0
      6902 MEMB     52       POPC     H11R     HAL2     0.900000E-01   1.00800           0
      6903 MEMB     52       POPC     H11S     HAL2     0.900000E-01   1.00800           0
      6904 MEMB     52       POPC     C212     CTL2    -0.180000       12.0110           0
      6905 MEMB     52       POPC     H12R     HAL2     0.900000E-01   1.00800           0
      6906 MEMB     52       POPC     H12S     HAL2     0.900000E-01   1.00800           0
      6907 MEMB     52       POPC     C213     CTL2    -0.180000       12.0110           0
      6908 MEMB     52       POPC     H13R     HAL2     0.900000E-01   1.00800           0
      6909 MEMB     52       POPC     H13S     HAL2     0.900000E-01   1.00800           0
      6910 MEMB     52       POPC     C214     CTL2    -0.180000       12.0110           0
      6911 MEMB     52       POPC     H14R     HAL2     0.900000E-01   1.00800           0
      6912 MEMB     52       POPC     H14S     HAL2     0.900000E-01   1.00800           0
      6913 MEMB     52       POPC     C215     CTL2    -0.180000       12.0110           0
      6914 MEMB     52       POPC     H15R     HAL2     0.900000E-01   1.00800           0
      6915 MEMB     52       POPC     H15S     HAL2     0.900000E-01   1.00800           0
      6916 MEMB     52       POPC     C216     CTL2    -0.180000       12.0110           0
      6917 MEMB     52       POPC     H16R     HAL2     0.900000E-01   1.00800           0
      6918 MEMB     52       POPC     H16S     HAL2     0.900000E-01   1.00800           0
      6919 MEMB     52       POPC     C217     CTL2    -0.180000       12.0110           0
      6920 MEMB     52       POPC     H17R     HAL2     0.900000E-01   1.00800           0
      6921 MEMB     52       POPC     H17S     HAL2     0.900000E-01   1.00800           0
      6922 MEMB     52       POPC     C218     CTL3    -0.270000       12.0110           0
      6923 MEMB     52       POPC     H18R     HAL3     0.900000E-01   1.00800           0
      6924 MEMB     52       POPC     H18S     HAL3     0.900000E-01   1.00800           0
      6925 MEMB     52       POPC     H18T     HAL3     0.900000E-01   1.00800           0
      6926 MEMB     52       POPC     C33      CTL2    -0.180000       12.0110           0
      6927 MEMB     52       POPC     H3X      HAL2     0.900000E-01   1.00800           0
      6928 MEMB     52       POPC     H3Y      HAL2     0.900000E-01   1.00800           0
      6929 MEMB     52       POPC     C34      CTL2    -0.180000       12.0110           0
      6930 MEMB     52       POPC     H4X      HAL2     0.900000E-01   1.00800           0
      6931 MEMB     52       POPC     H4Y      HAL2     0.900000E-01   1.00800           0
      6932 MEMB     52       POPC     C35      CTL2    -0.180000       12.0110           0
      6933 MEMB     52       POPC     H5X      HAL2     0.900000E-01   1.00800           0
      6934 MEMB     52       POPC     H5Y      HAL2     0.900000E-01   1.00800           0
      6935 MEMB     52       POPC     C36      CTL2    -0.180000       12.0110           0
      6936 MEMB     52       POPC     H6X      HAL2     0.900000E-01   1.00800           0
      6937 MEMB     52       POPC     H6Y      HAL2     0.900000E-01   1.00800           0
      6938 MEMB     52       POPC     C37      CTL2    -0.180000       12.0110           0
      6939 MEMB     52       POPC     H7X      HAL2     0.900000E-01   1.00800           0
      6940 MEMB     52       POPC     H7Y      HAL2     0.900000E-01   1.00800           0
      6941 MEMB     52       POPC     C38      CTL2    -0.180000       12.0110           0
      6942 MEMB     52       POPC     H8X      HAL2     0.900000E-01   1.00800           0
      6943 MEMB     52       POPC     H8Y      HAL2     0.900000E-01   1.00800           0
      6944 MEMB     52       POPC     C39      CTL2    -0.180000       12.0110           0
      6945 MEMB     52       POPC     H9X      HAL2     0.900000E-01   1.00800           0
      6946 MEMB     52       POPC     H9Y      HAL2     0.900000E-01   1.00800           0
      6947 MEMB     52       POPC     C310     CTL2    -0.180000       12.0110           0
      6948 MEMB     52       POPC     H10X     HAL2     0.900000E-01   1.00800           0
      6949 MEMB     52       POPC     H10Y     HAL2     0.900000E-01   1.00800           0
      6950 MEMB     52       POPC     C311     CTL2    -0.180000       12.0110           0
      6951 MEMB     52       POPC     H11X     HAL2     0.900000E-01   1.00800           0
      6952 MEMB     52       POPC     H11Y     HAL2     0.900000E-01   1.00800           0
      6953 MEMB     52       POPC     C312     CTL2    -0.180000       12.0110           0
      6954 MEMB     52       POPC     H12X     HAL2     0.900000E-01   1.00800           0
      6955 MEMB     52       POPC     H12Y     HAL2     0.900000E-01   1.00800           0
      6956 MEMB     52       POPC     C313     CTL2    -0.180000       12.0110           0
      6957 MEMB     52       POPC     H13X     HAL2     0.900000E-01   1.00800           0
      6958 MEMB     52       POPC     H13Y     HAL2     0.900000E-01   1.00800           0
      6959 MEMB     52       POPC     C314     CTL2    -0.180000       12.0110           0
      6960 MEMB     52       POPC     H14X     HAL2     0.900000E-01   1.00800           0
      6961 MEMB     52       POPC     H14Y     HAL2     0.900000E-01   1.00800           0
      6962 MEMB     52       POPC     C315     CTL2    -0.180000       12.0110           0
      6963 MEMB     52       POPC     H15X     HAL2     0.900000E-01   1.00800           0
      6964 MEMB     52       POPC     H15Y     HAL2     0.900000E-01   1.00800           0
      6965 MEMB     52       POPC     C316     CTL3    -0.270000       12.0110           0
      6966 MEMB     52       POPC     H16X     HAL3     0.900000E-01   1.00800           0
      6967 MEMB     52       POPC     H16Y     HAL3     0.900000E-01   1.00800           0
      6968 MEMB     52       POPC     H16Z     HAL3     0.900000E-01   1.00800           0
      6969 MEMB     53       POPC     N        NTL     -0.600000       14.0070           0
      6970 MEMB     53       POPC     C12      CTL2    -0.100000       12.0110           0
      6971 MEMB     53       POPC     H12A     HL       0.250000       1.00800           0
      6972 MEMB     53       POPC     H12B     HL       0.250000       1.00800           0
      6973 MEMB     53       POPC     C13      CTL5    -0.350000       12.0110           0
      6974 MEMB     53       POPC     H13A     HL       0.250000       1.00800           0
      6975 MEMB     53       POPC     H13B     HL       0.250000       1.00800           0
      6976 MEMB     53       POPC     H13C     HL       0.250000       1.00800           0
      6977 MEMB     53       POPC     C14      CTL5    -0.350000       12.0110           0
      6978 MEMB     53       POPC     H14A     HL       0.250000       1.00800           0
      6979 MEMB     53       POPC     H14B     HL       0.250000       1.00800           0
      6980 MEMB     53       POPC     H14C     HL       0.250000       1.00800           0
      6981 MEMB     53       POPC     C15      CTL5    -0.350000       12.0110           0
      6982 MEMB     53       POPC     H15A     HL       0.250000       1.00800           0
      6983 MEMB     53       POPC     H15B     HL       0.250000       1.00800           0
      6984 MEMB     53       POPC     H15C     HL       0.250000       1.00800           0
      6985 MEMB     53       POPC     C11      CTL2    -0.800000E-01   12.0110           0
      6986 MEMB     53       POPC     H11A     HAL2     0.900000E-01   1.00800           0
      6987 MEMB     53       POPC     H11B     HAL2     0.900000E-01   1.00800           0
      6988 MEMB     53       POPC     P        PL       1.500000       30.9740           0
      6989 MEMB     53       POPC     O13      O2L     -0.780000       15.9994           0
      6990 MEMB     53       POPC     O14      O2L     -0.780000       15.9994           0
      6991 MEMB     53       POPC     O12      OSLP    -0.570000       15.9994           0
      6992 MEMB     53       POPC     O11      OSLP    -0.570000       15.9994           0
      6993 MEMB     53       POPC     C1       CTL2    -0.800000E-01   12.0110           0
      6994 MEMB     53       POPC     HA       HAL2     0.900000E-01   1.00800           0
      6995 MEMB     53       POPC     HB       HAL2     0.900000E-01   1.00800           0
      6996 MEMB     53       POPC     C2       CTL1     0.170000       12.0110           0
      6997 MEMB     53       POPC     HS       HAL1     0.900000E-01   1.00800           0
      6998 MEMB     53       POPC     O21      OSL     -0.490000       15.9994           0
      6999 MEMB     53       POPC     C21      CL       0.900000       12.0110           0
      7000 MEMB     53       POPC     O22      OBL     -0.630000       15.9994           0
      7001 MEMB     53       POPC     C22      CTL2    -0.220000       12.0110           0
      7002 MEMB     53       POPC     H2R      HAL2     0.900000E-01   1.00800           0
      7003 MEMB     53       POPC     H2S      HAL2     0.900000E-01   1.00800           0
      7004 MEMB     53       POPC     C3       CTL2     0.800000E-01   12.0110           0
      7005 MEMB     53       POPC     HX       HAL2     0.900000E-01   1.00800           0
      7006 MEMB     53       POPC     HY       HAL2     0.900000E-01   1.00800           0
      7007 MEMB     53       POPC     O31      OSL     -0.490000       15.9994           0
      7008 MEMB     53       POPC     C31      CL       0.900000       12.0110           0
      7009 MEMB     53       POPC     O32      OBL     -0.630000       15.9994           0
      7010 MEMB     53       POPC     C32      CTL2    -0.220000       12.0110           0
      7011 MEMB     53       POPC     H2X      HAL2     0.900000E-01   1.00800           0
      7012 MEMB     53       POPC     H2Y      HAL2     0.900000E-01   1.00800           0
      7013 MEMB     53       POPC     C23      CTL2    -0.180000       12.0110           0
      7014 MEMB     53       POPC     H3R      HAL2     0.900000E-01   1.00800           0
      7015 MEMB     53       POPC     H3S      HAL2     0.900000E-01   1.00800           0
      7016 MEMB     53       POPC     C24      CTL2    -0.180000       12.0110           0
      7017 MEMB     53       POPC     H4R      HAL2     0.900000E-01   1.00800           0
      7018 MEMB     53       POPC     H4S      HAL2     0.900000E-01   1.00800           0
      7019 MEMB     53       POPC     C25      CTL2    -0.180000       12.0110           0
      7020 MEMB     53       POPC     H5R      HAL2     0.900000E-01   1.00800           0
      7021 MEMB     53       POPC     H5S      HAL2     0.900000E-01   1.00800           0
      7022 MEMB     53       POPC     C26      CTL2    -0.180000       12.0110           0
      7023 MEMB     53       POPC     H6R      HAL2     0.900000E-01   1.00800           0
      7024 MEMB     53       POPC     H6S      HAL2     0.900000E-01   1.00800           0
      7025 MEMB     53       POPC     C27      CTL2    -0.180000       12.0110           0
      7026 MEMB     53       POPC     H7R      HAL2     0.900000E-01   1.00800           0
      7027 MEMB     53       POPC     H7S      HAL2     0.900000E-01   1.00800           0
      7028 MEMB     53       POPC     C28      CTL2    -0.180000       12.0110           0
      7029 MEMB     53       POPC     H8R      HAL2     0.900000E-01   1.00800           0
      7030 MEMB     53       POPC     H8S      HAL2     0.900000E-01   1.00800           0
      7031 MEMB     53       POPC     C29      CEL1    -0.150000       12.0110           0
      7032 MEMB     53       POPC     H91      HEL1     0.150000       1.00800           0
      7033 MEMB     53       POPC     C210     CEL1    -0.150000       12.0110           0
      7034 MEMB     53       POPC     H101     HEL1     0.150000       1.00800           0
      7035 MEMB     53       POPC     C211     CTL2    -0.180000       12.0110           0
      7036 MEMB     53       POPC     H11R     HAL2     0.900000E-01   1.00800           0
      7037 MEMB     53       POPC     H11S     HAL2     0.900000E-01   1.00800           0
      7038 MEMB     53       POPC     C212     CTL2    -0.180000       12.0110           0
      7039 MEMB     53       POPC     H12R     HAL2     0.900000E-01   1.00800           0
      7040 MEMB     53       POPC     H12S     HAL2     0.900000E-01   1.00800           0
      7041 MEMB     53       POPC     C213     CTL2    -0.180000       12.0110           0
      7042 MEMB     53       POPC     H13R     HAL2     0.900000E-01   1.00800           0
      7043 MEMB     53       POPC     H13S     HAL2     0.900000E-01   1.00800           0
      7044 MEMB     53       POPC     C214     CTL2    -0.180000       12.0110           0
      7045 MEMB     53       POPC     H14R     HAL2     0.900000E-01   1.00800           0
      7046 MEMB     53       POPC     H14S     HAL2     0.900000E-01   1.00800           0
      7047 MEMB     53       POPC     C215     CTL2    -0.180000       12.0110           0
      7048 MEMB     53       POPC     H15R     HAL2     0.900000E-01   1.00800           0
      7049 MEMB     53       POPC     H15S     HAL2     0.900000E-01   1.00800           0
      7050 MEMB     53       POPC     C216     CTL2    -0.180000       12.0110           0
      7051 MEMB     53       POPC     H16R     HAL2     0.900000E-01   1.00800           0
      7052 MEMB     53       POPC     H16S     HAL2     0.900000E-01   1.00800           0
      7053 MEMB     53       POPC     C217     CTL2    -0.180000       12.0110           0
      7054 MEMB     53       POPC     H17R     HAL2     0.900000E-01   1.00800           0
      7055 MEMB     53       POPC     H17S     HAL2     0.900000E-01   1.00800           0
      7056 MEMB     53       POPC     C218     CTL3    -0.270000       12.0110           0
      7057 MEMB     53       POPC     H18R     HAL3     0.900000E-01   1.00800           0
      7058 MEMB     53       POPC     H18S     HAL3     0.900000E-01   1.00800           0
      7059 MEMB     53       POPC     H18T     HAL3     0.900000E-01   1.00800           0
      7060 MEMB     53       POPC     C33      CTL2    -0.180000       12.0110           0
      7061 MEMB     53       POPC     H3X      HAL2     0.900000E-01   1.00800           0
      7062 MEMB     53       POPC     H3Y      HAL2     0.900000E-01   1.00800           0
      7063 MEMB     53       POPC     C34      CTL2    -0.180000       12.0110           0
      7064 MEMB     53       POPC     H4X      HAL2     0.900000E-01   1.00800           0
      7065 MEMB     53       POPC     H4Y      HAL2     0.900000E-01   1.00800           0
      7066 MEMB     53       POPC     C35      CTL2    -0.180000       12.0110           0
      7067 MEMB     53       POPC     H5X      HAL2     0.900000E-01   1.00800           0
      7068 MEMB     53       POPC     H5Y      HAL2     0.900000E-01   1.00800           0
      7069 MEMB     53       POPC     C36      CTL2    -0.180000       12.0110           0
      7070 MEMB     53       POPC     H6X      HAL2     0.900000E-01   1.00800           0
      7071 MEMB     53       POPC     H6Y      HAL2     0.900000E-01   1.00800           0
      7072 MEMB     53       POPC     C37      CTL2    -0.180000       12.0110           0
      7073 MEMB     53       POPC     H7X      HAL2     0.900000E-01   1.00800           0
      7074 MEMB     53       POPC     H7Y      HAL2     0.900000E-01   1.00800           0
      7075 MEMB     53       POPC     C38      CTL2    -0.180000       12.0110           0
      7076 MEMB     53       POPC     H8X      HAL2     0.900000E-01   1.00800           0
      7077 MEMB     53       POPC     H8Y      HAL2     0.900000E-01   1.00800           0
      7078 MEMB     53       POPC     C39      CTL2    -0.180000       12.0110           0
      7079 MEMB     53       POPC     H9X      HAL2     0.900000E-01   1.00800           0
      7080 MEMB     53       POPC     H9Y      HAL2     0.900000E-01   1.00800           0
      7081 MEMB     53       POPC     C310     CTL2    -0.180000       12.0110           0
      7082 MEMB     53       POPC     H10X     HAL2     0.900000E-01   1.00800           0
      7083 MEMB     53       POPC     H10Y     HAL2     0.900000E-01   1.00800           0
      7084 MEMB     53       POPC     C311     CTL2    -0.180000       12.0110           0
      7085 MEMB     53       POPC     H11X     HAL2     0.900000E-01   1.00800           0
      7086 MEMB     53       POPC     H11Y     HAL2     0.900000E-01   1.00800           0
      7087 MEMB     53       POPC     C312     CTL2    -0.180000       12.0110           0
      7088 MEMB     53       POPC     H12X     HAL2     0.900000E-01   1.00800           0
      7089 MEMB     53       POPC     H12Y     HAL2     0.900000E-01   1.00800           0
      7090 MEMB     53       POPC     C313     CTL2    -0.180000       12.0110           0
      7091 MEMB     53       POPC     H13X     HAL2     0.900000E-01   1.00800           0
      7092 MEMB     53       POPC     H13Y     HAL2     0.900000E-01   1.00800           0
      7093 MEMB     53       POPC     C314     CTL2    -0.180000       12.0110           0
      7094 MEMB     53       POPC     H14X     HAL2     0.900000E-01   1.00800           0
      7095 MEMB     53       POPC     H14Y     HAL2     0.900000E-01   1.00800           0
      7096 MEMB     53       POPC     C315     CTL2    -0.180000       12.0110           0
      7097 MEMB     53       POPC     H15X     HAL2     0.900000E-01   1.00800           0
      7098 MEMB     53       POPC     H15Y     HAL2     0.900000E-01   1.00800           0
      7099 MEMB     53       POPC     C316     CTL3    -0.270000       12.0110           0
      7100 MEMB     53       POPC     H16X     HAL3     0.900000E-01   1.00800           0
      7101 MEMB     53       POPC     H16Y     HAL3     0.900000E-01   1.00800           0
      7102 MEMB     53       POPC     H16Z     HAL3     0.900000E-01   1.00800           0
      7103 MEMB     54       POPC     N        NTL     -0.600000       14.0070           0
      7104 MEMB     54       POPC     C12      CTL2    -0.100000       12.0110           0
      7105 MEMB     54       POPC     H12A     HL       0.250000       1.00800           0
      7106 MEMB     54       POPC     H12B     HL       0.250000       1.00800           0
      7107 MEMB     54       POPC     C13      CTL5    -0.350000       12.0110           0
      7108 MEMB     54       POPC     H13A     HL       0.250000       1.00800           0
      7109 MEMB     54       POPC     H13B     HL       0.250000       1.00800           0
      7110 MEMB     54       POPC     H13C     HL       0.250000       1.00800           0
      7111 MEMB     54       POPC     C14      CTL5    -0.350000       12.0110           0
      7112 MEMB     54       POPC     H14A     HL       0.250000       1.00800           0
      7113 MEMB     54       POPC     H14B     HL       0.250000       1.00800           0
      7114 MEMB     54       POPC     H14C     HL       0.250000       1.00800           0
      7115 MEMB     54       POPC     C15      CTL5    -0.350000       12.0110           0
      7116 MEMB     54       POPC     H15A     HL       0.250000       1.00800           0
      7117 MEMB     54       POPC     H15B     HL       0.250000       1.00800           0
      7118 MEMB     54       POPC     H15C     HL       0.250000       1.00800           0
      7119 MEMB     54       POPC     C11      CTL2    -0.800000E-01   12.0110           0
      7120 MEMB     54       POPC     H11A     HAL2     0.900000E-01   1.00800           0
      7121 MEMB     54       POPC     H11B     HAL2     0.900000E-01   1.00800           0
      7122 MEMB     54       POPC     P        PL       1.500000       30.9740           0
      7123 MEMB     54       POPC     O13      O2L     -0.780000       15.9994           0
      7124 MEMB     54       POPC     O14      O2L     -0.780000       15.9994           0
      7125 MEMB     54       POPC     O12      OSLP    -0.570000       15.9994           0
      7126 MEMB     54       POPC     O11      OSLP    -0.570000       15.9994           0
      7127 MEMB     54       POPC     C1       CTL2    -0.800000E-01   12.0110           0
      7128 MEMB     54       POPC     HA       HAL2     0.900000E-01   1.00800           0
      7129 MEMB     54       POPC     HB       HAL2     0.900000E-01   1.00800           0
      7130 MEMB     54       POPC     C2       CTL1     0.170000       12.0110           0
      7131 MEMB     54       POPC     HS       HAL1     0.900000E-01   1.00800           0
      7132 MEMB     54       POPC     O21      OSL     -0.490000       15.9994           0
      7133 MEMB     54       POPC     C21      CL       0.900000       12.0110           0
      7134 MEMB     54       POPC     O22      OBL     -0.630000       15.9994           0
      7135 MEMB     54       POPC     C22      CTL2    -0.220000       12.0110           0
      7136 MEMB     54       POPC     H2R      HAL2     0.900000E-01   1.00800           0
      7137 MEMB     54       POPC     H2S      HAL2     0.900000E-01   1.00800           0
      7138 MEMB     54       POPC     C3       CTL2     0.800000E-01   12.0110           0
      7139 MEMB     54       POPC     HX       HAL2     0.900000E-01   1.00800           0
      7140 MEMB     54       POPC     HY       HAL2     0.900000E-01   1.00800           0
      7141 MEMB     54       POPC     O31      OSL     -0.490000       15.9994           0
      7142 MEMB     54       POPC     C31      CL       0.900000       12.0110           0
      7143 MEMB     54       POPC     O32      OBL     -0.630000       15.9994           0
      7144 MEMB     54       POPC     C32      CTL2    -0.220000       12.0110           0
      7145 MEMB     54       POPC     H2X      HAL2     0.900000E-01   1.00800           0
      7146 MEMB     54       POPC     H2Y      HAL2     0.900000E-01   1.00800           0
      7147 MEMB     54       POPC     C23      CTL2    -0.180000       12.0110           0
      7148 MEMB     54       POPC     H3R      HAL2     0.900000E-01   1.00800           0
      7149 MEMB     54       POPC     H3S      HAL2     0.900000E-01   1.00800           0
      7150 MEMB     54       POPC     C24      CTL2    -0.180000       12.0110           0
      7151 MEMB     54       POPC     H4R      HAL2     0.900000E-01   1.00800           0
      7152 MEMB     54       POPC     H4S      HAL2     0.900000E-01   1.00800           0
      7153 MEMB     54       POPC     C25      CTL2    -0.180000       12.0110           0
      7154 MEMB     54       POPC     H5R      HAL2     0.900000E-01   1.00800           0
      7155 MEMB     54       POPC     H5S      HAL2     0.900000E-01   1.00800           0
      7156 MEMB     54       POPC     C26      CTL2    -0.180000       12.0110           0
      7157 MEMB     54       POPC     H6R      HAL2     0.900000E-01   1.00800           0
      7158 MEMB     54       POPC     H6S      HAL2     0.900000E-01   1.00800           0
      7159 MEMB     54       POPC     C27      CTL2    -0.180000       12.0110           0
      7160 MEMB     54       POPC     H7R      HAL2     0.900000E-01   1.00800           0
      7161 MEMB     54       POPC     H7S      HAL2     0.900000E-01   1.00800           0
      7162 MEMB     54       POPC     C28      CTL2    -0.180000       12.0110           0
      7163 MEMB     54       POPC     H8R      HAL2     0.900000E-01   1.00800           0
      7164 MEMB     54       POPC     H8S      HAL2     0.900000E-01   1.00800           0
      7165 MEMB     54       POPC     C29      CEL1    -0.150000       12.0110           0
      7166 MEMB     54       POPC     H91      HEL1     0.150000       1.00800           0
      7167 MEMB     54       POPC     C210     CEL1    -0.150000       12.0110           0
      7168 MEMB     54       POPC     H101     HEL1     0.150000       1.00800           0
      7169 MEMB     54       POPC     C211     CTL2    -0.180000       12.0110           0
      7170 MEMB     54       POPC     H11R     HAL2     0.900000E-01   1.00800           0
      7171 MEMB     54       POPC     H11S     HAL2     0.900000E-01   1.00800           0
      7172 MEMB     54       POPC     C212     CTL2    -0.180000       12.0110           0
      7173 MEMB     54       POPC     H12R     HAL2     0.900000E-01   1.00800           0
      7174 MEMB     54       POPC     H12S     HAL2     0.900000E-01   1.00800           0
      7175 MEMB     54       POPC     C213     CTL2    -0.180000       12.0110           0
      7176 MEMB     54       POPC     H13R     HAL2     0.900000E-01   1.00800           0
      7177 MEMB     54       POPC     H13S     HAL2     0.900000E-01   1.00800           0
      7178 MEMB     54       POPC     C214     CTL2    -0.180000       12.0110           0
      7179 MEMB     54       POPC     H14R     HAL2     0.900000E-01   1.00800           0
      7180 MEMB     54       POPC     H14S     HAL2     0.900000E-01   1.00800           0
      7181 MEMB     54       POPC     C215     CTL2    -0.180000       12.0110           0
      7182 MEMB     54       POPC     H15R     HAL2     0.900000E-01   1.00800           0
      7183 MEMB     54       POPC     H15S     HAL2     0.900000E-01   1.00800           0
      7184 MEMB     54       POPC     C216     CTL2    -0.180000       12.0110           0
      7185 MEMB     54       POPC     H16R     HAL2     0.900000E-01   1.00800           0
      7186 MEMB     54       POPC     H16S     HAL2     0.900000E-01   1.00800           0
      7187 MEMB     54       POPC     C217     CTL2    -0.180000       12.0110           0
      7188 MEMB     54       POPC     H17R     HAL2     0.900000E-01   1.00800           0
      7189 MEMB     54       POPC     H17S     HAL2     0.900000E-01   1.00800           0
      7190 MEMB     54       POPC     C218     CTL3    -0.270000       12.0110           0
      7191 MEMB     54       POPC     H18R     HAL3     0.900000E-01   1.00800           0
      7192 MEMB     54       POPC     H18S     HAL3     0.900000E-01   1.00800           0
      7193 MEMB     54       POPC     H18T     HAL3     0.900000E-01   1.00800           0
      7194 MEMB     54       POPC     C33      CTL2    -0.180000       12.0110           0
      7195 MEMB     54       POPC     H3X      HAL2     0.900000E-01   1.00800           0
      7196 MEMB     54       POPC     H3Y      HAL2     0.900000E-01   1.00800           0
      7197 MEMB     54       POPC     C34      CTL2    -0.180000       12.0110           0
      7198 MEMB     54       POPC     H4X      HAL2     0.900000E-01   1.00800           0
      7199 MEMB     54       POPC     H4Y      HAL2     0.900000E-01   1.00800           0
      7200 MEMB     54       POPC     C35      CTL2    -0.180000       12.0110           0
      7201 MEMB     54       POPC     H5X      HAL2     0.900000E-01   1.00800           0
      7202 MEMB     54       POPC     H5Y      HAL2     0.900000E-01   1.00800           0
      7203 MEMB     54       POPC     C36      CTL2    -0.180000       12.0110           0
      7204 MEMB     54       POPC     H6X      HAL2     0.900000E-01   1.00800           0
      7205 MEMB     54       POPC     H6Y      HAL2     0.900000E-01   1.00800           0
      7206 MEMB     54       POPC     C37      CTL2    -0.180000       12.0110           0
      7207 MEMB     54       POPC     H7X      HAL2     0.900000E-01   1.00800           0
      7208 MEMB     54       POPC     H7Y      HAL2     0.900000E-01   1.00800           0
      7209 MEMB     54       POPC     C38      CTL2    -0.180000       12.0110           0
      7210 MEMB     54       POPC     H8X      HAL2     0.900000E-01   1.00800           0
      7211 MEMB     54       POPC     H8Y      HAL2     0.900000E-01   1.00800           0
      7212 MEMB     54       POPC     C39      CTL2    -0.180000       12.0110           0
      7213 MEMB     54       POPC     H9X      HAL2     0.900000E-01   1.00800           0
      7214 MEMB     54       POPC     H9Y      HAL2     0.900000E-01   1.00800           0
      7215 MEMB     54       POPC     C310     CTL2    -0.180000       12.0110           0
      7216 MEMB     54       POPC     H10X     HAL2     0.900000E-01   1.00800           0
      7217 MEMB     54       POPC     H10Y     HAL2     0.900000E-01   1.00800           0
      7218 MEMB     54       POPC     C311     CTL2    -0.180000       12.0110           0
      7219 MEMB     54       POPC     H11X     HAL2     0.900000E-01   1.00800           0
      7220 MEMB     54       POPC     H11Y     HAL2     0.900000E-01   1.00800           0
      7221 MEMB     54       POPC     C312     CTL2    -0.180000       12.0110           0
      7222 MEMB     54       POPC     H12X     HAL2     0.900000E-01   1.00800           0
      7223 MEMB     54       POPC     H12Y     HAL2     0.900000E-01   1.00800           0
      7224 MEMB     54       POPC     C313     CTL2    -0.180000       12.0110           0
      7225 MEMB     54       POPC     H13X     HAL2     0.900000E-01   1.00800           0
      7226 MEMB     54       POPC     H13Y     HAL2     0.900000E-01   1.00800           0
      7227 MEMB     54       POPC     C314     CTL2    -0.180000       12.0110           0
      7228 MEMB     54       POPC     H14X     HAL2     0.900000E-01   1.00800           0
      7229 MEMB     54       POPC     H14Y     HAL2     0.900000E-01   1.00800           0
      7230 MEMB     54       POPC     C315     CTL2    -0.180000       12.0110           0
      7231 MEMB     54       POPC     H15X     HAL2     0.900000E-01   1.00800           0
      7232 MEMB     54       POPC     H15Y     HAL2     0.900000E-01   1.00800           0
      7233 MEMB     54       POPC     C316     CTL3    -0.270000       12.0110           0
      7234 MEMB     54       POPC     H16X     HAL3     0.900000E-01   1.00800           0
      7235 MEMB     54       POPC     H16Y     HAL3     0.900000E-01   1.00800           0
      7236 MEMB     54       POPC     H16Z     HAL3     0.900000E-01   1.00800           0
      7237 MEMB     55       POPC     N        NTL     -0.600000       14.0070           0
      7238 MEMB     55       POPC     C12      CTL2    -0.100000       12.0110           0
      7239 MEMB     55       POPC     H12A     HL       0.250000       1.00800           0
      7240 MEMB     55       POPC     H12B     HL       0.250000       1.00800           0
      7241 MEMB     55       POPC     C13      CTL5    -0.350000       12.0110           0
      7242 MEMB     55       POPC     H13A     HL       0.250000       1.00800           0
      7243 MEMB     55       POPC     H13B     HL       0.250000       1.00800           0
      7244 MEMB     55       POPC     H13C     HL       0.250000       1.00800           0
      7245 MEMB     55       POPC     C14      CTL5    -0.350000       12.0110           0
      7246 MEMB     55       POPC     H14A     HL       0.250000       1.00800           0
      7247 MEMB     55       POPC     H14B     HL       0.250000       1.00800           0
      7248 MEMB     55       POPC     H14C     HL       0.250000       1.00800           0
      7249 MEMB     55       POPC     C15      CTL5    -0.350000       12.0110           0
      7250 MEMB     55       POPC     H15A     HL       0.250000       1.00800           0
      7251 MEMB     55       POPC     H15B     HL       0.250000       1.00800           0
      7252 MEMB     55       POPC     H15C     HL       0.250000       1.00800           0
      7253 MEMB     55       POPC     C11      CTL2    -0.800000E-01   12.0110           0
      7254 MEMB     55       POPC     H11A     HAL2     0.900000E-01   1.00800           0
      7255 MEMB     55       POPC     H11B     HAL2     0.900000E-01   1.00800           0
      7256 MEMB     55       POPC     P        PL       1.500000       30.9740           0
      7257 MEMB     55       POPC     O13      O2L     -0.780000       15.9994           0
      7258 MEMB     55       POPC     O14      O2L     -0.780000       15.9994           0
      7259 MEMB     55       POPC     O12      OSLP    -0.570000       15.9994           0
      7260 MEMB     55       POPC     O11      OSLP    -0.570000       15.9994           0
      7261 MEMB     55       POPC     C1       CTL2    -0.800000E-01   12.0110           0
      7262 MEMB     55       POPC     HA       HAL2     0.900000E-01   1.00800           0
      7263 MEMB     55       POPC     HB       HAL2     0.900000E-01   1.00800           0
      7264 MEMB     55       POPC     C2       CTL1     0.170000       12.0110           0
      7265 MEMB     55       POPC     HS       HAL1     0.900000E-01   1.00800           0
      7266 MEMB     55       POPC     O21      OSL     -0.490000       15.9994           0
      7267 MEMB     55       POPC     C21      CL       0.900000       12.0110           0
      7268 MEMB     55       POPC     O22      OBL     -0.630000       15.9994           0
      7269 MEMB     55       POPC     C22      CTL2    -0.220000       12.0110           0
      7270 MEMB     55       POPC     H2R      HAL2     0.900000E-01   1.00800           0
      7271 MEMB     55       POPC     H2S      HAL2     0.900000E-01   1.00800           0
      7272 MEMB     55       POPC     C3       CTL2     0.800000E-01   12.0110           0
      7273 MEMB     55       POPC     HX       HAL2     0.900000E-01   1.00800           0
      7274 MEMB     55       POPC     HY       HAL2     0.900000E-01   1.00800           0
      7275 MEMB     55       POPC     O31      OSL     -0.490000       15.9994           0
      7276 MEMB     55       POPC     C31      CL       0.900000       12.0110           0
      7277 MEMB     55       POPC     O32      OBL     -0.630000       15.9994           0
      7278 MEMB     55       POPC     C32      CTL2    -0.220000       12.0110           0
      7279 MEMB     55       POPC     H2X      HAL2     0.900000E-01   1.00800           0
      7280 MEMB     55       POPC     H2Y      HAL2     0.900000E-01   1.00800           0
      7281 MEMB     55       POPC     C23      CTL2    -0.180000       12.0110           0
      7282 MEMB     55       POPC     H3R      HAL2     0.900000E-01   1.00800           0
      7283 MEMB     55       POPC     H3S      HAL2     0.900000E-01   1.00800           0
      7284 MEMB     55       POPC     C24      CTL2    -0.180000       12.0110           0
      7285 MEMB     55       POPC     H4R      HAL2     0.900000E-01   1.00800           0
      7286 MEMB     55       POPC     H4S      HAL2     0.900000E-01   1.00800           0
      7287 MEMB     55       POPC     C25      CTL2    -0.180000       12.0110           0
      7288 MEMB     55       POPC     H5R      HAL2     0.900000E-01   1.00800           0
      7289 MEMB     55       POPC     H5S      HAL2     0.900000E-01   1.00800           0
      7290 MEMB     55       POPC     C26      CTL2    -0.180000       12.0110           0
      7291 MEMB     55       POPC     H6R      HAL2     0.900000E-01   1.00800           0
      7292 MEMB     55       POPC     H6S      HAL2     0.900000E-01   1.00800           0
      7293 MEMB     55       POPC     C27      CTL2    -0.180000       12.0110           0
      7294 MEMB     55       POPC     H7R      HAL2     0.900000E-01   1.00800           0
      7295 MEMB     55       POPC     H7S      HAL2     0.900000E-01   1.00800           0
      7296 MEMB     55       POPC     C28      CTL2    -0.180000       12.0110           0
      7297 MEMB     55       POPC     H8R      HAL2     0.900000E-01   1.00800           0
      7298 MEMB     55       POPC     H8S      HAL2     0.900000E-01   1.00800           0
      7299 MEMB     55       POPC     C29      CEL1    -0.150000       12.0110           0
      7300 MEMB     55       POPC     H91      HEL1     0.150000       1.00800           0
      7301 MEMB     55       POPC     C210     CEL1    -0.150000       12.0110           0
      7302 MEMB     55       POPC     H101     HEL1     0.150000       1.00800           0
      7303 MEMB     55       POPC     C211     CTL2    -0.180000       12.0110           0
      7304 MEMB     55       POPC     H11R     HAL2     0.900000E-01   1.00800           0
      7305 MEMB     55       POPC     H11S     HAL2     0.900000E-01   1.00800           0
      7306 MEMB     55       POPC     C212     CTL2    -0.180000       12.0110           0
      7307 MEMB     55       POPC     H12R     HAL2     0.900000E-01   1.00800           0
      7308 MEMB     55       POPC     H12S     HAL2     0.900000E-01   1.00800           0
      7309 MEMB     55       POPC     C213     CTL2    -0.180000       12.0110           0
      7310 MEMB     55       POPC     H13R     HAL2     0.900000E-01   1.00800           0
      7311 MEMB     55       POPC     H13S     HAL2     0.900000E-01   1.00800           0
      7312 MEMB     55       POPC     C214     CTL2    -0.180000       12.0110           0
      7313 MEMB     55       POPC     H14R     HAL2     0.900000E-01   1.00800           0
      7314 MEMB     55       POPC     H14S     HAL2     0.900000E-01   1.00800           0
      7315 MEMB     55       POPC     C215     CTL2    -0.180000       12.0110           0
      7316 MEMB     55       POPC     H15R     HAL2     0.900000E-01   1.00800           0
      7317 MEMB     55       POPC     H15S     HAL2     0.900000E-01   1.00800           0
      7318 MEMB     55       POPC     C216     CTL2    -0.180000       12.0110           0
      7319 MEMB     55       POPC     H16R     HAL2     0.900000E-01   1.00800           0
      7320 MEMB     55       POPC     H16S     HAL2     0.900000E-01   1.00800           0
      7321 MEMB     55       POPC     C217     CTL2    -0.180000       12.0110           0
      7322 MEMB     55       POPC     H17R     HAL2     0.900000E-01   1.00800           0
      7323 MEMB     55       POPC     H17S     HAL2     0.900000E-01   1.00800           0
      7324 MEMB     55       POPC     C218     CTL3    -0.270000       12.0110           0
      7325 MEMB     55       POPC     H18R     HAL3     0.900000E-01   1.00800           0
      7326 MEMB     55       POPC     H18S     HAL3     0.900000E-01   1.00800           0
      7327 MEMB     55       POPC     H18T     HAL3     0.900000E-01   1.00800           0
      7328 MEMB     55       POPC     C33      CTL2    -0.180000       12.0110           0
      7329 MEMB     55       POPC     H3X      HAL2     0.900000E-01   1.00800           0
      7330 MEMB     55       POPC     H3Y      HAL2     0.900000E-01   1.00800           0
      7331 MEMB     55       POPC     C34      CTL2    -0.180000       12.0110           0
      7332 MEMB     55       POPC     H4X      HAL2     0.900000E-01   1.00800           0
      7333 MEMB     55       POPC     H4Y      HAL2     0.900000E-01   1.00800           0
      7334 MEMB     55       POPC     C35      CTL2    -0.180000       12.0110           0
      7335 MEMB     55       POPC     H5X      HAL2     0.900000E-01   1.00800           0
      7336 MEMB     55       POPC     H5Y      HAL2     0.900000E-01   1.00800           0
      7337 MEMB     55       POPC     C36      CTL2    -0.180000       12.0110           0
      7338 MEMB     55       POPC     H6X      HAL2     0.900000E-01   1.00800           0
      7339 MEMB     55       POPC     H6Y      HAL2     0.900000E-01   1.00800           0
      7340 MEMB     55       POPC     C37      CTL2    -0.180000       12.0110           0
      7341 MEMB     55       POPC     H7X      HAL2     0.900000E-01   1.00800           0
      7342 MEMB     55       POPC     H7Y      HAL2     0.900000E-01   1.00800           0
      7343 MEMB     55       POPC     C38      CTL2    -0.180000       12.0110           0
      7344 MEMB     55       POPC     H8X      HAL2     0.900000E-01   1.00800           0
      7345 MEMB     55       POPC     H8Y      HAL2     0.900000E-01   1.00800           0
      7346 MEMB     55       POPC     C39      CTL2    -0.180000       12.0110           0
      7347 MEMB     55       POPC     H9X      HAL2     0.900000E-01   1.00800           0
      7348 MEMB     55       POPC     H9Y      HAL2     0.900000E-01   1.00800           0
      7349 MEMB     55       POPC     C310     CTL2    -0.180000       12.0110           0
      7350 MEMB     55       POPC     H10X     HAL2     0.900000E-01   1.00800           0
      7351 MEMB     55       POPC     H10Y     HAL2     0.900000E-01   1.00800           0
      7352 MEMB     55       POPC     C311     CTL2    -0.180000       12.0110           0
      7353 MEMB     55       POPC     H11X     HAL2     0.900000E-01   1.00800           0
      7354 MEMB     55       POPC     H11Y     HAL2     0.900000E-01   1.00800           0
      7355 MEMB     55       POPC     C312     CTL2    -0.180000       12.0110           0
      7356 MEMB     55       POPC     H12X     HAL2     0.900000E-01   1.00800           0
      7357 MEMB     55       POPC     H12Y     HAL2     0.900000E-01   1.00800           0
      7358 MEMB     55       POPC     C313     CTL2    -0.180000       12.0110           0
      7359 MEMB     55       POPC     H13X     HAL2     0.900000E-01   1.00800           0
      7360 MEMB     55       POPC     H13Y     HAL2     0.900000E-01   1.00800           0
      7361 MEMB     55       POPC     C314     CTL2    -0.180000       12.0110           0
      7362 MEMB     55       POPC     H14X     HAL2     0.900000E-01   1.00800           0
      7363 MEMB     55       POPC     H14Y     HAL2     0.900000E-01   1.00800           0
      7364 MEMB     55       POPC     C315     CTL2    -0.180000       12.0110           0
      7365 MEMB     55       POPC     H15X     HAL2     0.900000E-01   1.00800           0
      7366 MEMB     55       POPC     H15Y     HAL2     0.900000E-01   1.00800           0
      7367 MEMB     55       POPC     C316     CTL3    -0.270000       12.0110           0
      7368 MEMB     55       POPC     H16X     HAL3     0.900000E-01   1.00800           0
      7369 MEMB     55       POPC     H16Y     HAL3     0.900000E-01   1.00800           0
      7370 MEMB     55       POPC     H16Z     HAL3     0.900000E-01   1.00800           0
      7371 MEMB     56       POPC     N        NTL     -0.600000       14.0070           0
      7372 MEMB     56       POPC     C12      CTL2    -0.100000       12.0110           0
      7373 MEMB     56       POPC     H12A     HL       0.250000       1.00800           0
      7374 MEMB     56       POPC     H12B     HL       0.250000       1.00800           0
      7375 MEMB     56       POPC     C13      CTL5    -0.350000       12.0110           0
      7376 MEMB     56       POPC     H13A     HL       0.250000       1.00800           0
      7377 MEMB     56       POPC     H13B     HL       0.250000       1.00800           0
      7378 MEMB     56       POPC     H13C     HL       0.250000       1.00800           0
      7379 MEMB     56       POPC     C14      CTL5    -0.350000       12.0110           0
      7380 MEMB     56       POPC     H14A     HL       0.250000       1.00800           0
      7381 MEMB     56       POPC     H14B     HL       0.250000       1.00800           0
      7382 MEMB     56       POPC     H14C     HL       0.250000       1.00800           0
      7383 MEMB     56       POPC     C15      CTL5    -0.350000       12.0110           0
      7384 MEMB     56       POPC     H15A     HL       0.250000       1.00800           0
      7385 MEMB     56       POPC     H15B     HL       0.250000       1.00800           0
      7386 MEMB     56       POPC     H15C     HL       0.250000       1.00800           0
      7387 MEMB     56       POPC     C11      CTL2    -0.800000E-01   12.0110           0
      7388 MEMB     56       POPC     H11A     HAL2     0.900000E-01   1.00800           0
      7389 MEMB     56       POPC     H11B     HAL2     0.900000E-01   1.00800           0
      7390 MEMB     56       POPC     P        PL       1.500000       30.9740           0
      7391 MEMB     56       POPC     O13      O2L     -0.780000       15.9994           0
      7392 MEMB     56       POPC     O14      O2L     -0.780000       15.9994           0
      7393 MEMB     56       POPC     O12      OSLP    -0.570000       15.9994           0
      7394 MEMB     56       POPC     O11      OSLP    -0.570000       15.9994           0
      7395 MEMB     56       POPC     C1       CTL2    -0.800000E-01   12.0110           0
      7396 MEMB     56       POPC     HA       HAL2     0.900000E-01   1.00800           0
      7397 MEMB     56       POPC     HB       HAL2     0.900000E-01   1.00800           0
      7398 MEMB     56       POPC     C2       CTL1     0.170000       12.0110           0
      7399 MEMB     56       POPC     HS       HAL1     0.900000E-01   1.00800           0
      7400 MEMB     56       POPC     O21      OSL     -0.490000       15.9994           0
      7401 MEMB     56       POPC     C21      CL       0.900000       12.0110           0
      7402 MEMB     56       POPC     O22      OBL     -0.630000       15.9994           0
      7403 MEMB     56       POPC     C22      CTL2    -0.220000       12.0110           0
      7404 MEMB     56       POPC     H2R      HAL2     0.900000E-01   1.00800           0
      7405 MEMB     56       POPC     H2S      HAL2     0.900000E-01   1.00800           0
      7406 MEMB     56       POPC     C3       CTL2     0.800000E-01   12.0110           0
      7407 MEMB     56       POPC     HX       HAL2     0.900000E-01   1.00800           0
      7408 MEMB     56       POPC     HY       HAL2     0.900000E-01   1.00800           0
      7409 MEMB     56       POPC     O31      OSL     -0.490000       15.9994           0
      7410 MEMB     56       POPC     C31      CL       0.900000       12.0110           0
      7411 MEMB     56       POPC     O32      OBL     -0.630000       15.9994           0
      7412 MEMB     56       POPC     C32      CTL2    -0.220000       12.0110           0
      7413 MEMB     56       POPC     H2X      HAL2     0.900000E-01   1.00800           0
      7414 MEMB     56       POPC     H2Y      HAL2     0.900000E-01   1.00800           0
      7415 MEMB     56       POPC     C23      CTL2    -0.180000       12.0110           0
      7416 MEMB     56       POPC     H3R      HAL2     0.900000E-01   1.00800           0
      7417 MEMB     56       POPC     H3S      HAL2     0.900000E-01   1.00800           0
      7418 MEMB     56       POPC     C24      CTL2    -0.180000       12.0110           0
      7419 MEMB     56       POPC     H4R      HAL2     0.900000E-01   1.00800           0
      7420 MEMB     56       POPC     H4S      HAL2     0.900000E-01   1.00800           0
      7421 MEMB     56       POPC     C25      CTL2    -0.180000       12.0110           0
      7422 MEMB     56       POPC     H5R      HAL2     0.900000E-01   1.00800           0
      7423 MEMB     56       POPC     H5S      HAL2     0.900000E-01   1.00800           0
      7424 MEMB     56       POPC     C26      CTL2    -0.180000       12.0110           0
      7425 MEMB     56       POPC     H6R      HAL2     0.900000E-01   1.00800           0
      7426 MEMB     56       POPC     H6S      HAL2     0.900000E-01   1.00800           0
      7427 MEMB     56       POPC     C27      CTL2    -0.180000       12.0110           0
      7428 MEMB     56       POPC     H7R      HAL2     0.900000E-01   1.00800           0
      7429 MEMB     56       POPC     H7S      HAL2     0.900000E-01   1.00800           0
      7430 MEMB     56       POPC     C28      CTL2    -0.180000       12.0110           0
      7431 MEMB     56       POPC     H8R      HAL2     0.900000E-01   1.00800           0
      7432 MEMB     56       POPC     H8S      HAL2     0.900000E-01   1.00800           0
      7433 MEMB     56       POPC     C29      CEL1    -0.150000       12.0110           0
      7434 MEMB     56       POPC     H91      HEL1     0.150000       1.00800           0
      7435 MEMB     56       POPC     C210     CEL1    -0.150000       12.0110           0
      7436 MEMB     56       POPC     H101     HEL1     0.150000       1.00800           0
      7437 MEMB     56       POPC     C211     CTL2    -0.180000       12.0110           0
      7438 MEMB     56       POPC     H11R     HAL2     0.900000E-01   1.00800           0
      7439 MEMB     56       POPC     H11S     HAL2     0.900000E-01   1.00800           0
      7440 MEMB     56       POPC     C212     CTL2    -0.180000       12.0110           0
      7441 MEMB     56       POPC     H12R     HAL2     0.900000E-01   1.00800           0
      7442 MEMB     56       POPC     H12S     HAL2     0.900000E-01   1.00800           0
      7443 MEMB     56       POPC     C213     CTL2    -0.180000       12.0110           0
      7444 MEMB     56       POPC     H13R     HAL2     0.900000E-01   1.00800           0
      7445 MEMB     56       POPC     H13S     HAL2     0.900000E-01   1.00800           0
      7446 MEMB     56       POPC     C214     CTL2    -0.180000       12.0110           0
      7447 MEMB     56       POPC     H14R     HAL2     0.900000E-01   1.00800           0
      7448 MEMB     56       POPC     H14S     HAL2     0.900000E-01   1.00800           0
      7449 MEMB     56       POPC     C215     CTL2    -0.180000       12.0110           0
      7450 MEMB     56       POPC     H15R     HAL2     0.900000E-01   1.00800           0
      7451 MEMB     56       POPC     H15S     HAL2     0.900000E-01   1.00800           0
      7452 MEMB     56       POPC     C216     CTL2    -0.180000       12.0110           0
      7453 MEMB     56       POPC     H16R     HAL2     0.900000E-01   1.00800           0
      7454 MEMB     56       POPC     H16S     HAL2     0.900000E-01   1.00800           0
      7455 MEMB     56       POPC     C217     CTL2    -0.180000       12.0110           0
      7456 MEMB     56       POPC     H17R     HAL2     0.900000E-01   1.00800           0
      7457 MEMB     56       POPC     H17S     HAL2     0.900000E-01   1.00800           0
      7458 MEMB     56       POPC     C218     CTL3    -0.270000       12.0110           0
      7459 MEMB     56       POPC     H18R     HAL3     0.900000E-01   1.00800           0
      7460 MEMB     56       POPC     H18S     HAL3     0.900000E-01   1.00800           0
      7461 MEMB     56       POPC     H18T     HAL3     0.900000E-01   1.00800           0
      7462 MEMB     56       POPC     C33      CTL2    -0.180000       12.0110           0
      7463 MEMB     56       POPC     H3X      HAL2     0.900000E-01   1.00800           0
      7464 MEMB     56       POPC     H3Y      HAL2     0.900000E-01   1.00800           0
      7465 MEMB     56       POPC     C34      CTL2    -0.180000       12.0110           0
      7466 MEMB     56       POPC     H4X      HAL2     0.900000E-01   1.00800           0
      7467 MEMB     56       POPC     H4Y      HAL2     0.900000E-01   1.00800           0
      7468 MEMB     56       POPC     C35      CTL2    -0.180000       12.0110           0
      7469 MEMB     56       POPC     H5X      HAL2     0.900000E-01   1.00800           0
      7470 MEMB     56       POPC     H5Y      HAL2     0.900000E-01   1.00800           0
      7471 MEMB     56       POPC     C36      CTL2    -0.180000       12.0110           0
      7472 MEMB     56       POPC     H6X      HAL2     0.900000E-01   1.00800           0
      7473 MEMB     56       POPC     H6Y      HAL2     0.900000E-01   1.00800           0
      7474 MEMB     56       POPC     C37      CTL2    -0.180000       12.0110           0
      7475 MEMB     56       POPC     H7X      HAL2     0.900000E-01   1.00800           0
      7476 MEMB     56       POPC     H7Y      HAL2     0.900000E-01   1.00800           0
      7477 MEMB     56       POPC     C38      CTL2    -0.180000       12.0110           0
      7478 MEMB     56       POPC     H8X      HAL2     0.900000E-01   1.00800           0
      7479 MEMB     56       POPC     H8Y      HAL2     0.900000E-01   1.00800           0
      7480 MEMB     56       POPC     C39      CTL2    -0.180000       12.0110           0
      7481 MEMB     56       POPC     H9X      HAL2     0.900000E-01   1.00800           0
      7482 MEMB     56       POPC     H9Y      HAL2     0.900000E-01   1.00800           0
      7483 MEMB     56       POPC     C310     CTL2    -0.180000       12.0110           0
      7484 MEMB     56       POPC     H10X     HAL2     0.900000E-01   1.00800           0
      7485 MEMB     56       POPC     H10Y     HAL2     0.900000E-01   1.00800           0
      7486 MEMB     56       POPC     C311     CTL2    -0.180000       12.0110           0
      7487 MEMB     56       POPC     H11X     HAL2     0.900000E-01   1.00800           0
      7488 MEMB     56       POPC     H11Y     HAL2     0.900000E-01   1.00800           0
      7489 MEMB     56       POPC     C312     CTL2    -0.180000       12.0110           0
      7490 MEMB     56       POPC     H12X     HAL2     0.900000E-01   1.00800           0
      7491 MEMB     56       POPC     H12Y     HAL2     0.900000E-01   1.00800           0
      7492 MEMB     56       POPC     C313     CTL2    -0.180000       12.0110           0
      7493 MEMB     56       POPC     H13X     HAL2     0.900000E-01   1.00800           0
      7494 MEMB     56       POPC     H13Y     HAL2     0.900000E-01   1.00800           0
      7495 MEMB     56       POPC     C314     CTL2    -0.180000       12.0110           0
      7496 MEMB     56       POPC     H14X     HAL2     0.900000E-01   1.00800           0
      7497 MEMB     56       POPC     H14Y     HAL2     0.900000E-01   1.00800           0
      7498 MEMB     56       POPC     C315     CTL2    -0.180000       12.0110           0
      7499 MEMB     56       POPC     H15X     HAL2     0.900000E-01   1.00800           0
      7500 MEMB     56       POPC     H15Y     HAL2     0.900000E-01   1.00800           0
      7501 MEMB     56       POPC     C316     CTL3    -0.270000       12.0110           0
      7502 MEMB     56       POPC     H16X     HAL3     0.900000E-01   1.00800           0
      7503 MEMB     56       POPC     H16Y     HAL3     0.900000E-01   1.00800           0
      7504 MEMB     56       POPC     H16Z     HAL3     0.900000E-01   1.00800           0
      7505 MEMB     57       POPC     N        NTL     -0.600000       14.0070           0
      7506 MEMB     57       POPC     C12      CTL2    -0.100000       12.0110           0
      7507 MEMB     57       POPC     H12A     HL       0.250000       1.00800           0
      7508 MEMB     57       POPC     H12B     HL       0.250000       1.00800           0
      7509 MEMB     57       POPC     C13      CTL5    -0.350000       12.0110           0
      7510 MEMB     57       POPC     H13A     HL       0.250000       1.00800           0
      7511 MEMB     57       POPC     H13B     HL       0.250000       1.00800           0
      7512 MEMB     57       POPC     H13C     HL       0.250000       1.00800           0
      7513 MEMB     57       POPC     C14      CTL5    -0.350000       12.0110           0
      7514 MEMB     57       POPC     H14A     HL       0.250000       1.00800           0
      7515 MEMB     57       POPC     H14B     HL       0.250000       1.00800           0
      7516 MEMB     57       POPC     H14C     HL       0.250000       1.00800           0
      7517 MEMB     57       POPC     C15      CTL5    -0.350000       12.0110           0
      7518 MEMB     57       POPC     H15A     HL       0.250000       1.00800           0
      7519 MEMB     57       POPC     H15B     HL       0.250000       1.00800           0
      7520 MEMB     57       POPC     H15C     HL       0.250000       1.00800           0
      7521 MEMB     57       POPC     C11      CTL2    -0.800000E-01   12.0110           0
      7522 MEMB     57       POPC     H11A     HAL2     0.900000E-01   1.00800           0
      7523 MEMB     57       POPC     H11B     HAL2     0.900000E-01   1.00800           0
      7524 MEMB     57       POPC     P        PL       1.500000       30.9740           0
      7525 MEMB     57       POPC     O13      O2L     -0.780000       15.9994           0
      7526 MEMB     57       POPC     O14      O2L     -0.780000       15.9994           0
      7527 MEMB     57       POPC     O12      OSLP    -0.570000       15.9994           0
      7528 MEMB     57       POPC     O11      OSLP    -0.570000       15.9994           0
      7529 MEMB     57       POPC     C1       CTL2    -0.800000E-01   12.0110           0
      7530 MEMB     57       POPC     HA       HAL2     0.900000E-01   1.00800           0
      7531 MEMB     57       POPC     HB       HAL2     0.900000E-01   1.00800           0
      7532 MEMB     57       POPC     C2       CTL1     0.170000       12.0110           0
      7533 MEMB     57       POPC     HS       HAL1     0.900000E-01   1.00800           0
      7534 MEMB     57       POPC     O21      OSL     -0.490000       15.9994           0
      7535 MEMB     57       POPC     C21      CL       0.900000       12.0110           0
      7536 MEMB     57       POPC     O22      OBL     -0.630000       15.9994           0
      7537 MEMB     57       POPC     C22      CTL2    -0.220000       12.0110           0
      7538 MEMB     57       POPC     H2R      HAL2     0.900000E-01   1.00800           0
      7539 MEMB     57       POPC     H2S      HAL2     0.900000E-01   1.00800           0
      7540 MEMB     57       POPC     C3       CTL2     0.800000E-01   12.0110           0
      7541 MEMB     57       POPC     HX       HAL2     0.900000E-01   1.00800           0
      7542 MEMB     57       POPC     HY       HAL2     0.900000E-01   1.00800           0
      7543 MEMB     57       POPC     O31      OSL     -0.490000       15.9994           0
      7544 MEMB     57       POPC     C31      CL       0.900000       12.0110           0
      7545 MEMB     57       POPC     O32      OBL     -0.630000       15.9994           0
      7546 MEMB     57       POPC     C32      CTL2    -0.220000       12.0110           0
      7547 MEMB     57       POPC     H2X      HAL2     0.900000E-01   1.00800           0
      7548 MEMB     57       POPC     H2Y      HAL2     0.900000E-01   1.00800           0
      7549 MEMB     57       POPC     C23      CTL2    -0.180000       12.0110           0
      7550 MEMB     57       POPC     H3R      HAL2     0.900000E-01   1.00800           0
      7551 MEMB     57       POPC     H3S      HAL2     0.900000E-01   1.00800           0
      7552 MEMB     57       POPC     C24      CTL2    -0.180000       12.0110           0
      7553 MEMB     57       POPC     H4R      HAL2     0.900000E-01   1.00800           0
      7554 MEMB     57       POPC     H4S      HAL2     0.900000E-01   1.00800           0
      7555 MEMB     57       POPC     C25      CTL2    -0.180000       12.0110           0
      7556 MEMB     57       POPC     H5R      HAL2     0.900000E-01   1.00800           0
      7557 MEMB     57       POPC     H5S      HAL2     0.900000E-01   1.00800           0
      7558 MEMB     57       POPC     C26      CTL2    -0.180000       12.0110           0
      7559 MEMB     57       POPC     H6R      HAL2     0.900000E-01   1.00800           0
      7560 MEMB     57       POPC     H6S      HAL2     0.900000E-01   1.00800           0
      7561 MEMB     57       POPC     C27      CTL2    -0.180000       12.0110           0
      7562 MEMB     57       POPC     H7R      HAL2     0.900000E-01   1.00800           0
      7563 MEMB     57       POPC     H7S      HAL2     0.900000E-01   1.00800           0
      7564 MEMB     57       POPC     C28      CTL2    -0.180000       12.0110           0
      7565 MEMB     57       POPC     H8R      HAL2     0.900000E-01   1.00800           0
      7566 MEMB     57       POPC     H8S      HAL2     0.900000E-01   1.00800           0
      7567 MEMB     57       POPC     C29      CEL1    -0.150000       12.0110           0
      7568 MEMB     57       POPC     H91      HEL1     0.150000       1.00800           0
      7569 MEMB     57       POPC     C210     CEL1    -0.150000       12.0110           0
      7570 MEMB     57       POPC     H101     HEL1     0.150000       1.00800           0
      7571 MEMB     57       POPC     C211     CTL2    -0.180000       12.0110           0
      7572 MEMB     57       POPC     H11R     HAL2     0.900000E-01   1.00800           0
      7573 MEMB     57       POPC     H11S     HAL2     0.900000E-01   1.00800           0
      7574 MEMB     57       POPC     C212     CTL2    -0.180000       12.0110           0
      7575 MEMB     57       POPC     H12R     HAL2     0.900000E-01   1.00800           0
      7576 MEMB     57       POPC     H12S     HAL2     0.900000E-01   1.00800           0
      7577 MEMB     57       POPC     C213     CTL2    -0.180000       12.0110           0
      7578 MEMB     57       POPC     H13R     HAL2     0.900000E-01   1.00800           0
      7579 MEMB     57       POPC     H13S     HAL2     0.900000E-01   1.00800           0
      7580 MEMB     57       POPC     C214     CTL2    -0.180000       12.0110           0
      7581 MEMB     57       POPC     H14R     HAL2     0.900000E-01   1.00800           0
      7582 MEMB     57       POPC     H14S     HAL2     0.900000E-01   1.00800           0
      7583 MEMB     57       POPC     C215     CTL2    -0.180000       12.0110           0
      7584 MEMB     57       POPC     H15R     HAL2     0.900000E-01   1.00800           0
      7585 MEMB     57       POPC     H15S     HAL2     0.900000E-01   1.00800           0
      7586 MEMB     57       POPC     C216     CTL2    -0.180000       12.0110           0
      7587 MEMB     57       POPC     H16R     HAL2     0.900000E-01   1.00800           0
      7588 MEMB     57       POPC     H16S     HAL2     0.900000E-01   1.00800           0
      7589 MEMB     57       POPC     C217     CTL2    -0.180000       12.0110           0
      7590 MEMB     57       POPC     H17R     HAL2     0.900000E-01   1.00800           0
      7591 MEMB     57       POPC     H17S     HAL2     0.900000E-01   1.00800           0
      7592 MEMB     57       POPC     C218     CTL3    -0.270000       12.0110           0
      7593 MEMB     57       POPC     H18R     HAL3     0.900000E-01   1.00800           0
      7594 MEMB     57       POPC     H18S     HAL3     0.900000E-01   1.00800           0
      7595 MEMB     57       POPC     H18T     HAL3     0.900000E-01   1.00800           0
      7596 MEMB     57       POPC     C33      CTL2    -0.180000       12.0110           0
      7597 MEMB     57       POPC     H3X      HAL2     0.900000E-01   1.00800           0
      7598 MEMB     57       POPC     H3Y      HAL2     0.900000E-01   1.00800           0
      7599 MEMB     57       POPC     C34      CTL2    -0.180000       12.0110           0
      7600 MEMB     57       POPC     H4X      HAL2     0.900000E-01   1.00800           0
      7601 MEMB     57       POPC     H4Y      HAL2     0.900000E-01   1.00800           0
      7602 MEMB     57       POPC     C35      CTL2    -0.180000       12.0110           0
      7603 MEMB     57       POPC     H5X      HAL2     0.900000E-01   1.00800           0
      7604 MEMB     57       POPC     H5Y      HAL2     0.900000E-01   1.00800           0
      7605 MEMB     57       POPC     C36      CTL2    -0.180000       12.0110           0
      7606 MEMB     57       POPC     H6X      HAL2     0.900000E-01   1.00800           0
      7607 MEMB     57       POPC     H6Y      HAL2     0.900000E-01   1.00800           0
      7608 MEMB     57       POPC     C37      CTL2    -0.180000       12.0110           0
      7609 MEMB     57       POPC     H7X      HAL2     0.900000E-01   1.00800           0
      7610 MEMB     57       POPC     H7Y      HAL2     0.900000E-01   1.00800           0
      7611 MEMB     57       POPC     C38      CTL2    -0.180000       12.0110           0
      7612 MEMB     57       POPC     H8X      HAL2     0.900000E-01   1.00800           0
      7613 MEMB     57       POPC     H8Y      HAL2     0.900000E-01   1.00800           0
      7614 MEMB     57       POPC     C39      CTL2    -0.180000       12.0110           0
      7615 MEMB     57       POPC     H9X      HAL2     0.900000E-01   1.00800           0
      7616 MEMB     57       POPC     H9Y      HAL2     0.900000E-01   1.00800           0
      7617 MEMB     57       POPC     C310     CTL2    -0.180000       12.0110           0
      7618 MEMB     57       POPC     H10X     HAL2     0.900000E-01   1.00800           0
      7619 MEMB     57       POPC     H10Y     HAL2     0.900000E-01   1.00800           0
      7620 MEMB     57       POPC     C311     CTL2    -0.180000       12.0110           0
      7621 MEMB     57       POPC     H11X     HAL2     0.900000E-01   1.00800           0
      7622 MEMB     57       POPC     H11Y     HAL2     0.900000E-01   1.00800           0
      7623 MEMB     57       POPC     C312     CTL2    -0.180000       12.0110           0
      7624 MEMB     57       POPC     H12X     HAL2     0.900000E-01   1.00800           0
      7625 MEMB     57       POPC     H12Y     HAL2     0.900000E-01   1.00800           0
      7626 MEMB     57       POPC     C313     CTL2    -0.180000       12.0110           0
      7627 MEMB     57       POPC     H13X     HAL2     0.900000E-01   1.00800           0
      7628 MEMB     57       POPC     H13Y     HAL2     0.900000E-01   1.00800           0
      7629 MEMB     57       POPC     C314     CTL2    -0.180000       12.0110           0
      7630 MEMB     57       POPC     H14X     HAL2     0.900000E-01   1.00800           0
      7631 MEMB     57       POPC     H14Y     HAL2     0.900000E-01   1.00800           0
      7632 MEMB     57       POPC     C315     CTL2    -0.180000       12.0110           0
      7633 MEMB     57       POPC     H15X     HAL2     0.900000E-01   1.00800           0
      7634 MEMB     57       POPC     H15Y     HAL2     0.900000E-01   1.00800           0
      7635 MEMB     57       POPC     C316     CTL3    -0.270000       12.0110           0
      7636 MEMB     57       POPC     H16X     HAL3     0.900000E-01   1.00800           0
      7637 MEMB     57       POPC     H16Y     HAL3     0.900000E-01   1.00800           0
      7638 MEMB     57       POPC     H16Z     HAL3     0.900000E-01   1.00800           0
      7639 MEMB     58       POPC     N        NTL     -0.600000       14.0070           0
      7640 MEMB     58       POPC     C12      CTL2    -0.100000       12.0110           0
      7641 MEMB     58       POPC     H12A     HL       0.250000       1.00800           0
      7642 MEMB     58       POPC     H12B     HL       0.250000       1.00800           0
      7643 MEMB     58       POPC     C13      CTL5    -0.350000       12.0110           0
      7644 MEMB     58       POPC     H13A     HL       0.250000       1.00800           0
      7645 MEMB     58       POPC     H13B     HL       0.250000       1.00800           0
      7646 MEMB     58       POPC     H13C     HL       0.250000       1.00800           0
      7647 MEMB     58       POPC     C14      CTL5    -0.350000       12.0110           0
      7648 MEMB     58       POPC     H14A     HL       0.250000       1.00800           0
      7649 MEMB     58       POPC     H14B     HL       0.250000       1.00800           0
      7650 MEMB     58       POPC     H14C     HL       0.250000       1.00800           0
      7651 MEMB     58       POPC     C15      CTL5    -0.350000       12.0110           0
      7652 MEMB     58       POPC     H15A     HL       0.250000       1.00800           0
      7653 MEMB     58       POPC     H15B     HL       0.250000       1.00800           0
      7654 MEMB     58       POPC     H15C     HL       0.250000       1.00800           0
      7655 MEMB     58       POPC     C11      CTL2    -0.800000E-01   12.0110           0
      7656 MEMB     58       POPC     H11A     HAL2     0.900000E-01   1.00800           0
      7657 MEMB     58       POPC     H11B     HAL2     0.900000E-01   1.00800           0
      7658 MEMB     58       POPC     P        PL       1.500000       30.9740           0
      7659 MEMB     58       POPC     O13      O2L     -0.780000       15.9994           0
      7660 MEMB     58       POPC     O14      O2L     -0.780000       15.9994           0
      7661 MEMB     58       POPC     O12      OSLP    -0.570000       15.9994           0
      7662 MEMB     58       POPC     O11      OSLP    -0.570000       15.9994           0
      7663 MEMB     58       POPC     C1       CTL2    -0.800000E-01   12.0110           0
      7664 MEMB     58       POPC     HA       HAL2     0.900000E-01   1.00800           0
      7665 MEMB     58       POPC     HB       HAL2     0.900000E-01   1.00800           0
      7666 MEMB     58       POPC     C2       CTL1     0.170000       12.0110           0
      7667 MEMB     58       POPC     HS       HAL1     0.900000E-01   1.00800           0
      7668 MEMB     58       POPC     O21      OSL     -0.490000       15.9994           0
      7669 MEMB     58       POPC     C21      CL       0.900000       12.0110           0
      7670 MEMB     58       POPC     O22      OBL     -0.630000       15.9994           0
      7671 MEMB     58       POPC     C22      CTL2    -0.220000       12.0110           0
      7672 MEMB     58       POPC     H2R      HAL2     0.900000E-01   1.00800           0
      7673 MEMB     58       POPC     H2S      HAL2     0.900000E-01   1.00800           0
      7674 MEMB     58       POPC     C3       CTL2     0.800000E-01   12.0110           0
      7675 MEMB     58       POPC     HX       HAL2     0.900000E-01   1.00800           0
      7676 MEMB     58       POPC     HY       HAL2     0.900000E-01   1.00800           0
      7677 MEMB     58       POPC     O31      OSL     -0.490000       15.9994           0
      7678 MEMB     58       POPC     C31      CL       0.900000       12.0110           0
      7679 MEMB     58       POPC     O32      OBL     -0.630000       15.9994           0
      7680 MEMB     58       POPC     C32      CTL2    -0.220000       12.0110           0
      7681 MEMB     58       POPC     H2X      HAL2     0.900000E-01   1.00800           0
      7682 MEMB     58       POPC     H2Y      HAL2     0.900000E-01   1.00800           0
      7683 MEMB     58       POPC     C23      CTL2    -0.180000       12.0110           0
      7684 MEMB     58       POPC     H3R      HAL2     0.900000E-01   1.00800           0
      7685 MEMB     58       POPC     H3S      HAL2     0.900000E-01   1.00800           0
      7686 MEMB     58       POPC     C24      CTL2    -0.180000       12.0110           0
      7687 MEMB     58       POPC     H4R      HAL2     0.900000E-01   1.00800           0
      7688 MEMB     58       POPC     H4S      HAL2     0.900000E-01   1.00800           0
      7689 MEMB     58       POPC     C25      CTL2    -0.180000       12.0110           0
      7690 MEMB     58       POPC     H5R      HAL2     0.900000E-01   1.00800           0
      7691 MEMB     58       POPC     H5S      HAL2     0.900000E-01   1.00800           0
      7692 MEMB     58       POPC     C26      CTL2    -0.180000       12.0110           0
      7693 MEMB     58       POPC     H6R      HAL2     0.900000E-01   1.00800           0
      7694 MEMB     58       POPC     H6S      HAL2     0.900000E-01   1.00800           0
      7695 MEMB     58       POPC     C27      CTL2    -0.180000       12.0110           0
      7696 MEMB     58       POPC     H7R      HAL2     0.900000E-01   1.00800           0
      7697 MEMB     58       POPC     H7S      HAL2     0.900000E-01   1.00800           0
      7698 MEMB     58       POPC     C28      CTL2    -0.180000       12.0110           0
      7699 MEMB     58       POPC     H8R      HAL2     0.900000E-01   1.00800           0
      7700 MEMB     58       POPC     H8S      HAL2     0.900000E-01   1.00800           0
      7701 MEMB     58       POPC     C29      CEL1    -0.150000       12.0110           0
      7702 MEMB     58       POPC     H91      HEL1     0.150000       1.00800           0
      7703 MEMB     58       POPC     C210     CEL1    -0.150000       12.0110           0
      7704 MEMB     58       POPC     H101     HEL1     0.150000       1.00800           0
      7705 MEMB     58       POPC     C211     CTL2    -0.180000       12.0110           0
      7706 MEMB     58       POPC     H11R     HAL2     0.900000E-01   1.00800           0
      7707 MEMB     58       POPC     H11S     HAL2     0.900000E-01   1.00800           0
      7708 MEMB     58       POPC     C212     CTL2    -0.180000       12.0110           0
      7709 MEMB     58       POPC     H12R     HAL2     0.900000E-01   1.00800           0
      7710 MEMB     58       POPC     H12S     HAL2     0.900000E-01   1.00800           0
      7711 MEMB     58       POPC     C213     CTL2    -0.180000       12.0110           0
      7712 MEMB     58       POPC     H13R     HAL2     0.900000E-01   1.00800           0
      7713 MEMB     58       POPC     H13S     HAL2     0.900000E-01   1.00800           0
      7714 MEMB     58       POPC     C214     CTL2    -0.180000       12.0110           0
      7715 MEMB     58       POPC     H14R     HAL2     0.900000E-01   1.00800           0
      7716 MEMB     58       POPC     H14S     HAL2     0.900000E-01   1.00800           0
      7717 MEMB     58       POPC     C215     CTL2    -0.180000       12.0110           0
      7718 MEMB     58       POPC     H15R     HAL2     0.900000E-01   1.00800           0
      7719 MEMB     58       POPC     H15S     HAL2     0.900000E-01   1.00800           0
      7720 MEMB     58       POPC     C216     CTL2    -0.180000       12.0110           0
      7721 MEMB     58       POPC     H16R     HAL2     0.900000E-01   1.00800           0
      7722 MEMB     58       POPC     H16S     HAL2     0.900000E-01   1.00800           0
      7723 MEMB     58       POPC     C217     CTL2    -0.180000       12.0110           0
      7724 MEMB     58       POPC     H17R     HAL2     0.900000E-01   1.00800           0
      7725 MEMB     58       POPC     H17S     HAL2     0.900000E-01   1.00800           0
      7726 MEMB     58       POPC     C218     CTL3    -0.270000       12.0110           0
      7727 MEMB     58       POPC     H18R     HAL3     0.900000E-01   1.00800           0
      7728 MEMB     58       POPC     H18S     HAL3     0.900000E-01   1.00800           0
      7729 MEMB     58       POPC     H18T     HAL3     0.900000E-01   1.00800           0
      7730 MEMB     58       POPC     C33      CTL2    -0.180000       12.0110           0
      7731 MEMB     58       POPC     H3X      HAL2     0.900000E-01   1.00800           0
      7732 MEMB     58       POPC     H3Y      HAL2     0.900000E-01   1.00800           0
      7733 MEMB     58       POPC     C34      CTL2    -0.180000       12.0110           0
      7734 MEMB     58       POPC     H4X      HAL2     0.900000E-01   1.00800           0
      7735 MEMB     58       POPC     H4Y      HAL2     0.900000E-01   1.00800           0
      7736 MEMB     58       POPC     C35      CTL2    -0.180000       12.0110           0
      7737 MEMB     58       POPC     H5X      HAL2     0.900000E-01   1.00800           0
      7738 MEMB     58       POPC     H5Y      HAL2     0.900000E-01   1.00800           0
      7739 MEMB     58       POPC     C36      CTL2    -0.180000       12.0110           0
      7740 MEMB     58       POPC     H6X      HAL2     0.900000E-01   1.00800           0
      7741 MEMB     58       POPC     H6Y      HAL2     0.900000E-01   1.00800           0
      7742 MEMB     58       POPC     C37      CTL2    -0.180000       12.0110           0
      7743 MEMB     58       POPC     H7X      HAL2     0.900000E-01   1.00800           0
      7744 MEMB     58       POPC     H7Y      HAL2     0.900000E-01   1.00800           0
      7745 MEMB     58       POPC     C38      CTL2    -0.180000       12.0110           0
      7746 MEMB     58       POPC     H8X      HAL2     0.900000E-01   1.00800           0
      7747 MEMB     58       POPC     H8Y      HAL2     0.900000E-01   1.00800           0
      7748 MEMB     58       POPC     C39      CTL2    -0.180000       12.0110           0
      7749 MEMB     58       POPC     H9X      HAL2     0.900000E-01   1.00800           0
      7750 MEMB     58       POPC     H9Y      HAL2     0.900000E-01   1.00800           0
      7751 MEMB     58       POPC     C310     CTL2    -0.180000       12.0110           0
      7752 MEMB     58       POPC     H10X     HAL2     0.900000E-01   1.00800           0
      7753 MEMB     58       POPC     H10Y     HAL2     0.900000E-01   1.00800           0
      7754 MEMB     58       POPC     C311     CTL2    -0.180000       12.0110           0
      7755 MEMB     58       POPC     H11X     HAL2     0.900000E-01   1.00800           0
      7756 MEMB     58       POPC     H11Y     HAL2     0.900000E-01   1.00800           0
      7757 MEMB     58       POPC     C312     CTL2    -0.180000       12.0110           0
      7758 MEMB     58       POPC     H12X     HAL2     0.900000E-01   1.00800           0
      7759 MEMB     58       POPC     H12Y     HAL2     0.900000E-01   1.00800           0
      7760 MEMB     58       POPC     C313     CTL2    -0.180000       12.0110           0
      7761 MEMB     58       POPC     H13X     HAL2     0.900000E-01   1.00800           0
      7762 MEMB     58       POPC     H13Y     HAL2     0.900000E-01   1.00800           0
      7763 MEMB     58       POPC     C314     CTL2    -0.180000       12.0110           0
      7764 MEMB     58       POPC     H14X     HAL2     0.900000E-01   1.00800           0
      7765 MEMB     58       POPC     H14Y     HAL2     0.900000E-01   1.00800           0
      7766 MEMB     58       POPC     C315     CTL2    -0.180000       12.0110           0
      7767 MEMB     58       POPC     H15X     HAL2     0.900000E-01   1.00800           0
      7768 MEMB     58       POPC     H15Y     HAL2     0.900000E-01   1.00800           0
      7769 MEMB     58       POPC     C316     CTL3    -0.270000       12.0110           0
      7770 MEMB     58       POPC     H16X     HAL3     0.900000E-01   1.00800           0
      7771 MEMB     58       POPC     H16Y     HAL3     0.900000E-01   1.00800           0
      7772 MEMB     58       POPC     H16Z     HAL3     0.900000E-01   1.00800           0
      7773 MEMB     59       POPC     N        NTL     -0.600000       14.0070           0
      7774 MEMB     59       POPC     C12      CTL2    -0.100000       12.0110           0
      7775 MEMB     59       POPC     H12A     HL       0.250000       1.00800           0
      7776 MEMB     59       POPC     H12B     HL       0.250000       1.00800           0
      7777 MEMB     59       POPC     C13      CTL5    -0.350000       12.0110           0
      7778 MEMB     59       POPC     H13A     HL       0.250000       1.00800           0
      7779 MEMB     59       POPC     H13B     HL       0.250000       1.00800           0
      7780 MEMB     59       POPC     H13C     HL       0.250000       1.00800           0
      7781 MEMB     59       POPC     C14      CTL5    -0.350000       12.0110           0
      7782 MEMB     59       POPC     H14A     HL       0.250000       1.00800           0
      7783 MEMB     59       POPC     H14B     HL       0.250000       1.00800           0
      7784 MEMB     59       POPC     H14C     HL       0.250000       1.00800           0
      7785 MEMB     59       POPC     C15      CTL5    -0.350000       12.0110           0
      7786 MEMB     59       POPC     H15A     HL       0.250000       1.00800           0
      7787 MEMB     59       POPC     H15B     HL       0.250000       1.00800           0
      7788 MEMB     59       POPC     H15C     HL       0.250000       1.00800           0
      7789 MEMB     59       POPC     C11      CTL2    -0.800000E-01   12.0110           0
      7790 MEMB     59       POPC     H11A     HAL2     0.900000E-01   1.00800           0
      7791 MEMB     59       POPC     H11B     HAL2     0.900000E-01   1.00800           0
      7792 MEMB     59       POPC     P        PL       1.500000       30.9740           0
      7793 MEMB     59       POPC     O13      O2L     -0.780000       15.9994           0
      7794 MEMB     59       POPC     O14      O2L     -0.780000       15.9994           0
      7795 MEMB     59       POPC     O12      OSLP    -0.570000       15.9994           0
      7796 MEMB     59       POPC     O11      OSLP    -0.570000       15.9994           0
      7797 MEMB     59       POPC     C1       CTL2    -0.800000E-01   12.0110           0
      7798 MEMB     59       POPC     HA       HAL2     0.900000E-01   1.00800           0
      7799 MEMB     59       POPC     HB       HAL2     0.900000E-01   1.00800           0
      7800 MEMB     59       POPC     C2       CTL1     0.170000       12.0110           0
      7801 MEMB     59       POPC     HS       HAL1     0.900000E-01   1.00800           0
      7802 MEMB     59       POPC     O21      OSL     -0.490000       15.9994           0
      7803 MEMB     59       POPC     C21      CL       0.900000       12.0110           0
      7804 MEMB     59       POPC     O22      OBL     -0.630000       15.9994           0
      7805 MEMB     59       POPC     C22      CTL2    -0.220000       12.0110           0
      7806 MEMB     59       POPC     H2R      HAL2     0.900000E-01   1.00800           0
      7807 MEMB     59       POPC     H2S      HAL2     0.900000E-01   1.00800           0
      7808 MEMB     59       POPC     C3       CTL2     0.800000E-01   12.0110           0
      7809 MEMB     59       POPC     HX       HAL2     0.900000E-01   1.00800           0
      7810 MEMB     59       POPC     HY       HAL2     0.900000E-01   1.00800           0
      7811 MEMB     59       POPC     O31      OSL     -0.490000       15.9994           0
      7812 MEMB     59       POPC     C31      CL       0.900000       12.0110           0
      7813 MEMB     59       POPC     O32      OBL     -0.630000       15.9994           0
      7814 MEMB     59       POPC     C32      CTL2    -0.220000       12.0110           0
      7815 MEMB     59       POPC     H2X      HAL2     0.900000E-01   1.00800           0
      7816 MEMB     59       POPC     H2Y      HAL2     0.900000E-01   1.00800           0
      7817 MEMB     59       POPC     C23      CTL2    -0.180000       12.0110           0
      7818 MEMB     59       POPC     H3R      HAL2     0.900000E-01   1.00800           0
      7819 MEMB     59       POPC     H3S      HAL2     0.900000E-01   1.00800           0
      7820 MEMB     59       POPC     C24      CTL2    -0.180000       12.0110           0
      7821 MEMB     59       POPC     H4R      HAL2     0.900000E-01   1.00800           0
      7822 MEMB     59       POPC     H4S      HAL2     0.900000E-01   1.00800           0
      7823 MEMB     59       POPC     C25      CTL2    -0.180000       12.0110           0
      7824 MEMB     59       POPC     H5R      HAL2     0.900000E-01   1.00800           0
      7825 MEMB     59       POPC     H5S      HAL2     0.900000E-01   1.00800           0
      7826 MEMB     59       POPC     C26      CTL2    -0.180000       12.0110           0
      7827 MEMB     59       POPC     H6R      HAL2     0.900000E-01   1.00800           0
      7828 MEMB     59       POPC     H6S      HAL2     0.900000E-01   1.00800           0
      7829 MEMB     59       POPC     C27      CTL2    -0.180000       12.0110           0
      7830 MEMB     59       POPC     H7R      HAL2     0.900000E-01   1.00800           0
      7831 MEMB     59       POPC     H7S      HAL2     0.900000E-01   1.00800           0
      7832 MEMB     59       POPC     C28      CTL2    -0.180000       12.0110           0
      7833 MEMB     59       POPC     H8R      HAL2     0.900000E-01   1.00800           0
      7834 MEMB     59       POPC     H8S      HAL2     0.900000E-01   1.00800           0
      7835 MEMB     59       POPC     C29      CEL1    -0.150000       12.0110           0
      7836 MEMB     59       POPC     H91      HEL1     0.150000       1.00800           0
      7837 MEMB     59       POPC     C210     CEL1    -0.150000       12.0110           0
      7838 MEMB     59       POPC     H101     HEL1     0.150000       1.00800           0
      7839 MEMB     59       POPC     C211     CTL2    -0.180000       12.0110           0
      7840 MEMB     59       POPC     H11R     HAL2     0.900000E-01   1.00800           0
      7841 MEMB     59       POPC     H11S     HAL2     0.900000E-01   1.00800           0
      7842 MEMB     59       POPC     C212     CTL2    -0.180000       12.0110           0
      7843 MEMB     59       POPC     H12R     HAL2     0.900000E-01   1.00800           0
      7844 MEMB     59       POPC     H12S     HAL2     0.900000E-01   1.00800           0
      7845 MEMB     59       POPC     C213     CTL2    -0.180000       12.0110           0
      7846 MEMB     59       POPC     H13R     HAL2     0.900000E-01   1.00800           0
      7847 MEMB     59       POPC     H13S     HAL2     0.900000E-01   1.00800           0
      7848 MEMB     59       POPC     C214     CTL2    -0.180000       12.0110           0
      7849 MEMB     59       POPC     H14R     HAL2     0.900000E-01   1.00800           0
      7850 MEMB     59       POPC     H14S     HAL2     0.900000E-01   1.00800           0
      7851 MEMB     59       POPC     C215     CTL2    -0.180000       12.0110           0
      7852 MEMB     59       POPC     H15R     HAL2     0.900000E-01   1.00800           0
      7853 MEMB     59       POPC     H15S     HAL2     0.900000E-01   1.00800           0
      7854 MEMB     59       POPC     C216     CTL2    -0.180000       12.0110           0
      7855 MEMB     59       POPC     H16R     HAL2     0.900000E-01   1.00800           0
      7856 MEMB     59       POPC     H16S     HAL2     0.900000E-01   1.00800           0
      7857 MEMB     59       POPC     C217     CTL2    -0.180000       12.0110           0
      7858 MEMB     59       POPC     H17R     HAL2     0.900000E-01   1.00800           0
      7859 MEMB     59       POPC     H17S     HAL2     0.900000E-01   1.00800           0
      7860 MEMB     59       POPC     C218     CTL3    -0.270000       12.0110           0
      7861 MEMB     59       POPC     H18R     HAL3     0.900000E-01   1.00800           0
      7862 MEMB     59       POPC     H18S     HAL3     0.900000E-01   1.00800           0
      7863 MEMB     59       POPC     H18T     HAL3     0.900000E-01   1.00800           0
      7864 MEMB     59       POPC     C33      CTL2    -0.180000       12.0110           0
      7865 MEMB     59       POPC     H3X      HAL2     0.900000E-01   1.00800           0
      7866 MEMB     59       POPC     H3Y      HAL2     0.900000E-01   1.00800           0
      7867 MEMB     59       POPC     C34      CTL2    -0.180000       12.0110           0
      7868 MEMB     59       POPC     H4X      HAL2     0.900000E-01   1.00800           0
      7869 MEMB     59       POPC     H4Y      HAL2     0.900000E-01   1.00800           0
      7870 MEMB     59       POPC     C35      CTL2    -0.180000       12.0110           0
      7871 MEMB     59       POPC     H5X      HAL2     0.900000E-01   1.00800           0
      7872 MEMB     59       POPC     H5Y      HAL2     0.900000E-01   1.00800           0
      7873 MEMB     59       POPC     C36      CTL2    -0.180000       12.0110           0
      7874 MEMB     59       POPC     H6X      HAL2     0.900000E-01   1.00800           0
      7875 MEMB     59       POPC     H6Y      HAL2     0.900000E-01   1.00800           0
      7876 MEMB     59       POPC     C37      CTL2    -0.180000       12.0110           0
      7877 MEMB     59       POPC     H7X      HAL2     0.900000E-01   1.00800           0
      7878 MEMB     59       POPC     H7Y      HAL2     0.900000E-01   1.00800           0
      7879 MEMB     59       POPC     C38      CTL2    -0.180000       12.0110           0
      7880 MEMB     59       POPC     H8X      HAL2     0.900000E-01   1.00800           0
      7881 MEMB     59       POPC     H8Y      HAL2     0.900000E-01   1.00800           0
      7882 MEMB     59       POPC     C39      CTL2    -0.180000       12.0110           0
      7883 MEMB     59       POPC     H9X      HAL2     0.900000E-01   1.00800           0
      7884 MEMB     59       POPC     H9Y      HAL2     0.900000E-01   1.00800           0
      7885 MEMB     59       POPC     C310     CTL2    -0.180000       12.0110           0
      7886 MEMB     59       POPC     H10X     HAL2     0.900000E-01   1.00800           0
      7887 MEMB     59       POPC     H10Y     HAL2     0.900000E-01   1.00800           0
      7888 MEMB     59       POPC     C311     CTL2    -0.180000       12.0110           0
      7889 MEMB     59       POPC     H11X     HAL2     0.900000E-01   1.00800           0
      7890 MEMB     59       POPC     H11Y     HAL2     0.900000E-01   1.00800           0
      7891 MEMB     59       POPC     C312     CTL2    -0.180000       12.0110           0
      7892 MEMB     59       POPC     H12X     HAL2     0.900000E-01   1.00800           0
      7893 MEMB     59       POPC     H12Y     HAL2     0.900000E-01   1.00800           0
      7894 MEMB     59       POPC     C313     CTL2    -0.180000       12.0110           0
      7895 MEMB     59       POPC     H13X     HAL2     0.900000E-01   1.00800           0
      7896 MEMB     59       POPC     H13Y     HAL2     0.900000E-01   1.00800           0
      7897 MEMB     59       POPC     C314     CTL2    -0.180000       12.0110           0
      7898 MEMB     59       POPC     H14X     HAL2     0.900000E-01   1.00800           0
      7899 MEMB     59       POPC     H14Y     HAL2     0.900000E-01   1.00800           0
      7900 MEMB     59       POPC     C315     CTL2    -0.180000       12.0110           0
      7901 MEMB     59       POPC     H15X     HAL2     0.900000E-01   1.00800           0
      7902 MEMB     59       POPC     H15Y     HAL2     0.900000E-01   1.00800           0
      7903 MEMB     59       POPC     C316     CTL3    -0.270000       12.0110           0
      7904 MEMB     59       POPC     H16X     HAL3     0.900000E-01   1.00800           0
      7905 MEMB     59       POPC     H16Y     HAL3     0.900000E-01   1.00800           0
      7906 MEMB     59       POPC     H16Z     HAL3     0.900000E-01   1.00800           0
      7907 MEMB     60       POPC     N        NTL     -0.600000       14.0070           0
      7908 MEMB     60       POPC     C12      CTL2    -0.100000       12.0110           0
      7909 MEMB     60       POPC     H12A     HL       0.250000       1.00800           0
      7910 MEMB     60       POPC     H12B     HL       0.250000       1.00800           0
      7911 MEMB     60       POPC     C13      CTL5    -0.350000       12.0110           0
      7912 MEMB     60       POPC     H13A     HL       0.250000       1.00800           0
      7913 MEMB     60       POPC     H13B     HL       0.250000       1.00800           0
      7914 MEMB     60       POPC     H13C     HL       0.250000       1.00800           0
      7915 MEMB     60       POPC     C14      CTL5    -0.350000       12.0110           0
      7916 MEMB     60       POPC     H14A     HL       0.250000       1.00800           0
      7917 MEMB     60       POPC     H14B     HL       0.250000       1.00800           0
      7918 MEMB     60       POPC     H14C     HL       0.250000       1.00800           0
      7919 MEMB     60       POPC     C15      CTL5    -0.350000       12.0110           0
      7920 MEMB     60       POPC     H15A     HL       0.250000       1.00800           0
      7921 MEMB     60       POPC     H15B     HL       0.250000       1.00800           0
      7922 MEMB     60       POPC     H15C     HL       0.250000       1.00800           0
      7923 MEMB     60       POPC     C11      CTL2    -0.800000E-01   12.0110           0
      7924 MEMB     60       POPC     H11A     HAL2     0.900000E-01   1.00800           0
      7925 MEMB     60       POPC     H11B     HAL2     0.900000E-01   1.00800           0
      7926 MEMB     60       POPC     P        PL       1.500000       30.9740           0
      7927 MEMB     60       POPC     O13      O2L     -0.780000       15.9994           0
      7928 MEMB     60       POPC     O14      O2L     -0.780000       15.9994           0
      7929 MEMB     60       POPC     O12      OSLP    -0.570000       15.9994           0
      7930 MEMB     60       POPC     O11      OSLP    -0.570000       15.9994           0
      7931 MEMB     60       POPC     C1       CTL2    -0.800000E-01   12.0110           0
      7932 MEMB     60       POPC     HA       HAL2     0.900000E-01   1.00800           0
      7933 MEMB     60       POPC     HB       HAL2     0.900000E-01   1.00800           0
      7934 MEMB     60       POPC     C2       CTL1     0.170000       12.0110           0
      7935 MEMB     60       POPC     HS       HAL1     0.900000E-01   1.00800           0
      7936 MEMB     60       POPC     O21      OSL     -0.490000       15.9994           0
      7937 MEMB     60       POPC     C21      CL       0.900000       12.0110           0
      7938 MEMB     60       POPC     O22      OBL     -0.630000       15.9994           0
      7939 MEMB     60       POPC     C22      CTL2    -0.220000       12.0110           0
      7940 MEMB     60       POPC     H2R      HAL2     0.900000E-01   1.00800           0
      7941 MEMB     60       POPC     H2S      HAL2     0.900000E-01   1.00800           0
      7942 MEMB     60       POPC     C3       CTL2     0.800000E-01   12.0110           0
      7943 MEMB     60       POPC     HX       HAL2     0.900000E-01   1.00800           0
      7944 MEMB     60       POPC     HY       HAL2     0.900000E-01   1.00800           0
      7945 MEMB     60       POPC     O31      OSL     -0.490000       15.9994           0
      7946 MEMB     60       POPC     C31      CL       0.900000       12.0110           0
      7947 MEMB     60       POPC     O32      OBL     -0.630000       15.9994           0
      7948 MEMB     60       POPC     C32      CTL2    -0.220000       12.0110           0
      7949 MEMB     60       POPC     H2X      HAL2     0.900000E-01   1.00800           0
      7950 MEMB     60       POPC     H2Y      HAL2     0.900000E-01   1.00800           0
      7951 MEMB     60       POPC     C23      CTL2    -0.180000       12.0110           0
      7952 MEMB     60       POPC     H3R      HAL2     0.900000E-01   1.00800           0
      7953 MEMB     60       POPC     H3S      HAL2     0.900000E-01   1.00800           0
      7954 MEMB     60       POPC     C24      CTL2    -0.180000       12.0110           0
      7955 MEMB     60       POPC     H4R      HAL2     0.900000E-01   1.00800           0
      7956 MEMB     60       POPC     H4S      HAL2     0.900000E-01   1.00800           0
      7957 MEMB     60       POPC     C25      CTL2    -0.180000       12.0110           0
      7958 MEMB     60       POPC     H5R      HAL2     0.900000E-01   1.00800           0
      7959 MEMB     60       POPC     H5S      HAL2     0.900000E-01   1.00800           0
      7960 MEMB     60       POPC     C26      CTL2    -0.180000       12.0110           0
      7961 MEMB     60       POPC     H6R      HAL2     0.900000E-01   1.00800           0
      7962 MEMB     60       POPC     H6S      HAL2     0.900000E-01   1.00800           0
      7963 MEMB     60       POPC     C27      CTL2    -0.180000       12.0110           0
      7964 MEMB     60       POPC     H7R      HAL2     0.900000E-01   1.00800           0
      7965 MEMB     60       POPC     H7S      HAL2     0.900000E-01   1.00800           0
      7966 MEMB     60       POPC     C28      CTL2    -0.180000       12.0110           0
      7967 MEMB     60       POPC     H8R      HAL2     0.900000E-01   1.00800           0
      7968 MEMB     60       POPC     H8S      HAL2     0.900000E-01   1.00800           0
      7969 MEMB     60       POPC     C29      CEL1    -0.150000       12.0110           0
      7970 MEMB     60       POPC     H91      HEL1     0.150000       1.00800           0
      7971 MEMB     60       POPC     C210     CEL1    -0.150000       12.0110           0
      7972 MEMB     60       POPC     H101     HEL1     0.150000       1.00800           0
      7973 MEMB     60       POPC     C211     CTL2    -0.180000       12.0110           0
      7974 MEMB     60       POPC     H11R     HAL2     0.900000E-01   1.00800           0
      7975 MEMB     60       POPC     H11S     HAL2     0.900000E-01   1.00800           0
      7976 MEMB     60       POPC     C212     CTL2    -0.180000       12.0110           0
      7977 MEMB     60       POPC     H12R     HAL2     0.900000E-01   1.00800           0
      7978 MEMB     60       POPC     H12S     HAL2     0.900000E-01   1.00800           0
      7979 MEMB     60       POPC     C213     CTL2    -0.180000       12.0110           0
      7980 MEMB     60       POPC     H13R     HAL2     0.900000E-01   1.00800           0
      7981 MEMB     60       POPC     H13S     HAL2     0.900000E-01   1.00800           0
      7982 MEMB     60       POPC     C214     CTL2    -0.180000       12.0110           0
      7983 MEMB     60       POPC     H14R     HAL2     0.900000E-01   1.00800           0
      7984 MEMB     60       POPC     H14S     HAL2     0.900000E-01   1.00800           0
      7985 MEMB     60       POPC     C215     CTL2    -0.180000       12.0110           0
      7986 MEMB     60       POPC     H15R     HAL2     0.900000E-01   1.00800           0
      7987 MEMB     60       POPC     H15S     HAL2     0.900000E-01   1.00800           0
      7988 MEMB     60       POPC     C216     CTL2    -0.180000       12.0110           0
      7989 MEMB     60       POPC     H16R     HAL2     0.900000E-01   1.00800           0
      7990 MEMB     60       POPC     H16S     HAL2     0.900000E-01   1.00800           0
      7991 MEMB     60       POPC     C217     CTL2    -0.180000       12.0110           0
      7992 MEMB     60       POPC     H17R     HAL2     0.900000E-01   1.00800           0
      7993 MEMB     60       POPC     H17S     HAL2     0.900000E-01   1.00800           0
      7994 MEMB     60       POPC     C218     CTL3    -0.270000       12.0110           0
      7995 MEMB     60       POPC     H18R     HAL3     0.900000E-01   1.00800           0
      7996 MEMB     60       POPC     H18S     HAL3     0.900000E-01   1.00800           0
      7997 MEMB     60       POPC     H18T     HAL3     0.900000E-01   1.00800           0
      7998 MEMB     60       POPC     C33      CTL2    -0.180000       12.0110           0
      7999 MEMB     60       POPC     H3X      HAL2     0.900000E-01   1.00800           0
      8000 MEMB     60       POPC     H3Y      HAL2     0.900000E-01   1.00800           0
      8001 MEMB     60       POPC     C34      CTL2    -0.180000       12.0110           0
      8002 MEMB     60       POPC     H4X      HAL2     0.900000E-01   1.00800           0
      8003 MEMB     60       POPC     H4Y      HAL2     0.900000E-01   1.00800           0
      8004 MEMB     60       POPC     C35      CTL2    -0.180000       12.0110           0
      8005 MEMB     60       POPC     H5X      HAL2     0.900000E-01   1.00800           0
      8006 MEMB     60       POPC     H5Y      HAL2     0.900000E-01   1.00800           0
      8007 MEMB     60       POPC     C36      CTL2    -0.180000       12.0110           0
      8008 MEMB     60       POPC     H6X      HAL2     0.900000E-01   1.00800           0
      8009 MEMB     60       POPC     H6Y      HAL2     0.900000E-01   1.00800           0
      8010 MEMB     60       POPC     C37      CTL2    -0.180000       12.0110           0
      8011 MEMB     60       POPC     H7X      HAL2     0.900000E-01   1.00800           0
      8012 MEMB     60       POPC     H7Y      HAL2     0.900000E-01   1.00800           0
      8013 MEMB     60       POPC     C38      CTL2    -0.180000       12.0110           0
      8014 MEMB     60       POPC     H8X      HAL2     0.900000E-01   1.00800           0
      8015 MEMB     60       POPC     H8Y      HAL2     0.900000E-01   1.00800           0
      8016 MEMB     60       POPC     C39      CTL2    -0.180000       12.0110           0
      8017 MEMB     60       POPC     H9X      HAL2     0.900000E-01   1.00800           0
      8018 MEMB     60       POPC     H9Y      HAL2     0.900000E-01   1.00800           0
      8019 MEMB     60       POPC     C310     CTL2    -0.180000       12.0110           0
      8020 MEMB     60       POPC     H10X     HAL2     0.900000E-01   1.00800           0
      8021 MEMB     60       POPC     H10Y     HAL2     0.900000E-01   1.00800           0
      8022 MEMB     60       POPC     C311     CTL2    -0.180000       12.0110           0
      8023 MEMB     60       POPC     H11X     HAL2     0.900000E-01   1.00800           0
      8024 MEMB     60       POPC     H11Y     HAL2     0.900000E-01   1.00800           0
      8025 MEMB     60       POPC     C312     CTL2    -0.180000       12.0110           0
      8026 MEMB     60       POPC     H12X     HAL2     0.900000E-01   1.00800           0
      8027 MEMB     60       POPC     H12Y     HAL2     0.900000E-01   1.00800           0
      8028 MEMB     60       POPC     C313     CTL2    -0.180000       12.0110           0
      8029 MEMB     60       POPC     H13X     HAL2     0.900000E-01   1.00800           0
      8030 MEMB     60       POPC     H13Y     HAL2     0.900000E-01   1.00800           0
      8031 MEMB     60       POPC     C314     CTL2    -0.180000       12.0110           0
      8032 MEMB     60       POPC     H14X     HAL2     0.900000E-01   1.00800           0
      8033 MEMB     60       POPC     H14Y     HAL2     0.900000E-01   1.00800           0
      8034 MEMB     60       POPC     C315     CTL2    -0.180000       12.0110           0
      8035 MEMB     60       POPC     H15X     HAL2     0.900000E-01   1.00800           0
      8036 MEMB     60       POPC     H15Y     HAL2     0.900000E-01   1.00800           0
      8037 MEMB     60       POPC     C316     CTL3    -0.270000       12.0110           0
      8038 MEMB     60       POPC     H16X     HAL3     0.900000E-01   1.00800           0
      8039 MEMB     60       POPC     H16Y     HAL3     0.900000E-01   1.00800           0
      8040 MEMB     60       POPC     H16Z     HAL3     0.900000E-01   1.00800           0
      8041 MEMB     61       POPC     N        NTL     -0.600000       14.0070           0
      8042 MEMB     61       POPC     C12      CTL2    -0.100000       12.0110           0
      8043 MEMB     61       POPC     H12A     HL       0.250000       1.00800           0
      8044 MEMB     61       POPC     H12B     HL       0.250000       1.00800           0
      8045 MEMB     61       POPC     C13      CTL5    -0.350000       12.0110           0
      8046 MEMB     61       POPC     H13A     HL       0.250000       1.00800           0
      8047 MEMB     61       POPC     H13B     HL       0.250000       1.00800           0
      8048 MEMB     61       POPC     H13C     HL       0.250000       1.00800           0
      8049 MEMB     61       POPC     C14      CTL5    -0.350000       12.0110           0
      8050 MEMB     61       POPC     H14A     HL       0.250000       1.00800           0
      8051 MEMB     61       POPC     H14B     HL       0.250000       1.00800           0
      8052 MEMB     61       POPC     H14C     HL       0.250000       1.00800           0
      8053 MEMB     61       POPC     C15      CTL5    -0.350000       12.0110           0
      8054 MEMB     61       POPC     H15A     HL       0.250000       1.00800           0
      8055 MEMB     61       POPC     H15B     HL       0.250000       1.00800           0
      8056 MEMB     61       POPC     H15C     HL       0.250000       1.00800           0
      8057 MEMB     61       POPC     C11      CTL2    -0.800000E-01   12.0110           0
      8058 MEMB     61       POPC     H11A     HAL2     0.900000E-01   1.00800           0
      8059 MEMB     61       POPC     H11B     HAL2     0.900000E-01   1.00800           0
      8060 MEMB     61       POPC     P        PL       1.500000       30.9740           0
      8061 MEMB     61       POPC     O13      O2L     -0.780000       15.9994           0
      8062 MEMB     61       POPC     O14      O2L     -0.780000       15.9994           0
      8063 MEMB     61       POPC     O12      OSLP    -0.570000       15.9994           0
      8064 MEMB     61       POPC     O11      OSLP    -0.570000       15.9994           0
      8065 MEMB     61       POPC     C1       CTL2    -0.800000E-01   12.0110           0
      8066 MEMB     61       POPC     HA       HAL2     0.900000E-01   1.00800           0
      8067 MEMB     61       POPC     HB       HAL2     0.900000E-01   1.00800           0
      8068 MEMB     61       POPC     C2       CTL1     0.170000       12.0110           0
      8069 MEMB     61       POPC     HS       HAL1     0.900000E-01   1.00800           0
      8070 MEMB     61       POPC     O21      OSL     -0.490000       15.9994           0
      8071 MEMB     61       POPC     C21      CL       0.900000       12.0110           0
      8072 MEMB     61       POPC     O22      OBL     -0.630000       15.9994           0
      8073 MEMB     61       POPC     C22      CTL2    -0.220000       12.0110           0
      8074 MEMB     61       POPC     H2R      HAL2     0.900000E-01   1.00800           0
      8075 MEMB     61       POPC     H2S      HAL2     0.900000E-01   1.00800           0
      8076 MEMB     61       POPC     C3       CTL2     0.800000E-01   12.0110           0
      8077 MEMB     61       POPC     HX       HAL2     0.900000E-01   1.00800           0
      8078 MEMB     61       POPC     HY       HAL2     0.900000E-01   1.00800           0
      8079 MEMB     61       POPC     O31      OSL     -0.490000       15.9994           0
      8080 MEMB     61       POPC     C31      CL       0.900000       12.0110           0
      8081 MEMB     61       POPC     O32      OBL     -0.630000       15.9994           0
      8082 MEMB     61       POPC     C32      CTL2    -0.220000       12.0110           0
      8083 MEMB     61       POPC     H2X      HAL2     0.900000E-01   1.00800           0
      8084 MEMB     61       POPC     H2Y      HAL2     0.900000E-01   1.00800           0
      8085 MEMB     61       POPC     C23      CTL2    -0.180000       12.0110           0
      8086 MEMB     61       POPC     H3R      HAL2     0.900000E-01   1.00800           0
      8087 MEMB     61       POPC     H3S      HAL2     0.900000E-01   1.00800           0
      8088 MEMB     61       POPC     C24      CTL2    -0.180000       12.0110           0
      8089 MEMB     61       POPC     H4R      HAL2     0.900000E-01   1.00800           0
      8090 MEMB     61       POPC     H4S      HAL2     0.900000E-01   1.00800           0
      8091 MEMB     61       POPC     C25      CTL2    -0.180000       12.0110           0
      8092 MEMB     61       POPC     H5R      HAL2     0.900000E-01   1.00800           0
      8093 MEMB     61       POPC     H5S      HAL2     0.900000E-01   1.00800           0
      8094 MEMB     61       POPC     C26      CTL2    -0.180000       12.0110           0
      8095 MEMB     61       POPC     H6R      HAL2     0.900000E-01   1.00800           0
      8096 MEMB     61       POPC     H6S      HAL2     0.900000E-01   1.00800           0
      8097 MEMB     61       POPC     C27      CTL2    -0.180000       12.0110           0
      8098 MEMB     61       POPC     H7R      HAL2     0.900000E-01   1.00800           0
      8099 MEMB     61       POPC     H7S      HAL2     0.900000E-01   1.00800           0
      8100 MEMB     61       POPC     C28      CTL2    -0.180000       12.0110           0
      8101 MEMB     61       POPC     H8R      HAL2     0.900000E-01   1.00800           0
      8102 MEMB     61       POPC     H8S      HAL2     0.900000E-01   1.00800           0
      8103 MEMB     61       POPC     C29      CEL1    -0.150000       12.0110           0
      8104 MEMB     61       POPC     H91      HEL1     0.150000       1.00800           0
      8105 MEMB     61       POPC     C210     CEL1    -0.150000       12.0110           0
      8106 MEMB     61       POPC     H101     HEL1     0.150000       1.00800           0
      8107 MEMB     61       POPC     C211     CTL2    -0.180000       12.0110           0
      8108 MEMB     61       POPC     H11R     HAL2     0.900000E-01   1.00800           0
      8109 MEMB     61       POPC     H11S     HAL2     0.900000E-01   1.00800           0
      8110 MEMB     61       POPC     C212     CTL2    -0.180000       12.0110           0
      8111 MEMB     61       POPC     H12R     HAL2     0.900000E-01   1.00800           0
      8112 MEMB     61       POPC     H12S     HAL2     0.900000E-01   1.00800           0
      8113 MEMB     61       POPC     C213     CTL2    -0.180000       12.0110           0
      8114 MEMB     61       POPC     H13R     HAL2     0.900000E-01   1.00800           0
      8115 MEMB     61       POPC     H13S     HAL2     0.900000E-01   1.00800           0
      8116 MEMB     61       POPC     C214     CTL2    -0.180000       12.0110           0
      8117 MEMB     61       POPC     H14R     HAL2     0.900000E-01   1.00800           0
      8118 MEMB     61       POPC     H14S     HAL2     0.900000E-01   1.00800           0
      8119 MEMB     61       POPC     C215     CTL2    -0.180000       12.0110           0
      8120 MEMB     61       POPC     H15R     HAL2     0.900000E-01   1.00800           0
      8121 MEMB     61       POPC     H15S     HAL2     0.900000E-01   1.00800           0
      8122 MEMB     61       POPC     C216     CTL2    -0.180000       12.0110           0
      8123 MEMB     61       POPC     H16R     HAL2     0.900000E-01   1.00800           0
      8124 MEMB     61       POPC     H16S     HAL2     0.900000E-01   1.00800           0
      8125 MEMB     61       POPC     C217     CTL2    -0.180000       12.0110           0
      8126 MEMB     61       POPC     H17R     HAL2     0.900000E-01   1.00800           0
      8127 MEMB     61       POPC     H17S     HAL2     0.900000E-01   1.00800           0
      8128 MEMB     61       POPC     C218     CTL3    -0.270000       12.0110           0
      8129 MEMB     61       POPC     H18R     HAL3     0.900000E-01   1.00800           0
      8130 MEMB     61       POPC     H18S     HAL3     0.900000E-01   1.00800           0
      8131 MEMB     61       POPC     H18T     HAL3     0.900000E-01   1.00800           0
      8132 MEMB     61       POPC     C33      CTL2    -0.180000       12.0110           0
      8133 MEMB     61       POPC     H3X      HAL2     0.900000E-01   1.00800           0
      8134 MEMB     61       POPC     H3Y      HAL2     0.900000E-01   1.00800           0
      8135 MEMB     61       POPC     C34      CTL2    -0.180000       12.0110           0
      8136 MEMB     61       POPC     H4X      HAL2     0.900000E-01   1.00800           0
      8137 MEMB     61       POPC     H4Y      HAL2     0.900000E-01   1.00800           0
      8138 MEMB     61       POPC     C35      CTL2    -0.180000       12.0110           0
      8139 MEMB     61       POPC     H5X      HAL2     0.900000E-01   1.00800           0
      8140 MEMB     61       POPC     H5Y      HAL2     0.900000E-01   1.00800           0
      8141 MEMB     61       POPC     C36      CTL2    -0.180000       12.0110           0
      8142 MEMB     61       POPC     H6X      HAL2     0.900000E-01   1.00800           0
      8143 MEMB     61       POPC     H6Y      HAL2     0.900000E-01   1.00800           0
      8144 MEMB     61       POPC     C37      CTL2    -0.180000       12.0110           0
      8145 MEMB     61       POPC     H7X      HAL2     0.900000E-01   1.00800           0
      8146 MEMB     61       POPC     H7Y      HAL2     0.900000E-01   1.00800           0
      8147 MEMB     61       POPC     C38      CTL2    -0.180000       12.0110           0
      8148 MEMB     61       POPC     H8X      HAL2     0.900000E-01   1.00800           0
      8149 MEMB     61       POPC     H8Y      HAL2     0.900000E-01   1.00800           0
      8150 MEMB     61       POPC     C39      CTL2    -0.180000       12.0110           0
      8151 MEMB     61       POPC     H9X      HAL2     0.900000E-01   1.00800           0
      8152 MEMB     61       POPC     H9Y      HAL2     0.900000E-01   1.00800           0
      8153 MEMB     61       POPC     C310     CTL2    -0.180000       12.0110           0
      8154 MEMB     61       POPC     H10X     HAL2     0.900000E-01   1.00800           0
      8155 MEMB     61       POPC     H10Y     HAL2     0.900000E-01   1.00800           0
      8156 MEMB     61       POPC     C311     CTL2    -0.180000       12.0110           0
      8157 MEMB     61       POPC     H11X     HAL2     0.900000E-01   1.00800           0
      8158 MEMB     61       POPC     H11Y     HAL2     0.900000E-01   1.00800           0
      8159 MEMB     61       POPC     C312     CTL2    -0.180000       12.0110           0
      8160 MEMB     61       POPC     H12X     HAL2     0.900000E-01   1.00800           0
      8161 MEMB     61       POPC     H12Y     HAL2     0.900000E-01   1.00800           0
      8162 MEMB     61       POPC     C313     CTL2    -0.180000       12.0110           0
      8163 MEMB     61       POPC     H13X     HAL2     0.900000E-01   1.00800           0
      8164 MEMB     61       POPC     H13Y     HAL2     0.900000E-01   1.00800           0
      8165 MEMB     61       POPC     C314     CTL2    -0.180000       12.0110           0
      8166 MEMB     61       POPC     H14X     HAL2     0.900000E-01   1.00800           0
      8167 MEMB     61       POPC     H14Y     HAL2     0.900000E-01   1.00800           0
      8168 MEMB     61       POPC     C315     CTL2    -0.180000       12.0110           0
      8169 MEMB     61       POPC     H15X     HAL2     0.900000E-01   1.00800           0
      8170 MEMB     61       POPC     H15Y     HAL2     0.900000E-01   1.00800           0
      8171 MEMB     61       POPC     C316     CTL3    -0.270000       12.0110           0
      8172 MEMB     61       POPC     H16X     HAL3     0.900000E-01   1.00800           0
      8173 MEMB     61       POPC     H16Y     HAL3     0.900000E-01   1.00800           0
      8174 MEMB     61       POPC     H16Z     HAL3     0.900000E-01   1.00800           0
      8175 MEMB     62       POPC     N        NTL     -0.600000       14.0070           0
      8176 MEMB     62       POPC     C12      CTL2    -0.100000       12.0110           0
      8177 MEMB     62       POPC     H12A     HL       0.250000       1.00800           0
      8178 MEMB     62       POPC     H12B     HL       0.250000       1.00800           0
      8179 MEMB     62       POPC     C13      CTL5    -0.350000       12.0110           0
      8180 MEMB     62       POPC     H13A     HL       0.250000       1.00800           0
      8181 MEMB     62       POPC     H13B     HL       0.250000       1.00800           0
      8182 MEMB     62       POPC     H13C     HL       0.250000       1.00800           0
      8183 MEMB     62       POPC     C14      CTL5    -0.350000       12.0110           0
      8184 MEMB     62       POPC     H14A     HL       0.250000       1.00800           0
      8185 MEMB     62       POPC     H14B     HL       0.250000       1.00800           0
      8186 MEMB     62       POPC     H14C     HL       0.250000       1.00800           0
      8187 MEMB     62       POPC     C15      CTL5    -0.350000       12.0110           0
      8188 MEMB     62       POPC     H15A     HL       0.250000       1.00800           0
      8189 MEMB     62       POPC     H15B     HL       0.250000       1.00800           0
      8190 MEMB     62       POPC     H15C     HL       0.250000       1.00800           0
      8191 MEMB     62       POPC     C11      CTL2    -0.800000E-01   12.0110           0
      8192 MEMB     62       POPC     H11A     HAL2     0.900000E-01   1.00800           0
      8193 MEMB     62       POPC     H11B     HAL2     0.900000E-01   1.00800           0
      8194 MEMB     62       POPC     P        PL       1.500000       30.9740           0
      8195 MEMB     62       POPC     O13      O2L     -0.780000       15.9994           0
      8196 MEMB     62       POPC     O14      O2L     -0.780000       15.9994           0
      8197 MEMB     62       POPC     O12      OSLP    -0.570000       15.9994           0
      8198 MEMB     62       POPC     O11      OSLP    -0.570000       15.9994           0
      8199 MEMB     62       POPC     C1       CTL2    -0.800000E-01   12.0110           0
      8200 MEMB     62       POPC     HA       HAL2     0.900000E-01   1.00800           0
      8201 MEMB     62       POPC     HB       HAL2     0.900000E-01   1.00800           0
      8202 MEMB     62       POPC     C2       CTL1     0.170000       12.0110           0
      8203 MEMB     62       POPC     HS       HAL1     0.900000E-01   1.00800           0
      8204 MEMB     62       POPC     O21      OSL     -0.490000       15.9994           0
      8205 MEMB     62       POPC     C21      CL       0.900000       12.0110           0
      8206 MEMB     62       POPC     O22      OBL     -0.630000       15.9994           0
      8207 MEMB     62       POPC     C22      CTL2    -0.220000       12.0110           0
      8208 MEMB     62       POPC     H2R      HAL2     0.900000E-01   1.00800           0
      8209 MEMB     62       POPC     H2S      HAL2     0.900000E-01   1.00800           0
      8210 MEMB     62       POPC     C3       CTL2     0.800000E-01   12.0110           0
      8211 MEMB     62       POPC     HX       HAL2     0.900000E-01   1.00800           0
      8212 MEMB     62       POPC     HY       HAL2     0.900000E-01   1.00800           0
      8213 MEMB     62       POPC     O31      OSL     -0.490000       15.9994           0
      8214 MEMB     62       POPC     C31      CL       0.900000       12.0110           0
      8215 MEMB     62       POPC     O32      OBL     -0.630000       15.9994           0
      8216 MEMB     62       POPC     C32      CTL2    -0.220000       12.0110           0
      8217 MEMB     62       POPC     H2X      HAL2     0.900000E-01   1.00800           0
      8218 MEMB     62       POPC     H2Y      HAL2     0.900000E-01   1.00800           0
      8219 MEMB     62       POPC     C23      CTL2    -0.180000       12.0110           0
      8220 MEMB     62       POPC     H3R      HAL2     0.900000E-01   1.00800           0
      8221 MEMB     62       POPC     H3S      HAL2     0.900000E-01   1.00800           0
      8222 MEMB     62       POPC     C24      CTL2    -0.180000       12.0110           0
      8223 MEMB     62       POPC     H4R      HAL2     0.900000E-01   1.00800           0
      8224 MEMB     62       POPC     H4S      HAL2     0.900000E-01   1.00800           0
      8225 MEMB     62       POPC     C25      CTL2    -0.180000       12.0110           0
      8226 MEMB     62       POPC     H5R      HAL2     0.900000E-01   1.00800           0
      8227 MEMB     62       POPC     H5S      HAL2     0.900000E-01   1.00800           0
      8228 MEMB     62       POPC     C26      CTL2    -0.180000       12.0110           0
      8229 MEMB     62       POPC     H6R      HAL2     0.900000E-01   1.00800           0
      8230 MEMB     62       POPC     H6S      HAL2     0.900000E-01   1.00800           0
      8231 MEMB     62       POPC     C27      CTL2    -0.180000       12.0110           0
      8232 MEMB     62       POPC     H7R      HAL2     0.900000E-01   1.00800           0
      8233 MEMB     62       POPC     H7S      HAL2     0.900000E-01   1.00800           0
      8234 MEMB     62       POPC     C28      CTL2    -0.180000       12.0110           0
      8235 MEMB     62       POPC     H8R      HAL2     0.900000E-01   1.00800           0
      8236 MEMB     62       POPC     H8S      HAL2     0.900000E-01   1.00800           0
      8237 MEMB     62       POPC     C29      CEL1    -0.150000       12.0110           0
      8238 MEMB     62       POPC     H91      HEL1     0.150000       1.00800           0
      8239 MEMB     62       POPC     C210     CEL1    -0.150000       12.0110           0
      8240 MEMB     62       POPC     H101     HEL1     0.150000       1.00800           0
      8241 MEMB     62       POPC     C211     CTL2    -0.180000       12.0110           0
      8242 MEMB     62       POPC     H11R     HAL2     0.900000E-01   1.00800           0
      8243 MEMB     62       POPC     H11S     HAL2     0.900000E-01   1.00800           0
      8244 MEMB     62       POPC     C212     CTL2    -0.180000       12.0110           0
      8245 MEMB     62       POPC     H12R     HAL2     0.900000E-01   1.00800           0
      8246 MEMB     62       POPC     H12S     HAL2     0.900000E-01   1.00800           0
      8247 MEMB     62       POPC     C213     CTL2    -0.180000       12.0110           0
      8248 MEMB     62       POPC     H13R     HAL2     0.900000E-01   1.00800           0
      8249 MEMB     62       POPC     H13S     HAL2     0.900000E-01   1.00800           0
      8250 MEMB     62       POPC     C214     CTL2    -0.180000       12.0110           0
      8251 MEMB     62       POPC     H14R     HAL2     0.900000E-01   1.00800           0
      8252 MEMB     62       POPC     H14S     HAL2     0.900000E-01   1.00800           0
      8253 MEMB     62       POPC     C215     CTL2    -0.180000       12.0110           0
      8254 MEMB     62       POPC     H15R     HAL2     0.900000E-01   1.00800           0
      8255 MEMB     62       POPC     H15S     HAL2     0.900000E-01   1.00800           0
      8256 MEMB     62       POPC     C216     CTL2    -0.180000       12.0110           0
      8257 MEMB     62       POPC     H16R     HAL2     0.900000E-01   1.00800           0
      8258 MEMB     62       POPC     H16S     HAL2     0.900000E-01   1.00800           0
      8259 MEMB     62       POPC     C217     CTL2    -0.180000       12.0110           0
      8260 MEMB     62       POPC     H17R     HAL2     0.900000E-01   1.00800           0
      8261 MEMB     62       POPC     H17S     HAL2     0.900000E-01   1.00800           0
      8262 MEMB     62       POPC     C218     CTL3    -0.270000       12.0110           0
      8263 MEMB     62       POPC     H18R     HAL3     0.900000E-01   1.00800           0
      8264 MEMB     62       POPC     H18S     HAL3     0.900000E-01   1.00800           0
      8265 MEMB     62       POPC     H18T     HAL3     0.900000E-01   1.00800           0
      8266 MEMB     62       POPC     C33      CTL2    -0.180000       12.0110           0
      8267 MEMB     62       POPC     H3X      HAL2     0.900000E-01   1.00800           0
      8268 MEMB     62       POPC     H3Y      HAL2     0.900000E-01   1.00800           0
      8269 MEMB     62       POPC     C34      CTL2    -0.180000       12.0110           0
      8270 MEMB     62       POPC     H4X      HAL2     0.900000E-01   1.00800           0
      8271 MEMB     62       POPC     H4Y      HAL2     0.900000E-01   1.00800           0
      8272 MEMB     62       POPC     C35      CTL2    -0.180000       12.0110           0
      8273 MEMB     62       POPC     H5X      HAL2     0.900000E-01   1.00800           0
      8274 MEMB     62       POPC     H5Y      HAL2     0.900000E-01   1.00800           0
      8275 MEMB     62       POPC     C36      CTL2    -0.180000       12.0110           0
      8276 MEMB     62       POPC     H6X      HAL2     0.900000E-01   1.00800           0
      8277 MEMB     62       POPC     H6Y      HAL2     0.900000E-01   1.00800           0
      8278 MEMB     62       POPC     C37      CTL2    -0.180000       12.0110           0
      8279 MEMB     62       POPC     H7X      HAL2     0.900000E-01   1.00800           0
      8280 MEMB     62       POPC     H7Y      HAL2     0.900000E-01   1.00800           0
      8281 MEMB     62       POPC     C38      CTL2    -0.180000       12.0110           0
      8282 MEMB     62       POPC     H8X      HAL2     0.900000E-01   1.00800           0
      8283 MEMB     62       POPC     H8Y      HAL2     0.900000E-01   1.00800           0
      8284 MEMB     62       POPC     C39      CTL2    -0.180000       12.0110           0
      8285 MEMB     62       POPC     H9X      HAL2     0.900000E-01   1.00800           0
      8286 MEMB     62       POPC     H9Y      HAL2     0.900000E-01   1.00800           0
      8287 MEMB     62       POPC     C310     CTL2    -0.180000       12.0110           0
      8288 MEMB     62       POPC     H10X     HAL2     0.900000E-01   1.00800           0
      8289 MEMB     62       POPC     H10Y     HAL2     0.900000E-01   1.00800           0
      8290 MEMB     62       POPC     C311     CTL2    -0.180000       12.0110           0
      8291 MEMB     62       POPC     H11X     HAL2     0.900000E-01   1.00800           0
      8292 MEMB     62       POPC     H11Y     HAL2     0.900000E-01   1.00800           0
      8293 MEMB     62       POPC     C312     CTL2    -0.180000       12.0110           0
      8294 MEMB     62       POPC     H12X     HAL2     0.900000E-01   1.00800           0
      8295 MEMB     62       POPC     H12Y     HAL2     0.900000E-01   1.00800           0
      8296 MEMB     62       POPC     C313     CTL2    -0.180000       12.0110           0
      8297 MEMB     62       POPC     H13X     HAL2     0.900000E-01   1.00800           0
      8298 MEMB     62       POPC     H13Y     HAL2     0.900000E-01   1.00800           0
      8299 MEMB     62       POPC     C314     CTL2    -0.180000       12.0110           0
      8300 MEMB     62       POPC     H14X     HAL2     0.900000E-01   1.00800           0
      8301 MEMB     62       POPC     H14Y     HAL2     0.900000E-01   1.00800           0
      8302 MEMB     62       POPC     C315     CTL2    -0.180000       12.0110           0
      8303 MEMB     62       POPC     H15X     HAL2     0.900000E-01   1.00800           0
      8304 MEMB     62       POPC     H15Y     HAL2     0.900000E-01   1.00800           0
      8305 MEMB     62       POPC     C316     CTL3    -0.270000       12.0110           0
      8306 MEMB     62       POPC     H16X     HAL3     0.900000E-01   1.00800           0
      8307 MEMB     62       POPC     H16Y     HAL3     0.900000E-01   1.00800           0
      8308 MEMB     62       POPC     H16Z     HAL3     0.900000E-01   1.00800           0
      8309 MEMB     63       POPC     N        NTL     -0.600000       14.0070           0
      8310 MEMB     63       POPC     C12      CTL2    -0.100000       12.0110           0
      8311 MEMB     63       POPC     H12A     HL       0.250000       1.00800           0
      8312 MEMB     63       POPC     H12B     HL       0.250000       1.00800           0
      8313 MEMB     63       POPC     C13      CTL5    -0.350000       12.0110           0
      8314 MEMB     63       POPC     H13A     HL       0.250000       1.00800           0
      8315 MEMB     63       POPC     H13B     HL       0.250000       1.00800           0
      8316 MEMB     63       POPC     H13C     HL       0.250000       1.00800           0
      8317 MEMB     63       POPC     C14      CTL5    -0.350000       12.0110           0
      8318 MEMB     63       POPC     H14A     HL       0.250000       1.00800           0
      8319 MEMB     63       POPC     H14B     HL       0.250000       1.00800           0
      8320 MEMB     63       POPC     H14C     HL       0.250000       1.00800           0
      8321 MEMB     63       POPC     C15      CTL5    -0.350000       12.0110           0
      8322 MEMB     63       POPC     H15A     HL       0.250000       1.00800           0
      8323 MEMB     63       POPC     H15B     HL       0.250000       1.00800           0
      8324 MEMB     63       POPC     H15C     HL       0.250000       1.00800           0
      8325 MEMB     63       POPC     C11      CTL2    -0.800000E-01   12.0110           0
      8326 MEMB     63       POPC     H11A     HAL2     0.900000E-01   1.00800           0
      8327 MEMB     63       POPC     H11B     HAL2     0.900000E-01   1.00800           0
      8328 MEMB     63       POPC     P        PL       1.500000       30.9740           0
      8329 MEMB     63       POPC     O13      O2L     -0.780000       15.9994           0
      8330 MEMB     63       POPC     O14      O2L     -0.780000       15.9994           0
      8331 MEMB     63       POPC     O12      OSLP    -0.570000       15.9994           0
      8332 MEMB     63       POPC     O11      OSLP    -0.570000       15.9994           0
      8333 MEMB     63       POPC     C1       CTL2    -0.800000E-01   12.0110           0
      8334 MEMB     63       POPC     HA       HAL2     0.900000E-01   1.00800           0
      8335 MEMB     63       POPC     HB       HAL2     0.900000E-01   1.00800           0
      8336 MEMB     63       POPC     C2       CTL1     0.170000       12.0110           0
      8337 MEMB     63       POPC     HS       HAL1     0.900000E-01   1.00800           0
      8338 MEMB     63       POPC     O21      OSL     -0.490000       15.9994           0
      8339 MEMB     63       POPC     C21      CL       0.900000       12.0110           0
      8340 MEMB     63       POPC     O22      OBL     -0.630000       15.9994           0
      8341 MEMB     63       POPC     C22      CTL2    -0.220000       12.0110           0
      8342 MEMB     63       POPC     H2R      HAL2     0.900000E-01   1.00800           0
      8343 MEMB     63       POPC     H2S      HAL2     0.900000E-01   1.00800           0
      8344 MEMB     63       POPC     C3       CTL2     0.800000E-01   12.0110           0
      8345 MEMB     63       POPC     HX       HAL2     0.900000E-01   1.00800           0
      8346 MEMB     63       POPC     HY       HAL2     0.900000E-01   1.00800           0
      8347 MEMB     63       POPC     O31      OSL     -0.490000       15.9994           0
      8348 MEMB     63       POPC     C31      CL       0.900000       12.0110           0
      8349 MEMB     63       POPC     O32      OBL     -0.630000       15.9994           0
      8350 MEMB     63       POPC     C32      CTL2    -0.220000       12.0110           0
      8351 MEMB     63       POPC     H2X      HAL2     0.900000E-01   1.00800           0
      8352 MEMB     63       POPC     H2Y      HAL2     0.900000E-01   1.00800           0
      8353 MEMB     63       POPC     C23      CTL2    -0.180000       12.0110           0
      8354 MEMB     63       POPC     H3R      HAL2     0.900000E-01   1.00800           0
      8355 MEMB     63       POPC     H3S      HAL2     0.900000E-01   1.00800           0
      8356 MEMB     63       POPC     C24      CTL2    -0.180000       12.0110           0
      8357 MEMB     63       POPC     H4R      HAL2     0.900000E-01   1.00800           0
      8358 MEMB     63       POPC     H4S      HAL2     0.900000E-01   1.00800           0
      8359 MEMB     63       POPC     C25      CTL2    -0.180000       12.0110           0
      8360 MEMB     63       POPC     H5R      HAL2     0.900000E-01   1.00800           0
      8361 MEMB     63       POPC     H5S      HAL2     0.900000E-01   1.00800           0
      8362 MEMB     63       POPC     C26      CTL2    -0.180000       12.0110           0
      8363 MEMB     63       POPC     H6R      HAL2     0.900000E-01   1.00800           0
      8364 MEMB     63       POPC     H6S      HAL2     0.900000E-01   1.00800           0
      8365 MEMB     63       POPC     C27      CTL2    -0.180000       12.0110           0
      8366 MEMB     63       POPC     H7R      HAL2     0.900000E-01   1.00800           0
      8367 MEMB     63       POPC     H7S      HAL2     0.900000E-01   1.00800           0
      8368 MEMB     63       POPC     C28      CTL2    -0.180000       12.0110           0
      8369 MEMB     63       POPC     H8R      HAL2     0.900000E-01   1.00800           0
      8370 MEMB     63       POPC     H8S      HAL2     0.900000E-01   1.00800           0
      8371 MEMB     63       POPC     C29      CEL1    -0.150000       12.0110           0
      8372 MEMB     63       POPC     H91      HEL1     0.150000       1.00800           0
      8373 MEMB     63       POPC     C210     CEL1    -0.150000       12.0110           0
      8374 MEMB     63       POPC     H101     HEL1     0.150000       1.00800           0
      8375 MEMB     63       POPC     C211     CTL2    -0.180000       12.0110           0
      8376 MEMB     63       POPC     H11R     HAL2     0.900000E-01   1.00800           0
      8377 MEMB     63       POPC     H11S     HAL2     0.900000E-01   1.00800           0
      8378 MEMB     63       POPC     C212     CTL2    -0.180000       12.0110           0
      8379 MEMB     63       POPC     H12R     HAL2     0.900000E-01   1.00800           0
      8380 MEMB     63       POPC     H12S     HAL2     0.900000E-01   1.00800           0
      8381 MEMB     63       POPC     C213     CTL2    -0.180000       12.0110           0
      8382 MEMB     63       POPC     H13R     HAL2     0.900000E-01   1.00800           0
      8383 MEMB     63       POPC     H13S     HAL2     0.900000E-01   1.00800           0
      8384 MEMB     63       POPC     C214     CTL2    -0.180000       12.0110           0
      8385 MEMB     63       POPC     H14R     HAL2     0.900000E-01   1.00800           0
      8386 MEMB     63       POPC     H14S     HAL2     0.900000E-01   1.00800           0
      8387 MEMB     63       POPC     C215     CTL2    -0.180000       12.0110           0
      8388 MEMB     63       POPC     H15R     HAL2     0.900000E-01   1.00800           0
      8389 MEMB     63       POPC     H15S     HAL2     0.900000E-01   1.00800           0
      8390 MEMB     63       POPC     C216     CTL2    -0.180000       12.0110           0
      8391 MEMB     63       POPC     H16R     HAL2     0.900000E-01   1.00800           0
      8392 MEMB     63       POPC     H16S     HAL2     0.900000E-01   1.00800           0
      8393 MEMB     63       POPC     C217     CTL2    -0.180000       12.0110           0
      8394 MEMB     63       POPC     H17R     HAL2     0.900000E-01   1.00800           0
      8395 MEMB     63       POPC     H17S     HAL2     0.900000E-01   1.00800           0
      8396 MEMB     63       POPC     C218     CTL3    -0.270000       12.0110           0
      8397 MEMB     63       POPC     H18R     HAL3     0.900000E-01   1.00800           0
      8398 MEMB     63       POPC     H18S     HAL3     0.900000E-01   1.00800           0
      8399 MEMB     63       POPC     H18T     HAL3     0.900000E-01   1.00800           0
      8400 MEMB     63       POPC     C33      CTL2    -0.180000       12.0110           0
      8401 MEMB     63       POPC     H3X      HAL2     0.900000E-01   1.00800           0
      8402 MEMB     63       POPC     H3Y      HAL2     0.900000E-01   1.00800           0
      8403 MEMB     63       POPC     C34      CTL2    -0.180000       12.0110           0
      8404 MEMB     63       POPC     H4X      HAL2     0.900000E-01   1.00800           0
      8405 MEMB     63       POPC     H4Y      HAL2     0.900000E-01   1.00800           0
      8406 MEMB     63       POPC     C35      CTL2    -0.180000       12.0110           0
      8407 MEMB     63       POPC     H5X      HAL2     0.900000E-01   1.00800           0
      8408 MEMB     63       POPC     H5Y      HAL2     0.900000E-01   1.00800           0
      8409 MEMB     63       POPC     C36      CTL2    -0.180000       12.0110           0
      8410 MEMB     63       POPC     H6X      HAL2     0.900000E-01   1.00800           0
      8411 MEMB     63       POPC     H6Y      HAL2     0.900000E-01   1.00800           0
      8412 MEMB     63       POPC     C37      CTL2    -0.180000       12.0110           0
      8413 MEMB     63       POPC     H7X      HAL2     0.900000E-01   1.00800           0
      8414 MEMB     63       POPC     H7Y      HAL2     0.900000E-01   1.00800           0
      8415 MEMB     63       POPC     C38      CTL2    -0.180000       12.0110           0
      8416 MEMB     63       POPC     H8X      HAL2     0.900000E-01   1.00800           0
      8417 MEMB     63       POPC     H8Y      HAL2     0.900000E-01   1.00800           0
      8418 MEMB     63       POPC     C39      CTL2    -0.180000       12.0110           0
      8419 MEMB     63       POPC     H9X      HAL2     0.900000E-01   1.00800           0
      8420 MEMB     63       POPC     H9Y      HAL2     0.900000E-01   1.00800           0
      8421 MEMB     63       POPC     C310     CTL2    -0.180000       12.0110           0
      8422 MEMB     63       POPC     H10X     HAL2     0.900000E-01   1.00800           0
      8423 MEMB     63       POPC     H10Y     HAL2     0.900000E-01   1.00800           0
      8424 MEMB     63       POPC     C311     CTL2    -0.180000       12.0110           0
      8425 MEMB     63       POPC     H11X     HAL2     0.900000E-01   1.00800           0
      8426 MEMB     63       POPC     H11Y     HAL2     0.900000E-01   1.00800           0
      8427 MEMB     63       POPC     C312     CTL2    -0.180000       12.0110           0
      8428 MEMB     63       POPC     H12X     HAL2     0.900000E-01   1.00800           0
      8429 MEMB     63       POPC     H12Y     HAL2     0.900000E-01   1.00800           0
      8430 MEMB     63       POPC     C313     CTL2    -0.180000       12.0110           0
      8431 MEMB     63       POPC     H13X     HAL2     0.900000E-01   1.00800           0
      8432 MEMB     63       POPC     H13Y     HAL2     0.900000E-01   1.00800           0
      8433 MEMB     63       POPC     C314     CTL2    -0.180000       12.0110           0
      8434 MEMB     63       POPC     H14X     HAL2     0.900000E-01   1.00800           0
      8435 MEMB     63       POPC     H14Y     HAL2     0.900000E-01   1.00800           0
      8436 MEMB     63       POPC     C315     CTL2    -0.180000       12.0110           0
      8437 MEMB     63       POPC     H15X     HAL2     0.900000E-01   1.00800           0
      8438 MEMB     63       POPC     H15Y     HAL2     0.900000E-01   1.00800           0
      8439 MEMB     63       POPC     C316     CTL3    -0.270000       12.0110           0
      8440 MEMB     63       POPC     H16X     HAL3     0.900000E-01   1.00800           0
      8441 MEMB     63       POPC     H16Y     HAL3     0.900000E-01   1.00800           0
      8442 MEMB     63       POPC     H16Z     HAL3     0.900000E-01   1.00800           0
      8443 MEMB     64       POPC     N        NTL     -0.600000       14.0070           0
      8444 MEMB     64       POPC     C12      CTL2    -0.100000       12.0110           0
      8445 MEMB     64       POPC     H12A     HL       0.250000       1.00800           0
      8446 MEMB     64       POPC     H12B     HL       0.250000       1.00800           0
      8447 MEMB     64       POPC     C13      CTL5    -0.350000       12.0110           0
      8448 MEMB     64       POPC     H13A     HL       0.250000       1.00800           0
      8449 MEMB     64       POPC     H13B     HL       0.250000       1.00800           0
      8450 MEMB     64       POPC     H13C     HL       0.250000       1.00800           0
      8451 MEMB     64       POPC     C14      CTL5    -0.350000       12.0110           0
      8452 MEMB     64       POPC     H14A     HL       0.250000       1.00800           0
      8453 MEMB     64       POPC     H14B     HL       0.250000       1.00800           0
      8454 MEMB     64       POPC     H14C     HL       0.250000       1.00800           0
      8455 MEMB     64       POPC     C15      CTL5    -0.350000       12.0110           0
      8456 MEMB     64       POPC     H15A     HL       0.250000       1.00800           0
      8457 MEMB     64       POPC     H15B     HL       0.250000       1.00800           0
      8458 MEMB     64       POPC     H15C     HL       0.250000       1.00800           0
      8459 MEMB     64       POPC     C11      CTL2    -0.800000E-01   12.0110           0
      8460 MEMB     64       POPC     H11A     HAL2     0.900000E-01   1.00800           0
      8461 MEMB     64       POPC     H11B     HAL2     0.900000E-01   1.00800           0
      8462 MEMB     64       POPC     P        PL       1.500000       30.9740           0
      8463 MEMB     64       POPC     O13      O2L     -0.780000       15.9994           0
      8464 MEMB     64       POPC     O14      O2L     -0.780000       15.9994           0
      8465 MEMB     64       POPC     O12      OSLP    -0.570000       15.9994           0
      8466 MEMB     64       POPC     O11      OSLP    -0.570000       15.9994           0
      8467 MEMB     64       POPC     C1       CTL2    -0.800000E-01   12.0110           0
      8468 MEMB     64       POPC     HA       HAL2     0.900000E-01   1.00800           0
      8469 MEMB     64       POPC     HB       HAL2     0.900000E-01   1.00800           0
      8470 MEMB     64       POPC     C2       CTL1     0.170000       12.0110           0
      8471 MEMB     64       POPC     HS       HAL1     0.900000E-01   1.00800           0
      8472 MEMB     64       POPC     O21      OSL     -0.490000       15.9994           0
      8473 MEMB     64       POPC     C21      CL       0.900000       12.0110           0
      8474 MEMB     64       POPC     O22      OBL     -0.630000       15.9994           0
      8475 MEMB     64       POPC     C22      CTL2    -0.220000       12.0110           0
      8476 MEMB     64       POPC     H2R      HAL2     0.900000E-01   1.00800           0
      8477 MEMB     64       POPC     H2S      HAL2     0.900000E-01   1.00800           0
      8478 MEMB     64       POPC     C3       CTL2     0.800000E-01   12.0110           0
      8479 MEMB     64       POPC     HX       HAL2     0.900000E-01   1.00800           0
      8480 MEMB     64       POPC     HY       HAL2     0.900000E-01   1.00800           0
      8481 MEMB     64       POPC     O31      OSL     -0.490000       15.9994           0
      8482 MEMB     64       POPC     C31      CL       0.900000       12.0110           0
      8483 MEMB     64       POPC     O32      OBL     -0.630000       15.9994           0
      8484 MEMB     64       POPC     C32      CTL2    -0.220000       12.0110           0
      8485 MEMB     64       POPC     H2X      HAL2     0.900000E-01   1.00800           0
      8486 MEMB     64       POPC     H2Y      HAL2     0.900000E-01   1.00800           0
      8487 MEMB     64       POPC     C23      CTL2    -0.180000       12.0110           0
      8488 MEMB     64       POPC     H3R      HAL2     0.900000E-01   1.00800           0
      8489 MEMB     64       POPC     H3S      HAL2     0.900000E-01   1.00800           0
      8490 MEMB     64       POPC     C24      CTL2    -0.180000       12.0110           0
      8491 MEMB     64       POPC     H4R      HAL2     0.900000E-01   1.00800           0
      8492 MEMB     64       POPC     H4S      HAL2     0.900000E-01   1.00800           0
      8493 MEMB     64       POPC     C25      CTL2    -0.180000       12.0110           0
      8494 MEMB     64       POPC     H5R      HAL2     0.900000E-01   1.00800           0
      8495 MEMB     64       POPC     H5S      HAL2     0.900000E-01   1.00800           0
      8496 MEMB     64       POPC     C26      CTL2    -0.180000       12.0110           0
      8497 MEMB     64       POPC     H6R      HAL2     0.900000E-01   1.00800           0
      8498 MEMB     64       POPC     H6S      HAL2     0.900000E-01   1.00800           0
      8499 MEMB     64       POPC     C27      CTL2    -0.180000       12.0110           0
      8500 MEMB     64       POPC     H7R      HAL2     0.900000E-01   1.00800           0
      8501 MEMB     64       POPC     H7S      HAL2     0.900000E-01   1.00800           0
      8502 MEMB     64       POPC     C28      CTL2    -0.180000       12.0110           0
      8503 MEMB     64       POPC     H8R      HAL2     0.900000E-01   1.00800           0
      8504 MEMB     64       POPC     H8S      HAL2     0.900000E-01   1.00800           0
      8505 MEMB     64       POPC     C29      CEL1    -0.150000       12.0110           0
      8506 MEMB     64       POPC     H91      HEL1     0.150000       1.00800           0
      8507 MEMB     64       POPC     C210     CEL1    -0.150000       12.0110           0
      8508 MEMB     64       POPC     H101     HEL1     0.150000       1.00800           0
      8509 MEMB     64       POPC     C211     CTL2    -0.180000       12.0110           0
      8510 MEMB     64       POPC     H11R     HAL2     0.900000E-01   1.00800           0
      8511 MEMB     64       POPC     H11S     HAL2     0.900000E-01   1.00800           0
      8512 MEMB     64       POPC     C212     CTL2    -0.180000       12.0110           0
      8513 MEMB     64       POPC     H12R     HAL2     0.900000E-01   1.00800           0
      8514 MEMB     64       POPC     H12S     HAL2     0.900000E-01   1.00800           0
      8515 MEMB     64       POPC     C213     CTL2    -0.180000       12.0110           0
      8516 MEMB     64       POPC     H13R     HAL2     0.900000E-01   1.00800           0
      8517 MEMB     64       POPC     H13S     HAL2     0.900000E-01   1.00800           0
      8518 MEMB     64       POPC     C214     CTL2    -0.180000       12.0110           0
      8519 MEMB     64       POPC     H14R     HAL2     0.900000E-01   1.00800           0
      8520 MEMB     64       POPC     H14S     HAL2     0.900000E-01   1.00800           0
      8521 MEMB     64       POPC     C215     CTL2    -0.180000       12.0110           0
      8522 MEMB     64       POPC     H15R     HAL2     0.900000E-01   1.00800           0
      8523 MEMB     64       POPC     H15S     HAL2     0.900000E-01   1.00800           0
      8524 MEMB     64       POPC     C216     CTL2    -0.180000       12.0110           0
      8525 MEMB     64       POPC     H16R     HAL2     0.900000E-01   1.00800           0
      8526 MEMB     64       POPC     H16S     HAL2     0.900000E-01   1.00800           0
      8527 MEMB     64       POPC     C217     CTL2    -0.180000       12.0110           0
      8528 MEMB     64       POPC     H17R     HAL2     0.900000E-01   1.00800           0
      8529 MEMB     64       POPC     H17S     HAL2     0.900000E-01   1.00800           0
      8530 MEMB     64       POPC     C218     CTL3    -0.270000       12.0110           0
      8531 MEMB     64       POPC     H18R     HAL3     0.900000E-01   1.00800           0
      8532 MEMB     64       POPC     H18S     HAL3     0.900000E-01   1.00800           0
      8533 MEMB     64       POPC     H18T     HAL3     0.900000E-01   1.00800           0
      8534 MEMB     64       POPC     C33      CTL2    -0.180000       12.0110           0
      8535 MEMB     64       POPC     H3X      HAL2     0.900000E-01   1.00800           0
      8536 MEMB     64       POPC     H3Y      HAL2     0.900000E-01   1.00800           0
      8537 MEMB     64       POPC     C34      CTL2    -0.180000       12.0110           0
      8538 MEMB     64       POPC     H4X      HAL2     0.900000E-01   1.00800           0
      8539 MEMB     64       POPC     H4Y      HAL2     0.900000E-01   1.00800           0
      8540 MEMB     64       POPC     C35      CTL2    -0.180000       12.0110           0
      8541 MEMB     64       POPC     H5X      HAL2     0.900000E-01   1.00800           0
      8542 MEMB     64       POPC     H5Y      HAL2     0.900000E-01   1.00800           0
      8543 MEMB     64       POPC     C36      CTL2    -0.180000       12.0110           0
      8544 MEMB     64       POPC     H6X      HAL2     0.900000E-01   1.00800           0
      8545 MEMB     64       POPC     H6Y      HAL2     0.900000E-01   1.00800           0
      8546 MEMB     64       POPC     C37      CTL2    -0.180000       12.0110           0
      8547 MEMB     64       POPC     H7X      HAL2     0.900000E-01   1.00800           0
      8548 MEMB     64       POPC     H7Y      HAL2     0.900000E-01   1.00800           0
      8549 MEMB     64       POPC     C38      CTL2    -0.180000       12.0110           0
      8550 MEMB     64       POPC     H8X      HAL2     0.900000E-01   1.00800           0
      8551 MEMB     64       POPC     H8Y      HAL2     0.900000E-01   1.00800           0
      8552 MEMB     64       POPC     C39      CTL2    -0.180000       12.0110           0
      8553 MEMB     64       POPC     H9X      HAL2     0.900000E-01   1.00800           0
      8554 MEMB     64       POPC     H9Y      HAL2     0.900000E-01   1.00800           0
      8555 MEMB     64       POPC     C310     CTL2    -0.180000       12.0110           0
      8556 MEMB     64       POPC     H10X     HAL2     0.900000E-01   1.00800           0
      8557 MEMB     64       POPC     H10Y     HAL2     0.900000E-01   1.00800           0
      8558 MEMB     64       POPC     C311     CTL2    -0.180000       12.0110           0
      8559 MEMB     64       POPC     H11X     HAL2     0.900000E-01   1.00800           0
      8560 MEMB     64       POPC     H11Y     HAL2     0.900000E-01   1.00800           0
      8561 MEMB     64       POPC     C312     CTL2    -0.180000       12.0110           0
      8562 MEMB     64       POPC     H12X     HAL2     0.900000E-01   1.00800           0
      8563 MEMB     64       POPC     H12Y     HAL2     0.900000E-01   1.00800           0
      8564 MEMB     64       POPC     C313     CTL2    -0.180000       12.0110           0
      8565 MEMB     64       POPC     H13X     HAL2     0.900000E-01   1.00800           0
      8566 MEMB     64       POPC     H13Y     HAL2     0.900000E-01   1.00800           0
      8567 MEMB     64       POPC     C314     CTL2    -0.180000       12.0110           0
      8568 MEMB     64       POPC     H14X     HAL2     0.900000E-01   1.00800           0
      8569 MEMB     64       POPC     H14Y     HAL2     0.900000E-01   1.00800           0
      8570 MEMB     64       POPC     C315     CTL2    -0.180000       12.0110           0
      8571 MEMB     64       POPC     H15X     HAL2     0.900000E-01   1.00800           0
      8572 MEMB     64       POPC     H15Y     HAL2     0.900000E-01   1.00800           0
      8573 MEMB     64       POPC     C316     CTL3    -0.270000       12.0110           0
      8574 MEMB     64       POPC     H16X     HAL3     0.900000E-01   1.00800           0
      8575 MEMB     64       POPC     H16Y     HAL3     0.900000E-01   1.00800           0
      8576 MEMB     64       POPC     H16Z     HAL3     0.900000E-01   1.00800           0
      8577 MEMB     65       POPC     N        NTL     -0.600000       14.0070           0
      8578 MEMB     65       POPC     C12      CTL2    -0.100000       12.0110           0
      8579 MEMB     65       POPC     H12A     HL       0.250000       1.00800           0
      8580 MEMB     65       POPC     H12B     HL       0.250000       1.00800           0
      8581 MEMB     65       POPC     C13      CTL5    -0.350000       12.0110           0
      8582 MEMB     65       POPC     H13A     HL       0.250000       1.00800           0
      8583 MEMB     65       POPC     H13B     HL       0.250000       1.00800           0
      8584 MEMB     65       POPC     H13C     HL       0.250000       1.00800           0
      8585 MEMB     65       POPC     C14      CTL5    -0.350000       12.0110           0
      8586 MEMB     65       POPC     H14A     HL       0.250000       1.00800           0
      8587 MEMB     65       POPC     H14B     HL       0.250000       1.00800           0
      8588 MEMB     65       POPC     H14C     HL       0.250000       1.00800           0
      8589 MEMB     65       POPC     C15      CTL5    -0.350000       12.0110           0
      8590 MEMB     65       POPC     H15A     HL       0.250000       1.00800           0
      8591 MEMB     65       POPC     H15B     HL       0.250000       1.00800           0
      8592 MEMB     65       POPC     H15C     HL       0.250000       1.00800           0
      8593 MEMB     65       POPC     C11      CTL2    -0.800000E-01   12.0110           0
      8594 MEMB     65       POPC     H11A     HAL2     0.900000E-01   1.00800           0
      8595 MEMB     65       POPC     H11B     HAL2     0.900000E-01   1.00800           0
      8596 MEMB     65       POPC     P        PL       1.500000       30.9740           0
      8597 MEMB     65       POPC     O13      O2L     -0.780000       15.9994           0
      8598 MEMB     65       POPC     O14      O2L     -0.780000       15.9994           0
      8599 MEMB     65       POPC     O12      OSLP    -0.570000       15.9994           0
      8600 MEMB     65       POPC     O11      OSLP    -0.570000       15.9994           0
      8601 MEMB     65       POPC     C1       CTL2    -0.800000E-01   12.0110           0
      8602 MEMB     65       POPC     HA       HAL2     0.900000E-01   1.00800           0
      8603 MEMB     65       POPC     HB       HAL2     0.900000E-01   1.00800           0
      8604 MEMB     65       POPC     C2       CTL1     0.170000       12.0110           0
      8605 MEMB     65       POPC     HS       HAL1     0.900000E-01   1.00800           0
      8606 MEMB     65       POPC     O21      OSL     -0.490000       15.9994           0
      8607 MEMB     65       POPC     C21      CL       0.900000       12.0110           0
      8608 MEMB     65       POPC     O22      OBL     -0.630000       15.9994           0
      8609 MEMB     65       POPC     C22      CTL2    -0.220000       12.0110           0
      8610 MEMB     65       POPC     H2R      HAL2     0.900000E-01   1.00800           0
      8611 MEMB     65       POPC     H2S      HAL2     0.900000E-01   1.00800           0
      8612 MEMB     65       POPC     C3       CTL2     0.800000E-01   12.0110           0
      8613 MEMB     65       POPC     HX       HAL2     0.900000E-01   1.00800           0
      8614 MEMB     65       POPC     HY       HAL2     0.900000E-01   1.00800           0
      8615 MEMB     65       POPC     O31      OSL     -0.490000       15.9994           0
      8616 MEMB     65       POPC     C31      CL       0.900000       12.0110           0
      8617 MEMB     65       POPC     O32      OBL     -0.630000       15.9994           0
      8618 MEMB     65       POPC     C32      CTL2    -0.220000       12.0110           0
      8619 MEMB     65       POPC     H2X      HAL2     0.900000E-01   1.00800           0
      8620 MEMB     65       POPC     H2Y      HAL2     0.900000E-01   1.00800           0
      8621 MEMB     65       POPC     C23      CTL2    -0.180000       12.0110           0
      8622 MEMB     65       POPC     H3R      HAL2     0.900000E-01   1.00800           0
      8623 MEMB     65       POPC     H3S      HAL2     0.900000E-01   1.00800           0
      8624 MEMB     65       POPC     C24      CTL2    -0.180000       12.0110           0
      8625 MEMB     65       POPC     H4R      HAL2     0.900000E-01   1.00800           0
      8626 MEMB     65       POPC     H4S      HAL2     0.900000E-01   1.00800           0
      8627 MEMB     65       POPC     C25      CTL2    -0.180000       12.0110           0
      8628 MEMB     65       POPC     H5R      HAL2     0.900000E-01   1.00800           0
      8629 MEMB     65       POPC     H5S      HAL2     0.900000E-01   1.00800           0
      8630 MEMB     65       POPC     C26      CTL2    -0.180000       12.0110           0
      8631 MEMB     65       POPC     H6R      HAL2     0.900000E-01   1.00800           0
      8632 MEMB     65       POPC     H6S      HAL2     0.900000E-01   1.00800           0
      8633 MEMB     65       POPC     C27      CTL2    -0.180000       12.0110           0
      8634 MEMB     65       POPC     H7R      HAL2     0.900000E-01   1.00800           0
      8635 MEMB     65       POPC     H7S      HAL2     0.900000E-01   1.00800           0
      8636 MEMB     65       POPC     C28      CTL2    -0.180000       12.0110           0
      8637 MEMB     65       POPC     H8R      HAL2     0.900000E-01   1.00800           0
      8638 MEMB     65       POPC     H8S      HAL2     0.900000E-01   1.00800           0
      8639 MEMB     65       POPC     C29      CEL1    -0.150000       12.0110           0
      8640 MEMB     65       POPC     H91      HEL1     0.150000       1.00800           0
      8641 MEMB     65       POPC     C210     CEL1    -0.150000       12.0110           0
      8642 MEMB     65       POPC     H101     HEL1     0.150000       1.00800           0
      8643 MEMB     65       POPC     C211     CTL2    -0.180000       12.0110           0
      8644 MEMB     65       POPC     H11R     HAL2     0.900000E-01   1.00800           0
      8645 MEMB     65       POPC     H11S     HAL2     0.900000E-01   1.00800           0
      8646 MEMB     65       POPC     C212     CTL2    -0.180000       12.0110           0
      8647 MEMB     65       POPC     H12R     HAL2     0.900000E-01   1.00800           0
      8648 MEMB     65       POPC     H12S     HAL2     0.900000E-01   1.00800           0
      8649 MEMB     65       POPC     C213     CTL2    -0.180000       12.0110           0
      8650 MEMB     65       POPC     H13R     HAL2     0.900000E-01   1.00800           0
      8651 MEMB     65       POPC     H13S     HAL2     0.900000E-01   1.00800           0
      8652 MEMB     65       POPC     C214     CTL2    -0.180000       12.0110           0
      8653 MEMB     65       POPC     H14R     HAL2     0.900000E-01   1.00800           0
      8654 MEMB     65       POPC     H14S     HAL2     0.900000E-01   1.00800           0
      8655 MEMB     65       POPC     C215     CTL2    -0.180000       12.0110           0
      8656 MEMB     65       POPC     H15R     HAL2     0.900000E-01   1.00800           0
      8657 MEMB     65       POPC     H15S     HAL2     0.900000E-01   1.00800           0
      8658 MEMB     65       POPC     C216     CTL2    -0.180000       12.0110           0
      8659 MEMB     65       POPC     H16R     HAL2     0.900000E-01   1.00800           0
      8660 MEMB     65       POPC     H16S     HAL2     0.900000E-01   1.00800           0
      8661 MEMB     65       POPC     C217     CTL2    -0.180000       12.0110           0
      8662 MEMB     65       POPC     H17R     HAL2     0.900000E-01   1.00800           0
      8663 MEMB     65       POPC     H17S     HAL2     0.900000E-01   1.00800           0
      8664 MEMB     65       POPC     C218     CTL3    -0.270000       12.0110           0
      8665 MEMB     65       POPC     H18R     HAL3     0.900000E-01   1.00800           0
      8666 MEMB     65       POPC     H18S     HAL3     0.900000E-01   1.00800           0
      8667 MEMB     65       POPC     H18T     HAL3     0.900000E-01   1.00800           0
      8668 MEMB     65       POPC     C33      CTL2    -0.180000       12.0110           0
      8669 MEMB     65       POPC     H3X      HAL2     0.900000E-01   1.00800           0
      8670 MEMB     65       POPC     H3Y      HAL2     0.900000E-01   1.00800           0
      8671 MEMB     65       POPC     C34      CTL2    -0.180000       12.0110           0
      8672 MEMB     65       POPC     H4X      HAL2     0.900000E-01   1.00800           0
      8673 MEMB     65       POPC     H4Y      HAL2     0.900000E-01   1.00800           0
      8674 MEMB     65       POPC     C35      CTL2    -0.180000       12.0110           0
      8675 MEMB     65       POPC     H5X      HAL2     0.900000E-01   1.00800           0
      8676 MEMB     65       POPC     H5Y      HAL2     0.900000E-01   1.00800           0
      8677 MEMB     65       POPC     C36      CTL2    -0.180000       12.0110           0
      8678 MEMB     65       POPC     H6X      HAL2     0.900000E-01   1.00800           0
      8679 MEMB     65       POPC     H6Y      HAL2     0.900000E-01   1.00800           0
      8680 MEMB     65       POPC     C37      CTL2    -0.180000       12.0110           0
      8681 MEMB     65       POPC     H7X      HAL2     0.900000E-01   1.00800           0
      8682 MEMB     65       POPC     H7Y      HAL2     0.900000E-01   1.00800           0
      8683 MEMB     65       POPC     C38      CTL2    -0.180000       12.0110           0
      8684 MEMB     65       POPC     H8X      HAL2     0.900000E-01   1.00800           0
      8685 MEMB     65       POPC     H8Y      HAL2     0.900000E-01   1.00800           0
      8686 MEMB     65       POPC     C39      CTL2    -0.180000       12.0110           0
      8687 MEMB     65       POPC     H9X      HAL2     0.900000E-01   1.00800           0
      8688 MEMB     65       POPC     H9Y      HAL2     0.900000E-01   1.00800           0
      8689 MEMB     65       POPC     C310     CTL2    -0.180000       12.0110           0
      8690 MEMB     65       POPC     H10X     HAL2     0.900000E-01   1.00800           0
      8691 MEMB     65       POPC     H10Y     HAL2     0.900000E-01   1.00800           0
      8692 MEMB     65       POPC     C311     CTL2    -0.180000       12.0110           0
      8693 MEMB     65       POPC     H11X     HAL2     0.900000E-01   1.00800           0
      8694 MEMB     65       POPC     H11Y     HAL2     0.900000E-01   1.00800           0
      8695 MEMB     65       POPC     C312     CTL2    -0.180000       12.0110           0
      8696 MEMB     65       POPC     H12X     HAL2     0.900000E-01   1.00800           0
      8697 MEMB     65       POPC     H12Y     HAL2     0.900000E-01   1.00800           0
      8698 MEMB     65       POPC     C313     CTL2    -0.180000       12.0110           0
      8699 MEMB     65       POPC     H13X     HAL2     0.900000E-01   1.00800           0
      8700 MEMB     65       POPC     H13Y     HAL2     0.900000E-01   1.00800           0
      8701 MEMB     65       POPC     C314     CTL2    -0.180000       12.0110           0
      8702 MEMB     65       POPC     H14X     HAL2     0.900000E-01   1.00800           0
      8703 MEMB     65       POPC     H14Y     HAL2     0.900000E-01   1.00800           0
      8704 MEMB     65       POPC     C315     CTL2    -0.180000       12.0110           0
      8705 MEMB     65       POPC     H15X     HAL2     0.900000E-01   1.00800           0
      8706 MEMB     65       POPC     H15Y     HAL2     0.900000E-01   1.00800           0
      8707 MEMB     65       POPC     C316     CTL3    -0.270000       12.0110           0
      8708 MEMB     65       POPC     H16X     HAL3     0.900000E-01   1.00800           0
      8709 MEMB     65       POPC     H16Y     HAL3     0.900000E-01   1.00800           0
      8710 MEMB     65       POPC     H16Z     HAL3     0.900000E-01   1.00800           0
      8711 MEMB     66       POPC     N        NTL     -0.600000       14.0070           0
      8712 MEMB     66       POPC     C12      CTL2    -0.100000       12.0110           0
      8713 MEMB     66       POPC     H12A     HL       0.250000       1.00800           0
      8714 MEMB     66       POPC     H12B     HL       0.250000       1.00800           0
      8715 MEMB     66       POPC     C13      CTL5    -0.350000       12.0110           0
      8716 MEMB     66       POPC     H13A     HL       0.250000       1.00800           0
      8717 MEMB     66       POPC     H13B     HL       0.250000       1.00800           0
      8718 MEMB     66       POPC     H13C     HL       0.250000       1.00800           0
      8719 MEMB     66       POPC     C14      CTL5    -0.350000       12.0110           0
      8720 MEMB     66       POPC     H14A     HL       0.250000       1.00800           0
      8721 MEMB     66       POPC     H14B     HL       0.250000       1.00800           0
      8722 MEMB     66       POPC     H14C     HL       0.250000       1.00800           0
      8723 MEMB     66       POPC     C15      CTL5    -0.350000       12.0110           0
      8724 MEMB     66       POPC     H15A     HL       0.250000       1.00800           0
      8725 MEMB     66       POPC     H15B     HL       0.250000       1.00800           0
      8726 MEMB     66       POPC     H15C     HL       0.250000       1.00800           0
      8727 MEMB     66       POPC     C11      CTL2    -0.800000E-01   12.0110           0
      8728 MEMB     66       POPC     H11A     HAL2     0.900000E-01   1.00800           0
      8729 MEMB     66       POPC     H11B     HAL2     0.900000E-01   1.00800           0
      8730 MEMB     66       POPC     P        PL       1.500000       30.9740           0
      8731 MEMB     66       POPC     O13      O2L     -0.780000       15.9994           0
      8732 MEMB     66       POPC     O14      O2L     -0.780000       15.9994           0
      8733 MEMB     66       POPC     O12      OSLP    -0.570000       15.9994           0
      8734 MEMB     66       POPC     O11      OSLP    -0.570000       15.9994           0
      8735 MEMB     66       POPC     C1       CTL2    -0.800000E-01   12.0110           0
      8736 MEMB     66       POPC     HA       HAL2     0.900000E-01   1.00800           0
      8737 MEMB     66       POPC     HB       HAL2     0.900000E-01   1.00800           0
      8738 MEMB     66       POPC     C2       CTL1     0.170000       12.0110           0
      8739 MEMB     66       POPC     HS       HAL1     0.900000E-01   1.00800           0
      8740 MEMB     66       POPC     O21      OSL     -0.490000       15.9994           0
      8741 MEMB     66       POPC     C21      CL       0.900000       12.0110           0
      8742 MEMB     66       POPC     O22      OBL     -0.630000       15.9994           0
      8743 MEMB     66       POPC     C22      CTL2    -0.220000       12.0110           0
      8744 MEMB     66       POPC     H2R      HAL2     0.900000E-01   1.00800           0
      8745 MEMB     66       POPC     H2S      HAL2     0.900000E-01   1.00800           0
      8746 MEMB     66       POPC     C3       CTL2     0.800000E-01   12.0110           0
      8747 MEMB     66       POPC     HX       HAL2     0.900000E-01   1.00800           0
      8748 MEMB     66       POPC     HY       HAL2     0.900000E-01   1.00800           0
      8749 MEMB     66       POPC     O31      OSL     -0.490000       15.9994           0
      8750 MEMB     66       POPC     C31      CL       0.900000       12.0110           0
      8751 MEMB     66       POPC     O32      OBL     -0.630000       15.9994           0
      8752 MEMB     66       POPC     C32      CTL2    -0.220000       12.0110           0
      8753 MEMB     66       POPC     H2X      HAL2     0.900000E-01   1.00800           0
      8754 MEMB     66       POPC     H2Y      HAL2     0.900000E-01   1.00800           0
      8755 MEMB     66       POPC     C23      CTL2    -0.180000       12.0110           0
      8756 MEMB     66       POPC     H3R      HAL2     0.900000E-01   1.00800           0
      8757 MEMB     66       POPC     H3S      HAL2     0.900000E-01   1.00800           0
      8758 MEMB     66       POPC     C24      CTL2    -0.180000       12.0110           0
      8759 MEMB     66       POPC     H4R      HAL2     0.900000E-01   1.00800           0
      8760 MEMB     66       POPC     H4S      HAL2     0.900000E-01   1.00800           0
      8761 MEMB     66       POPC     C25      CTL2    -0.180000       12.0110           0
      8762 MEMB     66       POPC     H5R      HAL2     0.900000E-01   1.00800           0
      8763 MEMB     66       POPC     H5S      HAL2     0.900000E-01   1.00800           0
      8764 MEMB     66       POPC     C26      CTL2    -0.180000       12.0110           0
      8765 MEMB     66       POPC     H6R      HAL2     0.900000E-01   1.00800           0
      8766 MEMB     66       POPC     H6S      HAL2     0.900000E-01   1.00800           0
      8767 MEMB     66       POPC     C27      CTL2    -0.180000       12.0110           0
      8768 MEMB     66       POPC     H7R      HAL2     0.900000E-01   1.00800           0
      8769 MEMB     66       POPC     H7S      HAL2     0.900000E-01   1.00800           0
      8770 MEMB     66       POPC     C28      CTL2    -0.180000       12.0110           0
      8771 MEMB     66       POPC     H8R      HAL2     0.900000E-01   1.00800           0
      8772 MEMB     66       POPC     H8S      HAL2     0.900000E-01   1.00800           0
      8773 MEMB     66       POPC     C29      CEL1    -0.150000       12.0110           0
      8774 MEMB     66       POPC     H91      HEL1     0.150000       1.00800           0
      8775 MEMB     66       POPC     C210     CEL1    -0.150000       12.0110           0
      8776 MEMB     66       POPC     H101     HEL1     0.150000       1.00800           0
      8777 MEMB     66       POPC     C211     CTL2    -0.180000       12.0110           0
      8778 MEMB     66       POPC     H11R     HAL2     0.900000E-01   1.00800           0
      8779 MEMB     66       POPC     H11S     HAL2     0.900000E-01   1.00800           0
      8780 MEMB     66       POPC     C212     CTL2    -0.180000       12.0110           0
      8781 MEMB     66       POPC     H12R     HAL2     0.900000E-01   1.00800           0
      8782 MEMB     66       POPC     H12S     HAL2     0.900000E-01   1.00800           0
      8783 MEMB     66       POPC     C213     CTL2    -0.180000       12.0110           0
      8784 MEMB     66       POPC     H13R     HAL2     0.900000E-01   1.00800           0
      8785 MEMB     66       POPC     H13S     HAL2     0.900000E-01   1.00800           0
      8786 MEMB     66       POPC     C214     CTL2    -0.180000       12.0110           0
      8787 MEMB     66       POPC     H14R     HAL2     0.900000E-01   1.00800           0
      8788 MEMB     66       POPC     H14S     HAL2     0.900000E-01   1.00800           0
      8789 MEMB     66       POPC     C215     CTL2    -0.180000       12.0110           0
      8790 MEMB     66       POPC     H15R     HAL2     0.900000E-01   1.00800           0
      8791 MEMB     66       POPC     H15S     HAL2     0.900000E-01   1.00800           0
      8792 MEMB     66       POPC     C216     CTL2    -0.180000       12.0110           0
      8793 MEMB     66       POPC     H16R     HAL2     0.900000E-01   1.00800           0
      8794 MEMB     66       POPC     H16S     HAL2     0.900000E-01   1.00800           0
      8795 MEMB     66       POPC     C217     CTL2    -0.180000       12.0110           0
      8796 MEMB     66       POPC     H17R     HAL2     0.900000E-01   1.00800           0
      8797 MEMB     66       POPC     H17S     HAL2     0.900000E-01   1.00800           0
      8798 MEMB     66       POPC     C218     CTL3    -0.270000       12.0110           0
      8799 MEMB     66       POPC     H18R     HAL3     0.900000E-01   1.00800           0
      8800 MEMB     66       POPC     H18S     HAL3     0.900000E-01   1.00800           0
      8801 MEMB     66       POPC     H18T     HAL3     0.900000E-01   1.00800           0
      8802 MEMB     66       POPC     C33      CTL2    -0.180000       12.0110           0
      8803 MEMB     66       POPC     H3X      HAL2     0.900000E-01   1.00800           0
      8804 MEMB     66       POPC     H3Y      HAL2     0.900000E-01   1.00800           0
      8805 MEMB     66       POPC     C34      CTL2    -0.180000       12.0110           0
      8806 MEMB     66       POPC     H4X      HAL2     0.900000E-01   1.00800           0
      8807 MEMB     66       POPC     H4Y      HAL2     0.900000E-01   1.00800           0
      8808 MEMB     66       POPC     C35      CTL2    -0.180000       12.0110           0
      8809 MEMB     66       POPC     H5X      HAL2     0.900000E-01   1.00800           0
      8810 MEMB     66       POPC     H5Y      HAL2     0.900000E-01   1.00800           0
      8811 MEMB     66       POPC     C36      CTL2    -0.180000       12.0110           0
      8812 MEMB     66       POPC     H6X      HAL2     0.900000E-01   1.00800           0
      8813 MEMB     66       POPC     H6Y      HAL2     0.900000E-01   1.00800           0
      8814 MEMB     66       POPC     C37      CTL2    -0.180000       12.0110           0
      8815 MEMB     66       POPC     H7X      HAL2     0.900000E-01   1.00800           0
      8816 MEMB     66       POPC     H7Y      HAL2     0.900000E-01   1.00800           0
      8817 MEMB     66       POPC     C38      CTL2    -0.180000       12.0110           0
      8818 MEMB     66       POPC     H8X      HAL2     0.900000E-01   1.00800           0
      8819 MEMB     66       POPC     H8Y      HAL2     0.900000E-01   1.00800           0
      8820 MEMB     66       POPC     C39      CTL2    -0.180000       12.0110           0
      8821 MEMB     66       POPC     H9X      HAL2     0.900000E-01   1.00800           0
      8822 MEMB     66       POPC     H9Y      HAL2     0.900000E-01   1.00800           0
      8823 MEMB     66       POPC     C310     CTL2    -0.180000       12.0110           0
      8824 MEMB     66       POPC     H10X     HAL2     0.900000E-01   1.00800           0
      8825 MEMB     66       POPC     H10Y     HAL2     0.900000E-01   1.00800           0
      8826 MEMB     66       POPC     C311     CTL2    -0.180000       12.0110           0
      8827 MEMB     66       POPC     H11X     HAL2     0.900000E-01   1.00800           0
      8828 MEMB     66       POPC     H11Y     HAL2     0.900000E-01   1.00800           0
      8829 MEMB     66       POPC     C312     CTL2    -0.180000       12.0110           0
      8830 MEMB     66       POPC     H12X     HAL2     0.900000E-01   1.00800           0
      8831 MEMB     66       POPC     H12Y     HAL2     0.900000E-01   1.00800           0
      8832 MEMB     66       POPC     C313     CTL2    -0.180000       12.0110           0
      8833 MEMB     66       POPC     H13X     HAL2     0.900000E-01   1.00800           0
      8834 MEMB     66       POPC     H13Y     HAL2     0.900000E-01   1.00800           0
      8835 MEMB     66       POPC     C314     CTL2    -0.180000       12.0110           0
      8836 MEMB     66       POPC     H14X     HAL2     0.900000E-01   1.00800           0
      8837 MEMB     66       POPC     H14Y     HAL2     0.900000E-01   1.00800           0
      8838 MEMB     66       POPC     C315     CTL2    -0.180000       12.0110           0
      8839 MEMB     66       POPC     H15X     HAL2     0.900000E-01   1.00800           0
      8840 MEMB     66       POPC     H15Y     HAL2     0.900000E-01   1.00800           0
      8841 MEMB     66       POPC     C316     CTL3    -0.270000       12.0110           0
      8842 MEMB     66       POPC     H16X     HAL3     0.900000E-01   1.00800           0
      8843 MEMB     66       POPC     H16Y     HAL3     0.900000E-01   1.00800           0
      8844 MEMB     66       POPC     H16Z     HAL3     0.900000E-01   1.00800           0
      8845 MEMB     67       POPC     N        NTL     -0.600000       14.0070           0
      8846 MEMB     67       POPC     C12      CTL2    -0.100000       12.0110           0
      8847 MEMB     67       POPC     H12A     HL       0.250000       1.00800           0
      8848 MEMB     67       POPC     H12B     HL       0.250000       1.00800           0
      8849 MEMB     67       POPC     C13      CTL5    -0.350000       12.0110           0
      8850 MEMB     67       POPC     H13A     HL       0.250000       1.00800           0
      8851 MEMB     67       POPC     H13B     HL       0.250000       1.00800           0
      8852 MEMB     67       POPC     H13C     HL       0.250000       1.00800           0
      8853 MEMB     67       POPC     C14      CTL5    -0.350000       12.0110           0
      8854 MEMB     67       POPC     H14A     HL       0.250000       1.00800           0
      8855 MEMB     67       POPC     H14B     HL       0.250000       1.00800           0
      8856 MEMB     67       POPC     H14C     HL       0.250000       1.00800           0
      8857 MEMB     67       POPC     C15      CTL5    -0.350000       12.0110           0
      8858 MEMB     67       POPC     H15A     HL       0.250000       1.00800           0
      8859 MEMB     67       POPC     H15B     HL       0.250000       1.00800           0
      8860 MEMB     67       POPC     H15C     HL       0.250000       1.00800           0
      8861 MEMB     67       POPC     C11      CTL2    -0.800000E-01   12.0110           0
      8862 MEMB     67       POPC     H11A     HAL2     0.900000E-01   1.00800           0
      8863 MEMB     67       POPC     H11B     HAL2     0.900000E-01   1.00800           0
      8864 MEMB     67       POPC     P        PL       1.500000       30.9740           0
      8865 MEMB     67       POPC     O13      O2L     -0.780000       15.9994           0
      8866 MEMB     67       POPC     O14      O2L     -0.780000       15.9994           0
      8867 MEMB     67       POPC     O12      OSLP    -0.570000       15.9994           0
      8868 MEMB     67       POPC     O11      OSLP    -0.570000       15.9994           0
      8869 MEMB     67       POPC     C1       CTL2    -0.800000E-01   12.0110           0
      8870 MEMB     67       POPC     HA       HAL2     0.900000E-01   1.00800           0
      8871 MEMB     67       POPC     HB       HAL2     0.900000E-01   1.00800           0
      8872 MEMB     67       POPC     C2       CTL1     0.170000       12.0110           0
      8873 MEMB     67       POPC     HS       HAL1     0.900000E-01   1.00800           0
      8874 MEMB     67       POPC     O21      OSL     -0.490000       15.9994           0
      8875 MEMB     67       POPC     C21      CL       0.900000       12.0110           0
      8876 MEMB     67       POPC     O22      OBL     -0.630000       15.9994           0
      8877 MEMB     67       POPC     C22      CTL2    -0.220000       12.0110           0
      8878 MEMB     67       POPC     H2R      HAL2     0.900000E-01   1.00800           0
      8879 MEMB     67       POPC     H2S      HAL2     0.900000E-01   1.00800           0
      8880 MEMB     67       POPC     C3       CTL2     0.800000E-01   12.0110           0
      8881 MEMB     67       POPC     HX       HAL2     0.900000E-01   1.00800           0
      8882 MEMB     67       POPC     HY       HAL2     0.900000E-01   1.00800           0
      8883 MEMB     67       POPC     O31      OSL     -0.490000       15.9994           0
      8884 MEMB     67       POPC     C31      CL       0.900000       12.0110           0
      8885 MEMB     67       POPC     O32      OBL     -0.630000       15.9994           0
      8886 MEMB     67       POPC     C32      CTL2    -0.220000       12.0110           0
      8887 MEMB     67       POPC     H2X      HAL2     0.900000E-01   1.00800           0
      8888 MEMB     67       POPC     H2Y      HAL2     0.900000E-01   1.00800           0
      8889 MEMB     67       POPC     C23      CTL2    -0.180000       12.0110           0
      8890 MEMB     67       POPC     H3R      HAL2     0.900000E-01   1.00800           0
      8891 MEMB     67       POPC     H3S      HAL2     0.900000E-01   1.00800           0
      8892 MEMB     67       POPC     C24      CTL2    -0.180000       12.0110           0
      8893 MEMB     67       POPC     H4R      HAL2     0.900000E-01   1.00800           0
      8894 MEMB     67       POPC     H4S      HAL2     0.900000E-01   1.00800           0
      8895 MEMB     67       POPC     C25      CTL2    -0.180000       12.0110           0
      8896 MEMB     67       POPC     H5R      HAL2     0.900000E-01   1.00800           0
      8897 MEMB     67       POPC     H5S      HAL2     0.900000E-01   1.00800           0
      8898 MEMB     67       POPC     C26      CTL2    -0.180000       12.0110           0
      8899 MEMB     67       POPC     H6R      HAL2     0.900000E-01   1.00800           0
      8900 MEMB     67       POPC     H6S      HAL2     0.900000E-01   1.00800           0
      8901 MEMB     67       POPC     C27      CTL2    -0.180000       12.0110           0
      8902 MEMB     67       POPC     H7R      HAL2     0.900000E-01   1.00800           0
      8903 MEMB     67       POPC     H7S      HAL2     0.900000E-01   1.00800           0
      8904 MEMB     67       POPC     C28      CTL2    -0.180000       12.0110           0
      8905 MEMB     67       POPC     H8R      HAL2     0.900000E-01   1.00800           0
      8906 MEMB     67       POPC     H8S      HAL2     0.900000E-01   1.00800           0
      8907 MEMB     67       POPC     C29      CEL1    -0.150000       12.0110           0
      8908 MEMB     67       POPC     H91      HEL1     0.150000       1.00800           0
      8909 MEMB     67       POPC     C210     CEL1    -0.150000       12.0110           0
      8910 MEMB     67       POPC     H101     HEL1     0.150000       1.00800           0
      8911 MEMB     67       POPC     C211     CTL2    -0.180000       12.0110           0
      8912 MEMB     67       POPC     H11R     HAL2     0.900000E-01   1.00800           0
      8913 MEMB     67       POPC     H11S     HAL2     0.900000E-01   1.00800           0
      8914 MEMB     67       POPC     C212     CTL2    -0.180000       12.0110           0
      8915 MEMB     67       POPC     H12R     HAL2     0.900000E-01   1.00800           0
      8916 MEMB     67       POPC     H12S     HAL2     0.900000E-01   1.00800           0
      8917 MEMB     67       POPC     C213     CTL2    -0.180000       12.0110           0
      8918 MEMB     67       POPC     H13R     HAL2     0.900000E-01   1.00800           0
      8919 MEMB     67       POPC     H13S     HAL2     0.900000E-01   1.00800           0
      8920 MEMB     67       POPC     C214     CTL2    -0.180000       12.0110           0
      8921 MEMB     67       POPC     H14R     HAL2     0.900000E-01   1.00800           0
      8922 MEMB     67       POPC     H14S     HAL2     0.900000E-01   1.00800           0
      8923 MEMB     67       POPC     C215     CTL2    -0.180000       12.0110           0
      8924 MEMB     67       POPC     H15R     HAL2     0.900000E-01   1.00800           0
      8925 MEMB     67       POPC     H15S     HAL2     0.900000E-01   1.00800           0
      8926 MEMB     67       POPC     C216     CTL2    -0.180000       12.0110           0
      8927 MEMB     67       POPC     H16R     HAL2     0.900000E-01   1.00800           0
      8928 MEMB     67       POPC     H16S     HAL2     0.900000E-01   1.00800           0
      8929 MEMB     67       POPC     C217     CTL2    -0.180000       12.0110           0
      8930 MEMB     67       POPC     H17R     HAL2     0.900000E-01   1.00800           0
      8931 MEMB     67       POPC     H17S     HAL2     0.900000E-01   1.00800           0
      8932 MEMB     67       POPC     C218     CTL3    -0.270000       12.0110           0
      8933 MEMB     67       POPC     H18R     HAL3     0.900000E-01   1.00800           0
      8934 MEMB     67       POPC     H18S     HAL3     0.900000E-01   1.00800           0
      8935 MEMB     67       POPC     H18T     HAL3     0.900000E-01   1.00800           0
      8936 MEMB     67       POPC     C33      CTL2    -0.180000       12.0110           0
      8937 MEMB     67       POPC     H3X      HAL2     0.900000E-01   1.00800           0
      8938 MEMB     67       POPC     H3Y      HAL2     0.900000E-01   1.00800           0
      8939 MEMB     67       POPC     C34      CTL2    -0.180000       12.0110           0
      8940 MEMB     67       POPC     H4X      HAL2     0.900000E-01   1.00800           0
      8941 MEMB     67       POPC     H4Y      HAL2     0.900000E-01   1.00800           0
      8942 MEMB     67       POPC     C35      CTL2    -0.180000       12.0110           0
      8943 MEMB     67       POPC     H5X      HAL2     0.900000E-01   1.00800           0
      8944 MEMB     67       POPC     H5Y      HAL2     0.900000E-01   1.00800           0
      8945 MEMB     67       POPC     C36      CTL2    -0.180000       12.0110           0
      8946 MEMB     67       POPC     H6X      HAL2     0.900000E-01   1.00800           0
      8947 MEMB     67       POPC     H6Y      HAL2     0.900000E-01   1.00800           0
      8948 MEMB     67       POPC     C37      CTL2    -0.180000       12.0110           0
      8949 MEMB     67       POPC     H7X      HAL2     0.900000E-01   1.00800           0
      8950 MEMB     67       POPC     H7Y      HAL2     0.900000E-01   1.00800           0
      8951 MEMB     67       POPC     C38      CTL2    -0.180000       12.0110           0
      8952 MEMB     67       POPC     H8X      HAL2     0.900000E-01   1.00800           0
      8953 MEMB     67       POPC     H8Y      HAL2     0.900000E-01   1.00800           0
      8954 MEMB     67       POPC     C39      CTL2    -0.180000       12.0110           0
      8955 MEMB     67       POPC     H9X      HAL2     0.900000E-01   1.00800           0
      8956 MEMB     67       POPC     H9Y      HAL2     0.900000E-01   1.00800           0
      8957 MEMB     67       POPC     C310     CTL2    -0.180000       12.0110           0
      8958 MEMB     67       POPC     H10X     HAL2     0.900000E-01   1.00800           0
      8959 MEMB     67       POPC     H10Y     HAL2     0.900000E-01   1.00800           0
      8960 MEMB     67       POPC     C311     CTL2    -0.180000       12.0110           0
      8961 MEMB     67       POPC     H11X     HAL2     0.900000E-01   1.00800           0
      8962 MEMB     67       POPC     H11Y     HAL2     0.900000E-01   1.00800           0
      8963 MEMB     67       POPC     C312     CTL2    -0.180000       12.0110           0
      8964 MEMB     67       POPC     H12X     HAL2     0.900000E-01   1.00800           0
      8965 MEMB     67       POPC     H12Y     HAL2     0.900000E-01   1.00800           0
      8966 MEMB     67       POPC     C313     CTL2    -0.180000       12.0110           0
      8967 MEMB     67       POPC     H13X     HAL2     0.900000E-01   1.00800           0
      8968 MEMB     67       POPC     H13Y     HAL2     0.900000E-01   1.00800           0
      8969 MEMB     67       POPC     C314     CTL2    -0.180000       12.0110           0
      8970 MEMB     67       POPC     H14X     HAL2     0.900000E-01   1.00800           0
      8971 MEMB     67       POPC     H14Y     HAL2     0.900000E-01   1.00800           0
      8972 MEMB     67       POPC     C315     CTL2    -0.180000       12.0110           0
      8973 MEMB     67       POPC     H15X     HAL2     0.900000E-01   1.00800           0
      8974 MEMB     67       POPC     H15Y     HAL2     0.900000E-01   1.00800           0
      8975 MEMB     67       POPC     C316     CTL3    -0.270000       12.0110           0
      8976 MEMB     67       POPC     H16X     HAL3     0.900000E-01   1.00800           0
      8977 MEMB     67       POPC     H16Y     HAL3     0.900000E-01   1.00800           0
      8978 MEMB     67       POPC     H16Z     HAL3     0.900000E-01   1.00800           0
      8979 MEMB     68       POPC     N        NTL     -0.600000       14.0070           0
      8980 MEMB     68       POPC     C12      CTL2    -0.100000       12.0110           0
      8981 MEMB     68       POPC     H12A     HL       0.250000       1.00800           0
      8982 MEMB     68       POPC     H12B     HL       0.250000       1.00800           0
      8983 MEMB     68       POPC     C13      CTL5    -0.350000       12.0110           0
      8984 MEMB     68       POPC     H13A     HL       0.250000       1.00800           0
      8985 MEMB     68       POPC     H13B     HL       0.250000       1.00800           0
      8986 MEMB     68       POPC     H13C     HL       0.250000       1.00800           0
      8987 MEMB     68       POPC     C14      CTL5    -0.350000       12.0110           0
      8988 MEMB     68       POPC     H14A     HL       0.250000       1.00800           0
      8989 MEMB     68       POPC     H14B     HL       0.250000       1.00800           0
      8990 MEMB     68       POPC     H14C     HL       0.250000       1.00800           0
      8991 MEMB     68       POPC     C15      CTL5    -0.350000       12.0110           0
      8992 MEMB     68       POPC     H15A     HL       0.250000       1.00800           0
      8993 MEMB     68       POPC     H15B     HL       0.250000       1.00800           0
      8994 MEMB     68       POPC     H15C     HL       0.250000       1.00800           0
      8995 MEMB     68       POPC     C11      CTL2    -0.800000E-01   12.0110           0
      8996 MEMB     68       POPC     H11A     HAL2     0.900000E-01   1.00800           0
      8997 MEMB     68       POPC     H11B     HAL2     0.900000E-01   1.00800           0
      8998 MEMB     68       POPC     P        PL       1.500000       30.9740           0
      8999 MEMB     68       POPC     O13      O2L     -0.780000       15.9994           0
      9000 MEMB     68       POPC     O14      O2L     -0.780000       15.9994           0
      9001 MEMB     68       POPC     O12      OSLP    -0.570000       15.9994           0
      9002 MEMB     68       POPC     O11      OSLP    -0.570000       15.9994           0
      9003 MEMB     68       POPC     C1       CTL2    -0.800000E-01   12.0110           0
      9004 MEMB     68       POPC     HA       HAL2     0.900000E-01   1.00800           0
      9005 MEMB     68       POPC     HB       HAL2     0.900000E-01   1.00800           0
      9006 MEMB     68       POPC     C2       CTL1     0.170000       12.0110           0
      9007 MEMB     68       POPC     HS       HAL1     0.900000E-01   1.00800           0
      9008 MEMB     68       POPC     O21      OSL     -0.490000       15.9994           0
      9009 MEMB     68       POPC     C21      CL       0.900000       12.0110           0
      9010 MEMB     68       POPC     O22      OBL     -0.630000       15.9994           0
      9011 MEMB     68       POPC     C22      CTL2    -0.220000       12.0110           0
      9012 MEMB     68       POPC     H2R      HAL2     0.900000E-01   1.00800           0
      9013 MEMB     68       POPC     H2S      HAL2     0.900000E-01   1.00800           0
      9014 MEMB     68       POPC     C3       CTL2     0.800000E-01   12.0110           0
      9015 MEMB     68       POPC     HX       HAL2     0.900000E-01   1.00800           0
      9016 MEMB     68       POPC     HY       HAL2     0.900000E-01   1.00800           0
      9017 MEMB     68       POPC     O31      OSL     -0.490000       15.9994           0
      9018 MEMB     68       POPC     C31      CL       0.900000       12.0110           0
      9019 MEMB     68       POPC     O32      OBL     -0.630000       15.9994           0
      9020 MEMB     68       POPC     C32      CTL2    -0.220000       12.0110           0
      9021 MEMB     68       POPC     H2X      HAL2     0.900000E-01   1.00800           0
      9022 MEMB     68       POPC     H2Y      HAL2     0.900000E-01   1.00800           0
      9023 MEMB     68       POPC     C23      CTL2    -0.180000       12.0110           0
      9024 MEMB     68       POPC     H3R      HAL2     0.900000E-01   1.00800           0
      9025 MEMB     68       POPC     H3S      HAL2     0.900000E-01   1.00800           0
      9026 MEMB     68       POPC     C24      CTL2    -0.180000       12.0110           0
      9027 MEMB     68       POPC     H4R      HAL2     0.900000E-01   1.00800           0
      9028 MEMB     68       POPC     H4S      HAL2     0.900000E-01   1.00800           0
      9029 MEMB     68       POPC     C25      CTL2    -0.180000       12.0110           0
      9030 MEMB     68       POPC     H5R      HAL2     0.900000E-01   1.00800           0
      9031 MEMB     68       POPC     H5S      HAL2     0.900000E-01   1.00800           0
      9032 MEMB     68       POPC     C26      CTL2    -0.180000       12.0110           0
      9033 MEMB     68       POPC     H6R      HAL2     0.900000E-01   1.00800           0
      9034 MEMB     68       POPC     H6S      HAL2     0.900000E-01   1.00800           0
      9035 MEMB     68       POPC     C27      CTL2    -0.180000       12.0110           0
      9036 MEMB     68       POPC     H7R      HAL2     0.900000E-01   1.00800           0
      9037 MEMB     68       POPC     H7S      HAL2     0.900000E-01   1.00800           0
      9038 MEMB     68       POPC     C28      CTL2    -0.180000       12.0110           0
      9039 MEMB     68       POPC     H8R      HAL2     0.900000E-01   1.00800           0
      9040 MEMB     68       POPC     H8S      HAL2     0.900000E-01   1.00800           0
      9041 MEMB     68       POPC     C29      CEL1    -0.150000       12.0110           0
      9042 MEMB     68       POPC     H91      HEL1     0.150000       1.00800           0
      9043 MEMB     68       POPC     C210     CEL1    -0.150000       12.0110           0
      9044 MEMB     68       POPC     H101     HEL1     0.150000       1.00800           0
      9045 MEMB     68       POPC     C211     CTL2    -0.180000       12.0110           0
      9046 MEMB     68       POPC     H11R     HAL2     0.900000E-01   1.00800           0
      9047 MEMB     68       POPC     H11S     HAL2     0.900000E-01   1.00800           0
      9048 MEMB     68       POPC     C212     CTL2    -0.180000       12.0110           0
      9049 MEMB     68       POPC     H12R     HAL2     0.900000E-01   1.00800           0
      9050 MEMB     68       POPC     H12S     HAL2     0.900000E-01   1.00800           0
      9051 MEMB     68       POPC     C213     CTL2    -0.180000       12.0110           0
      9052 MEMB     68       POPC     H13R     HAL2     0.900000E-01   1.00800           0
      9053 MEMB     68       POPC     H13S     HAL2     0.900000E-01   1.00800           0
      9054 MEMB     68       POPC     C214     CTL2    -0.180000       12.0110           0
      9055 MEMB     68       POPC     H14R     HAL2     0.900000E-01   1.00800           0
      9056 MEMB     68       POPC     H14S     HAL2     0.900000E-01   1.00800           0
      9057 MEMB     68       POPC     C215     CTL2    -0.180000       12.0110           0
      9058 MEMB     68       POPC     H15R     HAL2     0.900000E-01   1.00800           0
      9059 MEMB     68       POPC     H15S     HAL2     0.900000E-01   1.00800           0
      9060 MEMB     68       POPC     C216     CTL2    -0.180000       12.0110           0
      9061 MEMB     68       POPC     H16R     HAL2     0.900000E-01   1.00800           0
      9062 MEMB     68       POPC     H16S     HAL2     0.900000E-01   1.00800           0
      9063 MEMB     68       POPC     C217     CTL2    -0.180000       12.0110           0
      9064 MEMB     68       POPC     H17R     HAL2     0.900000E-01   1.00800           0
      9065 MEMB     68       POPC     H17S     HAL2     0.900000E-01   1.00800           0
      9066 MEMB     68       POPC     C218     CTL3    -0.270000       12.0110           0
      9067 MEMB     68       POPC     H18R     HAL3     0.900000E-01   1.00800           0
      9068 MEMB     68       POPC     H18S     HAL3     0.900000E-01   1.00800           0
      9069 MEMB     68       POPC     H18T     HAL3     0.900000E-01   1.00800           0
      9070 MEMB     68       POPC     C33      CTL2    -0.180000       12.0110           0
      9071 MEMB     68       POPC     H3X      HAL2     0.900000E-01   1.00800           0
      9072 MEMB     68       POPC     H3Y      HAL2     0.900000E-01   1.00800           0
      9073 MEMB     68       POPC     C34      CTL2    -0.180000       12.0110           0
      9074 MEMB     68       POPC     H4X      HAL2     0.900000E-01   1.00800           0
      9075 MEMB     68       POPC     H4Y      HAL2     0.900000E-01   1.00800           0
      9076 MEMB     68       POPC     C35      CTL2    -0.180000       12.0110           0
      9077 MEMB     68       POPC     H5X      HAL2     0.900000E-01   1.00800           0
      9078 MEMB     68       POPC     H5Y      HAL2     0.900000E-01   1.00800           0
      9079 MEMB     68       POPC     C36      CTL2    -0.180000       12.0110           0
      9080 MEMB     68       POPC     H6X      HAL2     0.900000E-01   1.00800           0
      9081 MEMB     68       POPC     H6Y      HAL2     0.900000E-01   1.00800           0
      9082 MEMB     68       POPC     C37      CTL2    -0.180000       12.0110           0
      9083 MEMB     68       POPC     H7X      HAL2     0.900000E-01   1.00800           0
      9084 MEMB     68       POPC     H7Y      HAL2     0.900000E-01   1.00800           0
      9085 MEMB     68       POPC     C38      CTL2    -0.180000       12.0110           0
      9086 MEMB     68       POPC     H8X      HAL2     0.900000E-01   1.00800           0
      9087 MEMB     68       POPC     H8Y      HAL2     0.900000E-01   1.00800           0
      9088 MEMB     68       POPC     C39      CTL2    -0.180000       12.0110           0
      9089 MEMB     68       POPC     H9X      HAL2     0.900000E-01   1.00800           0
      9090 MEMB     68       POPC     H9Y      HAL2     0.900000E-01   1.00800           0
      9091 MEMB     68       POPC     C310     CTL2    -0.180000       12.0110           0
      9092 MEMB     68       POPC     H10X     HAL2     0.900000E-01   1.00800           0
      9093 MEMB     68       POPC     H10Y     HAL2     0.900000E-01   1.00800           0
      9094 MEMB     68       POPC     C311     CTL2    -0.180000       12.0110           0
      9095 MEMB     68       POPC     H11X     HAL2     0.900000E-01   1.00800           0
      9096 MEMB     68       POPC     H11Y     HAL2     0.900000E-01   1.00800           0
      9097 MEMB     68       POPC     C312     CTL2    -0.180000       12.0110           0
      9098 MEMB     68       POPC     H12X     HAL2     0.900000E-01   1.00800           0
      9099 MEMB     68       POPC     H12Y     HAL2     0.900000E-01   1.00800           0
      9100 MEMB     68       POPC     C313     CTL2    -0.180000       12.0110           0
      9101 MEMB     68       POPC     H13X     HAL2     0.900000E-01   1.00800           0
      9102 MEMB     68       POPC     H13Y     HAL2     0.900000E-01   1.00800           0
      9103 MEMB     68       POPC     C314     CTL2    -0.180000       12.0110           0
      9104 MEMB     68       POPC     H14X     HAL2     0.900000E-01   1.00800           0
      9105 MEMB     68       POPC     H14Y     HAL2     0.900000E-01   1.00800           0
      9106 MEMB     68       POPC     C315     CTL2    -0.180000       12.0110           0
      9107 MEMB     68       POPC     H15X     HAL2     0.900000E-01   1.00800           0
      9108 MEMB     68       POPC     H15Y     HAL2     0.900000E-01   1.00800           0
      9109 MEMB     68       POPC     C316     CTL3    -0.270000       12.0110           0
      9110 MEMB     68       POPC     H16X     HAL3     0.900000E-01   1.00800           0
      9111 MEMB     68       POPC     H16Y     HAL3     0.900000E-01   1.00800           0
      9112 MEMB     68       POPC     H16Z     HAL3     0.900000E-01   1.00800           0
      9113 MEMB     69       POPC     N        NTL     -0.600000       14.0070           0
      9114 MEMB     69       POPC     C12      CTL2    -0.100000       12.0110           0
      9115 MEMB     69       POPC     H12A     HL       0.250000       1.00800           0
      9116 MEMB     69       POPC     H12B     HL       0.250000       1.00800           0
      9117 MEMB     69       POPC     C13      CTL5    -0.350000       12.0110           0
      9118 MEMB     69       POPC     H13A     HL       0.250000       1.00800           0
      9119 MEMB     69       POPC     H13B     HL       0.250000       1.00800           0
      9120 MEMB     69       POPC     H13C     HL       0.250000       1.00800           0
      9121 MEMB     69       POPC     C14      CTL5    -0.350000       12.0110           0
      9122 MEMB     69       POPC     H14A     HL       0.250000       1.00800           0
      9123 MEMB     69       POPC     H14B     HL       0.250000       1.00800           0
      9124 MEMB     69       POPC     H14C     HL       0.250000       1.00800           0
      9125 MEMB     69       POPC     C15      CTL5    -0.350000       12.0110           0
      9126 MEMB     69       POPC     H15A     HL       0.250000       1.00800           0
      9127 MEMB     69       POPC     H15B     HL       0.250000       1.00800           0
      9128 MEMB     69       POPC     H15C     HL       0.250000       1.00800           0
      9129 MEMB     69       POPC     C11      CTL2    -0.800000E-01   12.0110           0
      9130 MEMB     69       POPC     H11A     HAL2     0.900000E-01   1.00800           0
      9131 MEMB     69       POPC     H11B     HAL2     0.900000E-01   1.00800           0
      9132 MEMB     69       POPC     P        PL       1.500000       30.9740           0
      9133 MEMB     69       POPC     O13      O2L     -0.780000       15.9994           0
      9134 MEMB     69       POPC     O14      O2L     -0.780000       15.9994           0
      9135 MEMB     69       POPC     O12      OSLP    -0.570000       15.9994           0
      9136 MEMB     69       POPC     O11      OSLP    -0.570000       15.9994           0
      9137 MEMB     69       POPC     C1       CTL2    -0.800000E-01   12.0110           0
      9138 MEMB     69       POPC     HA       HAL2     0.900000E-01   1.00800           0
      9139 MEMB     69       POPC     HB       HAL2     0.900000E-01   1.00800           0
      9140 MEMB     69       POPC     C2       CTL1     0.170000       12.0110           0
      9141 MEMB     69       POPC     HS       HAL1     0.900000E-01   1.00800           0
      9142 MEMB     69       POPC     O21      OSL     -0.490000       15.9994           0
      9143 MEMB     69       POPC     C21      CL       0.900000       12.0110           0
      9144 MEMB     69       POPC     O22      OBL     -0.630000       15.9994           0
      9145 MEMB     69       POPC     C22      CTL2    -0.220000       12.0110           0
      9146 MEMB     69       POPC     H2R      HAL2     0.900000E-01   1.00800           0
      9147 MEMB     69       POPC     H2S      HAL2     0.900000E-01   1.00800           0
      9148 MEMB     69       POPC     C3       CTL2     0.800000E-01   12.0110           0
      9149 MEMB     69       POPC     HX       HAL2     0.900000E-01   1.00800           0
      9150 MEMB     69       POPC     HY       HAL2     0.900000E-01   1.00800           0
      9151 MEMB     69       POPC     O31      OSL     -0.490000       15.9994           0
      9152 MEMB     69       POPC     C31      CL       0.900000       12.0110           0
      9153 MEMB     69       POPC     O32      OBL     -0.630000       15.9994           0
      9154 MEMB     69       POPC     C32      CTL2    -0.220000       12.0110           0
      9155 MEMB     69       POPC     H2X      HAL2     0.900000E-01   1.00800           0
      9156 MEMB     69       POPC     H2Y      HAL2     0.900000E-01   1.00800           0
      9157 MEMB     69       POPC     C23      CTL2    -0.180000       12.0110           0
      9158 MEMB     69       POPC     H3R      HAL2     0.900000E-01   1.00800           0
      9159 MEMB     69       POPC     H3S      HAL2     0.900000E-01   1.00800           0
      9160 MEMB     69       POPC     C24      CTL2    -0.180000       12.0110           0
      9161 MEMB     69       POPC     H4R      HAL2     0.900000E-01   1.00800           0
      9162 MEMB     69       POPC     H4S      HAL2     0.900000E-01   1.00800           0
      9163 MEMB     69       POPC     C25      CTL2    -0.180000       12.0110           0
      9164 MEMB     69       POPC     H5R      HAL2     0.900000E-01   1.00800           0
      9165 MEMB     69       POPC     H5S      HAL2     0.900000E-01   1.00800           0
      9166 MEMB     69       POPC     C26      CTL2    -0.180000       12.0110           0
      9167 MEMB     69       POPC     H6R      HAL2     0.900000E-01   1.00800           0
      9168 MEMB     69       POPC     H6S      HAL2     0.900000E-01   1.00800           0
      9169 MEMB     69       POPC     C27      CTL2    -0.180000       12.0110           0
      9170 MEMB     69       POPC     H7R      HAL2     0.900000E-01   1.00800           0
      9171 MEMB     69       POPC     H7S      HAL2     0.900000E-01   1.00800           0
      9172 MEMB     69       POPC     C28      CTL2    -0.180000       12.0110           0
      9173 MEMB     69       POPC     H8R      HAL2     0.900000E-01   1.00800           0
      9174 MEMB     69       POPC     H8S      HAL2     0.900000E-01   1.00800           0
      9175 MEMB     69       POPC     C29      CEL1    -0.150000       12.0110           0
      9176 MEMB     69       POPC     H91      HEL1     0.150000       1.00800           0
      9177 MEMB     69       POPC     C210     CEL1    -0.150000       12.0110           0
      9178 MEMB     69       POPC     H101     HEL1     0.150000       1.00800           0
      9179 MEMB     69       POPC     C211     CTL2    -0.180000       12.0110           0
      9180 MEMB     69       POPC     H11R     HAL2     0.900000E-01   1.00800           0
      9181 MEMB     69       POPC     H11S     HAL2     0.900000E-01   1.00800           0
      9182 MEMB     69       POPC     C212     CTL2    -0.180000       12.0110           0
      9183 MEMB     69       POPC     H12R     HAL2     0.900000E-01   1.00800           0
      9184 MEMB     69       POPC     H12S     HAL2     0.900000E-01   1.00800           0
      9185 MEMB     69       POPC     C213     CTL2    -0.180000       12.0110           0
      9186 MEMB     69       POPC     H13R     HAL2     0.900000E-01   1.00800           0
      9187 MEMB     69       POPC     H13S     HAL2     0.900000E-01   1.00800           0
      9188 MEMB     69       POPC     C214     CTL2    -0.180000       12.0110           0
      9189 MEMB     69       POPC     H14R     HAL2     0.900000E-01   1.00800           0
      9190 MEMB     69       POPC     H14S     HAL2     0.900000E-01   1.00800           0
      9191 MEMB     69       POPC     C215     CTL2    -0.180000       12.0110           0
      9192 MEMB     69       POPC     H15R     HAL2     0.900000E-01   1.00800           0
      9193 MEMB     69       POPC     H15S     HAL2     0.900000E-01   1.00800           0
      9194 MEMB     69       POPC     C216     CTL2    -0.180000       12.0110           0
      9195 MEMB     69       POPC     H16R     HAL2     0.900000E-01   1.00800           0
      9196 MEMB     69       POPC     H16S     HAL2     0.900000E-01   1.00800           0
      9197 MEMB     69       POPC     C217     CTL2    -0.180000       12.0110           0
      9198 MEMB     69       POPC     H17R     HAL2     0.900000E-01   1.00800           0
      9199 MEMB     69       POPC     H17S     HAL2     0.900000E-01   1.00800           0
      9200 MEMB     69       POPC     C218     CTL3    -0.270000       12.0110           0
      9201 MEMB     69       POPC     H18R     HAL3     0.900000E-01   1.00800           0
      9202 MEMB     69       POPC     H18S     HAL3     0.900000E-01   1.00800           0
      9203 MEMB     69       POPC     H18T     HAL3     0.900000E-01   1.00800           0
      9204 MEMB     69       POPC     C33      CTL2    -0.180000       12.0110           0
      9205 MEMB     69       POPC     H3X      HAL2     0.900000E-01   1.00800           0
      9206 MEMB     69       POPC     H3Y      HAL2     0.900000E-01   1.00800           0
      9207 MEMB     69       POPC     C34      CTL2    -0.180000       12.0110           0
      9208 MEMB     69       POPC     H4X      HAL2     0.900000E-01   1.00800           0
      9209 MEMB     69       POPC     H4Y      HAL2     0.900000E-01   1.00800           0
      9210 MEMB     69       POPC     C35      CTL2    -0.180000       12.0110           0
      9211 MEMB     69       POPC     H5X      HAL2     0.900000E-01   1.00800           0
      9212 MEMB     69       POPC     H5Y      HAL2     0.900000E-01   1.00800           0
      9213 MEMB     69       POPC     C36      CTL2    -0.180000       12.0110           0
      9214 MEMB     69       POPC     H6X      HAL2     0.900000E-01   1.00800           0
      9215 MEMB     69       POPC     H6Y      HAL2     0.900000E-01   1.00800           0
      9216 MEMB     69       POPC     C37      CTL2    -0.180000       12.0110           0
      9217 MEMB     69       POPC     H7X      HAL2     0.900000E-01   1.00800           0
      9218 MEMB     69       POPC     H7Y      HAL2     0.900000E-01   1.00800           0
      9219 MEMB     69       POPC     C38      CTL2    -0.180000       12.0110           0
      9220 MEMB     69       POPC     H8X      HAL2     0.900000E-01   1.00800           0
      9221 MEMB     69       POPC     H8Y      HAL2     0.900000E-01   1.00800           0
      9222 MEMB     69       POPC     C39      CTL2    -0.180000       12.0110           0
      9223 MEMB     69       POPC     H9X      HAL2     0.900000E-01   1.00800           0
      9224 MEMB     69       POPC     H9Y      HAL2     0.900000E-01   1.00800           0
      9225 MEMB     69       POPC     C310     CTL2    -0.180000       12.0110           0
      9226 MEMB     69       POPC     H10X     HAL2     0.900000E-01   1.00800           0
      9227 MEMB     69       POPC     H10Y     HAL2     0.900000E-01   1.00800           0
      9228 MEMB     69       POPC     C311     CTL2    -0.180000       12.0110           0
      9229 MEMB     69       POPC     H11X     HAL2     0.900000E-01   1.00800           0
      9230 MEMB     69       POPC     H11Y     HAL2     0.900000E-01   1.00800           0
      9231 MEMB     69       POPC     C312     CTL2    -0.180000       12.0110           0
      9232 MEMB     69       POPC     H12X     HAL2     0.900000E-01   1.00800           0
      9233 MEMB     69       POPC     H12Y     HAL2     0.900000E-01   1.00800           0
      9234 MEMB     69       POPC     C313     CTL2    -0.180000       12.0110           0
      9235 MEMB     69       POPC     H13X     HAL2     0.900000E-01   1.00800           0
      9236 MEMB     69       POPC     H13Y     HAL2     0.900000E-01   1.00800           0
      9237 MEMB     69       POPC     C314     CTL2    -0.180000       12.0110           0
      9238 MEMB     69       POPC     H14X     HAL2     0.900000E-01   1.00800           0
      9239 MEMB     69       POPC     H14Y     HAL2     0.900000E-01   1.00800           0
      9240 MEMB     69       POPC     C315     CTL2    -0.180000       12.0110           0
      9241 MEMB     69       POPC     H15X     HAL2     0.900000E-01   1.00800           0
      9242 MEMB     69       POPC     H15Y     HAL2     0.900000E-01   1.00800           0
      9243 MEMB     69       POPC     C316     CTL3    -0.270000       12.0110           0
      9244 MEMB     69       POPC     H16X     HAL3     0.900000E-01   1.00800           0
      9245 MEMB     69       POPC     H16Y     HAL3     0.900000E-01   1.00800           0
      9246 MEMB     69       POPC     H16Z     HAL3     0.900000E-01   1.00800           0
      9247 MEMB     70       POPC     N        NTL     -0.600000       14.0070           0
      9248 MEMB     70       POPC     C12      CTL2    -0.100000       12.0110           0
      9249 MEMB     70       POPC     H12A     HL       0.250000       1.00800           0
      9250 MEMB     70       POPC     H12B     HL       0.250000       1.00800           0
      9251 MEMB     70       POPC     C13      CTL5    -0.350000       12.0110           0
      9252 MEMB     70       POPC     H13A     HL       0.250000       1.00800           0
      9253 MEMB     70       POPC     H13B     HL       0.250000       1.00800           0
      9254 MEMB     70       POPC     H13C     HL       0.250000       1.00800           0
      9255 MEMB     70       POPC     C14      CTL5    -0.350000       12.0110           0
      9256 MEMB     70       POPC     H14A     HL       0.250000       1.00800           0
      9257 MEMB     70       POPC     H14B     HL       0.250000       1.00800           0
      9258 MEMB     70       POPC     H14C     HL       0.250000       1.00800           0
      9259 MEMB     70       POPC     C15      CTL5    -0.350000       12.0110           0
      9260 MEMB     70       POPC     H15A     HL       0.250000       1.00800           0
      9261 MEMB     70       POPC     H15B     HL       0.250000       1.00800           0
      9262 MEMB     70       POPC     H15C     HL       0.250000       1.00800           0
      9263 MEMB     70       POPC     C11      CTL2    -0.800000E-01   12.0110           0
      9264 MEMB     70       POPC     H11A     HAL2     0.900000E-01   1.00800           0
      9265 MEMB     70       POPC     H11B     HAL2     0.900000E-01   1.00800           0
      9266 MEMB     70       POPC     P        PL       1.500000       30.9740           0
      9267 MEMB     70       POPC     O13      O2L     -0.780000       15.9994           0
      9268 MEMB     70       POPC     O14      O2L     -0.780000       15.9994           0
      9269 MEMB     70       POPC     O12      OSLP    -0.570000       15.9994           0
      9270 MEMB     70       POPC     O11      OSLP    -0.570000       15.9994           0
      9271 MEMB     70       POPC     C1       CTL2    -0.800000E-01   12.0110           0
      9272 MEMB     70       POPC     HA       HAL2     0.900000E-01   1.00800           0
      9273 MEMB     70       POPC     HB       HAL2     0.900000E-01   1.00800           0
      9274 MEMB     70       POPC     C2       CTL1     0.170000       12.0110           0
      9275 MEMB     70       POPC     HS       HAL1     0.900000E-01   1.00800           0
      9276 MEMB     70       POPC     O21      OSL     -0.490000       15.9994           0
      9277 MEMB     70       POPC     C21      CL       0.900000       12.0110           0
      9278 MEMB     70       POPC     O22      OBL     -0.630000       15.9994           0
      9279 MEMB     70       POPC     C22      CTL2    -0.220000       12.0110           0
      9280 MEMB     70       POPC     H2R      HAL2     0.900000E-01   1.00800           0
      9281 MEMB     70       POPC     H2S      HAL2     0.900000E-01   1.00800           0
      9282 MEMB     70       POPC     C3       CTL2     0.800000E-01   12.0110           0
      9283 MEMB     70       POPC     HX       HAL2     0.900000E-01   1.00800           0
      9284 MEMB     70       POPC     HY       HAL2     0.900000E-01   1.00800           0
      9285 MEMB     70       POPC     O31      OSL     -0.490000       15.9994           0
      9286 MEMB     70       POPC     C31      CL       0.900000       12.0110           0
      9287 MEMB     70       POPC     O32      OBL     -0.630000       15.9994           0
      9288 MEMB     70       POPC     C32      CTL2    -0.220000       12.0110           0
      9289 MEMB     70       POPC     H2X      HAL2     0.900000E-01   1.00800           0
      9290 MEMB     70       POPC     H2Y      HAL2     0.900000E-01   1.00800           0
      9291 MEMB     70       POPC     C23      CTL2    -0.180000       12.0110           0
      9292 MEMB     70       POPC     H3R      HAL2     0.900000E-01   1.00800           0
      9293 MEMB     70       POPC     H3S      HAL2     0.900000E-01   1.00800           0
      9294 MEMB     70       POPC     C24      CTL2    -0.180000       12.0110           0
      9295 MEMB     70       POPC     H4R      HAL2     0.900000E-01   1.00800           0
      9296 MEMB     70       POPC     H4S      HAL2     0.900000E-01   1.00800           0
      9297 MEMB     70       POPC     C25      CTL2    -0.180000       12.0110           0
      9298 MEMB     70       POPC     H5R      HAL2     0.900000E-01   1.00800           0
      9299 MEMB     70       POPC     H5S      HAL2     0.900000E-01   1.00800           0
      9300 MEMB     70       POPC     C26      CTL2    -0.180000       12.0110           0
      9301 MEMB     70       POPC     H6R      HAL2     0.900000E-01   1.00800           0
      9302 MEMB     70       POPC     H6S      HAL2     0.900000E-01   1.00800           0
      9303 MEMB     70       POPC     C27      CTL2    -0.180000       12.0110           0
      9304 MEMB     70       POPC     H7R      HAL2     0.900000E-01   1.00800           0
      9305 MEMB     70       POPC     H7S      HAL2     0.900000E-01   1.00800           0
      9306 MEMB     70       POPC     C28      CTL2    -0.180000       12.0110           0
      9307 MEMB     70       POPC     H8R      HAL2     0.900000E-01   1.00800           0
      9308 MEMB     70       POPC     H8S      HAL2     0.900000E-01   1.00800           0
      9309 MEMB     70       POPC     C29      CEL1    -0.150000       12.0110           0
      9310 MEMB     70       POPC     H91      HEL1     0.150000       1.00800           0
      9311 MEMB     70       POPC     C210     CEL1    -0.150000       12.0110           0
      9312 MEMB     70       POPC     H101     HEL1     0.150000       1.00800           0
      9313 MEMB     70       POPC     C211     CTL2    -0.180000       12.0110           0
      9314 MEMB     70       POPC     H11R     HAL2     0.900000E-01   1.00800           0
      9315 MEMB     70       POPC     H11S     HAL2     0.900000E-01   1.00800           0
      9316 MEMB     70       POPC     C212     CTL2    -0.180000       12.0110           0
      9317 MEMB     70       POPC     H12R     HAL2     0.900000E-01   1.00800           0
      9318 MEMB     70       POPC     H12S     HAL2     0.900000E-01   1.00800           0
      9319 MEMB     70       POPC     C213     CTL2    -0.180000       12.0110           0
      9320 MEMB     70       POPC     H13R     HAL2     0.900000E-01   1.00800           0
      9321 MEMB     70       POPC     H13S     HAL2     0.900000E-01   1.00800           0
      9322 MEMB     70       POPC     C214     CTL2    -0.180000       12.0110           0
      9323 MEMB     70       POPC     H14R     HAL2     0.900000E-01   1.00800           0
      9324 MEMB     70       POPC     H14S     HAL2     0.900000E-01   1.00800           0
      9325 MEMB     70       POPC     C215     CTL2    -0.180000       12.0110           0
      9326 MEMB     70       POPC     H15R     HAL2     0.900000E-01   1.00800           0
      9327 MEMB     70       POPC     H15S     HAL2     0.900000E-01   1.00800           0
      9328 MEMB     70       POPC     C216     CTL2    -0.180000       12.0110           0
      9329 MEMB     70       POPC     H16R     HAL2     0.900000E-01   1.00800           0
      9330 MEMB     70       POPC     H16S     HAL2     0.900000E-01   1.00800           0
      9331 MEMB     70       POPC     C217     CTL2    -0.180000       12.0110           0
      9332 MEMB     70       POPC     H17R     HAL2     0.900000E-01   1.00800           0
      9333 MEMB     70       POPC     H17S     HAL2     0.900000E-01   1.00800           0
      9334 MEMB     70       POPC     C218     CTL3    -0.270000       12.0110           0
      9335 MEMB     70       POPC     H18R     HAL3     0.900000E-01   1.00800           0
      9336 MEMB     70       POPC     H18S     HAL3     0.900000E-01   1.00800           0
      9337 MEMB     70       POPC     H18T     HAL3     0.900000E-01   1.00800           0
      9338 MEMB     70       POPC     C33      CTL2    -0.180000       12.0110           0
      9339 MEMB     70       POPC     H3X      HAL2     0.900000E-01   1.00800           0
      9340 MEMB     70       POPC     H3Y      HAL2     0.900000E-01   1.00800           0
      9341 MEMB     70       POPC     C34      CTL2    -0.180000       12.0110           0
      9342 MEMB     70       POPC     H4X      HAL2     0.900000E-01   1.00800           0
      9343 MEMB     70       POPC     H4Y      HAL2     0.900000E-01   1.00800           0
      9344 MEMB     70       POPC     C35      CTL2    -0.180000       12.0110           0
      9345 MEMB     70       POPC     H5X      HAL2     0.900000E-01   1.00800           0
      9346 MEMB     70       POPC     H5Y      HAL2     0.900000E-01   1.00800           0
      9347 MEMB     70       POPC     C36      CTL2    -0.180000       12.0110           0
      9348 MEMB     70       POPC     H6X      HAL2     0.900000E-01   1.00800           0
      9349 MEMB     70       POPC     H6Y      HAL2     0.900000E-01   1.00800           0
      9350 MEMB     70       POPC     C37      CTL2    -0.180000       12.0110           0
      9351 MEMB     70       POPC     H7X      HAL2     0.900000E-01   1.00800           0
      9352 MEMB     70       POPC     H7Y      HAL2     0.900000E-01   1.00800           0
      9353 MEMB     70       POPC     C38      CTL2    -0.180000       12.0110           0
      9354 MEMB     70       POPC     H8X      HAL2     0.900000E-01   1.00800           0
      9355 MEMB     70       POPC     H8Y      HAL2     0.900000E-01   1.00800           0
      9356 MEMB     70       POPC     C39      CTL2    -0.180000       12.0110           0
      9357 MEMB     70       POPC     H9X      HAL2     0.900000E-01   1.00800           0
      9358 MEMB     70       POPC     H9Y      HAL2     0.900000E-01   1.00800           0
      9359 MEMB     70       POPC     C310     CTL2    -0.180000       12.0110           0
      9360 MEMB     70       POPC     H10X     HAL2     0.900000E-01   1.00800           0
      9361 MEMB     70       POPC     H10Y     HAL2     0.900000E-01   1.00800           0
      9362 MEMB     70       POPC     C311     CTL2    -0.180000       12.0110           0
      9363 MEMB     70       POPC     H11X     HAL2     0.900000E-01   1.00800           0
      9364 MEMB     70       POPC     H11Y     HAL2     0.900000E-01   1.00800           0
      9365 MEMB     70       POPC     C312     CTL2    -0.180000       12.0110           0
      9366 MEMB     70       POPC     H12X     HAL2     0.900000E-01   1.00800           0
      9367 MEMB     70       POPC     H12Y     HAL2     0.900000E-01   1.00800           0
      9368 MEMB     70       POPC     C313     CTL2    -0.180000       12.0110           0
      9369 MEMB     70       POPC     H13X     HAL2     0.900000E-01   1.00800           0
      9370 MEMB     70       POPC     H13Y     HAL2     0.900000E-01   1.00800           0
      9371 MEMB     70       POPC     C314     CTL2    -0.180000       12.0110           0
      9372 MEMB     70       POPC     H14X     HAL2     0.900000E-01   1.00800           0
      9373 MEMB     70       POPC     H14Y     HAL2     0.900000E-01   1.00800           0
      9374 MEMB     70       POPC     C315     CTL2    -0.180000       12.0110           0
      9375 MEMB     70       POPC     H15X     HAL2     0.900000E-01   1.00800           0
      9376 MEMB     70       POPC     H15Y     HAL2     0.900000E-01   1.00800           0
      9377 MEMB     70       POPC     C316     CTL3    -0.270000       12.0110           0
      9378 MEMB     70       POPC     H16X     HAL3     0.900000E-01   1.00800           0
      9379 MEMB     70       POPC     H16Y     HAL3     0.900000E-01   1.00800           0
      9380 MEMB     70       POPC     H16Z     HAL3     0.900000E-01   1.00800           0
      9381 MEMB     71       POPC     N        NTL     -0.600000       14.0070           0
      9382 MEMB     71       POPC     C12      CTL2    -0.100000       12.0110           0
      9383 MEMB     71       POPC     H12A     HL       0.250000       1.00800           0
      9384 MEMB     71       POPC     H12B     HL       0.250000       1.00800           0
      9385 MEMB     71       POPC     C13      CTL5    -0.350000       12.0110           0
      9386 MEMB     71       POPC     H13A     HL       0.250000       1.00800           0
      9387 MEMB     71       POPC     H13B     HL       0.250000       1.00800           0
      9388 MEMB     71       POPC     H13C     HL       0.250000       1.00800           0
      9389 MEMB     71       POPC     C14      CTL5    -0.350000       12.0110           0
      9390 MEMB     71       POPC     H14A     HL       0.250000       1.00800           0
      9391 MEMB     71       POPC     H14B     HL       0.250000       1.00800           0
      9392 MEMB     71       POPC     H14C     HL       0.250000       1.00800           0
      9393 MEMB     71       POPC     C15      CTL5    -0.350000       12.0110           0
      9394 MEMB     71       POPC     H15A     HL       0.250000       1.00800           0
      9395 MEMB     71       POPC     H15B     HL       0.250000       1.00800           0
      9396 MEMB     71       POPC     H15C     HL       0.250000       1.00800           0
      9397 MEMB     71       POPC     C11      CTL2    -0.800000E-01   12.0110           0
      9398 MEMB     71       POPC     H11A     HAL2     0.900000E-01   1.00800           0
      9399 MEMB     71       POPC     H11B     HAL2     0.900000E-01   1.00800           0
      9400 MEMB     71       POPC     P        PL       1.500000       30.9740           0
      9401 MEMB     71       POPC     O13      O2L     -0.780000       15.9994           0
      9402 MEMB     71       POPC     O14      O2L     -0.780000       15.9994           0
      9403 MEMB     71       POPC     O12      OSLP    -0.570000       15.9994           0
      9404 MEMB     71       POPC     O11      OSLP    -0.570000       15.9994           0
      9405 MEMB     71       POPC     C1       CTL2    -0.800000E-01   12.0110           0
      9406 MEMB     71       POPC     HA       HAL2     0.900000E-01   1.00800           0
      9407 MEMB     71       POPC     HB       HAL2     0.900000E-01   1.00800           0
      9408 MEMB     71       POPC     C2       CTL1     0.170000       12.0110           0
      9409 MEMB     71       POPC     HS       HAL1     0.900000E-01   1.00800           0
      9410 MEMB     71       POPC     O21      OSL     -0.490000       15.9994           0
      9411 MEMB     71       POPC     C21      CL       0.900000       12.0110           0
      9412 MEMB     71       POPC     O22      OBL     -0.630000       15.9994           0
      9413 MEMB     71       POPC     C22      CTL2    -0.220000       12.0110           0
      9414 MEMB     71       POPC     H2R      HAL2     0.900000E-01   1.00800           0
      9415 MEMB     71       POPC     H2S      HAL2     0.900000E-01   1.00800           0
      9416 MEMB     71       POPC     C3       CTL2     0.800000E-01   12.0110           0
      9417 MEMB     71       POPC     HX       HAL2     0.900000E-01   1.00800           0
      9418 MEMB     71       POPC     HY       HAL2     0.900000E-01   1.00800           0
      9419 MEMB     71       POPC     O31      OSL     -0.490000       15.9994           0
      9420 MEMB     71       POPC     C31      CL       0.900000       12.0110           0
      9421 MEMB     71       POPC     O32      OBL     -0.630000       15.9994           0
      9422 MEMB     71       POPC     C32      CTL2    -0.220000       12.0110           0
      9423 MEMB     71       POPC     H2X      HAL2     0.900000E-01   1.00800           0
      9424 MEMB     71       POPC     H2Y      HAL2     0.900000E-01   1.00800           0
      9425 MEMB     71       POPC     C23      CTL2    -0.180000       12.0110           0
      9426 MEMB     71       POPC     H3R      HAL2     0.900000E-01   1.00800           0
      9427 MEMB     71       POPC     H3S      HAL2     0.900000E-01   1.00800           0
      9428 MEMB     71       POPC     C24      CTL2    -0.180000       12.0110           0
      9429 MEMB     71       POPC     H4R      HAL2     0.900000E-01   1.00800           0
      9430 MEMB     71       POPC     H4S      HAL2     0.900000E-01   1.00800           0
      9431 MEMB     71       POPC     C25      CTL2    -0.180000       12.0110           0
      9432 MEMB     71       POPC     H5R      HAL2     0.900000E-01   1.00800           0
      9433 MEMB     71       POPC     H5S      HAL2     0.900000E-01   1.00800           0
      9434 MEMB     71       POPC     C26      CTL2    -0.180000       12.0110           0
      9435 MEMB     71       POPC     H6R      HAL2     0.900000E-01   1.00800           0
      9436 MEMB     71       POPC     H6S      HAL2     0.900000E-01   1.00800           0
      9437 MEMB     71       POPC     C27      CTL2    -0.180000       12.0110           0
      9438 MEMB     71       POPC     H7R      HAL2     0.900000E-01   1.00800           0
      9439 MEMB     71       POPC     H7S      HAL2     0.900000E-01   1.00800           0
      9440 MEMB     71       POPC     C28      CTL2    -0.180000       12.0110           0
      9441 MEMB     71       POPC     H8R      HAL2     0.900000E-01   1.00800           0
      9442 MEMB     71       POPC     H8S      HAL2     0.900000E-01   1.00800           0
      9443 MEMB     71       POPC     C29      CEL1    -0.150000       12.0110           0
      9444 MEMB     71       POPC     H91      HEL1     0.150000       1.00800           0
      9445 MEMB     71       POPC     C210     CEL1    -0.150000       12.0110           0
      9446 MEMB     71       POPC     H101     HEL1     0.150000       1.00800           0
      9447 MEMB     71       POPC     C211     CTL2    -0.180000       12.0110           0
      9448 MEMB     71       POPC     H11R     HAL2     0.900000E-01   1.00800           0
      9449 MEMB     71       POPC     H11S     HAL2     0.900000E-01   1.00800           0
      9450 MEMB     71       POPC     C212     CTL2    -0.180000       12.0110           0
      9451 MEMB     71       POPC     H12R     HAL2     0.900000E-01   1.00800           0
      9452 MEMB     71       POPC     H12S     HAL2     0.900000E-01   1.00800           0
      9453 MEMB     71       POPC     C213     CTL2    -0.180000       12.0110           0
      9454 MEMB     71       POPC     H13R     HAL2     0.900000E-01   1.00800           0
      9455 MEMB     71       POPC     H13S     HAL2     0.900000E-01   1.00800           0
      9456 MEMB     71       POPC     C214     CTL2    -0.180000       12.0110           0
      9457 MEMB     71       POPC     H14R     HAL2     0.900000E-01   1.00800           0
      9458 MEMB     71       POPC     H14S     HAL2     0.900000E-01   1.00800           0
      9459 MEMB     71       POPC     C215     CTL2    -0.180000       12.0110           0
      9460 MEMB     71       POPC     H15R     HAL2     0.900000E-01   1.00800           0
      9461 MEMB     71       POPC     H15S     HAL2     0.900000E-01   1.00800           0
      9462 MEMB     71       POPC     C216     CTL2    -0.180000       12.0110           0
      9463 MEMB     71       POPC     H16R     HAL2     0.900000E-01   1.00800           0
      9464 MEMB     71       POPC     H16S     HAL2     0.900000E-01   1.00800           0
      9465 MEMB     71       POPC     C217     CTL2    -0.180000       12.0110           0
      9466 MEMB     71       POPC     H17R     HAL2     0.900000E-01   1.00800           0
      9467 MEMB     71       POPC     H17S     HAL2     0.900000E-01   1.00800           0
      9468 MEMB     71       POPC     C218     CTL3    -0.270000       12.0110           0
      9469 MEMB     71       POPC     H18R     HAL3     0.900000E-01   1.00800           0
      9470 MEMB     71       POPC     H18S     HAL3     0.900000E-01   1.00800           0
      9471 MEMB     71       POPC     H18T     HAL3     0.900000E-01   1.00800           0
      9472 MEMB     71       POPC     C33      CTL2    -0.180000       12.0110           0
      9473 MEMB     71       POPC     H3X      HAL2     0.900000E-01   1.00800           0
      9474 MEMB     71       POPC     H3Y      HAL2     0.900000E-01   1.00800           0
      9475 MEMB     71       POPC     C34      CTL2    -0.180000       12.0110           0
      9476 MEMB     71       POPC     H4X      HAL2     0.900000E-01   1.00800           0
      9477 MEMB     71       POPC     H4Y      HAL2     0.900000E-01   1.00800           0
      9478 MEMB     71       POPC     C35      CTL2    -0.180000       12.0110           0
      9479 MEMB     71       POPC     H5X      HAL2     0.900000E-01   1.00800           0
      9480 MEMB     71       POPC     H5Y      HAL2     0.900000E-01   1.00800           0
      9481 MEMB     71       POPC     C36      CTL2    -0.180000       12.0110           0
      9482 MEMB     71       POPC     H6X      HAL2     0.900000E-01   1.00800           0
      9483 MEMB     71       POPC     H6Y      HAL2     0.900000E-01   1.00800           0
      9484 MEMB     71       POPC     C37      CTL2    -0.180000       12.0110           0
      9485 MEMB     71       POPC     H7X      HAL2     0.900000E-01   1.00800           0
      9486 MEMB     71       POPC     H7Y      HAL2     0.900000E-01   1.00800           0
      9487 MEMB     71       POPC     C38      CTL2    -0.180000       12.0110           0
      9488 MEMB     71       POPC     H8X      HAL2     0.900000E-01   1.00800           0
      9489 MEMB     71       POPC     H8Y      HAL2     0.900000E-01   1.00800           0
      9490 MEMB     71       POPC     C39      CTL2    -0.180000       12.0110           0
      9491 MEMB     71       POPC     H9X      HAL2     0.900000E-01   1.00800           0
      9492 MEMB     71       POPC     H9Y      HAL2     0.900000E-01   1.00800           0
      9493 MEMB     71       POPC     C310     CTL2    -0.180000       12.0110           0
      9494 MEMB     71       POPC     H10X     HAL2     0.900000E-01   1.00800           0
      9495 MEMB     71       POPC     H10Y     HAL2     0.900000E-01   1.00800           0
      9496 MEMB     71       POPC     C311     CTL2    -0.180000       12.0110           0
      9497 MEMB     71       POPC     H11X     HAL2     0.900000E-01   1.00800           0
      9498 MEMB     71       POPC     H11Y     HAL2     0.900000E-01   1.00800           0
      9499 MEMB     71       POPC     C312     CTL2    -0.180000       12.0110           0
      9500 MEMB     71       POPC     H12X     HAL2     0.900000E-01   1.00800           0
      9501 MEMB     71       POPC     H12Y     HAL2     0.900000E-01   1.00800           0
      9502 MEMB     71       POPC     C313     CTL2    -0.180000       12.0110           0
      9503 MEMB     71       POPC     H13X     HAL2     0.900000E-01   1.00800           0
      9504 MEMB     71       POPC     H13Y     HAL2     0.900000E-01   1.00800           0
      9505 MEMB     71       POPC     C314     CTL2    -0.180000       12.0110           0
      9506 MEMB     71       POPC     H14X     HAL2     0.900000E-01   1.00800           0
      9507 MEMB     71       POPC     H14Y     HAL2     0.900000E-01   1.00800           0
      9508 MEMB     71       POPC     C315     CTL2    -0.180000       12.0110           0
      9509 MEMB     71       POPC     H15X     HAL2     0.900000E-01   1.00800           0
      9510 MEMB     71       POPC     H15Y     HAL2     0.900000E-01   1.00800           0
      9511 MEMB     71       POPC     C316     CTL3    -0.270000       12.0110           0
      9512 MEMB     71       POPC     H16X     HAL3     0.900000E-01   1.00800           0
      9513 MEMB     71       POPC     H16Y     HAL3     0.900000E-01   1.00800           0
      9514 MEMB     71       POPC     H16Z     HAL3     0.900000E-01   1.00800           0
      9515 MEMB     72       POPC     N        NTL     -0.600000       14.0070           0
      9516 MEMB     72       POPC     C12      CTL2    -0.100000       12.0110           0
      9517 MEMB     72       POPC     H12A     HL       0.250000       1.00800           0
      9518 MEMB     72       POPC     H12B     HL       0.250000       1.00800           0
      9519 MEMB     72       POPC     C13      CTL5    -0.350000       12.0110           0
      9520 MEMB     72       POPC     H13A     HL       0.250000       1.00800           0
      9521 MEMB     72       POPC     H13B     HL       0.250000       1.00800           0
      9522 MEMB     72       POPC     H13C     HL       0.250000       1.00800           0
      9523 MEMB     72       POPC     C14      CTL5    -0.350000       12.0110           0
      9524 MEMB     72       POPC     H14A     HL       0.250000       1.00800           0
      9525 MEMB     72       POPC     H14B     HL       0.250000       1.00800           0
      9526 MEMB     72       POPC     H14C     HL       0.250000       1.00800           0
      9527 MEMB     72       POPC     C15      CTL5    -0.350000       12.0110           0
      9528 MEMB     72       POPC     H15A     HL       0.250000       1.00800           0
      9529 MEMB     72       POPC     H15B     HL       0.250000       1.00800           0
      9530 MEMB     72       POPC     H15C     HL       0.250000       1.00800           0
      9531 MEMB     72       POPC     C11      CTL2    -0.800000E-01   12.0110           0
      9532 MEMB     72       POPC     H11A     HAL2     0.900000E-01   1.00800           0
      9533 MEMB     72       POPC     H11B     HAL2     0.900000E-01   1.00800           0
      9534 MEMB     72       POPC     P        PL       1.500000       30.9740           0
      9535 MEMB     72       POPC     O13      O2L     -0.780000       15.9994           0
      9536 MEMB     72       POPC     O14      O2L     -0.780000       15.9994           0
      9537 MEMB     72       POPC     O12      OSLP    -0.570000       15.9994           0
      9538 MEMB     72       POPC     O11      OSLP    -0.570000       15.9994           0
      9539 MEMB     72       POPC     C1       CTL2    -0.800000E-01   12.0110           0
      9540 MEMB     72       POPC     HA       HAL2     0.900000E-01   1.00800           0
      9541 MEMB     72       POPC     HB       HAL2     0.900000E-01   1.00800           0
      9542 MEMB     72       POPC     C2       CTL1     0.170000       12.0110           0
      9543 MEMB     72       POPC     HS       HAL1     0.900000E-01   1.00800           0
      9544 MEMB     72       POPC     O21      OSL     -0.490000       15.9994           0
      9545 MEMB     72       POPC     C21      CL       0.900000       12.0110           0
      9546 MEMB     72       POPC     O22      OBL     -0.630000       15.9994           0
      9547 MEMB     72       POPC     C22      CTL2    -0.220000       12.0110           0
      9548 MEMB     72       POPC     H2R      HAL2     0.900000E-01   1.00800           0
      9549 MEMB     72       POPC     H2S      HAL2     0.900000E-01   1.00800           0
      9550 MEMB     72       POPC     C3       CTL2     0.800000E-01   12.0110           0
      9551 MEMB     72       POPC     HX       HAL2     0.900000E-01   1.00800           0
      9552 MEMB     72       POPC     HY       HAL2     0.900000E-01   1.00800           0
      9553 MEMB     72       POPC     O31      OSL     -0.490000       15.9994           0
      9554 MEMB     72       POPC     C31      CL       0.900000       12.0110           0
      9555 MEMB     72       POPC     O32      OBL     -0.630000       15.9994           0
      9556 MEMB     72       POPC     C32      CTL2    -0.220000       12.0110           0
      9557 MEMB     72       POPC     H2X      HAL2     0.900000E-01   1.00800           0
      9558 MEMB     72       POPC     H2Y      HAL2     0.900000E-01   1.00800           0
      9559 MEMB     72       POPC     C23      CTL2    -0.180000       12.0110           0
      9560 MEMB     72       POPC     H3R      HAL2     0.900000E-01   1.00800           0
      9561 MEMB     72       POPC     H3S      HAL2     0.900000E-01   1.00800           0
      9562 MEMB     72       POPC     C24      CTL2    -0.180000       12.0110           0
      9563 MEMB     72       POPC     H4R      HAL2     0.900000E-01   1.00800           0
      9564 MEMB     72       POPC     H4S      HAL2     0.900000E-01   1.00800           0
      9565 MEMB     72       POPC     C25      CTL2    -0.180000       12.0110           0
      9566 MEMB     72       POPC     H5R      HAL2     0.900000E-01   1.00800           0
      9567 MEMB     72       POPC     H5S      HAL2     0.900000E-01   1.00800           0
      9568 MEMB     72       POPC     C26      CTL2    -0.180000       12.0110           0
      9569 MEMB     72       POPC     H6R      HAL2     0.900000E-01   1.00800           0
      9570 MEMB     72       POPC     H6S      HAL2     0.900000E-01   1.00800           0
      9571 MEMB     72       POPC     C27      CTL2    -0.180000       12.0110           0
      9572 MEMB     72       POPC     H7R      HAL2     0.900000E-01   1.00800           0
      9573 MEMB     72       POPC     H7S      HAL2     0.900000E-01   1.00800           0
      9574 MEMB     72       POPC     C28      CTL2    -0.180000       12.0110           0
      9575 MEMB     72       POPC     H8R      HAL2     0.900000E-01   1.00800           0
      9576 MEMB     72       POPC     H8S      HAL2     0.900000E-01   1.00800           0
      9577 MEMB     72       POPC     C29      CEL1    -0.150000       12.0110           0
      9578 MEMB     72       POPC     H91      HEL1     0.150000       1.00800           0
      9579 MEMB     72       POPC     C210     CEL1    -0.150000       12.0110           0
      9580 MEMB     72       POPC     H101     HEL1     0.150000       1.00800           0
      9581 MEMB     72       POPC     C211     CTL2    -0.180000       12.0110           0
      9582 MEMB     72       POPC     H11R     HAL2     0.900000E-01   1.00800           0
      9583 MEMB     72       POPC     H11S     HAL2     0.900000E-01   1.00800           0
      9584 MEMB     72       POPC     C212     CTL2    -0.180000       12.0110           0
      9585 MEMB     72       POPC     H12R     HAL2     0.900000E-01   1.00800           0
      9586 MEMB     72       POPC     H12S     HAL2     0.900000E-01   1.00800           0
      9587 MEMB     72       POPC     C213     CTL2    -0.180000       12.0110           0
      9588 MEMB     72       POPC     H13R     HAL2     0.900000E-01   1.00800           0
      9589 MEMB     72       POPC     H13S     HAL2     0.900000E-01   1.00800           0
      9590 MEMB     72       POPC     C214     CTL2    -0.180000       12.0110           0
      9591 MEMB     72       POPC     H14R     HAL2     0.900000E-01   1.00800           0
      9592 MEMB     72       POPC     H14S     HAL2     0.900000E-01   1.00800           0
      9593 MEMB     72       POPC     C215     CTL2    -0.180000       12.0110           0
      9594 MEMB     72       POPC     H15R     HAL2     0.900000E-01   1.00800           0
      9595 MEMB     72       POPC     H15S     HAL2     0.900000E-01   1.00800           0
      9596 MEMB     72       POPC     C216     CTL2    -0.180000       12.0110           0
      9597 MEMB     72       POPC     H16R     HAL2     0.900000E-01   1.00800           0
      9598 MEMB     72       POPC     H16S     HAL2     0.900000E-01   1.00800           0
      9599 MEMB     72       POPC     C217     CTL2    -0.180000       12.0110           0
      9600 MEMB     72       POPC     H17R     HAL2     0.900000E-01   1.00800           0
      9601 MEMB     72       POPC     H17S     HAL2     0.900000E-01   1.00800           0
      9602 MEMB     72       POPC     C218     CTL3    -0.270000       12.0110           0
      9603 MEMB     72       POPC     H18R     HAL3     0.900000E-01   1.00800           0
      9604 MEMB     72       POPC     H18S     HAL3     0.900000E-01   1.00800           0
      9605 MEMB     72       POPC     H18T     HAL3     0.900000E-01   1.00800           0
      9606 MEMB     72       POPC     C33      CTL2    -0.180000       12.0110           0
      9607 MEMB     72       POPC     H3X      HAL2     0.900000E-01   1.00800           0
      9608 MEMB     72       POPC     H3Y      HAL2     0.900000E-01   1.00800           0
      9609 MEMB     72       POPC     C34      CTL2    -0.180000       12.0110           0
      9610 MEMB     72       POPC     H4X      HAL2     0.900000E-01   1.00800           0
      9611 MEMB     72       POPC     H4Y      HAL2     0.900000E-01   1.00800           0
      9612 MEMB     72       POPC     C35      CTL2    -0.180000       12.0110           0
      9613 MEMB     72       POPC     H5X      HAL2     0.900000E-01   1.00800           0
      9614 MEMB     72       POPC     H5Y      HAL2     0.900000E-01   1.00800           0
      9615 MEMB     72       POPC     C36      CTL2    -0.180000       12.0110           0
      9616 MEMB     72       POPC     H6X      HAL2     0.900000E-01   1.00800           0
      9617 MEMB     72       POPC     H6Y      HAL2     0.900000E-01   1.00800           0
      9618 MEMB     72       POPC     C37      CTL2    -0.180000       12.0110           0
      9619 MEMB     72       POPC     H7X      HAL2     0.900000E-01   1.00800           0
      9620 MEMB     72       POPC     H7Y      HAL2     0.900000E-01   1.00800           0
      9621 MEMB     72       POPC     C38      CTL2    -0.180000       12.0110           0
      9622 MEMB     72       POPC     H8X      HAL2     0.900000E-01   1.00800           0
      9623 MEMB     72       POPC     H8Y      HAL2     0.900000E-01   1.00800           0
      9624 MEMB     72       POPC     C39      CTL2    -0.180000       12.0110           0
      9625 MEMB     72       POPC     H9X      HAL2     0.900000E-01   1.00800           0
      9626 MEMB     72       POPC     H9Y      HAL2     0.900000E-01   1.00800           0
      9627 MEMB     72       POPC     C310     CTL2    -0.180000       12.0110           0
      9628 MEMB     72       POPC     H10X     HAL2     0.900000E-01   1.00800           0
      9629 MEMB     72       POPC     H10Y     HAL2     0.900000E-01   1.00800           0
      9630 MEMB     72       POPC     C311     CTL2    -0.180000       12.0110           0
      9631 MEMB     72       POPC     H11X     HAL2     0.900000E-01   1.00800           0
      9632 MEMB     72       POPC     H11Y     HAL2     0.900000E-01   1.00800           0
      9633 MEMB     72       POPC     C312     CTL2    -0.180000       12.0110           0
      9634 MEMB     72       POPC     H12X     HAL2     0.900000E-01   1.00800           0
      9635 MEMB     72       POPC     H12Y     HAL2     0.900000E-01   1.00800           0
      9636 MEMB     72       POPC     C313     CTL2    -0.180000       12.0110           0
      9637 MEMB     72       POPC     H13X     HAL2     0.900000E-01   1.00800           0
      9638 MEMB     72       POPC     H13Y     HAL2     0.900000E-01   1.00800           0
      9639 MEMB     72       POPC     C314     CTL2    -0.180000       12.0110           0
      9640 MEMB     72       POPC     H14X     HAL2     0.900000E-01   1.00800           0
      9641 MEMB     72       POPC     H14Y     HAL2     0.900000E-01   1.00800           0
      9642 MEMB     72       POPC     C315     CTL2    -0.180000       12.0110           0
      9643 MEMB     72       POPC     H15X     HAL2     0.900000E-01   1.00800           0
      9644 MEMB     72       POPC     H15Y     HAL2     0.900000E-01   1.00800           0
      9645 MEMB     72       POPC     C316     CTL3    -0.270000       12.0110           0
      9646 MEMB     72       POPC     H16X     HAL3     0.900000E-01   1.00800           0
      9647 MEMB     72       POPC     H16Y     HAL3     0.900000E-01   1.00800           0
      9648 MEMB     72       POPC     H16Z     HAL3     0.900000E-01   1.00800           0
      9649 MEMB     73       POPC     N        NTL     -0.600000       14.0070           0
      9650 MEMB     73       POPC     C12      CTL2    -0.100000       12.0110           0
      9651 MEMB     73       POPC     H12A     HL       0.250000       1.00800           0
      9652 MEMB     73       POPC     H12B     HL       0.250000       1.00800           0
      9653 MEMB     73       POPC     C13      CTL5    -0.350000       12.0110           0
      9654 MEMB     73       POPC     H13A     HL       0.250000       1.00800           0
      9655 MEMB     73       POPC     H13B     HL       0.250000       1.00800           0
      9656 MEMB     73       POPC     H13C     HL       0.250000       1.00800           0
      9657 MEMB     73       POPC     C14      CTL5    -0.350000       12.0110           0
      9658 MEMB     73       POPC     H14A     HL       0.250000       1.00800           0
      9659 MEMB     73       POPC     H14B     HL       0.250000       1.00800           0
      9660 MEMB     73       POPC     H14C     HL       0.250000       1.00800           0
      9661 MEMB     73       POPC     C15      CTL5    -0.350000       12.0110           0
      9662 MEMB     73       POPC     H15A     HL       0.250000       1.00800           0
      9663 MEMB     73       POPC     H15B     HL       0.250000       1.00800           0
      9664 MEMB     73       POPC     H15C     HL       0.250000       1.00800           0
      9665 MEMB     73       POPC     C11      CTL2    -0.800000E-01   12.0110           0
      9666 MEMB     73       POPC     H11A     HAL2     0.900000E-01   1.00800           0
      9667 MEMB     73       POPC     H11B     HAL2     0.900000E-01   1.00800           0
      9668 MEMB     73       POPC     P        PL       1.500000       30.9740           0
      9669 MEMB     73       POPC     O13      O2L     -0.780000       15.9994           0
      9670 MEMB     73       POPC     O14      O2L     -0.780000       15.9994           0
      9671 MEMB     73       POPC     O12      OSLP    -0.570000       15.9994           0
      9672 MEMB     73       POPC     O11      OSLP    -0.570000       15.9994           0
      9673 MEMB     73       POPC     C1       CTL2    -0.800000E-01   12.0110           0
      9674 MEMB     73       POPC     HA       HAL2     0.900000E-01   1.00800           0
      9675 MEMB     73       POPC     HB       HAL2     0.900000E-01   1.00800           0
      9676 MEMB     73       POPC     C2       CTL1     0.170000       12.0110           0
      9677 MEMB     73       POPC     HS       HAL1     0.900000E-01   1.00800           0
      9678 MEMB     73       POPC     O21      OSL     -0.490000       15.9994           0
      9679 MEMB     73       POPC     C21      CL       0.900000       12.0110           0
      9680 MEMB     73       POPC     O22      OBL     -0.630000       15.9994           0
      9681 MEMB     73       POPC     C22      CTL2    -0.220000       12.0110           0
      9682 MEMB     73       POPC     H2R      HAL2     0.900000E-01   1.00800           0
      9683 MEMB     73       POPC     H2S      HAL2     0.900000E-01   1.00800           0
      9684 MEMB     73       POPC     C3       CTL2     0.800000E-01   12.0110           0
      9685 MEMB     73       POPC     HX       HAL2     0.900000E-01   1.00800           0
      9686 MEMB     73       POPC     HY       HAL2     0.900000E-01   1.00800           0
      9687 MEMB     73       POPC     O31      OSL     -0.490000       15.9994           0
      9688 MEMB     73       POPC     C31      CL       0.900000       12.0110           0
      9689 MEMB     73       POPC     O32      OBL     -0.630000       15.9994           0
      9690 MEMB     73       POPC     C32      CTL2    -0.220000       12.0110           0
      9691 MEMB     73       POPC     H2X      HAL2     0.900000E-01   1.00800           0
      9692 MEMB     73       POPC     H2Y      HAL2     0.900000E-01   1.00800           0
      9693 MEMB     73       POPC     C23      CTL2    -0.180000       12.0110           0
      9694 MEMB     73       POPC     H3R      HAL2     0.900000E-01   1.00800           0
      9695 MEMB     73       POPC     H3S      HAL2     0.900000E-01   1.00800           0
      9696 MEMB     73       POPC     C24      CTL2    -0.180000       12.0110           0
      9697 MEMB     73       POPC     H4R      HAL2     0.900000E-01   1.00800           0
      9698 MEMB     73       POPC     H4S      HAL2     0.900000E-01   1.00800           0
      9699 MEMB     73       POPC     C25      CTL2    -0.180000       12.0110           0
      9700 MEMB     73       POPC     H5R      HAL2     0.900000E-01   1.00800           0
      9701 MEMB     73       POPC     H5S      HAL2     0.900000E-01   1.00800           0
      9702 MEMB     73       POPC     C26      CTL2    -0.180000       12.0110           0
      9703 MEMB     73       POPC     H6R      HAL2     0.900000E-01   1.00800           0
      9704 MEMB     73       POPC     H6S      HAL2     0.900000E-01   1.00800           0
      9705 MEMB     73       POPC     C27      CTL2    -0.180000       12.0110           0
      9706 MEMB     73       POPC     H7R      HAL2     0.900000E-01   1.00800           0
      9707 MEMB     73       POPC     H7S      HAL2     0.900000E-01   1.00800           0
      9708 MEMB     73       POPC     C28      CTL2    -0.180000       12.0110           0
      9709 MEMB     73       POPC     H8R      HAL2     0.900000E-01   1.00800           0
      9710 MEMB     73       POPC     H8S      HAL2     0.900000E-01   1.00800           0
      9711 MEMB     73       POPC     C29      CEL1    -0.150000       12.0110           0
      9712 MEMB     73       POPC     H91      HEL1     0.150000       1.00800           0
      9713 MEMB     73       POPC     C210     CEL1    -0.150000       12.0110           0
      9714 MEMB     73       POPC     H101     HEL1     0.150000       1.00800           0
      9715 MEMB     73       POPC     C211     CTL2    -0.180000       12.0110           0
      9716 MEMB     73       POPC     H11R     HAL2     0.900000E-01   1.00800           0
      9717 MEMB     73       POPC     H11S     HAL2     0.900000E-01   1.00800           0
      9718 MEMB     73       POPC     C212     CTL2    -0.180000       12.0110           0
      9719 MEMB     73       POPC     H12R     HAL2     0.900000E-01   1.00800           0
      9720 MEMB     73       POPC     H12S     HAL2     0.900000E-01   1.00800           0
      9721 MEMB     73       POPC     C213     CTL2    -0.180000       12.0110           0
      9722 MEMB     73       POPC     H13R     HAL2     0.900000E-01   1.00800           0
      9723 MEMB     73       POPC     H13S     HAL2     0.900000E-01   1.00800           0
      9724 MEMB     73       POPC     C214     CTL2    -0.180000       12.0110           0
      9725 MEMB     73       POPC     H14R     HAL2     0.900000E-01   1.00800           0
      9726 MEMB     73       POPC     H14S     HAL2     0.900000E-01   1.00800           0
      9727 MEMB     73       POPC     C215     CTL2    -0.180000       12.0110           0
      9728 MEMB     73       POPC     H15R     HAL2     0.900000E-01   1.00800           0
      9729 MEMB     73       POPC     H15S     HAL2     0.900000E-01   1.00800           0
      9730 MEMB     73       POPC     C216     CTL2    -0.180000       12.0110           0
      9731 MEMB     73       POPC     H16R     HAL2     0.900000E-01   1.00800           0
      9732 MEMB     73       POPC     H16S     HAL2     0.900000E-01   1.00800           0
      9733 MEMB     73       POPC     C217     CTL2    -0.180000       12.0110           0
      9734 MEMB     73       POPC     H17R     HAL2     0.900000E-01   1.00800           0
      9735 MEMB     73       POPC     H17S     HAL2     0.900000E-01   1.00800           0
      9736 MEMB     73       POPC     C218     CTL3    -0.270000       12.0110           0
      9737 MEMB     73       POPC     H18R     HAL3     0.900000E-01   1.00800           0
      9738 MEMB     73       POPC     H18S     HAL3     0.900000E-01   1.00800           0
      9739 MEMB     73       POPC     H18T     HAL3     0.900000E-01   1.00800           0
      9740 MEMB     73       POPC     C33      CTL2    -0.180000       12.0110           0
      9741 MEMB     73       POPC     H3X      HAL2     0.900000E-01   1.00800           0
      9742 MEMB     73       POPC     H3Y      HAL2     0.900000E-01   1.00800           0
      9743 MEMB     73       POPC     C34      CTL2    -0.180000       12.0110           0
      9744 MEMB     73       POPC     H4X      HAL2     0.900000E-01   1.00800           0
      9745 MEMB     73       POPC     H4Y      HAL2     0.900000E-01   1.00800           0
      9746 MEMB     73       POPC     C35      CTL2    -0.180000       12.0110           0
      9747 MEMB     73       POPC     H5X      HAL2     0.900000E-01   1.00800           0
      9748 MEMB     73       POPC     H5Y      HAL2     0.900000E-01   1.00800           0
      9749 MEMB     73       POPC     C36      CTL2    -0.180000       12.0110           0
      9750 MEMB     73       POPC     H6X      HAL2     0.900000E-01   1.00800           0
      9751 MEMB     73       POPC     H6Y      HAL2     0.900000E-01   1.00800           0
      9752 MEMB     73       POPC     C37      CTL2    -0.180000       12.0110           0
      9753 MEMB     73       POPC     H7X      HAL2     0.900000E-01   1.00800           0
      9754 MEMB     73       POPC     H7Y      HAL2     0.900000E-01   1.00800           0
      9755 MEMB     73       POPC     C38      CTL2    -0.180000       12.0110           0
      9756 MEMB     73       POPC     H8X      HAL2     0.900000E-01   1.00800           0
      9757 MEMB     73       POPC     H8Y      HAL2     0.900000E-01   1.00800           0
      9758 MEMB     73       POPC     C39      CTL2    -0.180000       12.0110           0
      9759 MEMB     73       POPC     H9X      HAL2     0.900000E-01   1.00800           0
      9760 MEMB     73       POPC     H9Y      HAL2     0.900000E-01   1.00800           0
      9761 MEMB     73       POPC     C310     CTL2    -0.180000       12.0110           0
      9762 MEMB     73       POPC     H10X     HAL2     0.900000E-01   1.00800           0
      9763 MEMB     73       POPC     H10Y     HAL2     0.900000E-01   1.00800           0
      9764 MEMB     73       POPC     C311     CTL2    -0.180000       12.0110           0
      9765 MEMB     73       POPC     H11X     HAL2     0.900000E-01   1.00800           0
      9766 MEMB     73       POPC     H11Y     HAL2     0.900000E-01   1.00800           0
      9767 MEMB     73       POPC     C312     CTL2    -0.180000       12.0110           0
      9768 MEMB     73       POPC     H12X     HAL2     0.900000E-01   1.00800           0
      9769 MEMB     73       POPC     H12Y     HAL2     0.900000E-01   1.00800           0
      9770 MEMB     73       POPC     C313     CTL2    -0.180000       12.0110           0
      9771 MEMB     73       POPC     H13X     HAL2     0.900000E-01   1.00800           0
      9772 MEMB     73       POPC     H13Y     HAL2     0.900000E-01   1.00800           0
      9773 MEMB     73       POPC     C314     CTL2    -0.180000       12.0110           0
      9774 MEMB     73       POPC     H14X     HAL2     0.900000E-01   1.00800           0
      9775 MEMB     73       POPC     H14Y     HAL2     0.900000E-01   1.00800           0
      9776 MEMB     73       POPC     C315     CTL2    -0.180000       12.0110           0
      9777 MEMB     73       POPC     H15X     HAL2     0.900000E-01   1.00800           0
      9778 MEMB     73       POPC     H15Y     HAL2     0.900000E-01   1.00800           0
      9779 MEMB     73       POPC     C316     CTL3    -0.270000       12.0110           0
      9780 MEMB     73       POPC     H16X     HAL3     0.900000E-01   1.00800           0
      9781 MEMB     73       POPC     H16Y     HAL3     0.900000E-01   1.00800           0
      9782 MEMB     73       POPC     H16Z     HAL3     0.900000E-01   1.00800           0
      9783 MEMB     74       POPC     N        NTL     -0.600000       14.0070           0
      9784 MEMB     74       POPC     C12      CTL2    -0.100000       12.0110           0
      9785 MEMB     74       POPC     H12A     HL       0.250000       1.00800           0
      9786 MEMB     74       POPC     H12B     HL       0.250000       1.00800           0
      9787 MEMB     74       POPC     C13      CTL5    -0.350000       12.0110           0
      9788 MEMB     74       POPC     H13A     HL       0.250000       1.00800           0
      9789 MEMB     74       POPC     H13B     HL       0.250000       1.00800           0
      9790 MEMB     74       POPC     H13C     HL       0.250000       1.00800           0
      9791 MEMB     74       POPC     C14      CTL5    -0.350000       12.0110           0
      9792 MEMB     74       POPC     H14A     HL       0.250000       1.00800           0
      9793 MEMB     74       POPC     H14B     HL       0.250000       1.00800           0
      9794 MEMB     74       POPC     H14C     HL       0.250000       1.00800           0
      9795 MEMB     74       POPC     C15      CTL5    -0.350000       12.0110           0
      9796 MEMB     74       POPC     H15A     HL       0.250000       1.00800           0
      9797 MEMB     74       POPC     H15B     HL       0.250000       1.00800           0
      9798 MEMB     74       POPC     H15C     HL       0.250000       1.00800           0
      9799 MEMB     74       POPC     C11      CTL2    -0.800000E-01   12.0110           0
      9800 MEMB     74       POPC     H11A     HAL2     0.900000E-01   1.00800           0
      9801 MEMB     74       POPC     H11B     HAL2     0.900000E-01   1.00800           0
      9802 MEMB     74       POPC     P        PL       1.500000       30.9740           0
      9803 MEMB     74       POPC     O13      O2L     -0.780000       15.9994           0
      9804 MEMB     74       POPC     O14      O2L     -0.780000       15.9994           0
      9805 MEMB     74       POPC     O12      OSLP    -0.570000       15.9994           0
      9806 MEMB     74       POPC     O11      OSLP    -0.570000       15.9994           0
      9807 MEMB     74       POPC     C1       CTL2    -0.800000E-01   12.0110           0
      9808 MEMB     74       POPC     HA       HAL2     0.900000E-01   1.00800           0
      9809 MEMB     74       POPC     HB       HAL2     0.900000E-01   1.00800           0
      9810 MEMB     74       POPC     C2       CTL1     0.170000       12.0110           0
      9811 MEMB     74       POPC     HS       HAL1     0.900000E-01   1.00800           0
      9812 MEMB     74       POPC     O21      OSL     -0.490000       15.9994           0
      9813 MEMB     74       POPC     C21      CL       0.900000       12.0110           0
      9814 MEMB     74       POPC     O22      OBL     -0.630000       15.9994           0
      9815 MEMB     74       POPC     C22      CTL2    -0.220000       12.0110           0
      9816 MEMB     74       POPC     H2R      HAL2     0.900000E-01   1.00800           0
      9817 MEMB     74       POPC     H2S      HAL2     0.900000E-01   1.00800           0
      9818 MEMB     74       POPC     C3       CTL2     0.800000E-01   12.0110           0
      9819 MEMB     74       POPC     HX       HAL2     0.900000E-01   1.00800           0
      9820 MEMB     74       POPC     HY       HAL2     0.900000E-01   1.00800           0
      9821 MEMB     74       POPC     O31      OSL     -0.490000       15.9994           0
      9822 MEMB     74       POPC     C31      CL       0.900000       12.0110           0
      9823 MEMB     74       POPC     O32      OBL     -0.630000       15.9994           0
      9824 MEMB     74       POPC     C32      CTL2    -0.220000       12.0110           0
      9825 MEMB     74       POPC     H2X      HAL2     0.900000E-01   1.00800           0
      9826 MEMB     74       POPC     H2Y      HAL2     0.900000E-01   1.00800           0
      9827 MEMB     74       POPC     C23      CTL2    -0.180000       12.0110           0
      9828 MEMB     74       POPC     H3R      HAL2     0.900000E-01   1.00800           0
      9829 MEMB     74       POPC     H3S      HAL2     0.900000E-01   1.00800           0
      9830 MEMB     74       POPC     C24      CTL2    -0.180000       12.0110           0
      9831 MEMB     74       POPC     H4R      HAL2     0.900000E-01   1.00800           0
      9832 MEMB     74       POPC     H4S      HAL2     0.900000E-01   1.00800           0
      9833 MEMB     74       POPC     C25      CTL2    -0.180000       12.0110           0
      9834 MEMB     74       POPC     H5R      HAL2     0.900000E-01   1.00800           0
      9835 MEMB     74       POPC     H5S      HAL2     0.900000E-01   1.00800           0
      9836 MEMB     74       POPC     C26      CTL2    -0.180000       12.0110           0
      9837 MEMB     74       POPC     H6R      HAL2     0.900000E-01   1.00800           0
      9838 MEMB     74       POPC     H6S      HAL2     0.900000E-01   1.00800           0
      9839 MEMB     74       POPC     C27      CTL2    -0.180000       12.0110           0
      9840 MEMB     74       POPC     H7R      HAL2     0.900000E-01   1.00800           0
      9841 MEMB     74       POPC     H7S      HAL2     0.900000E-01   1.00800           0
      9842 MEMB     74       POPC     C28      CTL2    -0.180000       12.0110           0
      9843 MEMB     74       POPC     H8R      HAL2     0.900000E-01   1.00800           0
      9844 MEMB     74       POPC     H8S      HAL2     0.900000E-01   1.00800           0
      9845 MEMB     74       POPC     C29      CEL1    -0.150000       12.0110           0
      9846 MEMB     74       POPC     H91      HEL1     0.150000       1.00800           0
      9847 MEMB     74       POPC     C210     CEL1    -0.150000       12.0110           0
      9848 MEMB     74       POPC     H101     HEL1     0.150000       1.00800           0
      9849 MEMB     74       POPC     C211     CTL2    -0.180000       12.0110           0
      9850 MEMB     74       POPC     H11R     HAL2     0.900000E-01   1.00800           0
      9851 MEMB     74       POPC     H11S     HAL2     0.900000E-01   1.00800           0
      9852 MEMB     74       POPC     C212     CTL2    -0.180000       12.0110           0
      9853 MEMB     74       POPC     H12R     HAL2     0.900000E-01   1.00800           0
      9854 MEMB     74       POPC     H12S     HAL2     0.900000E-01   1.00800           0
      9855 MEMB     74       POPC     C213     CTL2    -0.180000       12.0110           0
      9856 MEMB     74       POPC     H13R     HAL2     0.900000E-01   1.00800           0
      9857 MEMB     74       POPC     H13S     HAL2     0.900000E-01   1.00800           0
      9858 MEMB     74       POPC     C214     CTL2    -0.180000       12.0110           0
      9859 MEMB     74       POPC     H14R     HAL2     0.900000E-01   1.00800           0
      9860 MEMB     74       POPC     H14S     HAL2     0.900000E-01   1.00800           0
      9861 MEMB     74       POPC     C215     CTL2    -0.180000       12.0110           0
      9862 MEMB     74       POPC     H15R     HAL2     0.900000E-01   1.00800           0
      9863 MEMB     74       POPC     H15S     HAL2     0.900000E-01   1.00800           0
      9864 MEMB     74       POPC     C216     CTL2    -0.180000       12.0110           0
      9865 MEMB     74       POPC     H16R     HAL2     0.900000E-01   1.00800           0
      9866 MEMB     74       POPC     H16S     HAL2     0.900000E-01   1.00800           0
      9867 MEMB     74       POPC     C217     CTL2    -0.180000       12.0110           0
      9868 MEMB     74       POPC     H17R     HAL2     0.900000E-01   1.00800           0
      9869 MEMB     74       POPC     H17S     HAL2     0.900000E-01   1.00800           0
      9870 MEMB     74       POPC     C218     CTL3    -0.270000       12.0110           0
      9871 MEMB     74       POPC     H18R     HAL3     0.900000E-01   1.00800           0
      9872 MEMB     74       POPC     H18S     HAL3     0.900000E-01   1.00800           0
      9873 MEMB     74       POPC     H18T     HAL3     0.900000E-01   1.00800           0
      9874 MEMB     74       POPC     C33      CTL2    -0.180000       12.0110           0
      9875 MEMB     74       POPC     H3X      HAL2     0.900000E-01   1.00800           0
      9876 MEMB     74       POPC     H3Y      HAL2     0.900000E-01   1.00800           0
      9877 MEMB     74       POPC     C34      CTL2    -0.180000       12.0110           0
      9878 MEMB     74       POPC     H4X      HAL2     0.900000E-01   1.00800           0
      9879 MEMB     74       POPC     H4Y      HAL2     0.900000E-01   1.00800           0
      9880 MEMB     74       POPC     C35      CTL2    -0.180000       12.0110           0
      9881 MEMB     74       POPC     H5X      HAL2     0.900000E-01   1.00800           0
      9882 MEMB     74       POPC     H5Y      HAL2     0.900000E-01   1.00800           0
      9883 MEMB     74       POPC     C36      CTL2    -0.180000       12.0110           0
      9884 MEMB     74       POPC     H6X      HAL2     0.900000E-01   1.00800           0
      9885 MEMB     74       POPC     H6Y      HAL2     0.900000E-01   1.00800           0
      9886 MEMB     74       POPC     C37      CTL2    -0.180000       12.0110           0
      9887 MEMB     74       POPC     H7X      HAL2     0.900000E-01   1.00800           0
      9888 MEMB     74       POPC     H7Y      HAL2     0.900000E-01   1.00800           0
      9889 MEMB     74       POPC     C38      CTL2    -0.180000       12.0110           0
      9890 MEMB     74       POPC     H8X      HAL2     0.900000E-01   1.00800           0
      9891 MEMB     74       POPC     H8Y      HAL2     0.900000E-01   1.00800           0
      9892 MEMB     74       POPC     C39      CTL2    -0.180000       12.0110           0
      9893 MEMB     74       POPC     H9X      HAL2     0.900000E-01   1.00800           0
      9894 MEMB     74       POPC     H9Y      HAL2     0.900000E-01   1.00800           0
      9895 MEMB     74       POPC     C310     CTL2    -0.180000       12.0110           0
      9896 MEMB     74       POPC     H10X     HAL2     0.900000E-01   1.00800           0
      9897 MEMB     74       POPC     H10Y     HAL2     0.900000E-01   1.00800           0
      9898 MEMB     74       POPC     C311     CTL2    -0.180000       12.0110           0
      9899 MEMB     74       POPC     H11X     HAL2     0.900000E-01   1.00800           0
      9900 MEMB     74       POPC     H11Y     HAL2     0.900000E-01   1.00800           0
      9901 MEMB     74       POPC     C312     CTL2    -0.180000       12.0110           0
      9902 MEMB     74       POPC     H12X     HAL2     0.900000E-01   1.00800           0
      9903 MEMB     74       POPC     H12Y     HAL2     0.900000E-01   1.00800           0
      9904 MEMB     74       POPC     C313     CTL2    -0.180000       12.0110           0
      9905 MEMB     74       POPC     H13X     HAL2     0.900000E-01   1.00800           0
      9906 MEMB     74       POPC     H13Y     HAL2     0.900000E-01   1.00800           0
      9907 MEMB     74       POPC     C314     CTL2    -0.180000       12.0110           0
      9908 MEMB     74       POPC     H14X     HAL2     0.900000E-01   1.00800           0
      9909 MEMB     74       POPC     H14Y     HAL2     0.900000E-01   1.00800           0
      9910 MEMB     74       POPC     C315     CTL2    -0.180000       12.0110           0
      9911 MEMB     74       POPC     H15X     HAL2     0.900000E-01   1.00800           0
      9912 MEMB     74       POPC     H15Y     HAL2     0.900000E-01   1.00800           0
      9913 MEMB     74       POPC     C316     CTL3    -0.270000       12.0110           0
      9914 MEMB     74       POPC     H16X     HAL3     0.900000E-01   1.00800           0
      9915 MEMB     74       POPC     H16Y     HAL3     0.900000E-01   1.00800           0
      9916 MEMB     74       POPC     H16Z     HAL3     0.900000E-01   1.00800           0
      9917 TIP3     1        TIP3     OH2      OT      -0.834000       15.9994           0
      9918 TIP3     1        TIP3     H1       HT       0.417000       1.00800           0
      9919 TIP3     1        TIP3     H2       HT       0.417000       1.00800           0
      9920 TIP3     2        TIP3     OH2      OT      -0.834000       15.9994           0
      9921 TIP3     2        TIP3     H1       HT       0.417000       1.00800           0
      9922 TIP3     2        TIP3     H2       HT       0.417000       1.00800           0
      9923 TIP3     3        TIP3     OH2      OT      -0.834000       15.9994           0
      9924 TIP3     3        TIP3     H1       HT       0.417000       1.00800           0
      9925 TIP3     3        TIP3     H2       HT       0.417000       1.00800           0
      9926 TIP3     4        TIP3     OH2      OT      -0.834000       15.9994           0
      9927 TIP3     4        TIP3     H1       HT       0.417000       1.00800           0
      9928 TIP3     4        TIP3     H2       HT       0.417000       1.00800           0
      9929 TIP3     5        TIP3     OH2      OT      -0.834000       15.9994           0
      9930 TIP3     5        TIP3     H1       HT       0.417000       1.00800           0
      9931 TIP3     5        TIP3     H2       HT       0.417000       1.00800           0
      9932 TIP3     6        TIP3     OH2      OT      -0.834000       15.9994           0
      9933 TIP3     6        TIP3     H1       HT       0.417000       1.00800           0
      9934 TIP3     6        TIP3     H2       HT       0.417000       1.00800           0
      9935 TIP3     7        TIP3     OH2      OT      -0.834000       15.9994           0
      9936 TIP3     7        TIP3     H1       HT       0.417000       1.00800           0
      9937 TIP3     7        TIP3     H2       HT       0.417000       1.00800           0
      9938 TIP3     8        TIP3     OH2      OT      -0.834000       15.9994           0
      9939 TIP3     8        TIP3     H1       HT       0.417000       1.00800           0
      9940 TIP3     8        TIP3     H2       HT       0.417000       1.00800           0
      9941 TIP3     9        TIP3     OH2      OT      -0.834000       15.9994           0
      9942 TIP3     9        TIP3     H1       HT       0.417000       1.00800           0
      9943 TIP3     9        TIP3     H2       HT       0.417000       1.00800           0
      9944 TIP3     10       TIP3     OH2      OT      -0.834000       15.9994           0
      9945 TIP3     10       TIP3     H1       HT       0.417000       1.00800           0
      9946 TIP3     10       TIP3     H2       HT       0.417000       1.00800           0
      9947 TIP3     11       TIP3     OH2      OT      -0.834000       15.9994           0
      9948 TIP3     11       TIP3     H1       HT       0.417000       1.00800           0
      9949 TIP3     11       TIP3     H2       HT       0.417000       1.00800           0
      9950 TIP3     12       TIP3     OH2      OT      -0.834000       15.9994           0
      9951 TIP3     12       TIP3     H1       HT       0.417000       1.00800           0
      9952 TIP3     12       TIP3     H2       HT       0.417000       1.00800           0
      9953 TIP3     13       TIP3     OH2      OT      -0.834000       15.9994           0
      9954 TIP3     13       TIP3     H1       HT       0.417000       1.00800           0
      9955 TIP3     13       TIP3     H2       HT       0.417000       1.00800           0
      9956 TIP3     14       TIP3     OH2      OT      -0.834000       15.9994           0
      9957 TIP3     14       TIP3     H1       HT       0.417000       1.00800           0
      9958 TIP3     14       TIP3     H2       HT       0.417000       1.00800           0
      9959 TIP3     15       TIP3     OH2      OT      -0.834000       15.9994           0
      9960 TIP3     15       TIP3     H1       HT       0.417000       1.00800           0
      9961 TIP3     15       TIP3     H2       HT       0.417000       1.00800           0
      9962 TIP3     16       TIP3     OH2      OT      -0.834000       15.9994           0
      9963 TIP3     16       TIP3     H1       HT       0.417000       1.00800           0
      9964 TIP3     16       TIP3     H2       HT       0.417000       1.00800           0
      9965 TIP3     17       TIP3     OH2      OT      -0.834000       15.9994           0
      9966 TIP3     17       TIP3     H1       HT       0.417000       1.00800           0
      9967 TIP3     17       TIP3     H2       HT       0.417000       1.00800           0
      9968 TIP3     18       TIP3     OH2      OT      -0.834000       15.9994           0
      9969 TIP3     18       TIP3     H1       HT       0.417000       1.00800           0
      9970 TIP3     18       TIP3     H2       HT       0.417000       1.00800           0
      9971 TIP3     19       TIP3     OH2      OT      -0.834000       15.9994           0
      9972 TIP3     19       TIP3     H1       HT       0.417000       1.00800           0
      9973 TIP3     19       TIP3     H2       HT       0.417000       1.00800           0
      9974 TIP3     20       TIP3     OH2      OT      -0.834000       15.9994           0
      9975 TIP3     20       TIP3     H1       HT       0.417000       1.00800           0
      9976 TIP3     20       TIP3     H2       HT       0.417000       1.00800           0
      9977 TIP3     21       TIP3     OH2      OT      -0.834000       15.9994           0
      9978 TIP3     21       TIP3     H1       HT       0.417000       1.00800           0
      9979 TIP3     21       TIP3     H2       HT       0.417000       1.00800           0
      9980 TIP3     22       TIP3     OH2      OT      -0.834000       15.9994           0
      9981 TIP3     22       TIP3     H1       HT       0.417000       1.00800           0
      9982 TIP3     22       TIP3     H2       HT       0.417000       1.00800           0
      9983 TIP3     23       TIP3     OH2      OT      -0.834000       15.9994           0
      9984 TIP3     23       TIP3     H1       HT       0.417000       1.00800           0
      9985 TIP3     23       TIP3     H2       HT       0.417000       1.00800           0
      9986 TIP3     24       TIP3     OH2      OT      -0.834000       15.9994           0
      9987 TIP3     24       TIP3     H1       HT       0.417000       1.00800           0
      9988 TIP3     24       TIP3     H2       HT       0.417000       1.00800           0
      9989 TIP3     25       TIP3     OH2      OT      -0.834000       15.9994           0
      9990 TIP3     25       TIP3     H1       HT       0.417000       1.00800           0
      9991 TIP3     25       TIP3     H2       HT       0.417000       1.00800           0
      9992 TIP3     26       TIP3     OH2      OT      -0.834000       15.9994           0
      9993 TIP3     26       TIP3     H1       HT       0.417000       1.00800           0
      9994 TIP3     26       TIP3     H2       HT       0.417000       1.00800           0
      9995 TIP3     27       TIP3     OH2      OT      -0.834000       15.9994           0
      9996 TIP3     27       TIP3     H1       HT       0.417000       1.00800           0
      9997 TIP3     27       TIP3     H2       HT       0.417000       1.00800           0
      9998 TIP3     28       TIP3     OH2      OT      -0.834000       15.9994           0
      9999 TIP3     28       TIP3     H1       HT       0.417000       1.00800           0
     10000 TIP3     28       TIP3     H2       HT       0.417000       1.00800           0
     10001 TIP3     29       TIP3     OH2      OT      -0.834000       15.9994           0
     10002 TIP3     29       TIP3     H1       HT       0.417000       1.00800           0
     10003 TIP3     29       TIP3     H2       HT       0.417000       1.00800           0
     10004 TIP3     30       TIP3     OH2      OT      -0.834000       15.9994           0
     10005 TIP3     30       TIP3     H1       HT       0.417000       1.00800           0
     10006 TIP3     30       TIP3     H2       HT       0.417000       1.00800           0
     10007 TIP3     31       TIP3     OH2      OT      -0.834000       15.9994           0
     10008 TIP3     31       TIP3     H1       HT       0.417000       1.00800           0
     10009 TIP3     31       TIP3     H2       HT       0.417000       1.00800           0
     10010 TIP3     32       TIP3     OH2      OT      -0.834000       15.9994           0
     10011 TIP3     32       TIP3     H1       HT       0.417000       1.00800           0
     10012 TIP3     32       TIP3     H2       HT       0.417000       1.00800           0
     10013 TIP3     33       TIP3     OH2      OT      -0.834000       15.9994           0
     10014 TIP3     33       TIP3     H1       HT       0.417000       1.00800           0
     10015 TIP3     33       TIP3     H2       HT       0.417000       1.00800           0
     10016 TIP3     34       TIP3     OH2      OT      -0.834000       15.9994           0
     10017 TIP3     34       TIP3     H1       HT       0.417000       1.00800           0
     10018 TIP3     34       TIP3     H2       HT       0.417000       1.00800           0
     10019 TIP3     35       TIP3     OH2      OT      -0.834000       15.9994           0
     10020 TIP3     35       TIP3     H1       HT       0.417000       1.00800           0
     10021 TIP3     35       TIP3     H2       HT       0.417000       1.00800           0
     10022 TIP3     36       TIP3     OH2      OT      -0.834000       15.9994           0
     10023 TIP3     36       TIP3     H1       HT       0.417000       1.00800           0
     10024 TIP3     36       TIP3     H2       HT       0.417000       1.00800           0
     10025 TIP3     37       TIP3     OH2      OT      -0.834000       15.9994           0
     10026 TIP3     37       TIP3     H1       HT       0.417000       1.00800           0
     10027 TIP3     37       TIP3     H2       HT       0.417000       1.00800           0
     10028 TIP3     38       TIP3     OH2      OT      -0.834000       15.9994           0
     10029 TIP3     38       TIP3     H1       HT       0.417000       1.00800           0
     10030 TIP3     38       TIP3     H2       HT       0.417000       1.00800           0
     10031 TIP3     39       TIP3     OH2      OT      -0.834000       15.9994           0
     10032 TIP3     39       TIP3     H1       HT       0.417000       1.00800           0
     10033 TIP3     39       TIP3     H2       HT       0.417000       1.00800           0
     10034 TIP3     40       TIP3     OH2      OT      -0.834000       15.9994           0
     10035 TIP3     40       TIP3     H1       HT       0.417000       1.00800           0
     10036 TIP3     40       TIP3     H2       HT       0.417000       1.00800           0
     10037 TIP3     41       TIP3     OH2      OT      -0.834000       15.9994           0
     10038 TIP3     41       TIP3     H1       HT       0.417000       1.00800           0
     10039 TIP3     41       TIP3     H2       HT       0.417000       1.00800           0
     10040 TIP3     42       TIP3     OH2      OT      -0.834000       15.9994           0
     10041 TIP3     42       TIP3     H1       HT       0.417000       1.00800           0
     10042 TIP3     42       TIP3     H2       HT       0.417000       1.00800           0
     10043 TIP3     43       TIP3     OH2      OT      -0.834000       15.9994           0
     10044 TIP3     43       TIP3     H1       HT       0.417000       1.00800           0
     10045 TIP3     43       TIP3     H2       HT       0.417000       1.00800           0
     10046 TIP3     44       TIP3     OH2      OT      -0.834000       15.9994           0
     10047 TIP3     44       TIP3     H1       HT       0.417000       1.00800           0
     10048 TIP3     44       TIP3     H2       HT       0.417000       1.00800           0
     10049 TIP3     45       TIP3     OH2      OT      -0.834000       15.9994           0
     10050 TIP3     45       TIP3     H1       HT       0.417000       1.00800           0
     10051 TIP3     45       TIP3     H2       HT       0.417000       1.00800           0
     10052 TIP3     46       TIP3     OH2      OT      -0.834000       15.9994           0
     10053 TIP3     46       TIP3     H1       HT       0.417000       1.00800           0
     10054 TIP3     46       TIP3     H2       HT       0.417000       1.00800           0
     10055 TIP3     47       TIP3     OH2      OT      -0.834000       15.9994           0
     10056 TIP3     47       TIP3     H1       HT       0.417000       1.00800           0
     10057 TIP3     47       TIP3     H2       HT       0.417000       1.00800           0
     10058 TIP3     48       TIP3     OH2      OT      -0.834000       15.9994           0
     10059 TIP3     48       TIP3     H1       HT       0.417000       1.00800           0
     10060 TIP3     48       TIP3     H2       HT       0.417000       1.00800           0
     10061 TIP3     49       TIP3     OH2      OT      -0.834000       15.9994           0
     10062 TIP3     49       TIP3     H1       HT       0.417000       1.00800           0
     10063 TIP3     49       TIP3     H2       HT       0.417000       1.00800           0
     10064 TIP3     50       TIP3     OH2      OT      -0.834000       15.9994           0
     10065 TIP3     50       TIP3     H1       HT       0.417000       1.00800           0
     10066 TIP3     50       TIP3     H2       HT       0.417000       1.00800           0
     10067 TIP3     51       TIP3     OH2      OT      -0.834000       15.9994           0
     10068 TIP3     51       TIP3     H1       HT       0.417000       1.00800           0
     10069 TIP3     51       TIP3     H2       HT       0.417000       1.00800           0
     10070 TIP3     52       TIP3     OH2      OT      -0.834000       15.9994           0
     10071 TIP3     52       TIP3     H1       HT       0.417000       1.00800           0
     10072 TIP3     52       TIP3     H2       HT       0.417000       1.00800           0
     10073 TIP3     53       TIP3     OH2      OT      -0.834000       15.9994           0
     10074 TIP3     53       TIP3     H1       HT       0.417000       1.00800           0
     10075 TIP3     53       TIP3     H2       HT       0.417000       1.00800           0
     10076 TIP3     54       TIP3     OH2      OT      -0.834000       15.9994           0
     10077 TIP3     54       TIP3     H1       HT       0.417000       1.00800           0
     10078 TIP3     54       TIP3     H2       HT       0.417000       1.00800           0
     10079 TIP3     55       TIP3     OH2      OT      -0.834000       15.9994           0
     10080 TIP3     55       TIP3     H1       HT       0.417000       1.00800           0
     10081 TIP3     55       TIP3     H2       HT       0.417000       1.00800           0
     10082 TIP3     56       TIP3     OH2      OT      -0.834000       15.9994           0
     10083 TIP3     56       TIP3     H1       HT       0.417000       1.00800           0
     10084 TIP3     56       TIP3     H2       HT       0.417000       1.00800           0
     10085 TIP3     57       TIP3     OH2      OT      -0.834000       15.9994           0
     10086 TIP3     57       TIP3     H1       HT       0.417000       1.00800           0
     10087 TIP3     57       TIP3     H2       HT       0.417000       1.00800           0
     10088 TIP3     58       TIP3     OH2      OT      -0.834000       15.9994           0
     10089 TIP3     58       TIP3     H1       HT       0.417000       1.00800           0
     10090 TIP3     58       TIP3     H2       HT       0.417000       1.00800           0
     10091 TIP3     59       TIP3     OH2      OT      -0.834000       15.9994           0
     10092 TIP3     59       TIP3     H1       HT       0.417000       1.00800           0
     10093 TIP3     59       TIP3     H2       HT       0.417000       1.00800           0
     10094 TIP3     60       TIP3     OH2      OT      -0.834000       15.9994           0
     10095 TIP3     60       TIP3     H1       HT       0.417000       1.00800           0
     10096 TIP3     60       TIP3     H2       HT       0.417000       1.00800           0
     10097 TIP3     61       TIP3     OH2      OT      -0.834000       15.9994           0
     10098 TIP3     61       TIP3     H1       HT       0.417000       1.00800           0
     10099 TIP3     61       TIP3     H2       HT       0.417000       1.00800           0
     10100 TIP3     62       TIP3     OH2      OT      -0.834000       15.9994           0
     10101 TIP3     62       TIP3     H1       HT       0.417000       1.00800           0
     10102 TIP3     62       TIP3     H2       HT       0.417000       1.00800           0
     10103 TIP3     63       TIP3     OH2      OT      -0.834000       15.9994           0
     10104 TIP3     63       TIP3     H1       HT       0.417000       1.00800           0
     10105 TIP3     63       TIP3     H2       HT       0.417000       1.00800           0
     10106 TIP3     64       TIP3     OH2      OT      -0.834000       15.9994           0
     10107 TIP3     64       TIP3     H1       HT       0.417000       1.00800           0
     10108 TIP3     64       TIP3     H2       HT       0.417000       1.00800           0
     10109 TIP3     65       TIP3     OH2      OT      -0.834000       15.9994           0
     10110 TIP3     65       TIP3     H1       HT       0.417000       1.00800           0
     10111 TIP3     65       TIP3     H2       HT       0.417000       1.00800           0
     10112 TIP3     66       TIP3     OH2      OT      -0.834000       15.9994           0
     10113 TIP3     66       TIP3     H1       HT       0.417000       1.00800           0
     10114 TIP3     66       TIP3     H2       HT       0.417000       1.00800           0
     10115 TIP3     67       TIP3     OH2      OT      -0.834000       15.9994           0
     10116 TIP3     67       TIP3     H1       HT       0.417000       1.00800           0
     10117 TIP3     67       TIP3     H2       HT       0.417000       1.00800           0
     10118 TIP3     68       TIP3     OH2      OT      -0.834000       15.9994           0
     10119 TIP3     68       TIP3     H1       HT       0.417000       1.00800           0
     10120 TIP3     68       TIP3     H2       HT       0.417000       1.00800           0
     10121 TIP3     69       TIP3     OH2      OT      -0.834000       15.9994           0
     10122 TIP3     69       TIP3     H1       HT       0.417000       1.00800           0
     10123 TIP3     69       TIP3     H2       HT       0.417000       1.00800           0
     10124 TIP3     70       TIP3     OH2      OT      -0.834000       15.9994           0
     10125 TIP3     70       TIP3     H1       HT       0.417000       1.00800           0
     10126 TIP3     70       TIP3     H2       HT       0.417000       1.00800           0
     10127 TIP3     71       TIP3     OH2      OT      -0.834000       15.9994           0
     10128 TIP3     71       TIP3     H1       HT       0.417000       1.00800           0
     10129 TIP3     71       TIP3     H2       HT       0.417000       1.00800           0
     10130 TIP3     72       TIP3     OH2      OT      -0.834000       15.9994           0
     10131 TIP3     72       TIP3     H1       HT       0.417000       1.00800           0
     10132 TIP3     72       TIP3     H2       HT       0.417000       1.00800           0
     10133 TIP3     73       TIP3     OH2      OT      -0.834000       15.9994           0
     10134 TIP3     73       TIP3     H1       HT       0.417000       1.00800           0
     10135 TIP3     73       TIP3     H2       HT       0.417000       1.00800           0
     10136 TIP3     74       TIP3     OH2      OT      -0.834000       15.9994           0
     10137 TIP3     74       TIP3     H1       HT       0.417000       1.00800           0
     10138 TIP3     74       TIP3     H2       HT       0.417000       1.00800           0
     10139 TIP3     75       TIP3     OH2      OT      -0.834000       15.9994           0
     10140 TIP3     75       TIP3     H1       HT       0.417000       1.00800           0
     10141 TIP3     75       TIP3     H2       HT       0.417000       1.00800           0
     10142 TIP3     76       TIP3     OH2      OT      -0.834000       15.9994           0
     10143 TIP3     76       TIP3     H1       HT       0.417000       1.00800           0
     10144 TIP3     76       TIP3     H2       HT       0.417000       1.00800           0
     10145 TIP3     77       TIP3     OH2      OT      -0.834000       15.9994           0
     10146 TIP3     77       TIP3     H1       HT       0.417000       1.00800           0
     10147 TIP3     77       TIP3     H2       HT       0.417000       1.00800           0
     10148 TIP3     78       TIP3     OH2      OT      -0.834000       15.9994           0
     10149 TIP3     78       TIP3     H1       HT       0.417000       1.00800           0
     10150 TIP3     78       TIP3     H2       HT       0.417000       1.00800           0
     10151 TIP3     79       TIP3     OH2      OT      -0.834000       15.9994           0
     10152 TIP3     79       TIP3     H1       HT       0.417000       1.00800           0
     10153 TIP3     79       TIP3     H2       HT       0.417000       1.00800           0
     10154 TIP3     80       TIP3     OH2      OT      -0.834000       15.9994           0
     10155 TIP3     80       TIP3     H1       HT       0.417000       1.00800           0
     10156 TIP3     80       TIP3     H2       HT       0.417000       1.00800           0
     10157 TIP3     81       TIP3     OH2      OT      -0.834000       15.9994           0
     10158 TIP3     81       TIP3     H1       HT       0.417000       1.00800           0
     10159 TIP3     81       TIP3     H2       HT       0.417000       1.00800           0
     10160 TIP3     82       TIP3     OH2      OT      -0.834000       15.9994           0
     10161 TIP3     82       TIP3     H1       HT       0.417000       1.00800           0
     10162 TIP3     82       TIP3     H2       HT       0.417000       1.00800           0
     10163 TIP3     83       TIP3     OH2      OT      -0.834000       15.9994           0
     10164 TIP3     83       TIP3     H1       HT       0.417000       1.00800           0
     10165 TIP3     83       TIP3     H2       HT       0.417000       1.00800           0
     10166 TIP3     84       TIP3     OH2      OT      -0.834000       15.9994           0
     10167 TIP3     84       TIP3     H1       HT       0.417000       1.00800           0
     10168 TIP3     84       TIP3     H2       HT       0.417000       1.00800           0
     10169 TIP3     85       TIP3     OH2      OT      -0.834000       15.9994           0
     10170 TIP3     85       TIP3     H1       HT       0.417000       1.00800           0
     10171 TIP3     85       TIP3     H2       HT       0.417000       1.00800           0
     10172 TIP3     86       TIP3     OH2      OT      -0.834000       15.9994           0
     10173 TIP3     86       TIP3     H1       HT       0.417000       1.00800           0
     10174 TIP3     86       TIP3     H2       HT       0.417000       1.00800           0
     10175 TIP3     87       TIP3     OH2      OT      -0.834000       15.9994           0
     10176 TIP3     87       TIP3     H1       HT       0.417000       1.00800           0
     10177 TIP3     87       TIP3     H2       HT       0.417000       1.00800           0
     10178 TIP3     88       TIP3     OH2      OT      -0.834000       15.9994           0
     10179 TIP3     88       TIP3     H1       HT       0.417000       1.00800           0
     10180 TIP3     88       TIP3     H2       HT       0.417000       1.00800           0
     10181 TIP3     89       TIP3     OH2      OT      -0.834000       15.9994           0
     10182 TIP3     89       TIP3     H1       HT       0.417000       1.00800           0
     10183 TIP3     89       TIP3     H2       HT       0.417000       1.00800           0
     10184 TIP3     90       TIP3     OH2      OT      -0.834000       15.9994           0
     10185 TIP3     90       TIP3     H1       HT       0.417000       1.00800           0
     10186 TIP3     90       TIP3     H2       HT       0.417000       1.00800           0
     10187 TIP3     91       TIP3     OH2      OT      -0.834000       15.9994           0
     10188 TIP3     91       TIP3     H1       HT       0.417000       1.00800           0
     10189 TIP3     91       TIP3     H2       HT       0.417000       1.00800           0
     10190 TIP3     92       TIP3     OH2      OT      -0.834000       15.9994           0
     10191 TIP3     92       TIP3     H1       HT       0.417000       1.00800           0
     10192 TIP3     92       TIP3     H2       HT       0.417000       1.00800           0
     10193 TIP3     93       TIP3     OH2      OT      -0.834000       15.9994           0
     10194 TIP3     93       TIP3     H1       HT       0.417000       1.00800           0
     10195 TIP3     93       TIP3     H2       HT       0.417000       1.00800           0
     10196 TIP3     94       TIP3     OH2      OT      -0.834000       15.9994           0
     10197 TIP3     94       TIP3     H1       HT       0.417000       1.00800           0
     10198 TIP3     94       TIP3     H2       HT       0.417000       1.00800           0
     10199 TIP3     95       TIP3     OH2      OT      -0.834000       15.9994           0
     10200 TIP3     95       TIP3     H1       HT       0.417000       1.00800           0
     10201 TIP3     95       TIP3     H2       HT       0.417000       1.00800           0
     10202 TIP3     96       TIP3     OH2      OT      -0.834000       15.9994           0
     10203 TIP3     96       TIP3     H1       HT       0.417000       1.00800           0
     10204 TIP3     96       TIP3     H2       HT       0.417000       1.00800           0
     10205 TIP3     97       TIP3     OH2      OT      -0.834000       15.9994           0
     10206 TIP3     97       TIP3     H1       HT       0.417000       1.00800           0
     10207 TIP3     97       TIP3     H2       HT       0.417000       1.00800           0
     10208 TIP3     98       TIP3     OH2      OT      -0.834000       15.9994           0
     10209 TIP3     98       TIP3     H1       HT       0.417000       1.00800           0
     10210 TIP3     98       TIP3     H2       HT       0.417000       1.00800           0
     10211 TIP3     99       TIP3     OH2      OT      -0.834000       15.9994           0
     10212 TIP3     99       TIP3     H1       HT       0.417000       1.00800           0
     10213 TIP3     99       TIP3     H2       HT       0.417000       1.00800           0
     10214 TIP3     100      TIP3     OH2      OT      -0.834000       15.9994           0
     10215 TIP3     100      TIP3     H1       HT       0.417000       1.00800           0
     10216 TIP3     100      TIP3     H2       HT       0.417000       1.00800           0
     10217 TIP3     101      TIP3     OH2      OT      -0.834000       15.9994           0
     10218 TIP3     101      TIP3     H1       HT       0.417000       1.00800           0
     10219 TIP3     101      TIP3     H2       HT       0.417000       1.00800           0
     10220 TIP3     102      TIP3     OH2      OT      -0.834000       15.9994           0
     10221 TIP3     102      TIP3     H1       HT       0.417000       1.00800           0
     10222 TIP3     102      TIP3     H2       HT       0.417000       1.00800           0
     10223 TIP3     103      TIP3     OH2      OT      -0.834000       15.9994           0
     10224 TIP3     103      TIP3     H1       HT       0.417000       1.00800           0
     10225 TIP3     103      TIP3     H2       HT       0.417000       1.00800           0
     10226 TIP3     104      TIP3     OH2      OT      -0.834000       15.9994           0
     10227 TIP3     104      TIP3     H1       HT       0.417000       1.00800           0
     10228 TIP3     104      TIP3     H2       HT       0.417000       1.00800           0
     10229 TIP3     105      TIP3     OH2      OT      -0.834000       15.9994           0
     10230 TIP3     105      TIP3     H1       HT       0.417000       1.00800           0
     10231 TIP3     105      TIP3     H2       HT       0.417000       1.00800           0
     10232 TIP3     106      TIP3     OH2      OT      -0.834000       15.9994           0
     10233 TIP3     106      TIP3     H1       HT       0.417000       1.00800           0
     10234 TIP3     106      TIP3     H2       HT       0.417000       1.00800           0
     10235 TIP3     107      TIP3     OH2      OT      -0.834000       15.9994           0
     10236 TIP3     107      TIP3     H1       HT       0.417000       1.00800           0
     10237 TIP3     107      TIP3     H2       HT       0.417000       1.00800           0
     10238 TIP3     108      TIP3     OH2      OT      -0.834000       15.9994           0
     10239 TIP3     108      TIP3     H1       HT       0.417000       1.00800           0
     10240 TIP3     108      TIP3     H2       HT       0.417000       1.00800           0
     10241 TIP3     109      TIP3     OH2      OT      -0.834000       15.9994           0
     10242 TIP3     109      TIP3     H1       HT       0.417000       1.00800           0
     10243 TIP3     109      TIP3     H2       HT       0.417000       1.00800           0
     10244 TIP3     110      TIP3     OH2      OT      -0.834000       15.9994           0
     10245 TIP3     110      TIP3     H1       HT       0.417000       1.00800           0
     10246 TIP3     110      TIP3     H2       HT       0.417000       1.00800           0
     10247 TIP3     111      TIP3     OH2      OT      -0.834000       15.9994           0
     10248 TIP3     111      TIP3     H1       HT       0.417000       1.00800           0
     10249 TIP3     111      TIP3     H2       HT       0.417000       1.00800           0
     10250 TIP3     112      TIP3     OH2      OT      -0.834000       15.9994           0
     10251 TIP3     112      TIP3     H1       HT       0.417000       1.00800           0
     10252 TIP3     112      TIP3     H2       HT       0.417000       1.00800           0
     10253 TIP3     113      TIP3     OH2      OT      -0.834000       15.9994           0
     10254 TIP3     113      TIP3     H1       HT       0.417000       1.00800           0
     10255 TIP3     113      TIP3     H2       HT       0.417000       1.00800           0
     10256 TIP3     114      TIP3     OH2      OT      -0.834000       15.9994           0
     10257 TIP3     114      TIP3     H1       HT       0.417000       1.00800           0
     10258 TIP3     114      TIP3     H2       HT       0.417000       1.00800           0
     10259 TIP3     115      TIP3     OH2      OT      -0.834000       15.9994           0
     10260 TIP3     115      TIP3     H1       HT       0.417000       1.00800           0
     10261 TIP3     115      TIP3     H2       HT       0.417000       1.00800           0
     10262 TIP3     116      TIP3     OH2      OT      -0.834000       15.9994           0
     10263 TIP3     116      TIP3     H1       HT       0.417000       1.00800           0
     10264 TIP3     116      TIP3     H2       HT       0.417000       1.00800           0
     10265 TIP3     117      TIP3     OH2      OT      -0.834000       15.9994           0
     10266 TIP3     117      TIP3     H1       HT       0.417000       1.00800           0
     10267 TIP3     117      TIP3     H2       HT       0.417000       1.00800           0
     10268 TIP3     118      TIP3     OH2      OT      -0.834000       15.9994           0
     10269 TIP3     118      TIP3     H1       HT       0.417000       1.00800           0
     10270 TIP3     118      TIP3     H2       HT       0.417000       1.00800           0
     10271 TIP3     119      TIP3     OH2      OT      -0.834000       15.9994           0
     10272 TIP3     119      TIP3     H1       HT       0.417000       1.00800           0
     10273 TIP3     119      TIP3     H2       HT       0.417000       1.00800           0
     10274 TIP3     120      TIP3     OH2      OT      -0.834000       15.9994           0
     10275 TIP3     120      TIP3     H1       HT       0.417000       1.00800           0
     10276 TIP3     120      TIP3     H2       HT       0.417000       1.00800           0
     10277 TIP3     121      TIP3     OH2      OT      -0.834000       15.9994           0
     10278 TIP3     121      TIP3     H1       HT       0.417000       1.00800           0
     10279 TIP3     121      TIP3     H2       HT       0.417000       1.00800           0
     10280 TIP3     122      TIP3     OH2      OT      -0.834000       15.9994           0
     10281 TIP3     122      TIP3     H1       HT       0.417000       1.00800           0
     10282 TIP3     122      TIP3     H2       HT       0.417000       1.00800           0
     10283 TIP3     123      TIP3     OH2      OT      -0.834000       15.9994           0
     10284 TIP3     123      TIP3     H1       HT       0.417000       1.00800           0
     10285 TIP3     123      TIP3     H2       HT       0.417000       1.00800           0
     10286 TIP3     124      TIP3     OH2      OT      -0.834000       15.9994           0
     10287 TIP3     124      TIP3     H1       HT       0.417000       1.00800           0
     10288 TIP3     124      TIP3     H2       HT       0.417000       1.00800           0
     10289 TIP3     125      TIP3     OH2      OT      -0.834000       15.9994           0
     10290 TIP3     125      TIP3     H1       HT       0.417000       1.00800           0
     10291 TIP3     125      TIP3     H2       HT       0.417000       1.00800           0
     10292 TIP3     126      TIP3     OH2      OT      -0.834000       15.9994           0
     10293 TIP3     126      TIP3     H1       HT       0.417000       1.00800           0
     10294 TIP3     126      TIP3     H2       HT       0.417000       1.00800           0
     10295 TIP3     127      TIP3     OH2      OT      -0.834000       15.9994           0
     10296 TIP3     127      TIP3     H1       HT       0.417000       1.00800           0
     10297 TIP3     127      TIP3     H2       HT       0.417000       1.00800           0
     10298 TIP3     128      TIP3     OH2      OT      -0.834000       15.9994           0
     10299 TIP3     128      TIP3     H1       HT       0.417000       1.00800           0
     10300 TIP3     128      TIP3     H2       HT       0.417000       1.00800           0
     10301 TIP3     129      TIP3     OH2      OT      -0.834000       15.9994           0
     10302 TIP3     129      TIP3     H1       HT       0.417000       1.00800           0
     10303 TIP3     129      TIP3     H2       HT       0.417000       1.00800           0
     10304 TIP3     130      TIP3     OH2      OT      -0.834000       15.9994           0
     10305 TIP3     130      TIP3     H1       HT       0.417000       1.00800           0
     10306 TIP3     130      TIP3     H2       HT       0.417000       1.00800           0
     10307 TIP3     131      TIP3     OH2      OT      -0.834000       15.9994           0
     10308 TIP3     131      TIP3     H1       HT       0.417000       1.00800           0
     10309 TIP3     131      TIP3     H2       HT       0.417000       1.00800           0
     10310 TIP3     132      TIP3     OH2      OT      -0.834000       15.9994           0
     10311 TIP3     132      TIP3     H1       HT       0.417000       1.00800           0
     10312 TIP3     132      TIP3     H2       HT       0.417000       1.00800           0
     10313 TIP3     133      TIP3     OH2      OT      -0.834000       15.9994           0
     10314 TIP3     133      TIP3     H1       HT       0.417000       1.00800           0
     10315 TIP3     133      TIP3     H2       HT       0.417000       1.00800           0
     10316 TIP3     134      TIP3     OH2      OT      -0.834000       15.9994           0
     10317 TIP3     134      TIP3     H1       HT       0.417000       1.00800           0
     10318 TIP3     134      TIP3     H2       HT       0.417000       1.00800           0
     10319 TIP3     135      TIP3     OH2      OT      -0.834000       15.9994           0
     10320 TIP3     135      TIP3     H1       HT       0.417000       1.00800           0
     10321 TIP3     135      TIP3     H2       HT       0.417000       1.00800           0
     10322 TIP3     136      TIP3     OH2      OT      -0.834000       15.9994           0
     10323 TIP3     136      TIP3     H1       HT       0.417000       1.00800           0
     10324 TIP3     136      TIP3     H2       HT       0.417000       1.00800           0
     10325 TIP3     137      TIP3     OH2      OT      -0.834000       15.9994           0
     10326 TIP3     137      TIP3     H1       HT       0.417000       1.00800           0
     10327 TIP3     137      TIP3     H2       HT       0.417000       1.00800           0
     10328 TIP3     138      TIP3     OH2      OT      -0.834000       15.9994           0
     10329 TIP3     138      TIP3     H1       HT       0.417000       1.00800           0
     10330 TIP3     138      TIP3     H2       HT       0.417000       1.00800           0
     10331 TIP3     139      TIP3     OH2      OT      -0.834000       15.9994           0
     10332 TIP3     139      TIP3     H1       HT       0.417000       1.00800           0
     10333 TIP3     139      TIP3     H2       HT       0.417000       1.00800           0
     10334 TIP3     140      TIP3     OH2      OT      -0.834000       15.9994           0
     10335 TIP3     140      TIP3     H1       HT       0.417000       1.00800           0
     10336 TIP3     140      TIP3     H2       HT       0.417000       1.00800           0
     10337 TIP3     141      TIP3     OH2      OT      -0.834000       15.9994           0
     10338 TIP3     141      TIP3     H1       HT       0.417000       1.00800           0
     10339 TIP3     141      TIP3     H2       HT       0.417000       1.00800           0
     10340 TIP3     142      TIP3     OH2      OT      -0.834000       15.9994           0
     10341 TIP3     142      TIP3     H1       HT       0.417000       1.00800           0
     10342 TIP3     142      TIP3     H2       HT       0.417000       1.00800           0
     10343 TIP3     143      TIP3     OH2      OT      -0.834000       15.9994           0
     10344 TIP3     143      TIP3     H1       HT       0.417000       1.00800           0
     10345 TIP3     143      TIP3     H2       HT       0.417000       1.00800           0
     10346 TIP3     144      TIP3     OH2      OT      -0.834000       15.9994           0
     10347 TIP3     144      TIP3     H1       HT       0.417000       1.00800           0
     10348 TIP3     144      TIP3     H2       HT       0.417000       1.00800           0
     10349 TIP3     145      TIP3     OH2      OT      -0.834000       15.9994           0
     10350 TIP3     145      TIP3     H1       HT       0.417000       1.00800           0
     10351 TIP3     145      TIP3     H2       HT       0.417000       1.00800           0
     10352 TIP3     146      TIP3     OH2      OT      -0.834000       15.9994           0
     10353 TIP3     146      TIP3     H1       HT       0.417000       1.00800           0
     10354 TIP3     146      TIP3     H2       HT       0.417000       1.00800           0
     10355 TIP3     147      TIP3     OH2      OT      -0.834000       15.9994           0
     10356 TIP3     147      TIP3     H1       HT       0.417000       1.00800           0
     10357 TIP3     147      TIP3     H2       HT       0.417000       1.00800           0
     10358 TIP3     148      TIP3     OH2      OT      -0.834000       15.9994           0
     10359 TIP3     148      TIP3     H1       HT       0.417000       1.00800           0
     10360 TIP3     148      TIP3     H2       HT       0.417000       1.00800           0
     10361 TIP3     149      TIP3     OH2      OT      -0.834000       15.9994           0
     10362 TIP3     149      TIP3     H1       HT       0.417000       1.00800           0
     10363 TIP3     149      TIP3     H2       HT       0.417000       1.00800           0
     10364 TIP3     150      TIP3     OH2      OT      -0.834000       15.9994           0
     10365 TIP3     150      TIP3     H1       HT       0.417000       1.00800           0
     10366 TIP3     150      TIP3     H2       HT       0.417000       1.00800           0
     10367 TIP3     151      TIP3     OH2      OT      -0.834000       15.9994           0
     10368 TIP3     151      TIP3     H1       HT       0.417000       1.00800           0
     10369 TIP3     151      TIP3     H2       HT       0.417000       1.00800           0
     10370 TIP3     152      TIP3     OH2      OT      -0.834000       15.9994           0
     10371 TIP3     152      TIP3     H1       HT       0.417000       1.00800           0
     10372 TIP3     152      TIP3     H2       HT       0.417000       1.00800           0
     10373 TIP3     153      TIP3     OH2      OT      -0.834000       15.9994           0
     10374 TIP3     153      TIP3     H1       HT       0.417000       1.00800           0
     10375 TIP3     153      TIP3     H2       HT       0.417000       1.00800           0
     10376 TIP3     154      TIP3     OH2      OT      -0.834000       15.9994           0
     10377 TIP3     154      TIP3     H1       HT       0.417000       1.00800           0
     10378 TIP3     154      TIP3     H2       HT       0.417000       1.00800           0
     10379 TIP3     155      TIP3     OH2      OT      -0.834000       15.9994           0
     10380 TIP3     155      TIP3     H1       HT       0.417000       1.00800           0
     10381 TIP3     155      TIP3     H2       HT       0.417000       1.00800           0
     10382 TIP3     156      TIP3     OH2      OT      -0.834000       15.9994           0
     10383 TIP3     156      TIP3     H1       HT       0.417000       1.00800           0
     10384 TIP3     156      TIP3     H2       HT       0.417000       1.00800           0
     10385 TIP3     157      TIP3     OH2      OT      -0.834000       15.9994           0
     10386 TIP3     157      TIP3     H1       HT       0.417000       1.00800           0
     10387 TIP3     157      TIP3     H2       HT       0.417000       1.00800           0
     10388 TIP3     158      TIP3     OH2      OT      -0.834000       15.9994           0
     10389 TIP3     158      TIP3     H1       HT       0.417000       1.00800           0
     10390 TIP3     158      TIP3     H2       HT       0.417000       1.00800           0
     10391 TIP3     159      TIP3     OH2      OT      -0.834000       15.9994           0
     10392 TIP3     159      TIP3     H1       HT       0.417000       1.00800           0
     10393 TIP3     159      TIP3     H2       HT       0.417000       1.00800           0
     10394 TIP3     160      TIP3     OH2      OT      -0.834000       15.9994           0
     10395 TIP3     160      TIP3     H1       HT       0.417000       1.00800           0
     10396 TIP3     160      TIP3     H2       HT       0.417000       1.00800           0
     10397 TIP3     161      TIP3     OH2      OT      -0.834000       15.9994           0
     10398 TIP3     161      TIP3     H1       HT       0.417000       1.00800           0
     10399 TIP3     161      TIP3     H2       HT       0.417000       1.00800           0
     10400 TIP3     162      TIP3     OH2      OT      -0.834000       15.9994           0
     10401 TIP3     162      TIP3     H1       HT       0.417000       1.00800           0
     10402 TIP3     162      TIP3     H2       HT       0.417000       1.00800           0
     10403 TIP3     163      TIP3     OH2      OT      -0.834000       15.9994           0
     10404 TIP3     163      TIP3     H1       HT       0.417000       1.00800           0
     10405 TIP3     163      TIP3     H2       HT       0.417000       1.00800           0
     10406 TIP3     164      TIP3     OH2      OT      -0.834000       15.9994           0
     10407 TIP3     164      TIP3     H1       HT       0.417000       1.00800           0
     10408 TIP3     164      TIP3     H2       HT       0.417000       1.00800           0
     10409 TIP3     165      TIP3     OH2      OT      -0.834000       15.9994           0
     10410 TIP3     165      TIP3     H1       HT       0.417000       1.00800           0
     10411 TIP3     165      TIP3     H2       HT       0.417000       1.00800           0
     10412 TIP3     166      TIP3     OH2      OT      -0.834000       15.9994           0
     10413 TIP3     166      TIP3     H1       HT       0.417000       1.00800           0
     10414 TIP3     166      TIP3     H2       HT       0.417000       1.00800           0
     10415 TIP3     167      TIP3     OH2      OT      -0.834000       15.9994           0
     10416 TIP3     167      TIP3     H1       HT       0.417000       1.00800           0
     10417 TIP3     167      TIP3     H2       HT       0.417000       1.00800           0
     10418 TIP3     168      TIP3     OH2      OT      -0.834000       15.9994           0
     10419 TIP3     168      TIP3     H1       HT       0.417000       1.00800           0
     10420 TIP3     168      TIP3     H2       HT       0.417000       1.00800           0
     10421 TIP3     169      TIP3     OH2      OT      -0.834000       15.9994           0
     10422 TIP3     169      TIP3     H1       HT       0.417000       1.00800           0
     10423 TIP3     169      TIP3     H2       HT       0.417000       1.00800           0
     10424 TIP3     170      TIP3     OH2      OT      -0.834000       15.9994           0
     10425 TIP3     170      TIP3     H1       HT       0.417000       1.00800           0
     10426 TIP3     170      TIP3     H2       HT       0.417000       1.00800           0
     10427 TIP3     171      TIP3     OH2      OT      -0.834000       15.9994           0
     10428 TIP3     171      TIP3     H1       HT       0.417000       1.00800           0
     10429 TIP3     171      TIP3     H2       HT       0.417000       1.00800           0
     10430 TIP3     172      TIP3     OH2      OT      -0.834000       15.9994           0
     10431 TIP3     172      TIP3     H1       HT       0.417000       1.00800           0
     10432 TIP3     172      TIP3     H2       HT       0.417000       1.00800           0
     10433 TIP3     173      TIP3     OH2      OT      -0.834000       15.9994           0
     10434 TIP3     173      TIP3     H1       HT       0.417000       1.00800           0
     10435 TIP3     173      TIP3     H2       HT       0.417000       1.00800           0
     10436 TIP3     174      TIP3     OH2      OT      -0.834000       15.9994           0
     10437 TIP3     174      TIP3     H1       HT       0.417000       1.00800           0
     10438 TIP3     174      TIP3     H2       HT       0.417000       1.00800           0
     10439 TIP3     175      TIP3     OH2      OT      -0.834000       15.9994           0
     10440 TIP3     175      TIP3     H1       HT       0.417000       1.00800           0
     10441 TIP3     175      TIP3     H2       HT       0.417000       1.00800           0
     10442 TIP3     176      TIP3     OH2      OT      -0.834000       15.9994           0
     10443 TIP3     176      TIP3     H1       HT       0.417000       1.00800           0
     10444 TIP3     176      TIP3     H2       HT       0.417000       1.00800           0
     10445 TIP3     177      TIP3     OH2      OT      -0.834000       15.9994           0
     10446 TIP3     177      TIP3     H1       HT       0.417000       1.00800           0
     10447 TIP3     177      TIP3     H2       HT       0.417000       1.00800           0
     10448 TIP3     178      TIP3     OH2      OT      -0.834000       15.9994           0
     10449 TIP3     178      TIP3     H1       HT       0.417000       1.00800           0
     10450 TIP3     178      TIP3     H2       HT       0.417000       1.00800           0
     10451 TIP3     179      TIP3     OH2      OT      -0.834000       15.9994           0
     10452 TIP3     179      TIP3     H1       HT       0.417000       1.00800           0
     10453 TIP3     179      TIP3     H2       HT       0.417000       1.00800           0
     10454 TIP3     180      TIP3     OH2      OT      -0.834000       15.9994           0
     10455 TIP3     180      TIP3     H1       HT       0.417000       1.00800           0
     10456 TIP3     180      TIP3     H2       HT       0.417000       1.00800           0
     10457 TIP3     181      TIP3     OH2      OT      -0.834000       15.9994           0
     10458 TIP3     181      TIP3     H1       HT       0.417000       1.00800           0
     10459 TIP3     181      TIP3     H2       HT       0.417000       1.00800           0
     10460 TIP3     182      TIP3     OH2      OT      -0.834000       15.9994           0
     10461 TIP3     182      TIP3     H1       HT       0.417000       1.00800           0
     10462 TIP3     182      TIP3     H2       HT       0.417000       1.00800           0
     10463 TIP3     183      TIP3     OH2      OT      -0.834000       15.9994           0
     10464 TIP3     183      TIP3     H1       HT       0.417000       1.00800           0
     10465 TIP3     183      TIP3     H2       HT       0.417000       1.00800           0
     10466 TIP3     184      TIP3     OH2      OT      -0.834000       15.9994           0
     10467 TIP3     184      TIP3     H1       HT       0.417000       1.00800           0
     10468 TIP3     184      TIP3     H2       HT       0.417000       1.00800           0
     10469 TIP3     185      TIP3     OH2      OT      -0.834000       15.9994           0
     10470 TIP3     185      TIP3     H1       HT       0.417000       1.00800           0
     10471 TIP3     185      TIP3     H2       HT       0.417000       1.00800           0
     10472 TIP3     186      TIP3     OH2      OT      -0.834000       15.9994           0
     10473 TIP3     186      TIP3     H1       HT       0.417000       1.00800           0
     10474 TIP3     186      TIP3     H2       HT       0.417000       1.00800           0
     10475 TIP3     187      TIP3     OH2      OT      -0.834000       15.9994           0
     10476 TIP3     187      TIP3     H1       HT       0.417000       1.00800           0
     10477 TIP3     187      TIP3     H2       HT       0.417000       1.00800           0
     10478 TIP3     188      TIP3     OH2      OT      -0.834000       15.9994           0
     10479 TIP3     188      TIP3     H1       HT       0.417000       1.00800           0
     10480 TIP3     188      TIP3     H2       HT       0.417000       1.00800           0
     10481 TIP3     189      TIP3     OH2      OT      -0.834000       15.9994           0
     10482 TIP3     189      TIP3     H1       HT       0.417000       1.00800           0
     10483 TIP3     189      TIP3     H2       HT       0.417000       1.00800           0
     10484 TIP3     190      TIP3     OH2      OT      -0.834000       15.9994           0
     10485 TIP3     190      TIP3     H1       HT       0.417000       1.00800           0
     10486 TIP3     190      TIP3     H2       HT       0.417000       1.00800           0
     10487 TIP3     191      TIP3     OH2      OT      -0.834000       15.9994           0
     10488 TIP3     191      TIP3     H1       HT       0.417000       1.00800           0
     10489 TIP3     191      TIP3     H2       HT       0.417000       1.00800           0
     10490 TIP3     192      TIP3     OH2      OT      -0.834000       15.9994           0
     10491 TIP3     192      TIP3     H1       HT       0.417000       1.00800           0
     10492 TIP3     192      TIP3     H2       HT       0.417000       1.00800           0
     10493 TIP3     193      TIP3     OH2      OT      -0.834000       15.9994           0
     10494 TIP3     193      TIP3     H1       HT       0.417000       1.00800           0
     10495 TIP3     193      TIP3     H2       HT       0.417000       1.00800           0
     10496 TIP3     194      TIP3     OH2      OT      -0.834000       15.9994           0
     10497 TIP3     194      TIP3     H1       HT       0.417000       1.00800           0
     10498 TIP3     194      TIP3     H2       HT       0.417000       1.00800           0
     10499 TIP3     195      TIP3     OH2      OT      -0.834000       15.9994           0
     10500 TIP3     195      TIP3     H1       HT       0.417000       1.00800           0
     10501 TIP3     195      TIP3     H2       HT       0.417000       1.00800           0
     10502 TIP3     196      TIP3     OH2      OT      -0.834000       15.9994           0
     10503 TIP3     196      TIP3     H1       HT       0.417000       1.00800           0
     10504 TIP3     196      TIP3     H2       HT       0.417000       1.00800           0
     10505 TIP3     197      TIP3     OH2      OT      -0.834000       15.9994           0
     10506 TIP3     197      TIP3     H1       HT       0.417000       1.00800           0
     10507 TIP3     197      TIP3     H2       HT       0.417000       1.00800           0
     10508 TIP3     198      TIP3     OH2      OT      -0.834000       15.9994           0
     10509 TIP3     198      TIP3     H1       HT       0.417000       1.00800           0
     10510 TIP3     198      TIP3     H2       HT       0.417000       1.00800           0
     10511 TIP3     199      TIP3     OH2      OT      -0.834000       15.9994           0
     10512 TIP3     199      TIP3     H1       HT       0.417000       1.00800           0
     10513 TIP3     199      TIP3     H2       HT       0.417000       1.00800           0
     10514 TIP3     200      TIP3     OH2      OT      -0.834000       15.9994           0
     10515 TIP3     200      TIP3     H1       HT       0.417000       1.00800           0
     10516 TIP3     200      TIP3     H2       HT       0.417000       1.00800           0
     10517 TIP3     201      TIP3     OH2      OT      -0.834000       15.9994           0
     10518 TIP3     201      TIP3     H1       HT       0.417000       1.00800           0
     10519 TIP3     201      TIP3     H2       HT       0.417000       1.00800           0
     10520 TIP3     202      TIP3     OH2      OT      -0.834000       15.9994           0
     10521 TIP3     202      TIP3     H1       HT       0.417000       1.00800           0
     10522 TIP3     202      TIP3     H2       HT       0.417000       1.00800           0
     10523 TIP3     203      TIP3     OH2      OT      -0.834000       15.9994           0
     10524 TIP3     203      TIP3     H1       HT       0.417000       1.00800           0
     10525 TIP3     203      TIP3     H2       HT       0.417000       1.00800           0
     10526 TIP3     204      TIP3     OH2      OT      -0.834000       15.9994           0
     10527 TIP3     204      TIP3     H1       HT       0.417000       1.00800           0
     10528 TIP3     204      TIP3     H2       HT       0.417000       1.00800           0
     10529 TIP3     205      TIP3     OH2      OT      -0.834000       15.9994           0
     10530 TIP3     205      TIP3     H1       HT       0.417000       1.00800           0
     10531 TIP3     205      TIP3     H2       HT       0.417000       1.00800           0
     10532 TIP3     206      TIP3     OH2      OT      -0.834000       15.9994           0
     10533 TIP3     206      TIP3     H1       HT       0.417000       1.00800           0
     10534 TIP3     206      TIP3     H2       HT       0.417000       1.00800           0
     10535 TIP3     207      TIP3     OH2      OT      -0.834000       15.9994           0
     10536 TIP3     207      TIP3     H1       HT       0.417000       1.00800           0
     10537 TIP3     207      TIP3     H2       HT       0.417000       1.00800           0
     10538 TIP3     208      TIP3     OH2      OT      -0.834000       15.9994           0
     10539 TIP3     208      TIP3     H1       HT       0.417000       1.00800           0
     10540 TIP3     208      TIP3     H2       HT       0.417000       1.00800           0
     10541 TIP3     209      TIP3     OH2      OT      -0.834000       15.9994           0
     10542 TIP3     209      TIP3     H1       HT       0.417000       1.00800           0
     10543 TIP3     209      TIP3     H2       HT       0.417000       1.00800           0
     10544 TIP3     210      TIP3     OH2      OT      -0.834000       15.9994           0
     10545 TIP3     210      TIP3     H1       HT       0.417000       1.00800           0
     10546 TIP3     210      TIP3     H2       HT       0.417000       1.00800           0
     10547 TIP3     211      TIP3     OH2      OT      -0.834000       15.9994           0
     10548 TIP3     211      TIP3     H1       HT       0.417000       1.00800           0
     10549 TIP3     211      TIP3     H2       HT       0.417000       1.00800           0
     10550 TIP3     212      TIP3     OH2      OT      -0.834000       15.9994           0
     10551 TIP3     212      TIP3     H1       HT       0.417000       1.00800           0
     10552 TIP3     212      TIP3     H2       HT       0.417000       1.00800           0
     10553 TIP3     213      TIP3     OH2      OT      -0.834000       15.9994           0
     10554 TIP3     213      TIP3     H1       HT       0.417000       1.00800           0
     10555 TIP3     213      TIP3     H2       HT       0.417000       1.00800           0
     10556 TIP3     214      TIP3     OH2      OT      -0.834000       15.9994           0
     10557 TIP3     214      TIP3     H1       HT       0.417000       1.00800           0
     10558 TIP3     214      TIP3     H2       HT       0.417000       1.00800           0
     10559 TIP3     215      TIP3     OH2      OT      -0.834000       15.9994           0
     10560 TIP3     215      TIP3     H1       HT       0.417000       1.00800           0
     10561 TIP3     215      TIP3     H2       HT       0.417000       1.00800           0
     10562 TIP3     216      TIP3     OH2      OT      -0.834000       15.9994           0
     10563 TIP3     216      TIP3     H1       HT       0.417000       1.00800           0
     10564 TIP3     216      TIP3     H2       HT       0.417000       1.00800           0
     10565 TIP3     217      TIP3     OH2      OT      -0.834000       15.9994           0
     10566 TIP3     217      TIP3     H1       HT       0.417000       1.00800           0
     10567 TIP3     217      TIP3     H2       HT       0.417000       1.00800           0
     10568 TIP3     218      TIP3     OH2      OT      -0.834000       15.9994           0
     10569 TIP3     218      TIP3     H1       HT       0.417000       1.00800           0
     10570 TIP3     218      TIP3     H2       HT       0.417000       1.00800           0
     10571 TIP3     219      TIP3     OH2      OT      -0.834000       15.9994           0
     10572 TIP3     219      TIP3     H1       HT       0.417000       1.00800           0
     10573 TIP3     219      TIP3     H2       HT       0.417000       1.00800           0
     10574 TIP3     220      TIP3     OH2      OT      -0.834000       15.9994           0
     10575 TIP3     220      TIP3     H1       HT       0.417000       1.00800           0
     10576 TIP3     220      TIP3     H2       HT       0.417000       1.00800           0
     10577 TIP3     221      TIP3     OH2      OT      -0.834000       15.9994           0
     10578 TIP3     221      TIP3     H1       HT       0.417000       1.00800           0
     10579 TIP3     221      TIP3     H2       HT       0.417000       1.00800           0
     10580 TIP3     222      TIP3     OH2      OT      -0.834000       15.9994           0
     10581 TIP3     222      TIP3     H1       HT       0.417000       1.00800           0
     10582 TIP3     222      TIP3     H2       HT       0.417000       1.00800           0
     10583 TIP3     223      TIP3     OH2      OT      -0.834000       15.9994           0
     10584 TIP3     223      TIP3     H1       HT       0.417000       1.00800           0
     10585 TIP3     223      TIP3     H2       HT       0.417000       1.00800           0
     10586 TIP3     224      TIP3     OH2      OT      -0.834000       15.9994           0
     10587 TIP3     224      TIP3     H1       HT       0.417000       1.00800           0
     10588 TIP3     224      TIP3     H2       HT       0.417000       1.00800           0
     10589 TIP3     225      TIP3     OH2      OT      -0.834000       15.9994           0
     10590 TIP3     225      TIP3     H1       HT       0.417000       1.00800           0
     10591 TIP3     225      TIP3     H2       HT       0.417000       1.00800           0
     10592 TIP3     226      TIP3     OH2      OT      -0.834000       15.9994           0
     10593 TIP3     226      TIP3     H1       HT       0.417000       1.00800           0
     10594 TIP3     226      TIP3     H2       HT       0.417000       1.00800           0
     10595 TIP3     227      TIP3     OH2      OT      -0.834000       15.9994           0
     10596 TIP3     227      TIP3     H1       HT       0.417000       1.00800           0
     10597 TIP3     227      TIP3     H2       HT       0.417000       1.00800           0
     10598 TIP3     228      TIP3     OH2      OT      -0.834000       15.9994           0
     10599 TIP3     228      TIP3     H1       HT       0.417000       1.00800           0
     10600 TIP3     228      TIP3     H2       HT       0.417000       1.00800           0
     10601 TIP3     229      TIP3     OH2      OT      -0.834000       15.9994           0
     10602 TIP3     229      TIP3     H1       HT       0.417000       1.00800           0
     10603 TIP3     229      TIP3     H2       HT       0.417000       1.00800           0
     10604 TIP3     230      TIP3     OH2      OT      -0.834000       15.9994           0
     10605 TIP3     230      TIP3     H1       HT       0.417000       1.00800           0
     10606 TIP3     230      TIP3     H2       HT       0.417000       1.00800           0
     10607 TIP3     231      TIP3     OH2      OT      -0.834000       15.9994           0
     10608 TIP3     231      TIP3     H1       HT       0.417000       1.00800           0
     10609 TIP3     231      TIP3     H2       HT       0.417000       1.00800           0
     10610 TIP3     232      TIP3     OH2      OT      -0.834000       15.9994           0
     10611 TIP3     232      TIP3     H1       HT       0.417000       1.00800           0
     10612 TIP3     232      TIP3     H2       HT       0.417000       1.00800           0
     10613 TIP3     233      TIP3     OH2      OT      -0.834000       15.9994           0
     10614 TIP3     233      TIP3     H1       HT       0.417000       1.00800           0
     10615 TIP3     233      TIP3     H2       HT       0.417000       1.00800           0
     10616 TIP3     234      TIP3     OH2      OT      -0.834000       15.9994           0
     10617 TIP3     234      TIP3     H1       HT       0.417000       1.00800           0
     10618 TIP3     234      TIP3     H2       HT       0.417000       1.00800           0
     10619 TIP3     235      TIP3     OH2      OT      -0.834000       15.9994           0
     10620 TIP3     235      TIP3     H1       HT       0.417000       1.00800           0
     10621 TIP3     235      TIP3     H2       HT       0.417000       1.00800           0
     10622 TIP3     236      TIP3     OH2      OT      -0.834000       15.9994           0
     10623 TIP3     236      TIP3     H1       HT       0.417000       1.00800           0
     10624 TIP3     236      TIP3     H2       HT       0.417000       1.00800           0
     10625 TIP3     237      TIP3     OH2      OT      -0.834000       15.9994           0
     10626 TIP3     237      TIP3     H1       HT       0.417000       1.00800           0
     10627 TIP3     237      TIP3     H2       HT       0.417000       1.00800           0
     10628 TIP3     238      TIP3     OH2      OT      -0.834000       15.9994           0
     10629 TIP3     238      TIP3     H1       HT       0.417000       1.00800           0
     10630 TIP3     238      TIP3     H2       HT       0.417000       1.00800           0
     10631 TIP3     239      TIP3     OH2      OT      -0.834000       15.9994           0
     10632 TIP3     239      TIP3     H1       HT       0.417000       1.00800           0
     10633 TIP3     239      TIP3     H2       HT       0.417000       1.00800           0
     10634 TIP3     240      TIP3     OH2      OT      -0.834000       15.9994           0
     10635 TIP3     240      TIP3     H1       HT       0.417000       1.00800           0
     10636 TIP3     240      TIP3     H2       HT       0.417000       1.00800           0
     10637 TIP3     241      TIP3     OH2      OT      -0.834000       15.9994           0
     10638 TIP3     241      TIP3     H1       HT       0.417000       1.00800           0
     10639 TIP3     241      TIP3     H2       HT       0.417000       1.00800           0
     10640 TIP3     242      TIP3     OH2      OT      -0.834000       15.9994           0
     10641 TIP3     242      TIP3     H1       HT       0.417000       1.00800           0
     10642 TIP3     242      TIP3     H2       HT       0.417000       1.00800           0
     10643 TIP3     243      TIP3     OH2      OT      -0.834000       15.9994           0
     10644 TIP3     243      TIP3     H1       HT       0.417000       1.00800           0
     10645 TIP3     243      TIP3     H2       HT       0.417000       1.00800           0
     10646 TIP3     244      TIP3     OH2      OT      -0.834000       15.9994           0
     10647 TIP3     244      TIP3     H1       HT       0.417000       1.00800           0
     10648 TIP3     244      TIP3     H2       HT       0.417000       1.00800           0
     10649 TIP3     245      TIP3     OH2      OT      -0.834000       15.9994           0
     10650 TIP3     245      TIP3     H1       HT       0.417000       1.00800           0
     10651 TIP3     245      TIP3     H2       HT       0.417000       1.00800           0
     10652 TIP3     246      TIP3     OH2      OT      -0.834000       15.9994           0
     10653 TIP3     246      TIP3     H1       HT       0.417000       1.00800           0
     10654 TIP3     246      TIP3     H2       HT       0.417000       1.00800           0
     10655 TIP3     247      TIP3     OH2      OT      -0.834000       15.9994           0
     10656 TIP3     247      TIP3     H1       HT       0.417000       1.00800           0
     10657 TIP3     247      TIP3     H2       HT       0.417000       1.00800           0
     10658 TIP3     248      TIP3     OH2      OT      -0.834000       15.9994           0
     10659 TIP3     248      TIP3     H1       HT       0.417000       1.00800           0
     10660 TIP3     248      TIP3     H2       HT       0.417000       1.00800           0
     10661 TIP3     249      TIP3     OH2      OT      -0.834000       15.9994           0
     10662 TIP3     249      TIP3     H1       HT       0.417000       1.00800           0
     10663 TIP3     249      TIP3     H2       HT       0.417000       1.00800           0
     10664 TIP3     250      TIP3     OH2      OT      -0.834000       15.9994           0
     10665 TIP3     250      TIP3     H1       HT       0.417000       1.00800           0
     10666 TIP3     250      TIP3     H2       HT       0.417000       1.00800           0
     10667 TIP3     251      TIP3     OH2      OT      -0.834000       15.9994           0
     10668 TIP3     251      TIP3     H1       HT       0.417000       1.00800           0
     10669 TIP3     251      TIP3     H2       HT       0.417000       1.00800           0
     10670 TIP3     252      TIP3     OH2      OT      -0.834000       15.9994           0
     10671 TIP3     252      TIP3     H1       HT       0.417000       1.00800           0
     10672 TIP3     252      TIP3     H2       HT       0.417000       1.00800           0
     10673 TIP3     253      TIP3     OH2      OT      -0.834000       15.9994           0
     10674 TIP3     253      TIP3     H1       HT       0.417000       1.00800           0
     10675 TIP3     253      TIP3     H2       HT       0.417000       1.00800           0
     10676 TIP3     254      TIP3     OH2      OT      -0.834000       15.9994           0
     10677 TIP3     254      TIP3     H1       HT       0.417000       1.00800           0
     10678 TIP3     254      TIP3     H2       HT       0.417000       1.00800           0
     10679 TIP3     255      TIP3     OH2      OT      -0.834000       15.9994           0
     10680 TIP3     255      TIP3     H1       HT       0.417000       1.00800           0
     10681 TIP3     255      TIP3     H2       HT       0.417000       1.00800           0
     10682 TIP3     256      TIP3     OH2      OT      -0.834000       15.9994           0
     10683 TIP3     256      TIP3     H1       HT       0.417000       1.00800           0
     10684 TIP3     256      TIP3     H2       HT       0.417000       1.00800           0
     10685 TIP3     257      TIP3     OH2      OT      -0.834000       15.9994           0
     10686 TIP3     257      TIP3     H1       HT       0.417000       1.00800           0
     10687 TIP3     257      TIP3     H2       HT       0.417000       1.00800           0
     10688 TIP3     258      TIP3     OH2      OT      -0.834000       15.9994           0
     10689 TIP3     258      TIP3     H1       HT       0.417000       1.00800           0
     10690 TIP3     258      TIP3     H2       HT       0.417000       1.00800           0
     10691 TIP3     259      TIP3     OH2      OT      -0.834000       15.9994           0
     10692 TIP3     259      TIP3     H1       HT       0.417000       1.00800           0
     10693 TIP3     259      TIP3     H2       HT       0.417000       1.00800           0
     10694 TIP3     260      TIP3     OH2      OT      -0.834000       15.9994           0
     10695 TIP3     260      TIP3     H1       HT       0.417000       1.00800           0
     10696 TIP3     260      TIP3     H2       HT       0.417000       1.00800           0
     10697 TIP3     261      TIP3     OH2      OT      -0.834000       15.9994           0
     10698 TIP3     261      TIP3     H1       HT       0.417000       1.00800           0
     10699 TIP3     261      TIP3     H2       HT       0.417000       1.00800           0
     10700 TIP3     262      TIP3     OH2      OT      -0.834000       15.9994           0
     10701 TIP3     262      TIP3     H1       HT       0.417000       1.00800           0
     10702 TIP3     262      TIP3     H2       HT       0.417000       1.00800           0
     10703 TIP3     263      TIP3     OH2      OT      -0.834000       15.9994           0
     10704 TIP3     263      TIP3     H1       HT       0.417000       1.00800           0
     10705 TIP3     263      TIP3     H2       HT       0.417000       1.00800           0
     10706 TIP3     264      TIP3     OH2      OT      -0.834000       15.9994           0
     10707 TIP3     264      TIP3     H1       HT       0.417000       1.00800           0
     10708 TIP3     264      TIP3     H2       HT       0.417000       1.00800           0
     10709 TIP3     265      TIP3     OH2      OT      -0.834000       15.9994           0
     10710 TIP3     265      TIP3     H1       HT       0.417000       1.00800           0
     10711 TIP3     265      TIP3     H2       HT       0.417000       1.00800           0
     10712 TIP3     266      TIP3     OH2      OT      -0.834000       15.9994           0
     10713 TIP3     266      TIP3     H1       HT       0.417000       1.00800           0
     10714 TIP3     266      TIP3     H2       HT       0.417000       1.00800           0
     10715 TIP3     267      TIP3     OH2      OT      -0.834000       15.9994           0
     10716 TIP3     267      TIP3     H1       HT       0.417000       1.00800           0
     10717 TIP3     267      TIP3     H2       HT       0.417000       1.00800           0
     10718 TIP3     268      TIP3     OH2      OT      -0.834000       15.9994           0
     10719 TIP3     268      TIP3     H1       HT       0.417000       1.00800           0
     10720 TIP3     268      TIP3     H2       HT       0.417000       1.00800           0
     10721 TIP3     269      TIP3     OH2      OT      -0.834000       15.9994           0
     10722 TIP3     269      TIP3     H1       HT       0.417000       1.00800           0
     10723 TIP3     269      TIP3     H2       HT       0.417000       1.00800           0
     10724 TIP3     270      TIP3     OH2      OT      -0.834000       15.9994           0
     10725 TIP3     270      TIP3     H1       HT       0.417000       1.00800           0
     10726 TIP3     270      TIP3     H2       HT       0.417000       1.00800           0
     10727 TIP3     271      TIP3     OH2      OT      -0.834000       15.9994           0
     10728 TIP3     271      TIP3     H1       HT       0.417000       1.00800           0
     10729 TIP3     271      TIP3     H2       HT       0.417000       1.00800           0
     10730 TIP3     272      TIP3     OH2      OT      -0.834000       15.9994           0
     10731 TIP3     272      TIP3     H1       HT       0.417000       1.00800           0
     10732 TIP3     272      TIP3     H2       HT       0.417000       1.00800           0
     10733 TIP3     273      TIP3     OH2      OT      -0.834000       15.9994           0
     10734 TIP3     273      TIP3     H1       HT       0.417000       1.00800           0
     10735 TIP3     273      TIP3     H2       HT       0.417000       1.00800           0
     10736 TIP3     274      TIP3     OH2      OT      -0.834000       15.9994           0
     10737 TIP3     274      TIP3     H1       HT       0.417000       1.00800           0
     10738 TIP3     274      TIP3     H2       HT       0.417000       1.00800           0
     10739 TIP3     275      TIP3     OH2      OT      -0.834000       15.9994           0
     10740 TIP3     275      TIP3     H1       HT       0.417000       1.00800           0
     10741 TIP3     275      TIP3     H2       HT       0.417000       1.00800           0
     10742 TIP3     276      TIP3     OH2      OT      -0.834000       15.9994           0
     10743 TIP3     276      TIP3     H1       HT       0.417000       1.00800           0
     10744 TIP3     276      TIP3     H2       HT       0.417000       1.00800           0
     10745 TIP3     277      TIP3     OH2      OT      -0.834000       15.9994           0
     10746 TIP3     277      TIP3     H1       HT       0.417000       1.00800           0
     10747 TIP3     277      TIP3     H2       HT       0.417000       1.00800           0
     10748 TIP3     278      TIP3     OH2      OT      -0.834000       15.9994           0
     10749 TIP3     278      TIP3     H1       HT       0.417000       1.00800           0
     10750 TIP3     278      TIP3     H2       HT       0.417000       1.00800           0
     10751 TIP3     279      TIP3     OH2      OT      -0.834000       15.9994           0
     10752 TIP3     279      TIP3     H1       HT       0.417000       1.00800           0
     10753 TIP3     279      TIP3     H2       HT       0.417000       1.00800           0
     10754 TIP3     280      TIP3     OH2      OT      -0.834000       15.9994           0
     10755 TIP3     280      TIP3     H1       HT       0.417000       1.00800           0
     10756 TIP3     280      TIP3     H2       HT       0.417000       1.00800           0
     10757 TIP3     281      TIP3     OH2      OT      -0.834000       15.9994           0
     10758 TIP3     281      TIP3     H1       HT       0.417000       1.00800           0
     10759 TIP3     281      TIP3     H2       HT       0.417000       1.00800           0
     10760 TIP3     282      TIP3     OH2      OT      -0.834000       15.9994           0
     10761 TIP3     282      TIP3     H1       HT       0.417000       1.00800           0
     10762 TIP3     282      TIP3     H2       HT       0.417000       1.00800           0
     10763 TIP3     283      TIP3     OH2      OT      -0.834000       15.9994           0
     10764 TIP3     283      TIP3     H1       HT       0.417000       1.00800           0
     10765 TIP3     283      TIP3     H2       HT       0.417000       1.00800           0
     10766 TIP3     284      TIP3     OH2      OT      -0.834000       15.9994           0
     10767 TIP3     284      TIP3     H1       HT       0.417000       1.00800           0
     10768 TIP3     284      TIP3     H2       HT       0.417000       1.00800           0
     10769 TIP3     285      TIP3     OH2      OT      -0.834000       15.9994           0
     10770 TIP3     285      TIP3     H1       HT       0.417000       1.00800           0
     10771 TIP3     285      TIP3     H2       HT       0.417000       1.00800           0
     10772 TIP3     286      TIP3     OH2      OT      -0.834000       15.9994           0
     10773 TIP3     286      TIP3     H1       HT       0.417000       1.00800           0
     10774 TIP3     286      TIP3     H2       HT       0.417000       1.00800           0
     10775 TIP3     287      TIP3     OH2      OT      -0.834000       15.9994           0
     10776 TIP3     287      TIP3     H1       HT       0.417000       1.00800           0
     10777 TIP3     287      TIP3     H2       HT       0.417000       1.00800           0
     10778 TIP3     288      TIP3     OH2      OT      -0.834000       15.9994           0
     10779 TIP3     288      TIP3     H1       HT       0.417000       1.00800           0
     10780 TIP3     288      TIP3     H2       HT       0.417000       1.00800           0
     10781 TIP3     289      TIP3     OH2      OT      -0.834000       15.9994           0
     10782 TIP3     289      TIP3     H1       HT       0.417000       1.00800           0
     10783 TIP3     289      TIP3     H2       HT       0.417000       1.00800           0
     10784 TIP3     290      TIP3     OH2      OT      -0.834000       15.9994           0
     10785 TIP3     290      TIP3     H1       HT       0.417000       1.00800           0
     10786 TIP3     290      TIP3     H2       HT       0.417000       1.00800           0
     10787 TIP3     291      TIP3     OH2      OT      -0.834000       15.9994           0
     10788 TIP3     291      TIP3     H1       HT       0.417000       1.00800           0
     10789 TIP3     291      TIP3     H2       HT       0.417000       1.00800           0
     10790 TIP3     292      TIP3     OH2      OT      -0.834000       15.9994           0
     10791 TIP3     292      TIP3     H1       HT       0.417000       1.00800           0
     10792 TIP3     292      TIP3     H2       HT       0.417000       1.00800           0
     10793 TIP3     293      TIP3     OH2      OT      -0.834000       15.9994           0
     10794 TIP3     293      TIP3     H1       HT       0.417000       1.00800           0
     10795 TIP3     293      TIP3     H2       HT       0.417000       1.00800           0
     10796 TIP3     294      TIP3     OH2      OT      -0.834000       15.9994           0
     10797 TIP3     294      TIP3     H1       HT       0.417000       1.00800           0
     10798 TIP3     294      TIP3     H2       HT       0.417000       1.00800           0
     10799 TIP3     295      TIP3     OH2      OT      -0.834000       15.9994           0
     10800 TIP3     295      TIP3     H1       HT       0.417000       1.00800           0
     10801 TIP3     295      TIP3     H2       HT       0.417000       1.00800           0
     10802 TIP3     296      TIP3     OH2      OT      -0.834000       15.9994           0
     10803 TIP3     296      TIP3     H1       HT       0.417000       1.00800           0
     10804 TIP3     296      TIP3     H2       HT       0.417000       1.00800           0
     10805 TIP3     297      TIP3     OH2      OT      -0.834000       15.9994           0
     10806 TIP3     297      TIP3     H1       HT       0.417000       1.00800           0
     10807 TIP3     297      TIP3     H2       HT       0.417000       1.00800           0
     10808 TIP3     298      TIP3     OH2      OT      -0.834000       15.9994           0
     10809 TIP3     298      TIP3     H1       HT       0.417000       1.00800           0
     10810 TIP3     298      TIP3     H2       HT       0.417000       1.00800           0
     10811 TIP3     299      TIP3     OH2      OT      -0.834000       15.9994           0
     10812 TIP3     299      TIP3     H1       HT       0.417000       1.00800           0
     10813 TIP3     299      TIP3     H2       HT       0.417000       1.00800           0
     10814 TIP3     300      TIP3     OH2      OT      -0.834000       15.9994           0
     10815 TIP3     300      TIP3     H1       HT       0.417000       1.00800           0
     10816 TIP3     300      TIP3     H2       HT       0.417000       1.00800           0
     10817 TIP3     301      TIP3     OH2      OT      -0.834000       15.9994           0
     10818 TIP3     301      TIP3     H1       HT       0.417000       1.00800           0
     10819 TIP3     301      TIP3     H2       HT       0.417000       1.00800           0
     10820 TIP3     302      TIP3     OH2      OT      -0.834000       15.9994           0
     10821 TIP3     302      TIP3     H1       HT       0.417000       1.00800           0
     10822 TIP3     302      TIP3     H2       HT       0.417000       1.00800           0
     10823 TIP3     303      TIP3     OH2      OT      -0.834000       15.9994           0
     10824 TIP3     303      TIP3     H1       HT       0.417000       1.00800           0
     10825 TIP3     303      TIP3     H2       HT       0.417000       1.00800           0
     10826 TIP3     304      TIP3     OH2      OT      -0.834000       15.9994           0
     10827 TIP3     304      TIP3     H1       HT       0.417000       1.00800           0
     10828 TIP3     304      TIP3     H2       HT       0.417000       1.00800           0
     10829 TIP3     305      TIP3     OH2      OT      -0.834000       15.9994           0
     10830 TIP3     305      TIP3     H1       HT       0.417000       1.00800           0
     10831 TIP3     305      TIP3     H2       HT       0.417000       1.00800           0
     10832 TIP3     306      TIP3     OH2      OT      -0.834000       15.9994           0
     10833 TIP3     306      TIP3     H1       HT       0.417000       1.00800           0
     10834 TIP3     306      TIP3     H2       HT       0.417000       1.00800           0
     10835 TIP3     307      TIP3     OH2      OT      -0.834000       15.9994           0
     10836 TIP3     307      TIP3     H1       HT       0.417000       1.00800           0
     10837 TIP3     307      TIP3     H2       HT       0.417000       1.00800           0
     10838 TIP3     308      TIP3     OH2      OT      -0.834000       15.9994           0
     10839 TIP3     308      TIP3     H1       HT       0.417000       1.00800           0
     10840 TIP3     308      TIP3     H2       HT       0.417000       1.00800           0
     10841 TIP3     309      TIP3     OH2      OT      -0.834000       15.9994           0
     10842 TIP3     309      TIP3     H1       HT       0.417000       1.00800           0
     10843 TIP3     309      TIP3     H2       HT       0.417000       1.00800           0
     10844 TIP3     310      TIP3     OH2      OT      -0.834000       15.9994           0
     10845 TIP3     310      TIP3     H1       HT       0.417000       1.00800           0
     10846 TIP3     310      TIP3     H2       HT       0.417000       1.00800           0
     10847 TIP3     311      TIP3     OH2      OT      -0.834000       15.9994           0
     10848 TIP3     311      TIP3     H1       HT       0.417000       1.00800           0
     10849 TIP3     311      TIP3     H2       HT       0.417000       1.00800           0
     10850 TIP3     312      TIP3     OH2      OT      -0.834000       15.9994           0
     10851 TIP3     312      TIP3     H1       HT       0.417000       1.00800           0
     10852 TIP3     312      TIP3     H2       HT       0.417000       1.00800           0
     10853 TIP3     313      TIP3     OH2      OT      -0.834000       15.9994           0
     10854 TIP3     313      TIP3     H1       HT       0.417000       1.00800           0
     10855 TIP3     313      TIP3     H2       HT       0.417000       1.00800           0
     10856 TIP3     314      TIP3     OH2      OT      -0.834000       15.9994           0
     10857 TIP3     314      TIP3     H1       HT       0.417000       1.00800           0
     10858 TIP3     314      TIP3     H2       HT       0.417000       1.00800           0
     10859 TIP3     315      TIP3     OH2      OT      -0.834000       15.9994           0
     10860 TIP3     315      TIP3     H1       HT       0.417000       1.00800           0
     10861 TIP3     315      TIP3     H2       HT       0.417000       1.00800           0
     10862 TIP3     316      TIP3     OH2      OT      -0.834000       15.9994           0
     10863 TIP3     316      TIP3     H1       HT       0.417000       1.00800           0
     10864 TIP3     316      TIP3     H2       HT       0.417000       1.00800           0
     10865 TIP3     317      TIP3     OH2      OT      -0.834000       15.9994           0
     10866 TIP3     317      TIP3     H1       HT       0.417000       1.00800           0
     10867 TIP3     317      TIP3     H2       HT       0.417000       1.00800           0
     10868 TIP3     318      TIP3     OH2      OT      -0.834000       15.9994           0
     10869 TIP3     318      TIP3     H1       HT       0.417000       1.00800           0
     10870 TIP3     318      TIP3     H2       HT       0.417000       1.00800           0
     10871 TIP3     319      TIP3     OH2      OT      -0.834000       15.9994           0
     10872 TIP3     319      TIP3     H1       HT       0.417000       1.00800           0
     10873 TIP3     319      TIP3     H2       HT       0.417000       1.00800           0
     10874 TIP3     320      TIP3     OH2      OT      -0.834000       15.9994           0
     10875 TIP3     320      TIP3     H1       HT       0.417000       1.00800           0
     10876 TIP3     320      TIP3     H2       HT       0.417000       1.00800           0
     10877 TIP3     321      TIP3     OH2      OT      -0.834000       15.9994           0
     10878 TIP3     321      TIP3     H1       HT       0.417000       1.00800           0
     10879 TIP3     321      TIP3     H2       HT       0.417000       1.00800           0
     10880 TIP3     322      TIP3     OH2      OT      -0.834000       15.9994           0
     10881 TIP3     322      TIP3     H1       HT       0.417000       1.00800           0
     10882 TIP3     322      TIP3     H2       HT       0.417000       1.00800           0
     10883 TIP3     323      TIP3     OH2      OT      -0.834000       15.9994           0
     10884 TIP3     323      TIP3     H1       HT       0.417000       1.00800           0
     10885 TIP3     323      TIP3     H2       HT       0.417000       1.00800           0
     10886 TIP3     324      TIP3     OH2      OT      -0.834000       15.9994           0
     10887 TIP3     324      TIP3     H1       HT       0.417000       1.00800           0
     10888 TIP3     324      TIP3     H2       HT       0.417000       1.00800           0
     10889 TIP3     325      TIP3     OH2      OT      -0.834000       15.9994           0
     10890 TIP3     325      TIP3     H1       HT       0.417000       1.00800           0
     10891 TIP3     325      TIP3     H2       HT       0.417000       1.00800           0
     10892 TIP3     326      TIP3     OH2      OT      -0.834000       15.9994           0
     10893 TIP3     326      TIP3     H1       HT       0.417000       1.00800           0
     10894 TIP3     326      TIP3     H2       HT       0.417000       1.00800           0
     10895 TIP3     327      TIP3     OH2      OT      -0.834000       15.9994           0
     10896 TIP3     327      TIP3     H1       HT       0.417000       1.00800           0
     10897 TIP3     327      TIP3     H2       HT       0.417000       1.00800           0
     10898 TIP3     328      TIP3     OH2      OT      -0.834000       15.9994           0
     10899 TIP3     328      TIP3     H1       HT       0.417000       1.00800           0
     10900 TIP3     328      TIP3     H2       HT       0.417000       1.00800           0
     10901 TIP3     329      TIP3     OH2      OT      -0.834000       15.9994           0
     10902 TIP3     329      TIP3     H1       HT       0.417000       1.00800           0
     10903 TIP3     329      TIP3     H2       HT       0.417000       1.00800           0
     10904 TIP3     330      TIP3     OH2      OT      -0.834000       15.9994           0
     10905 TIP3     330      TIP3     H1       HT       0.417000       1.00800           0
     10906 TIP3     330      TIP3     H2       HT       0.417000       1.00800           0
     10907 TIP3     331      TIP3     OH2      OT      -0.834000       15.9994           0
     10908 TIP3     331      TIP3     H1       HT       0.417000       1.00800           0
     10909 TIP3     331      TIP3     H2       HT       0.417000       1.00800           0
     10910 TIP3     332      TIP3     OH2      OT      -0.834000       15.9994           0
     10911 TIP3     332      TIP3     H1       HT       0.417000       1.00800           0
     10912 TIP3     332      TIP3     H2       HT       0.417000       1.00800           0
     10913 TIP3     333      TIP3     OH2      OT      -0.834000       15.9994           0
     10914 TIP3     333      TIP3     H1       HT       0.417000       1.00800           0
     10915 TIP3     333      TIP3     H2       HT       0.417000       1.00800           0
     10916 TIP3     334      TIP3     OH2      OT      -0.834000       15.9994           0
     10917 TIP3     334      TIP3     H1       HT       0.417000       1.00800           0
     10918 TIP3     334      TIP3     H2       HT       0.417000       1.00800           0
     10919 TIP3     335      TIP3     OH2      OT      -0.834000       15.9994           0
     10920 TIP3     335      TIP3     H1       HT       0.417000       1.00800           0
     10921 TIP3     335      TIP3     H2       HT       0.417000       1.00800           0
     10922 TIP3     336      TIP3     OH2      OT      -0.834000       15.9994           0
     10923 TIP3     336      TIP3     H1       HT       0.417000       1.00800           0
     10924 TIP3     336      TIP3     H2       HT       0.417000       1.00800           0
     10925 TIP3     337      TIP3     OH2      OT      -0.834000       15.9994           0
     10926 TIP3     337      TIP3     H1       HT       0.417000       1.00800           0
     10927 TIP3     337      TIP3     H2       HT       0.417000       1.00800           0
     10928 TIP3     338      TIP3     OH2      OT      -0.834000       15.9994           0
     10929 TIP3     338      TIP3     H1       HT       0.417000       1.00800           0
     10930 TIP3     338      TIP3     H2       HT       0.417000       1.00800           0
     10931 TIP3     339      TIP3     OH2      OT      -0.834000       15.9994           0
     10932 TIP3     339      TIP3     H1       HT       0.417000       1.00800           0
     10933 TIP3     339      TIP3     H2       HT       0.417000       1.00800           0
     10934 TIP3     340      TIP3     OH2      OT      -0.834000       15.9994           0
     10935 TIP3     340      TIP3     H1       HT       0.417000       1.00800           0
     10936 TIP3     340      TIP3     H2       HT       0.417000       1.00800           0
     10937 TIP3     341      TIP3     OH2      OT      -0.834000       15.9994           0
     10938 TIP3     341      TIP3     H1       HT       0.417000       1.00800           0
     10939 TIP3     341      TIP3     H2       HT       0.417000       1.00800           0
     10940 TIP3     342      TIP3     OH2      OT      -0.834000       15.9994           0
     10941 TIP3     342      TIP3     H1       HT       0.417000       1.00800           0
     10942 TIP3     342      TIP3     H2       HT       0.417000       1.00800           0
     10943 TIP3     343      TIP3     OH2      OT      -0.834000       15.9994           0
     10944 TIP3     343      TIP3     H1       HT       0.417000       1.00800           0
     10945 TIP3     343      TIP3     H2       HT       0.417000       1.00800           0
     10946 TIP3     344      TIP3     OH2      OT      -0.834000       15.9994           0
     10947 TIP3     344      TIP3     H1       HT       0.417000       1.00800           0
     10948 TIP3     344      TIP3     H2       HT       0.417000       1.00800           0
     10949 TIP3     345      TIP3     OH2      OT      -0.834000       15.9994           0
     10950 TIP3     345      TIP3     H1       HT       0.417000       1.00800           0
     10951 TIP3     345      TIP3     H2       HT       0.417000       1.00800           0
     10952 TIP3     346      TIP3     OH2      OT      -0.834000       15.9994           0
     10953 TIP3     346      TIP3     H1       HT       0.417000       1.00800           0
     10954 TIP3     346      TIP3     H2       HT       0.417000       1.00800           0
     10955 TIP3     347      TIP3     OH2      OT      -0.834000       15.9994           0
     10956 TIP3     347      TIP3     H1       HT       0.417000       1.00800           0
     10957 TIP3     347      TIP3     H2       HT       0.417000       1.00800           0
     10958 TIP3     348      TIP3     OH2      OT      -0.834000       15.9994           0
     10959 TIP3     348      TIP3     H1       HT       0.417000       1.00800           0
     10960 TIP3     348      TIP3     H2       HT       0.417000       1.00800           0
     10961 TIP3     349      TIP3     OH2      OT      -0.834000       15.9994           0
     10962 TIP3     349      TIP3     H1       HT       0.417000       1.00800           0
     10963 TIP3     349      TIP3     H2       HT       0.417000       1.00800           0
     10964 TIP3     350      TIP3     OH2      OT      -0.834000       15.9994           0
     10965 TIP3     350      TIP3     H1       HT       0.417000       1.00800           0
     10966 TIP3     350      TIP3     H2       HT       0.417000       1.00800           0
     10967 TIP3     351      TIP3     OH2      OT      -0.834000       15.9994           0
     10968 TIP3     351      TIP3     H1       HT       0.417000       1.00800           0
     10969 TIP3     351      TIP3     H2       HT       0.417000       1.00800           0
     10970 TIP3     352      TIP3     OH2      OT      -0.834000       15.9994           0
     10971 TIP3     352      TIP3     H1       HT       0.417000       1.00800           0
     10972 TIP3     352      TIP3     H2       HT       0.417000       1.00800           0
     10973 TIP3     353      TIP3     OH2      OT      -0.834000       15.9994           0
     10974 TIP3     353      TIP3     H1       HT       0.417000       1.00800           0
     10975 TIP3     353      TIP3     H2       HT       0.417000       1.00800           0
     10976 TIP3     354      TIP3     OH2      OT      -0.834000       15.9994           0
     10977 TIP3     354      TIP3     H1       HT       0.417000       1.00800           0
     10978 TIP3     354      TIP3     H2       HT       0.417000       1.00800           0
     10979 TIP3     355      TIP3     OH2      OT      -0.834000       15.9994           0
     10980 TIP3     355      TIP3     H1       HT       0.417000       1.00800           0
     10981 TIP3     355      TIP3     H2       HT       0.417000       1.00800           0
     10982 TIP3     356      TIP3     OH2      OT      -0.834000       15.9994           0
     10983 TIP3     356      TIP3     H1       HT       0.417000       1.00800           0
     10984 TIP3     356      TIP3     H2       HT       0.417000       1.00800           0
     10985 TIP3     357      TIP3     OH2      OT      -0.834000       15.9994           0
     10986 TIP3     357      TIP3     H1       HT       0.417000       1.00800           0
     10987 TIP3     357      TIP3     H2       HT       0.417000       1.00800           0
     10988 TIP3     358      TIP3     OH2      OT      -0.834000       15.9994           0
     10989 TIP3     358      TIP3     H1       HT       0.417000       1.00800           0
     10990 TIP3     358      TIP3     H2       HT       0.417000       1.00800           0
     10991 TIP3     359      TIP3     OH2      OT      -0.834000       15.9994           0
     10992 TIP3     359      TIP3     H1       HT       0.417000       1.00800           0
     10993 TIP3     359      TIP3     H2       HT       0.417000       1.00800           0
     10994 TIP3     360      TIP3     OH2      OT      -0.834000       15.9994           0
     10995 TIP3     360      TIP3     H1       HT       0.417000       1.00800           0
     10996 TIP3     360      TIP3     H2       HT       0.417000       1.00800           0
     10997 TIP3     361      TIP3     OH2      OT      -0.834000       15.9994           0
     10998 TIP3     361      TIP3     H1       HT       0.417000       1.00800           0
     10999 TIP3     361      TIP3     H2       HT       0.417000       1.00800           0
     11000 TIP3     362      TIP3     OH2      OT      -0.834000       15.9994           0
     11001 TIP3     362      TIP3     H1       HT       0.417000       1.00800           0
     11002 TIP3     362      TIP3     H2       HT       0.417000       1.00800           0
     11003 TIP3     363      TIP3     OH2      OT      -0.834000       15.9994           0
     11004 TIP3     363      TIP3     H1       HT       0.417000       1.00800           0
     11005 TIP3     363      TIP3     H2       HT       0.417000       1.00800           0
     11006 TIP3     364      TIP3     OH2      OT      -0.834000       15.9994           0
     11007 TIP3     364      TIP3     H1       HT       0.417000       1.00800           0
     11008 TIP3     364      TIP3     H2       HT       0.417000       1.00800           0
     11009 TIP3     365      TIP3     OH2      OT      -0.834000       15.9994           0
     11010 TIP3     365      TIP3     H1       HT       0.417000       1.00800           0
     11011 TIP3     365      TIP3     H2       HT       0.417000       1.00800           0
     11012 TIP3     366      TIP3     OH2      OT      -0.834000       15.9994           0
     11013 TIP3     366      TIP3     H1       HT       0.417000       1.00800           0
     11014 TIP3     366      TIP3     H2       HT       0.417000       1.00800           0
     11015 TIP3     367      TIP3     OH2      OT      -0.834000       15.9994           0
     11016 TIP3     367      TIP3     H1       HT       0.417000       1.00800           0
     11017 TIP3     367      TIP3     H2       HT       0.417000       1.00800           0
     11018 TIP3     368      TIP3     OH2      OT      -0.834000       15.9994           0
     11019 TIP3     368      TIP3     H1       HT       0.417000       1.00800           0
     11020 TIP3     368      TIP3     H2       HT       0.417000       1.00800           0
     11021 TIP3     369      TIP3     OH2      OT      -0.834000       15.9994           0
     11022 TIP3     369      TIP3     H1       HT       0.417000       1.00800           0
     11023 TIP3     369      TIP3     H2       HT       0.417000       1.00800           0
     11024 TIP3     370      TIP3     OH2      OT      -0.834000       15.9994           0
     11025 TIP3     370      TIP3     H1       HT       0.417000       1.00800           0
     11026 TIP3     370      TIP3     H2       HT       0.417000       1.00800           0
     11027 TIP3     371      TIP3     OH2      OT      -0.834000       15.9994           0
     11028 TIP3     371      TIP3     H1       HT       0.417000       1.00800           0
     11029 TIP3     371      TIP3     H2       HT       0.417000       1.00800           0
     11030 TIP3     372      TIP3     OH2      OT      -0.834000       15.9994           0
     11031 TIP3     372      TIP3     H1       HT       0.417000       1.00800           0
     11032 TIP3     372      TIP3     H2       HT       0.417000       1.00800           0
     11033 TIP3     373      TIP3     OH2      OT      -0.834000       15.9994           0
     11034 TIP3     373      TIP3     H1       HT       0.417000       1.00800           0
     11035 TIP3     373      TIP3     H2       HT       0.417000       1.00800           0
     11036 TIP3     374      TIP3     OH2      OT      -0.834000       15.9994           0
     11037 TIP3     374      TIP3     H1       HT       0.417000       1.00800           0
     11038 TIP3     374      TIP3     H2       HT       0.417000       1.00800           0
     11039 TIP3     375      TIP3     OH2      OT      -0.834000       15.9994           0
     11040 TIP3     375      TIP3     H1       HT       0.417000       1.00800           0
     11041 TIP3     375      TIP3     H2       HT       0.417000       1.00800           0
     11042 TIP3     376      TIP3     OH2      OT      -0.834000       15.9994           0
     11043 TIP3     376      TIP3     H1       HT       0.417000       1.00800           0
     11044 TIP3     376      TIP3     H2       HT       0.417000       1.00800           0
     11045 TIP3     377      TIP3     OH2      OT      -0.834000       15.9994           0
     11046 TIP3     377      TIP3     H1       HT       0.417000       1.00800           0
     11047 TIP3     377      TIP3     H2       HT       0.417000       1.00800           0
     11048 TIP3     378      TIP3     OH2      OT      -0.834000       15.9994           0
     11049 TIP3     378      TIP3     H1       HT       0.417000       1.00800           0
     11050 TIP3     378      TIP3     H2       HT       0.417000       1.00800           0
     11051 TIP3     379      TIP3     OH2      OT      -0.834000       15.9994           0
     11052 TIP3     379      TIP3     H1       HT       0.417000       1.00800           0
     11053 TIP3     379      TIP3     H2       HT       0.417000       1.00800           0
     11054 TIP3     380      TIP3     OH2      OT      -0.834000       15.9994           0
     11055 TIP3     380      TIP3     H1       HT       0.417000       1.00800           0
     11056 TIP3     380      TIP3     H2       HT       0.417000       1.00800           0
     11057 TIP3     381      TIP3     OH2      OT      -0.834000       15.9994           0
     11058 TIP3     381      TIP3     H1       HT       0.417000       1.00800           0
     11059 TIP3     381      TIP3     H2       HT       0.417000       1.00800           0
     11060 TIP3     382      TIP3     OH2      OT      -0.834000       15.9994           0
     11061 TIP3     382      TIP3     H1       HT       0.417000       1.00800           0
     11062 TIP3     382      TIP3     H2       HT       0.417000       1.00800           0
     11063 TIP3     383      TIP3     OH2      OT      -0.834000       15.9994           0
     11064 TIP3     383      TIP3     H1       HT       0.417000       1.00800           0
     11065 TIP3     383      TIP3     H2       HT       0.417000       1.00800           0
     11066 TIP3     384      TIP3     OH2      OT      -0.834000       15.9994           0
     11067 TIP3     384      TIP3     H1       HT       0.417000       1.00800           0
     11068 TIP3     384      TIP3     H2       HT       0.417000       1.00800           0
     11069 TIP3     385      TIP3     OH2      OT      -0.834000       15.9994           0
     11070 TIP3     385      TIP3     H1       HT       0.417000       1.00800           0
     11071 TIP3     385      TIP3     H2       HT       0.417000       1.00800           0
     11072 TIP3     386      TIP3     OH2      OT      -0.834000       15.9994           0
     11073 TIP3     386      TIP3     H1       HT       0.417000       1.00800           0
     11074 TIP3     386      TIP3     H2       HT       0.417000       1.00800           0
     11075 TIP3     387      TIP3     OH2      OT      -0.834000       15.9994           0
     11076 TIP3     387      TIP3     H1       HT       0.417000       1.00800           0
     11077 TIP3     387      TIP3     H2       HT       0.417000       1.00800           0
     11078 TIP3     388      TIP3     OH2      OT      -0.834000       15.9994           0
     11079 TIP3     388      TIP3     H1       HT       0.417000       1.00800           0
     11080 TIP3     388      TIP3     H2       HT       0.417000       1.00800           0
     11081 TIP3     389      TIP3     OH2      OT      -0.834000       15.9994           0
     11082 TIP3     389      TIP3     H1       HT       0.417000       1.00800           0
     11083 TIP3     389      TIP3     H2       HT       0.417000       1.00800           0
     11084 TIP3     390      TIP3     OH2      OT      -0.834000       15.9994           0
     11085 TIP3     390      TIP3     H1       HT       0.417000       1.00800           0
     11086 TIP3     390      TIP3     H2       HT       0.417000       1.00800           0
     11087 TIP3     391      TIP3     OH2      OT      -0.834000       15.9994           0
     11088 TIP3     391      TIP3     H1       HT       0.417000       1.00800           0
     11089 TIP3     391      TIP3     H2       HT       0.417000       1.00800           0
     11090 TIP3     392      TIP3     OH2      OT      -0.834000       15.9994           0
     11091 TIP3     392      TIP3     H1       HT       0.417000       1.00800           0
     11092 TIP3     392      TIP3     H2       HT       0.417000       1.00800           0
     11093 TIP3     393      TIP3     OH2      OT      -0.834000       15.9994           0
     11094 TIP3     393      TIP3     H1       HT       0.417000       1.00800           0
     11095 TIP3     393      TIP3     H2       HT       0.417000       1.00800           0
     11096 TIP3     394      TIP3     OH2      OT      -0.834000       15.9994           0
     11097 TIP3     394      TIP3     H1       HT       0.417000       1.00800           0
     11098 TIP3     394      TIP3     H2       HT       0.417000       1.00800           0
     11099 TIP3     395      TIP3     OH2      OT      -0.834000       15.9994           0
     11100 TIP3     395      TIP3     H1       HT       0.417000       1.00800           0
     11101 TIP3     395      TIP3     H2       HT       0.417000       1.00800           0
     11102 TIP3     396      TIP3     OH2      OT      -0.834000       15.9994           0
     11103 TIP3     396      TIP3     H1       HT       0.417000       1.00800           0
     11104 TIP3     396      TIP3     H2       HT       0.417000       1.00800           0
     11105 TIP3     397      TIP3     OH2      OT      -0.834000       15.9994           0
     11106 TIP3     397      TIP3     H1       HT       0.417000       1.00800           0
     11107 TIP3     397      TIP3     H2       HT       0.417000       1.00800           0
     11108 TIP3     398      TIP3     OH2      OT      -0.834000       15.9994           0
     11109 TIP3     398      TIP3     H1       HT       0.417000       1.00800           0
     11110 TIP3     398      TIP3     H2       HT       0.417000       1.00800           0
     11111 TIP3     399      TIP3     OH2      OT      -0.834000       15.9994           0
     11112 TIP3     399      TIP3     H1       HT       0.417000       1.00800           0
     11113 TIP3     399      TIP3     H2       HT       0.417000       1.00800           0
     11114 TIP3     400      TIP3     OH2      OT      -0.834000       15.9994           0
     11115 TIP3     400      TIP3     H1       HT       0.417000       1.00800           0
     11116 TIP3     400      TIP3     H2       HT       0.417000       1.00800           0
     11117 TIP3     401      TIP3     OH2      OT      -0.834000       15.9994           0
     11118 TIP3     401      TIP3     H1       HT       0.417000       1.00800           0
     11119 TIP3     401      TIP3     H2       HT       0.417000       1.00800           0
     11120 TIP3     402      TIP3     OH2      OT      -0.834000       15.9994           0
     11121 TIP3     402      TIP3     H1       HT       0.417000       1.00800           0
     11122 TIP3     402      TIP3     H2       HT       0.417000       1.00800           0
     11123 TIP3     403      TIP3     OH2      OT      -0.834000       15.9994           0
     11124 TIP3     403      TIP3     H1       HT       0.417000       1.00800           0
     11125 TIP3     403      TIP3     H2       HT       0.417000       1.00800           0
     11126 TIP3     404      TIP3     OH2      OT      -0.834000       15.9994           0
     11127 TIP3     404      TIP3     H1       HT       0.417000       1.00800           0
     11128 TIP3     404      TIP3     H2       HT       0.417000       1.00800           0
     11129 TIP3     405      TIP3     OH2      OT      -0.834000       15.9994           0
     11130 TIP3     405      TIP3     H1       HT       0.417000       1.00800           0
     11131 TIP3     405      TIP3     H2       HT       0.417000       1.00800           0
     11132 TIP3     406      TIP3     OH2      OT      -0.834000       15.9994           0
     11133 TIP3     406      TIP3     H1       HT       0.417000       1.00800           0
     11134 TIP3     406      TIP3     H2       HT       0.417000       1.00800           0
     11135 TIP3     407      TIP3     OH2      OT      -0.834000       15.9994           0
     11136 TIP3     407      TIP3     H1       HT       0.417000       1.00800           0
     11137 TIP3     407      TIP3     H2       HT       0.417000       1.00800           0
     11138 TIP3     408      TIP3     OH2      OT      -0.834000       15.9994           0
     11139 TIP3     408      TIP3     H1       HT       0.417000       1.00800           0
     11140 TIP3     408      TIP3     H2       HT       0.417000       1.00800           0
     11141 TIP3     409      TIP3     OH2      OT      -0.834000       15.9994           0
     11142 TIP3     409      TIP3     H1       HT       0.417000       1.00800           0
     11143 TIP3     409      TIP3     H2       HT       0.417000       1.00800           0
     11144 TIP3     410      TIP3     OH2      OT      -0.834000       15.9994           0
     11145 TIP3     410      TIP3     H1       HT       0.417000       1.00800           0
     11146 TIP3     410      TIP3     H2       HT       0.417000       1.00800           0
     11147 TIP3     411      TIP3     OH2      OT      -0.834000       15.9994           0
     11148 TIP3     411      TIP3     H1       HT       0.417000       1.00800           0
     11149 TIP3     411      TIP3     H2       HT       0.417000       1.00800           0
     11150 TIP3     412      TIP3     OH2      OT      -0.834000       15.9994           0
     11151 TIP3     412      TIP3     H1       HT       0.417000       1.00800           0
     11152 TIP3     412      TIP3     H2       HT       0.417000       1.00800           0
     11153 TIP3     413      TIP3     OH2      OT      -0.834000       15.9994           0
     11154 TIP3     413      TIP3     H1       HT       0.417000       1.00800           0
     11155 TIP3     413      TIP3     H2       HT       0.417000       1.00800           0
     11156 TIP3     414      TIP3     OH2      OT      -0.834000       15.9994           0
     11157 TIP3     414      TIP3     H1       HT       0.417000       1.00800           0
     11158 TIP3     414      TIP3     H2       HT       0.417000       1.00800           0
     11159 TIP3     415      TIP3     OH2      OT      -0.834000       15.9994           0
     11160 TIP3     415      TIP3     H1       HT       0.417000       1.00800           0
     11161 TIP3     415      TIP3     H2       HT       0.417000       1.00800           0
     11162 TIP3     416      TIP3     OH2      OT      -0.834000       15.9994           0
     11163 TIP3     416      TIP3     H1       HT       0.417000       1.00800           0
     11164 TIP3     416      TIP3     H2       HT       0.417000       1.00800           0
     11165 TIP3     417      TIP3     OH2      OT      -0.834000       15.9994           0
     11166 TIP3     417      TIP3     H1       HT       0.417000       1.00800           0
     11167 TIP3     417      TIP3     H2       HT       0.417000       1.00800           0
     11168 TIP3     418      TIP3     OH2      OT      -0.834000       15.9994           0
     11169 TIP3     418      TIP3     H1       HT       0.417000       1.00800           0
     11170 TIP3     418      TIP3     H2       HT       0.417000       1.00800           0
     11171 TIP3     419      TIP3     OH2      OT      -0.834000       15.9994           0
     11172 TIP3     419      TIP3     H1       HT       0.417000       1.00800           0
     11173 TIP3     419      TIP3     H2       HT       0.417000       1.00800           0
     11174 TIP3     420      TIP3     OH2      OT      -0.834000       15.9994           0
     11175 TIP3     420      TIP3     H1       HT       0.417000       1.00800           0
     11176 TIP3     420      TIP3     H2       HT       0.417000       1.00800           0
     11177 TIP3     421      TIP3     OH2      OT      -0.834000       15.9994           0
     11178 TIP3     421      TIP3     H1       HT       0.417000       1.00800           0
     11179 TIP3     421      TIP3     H2       HT       0.417000       1.00800           0
     11180 TIP3     422      TIP3     OH2      OT      -0.834000       15.9994           0
     11181 TIP3     422      TIP3     H1       HT       0.417000       1.00800           0
     11182 TIP3     422      TIP3     H2       HT       0.417000       1.00800           0
     11183 TIP3     423      TIP3     OH2      OT      -0.834000       15.9994           0
     11184 TIP3     423      TIP3     H1       HT       0.417000       1.00800           0
     11185 TIP3     423      TIP3     H2       HT       0.417000       1.00800           0
     11186 TIP3     424      TIP3     OH2      OT      -0.834000       15.9994           0
     11187 TIP3     424      TIP3     H1       HT       0.417000       1.00800           0
     11188 TIP3     424      TIP3     H2       HT       0.417000       1.00800           0
     11189 TIP3     425      TIP3     OH2      OT      -0.834000       15.9994           0
     11190 TIP3     425      TIP3     H1       HT       0.417000       1.00800           0
     11191 TIP3     425      TIP3     H2       HT       0.417000       1.00800           0
     11192 TIP3     426      TIP3     OH2      OT      -0.834000       15.9994           0
     11193 TIP3     426      TIP3     H1       HT       0.417000       1.00800           0
     11194 TIP3     426      TIP3     H2       HT       0.417000       1.00800           0
     11195 TIP3     427      TIP3     OH2      OT      -0.834000       15.9994           0
     11196 TIP3     427      TIP3     H1       HT       0.417000       1.00800           0
     11197 TIP3     427      TIP3     H2       HT       0.417000       1.00800           0
     11198 TIP3     428      TIP3     OH2      OT      -0.834000       15.9994           0
     11199 TIP3     428      TIP3     H1       HT       0.417000       1.00800           0
     11200 TIP3     428      TIP3     H2       HT       0.417000       1.00800           0
     11201 TIP3     429      TIP3     OH2      OT      -0.834000       15.9994           0
     11202 TIP3     429      TIP3     H1       HT       0.417000       1.00800           0
     11203 TIP3     429      TIP3     H2       HT       0.417000       1.00800           0
     11204 TIP3     430      TIP3     OH2      OT      -0.834000       15.9994           0
     11205 TIP3     430      TIP3     H1       HT       0.417000       1.00800           0
     11206 TIP3     430      TIP3     H2       HT       0.417000       1.00800           0
     11207 TIP3     431      TIP3     OH2      OT      -0.834000       15.9994           0
     11208 TIP3     431      TIP3     H1       HT       0.417000       1.00800           0
     11209 TIP3     431      TIP3     H2       HT       0.417000       1.00800           0
     11210 TIP3     432      TIP3     OH2      OT      -0.834000       15.9994           0
     11211 TIP3     432      TIP3     H1       HT       0.417000       1.00800           0
     11212 TIP3     432      TIP3     H2       HT       0.417000       1.00800           0
     11213 TIP3     433      TIP3     OH2      OT      -0.834000       15.9994           0
     11214 TIP3     433      TIP3     H1       HT       0.417000       1.00800           0
     11215 TIP3     433      TIP3     H2       HT       0.417000       1.00800           0
     11216 TIP3     434      TIP3     OH2      OT      -0.834000       15.9994           0
     11217 TIP3     434      TIP3     H1       HT       0.417000       1.00800           0
     11218 TIP3     434      TIP3     H2       HT       0.417000       1.00800           0
     11219 TIP3     435      TIP3     OH2      OT      -0.834000       15.9994           0
     11220 TIP3     435      TIP3     H1       HT       0.417000       1.00800           0
     11221 TIP3     435      TIP3     H2       HT       0.417000       1.00800           0
     11222 TIP3     436      TIP3     OH2      OT      -0.834000       15.9994           0
     11223 TIP3     436      TIP3     H1       HT       0.417000       1.00800           0
     11224 TIP3     436      TIP3     H2       HT       0.417000       1.00800           0
     11225 TIP3     437      TIP3     OH2      OT      -0.834000       15.9994           0
     11226 TIP3     437      TIP3     H1       HT       0.417000       1.00800           0
     11227 TIP3     437      TIP3     H2       HT       0.417000       1.00800           0
     11228 TIP3     438      TIP3     OH2      OT      -0.834000       15.9994           0
     11229 TIP3     438      TIP3     H1       HT       0.417000       1.00800           0
     11230 TIP3     438      TIP3     H2       HT       0.417000       1.00800           0
     11231 TIP3     439      TIP3     OH2      OT      -0.834000       15.9994           0
     11232 TIP3     439      TIP3     H1       HT       0.417000       1.00800           0
     11233 TIP3     439      TIP3     H2       HT       0.417000       1.00800           0
     11234 TIP3     440      TIP3     OH2      OT      -0.834000       15.9994           0
     11235 TIP3     440      TIP3     H1       HT       0.417000       1.00800           0
     11236 TIP3     440      TIP3     H2       HT       0.417000       1.00800           0
     11237 TIP3     441      TIP3     OH2      OT      -0.834000       15.9994           0
     11238 TIP3     441      TIP3     H1       HT       0.417000       1.00800           0
     11239 TIP3     441      TIP3     H2       HT       0.417000       1.00800           0
     11240 TIP3     442      TIP3     OH2      OT      -0.834000       15.9994           0
     11241 TIP3     442      TIP3     H1       HT       0.417000       1.00800           0
     11242 TIP3     442      TIP3     H2       HT       0.417000       1.00800           0
     11243 TIP3     443      TIP3     OH2      OT      -0.834000       15.9994           0
     11244 TIP3     443      TIP3     H1       HT       0.417000       1.00800           0
     11245 TIP3     443      TIP3     H2       HT       0.417000       1.00800           0
     11246 TIP3     444      TIP3     OH2      OT      -0.834000       15.9994           0
     11247 TIP3     444      TIP3     H1       HT       0.417000       1.00800           0
     11248 TIP3     444      TIP3     H2       HT       0.417000       1.00800           0
     11249 TIP3     445      TIP3     OH2      OT      -0.834000       15.9994           0
     11250 TIP3     445      TIP3     H1       HT       0.417000       1.00800           0
     11251 TIP3     445      TIP3     H2       HT       0.417000       1.00800           0
     11252 TIP3     446      TIP3     OH2      OT      -0.834000       15.9994           0
     11253 TIP3     446      TIP3     H1       HT       0.417000       1.00800           0
     11254 TIP3     446      TIP3     H2       HT       0.417000       1.00800           0
     11255 TIP3     447      TIP3     OH2      OT      -0.834000       15.9994           0
     11256 TIP3     447      TIP3     H1       HT       0.417000       1.00800           0
     11257 TIP3     447      TIP3     H2       HT       0.417000       1.00800           0
     11258 TIP3     448      TIP3     OH2      OT      -0.834000       15.9994           0
     11259 TIP3     448      TIP3     H1       HT       0.417000       1.00800           0
     11260 TIP3     448      TIP3     H2       HT       0.417000       1.00800           0
     11261 TIP3     449      TIP3     OH2      OT      -0.834000       15.9994           0
     11262 TIP3     449      TIP3     H1       HT       0.417000       1.00800           0
     11263 TIP3     449      TIP3     H2       HT       0.417000       1.00800           0
     11264 TIP3     450      TIP3     OH2      OT      -0.834000       15.9994           0
     11265 TIP3     450      TIP3     H1       HT       0.417000       1.00800           0
     11266 TIP3     450      TIP3     H2       HT       0.417000       1.00800           0
     11267 TIP3     451      TIP3     OH2      OT      -0.834000       15.9994           0
     11268 TIP3     451      TIP3     H1       HT       0.417000       1.00800           0
     11269 TIP3     451      TIP3     H2       HT       0.417000       1.00800           0
     11270 TIP3     452      TIP3     OH2      OT      -0.834000       15.9994           0
     11271 TIP3     452      TIP3     H1       HT       0.417000       1.00800           0
     11272 TIP3     452      TIP3     H2       HT       0.417000       1.00800           0
     11273 TIP3     453      TIP3     OH2      OT      -0.834000       15.9994           0
     11274 TIP3     453      TIP3     H1       HT       0.417000       1.00800           0
     11275 TIP3     453      TIP3     H2       HT       0.417000       1.00800           0
     11276 TIP3     454      TIP3     OH2      OT      -0.834000       15.9994           0
     11277 TIP3     454      TIP3     H1       HT       0.417000       1.00800           0
     11278 TIP3     454      TIP3     H2       HT       0.417000       1.00800           0
     11279 TIP3     455      TIP3     OH2      OT      -0.834000       15.9994           0
     11280 TIP3     455      TIP3     H1       HT       0.417000       1.00800           0
     11281 TIP3     455      TIP3     H2       HT       0.417000       1.00800           0
     11282 TIP3     456      TIP3     OH2      OT      -0.834000       15.9994           0
     11283 TIP3     456      TIP3     H1       HT       0.417000       1.00800           0
     11284 TIP3     456      TIP3     H2       HT       0.417000       1.00800           0
     11285 TIP3     457      TIP3     OH2      OT      -0.834000       15.9994           0
     11286 TIP3     457      TIP3     H1       HT       0.417000       1.00800           0
     11287 TIP3     457      TIP3     H2       HT       0.417000       1.00800           0
     11288 TIP3     458      TIP3     OH2      OT      -0.834000       15.9994           0
     11289 TIP3     458      TIP3     H1       HT       0.417000       1.00800           0
     11290 TIP3     458      TIP3     H2       HT       0.417000       1.00800           0
     11291 TIP3     459      TIP3     OH2      OT      -0.834000       15.9994           0
     11292 TIP3     459      TIP3     H1       HT       0.417000       1.00800           0
     11293 TIP3     459      TIP3     H2       HT       0.417000       1.00800           0
     11294 TIP3     460      TIP3     OH2      OT      -0.834000       15.9994           0
     11295 TIP3     460      TIP3     H1       HT       0.417000       1.00800           0
     11296 TIP3     460      TIP3     H2       HT       0.417000       1.00800           0
     11297 TIP3     461      TIP3     OH2      OT      -0.834000       15.9994           0
     11298 TIP3     461      TIP3     H1       HT       0.417000       1.00800           0
     11299 TIP3     461      TIP3     H2       HT       0.417000       1.00800           0
     11300 TIP3     462      TIP3     OH2      OT      -0.834000       15.9994           0
     11301 TIP3     462      TIP3     H1       HT       0.417000       1.00800           0
     11302 TIP3     462      TIP3     H2       HT       0.417000       1.00800           0
     11303 TIP3     463      TIP3     OH2      OT      -0.834000       15.9994           0
     11304 TIP3     463      TIP3     H1       HT       0.417000       1.00800           0
     11305 TIP3     463      TIP3     H2       HT       0.417000       1.00800           0
     11306 TIP3     464      TIP3     OH2      OT      -0.834000       15.9994           0
     11307 TIP3     464      TIP3     H1       HT       0.417000       1.00800           0
     11308 TIP3     464      TIP3     H2       HT       0.417000       1.00800           0
     11309 TIP3     465      TIP3     OH2      OT      -0.834000       15.9994           0
     11310 TIP3     465      TIP3     H1       HT       0.417000       1.00800           0
     11311 TIP3     465      TIP3     H2       HT       0.417000       1.00800           0
     11312 TIP3     466      TIP3     OH2      OT      -0.834000       15.9994           0
     11313 TIP3     466      TIP3     H1       HT       0.417000       1.00800           0
     11314 TIP3     466      TIP3     H2       HT       0.417000       1.00800           0
     11315 TIP3     467      TIP3     OH2      OT      -0.834000       15.9994           0
     11316 TIP3     467      TIP3     H1       HT       0.417000       1.00800           0
     11317 TIP3     467      TIP3     H2       HT       0.417000       1.00800           0
     11318 TIP3     468      TIP3     OH2      OT      -0.834000       15.9994           0
     11319 TIP3     468      TIP3     H1       HT       0.417000       1.00800           0
     11320 TIP3     468      TIP3     H2       HT       0.417000       1.00800           0
     11321 TIP3     469      TIP3     OH2      OT      -0.834000       15.9994           0
     11322 TIP3     469      TIP3     H1       HT       0.417000       1.00800           0
     11323 TIP3     469      TIP3     H2       HT       0.417000       1.00800           0
     11324 TIP3     470      TIP3     OH2      OT      -0.834000       15.9994           0
     11325 TIP3     470      TIP3     H1       HT       0.417000       1.00800           0
     11326 TIP3     470      TIP3     H2       HT       0.417000       1.00800           0
     11327 TIP3     471      TIP3     OH2      OT      -0.834000       15.9994           0
     11328 TIP3     471      TIP3     H1       HT       0.417000       1.00800           0
     11329 TIP3     471      TIP3     H2       HT       0.417000       1.00800           0
     11330 TIP3     472      TIP3     OH2      OT      -0.834000       15.9994           0
     11331 TIP3     472      TIP3     H1       HT       0.417000       1.00800           0
     11332 TIP3     472      TIP3     H2       HT       0.417000       1.00800           0
     11333 TIP3     473      TIP3     OH2      OT      -0.834000       15.9994           0
     11334 TIP3     473      TIP3     H1       HT       0.417000       1.00800           0
     11335 TIP3     473      TIP3     H2       HT       0.417000       1.00800           0
     11336 TIP3     474      TIP3     OH2      OT      -0.834000       15.9994           0
     11337 TIP3     474      TIP3     H1       HT       0.417000       1.00800           0
     11338 TIP3     474      TIP3     H2       HT       0.417000       1.00800           0
     11339 TIP3     475      TIP3     OH2      OT      -0.834000       15.9994           0
     11340 TIP3     475      TIP3     H1       HT       0.417000       1.00800           0
     11341 TIP3     475      TIP3     H2       HT       0.417000       1.00800           0
     11342 TIP3     476      TIP3     OH2      OT      -0.834000       15.9994           0
     11343 TIP3     476      TIP3     H1       HT       0.417000       1.00800           0
     11344 TIP3     476      TIP3     H2       HT       0.417000       1.00800           0
     11345 TIP3     477      TIP3     OH2      OT      -0.834000       15.9994           0
     11346 TIP3     477      TIP3     H1       HT       0.417000       1.00800           0
     11347 TIP3     477      TIP3     H2       HT       0.417000       1.00800           0
     11348 TIP3     478      TIP3     OH2      OT      -0.834000       15.9994           0
     11349 TIP3     478      TIP3     H1       HT       0.417000       1.00800           0
     11350 TIP3     478      TIP3     H2       HT       0.417000       1.00800           0
     11351 TIP3     479      TIP3     OH2      OT      -0.834000       15.9994           0
     11352 TIP3     479      TIP3     H1       HT       0.417000       1.00800           0
     11353 TIP3     479      TIP3     H2       HT       0.417000       1.00800           0
     11354 TIP3     480      TIP3     OH2      OT      -0.834000       15.9994           0
     11355 TIP3     480      TIP3     H1       HT       0.417000       1.00800           0
     11356 TIP3     480      TIP3     H2       HT       0.417000       1.00800           0
     11357 TIP3     481      TIP3     OH2      OT      -0.834000       15.9994           0
     11358 TIP3     481      TIP3     H1       HT       0.417000       1.00800           0
     11359 TIP3     481      TIP3     H2       HT       0.417000       1.00800           0
     11360 TIP3     482      TIP3     OH2      OT      -0.834000       15.9994           0
     11361 TIP3     482      TIP3     H1       HT       0.417000       1.00800           0
     11362 TIP3     482      TIP3     H2       HT       0.417000       1.00800           0
     11363 TIP3     483      TIP3     OH2      OT      -0.834000       15.9994           0
     11364 TIP3     483      TIP3     H1       HT       0.417000       1.00800           0
     11365 TIP3     483      TIP3     H2       HT       0.417000       1.00800           0
     11366 TIP3     484      TIP3     OH2      OT      -0.834000       15.9994           0
     11367 TIP3     484      TIP3     H1       HT       0.417000       1.00800           0
     11368 TIP3     484      TIP3     H2       HT       0.417000       1.00800           0
     11369 TIP3     485      TIP3     OH2      OT      -0.834000       15.9994           0
     11370 TIP3     485      TIP3     H1       HT       0.417000       1.00800           0
     11371 TIP3     485      TIP3     H2       HT       0.417000       1.00800           0
     11372 TIP3     486      TIP3     OH2      OT      -0.834000       15.9994           0
     11373 TIP3     486      TIP3     H1       HT       0.417000       1.00800           0
     11374 TIP3     486      TIP3     H2       HT       0.417000       1.00800           0
     11375 TIP3     487      TIP3     OH2      OT      -0.834000       15.9994           0
     11376 TIP3     487      TIP3     H1       HT       0.417000       1.00800           0
     11377 TIP3     487      TIP3     H2       HT       0.417000       1.00800           0
     11378 TIP3     488      TIP3     OH2      OT      -0.834000       15.9994           0
     11379 TIP3     488      TIP3     H1       HT       0.417000       1.00800           0
     11380 TIP3     488      TIP3     H2       HT       0.417000       1.00800           0
     11381 TIP3     489      TIP3     OH2      OT      -0.834000       15.9994           0
     11382 TIP3     489      TIP3     H1       HT       0.417000       1.00800           0
     11383 TIP3     489      TIP3     H2       HT       0.417000       1.00800           0
     11384 TIP3     490      TIP3     OH2      OT      -0.834000       15.9994           0
     11385 TIP3     490      TIP3     H1       HT       0.417000       1.00800           0
     11386 TIP3     490      TIP3     H2       HT       0.417000       1.00800           0
     11387 TIP3     491      TIP3     OH2      OT      -0.834000       15.9994           0
     11388 TIP3     491      TIP3     H1       HT       0.417000       1.00800           0
     11389 TIP3     491      TIP3     H2       HT       0.417000       1.00800           0
     11390 TIP3     492      TIP3     OH2      OT      -0.834000       15.9994           0
     11391 TIP3     492      TIP3     H1       HT       0.417000       1.00800           0
     11392 TIP3     492      TIP3     H2       HT       0.417000       1.00800           0
     11393 TIP3     493      TIP3     OH2      OT      -0.834000       15.9994           0
     11394 TIP3     493      TIP3     H1       HT       0.417000       1.00800           0
     11395 TIP3     493      TIP3     H2       HT       0.417000       1.00800           0
     11396 TIP3     494      TIP3     OH2      OT      -0.834000       15.9994           0
     11397 TIP3     494      TIP3     H1       HT       0.417000       1.00800           0
     11398 TIP3     494      TIP3     H2       HT       0.417000       1.00800           0
     11399 TIP3     495      TIP3     OH2      OT      -0.834000       15.9994           0
     11400 TIP3     495      TIP3     H1       HT       0.417000       1.00800           0
     11401 TIP3     495      TIP3     H2       HT       0.417000       1.00800           0
     11402 TIP3     496      TIP3     OH2      OT      -0.834000       15.9994           0
     11403 TIP3     496      TIP3     H1       HT       0.417000       1.00800           0
     11404 TIP3     496      TIP3     H2       HT       0.417000       1.00800           0
     11405 TIP3     497      TIP3     OH2      OT      -0.834000       15.9994           0
     11406 TIP3     497      TIP3     H1       HT       0.417000       1.00800           0
     11407 TIP3     497      TIP3     H2       HT       0.417000       1.00800           0
     11408 TIP3     498      TIP3     OH2      OT      -0.834000       15.9994           0
     11409 TIP3     498      TIP3     H1       HT       0.417000       1.00800           0
     11410 TIP3     498      TIP3     H2       HT       0.417000       1.00800           0
     11411 TIP3     499      TIP3     OH2      OT      -0.834000       15.9994           0
     11412 TIP3     499      TIP3     H1       HT       0.417000       1.00800           0
     11413 TIP3     499      TIP3     H2       HT       0.417000       1.00800           0
     11414 TIP3     500      TIP3     OH2      OT      -0.834000       15.9994           0
     11415 TIP3     500      TIP3     H1       HT       0.417000       1.00800           0
     11416 TIP3     500      TIP3     H2       HT       0.417000       1.00800           0
     11417 TIP3     501      TIP3     OH2      OT      -0.834000       15.9994           0
     11418 TIP3     501      TIP3     H1       HT       0.417000       1.00800           0
     11419 TIP3     501      TIP3     H2       HT       0.417000       1.00800           0
     11420 TIP3     502      TIP3     OH2      OT      -0.834000       15.9994           0
     11421 TIP3     502      TIP3     H1       HT       0.417000       1.00800           0
     11422 TIP3     502      TIP3     H2       HT       0.417000       1.00800           0
     11423 TIP3     503      TIP3     OH2      OT      -0.834000       15.9994           0
     11424 TIP3     503      TIP3     H1       HT       0.417000       1.00800           0
     11425 TIP3     503      TIP3     H2       HT       0.417000       1.00800           0
     11426 TIP3     504      TIP3     OH2      OT      -0.834000       15.9994           0
     11427 TIP3     504      TIP3     H1       HT       0.417000       1.00800           0
     11428 TIP3     504      TIP3     H2       HT       0.417000       1.00800           0
     11429 TIP3     505      TIP3     OH2      OT      -0.834000       15.9994           0
     11430 TIP3     505      TIP3     H1       HT       0.417000       1.00800           0
     11431 TIP3     505      TIP3     H2       HT       0.417000       1.00800           0
     11432 TIP3     506      TIP3     OH2      OT      -0.834000       15.9994           0
     11433 TIP3     506      TIP3     H1       HT       0.417000       1.00800           0
     11434 TIP3     506      TIP3     H2       HT       0.417000       1.00800           0
     11435 TIP3     507      TIP3     OH2      OT      -0.834000       15.9994           0
     11436 TIP3     507      TIP3     H1       HT       0.417000       1.00800           0
     11437 TIP3     507      TIP3     H2       HT       0.417000       1.00800           0
     11438 TIP3     508      TIP3     OH2      OT      -0.834000       15.9994           0
     11439 TIP3     508      TIP3     H1       HT       0.417000       1.00800           0
     11440 TIP3     508      TIP3     H2       HT       0.417000       1.00800           0
     11441 TIP3     509      TIP3     OH2      OT      -0.834000       15.9994           0
     11442 TIP3     509      TIP3     H1       HT       0.417000       1.00800           0
     11443 TIP3     509      TIP3     H2       HT       0.417000       1.00800           0
     11444 TIP3     510      TIP3     OH2      OT      -0.834000       15.9994           0
     11445 TIP3     510      TIP3     H1       HT       0.417000       1.00800           0
     11446 TIP3     510      TIP3     H2       HT       0.417000       1.00800           0
     11447 TIP3     511      TIP3     OH2      OT      -0.834000       15.9994           0
     11448 TIP3     511      TIP3     H1       HT       0.417000       1.00800           0
     11449 TIP3     511      TIP3     H2       HT       0.417000       1.00800           0
     11450 TIP3     512      TIP3     OH2      OT      -0.834000       15.9994           0
     11451 TIP3     512      TIP3     H1       HT       0.417000       1.00800           0
     11452 TIP3     512      TIP3     H2       HT       0.417000       1.00800           0
     11453 TIP3     513      TIP3     OH2      OT      -0.834000       15.9994           0
     11454 TIP3     513      TIP3     H1       HT       0.417000       1.00800           0
     11455 TIP3     513      TIP3     H2       HT       0.417000       1.00800           0
     11456 TIP3     514      TIP3     OH2      OT      -0.834000       15.9994           0
     11457 TIP3     514      TIP3     H1       HT       0.417000       1.00800           0
     11458 TIP3     514      TIP3     H2       HT       0.417000       1.00800           0
     11459 TIP3     515      TIP3     OH2      OT      -0.834000       15.9994           0
     11460 TIP3     515      TIP3     H1       HT       0.417000       1.00800           0
     11461 TIP3     515      TIP3     H2       HT       0.417000       1.00800           0
     11462 TIP3     516      TIP3     OH2      OT      -0.834000       15.9994           0
     11463 TIP3     516      TIP3     H1       HT       0.417000       1.00800           0
     11464 TIP3     516      TIP3     H2       HT       0.417000       1.00800           0
     11465 TIP3     517      TIP3     OH2      OT      -0.834000       15.9994           0
     11466 TIP3     517      TIP3     H1       HT       0.417000       1.00800           0
     11467 TIP3     517      TIP3     H2       HT       0.417000       1.00800           0
     11468 TIP3     518      TIP3     OH2      OT      -0.834000       15.9994           0
     11469 TIP3     518      TIP3     H1       HT       0.417000       1.00800           0
     11470 TIP3     518      TIP3     H2       HT       0.417000       1.00800           0
     11471 TIP3     519      TIP3     OH2      OT      -0.834000       15.9994           0
     11472 TIP3     519      TIP3     H1       HT       0.417000       1.00800           0
     11473 TIP3     519      TIP3     H2       HT       0.417000       1.00800           0
     11474 TIP3     520      TIP3     OH2      OT      -0.834000       15.9994           0
     11475 TIP3     520      TIP3     H1       HT       0.417000       1.00800           0
     11476 TIP3     520      TIP3     H2       HT       0.417000       1.00800           0
     11477 TIP3     521      TIP3     OH2      OT      -0.834000       15.9994           0
     11478 TIP3     521      TIP3     H1       HT       0.417000       1.00800           0
     11479 TIP3     521      TIP3     H2       HT       0.417000       1.00800           0
     11480 TIP3     522      TIP3     OH2      OT      -0.834000       15.9994           0
     11481 TIP3     522      TIP3     H1       HT       0.417000       1.00800           0
     11482 TIP3     522      TIP3     H2       HT       0.417000       1.00800           0
     11483 TIP3     523      TIP3     OH2      OT      -0.834000       15.9994           0
     11484 TIP3     523      TIP3     H1       HT       0.417000       1.00800           0
     11485 TIP3     523      TIP3     H2       HT       0.417000       1.00800           0
     11486 TIP3     524      TIP3     OH2      OT      -0.834000       15.9994           0
     11487 TIP3     524      TIP3     H1       HT       0.417000       1.00800           0
     11488 TIP3     524      TIP3     H2       HT       0.417000       1.00800           0
     11489 TIP3     525      TIP3     OH2      OT      -0.834000       15.9994           0
     11490 TIP3     525      TIP3     H1       HT       0.417000       1.00800           0
     11491 TIP3     525      TIP3     H2       HT       0.417000       1.00800           0
     11492 TIP3     526      TIP3     OH2      OT      -0.834000       15.9994           0
     11493 TIP3     526      TIP3     H1       HT       0.417000       1.00800           0
     11494 TIP3     526      TIP3     H2       HT       0.417000       1.00800           0
     11495 TIP3     527      TIP3     OH2      OT      -0.834000       15.9994           0
     11496 TIP3     527      TIP3     H1       HT       0.417000       1.00800           0
     11497 TIP3     527      TIP3     H2       HT       0.417000       1.00800           0
     11498 TIP3     528      TIP3     OH2      OT      -0.834000       15.9994           0
     11499 TIP3     528      TIP3     H1       HT       0.417000       1.00800           0
     11500 TIP3     528      TIP3     H2       HT       0.417000       1.00800           0
     11501 TIP3     529      TIP3     OH2      OT      -0.834000       15.9994           0
     11502 TIP3     529      TIP3     H1       HT       0.417000       1.00800           0
     11503 TIP3     529      TIP3     H2       HT       0.417000       1.00800           0
     11504 TIP3     530      TIP3     OH2      OT      -0.834000       15.9994           0
     11505 TIP3     530      TIP3     H1       HT       0.417000       1.00800           0
     11506 TIP3     530      TIP3     H2       HT       0.417000       1.00800           0
     11507 TIP3     531      TIP3     OH2      OT      -0.834000       15.9994           0
     11508 TIP3     531      TIP3     H1       HT       0.417000       1.00800           0
     11509 TIP3     531      TIP3     H2       HT       0.417000       1.00800           0
     11510 TIP3     532      TIP3     OH2      OT      -0.834000       15.9994           0
     11511 TIP3     532      TIP3     H1       HT       0.417000       1.00800           0
     11512 TIP3     532      TIP3     H2       HT       0.417000       1.00800           0
     11513 TIP3     533      TIP3     OH2      OT      -0.834000       15.9994           0
     11514 TIP3     533      TIP3     H1       HT       0.417000       1.00800           0
     11515 TIP3     533      TIP3     H2       HT       0.417000       1.00800           0
     11516 TIP3     534      TIP3     OH2      OT      -0.834000       15.9994           0
     11517 TIP3     534      TIP3     H1       HT       0.417000       1.00800           0
     11518 TIP3     534      TIP3     H2       HT       0.417000       1.00800           0
     11519 TIP3     535      TIP3     OH2      OT      -0.834000       15.9994           0
     11520 TIP3     535      TIP3     H1       HT       0.417000       1.00800           0
     11521 TIP3     535      TIP3     H2       HT       0.417000       1.00800           0
     11522 TIP3     536      TIP3     OH2      OT      -0.834000       15.9994           0
     11523 TIP3     536      TIP3     H1       HT       0.417000       1.00800           0
     11524 TIP3     536      TIP3     H2       HT       0.417000       1.00800           0
     11525 TIP3     537      TIP3     OH2      OT      -0.834000       15.9994           0
     11526 TIP3     537      TIP3     H1       HT       0.417000       1.00800           0
     11527 TIP3     537      TIP3     H2       HT       0.417000       1.00800           0
     11528 TIP3     538      TIP3     OH2      OT      -0.834000       15.9994           0
     11529 TIP3     538      TIP3     H1       HT       0.417000       1.00800           0
     11530 TIP3     538      TIP3     H2       HT       0.417000       1.00800           0
     11531 TIP3     539      TIP3     OH2      OT      -0.834000       15.9994           0
     11532 TIP3     539      TIP3     H1       HT       0.417000       1.00800           0
     11533 TIP3     539      TIP3     H2       HT       0.417000       1.00800           0
     11534 TIP3     540      TIP3     OH2      OT      -0.834000       15.9994           0
     11535 TIP3     540      TIP3     H1       HT       0.417000       1.00800           0
     11536 TIP3     540      TIP3     H2       HT       0.417000       1.00800           0
     11537 TIP3     541      TIP3     OH2      OT      -0.834000       15.9994           0
     11538 TIP3     541      TIP3     H1       HT       0.417000       1.00800           0
     11539 TIP3     541      TIP3     H2       HT       0.417000       1.00800           0
     11540 TIP3     542      TIP3     OH2      OT      -0.834000       15.9994           0
     11541 TIP3     542      TIP3     H1       HT       0.417000       1.00800           0
     11542 TIP3     542      TIP3     H2       HT       0.417000       1.00800           0
     11543 TIP3     543      TIP3     OH2      OT      -0.834000       15.9994           0
     11544 TIP3     543      TIP3     H1       HT       0.417000       1.00800           0
     11545 TIP3     543      TIP3     H2       HT       0.417000       1.00800           0
     11546 TIP3     544      TIP3     OH2      OT      -0.834000       15.9994           0
     11547 TIP3     544      TIP3     H1       HT       0.417000       1.00800           0
     11548 TIP3     544      TIP3     H2       HT       0.417000       1.00800           0
     11549 TIP3     545      TIP3     OH2      OT      -0.834000       15.9994           0
     11550 TIP3     545      TIP3     H1       HT       0.417000       1.00800           0
     11551 TIP3     545      TIP3     H2       HT       0.417000       1.00800           0
     11552 TIP3     546      TIP3     OH2      OT      -0.834000       15.9994           0
     11553 TIP3     546      TIP3     H1       HT       0.417000       1.00800           0
     11554 TIP3     546      TIP3     H2       HT       0.417000       1.00800           0
     11555 TIP3     547      TIP3     OH2      OT      -0.834000       15.9994           0
     11556 TIP3     547      TIP3     H1       HT       0.417000       1.00800           0
     11557 TIP3     547      TIP3     H2       HT       0.417000       1.00800           0
     11558 TIP3     548      TIP3     OH2      OT      -0.834000       15.9994           0
     11559 TIP3     548      TIP3     H1       HT       0.417000       1.00800           0
     11560 TIP3     548      TIP3     H2       HT       0.417000       1.00800           0
     11561 TIP3     549      TIP3     OH2      OT      -0.834000       15.9994           0
     11562 TIP3     549      TIP3     H1       HT       0.417000       1.00800           0
     11563 TIP3     549      TIP3     H2       HT       0.417000       1.00800           0
     11564 TIP3     550      TIP3     OH2      OT      -0.834000       15.9994           0
     11565 TIP3     550      TIP3     H1       HT       0.417000       1.00800           0
     11566 TIP3     550      TIP3     H2       HT       0.417000       1.00800           0
     11567 TIP3     551      TIP3     OH2      OT      -0.834000       15.9994           0
     11568 TIP3     551      TIP3     H1       HT       0.417000       1.00800           0
     11569 TIP3     551      TIP3     H2       HT       0.417000       1.00800           0
     11570 TIP3     552      TIP3     OH2      OT      -0.834000       15.9994           0
     11571 TIP3     552      TIP3     H1       HT       0.417000       1.00800           0
     11572 TIP3     552      TIP3     H2       HT       0.417000       1.00800           0
     11573 TIP3     553      TIP3     OH2      OT      -0.834000       15.9994           0
     11574 TIP3     553      TIP3     H1       HT       0.417000       1.00800           0
     11575 TIP3     553      TIP3     H2       HT       0.417000       1.00800           0
     11576 TIP3     554      TIP3     OH2      OT      -0.834000       15.9994           0
     11577 TIP3     554      TIP3     H1       HT       0.417000       1.00800           0
     11578 TIP3     554      TIP3     H2       HT       0.417000       1.00800           0
     11579 TIP3     555      TIP3     OH2      OT      -0.834000       15.9994           0
     11580 TIP3     555      TIP3     H1       HT       0.417000       1.00800           0
     11581 TIP3     555      TIP3     H2       HT       0.417000       1.00800           0
     11582 TIP3     556      TIP3     OH2      OT      -0.834000       15.9994           0
     11583 TIP3     556      TIP3     H1       HT       0.417000       1.00800           0
     11584 TIP3     556      TIP3     H2       HT       0.417000       1.00800           0
     11585 TIP3     557      TIP3     OH2      OT      -0.834000       15.9994           0
     11586 TIP3     557      TIP3     H1       HT       0.417000       1.00800           0
     11587 TIP3     557      TIP3     H2       HT       0.417000       1.00800           0
     11588 TIP3     558      TIP3     OH2      OT      -0.834000       15.9994           0
     11589 TIP3     558      TIP3     H1       HT       0.417000       1.00800           0
     11590 TIP3     558      TIP3     H2       HT       0.417000       1.00800           0
     11591 TIP3     559      TIP3     OH2      OT      -0.834000       15.9994           0
     11592 TIP3     559      TIP3     H1       HT       0.417000       1.00800           0
     11593 TIP3     559      TIP3     H2       HT       0.417000       1.00800           0
     11594 TIP3     560      TIP3     OH2      OT      -0.834000       15.9994           0
     11595 TIP3     560      TIP3     H1       HT       0.417000       1.00800           0
     11596 TIP3     560      TIP3     H2       HT       0.417000       1.00800           0
     11597 TIP3     561      TIP3     OH2      OT      -0.834000       15.9994           0
     11598 TIP3     561      TIP3     H1       HT       0.417000       1.00800           0
     11599 TIP3     561      TIP3     H2       HT       0.417000       1.00800           0
     11600 TIP3     562      TIP3     OH2      OT      -0.834000       15.9994           0
     11601 TIP3     562      TIP3     H1       HT       0.417000       1.00800           0
     11602 TIP3     562      TIP3     H2       HT       0.417000       1.00800           0
     11603 TIP3     563      TIP3     OH2      OT      -0.834000       15.9994           0
     11604 TIP3     563      TIP3     H1       HT       0.417000       1.00800           0
     11605 TIP3     563      TIP3     H2       HT       0.417000       1.00800           0
     11606 TIP3     564      TIP3     OH2      OT      -0.834000       15.9994           0
     11607 TIP3     564      TIP3     H1       HT       0.417000       1.00800           0
     11608 TIP3     564      TIP3     H2       HT       0.417000       1.00800           0
     11609 TIP3     565      TIP3     OH2      OT      -0.834000       15.9994           0
     11610 TIP3     565      TIP3     H1       HT       0.417000       1.00800           0
     11611 TIP3     565      TIP3     H2       HT       0.417000       1.00800           0
     11612 TIP3     566      TIP3     OH2      OT      -0.834000       15.9994           0
     11613 TIP3     566      TIP3     H1       HT       0.417000       1.00800           0
     11614 TIP3     566      TIP3     H2       HT       0.417000       1.00800           0
     11615 TIP3     567      TIP3     OH2      OT      -0.834000       15.9994           0
     11616 TIP3     567      TIP3     H1       HT       0.417000       1.00800           0
     11617 TIP3     567      TIP3     H2       HT       0.417000       1.00800           0
     11618 TIP3     568      TIP3     OH2      OT      -0.834000       15.9994           0
     11619 TIP3     568      TIP3     H1       HT       0.417000       1.00800           0
     11620 TIP3     568      TIP3     H2       HT       0.417000       1.00800           0
     11621 TIP3     569      TIP3     OH2      OT      -0.834000       15.9994           0
     11622 TIP3     569      TIP3     H1       HT       0.417000       1.00800           0
     11623 TIP3     569      TIP3     H2       HT       0.417000       1.00800           0
     11624 TIP3     570      TIP3     OH2      OT      -0.834000       15.9994           0
     11625 TIP3     570      TIP3     H1       HT       0.417000       1.00800           0
     11626 TIP3     570      TIP3     H2       HT       0.417000       1.00800           0
     11627 TIP3     571      TIP3     OH2      OT      -0.834000       15.9994           0
     11628 TIP3     571      TIP3     H1       HT       0.417000       1.00800           0
     11629 TIP3     571      TIP3     H2       HT       0.417000       1.00800           0
     11630 TIP3     572      TIP3     OH2      OT      -0.834000       15.9994           0
     11631 TIP3     572      TIP3     H1       HT       0.417000       1.00800           0
     11632 TIP3     572      TIP3     H2       HT       0.417000       1.00800           0
     11633 TIP3     573      TIP3     OH2      OT      -0.834000       15.9994           0
     11634 TIP3     573      TIP3     H1       HT       0.417000       1.00800           0
     11635 TIP3     573      TIP3     H2       HT       0.417000       1.00800           0
     11636 TIP3     574      TIP3     OH2      OT      -0.834000       15.9994           0
     11637 TIP3     574      TIP3     H1       HT       0.417000       1.00800           0
     11638 TIP3     574      TIP3     H2       HT       0.417000       1.00800           0
     11639 TIP3     575      TIP3     OH2      OT      -0.834000       15.9994           0
     11640 TIP3     575      TIP3     H1       HT       0.417000       1.00800           0
     11641 TIP3     575      TIP3     H2       HT       0.417000       1.00800           0
     11642 TIP3     576      TIP3     OH2      OT      -0.834000       15.9994           0
     11643 TIP3     576      TIP3     H1       HT       0.417000       1.00800           0
     11644 TIP3     576      TIP3     H2       HT       0.417000       1.00800           0
     11645 TIP3     577      TIP3     OH2      OT      -0.834000       15.9994           0
     11646 TIP3     577      TIP3     H1       HT       0.417000       1.00800           0
     11647 TIP3     577      TIP3     H2       HT       0.417000       1.00800           0
     11648 TIP3     578      TIP3     OH2      OT      -0.834000       15.9994           0
     11649 TIP3     578      TIP3     H1       HT       0.417000       1.00800           0
     11650 TIP3     578      TIP3     H2       HT       0.417000       1.00800           0
     11651 TIP3     579      TIP3     OH2      OT      -0.834000       15.9994           0
     11652 TIP3     579      TIP3     H1       HT       0.417000       1.00800           0
     11653 TIP3     579      TIP3     H2       HT       0.417000       1.00800           0
     11654 TIP3     580      TIP3     OH2      OT      -0.834000       15.9994           0
     11655 TIP3     580      TIP3     H1       HT       0.417000       1.00800           0
     11656 TIP3     580      TIP3     H2       HT       0.417000       1.00800           0
     11657 TIP3     581      TIP3     OH2      OT      -0.834000       15.9994           0
     11658 TIP3     581      TIP3     H1       HT       0.417000       1.00800           0
     11659 TIP3     581      TIP3     H2       HT       0.417000       1.00800           0
     11660 TIP3     582      TIP3     OH2      OT      -0.834000       15.9994           0
     11661 TIP3     582      TIP3     H1       HT       0.417000       1.00800           0
     11662 TIP3     582      TIP3     H2       HT       0.417000       1.00800           0
     11663 TIP3     583      TIP3     OH2      OT      -0.834000       15.9994           0
     11664 TIP3     583      TIP3     H1       HT       0.417000       1.00800           0
     11665 TIP3     583      TIP3     H2       HT       0.417000       1.00800           0
     11666 TIP3     584      TIP3     OH2      OT      -0.834000       15.9994           0
     11667 TIP3     584      TIP3     H1       HT       0.417000       1.00800           0
     11668 TIP3     584      TIP3     H2       HT       0.417000       1.00800           0
     11669 TIP3     585      TIP3     OH2      OT      -0.834000       15.9994           0
     11670 TIP3     585      TIP3     H1       HT       0.417000       1.00800           0
     11671 TIP3     585      TIP3     H2       HT       0.417000       1.00800           0
     11672 TIP3     586      TIP3     OH2      OT      -0.834000       15.9994           0
     11673 TIP3     586      TIP3     H1       HT       0.417000       1.00800           0
     11674 TIP3     586      TIP3     H2       HT       0.417000       1.00800           0
     11675 TIP3     587      TIP3     OH2      OT      -0.834000       15.9994           0
     11676 TIP3     587      TIP3     H1       HT       0.417000       1.00800           0
     11677 TIP3     587      TIP3     H2       HT       0.417000       1.00800           0
     11678 TIP3     588      TIP3     OH2      OT      -0.834000       15.9994           0
     11679 TIP3     588      TIP3     H1       HT       0.417000       1.00800           0
     11680 TIP3     588      TIP3     H2       HT       0.417000       1.00800           0
     11681 TIP3     589      TIP3     OH2      OT      -0.834000       15.9994           0
     11682 TIP3     589      TIP3     H1       HT       0.417000       1.00800           0
     11683 TIP3     589      TIP3     H2       HT       0.417000       1.00800           0
     11684 TIP3     590      TIP3     OH2      OT      -0.834000       15.9994           0
     11685 TIP3     590      TIP3     H1       HT       0.417000       1.00800           0
     11686 TIP3     590      TIP3     H2       HT       0.417000       1.00800           0
     11687 TIP3     591      TIP3     OH2      OT      -0.834000       15.9994           0
     11688 TIP3     591      TIP3     H1       HT       0.417000       1.00800           0
     11689 TIP3     591      TIP3     H2       HT       0.417000       1.00800           0
     11690 TIP3     592      TIP3     OH2      OT      -0.834000       15.9994           0
     11691 TIP3     592      TIP3     H1       HT       0.417000       1.00800           0
     11692 TIP3     592      TIP3     H2       HT       0.417000       1.00800           0
     11693 TIP3     593      TIP3     OH2      OT      -0.834000       15.9994           0
     11694 TIP3     593      TIP3     H1       HT       0.417000       1.00800           0
     11695 TIP3     593      TIP3     H2       HT       0.417000       1.00800           0
     11696 TIP3     594      TIP3     OH2      OT      -0.834000       15.9994           0
     11697 TIP3     594      TIP3     H1       HT       0.417000       1.00800           0
     11698 TIP3     594      TIP3     H2       HT       0.417000       1.00800           0
     11699 TIP3     595      TIP3     OH2      OT      -0.834000       15.9994           0
     11700 TIP3     595      TIP3     H1       HT       0.417000       1.00800           0
     11701 TIP3     595      TIP3     H2       HT       0.417000       1.00800           0
     11702 TIP3     596      TIP3     OH2      OT      -0.834000       15.9994           0
     11703 TIP3     596      TIP3     H1       HT       0.417000       1.00800           0
     11704 TIP3     596      TIP3     H2       HT       0.417000       1.00800           0
     11705 TIP3     597      TIP3     OH2      OT      -0.834000       15.9994           0
     11706 TIP3     597      TIP3     H1       HT       0.417000       1.00800           0
     11707 TIP3     597      TIP3     H2       HT       0.417000       1.00800           0
     11708 TIP3     598      TIP3     OH2      OT      -0.834000       15.9994           0
     11709 TIP3     598      TIP3     H1       HT       0.417000       1.00800           0
     11710 TIP3     598      TIP3     H2       HT       0.417000       1.00800           0
     11711 TIP3     599      TIP3     OH2      OT      -0.834000       15.9994           0
     11712 TIP3     599      TIP3     H1       HT       0.417000       1.00800           0
     11713 TIP3     599      TIP3     H2       HT       0.417000       1.00800           0
     11714 TIP3     600      TIP3     OH2      OT      -0.834000       15.9994           0
     11715 TIP3     600      TIP3     H1       HT       0.417000       1.00800           0
     11716 TIP3     600      TIP3     H2       HT       0.417000       1.00800           0
     11717 TIP3     601      TIP3     OH2      OT      -0.834000       15.9994           0
     11718 TIP3     601      TIP3     H1       HT       0.417000       1.00800           0
     11719 TIP3     601      TIP3     H2       HT       0.417000       1.00800           0
     11720 TIP3     602      TIP3     OH2      OT      -0.834000       15.9994           0
     11721 TIP3     602      TIP3     H1       HT       0.417000       1.00800           0
     11722 TIP3     602      TIP3     H2       HT       0.417000       1.00800           0
     11723 TIP3     603      TIP3     OH2      OT      -0.834000       15.9994           0
     11724 TIP3     603      TIP3     H1       HT       0.417000       1.00800           0
     11725 TIP3     603      TIP3     H2       HT       0.417000       1.00800           0
     11726 TIP3     604      TIP3     OH2      OT      -0.834000       15.9994           0
     11727 TIP3     604      TIP3     H1       HT       0.417000       1.00800           0
     11728 TIP3     604      TIP3     H2       HT       0.417000       1.00800           0
     11729 TIP3     605      TIP3     OH2      OT      -0.834000       15.9994           0
     11730 TIP3     605      TIP3     H1       HT       0.417000       1.00800           0
     11731 TIP3     605      TIP3     H2       HT       0.417000       1.00800           0
     11732 TIP3     606      TIP3     OH2      OT      -0.834000       15.9994           0
     11733 TIP3     606      TIP3     H1       HT       0.417000       1.00800           0
     11734 TIP3     606      TIP3     H2       HT       0.417000       1.00800           0
     11735 TIP3     607      TIP3     OH2      OT      -0.834000       15.9994           0
     11736 TIP3     607      TIP3     H1       HT       0.417000       1.00800           0
     11737 TIP3     607      TIP3     H2       HT       0.417000       1.00800           0
     11738 TIP3     608      TIP3     OH2      OT      -0.834000       15.9994           0
     11739 TIP3     608      TIP3     H1       HT       0.417000       1.00800           0
     11740 TIP3     608      TIP3     H2       HT       0.417000       1.00800           0
     11741 TIP3     609      TIP3     OH2      OT      -0.834000       15.9994           0
     11742 TIP3     609      TIP3     H1       HT       0.417000       1.00800           0
     11743 TIP3     609      TIP3     H2       HT       0.417000       1.00800           0
     11744 TIP3     610      TIP3     OH2      OT      -0.834000       15.9994           0
     11745 TIP3     610      TIP3     H1       HT       0.417000       1.00800           0
     11746 TIP3     610      TIP3     H2       HT       0.417000       1.00800           0
     11747 TIP3     611      TIP3     OH2      OT      -0.834000       15.9994           0
     11748 TIP3     611      TIP3     H1       HT       0.417000       1.00800           0
     11749 TIP3     611      TIP3     H2       HT       0.417000       1.00800           0
     11750 TIP3     612      TIP3     OH2      OT      -0.834000       15.9994           0
     11751 TIP3     612      TIP3     H1       HT       0.417000       1.00800           0
     11752 TIP3     612      TIP3     H2       HT       0.417000       1.00800           0
     11753 TIP3     613      TIP3     OH2      OT      -0.834000       15.9994           0
     11754 TIP3     613      TIP3     H1       HT       0.417000       1.00800           0
     11755 TIP3     613      TIP3     H2       HT       0.417000       1.00800           0
     11756 TIP3     614      TIP3     OH2      OT      -0.834000       15.9994           0
     11757 TIP3     614      TIP3     H1       HT       0.417000       1.00800           0
     11758 TIP3     614      TIP3     H2       HT       0.417000       1.00800           0
     11759 TIP3     615      TIP3     OH2      OT      -0.834000       15.9994           0
     11760 TIP3     615      TIP3     H1       HT       0.417000       1.00800           0
     11761 TIP3     615      TIP3     H2       HT       0.417000       1.00800           0
     11762 TIP3     616      TIP3     OH2      OT      -0.834000       15.9994           0
     11763 TIP3     616      TIP3     H1       HT       0.417000       1.00800           0
     11764 TIP3     616      TIP3     H2       HT       0.417000       1.00800           0
     11765 TIP3     617      TIP3     OH2      OT      -0.834000       15.9994           0
     11766 TIP3     617      TIP3     H1       HT       0.417000       1.00800           0
     11767 TIP3     617      TIP3     H2       HT       0.417000       1.00800           0
     11768 TIP3     618      TIP3     OH2      OT      -0.834000       15.9994           0
     11769 TIP3     618      TIP3     H1       HT       0.417000       1.00800           0
     11770 TIP3     618      TIP3     H2       HT       0.417000       1.00800           0
     11771 TIP3     619      TIP3     OH2      OT      -0.834000       15.9994           0
     11772 TIP3     619      TIP3     H1       HT       0.417000       1.00800           0
     11773 TIP3     619      TIP3     H2       HT       0.417000       1.00800           0
     11774 TIP3     620      TIP3     OH2      OT      -0.834000       15.9994           0
     11775 TIP3     620      TIP3     H1       HT       0.417000       1.00800           0
     11776 TIP3     620      TIP3     H2       HT       0.417000       1.00800           0
     11777 TIP3     621      TIP3     OH2      OT      -0.834000       15.9994           0
     11778 TIP3     621      TIP3     H1       HT       0.417000       1.00800           0
     11779 TIP3     621      TIP3     H2       HT       0.417000       1.00800           0
     11780 TIP3     622      TIP3     OH2      OT      -0.834000       15.9994           0
     11781 TIP3     622      TIP3     H1       HT       0.417000       1.00800           0
     11782 TIP3     622      TIP3     H2       HT       0.417000       1.00800           0
     11783 TIP3     623      TIP3     OH2      OT      -0.834000       15.9994           0
     11784 TIP3     623      TIP3     H1       HT       0.417000       1.00800           0
     11785 TIP3     623      TIP3     H2       HT       0.417000       1.00800           0
     11786 TIP3     624      TIP3     OH2      OT      -0.834000       15.9994           0
     11787 TIP3     624      TIP3     H1       HT       0.417000       1.00800           0
     11788 TIP3     624      TIP3     H2       HT       0.417000       1.00800           0
     11789 TIP3     625      TIP3     OH2      OT      -0.834000       15.9994           0
     11790 TIP3     625      TIP3     H1       HT       0.417000       1.00800           0
     11791 TIP3     625      TIP3     H2       HT       0.417000       1.00800           0
     11792 TIP3     626      TIP3     OH2      OT      -0.834000       15.9994           0
     11793 TIP3     626      TIP3     H1       HT       0.417000       1.00800           0
     11794 TIP3     626      TIP3     H2       HT       0.417000       1.00800           0
     11795 TIP3     627      TIP3     OH2      OT      -0.834000       15.9994           0
     11796 TIP3     627      TIP3     H1       HT       0.417000       1.00800           0
     11797 TIP3     627      TIP3     H2       HT       0.417000       1.00800           0
     11798 TIP3     628      TIP3     OH2      OT      -0.834000       15.9994           0
     11799 TIP3     628      TIP3     H1       HT       0.417000       1.00800           0
     11800 TIP3     628      TIP3     H2       HT       0.417000       1.00800           0
     11801 TIP3     629      TIP3     OH2      OT      -0.834000       15.9994           0
     11802 TIP3     629      TIP3     H1       HT       0.417000       1.00800           0
     11803 TIP3     629      TIP3     H2       HT       0.417000       1.00800           0
     11804 TIP3     630      TIP3     OH2      OT      -0.834000       15.9994           0
     11805 TIP3     630      TIP3     H1       HT       0.417000       1.00800           0
     11806 TIP3     630      TIP3     H2       HT       0.417000       1.00800           0
     11807 TIP3     631      TIP3     OH2      OT      -0.834000       15.9994           0
     11808 TIP3     631      TIP3     H1       HT       0.417000       1.00800           0
     11809 TIP3     631      TIP3     H2       HT       0.417000       1.00800           0
     11810 TIP3     632      TIP3     OH2      OT      -0.834000       15.9994           0
     11811 TIP3     632      TIP3     H1       HT       0.417000       1.00800           0
     11812 TIP3     632      TIP3     H2       HT       0.417000       1.00800           0
     11813 TIP3     633      TIP3     OH2      OT      -0.834000       15.9994           0
     11814 TIP3     633      TIP3     H1       HT       0.417000       1.00800           0
     11815 TIP3     633      TIP3     H2       HT       0.417000       1.00800           0
     11816 TIP3     634      TIP3     OH2      OT      -0.834000       15.9994           0
     11817 TIP3     634      TIP3     H1       HT       0.417000       1.00800           0
     11818 TIP3     634      TIP3     H2       HT       0.417000       1.00800           0
     11819 TIP3     635      TIP3     OH2      OT      -0.834000       15.9994           0
     11820 TIP3     635      TIP3     H1       HT       0.417000       1.00800           0
     11821 TIP3     635      TIP3     H2       HT       0.417000       1.00800           0
     11822 TIP3     636      TIP3     OH2      OT      -0.834000       15.9994           0
     11823 TIP3     636      TIP3     H1       HT       0.417000       1.00800           0
     11824 TIP3     636      TIP3     H2       HT       0.417000       1.00800           0
     11825 TIP3     637      TIP3     OH2      OT      -0.834000       15.9994           0
     11826 TIP3     637      TIP3     H1       HT       0.417000       1.00800           0
     11827 TIP3     637      TIP3     H2       HT       0.417000       1.00800           0
     11828 TIP3     638      TIP3     OH2      OT      -0.834000       15.9994           0
     11829 TIP3     638      TIP3     H1       HT       0.417000       1.00800           0
     11830 TIP3     638      TIP3     H2       HT       0.417000       1.00800           0
     11831 TIP3     639      TIP3     OH2      OT      -0.834000       15.9994           0
     11832 TIP3     639      TIP3     H1       HT       0.417000       1.00800           0
     11833 TIP3     639      TIP3     H2       HT       0.417000       1.00800           0
     11834 TIP3     640      TIP3     OH2      OT      -0.834000       15.9994           0
     11835 TIP3     640      TIP3     H1       HT       0.417000       1.00800           0
     11836 TIP3     640      TIP3     H2       HT       0.417000       1.00800           0
     11837 TIP3     641      TIP3     OH2      OT      -0.834000       15.9994           0
     11838 TIP3     641      TIP3     H1       HT       0.417000       1.00800           0
     11839 TIP3     641      TIP3     H2       HT       0.417000       1.00800           0
     11840 TIP3     642      TIP3     OH2      OT      -0.834000       15.9994           0
     11841 TIP3     642      TIP3     H1       HT       0.417000       1.00800           0
     11842 TIP3     642      TIP3     H2       HT       0.417000       1.00800           0
     11843 TIP3     643      TIP3     OH2      OT      -0.834000       15.9994           0
     11844 TIP3     643      TIP3     H1       HT       0.417000       1.00800           0
     11845 TIP3     643      TIP3     H2       HT       0.417000       1.00800           0
     11846 TIP3     644      TIP3     OH2      OT      -0.834000       15.9994           0
     11847 TIP3     644      TIP3     H1       HT       0.417000       1.00800           0
     11848 TIP3     644      TIP3     H2       HT       0.417000       1.00800           0
     11849 TIP3     645      TIP3     OH2      OT      -0.834000       15.9994           0
     11850 TIP3     645      TIP3     H1       HT       0.417000       1.00800           0
     11851 TIP3     645      TIP3     H2       HT       0.417000       1.00800           0
     11852 TIP3     646      TIP3     OH2      OT      -0.834000       15.9994           0
     11853 TIP3     646      TIP3     H1       HT       0.417000       1.00800           0
     11854 TIP3     646      TIP3     H2       HT       0.417000       1.00800           0
     11855 TIP3     647      TIP3     OH2      OT      -0.834000       15.9994           0
     11856 TIP3     647      TIP3     H1       HT       0.417000       1.00800           0
     11857 TIP3     647      TIP3     H2       HT       0.417000       1.00800           0
     11858 TIP3     648      TIP3     OH2      OT      -0.834000       15.9994           0
     11859 TIP3     648      TIP3     H1       HT       0.417000       1.00800           0
     11860 TIP3     648      TIP3     H2       HT       0.417000       1.00800           0
     11861 TIP3     649      TIP3     OH2      OT      -0.834000       15.9994           0
     11862 TIP3     649      TIP3     H1       HT       0.417000       1.00800           0
     11863 TIP3     649      TIP3     H2       HT       0.417000       1.00800           0
     11864 TIP3     650      TIP3     OH2      OT      -0.834000       15.9994           0
     11865 TIP3     650      TIP3     H1       HT       0.417000       1.00800           0
     11866 TIP3     650      TIP3     H2       HT       0.417000       1.00800           0
     11867 TIP3     651      TIP3     OH2      OT      -0.834000       15.9994           0
     11868 TIP3     651      TIP3     H1       HT       0.417000       1.00800           0
     11869 TIP3     651      TIP3     H2       HT       0.417000       1.00800           0
     11870 TIP3     652      TIP3     OH2      OT      -0.834000       15.9994           0
     11871 TIP3     652      TIP3     H1       HT       0.417000       1.00800           0
     11872 TIP3     652      TIP3     H2       HT       0.417000       1.00800           0
     11873 TIP3     653      TIP3     OH2      OT      -0.834000       15.9994           0
     11874 TIP3     653      TIP3     H1       HT       0.417000       1.00800           0
     11875 TIP3     653      TIP3     H2       HT       0.417000       1.00800           0
     11876 TIP3     654      TIP3     OH2      OT      -0.834000       15.9994           0
     11877 TIP3     654      TIP3     H1       HT       0.417000       1.00800           0
     11878 TIP3     654      TIP3     H2       HT       0.417000       1.00800           0
     11879 TIP3     655      TIP3     OH2      OT      -0.834000       15.9994           0
     11880 TIP3     655      TIP3     H1       HT       0.417000       1.00800           0
     11881 TIP3     655      TIP3     H2       HT       0.417000       1.00800           0
     11882 TIP3     656      TIP3     OH2      OT      -0.834000       15.9994           0
     11883 TIP3     656      TIP3     H1       HT       0.417000       1.00800           0
     11884 TIP3     656      TIP3     H2       HT       0.417000       1.00800           0
     11885 TIP3     657      TIP3     OH2      OT      -0.834000       15.9994           0
     11886 TIP3     657      TIP3     H1       HT       0.417000       1.00800           0
     11887 TIP3     657      TIP3     H2       HT       0.417000       1.00800           0
     11888 TIP3     658      TIP3     OH2      OT      -0.834000       15.9994           0
     11889 TIP3     658      TIP3     H1       HT       0.417000       1.00800           0
     11890 TIP3     658      TIP3     H2       HT       0.417000       1.00800           0
     11891 TIP3     659      TIP3     OH2      OT      -0.834000       15.9994           0
     11892 TIP3     659      TIP3     H1       HT       0.417000       1.00800           0
     11893 TIP3     659      TIP3     H2       HT       0.417000       1.00800           0
     11894 TIP3     660      TIP3     OH2      OT      -0.834000       15.9994           0
     11895 TIP3     660      TIP3     H1       HT       0.417000       1.00800           0
     11896 TIP3     660      TIP3     H2       HT       0.417000       1.00800           0
     11897 TIP3     661      TIP3     OH2      OT      -0.834000       15.9994           0
     11898 TIP3     661      TIP3     H1       HT       0.417000       1.00800           0
     11899 TIP3     661      TIP3     H2       HT       0.417000       1.00800           0
     11900 TIP3     662      TIP3     OH2      OT      -0.834000       15.9994           0
     11901 TIP3     662      TIP3     H1       HT       0.417000       1.00800           0
     11902 TIP3     662      TIP3     H2       HT       0.417000       1.00800           0
     11903 TIP3     663      TIP3     OH2      OT      -0.834000       15.9994           0
     11904 TIP3     663      TIP3     H1       HT       0.417000       1.00800           0
     11905 TIP3     663      TIP3     H2       HT       0.417000       1.00800           0
     11906 TIP3     664      TIP3     OH2      OT      -0.834000       15.9994           0
     11907 TIP3     664      TIP3     H1       HT       0.417000       1.00800           0
     11908 TIP3     664      TIP3     H2       HT       0.417000       1.00800           0
     11909 TIP3     665      TIP3     OH2      OT      -0.834000       15.9994           0
     11910 TIP3     665      TIP3     H1       HT       0.417000       1.00800           0
     11911 TIP3     665      TIP3     H2       HT       0.417000       1.00800           0
     11912 TIP3     666      TIP3     OH2      OT      -0.834000       15.9994           0
     11913 TIP3     666      TIP3     H1       HT       0.417000       1.00800           0
     11914 TIP3     666      TIP3     H2       HT       0.417000       1.00800           0
     11915 TIP3     667      TIP3     OH2      OT      -0.834000       15.9994           0
     11916 TIP3     667      TIP3     H1       HT       0.417000       1.00800           0
     11917 TIP3     667      TIP3     H2       HT       0.417000       1.00800           0
     11918 TIP3     668      TIP3     OH2      OT      -0.834000       15.9994           0
     11919 TIP3     668      TIP3     H1       HT       0.417000       1.00800           0
     11920 TIP3     668      TIP3     H2       HT       0.417000       1.00800           0
     11921 TIP3     669      TIP3     OH2      OT      -0.834000       15.9994           0
     11922 TIP3     669      TIP3     H1       HT       0.417000       1.00800           0
     11923 TIP3     669      TIP3     H2       HT       0.417000       1.00800           0
     11924 TIP3     670      TIP3     OH2      OT      -0.834000       15.9994           0
     11925 TIP3     670      TIP3     H1       HT       0.417000       1.00800           0
     11926 TIP3     670      TIP3     H2       HT       0.417000       1.00800           0
     11927 TIP3     671      TIP3     OH2      OT      -0.834000       15.9994           0
     11928 TIP3     671      TIP3     H1       HT       0.417000       1.00800           0
     11929 TIP3     671      TIP3     H2       HT       0.417000       1.00800           0
     11930 TIP3     672      TIP3     OH2      OT      -0.834000       15.9994           0
     11931 TIP3     672      TIP3     H1       HT       0.417000       1.00800           0
     11932 TIP3     672      TIP3     H2       HT       0.417000       1.00800           0
     11933 TIP3     673      TIP3     OH2      OT      -0.834000       15.9994           0
     11934 TIP3     673      TIP3     H1       HT       0.417000       1.00800           0
     11935 TIP3     673      TIP3     H2       HT       0.417000       1.00800           0
     11936 TIP3     674      TIP3     OH2      OT      -0.834000       15.9994           0
     11937 TIP3     674      TIP3     H1       HT       0.417000       1.00800           0
     11938 TIP3     674      TIP3     H2       HT       0.417000       1.00800           0
     11939 TIP3     675      TIP3     OH2      OT      -0.834000       15.9994           0
     11940 TIP3     675      TIP3     H1       HT       0.417000       1.00800           0
     11941 TIP3     675      TIP3     H2       HT       0.417000       1.00800           0
     11942 TIP3     676      TIP3     OH2      OT      -0.834000       15.9994           0
     11943 TIP3     676      TIP3     H1       HT       0.417000       1.00800           0
     11944 TIP3     676      TIP3     H2       HT       0.417000       1.00800           0
     11945 TIP3     677      TIP3     OH2      OT      -0.834000       15.9994           0
     11946 TIP3     677      TIP3     H1       HT       0.417000       1.00800           0
     11947 TIP3     677      TIP3     H2       HT       0.417000       1.00800           0
     11948 TIP3     678      TIP3     OH2      OT      -0.834000       15.9994           0
     11949 TIP3     678      TIP3     H1       HT       0.417000       1.00800           0
     11950 TIP3     678      TIP3     H2       HT       0.417000       1.00800           0
     11951 TIP3     679      TIP3     OH2      OT      -0.834000       15.9994           0
     11952 TIP3     679      TIP3     H1       HT       0.417000       1.00800           0
     11953 TIP3     679      TIP3     H2       HT       0.417000       1.00800           0
     11954 TIP3     680      TIP3     OH2      OT      -0.834000       15.9994           0
     11955 TIP3     680      TIP3     H1       HT       0.417000       1.00800           0
     11956 TIP3     680      TIP3     H2       HT       0.417000       1.00800           0
     11957 TIP3     681      TIP3     OH2      OT      -0.834000       15.9994           0
     11958 TIP3     681      TIP3     H1       HT       0.417000       1.00800           0
     11959 TIP3     681      TIP3     H2       HT       0.417000       1.00800           0
     11960 TIP3     682      TIP3     OH2      OT      -0.834000       15.9994           0
     11961 TIP3     682      TIP3     H1       HT       0.417000       1.00800           0
     11962 TIP3     682      TIP3     H2       HT       0.417000       1.00800           0
     11963 TIP3     683      TIP3     OH2      OT      -0.834000       15.9994           0
     11964 TIP3     683      TIP3     H1       HT       0.417000       1.00800           0
     11965 TIP3     683      TIP3     H2       HT       0.417000       1.00800           0
     11966 TIP3     684      TIP3     OH2      OT      -0.834000       15.9994           0
     11967 TIP3     684      TIP3     H1       HT       0.417000       1.00800           0
     11968 TIP3     684      TIP3     H2       HT       0.417000       1.00800           0
     11969 TIP3     685      TIP3     OH2      OT      -0.834000       15.9994           0
     11970 TIP3     685      TIP3     H1       HT       0.417000       1.00800           0
     11971 TIP3     685      TIP3     H2       HT       0.417000       1.00800           0
     11972 TIP3     686      TIP3     OH2      OT      -0.834000       15.9994           0
     11973 TIP3     686      TIP3     H1       HT       0.417000       1.00800           0
     11974 TIP3     686      TIP3     H2       HT       0.417000       1.00800           0
     11975 TIP3     687      TIP3     OH2      OT      -0.834000       15.9994           0
     11976 TIP3     687      TIP3     H1       HT       0.417000       1.00800           0
     11977 TIP3     687      TIP3     H2       HT       0.417000       1.00800           0
     11978 TIP3     688      TIP3     OH2      OT      -0.834000       15.9994           0
     11979 TIP3     688      TIP3     H1       HT       0.417000       1.00800           0
     11980 TIP3     688      TIP3     H2       HT       0.417000       1.00800           0
     11981 TIP3     689      TIP3     OH2      OT      -0.834000       15.9994           0
     11982 TIP3     689      TIP3     H1       HT       0.417000       1.00800           0
     11983 TIP3     689      TIP3     H2       HT       0.417000       1.00800           0
     11984 TIP3     690      TIP3     OH2      OT      -0.834000       15.9994           0
     11985 TIP3     690      TIP3     H1       HT       0.417000       1.00800           0
     11986 TIP3     690      TIP3     H2       HT       0.417000       1.00800           0
     11987 TIP3     691      TIP3     OH2      OT      -0.834000       15.9994           0
     11988 TIP3     691      TIP3     H1       HT       0.417000       1.00800           0
     11989 TIP3     691      TIP3     H2       HT       0.417000       1.00800           0
     11990 TIP3     692      TIP3     OH2      OT      -0.834000       15.9994           0
     11991 TIP3     692      TIP3     H1       HT       0.417000       1.00800           0
     11992 TIP3     692      TIP3     H2       HT       0.417000       1.00800           0
     11993 TIP3     693      TIP3     OH2      OT      -0.834000       15.9994           0
     11994 TIP3     693      TIP3     H1       HT       0.417000       1.00800           0
     11995 TIP3     693      TIP3     H2       HT       0.417000       1.00800           0
     11996 TIP3     694      TIP3     OH2      OT      -0.834000       15.9994           0
     11997 TIP3     694      TIP3     H1       HT       0.417000       1.00800           0
     11998 TIP3     694      TIP3     H2       HT       0.417000       1.00800           0
     11999 TIP3     695      TIP3     OH2      OT      -0.834000       15.9994           0
     12000 TIP3     695      TIP3     H1       HT       0.417000       1.00800           0
     12001 TIP3     695      TIP3     H2       HT       0.417000       1.00800           0
     12002 TIP3     696      TIP3     OH2      OT      -0.834000       15.9994           0
     12003 TIP3     696      TIP3     H1       HT       0.417000       1.00800           0
     12004 TIP3     696      TIP3     H2       HT       0.417000       1.00800           0
     12005 TIP3     697      TIP3     OH2      OT      -0.834000       15.9994           0
     12006 TIP3     697      TIP3     H1       HT       0.417000       1.00800           0
     12007 TIP3     697      TIP3     H2       HT       0.417000       1.00800           0
     12008 TIP3     698      TIP3     OH2      OT      -0.834000       15.9994           0
     12009 TIP3     698      TIP3     H1       HT       0.417000       1.00800           0
     12010 TIP3     698      TIP3     H2       HT       0.417000       1.00800           0
     12011 TIP3     699      TIP3     OH2      OT      -0.834000       15.9994           0
     12012 TIP3     699      TIP3     H1       HT       0.417000       1.00800           0
     12013 TIP3     699      TIP3     H2       HT       0.417000       1.00800           0
     12014 TIP3     700      TIP3     OH2      OT      -0.834000       15.9994           0
     12015 TIP3     700      TIP3     H1       HT       0.417000       1.00800           0
     12016 TIP3     700      TIP3     H2       HT       0.417000       1.00800           0
     12017 TIP3     701      TIP3     OH2      OT      -0.834000       15.9994           0
     12018 TIP3     701      TIP3     H1       HT       0.417000       1.00800           0
     12019 TIP3     701      TIP3     H2       HT       0.417000       1.00800           0
     12020 TIP3     702      TIP3     OH2      OT      -0.834000       15.9994           0
     12021 TIP3     702      TIP3     H1       HT       0.417000       1.00800           0
     12022 TIP3     702      TIP3     H2       HT       0.417000       1.00800           0
     12023 TIP3     703      TIP3     OH2      OT      -0.834000       15.9994           0
     12024 TIP3     703      TIP3     H1       HT       0.417000       1.00800           0
     12025 TIP3     703      TIP3     H2       HT       0.417000       1.00800           0
     12026 TIP3     704      TIP3     OH2      OT      -0.834000       15.9994           0
     12027 TIP3     704      TIP3     H1       HT       0.417000       1.00800           0
     12028 TIP3     704      TIP3     H2       HT       0.417000       1.00800           0
     12029 TIP3     705      TIP3     OH2      OT      -0.834000       15.9994           0
     12030 TIP3     705      TIP3     H1       HT       0.417000       1.00800           0
     12031 TIP3     705      TIP3     H2       HT       0.417000       1.00800           0
     12032 TIP3     706      TIP3     OH2      OT      -0.834000       15.9994           0
     12033 TIP3     706      TIP3     H1       HT       0.417000       1.00800           0
     12034 TIP3     706      TIP3     H2       HT       0.417000       1.00800           0
     12035 TIP3     707      TIP3     OH2      OT      -0.834000       15.9994           0
     12036 TIP3     707      TIP3     H1       HT       0.417000       1.00800           0
     12037 TIP3     707      TIP3     H2       HT       0.417000       1.00800           0
     12038 TIP3     708      TIP3     OH2      OT      -0.834000       15.9994           0
     12039 TIP3     708      TIP3     H1       HT       0.417000       1.00800           0
     12040 TIP3     708      TIP3     H2       HT       0.417000       1.00800           0
     12041 TIP3     709      TIP3     OH2      OT      -0.834000       15.9994           0
     12042 TIP3     709      TIP3     H1       HT       0.417000       1.00800           0
     12043 TIP3     709      TIP3     H2       HT       0.417000       1.00800           0
     12044 TIP3     710      TIP3     OH2      OT      -0.834000       15.9994           0
     12045 TIP3     710      TIP3     H1       HT       0.417000       1.00800           0
     12046 TIP3     710      TIP3     H2       HT       0.417000       1.00800           0
     12047 TIP3     711      TIP3     OH2      OT      -0.834000       15.9994           0
     12048 TIP3     711      TIP3     H1       HT       0.417000       1.00800           0
     12049 TIP3     711      TIP3     H2       HT       0.417000       1.00800           0
     12050 TIP3     712      TIP3     OH2      OT      -0.834000       15.9994           0
     12051 TIP3     712      TIP3     H1       HT       0.417000       1.00800           0
     12052 TIP3     712      TIP3     H2       HT       0.417000       1.00800           0
     12053 TIP3     713      TIP3     OH2      OT      -0.834000       15.9994           0
     12054 TIP3     713      TIP3     H1       HT       0.417000       1.00800           0
     12055 TIP3     713      TIP3     H2       HT       0.417000       1.00800           0
     12056 TIP3     714      TIP3     OH2      OT      -0.834000       15.9994           0
     12057 TIP3     714      TIP3     H1       HT       0.417000       1.00800           0
     12058 TIP3     714      TIP3     H2       HT       0.417000       1.00800           0
     12059 TIP3     715      TIP3     OH2      OT      -0.834000       15.9994           0
     12060 TIP3     715      TIP3     H1       HT       0.417000       1.00800           0
     12061 TIP3     715      TIP3     H2       HT       0.417000       1.00800           0
     12062 TIP3     716      TIP3     OH2      OT      -0.834000       15.9994           0
     12063 TIP3     716      TIP3     H1       HT       0.417000       1.00800           0
     12064 TIP3     716      TIP3     H2       HT       0.417000       1.00800           0
     12065 TIP3     717      TIP3     OH2      OT      -0.834000       15.9994           0
     12066 TIP3     717      TIP3     H1       HT       0.417000       1.00800           0
     12067 TIP3     717      TIP3     H2       HT       0.417000       1.00800           0
     12068 TIP3     718      TIP3     OH2      OT      -0.834000       15.9994           0
     12069 TIP3     718      TIP3     H1       HT       0.417000       1.00800           0
     12070 TIP3     718      TIP3     H2       HT       0.417000       1.00800           0
     12071 TIP3     719      TIP3     OH2      OT      -0.834000       15.9994           0
     12072 TIP3     719      TIP3     H1       HT       0.417000       1.00800           0
     12073 TIP3     719      TIP3     H2       HT       0.417000       1.00800           0
     12074 TIP3     720      TIP3     OH2      OT      -0.834000       15.9994           0
     12075 TIP3     720      TIP3     H1       HT       0.417000       1.00800           0
     12076 TIP3     720      TIP3     H2       HT       0.417000       1.00800           0
     12077 TIP3     721      TIP3     OH2      OT      -0.834000       15.9994           0
     12078 TIP3     721      TIP3     H1       HT       0.417000       1.00800           0
     12079 TIP3     721      TIP3     H2       HT       0.417000       1.00800           0
     12080 TIP3     722      TIP3     OH2      OT      -0.834000       15.9994           0
     12081 TIP3     722      TIP3     H1       HT       0.417000       1.00800           0
     12082 TIP3     722      TIP3     H2       HT       0.417000       1.00800           0
     12083 TIP3     723      TIP3     OH2      OT      -0.834000       15.9994           0
     12084 TIP3     723      TIP3     H1       HT       0.417000       1.00800           0
     12085 TIP3     723      TIP3     H2       HT       0.417000       1.00800           0
     12086 TIP3     724      TIP3     OH2      OT      -0.834000       15.9994           0
     12087 TIP3     724      TIP3     H1       HT       0.417000       1.00800           0
     12088 TIP3     724      TIP3     H2       HT       0.417000       1.00800           0
     12089 TIP3     725      TIP3     OH2      OT      -0.834000       15.9994           0
     12090 TIP3     725      TIP3     H1       HT       0.417000       1.00800           0
     12091 TIP3     725      TIP3     H2       HT       0.417000       1.00800           0
     12092 TIP3     726      TIP3     OH2      OT      -0.834000       15.9994           0
     12093 TIP3     726      TIP3     H1       HT       0.417000       1.00800           0
     12094 TIP3     726      TIP3     H2       HT       0.417000       1.00800           0
     12095 TIP3     727      TIP3     OH2      OT      -0.834000       15.9994           0
     12096 TIP3     727      TIP3     H1       HT       0.417000       1.00800           0
     12097 TIP3     727      TIP3     H2       HT       0.417000       1.00800           0
     12098 TIP3     728      TIP3     OH2      OT      -0.834000       15.9994           0
     12099 TIP3     728      TIP3     H1       HT       0.417000       1.00800           0
     12100 TIP3     728      TIP3     H2       HT       0.417000       1.00800           0
     12101 TIP3     729      TIP3     OH2      OT      -0.834000       15.9994           0
     12102 TIP3     729      TIP3     H1       HT       0.417000       1.00800           0
     12103 TIP3     729      TIP3     H2       HT       0.417000       1.00800           0
     12104 TIP3     730      TIP3     OH2      OT      -0.834000       15.9994           0
     12105 TIP3     730      TIP3     H1       HT       0.417000       1.00800           0
     12106 TIP3     730      TIP3     H2       HT       0.417000       1.00800           0
     12107 TIP3     731      TIP3     OH2      OT      -0.834000       15.9994           0
     12108 TIP3     731      TIP3     H1       HT       0.417000       1.00800           0
     12109 TIP3     731      TIP3     H2       HT       0.417000       1.00800           0
     12110 TIP3     732      TIP3     OH2      OT      -0.834000       15.9994           0
     12111 TIP3     732      TIP3     H1       HT       0.417000       1.00800           0
     12112 TIP3     732      TIP3     H2       HT       0.417000       1.00800           0
     12113 TIP3     733      TIP3     OH2      OT      -0.834000       15.9994           0
     12114 TIP3     733      TIP3     H1       HT       0.417000       1.00800           0
     12115 TIP3     733      TIP3     H2       HT       0.417000       1.00800           0
     12116 TIP3     734      TIP3     OH2      OT      -0.834000       15.9994           0
     12117 TIP3     734      TIP3     H1       HT       0.417000       1.00800           0
     12118 TIP3     734      TIP3     H2       HT       0.417000       1.00800           0
     12119 TIP3     735      TIP3     OH2      OT      -0.834000       15.9994           0
     12120 TIP3     735      TIP3     H1       HT       0.417000       1.00800           0
     12121 TIP3     735      TIP3     H2       HT       0.417000       1.00800           0
     12122 TIP3     736      TIP3     OH2      OT      -0.834000       15.9994           0
     12123 TIP3     736      TIP3     H1       HT       0.417000       1.00800           0
     12124 TIP3     736      TIP3     H2       HT       0.417000       1.00800           0
     12125 TIP3     737      TIP3     OH2      OT      -0.834000       15.9994           0
     12126 TIP3     737      TIP3     H1       HT       0.417000       1.00800           0
     12127 TIP3     737      TIP3     H2       HT       0.417000       1.00800           0
     12128 TIP3     738      TIP3     OH2      OT      -0.834000       15.9994           0
     12129 TIP3     738      TIP3     H1       HT       0.417000       1.00800           0
     12130 TIP3     738      TIP3     H2       HT       0.417000       1.00800           0
     12131 TIP3     739      TIP3     OH2      OT      -0.834000       15.9994           0
     12132 TIP3     739      TIP3     H1       HT       0.417000       1.00800           0
     12133 TIP3     739      TIP3     H2       HT       0.417000       1.00800           0
     12134 TIP3     740      TIP3     OH2      OT      -0.834000       15.9994           0
     12135 TIP3     740      TIP3     H1       HT       0.417000       1.00800           0
     12136 TIP3     740      TIP3     H2       HT       0.417000       1.00800           0
     12137 TIP3     741      TIP3     OH2      OT      -0.834000       15.9994           0
     12138 TIP3     741      TIP3     H1       HT       0.417000       1.00800           0
     12139 TIP3     741      TIP3     H2       HT       0.417000       1.00800           0
     12140 TIP3     742      TIP3     OH2      OT      -0.834000       15.9994           0
     12141 TIP3     742      TIP3     H1       HT       0.417000       1.00800           0
     12142 TIP3     742      TIP3     H2       HT       0.417000       1.00800           0
     12143 TIP3     743      TIP3     OH2      OT      -0.834000       15.9994           0
     12144 TIP3     743      TIP3     H1       HT       0.417000       1.00800           0
     12145 TIP3     743      TIP3     H2       HT       0.417000       1.00800           0
     12146 TIP3     744      TIP3     OH2      OT      -0.834000       15.9994           0
     12147 TIP3     744      TIP3     H1       HT       0.417000       1.00800           0
     12148 TIP3     744      TIP3     H2       HT       0.417000       1.00800           0
     12149 TIP3     745      TIP3     OH2      OT      -0.834000       15.9994           0
     12150 TIP3     745      TIP3     H1       HT       0.417000       1.00800           0
     12151 TIP3     745      TIP3     H2       HT       0.417000       1.00800           0
     12152 TIP3     746      TIP3     OH2      OT      -0.834000       15.9994           0
     12153 TIP3     746      TIP3     H1       HT       0.417000       1.00800           0
     12154 TIP3     746      TIP3     H2       HT       0.417000       1.00800           0
     12155 TIP3     747      TIP3     OH2      OT      -0.834000       15.9994           0
     12156 TIP3     747      TIP3     H1       HT       0.417000       1.00800           0
     12157 TIP3     747      TIP3     H2       HT       0.417000       1.00800           0
     12158 TIP3     748      TIP3     OH2      OT      -0.834000       15.9994           0
     12159 TIP3     748      TIP3     H1       HT       0.417000       1.00800           0
     12160 TIP3     748      TIP3     H2       HT       0.417000       1.00800           0
     12161 TIP3     749      TIP3     OH2      OT      -0.834000       15.9994           0
     12162 TIP3     749      TIP3     H1       HT       0.417000       1.00800           0
     12163 TIP3     749      TIP3     H2       HT       0.417000       1.00800           0
     12164 TIP3     750      TIP3     OH2      OT      -0.834000       15.9994           0
     12165 TIP3     750      TIP3     H1       HT       0.417000       1.00800           0
     12166 TIP3     750      TIP3     H2       HT       0.417000       1.00800           0
     12167 TIP3     751      TIP3     OH2      OT      -0.834000       15.9994           0
     12168 TIP3     751      TIP3     H1       HT       0.417000       1.00800           0
     12169 TIP3     751      TIP3     H2       HT       0.417000       1.00800           0
     12170 TIP3     752      TIP3     OH2      OT      -0.834000       15.9994           0
     12171 TIP3     752      TIP3     H1       HT       0.417000       1.00800           0
     12172 TIP3     752      TIP3     H2       HT       0.417000       1.00800           0
     12173 TIP3     753      TIP3     OH2      OT      -0.834000       15.9994           0
     12174 TIP3     753      TIP3     H1       HT       0.417000       1.00800           0
     12175 TIP3     753      TIP3     H2       HT       0.417000       1.00800           0
     12176 TIP3     754      TIP3     OH2      OT      -0.834000       15.9994           0
     12177 TIP3     754      TIP3     H1       HT       0.417000       1.00800           0
     12178 TIP3     754      TIP3     H2       HT       0.417000       1.00800           0
     12179 TIP3     755      TIP3     OH2      OT      -0.834000       15.9994           0
     12180 TIP3     755      TIP3     H1       HT       0.417000       1.00800           0
     12181 TIP3     755      TIP3     H2       HT       0.417000       1.00800           0
     12182 TIP3     756      TIP3     OH2      OT      -0.834000       15.9994           0
     12183 TIP3     756      TIP3     H1       HT       0.417000       1.00800           0
     12184 TIP3     756      TIP3     H2       HT       0.417000       1.00800           0
     12185 TIP3     757      TIP3     OH2      OT      -0.834000       15.9994           0
     12186 TIP3     757      TIP3     H1       HT       0.417000       1.00800           0
     12187 TIP3     757      TIP3     H2       HT       0.417000       1.00800           0
     12188 TIP3     758      TIP3     OH2      OT      -0.834000       15.9994           0
     12189 TIP3     758      TIP3     H1       HT       0.417000       1.00800           0
     12190 TIP3     758      TIP3     H2       HT       0.417000       1.00800           0
     12191 TIP3     759      TIP3     OH2      OT      -0.834000       15.9994           0
     12192 TIP3     759      TIP3     H1       HT       0.417000       1.00800           0
     12193 TIP3     759      TIP3     H2       HT       0.417000       1.00800           0
     12194 TIP3     760      TIP3     OH2      OT      -0.834000       15.9994           0
     12195 TIP3     760      TIP3     H1       HT       0.417000       1.00800           0
     12196 TIP3     760      TIP3     H2       HT       0.417000       1.00800           0
     12197 TIP3     761      TIP3     OH2      OT      -0.834000       15.9994           0
     12198 TIP3     761      TIP3     H1       HT       0.417000       1.00800           0
     12199 TIP3     761      TIP3     H2       HT       0.417000       1.00800           0
     12200 TIP3     762      TIP3     OH2      OT      -0.834000       15.9994           0
     12201 TIP3     762      TIP3     H1       HT       0.417000       1.00800           0
     12202 TIP3     762      TIP3     H2       HT       0.417000       1.00800           0
     12203 TIP3     763      TIP3     OH2      OT      -0.834000       15.9994           0
     12204 TIP3     763      TIP3     H1       HT       0.417000       1.00800           0
     12205 TIP3     763      TIP3     H2       HT       0.417000       1.00800           0
     12206 TIP3     764      TIP3     OH2      OT      -0.834000       15.9994           0
     12207 TIP3     764      TIP3     H1       HT       0.417000       1.00800           0
     12208 TIP3     764      TIP3     H2       HT       0.417000       1.00800           0
     12209 TIP3     765      TIP3     OH2      OT      -0.834000       15.9994           0
     12210 TIP3     765      TIP3     H1       HT       0.417000       1.00800           0
     12211 TIP3     765      TIP3     H2       HT       0.417000       1.00800           0
     12212 TIP3     766      TIP3     OH2      OT      -0.834000       15.9994           0
     12213 TIP3     766      TIP3     H1       HT       0.417000       1.00800           0
     12214 TIP3     766      TIP3     H2       HT       0.417000       1.00800           0
     12215 TIP3     767      TIP3     OH2      OT      -0.834000       15.9994           0
     12216 TIP3     767      TIP3     H1       HT       0.417000       1.00800           0
     12217 TIP3     767      TIP3     H2       HT       0.417000       1.00800           0
     12218 TIP3     768      TIP3     OH2      OT      -0.834000       15.9994           0
     12219 TIP3     768      TIP3     H1       HT       0.417000       1.00800           0
     12220 TIP3     768      TIP3     H2       HT       0.417000       1.00800           0
     12221 TIP3     769      TIP3     OH2      OT      -0.834000       15.9994           0
     12222 TIP3     769      TIP3     H1       HT       0.417000       1.00800           0
     12223 TIP3     769      TIP3     H2       HT       0.417000       1.00800           0
     12224 TIP3     770      TIP3     OH2      OT      -0.834000       15.9994           0
     12225 TIP3     770      TIP3     H1       HT       0.417000       1.00800           0
     12226 TIP3     770      TIP3     H2       HT       0.417000       1.00800           0
     12227 TIP3     771      TIP3     OH2      OT      -0.834000       15.9994           0
     12228 TIP3     771      TIP3     H1       HT       0.417000       1.00800           0
     12229 TIP3     771      TIP3     H2       HT       0.417000       1.00800           0
     12230 TIP3     772      TIP3     OH2      OT      -0.834000       15.9994           0
     12231 TIP3     772      TIP3     H1       HT       0.417000       1.00800           0
     12232 TIP3     772      TIP3     H2       HT       0.417000       1.00800           0
     12233 TIP3     773      TIP3     OH2      OT      -0.834000       15.9994           0
     12234 TIP3     773      TIP3     H1       HT       0.417000       1.00800           0
     12235 TIP3     773      TIP3     H2       HT       0.417000       1.00800           0
     12236 TIP3     774      TIP3     OH2      OT      -0.834000       15.9994           0
     12237 TIP3     774      TIP3     H1       HT       0.417000       1.00800           0
     12238 TIP3     774      TIP3     H2       HT       0.417000       1.00800           0
     12239 TIP3     775      TIP3     OH2      OT      -0.834000       15.9994           0
     12240 TIP3     775      TIP3     H1       HT       0.417000       1.00800           0
     12241 TIP3     775      TIP3     H2       HT       0.417000       1.00800           0
     12242 TIP3     776      TIP3     OH2      OT      -0.834000       15.9994           0
     12243 TIP3     776      TIP3     H1       HT       0.417000       1.00800           0
     12244 TIP3     776      TIP3     H2       HT       0.417000       1.00800           0
     12245 TIP3     777      TIP3     OH2      OT      -0.834000       15.9994           0
     12246 TIP3     777      TIP3     H1       HT       0.417000       1.00800           0
     12247 TIP3     777      TIP3     H2       HT       0.417000       1.00800           0
     12248 TIP3     778      TIP3     OH2      OT      -0.834000       15.9994           0
     12249 TIP3     778      TIP3     H1       HT       0.417000       1.00800           0
     12250 TIP3     778      TIP3     H2       HT       0.417000       1.00800           0
     12251 TIP3     779      TIP3     OH2      OT      -0.834000       15.9994           0
     12252 TIP3     779      TIP3     H1       HT       0.417000       1.00800           0
     12253 TIP3     779      TIP3     H2       HT       0.417000       1.00800           0
     12254 TIP3     780      TIP3     OH2      OT      -0.834000       15.9994           0
     12255 TIP3     780      TIP3     H1       HT       0.417000       1.00800           0
     12256 TIP3     780      TIP3     H2       HT       0.417000       1.00800           0
     12257 TIP3     781      TIP3     OH2      OT      -0.834000       15.9994           0
     12258 TIP3     781      TIP3     H1       HT       0.417000       1.00800           0
     12259 TIP3     781      TIP3     H2       HT       0.417000       1.00800           0
     12260 TIP3     782      TIP3     OH2      OT      -0.834000       15.9994           0
     12261 TIP3     782      TIP3     H1       HT       0.417000       1.00800           0
     12262 TIP3     782      TIP3     H2       HT       0.417000       1.00800           0
     12263 TIP3     783      TIP3     OH2      OT      -0.834000       15.9994           0
     12264 TIP3     783      TIP3     H1       HT       0.417000       1.00800           0
     12265 TIP3     783      TIP3     H2       HT       0.417000       1.00800           0
     12266 TIP3     784      TIP3     OH2      OT      -0.834000       15.9994           0
     12267 TIP3     784      TIP3     H1       HT       0.417000       1.00800           0
     12268 TIP3     784      TIP3     H2       HT       0.417000       1.00800           0
     12269 TIP3     785      TIP3     OH2      OT      -0.834000       15.9994           0
     12270 TIP3     785      TIP3     H1       HT       0.417000       1.00800           0
     12271 TIP3     785      TIP3     H2       HT       0.417000       1.00800           0
     12272 TIP3     786      TIP3     OH2      OT      -0.834000       15.9994           0
     12273 TIP3     786      TIP3     H1       HT       0.417000       1.00800           0
     12274 TIP3     786      TIP3     H2       HT       0.417000       1.00800           0
     12275 TIP3     787      TIP3     OH2      OT      -0.834000       15.9994           0
     12276 TIP3     787      TIP3     H1       HT       0.417000       1.00800           0
     12277 TIP3     787      TIP3     H2       HT       0.417000       1.00800           0
     12278 TIP3     788      TIP3     OH2      OT      -0.834000       15.9994           0
     12279 TIP3     788      TIP3     H1       HT       0.417000       1.00800           0
     12280 TIP3     788      TIP3     H2       HT       0.417000       1.00800           0
     12281 TIP3     789      TIP3     OH2      OT      -0.834000       15.9994           0
     12282 TIP3     789      TIP3     H1       HT       0.417000       1.00800           0
     12283 TIP3     789      TIP3     H2       HT       0.417000       1.00800           0
     12284 TIP3     790      TIP3     OH2      OT      -0.834000       15.9994           0
     12285 TIP3     790      TIP3     H1       HT       0.417000       1.00800           0
     12286 TIP3     790      TIP3     H2       HT       0.417000       1.00800           0
     12287 TIP3     791      TIP3     OH2      OT      -0.834000       15.9994           0
     12288 TIP3     791      TIP3     H1       HT       0.417000       1.00800           0
     12289 TIP3     791      TIP3     H2       HT       0.417000       1.00800           0
     12290 TIP3     792      TIP3     OH2      OT      -0.834000       15.9994           0
     12291 TIP3     792      TIP3     H1       HT       0.417000       1.00800           0
     12292 TIP3     792      TIP3     H2       HT       0.417000       1.00800           0
     12293 TIP3     793      TIP3     OH2      OT      -0.834000       15.9994           0
     12294 TIP3     793      TIP3     H1       HT       0.417000       1.00800           0
     12295 TIP3     793      TIP3     H2       HT       0.417000       1.00800           0
     12296 TIP3     794      TIP3     OH2      OT      -0.834000       15.9994           0
     12297 TIP3     794      TIP3     H1       HT       0.417000       1.00800           0
     12298 TIP3     794      TIP3     H2       HT       0.417000       1.00800           0
     12299 TIP3     795      TIP3     OH2      OT      -0.834000       15.9994           0
     12300 TIP3     795      TIP3     H1       HT       0.417000       1.00800           0
     12301 TIP3     795      TIP3     H2       HT       0.417000       1.00800           0
     12302 TIP3     796      TIP3     OH2      OT      -0.834000       15.9994           0
     12303 TIP3     796      TIP3     H1       HT       0.417000       1.00800           0
     12304 TIP3     796      TIP3     H2       HT       0.417000       1.00800           0
     12305 TIP3     797      TIP3     OH2      OT      -0.834000       15.9994           0
     12306 TIP3     797      TIP3     H1       HT       0.417000       1.00800           0
     12307 TIP3     797      TIP3     H2       HT       0.417000       1.00800           0
     12308 TIP3     798      TIP3     OH2      OT      -0.834000       15.9994           0
     12309 TIP3     798      TIP3     H1       HT       0.417000       1.00800           0
     12310 TIP3     798      TIP3     H2       HT       0.417000       1.00800           0
     12311 TIP3     799      TIP3     OH2      OT      -0.834000       15.9994           0
     12312 TIP3     799      TIP3     H1       HT       0.417000       1.00800           0
     12313 TIP3     799      TIP3     H2       HT       0.417000       1.00800           0
     12314 TIP3     800      TIP3     OH2      OT      -0.834000       15.9994           0
     12315 TIP3     800      TIP3     H1       HT       0.417000       1.00800           0
     12316 TIP3     800      TIP3     H2       HT       0.417000       1.00800           0
     12317 TIP3     801      TIP3     OH2      OT      -0.834000       15.9994           0
     12318 TIP3     801      TIP3     H1       HT       0.417000       1.00800           0
     12319 TIP3     801      TIP3     H2       HT       0.417000       1.00800           0
     12320 TIP3     802      TIP3     OH2      OT      -0.834000       15.9994           0
     12321 TIP3     802      TIP3     H1       HT       0.417000       1.00800           0
     12322 TIP3     802      TIP3     H2       HT       0.417000       1.00800           0
     12323 TIP3     803      TIP3     OH2      OT      -0.834000       15.9994           0
     12324 TIP3     803      TIP3     H1       HT       0.417000       1.00800           0
     12325 TIP3     803      TIP3     H2       HT       0.417000       1.00800           0
     12326 TIP3     804      TIP3     OH2      OT      -0.834000       15.9994           0
     12327 TIP3     804      TIP3     H1       HT       0.417000       1.00800           0
     12328 TIP3     804      TIP3     H2       HT       0.417000       1.00800           0
     12329 TIP3     805      TIP3     OH2      OT      -0.834000       15.9994           0
     12330 TIP3     805      TIP3     H1       HT       0.417000       1.00800           0
     12331 TIP3     805      TIP3     H2       HT       0.417000       1.00800           0
     12332 TIP3     806      TIP3     OH2      OT      -0.834000       15.9994           0
     12333 TIP3     806      TIP3     H1       HT       0.417000       1.00800           0
     12334 TIP3     806      TIP3     H2       HT       0.417000       1.00800           0
     12335 TIP3     807      TIP3     OH2      OT      -0.834000       15.9994           0
     12336 TIP3     807      TIP3     H1       HT       0.417000       1.00800           0
     12337 TIP3     807      TIP3     H2       HT       0.417000       1.00800           0
     12338 TIP3     808      TIP3     OH2      OT      -0.834000       15.9994           0
     12339 TIP3     808      TIP3     H1       HT       0.417000       1.00800           0
     12340 TIP3     808      TIP3     H2       HT       0.417000       1.00800           0
     12341 TIP3     809      TIP3     OH2      OT      -0.834000       15.9994           0
     12342 TIP3     809      TIP3     H1       HT       0.417000       1.00800           0
     12343 TIP3     809      TIP3     H2       HT       0.417000       1.00800           0
     12344 TIP3     810      TIP3     OH2      OT      -0.834000       15.9994           0
     12345 TIP3     810      TIP3     H1       HT       0.417000       1.00800           0
     12346 TIP3     810      TIP3     H2       HT       0.417000       1.00800           0
     12347 TIP3     811      TIP3     OH2      OT      -0.834000       15.9994           0
     12348 TIP3     811      TIP3     H1       HT       0.417000       1.00800           0
     12349 TIP3     811      TIP3     H2       HT       0.417000       1.00800           0
     12350 TIP3     812      TIP3     OH2      OT      -0.834000       15.9994           0
     12351 TIP3     812      TIP3     H1       HT       0.417000       1.00800           0
     12352 TIP3     812      TIP3     H2       HT       0.417000       1.00800           0
     12353 TIP3     813      TIP3     OH2      OT      -0.834000       15.9994           0
     12354 TIP3     813      TIP3     H1       HT       0.417000       1.00800           0
     12355 TIP3     813      TIP3     H2       HT       0.417000       1.00800           0
     12356 TIP3     814      TIP3     OH2      OT      -0.834000       15.9994           0
     12357 TIP3     814      TIP3     H1       HT       0.417000       1.00800           0
     12358 TIP3     814      TIP3     H2       HT       0.417000       1.00800           0
     12359 TIP3     815      TIP3     OH2      OT      -0.834000       15.9994           0
     12360 TIP3     815      TIP3     H1       HT       0.417000       1.00800           0
     12361 TIP3     815      TIP3     H2       HT       0.417000       1.00800           0
     12362 TIP3     816      TIP3     OH2      OT      -0.834000       15.9994           0
     12363 TIP3     816      TIP3     H1       HT       0.417000       1.00800           0
     12364 TIP3     816      TIP3     H2       HT       0.417000       1.00800           0
     12365 TIP3     817      TIP3     OH2      OT      -0.834000       15.9994           0
     12366 TIP3     817      TIP3     H1       HT       0.417000       1.00800           0
     12367 TIP3     817      TIP3     H2       HT       0.417000       1.00800           0
     12368 TIP3     818      TIP3     OH2      OT      -0.834000       15.9994           0
     12369 TIP3     818      TIP3     H1       HT       0.417000       1.00800           0
     12370 TIP3     818      TIP3     H2       HT       0.417000       1.00800           0
     12371 TIP3     819      TIP3     OH2      OT      -0.834000       15.9994           0
     12372 TIP3     819      TIP3     H1       HT       0.417000       1.00800           0
     12373 TIP3     819      TIP3     H2       HT       0.417000       1.00800           0
     12374 TIP3     820      TIP3     OH2      OT      -0.834000       15.9994           0
     12375 TIP3     820      TIP3     H1       HT       0.417000       1.00800           0
     12376 TIP3     820      TIP3     H2       HT       0.417000       1.00800           0
     12377 TIP3     821      TIP3     OH2      OT      -0.834000       15.9994           0
     12378 TIP3     821      TIP3     H1       HT       0.417000       1.00800           0
     12379 TIP3     821      TIP3     H2       HT       0.417000       1.00800           0
     12380 TIP3     822      TIP3     OH2      OT      -0.834000       15.9994           0
     12381 TIP3     822      TIP3     H1       HT       0.417000       1.00800           0
     12382 TIP3     822      TIP3     H2       HT       0.417000       1.00800           0
     12383 TIP3     823      TIP3     OH2      OT      -0.834000       15.9994           0
     12384 TIP3     823      TIP3     H1       HT       0.417000       1.00800           0
     12385 TIP3     823      TIP3     H2       HT       0.417000       1.00800           0
     12386 TIP3     824      TIP3     OH2      OT      -0.834000       15.9994           0
     12387 TIP3     824      TIP3     H1       HT       0.417000       1.00800           0
     12388 TIP3     824      TIP3     H2       HT       0.417000       1.00800           0
     12389 TIP3     825      TIP3     OH2      OT      -0.834000       15.9994           0
     12390 TIP3     825      TIP3     H1       HT       0.417000       1.00800           0
     12391 TIP3     825      TIP3     H2       HT       0.417000       1.00800           0
     12392 TIP3     826      TIP3     OH2      OT      -0.834000       15.9994           0
     12393 TIP3     826      TIP3     H1       HT       0.417000       1.00800           0
     12394 TIP3     826      TIP3     H2       HT       0.417000       1.00800           0
     12395 TIP3     827      TIP3     OH2      OT      -0.834000       15.9994           0
     12396 TIP3     827      TIP3     H1       HT       0.417000       1.00800           0
     12397 TIP3     827      TIP3     H2       HT       0.417000       1.00800           0
     12398 TIP3     828      TIP3     OH2      OT      -0.834000       15.9994           0
     12399 TIP3     828      TIP3     H1       HT       0.417000       1.00800           0
     12400 TIP3     828      TIP3     H2       HT       0.417000       1.00800           0
     12401 TIP3     829      TIP3     OH2      OT      -0.834000       15.9994           0
     12402 TIP3     829      TIP3     H1       HT       0.417000       1.00800           0
     12403 TIP3     829      TIP3     H2       HT       0.417000       1.00800           0
     12404 TIP3     830      TIP3     OH2      OT      -0.834000       15.9994           0
     12405 TIP3     830      TIP3     H1       HT       0.417000       1.00800           0
     12406 TIP3     830      TIP3     H2       HT       0.417000       1.00800           0
     12407 TIP3     831      TIP3     OH2      OT      -0.834000       15.9994           0
     12408 TIP3     831      TIP3     H1       HT       0.417000       1.00800           0
     12409 TIP3     831      TIP3     H2       HT       0.417000       1.00800           0
     12410 TIP3     832      TIP3     OH2      OT      -0.834000       15.9994           0
     12411 TIP3     832      TIP3     H1       HT       0.417000       1.00800           0
     12412 TIP3     832      TIP3     H2       HT       0.417000       1.00800           0
     12413 TIP3     833      TIP3     OH2      OT      -0.834000       15.9994           0
     12414 TIP3     833      TIP3     H1       HT       0.417000       1.00800           0
     12415 TIP3     833      TIP3     H2       HT       0.417000       1.00800           0
     12416 TIP3     834      TIP3     OH2      OT      -0.834000       15.9994           0
     12417 TIP3     834      TIP3     H1       HT       0.417000       1.00800           0
     12418 TIP3     834      TIP3     H2       HT       0.417000       1.00800           0
     12419 TIP3     835      TIP3     OH2      OT      -0.834000       15.9994           0
     12420 TIP3     835      TIP3     H1       HT       0.417000       1.00800           0
     12421 TIP3     835      TIP3     H2       HT       0.417000       1.00800           0
     12422 TIP3     836      TIP3     OH2      OT      -0.834000       15.9994           0
     12423 TIP3     836      TIP3     H1       HT       0.417000       1.00800           0
     12424 TIP3     836      TIP3     H2       HT       0.417000       1.00800           0
     12425 TIP3     837      TIP3     OH2      OT      -0.834000       15.9994           0
     12426 TIP3     837      TIP3     H1       HT       0.417000       1.00800           0
     12427 TIP3     837      TIP3     H2       HT       0.417000       1.00800           0
     12428 TIP3     838      TIP3     OH2      OT      -0.834000       15.9994           0
     12429 TIP3     838      TIP3     H1       HT       0.417000       1.00800           0
     12430 TIP3     838      TIP3     H2       HT       0.417000       1.00800           0
     12431 TIP3     839      TIP3     OH2      OT      -0.834000       15.9994           0
     12432 TIP3     839      TIP3     H1       HT       0.417000       1.00800           0
     12433 TIP3     839      TIP3     H2       HT       0.417000       1.00800           0
     12434 TIP3     840      TIP3     OH2      OT      -0.834000       15.9994           0
     12435 TIP3     840      TIP3     H1       HT       0.417000       1.00800           0
     12436 TIP3     840      TIP3     H2       HT       0.417000       1.00800           0
     12437 TIP3     841      TIP3     OH2      OT      -0.834000       15.9994           0
     12438 TIP3     841      TIP3     H1       HT       0.417000       1.00800           0
     12439 TIP3     841      TIP3     H2       HT       0.417000       1.00800           0
     12440 TIP3     842      TIP3     OH2      OT      -0.834000       15.9994           0
     12441 TIP3     842      TIP3     H1       HT       0.417000       1.00800           0
     12442 TIP3     842      TIP3     H2       HT       0.417000       1.00800           0
     12443 TIP3     843      TIP3     OH2      OT      -0.834000       15.9994           0
     12444 TIP3     843      TIP3     H1       HT       0.417000       1.00800           0
     12445 TIP3     843      TIP3     H2       HT       0.417000       1.00800           0
     12446 TIP3     844      TIP3     OH2      OT      -0.834000       15.9994           0
     12447 TIP3     844      TIP3     H1       HT       0.417000       1.00800           0
     12448 TIP3     844      TIP3     H2       HT       0.417000       1.00800           0
     12449 TIP3     845      TIP3     OH2      OT      -0.834000       15.9994           0
     12450 TIP3     845      TIP3     H1       HT       0.417000       1.00800           0
     12451 TIP3     845      TIP3     H2       HT       0.417000       1.00800           0
     12452 TIP3     846      TIP3     OH2      OT      -0.834000       15.9994           0
     12453 TIP3     846      TIP3     H1       HT       0.417000       1.00800           0
     12454 TIP3     846      TIP3     H2       HT       0.417000       1.00800           0
     12455 TIP3     847      TIP3     OH2      OT      -0.834000       15.9994           0
     12456 TIP3     847      TIP3     H1       HT       0.417000       1.00800           0
     12457 TIP3     847      TIP3     H2       HT       0.417000       1.00800           0
     12458 TIP3     848      TIP3     OH2      OT      -0.834000       15.9994           0
     12459 TIP3     848      TIP3     H1       HT       0.417000       1.00800           0
     12460 TIP3     848      TIP3     H2       HT       0.417000       1.00800           0
     12461 TIP3     849      TIP3     OH2      OT      -0.834000       15.9994           0
     12462 TIP3     849      TIP3     H1       HT       0.417000       1.00800           0
     12463 TIP3     849      TIP3     H2       HT       0.417000       1.00800           0
     12464 TIP3     850      TIP3     OH2      OT      -0.834000       15.9994           0
     12465 TIP3     850      TIP3     H1       HT       0.417000       1.00800           0
     12466 TIP3     850      TIP3     H2       HT       0.417000       1.00800           0
     12467 TIP3     851      TIP3     OH2      OT      -0.834000       15.9994           0
     12468 TIP3     851      TIP3     H1       HT       0.417000       1.00800           0
     12469 TIP3     851      TIP3     H2       HT       0.417000       1.00800           0
     12470 TIP3     852      TIP3     OH2      OT      -0.834000       15.9994           0
     12471 TIP3     852      TIP3     H1       HT       0.417000       1.00800           0
     12472 TIP3     852      TIP3     H2       HT       0.417000       1.00800           0
     12473 TIP3     853      TIP3     OH2      OT      -0.834000       15.9994           0
     12474 TIP3     853      TIP3     H1       HT       0.417000       1.00800           0
     12475 TIP3     853      TIP3     H2       HT       0.417000       1.00800           0
     12476 TIP3     854      TIP3     OH2      OT      -0.834000       15.9994           0
     12477 TIP3     854      TIP3     H1       HT       0.417000       1.00800           0
     12478 TIP3     854      TIP3     H2       HT       0.417000       1.00800           0
     12479 TIP3     855      TIP3     OH2      OT      -0.834000       15.9994           0
     12480 TIP3     855      TIP3     H1       HT       0.417000       1.00800           0
     12481 TIP3     855      TIP3     H2       HT       0.417000       1.00800           0
     12482 TIP3     856      TIP3     OH2      OT      -0.834000       15.9994           0
     12483 TIP3     856      TIP3     H1       HT       0.417000       1.00800           0
     12484 TIP3     856      TIP3     H2       HT       0.417000       1.00800           0
     12485 TIP3     857      TIP3     OH2      OT      -0.834000       15.9994           0
     12486 TIP3     857      TIP3     H1       HT       0.417000       1.00800           0
     12487 TIP3     857      TIP3     H2       HT       0.417000       1.00800           0
     12488 TIP3     858      TIP3     OH2      OT      -0.834000       15.9994           0
     12489 TIP3     858      TIP3     H1       HT       0.417000       1.00800           0
     12490 TIP3     858      TIP3     H2       HT       0.417000       1.00800           0
     12491 TIP3     859      TIP3     OH2      OT      -0.834000       15.9994           0
     12492 TIP3     859      TIP3     H1       HT       0.417000       1.00800           0
     12493 TIP3     859      TIP3     H2       HT       0.417000       1.00800           0
     12494 TIP3     860      TIP3     OH2      OT      -0.834000       15.9994           0
     12495 TIP3     860      TIP3     H1       HT       0.417000       1.00800           0
     12496 TIP3     860      TIP3     H2       HT       0.417000       1.00800           0
     12497 TIP3     861      TIP3     OH2      OT      -0.834000       15.9994           0
     12498 TIP3     861      TIP3     H1       HT       0.417000       1.00800           0
     12499 TIP3     861      TIP3     H2       HT       0.417000       1.00800           0
     12500 TIP3     862      TIP3     OH2      OT      -0.834000       15.9994           0
     12501 TIP3     862      TIP3     H1       HT       0.417000       1.00800           0
     12502 TIP3     862      TIP3     H2       HT       0.417000       1.00800           0
     12503 TIP3     863      TIP3     OH2      OT      -0.834000       15.9994           0
     12504 TIP3     863      TIP3     H1       HT       0.417000       1.00800           0
     12505 TIP3     863      TIP3     H2       HT       0.417000       1.00800           0
     12506 TIP3     864      TIP3     OH2      OT      -0.834000       15.9994           0
     12507 TIP3     864      TIP3     H1       HT       0.417000       1.00800           0
     12508 TIP3     864      TIP3     H2       HT       0.417000       1.00800           0
     12509 TIP3     865      TIP3     OH2      OT      -0.834000       15.9994           0
     12510 TIP3     865      TIP3     H1       HT       0.417000       1.00800           0
     12511 TIP3     865      TIP3     H2       HT       0.417000       1.00800           0
     12512 TIP3     866      TIP3     OH2      OT      -0.834000       15.9994           0
     12513 TIP3     866      TIP3     H1       HT       0.417000       1.00800           0
     12514 TIP3     866      TIP3     H2       HT       0.417000       1.00800           0
     12515 TIP3     867      TIP3     OH2      OT      -0.834000       15.9994           0
     12516 TIP3     867      TIP3     H1       HT       0.417000       1.00800           0
     12517 TIP3     867      TIP3     H2       HT       0.417000       1.00800           0
     12518 TIP3     868      TIP3     OH2      OT      -0.834000       15.9994           0
     12519 TIP3     868      TIP3     H1       HT       0.417000       1.00800           0
     12520 TIP3     868      TIP3     H2       HT       0.417000       1.00800           0
     12521 TIP3     869      TIP3     OH2      OT      -0.834000       15.9994           0
     12522 TIP3     869      TIP3     H1       HT       0.417000       1.00800           0
     12523 TIP3     869      TIP3     H2       HT       0.417000       1.00800           0
     12524 TIP3     870      TIP3     OH2      OT      -0.834000       15.9994           0
     12525 TIP3     870      TIP3     H1       HT       0.417000       1.00800           0
     12526 TIP3     870      TIP3     H2       HT       0.417000       1.00800           0
     12527 TIP3     871      TIP3     OH2      OT      -0.834000       15.9994           0
     12528 TIP3     871      TIP3     H1       HT       0.417000       1.00800           0
     12529 TIP3     871      TIP3     H2       HT       0.417000       1.00800           0
     12530 TIP3     872      TIP3     OH2      OT      -0.834000       15.9994           0
     12531 TIP3     872      TIP3     H1       HT       0.417000       1.00800           0
     12532 TIP3     872      TIP3     H2       HT       0.417000       1.00800           0
     12533 TIP3     873      TIP3     OH2      OT      -0.834000       15.9994           0
     12534 TIP3     873      TIP3     H1       HT       0.417000       1.00800           0
     12535 TIP3     873      TIP3     H2       HT       0.417000       1.00800           0
     12536 TIP3     874      TIP3     OH2      OT      -0.834000       15.9994           0
     12537 TIP3     874      TIP3     H1       HT       0.417000       1.00800           0
     12538 TIP3     874      TIP3     H2       HT       0.417000       1.00800           0
     12539 TIP3     875      TIP3     OH2      OT      -0.834000       15.9994           0
     12540 TIP3     875      TIP3     H1       HT       0.417000       1.00800           0
     12541 TIP3     875      TIP3     H2       HT       0.417000       1.00800           0
     12542 TIP3     876      TIP3     OH2      OT      -0.834000       15.9994           0
     12543 TIP3     876      TIP3     H1       HT       0.417000       1.00800           0
     12544 TIP3     876      TIP3     H2       HT       0.417000       1.00800           0
     12545 TIP3     877      TIP3     OH2      OT      -0.834000       15.9994           0
     12546 TIP3     877      TIP3     H1       HT       0.417000       1.00800           0
     12547 TIP3     877      TIP3     H2       HT       0.417000       1.00800           0
     12548 TIP3     878      TIP3     OH2      OT      -0.834000       15.9994           0
     12549 TIP3     878      TIP3     H1       HT       0.417000       1.00800           0
     12550 TIP3     878      TIP3     H2       HT       0.417000       1.00800           0
     12551 TIP3     879      TIP3     OH2      OT      -0.834000       15.9994           0
     12552 TIP3     879      TIP3     H1       HT       0.417000       1.00800           0
     12553 TIP3     879      TIP3     H2       HT       0.417000       1.00800           0
     12554 TIP3     880      TIP3     OH2      OT      -0.834000       15.9994           0
     12555 TIP3     880      TIP3     H1       HT       0.417000       1.00800           0
     12556 TIP3     880      TIP3     H2       HT       0.417000       1.00800           0
     12557 TIP3     881      TIP3     OH2      OT      -0.834000       15.9994           0
     12558 TIP3     881      TIP3     H1       HT       0.417000       1.00800           0
     12559 TIP3     881      TIP3     H2       HT       0.417000       1.00800           0
     12560 TIP3     882      TIP3     OH2      OT      -0.834000       15.9994           0
     12561 TIP3     882      TIP3     H1       HT       0.417000       1.00800           0
     12562 TIP3     882      TIP3     H2       HT       0.417000       1.00800           0
     12563 TIP3     883      TIP3     OH2      OT      -0.834000       15.9994           0
     12564 TIP3     883      TIP3     H1       HT       0.417000       1.00800           0
     12565 TIP3     883      TIP3     H2       HT       0.417000       1.00800           0
     12566 TIP3     884      TIP3     OH2      OT      -0.834000       15.9994           0
     12567 TIP3     884      TIP3     H1       HT       0.417000       1.00800           0
     12568 TIP3     884      TIP3     H2       HT       0.417000       1.00800           0
     12569 TIP3     885      TIP3     OH2      OT      -0.834000       15.9994           0
     12570 TIP3     885      TIP3     H1       HT       0.417000       1.00800           0
     12571 TIP3     885      TIP3     H2       HT       0.417000       1.00800           0
     12572 TIP3     886      TIP3     OH2      OT      -0.834000       15.9994           0
     12573 TIP3     886      TIP3     H1       HT       0.417000       1.00800           0
     12574 TIP3     886      TIP3     H2       HT       0.417000       1.00800           0
     12575 TIP3     887      TIP3     OH2      OT      -0.834000       15.9994           0
     12576 TIP3     887      TIP3     H1       HT       0.417000       1.00800           0
     12577 TIP3     887      TIP3     H2       HT       0.417000       1.00800           0
     12578 TIP3     888      TIP3     OH2      OT      -0.834000       15.9994           0
     12579 TIP3     888      TIP3     H1       HT       0.417000       1.00800           0
     12580 TIP3     888      TIP3     H2       HT       0.417000       1.00800           0
     12581 TIP3     889      TIP3     OH2      OT      -0.834000       15.9994           0
     12582 TIP3     889      TIP3     H1       HT       0.417000       1.00800           0
     12583 TIP3     889      TIP3     H2       HT       0.417000       1.00800           0
     12584 TIP3     890      TIP3     OH2      OT      -0.834000       15.9994           0
     12585 TIP3     890      TIP3     H1       HT       0.417000       1.00800           0
     12586 TIP3     890      TIP3     H2       HT       0.417000       1.00800           0
     12587 TIP3     891      TIP3     OH2      OT      -0.834000       15.9994           0
     12588 TIP3     891      TIP3     H1       HT       0.417000       1.00800           0
     12589 TIP3     891      TIP3     H2       HT       0.417000       1.00800           0
     12590 TIP3     892      TIP3     OH2      OT      -0.834000       15.9994           0
     12591 TIP3     892      TIP3     H1       HT       0.417000       1.00800           0
     12592 TIP3     892      TIP3     H2       HT       0.417000       1.00800           0
     12593 TIP3     893      TIP3     OH2      OT      -0.834000       15.9994           0
     12594 TIP3     893      TIP3     H1       HT       0.417000       1.00800           0
     12595 TIP3     893      TIP3     H2       HT       0.417000       1.00800           0
     12596 TIP3     894      TIP3     OH2      OT      -0.834000       15.9994           0
     12597 TIP3     894      TIP3     H1       HT       0.417000       1.00800           0
     12598 TIP3     894      TIP3     H2       HT       0.417000       1.00800           0
     12599 TIP3     895      TIP3     OH2      OT      -0.834000       15.9994           0
     12600 TIP3     895      TIP3     H1       HT       0.417000       1.00800           0
     12601 TIP3     895      TIP3     H2       HT       0.417000       1.00800           0
     12602 TIP3     896      TIP3     OH2      OT      -0.834000       15.9994           0
     12603 TIP3     896      TIP3     H1       HT       0.417000       1.00800           0
     12604 TIP3     896      TIP3     H2       HT       0.417000       1.00800           0
     12605 TIP3     897      TIP3     OH2      OT      -0.834000       15.9994           0
     12606 TIP3     897      TIP3     H1       HT       0.417000       1.00800           0
     12607 TIP3     897      TIP3     H2       HT       0.417000       1.00800           0
     12608 TIP3     898      TIP3     OH2      OT      -0.834000       15.9994           0
     12609 TIP3     898      TIP3     H1       HT       0.417000       1.00800           0
     12610 TIP3     898      TIP3     H2       HT       0.417000       1.00800           0
     12611 TIP3     899      TIP3     OH2      OT      -0.834000       15.9994           0
     12612 TIP3     899      TIP3     H1       HT       0.417000       1.00800           0
     12613 TIP3     899      TIP3     H2       HT       0.417000       1.00800           0
     12614 TIP3     900      TIP3     OH2      OT      -0.834000       15.9994           0
     12615 TIP3     900      TIP3     H1       HT       0.417000       1.00800           0
     12616 TIP3     900      TIP3     H2       HT       0.417000       1.00800           0
     12617 TIP3     901      TIP3     OH2      OT      -0.834000       15.9994           0
     12618 TIP3     901      TIP3     H1       HT       0.417000       1.00800           0
     12619 TIP3     901      TIP3     H2       HT       0.417000       1.00800           0
     12620 TIP3     902      TIP3     OH2      OT      -0.834000       15.9994           0
     12621 TIP3     902      TIP3     H1       HT       0.417000       1.00800           0
     12622 TIP3     902      TIP3     H2       HT       0.417000       1.00800           0
     12623 TIP3     903      TIP3     OH2      OT      -0.834000       15.9994           0
     12624 TIP3     903      TIP3     H1       HT       0.417000       1.00800           0
     12625 TIP3     903      TIP3     H2       HT       0.417000       1.00800           0
     12626 TIP3     904      TIP3     OH2      OT      -0.834000       15.9994           0
     12627 TIP3     904      TIP3     H1       HT       0.417000       1.00800           0
     12628 TIP3     904      TIP3     H2       HT       0.417000       1.00800           0
     12629 TIP3     905      TIP3     OH2      OT      -0.834000       15.9994           0
     12630 TIP3     905      TIP3     H1       HT       0.417000       1.00800           0
     12631 TIP3     905      TIP3     H2       HT       0.417000       1.00800           0
     12632 TIP3     906      TIP3     OH2      OT      -0.834000       15.9994           0
     12633 TIP3     906      TIP3     H1       HT       0.417000       1.00800           0
     12634 TIP3     906      TIP3     H2       HT       0.417000       1.00800           0
     12635 TIP3     907      TIP3     OH2      OT      -0.834000       15.9994           0
     12636 TIP3     907      TIP3     H1       HT       0.417000       1.00800           0
     12637 TIP3     907      TIP3     H2       HT       0.417000       1.00800           0
     12638 TIP3     908      TIP3     OH2      OT      -0.834000       15.9994           0
     12639 TIP3     908      TIP3     H1       HT       0.417000       1.00800           0
     12640 TIP3     908      TIP3     H2       HT       0.417000       1.00800           0
     12641 TIP3     909      TIP3     OH2      OT      -0.834000       15.9994           0
     12642 TIP3     909      TIP3     H1       HT       0.417000       1.00800           0
     12643 TIP3     909      TIP3     H2       HT       0.417000       1.00800           0
     12644 TIP3     910      TIP3     OH2      OT      -0.834000       15.9994           0
     12645 TIP3     910      TIP3     H1       HT       0.417000       1.00800           0
     12646 TIP3     910      TIP3     H2       HT       0.417000       1.00800           0
     12647 TIP3     911      TIP3     OH2      OT      -0.834000       15.9994           0
     12648 TIP3     911      TIP3     H1       HT       0.417000       1.00800           0
     12649 TIP3     911      TIP3     H2       HT       0.417000       1.00800           0
     12650 TIP3     912      TIP3     OH2      OT      -0.834000       15.9994           0
     12651 TIP3     912      TIP3     H1       HT       0.417000       1.00800           0
     12652 TIP3     912      TIP3     H2       HT       0.417000       1.00800           0
     12653 TIP3     913      TIP3     OH2      OT      -0.834000       15.9994           0
     12654 TIP3     913      TIP3     H1       HT       0.417000       1.00800           0
     12655 TIP3     913      TIP3     H2       HT       0.417000       1.00800           0
     12656 TIP3     914      TIP3     OH2      OT      -0.834000       15.9994           0
     12657 TIP3     914      TIP3     H1       HT       0.417000       1.00800           0
     12658 TIP3     914      TIP3     H2       HT       0.417000       1.00800           0
     12659 TIP3     915      TIP3     OH2      OT      -0.834000       15.9994           0
     12660 TIP3     915      TIP3     H1       HT       0.417000       1.00800           0
     12661 TIP3     915      TIP3     H2       HT       0.417000       1.00800           0
     12662 TIP3     916      TIP3     OH2      OT      -0.834000       15.9994           0
     12663 TIP3     916      TIP3     H1       HT       0.417000       1.00800           0
     12664 TIP3     916      TIP3     H2       HT       0.417000       1.00800           0
     12665 TIP3     917      TIP3     OH2      OT      -0.834000       15.9994           0
     12666 TIP3     917      TIP3     H1       HT       0.417000       1.00800           0
     12667 TIP3     917      TIP3     H2       HT       0.417000       1.00800           0
     12668 TIP3     918      TIP3     OH2      OT      -0.834000       15.9994           0
     12669 TIP3     918      TIP3     H1       HT       0.417000       1.00800           0
     12670 TIP3     918      TIP3     H2       HT       0.417000       1.00800           0
     12671 TIP3     919      TIP3     OH2      OT      -0.834000       15.9994           0
     12672 TIP3     919      TIP3     H1       HT       0.417000       1.00800           0
     12673 TIP3     919      TIP3     H2       HT       0.417000       1.00800           0
     12674 TIP3     920      TIP3     OH2      OT      -0.834000       15.9994           0
     12675 TIP3     920      TIP3     H1       HT       0.417000       1.00800           0
     12676 TIP3     920      TIP3     H2       HT       0.417000       1.00800           0
     12677 TIP3     921      TIP3     OH2      OT      -0.834000       15.9994           0
     12678 TIP3     921      TIP3     H1       HT       0.417000       1.00800           0
     12679 TIP3     921      TIP3     H2       HT       0.417000       1.00800           0
     12680 TIP3     922      TIP3     OH2      OT      -0.834000       15.9994           0
     12681 TIP3     922      TIP3     H1       HT       0.417000       1.00800           0
     12682 TIP3     922      TIP3     H2       HT       0.417000       1.00800           0
     12683 TIP3     923      TIP3     OH2      OT      -0.834000       15.9994           0
     12684 TIP3     923      TIP3     H1       HT       0.417000       1.00800           0
     12685 TIP3     923      TIP3     H2       HT       0.417000       1.00800           0
     12686 TIP3     924      TIP3     OH2      OT      -0.834000       15.9994           0
     12687 TIP3     924      TIP3     H1       HT       0.417000       1.00800           0
     12688 TIP3     924      TIP3     H2       HT       0.417000       1.00800           0
     12689 TIP3     925      TIP3     OH2      OT      -0.834000       15.9994           0
     12690 TIP3     925      TIP3     H1       HT       0.417000       1.00800           0
     12691 TIP3     925      TIP3     H2       HT       0.417000       1.00800           0
     12692 TIP3     926      TIP3     OH2      OT      -0.834000       15.9994           0
     12693 TIP3     926      TIP3     H1       HT       0.417000       1.00800           0
     12694 TIP3     926      TIP3     H2       HT       0.417000       1.00800           0
     12695 TIP3     927      TIP3     OH2      OT      -0.834000       15.9994           0
     12696 TIP3     927      TIP3     H1       HT       0.417000       1.00800           0
     12697 TIP3     927      TIP3     H2       HT       0.417000       1.00800           0
     12698 TIP3     928      TIP3     OH2      OT      -0.834000       15.9994           0
     12699 TIP3     928      TIP3     H1       HT       0.417000       1.00800           0
     12700 TIP3     928      TIP3     H2       HT       0.417000       1.00800           0
     12701 TIP3     929      TIP3     OH2      OT      -0.834000       15.9994           0
     12702 TIP3     929      TIP3     H1       HT       0.417000       1.00800           0
     12703 TIP3     929      TIP3     H2       HT       0.417000       1.00800           0
     12704 TIP3     930      TIP3     OH2      OT      -0.834000       15.9994           0
     12705 TIP3     930      TIP3     H1       HT       0.417000       1.00800           0
     12706 TIP3     930      TIP3     H2       HT       0.417000       1.00800           0
     12707 TIP3     931      TIP3     OH2      OT      -0.834000       15.9994           0
     12708 TIP3     931      TIP3     H1       HT       0.417000       1.00800           0
     12709 TIP3     931      TIP3     H2       HT       0.417000       1.00800           0
     12710 TIP3     932      TIP3     OH2      OT      -0.834000       15.9994           0
     12711 TIP3     932      TIP3     H1       HT       0.417000       1.00800           0
     12712 TIP3     932      TIP3     H2       HT       0.417000       1.00800           0
     12713 TIP3     933      TIP3     OH2      OT      -0.834000       15.9994           0
     12714 TIP3     933      TIP3     H1       HT       0.417000       1.00800           0
     12715 TIP3     933      TIP3     H2       HT       0.417000       1.00800           0
     12716 TIP3     934      TIP3     OH2      OT      -0.834000       15.9994           0
     12717 TIP3     934      TIP3     H1       HT       0.417000       1.00800           0
     12718 TIP3     934      TIP3     H2       HT       0.417000       1.00800           0
     12719 TIP3     935      TIP3     OH2      OT      -0.834000       15.9994           0
     12720 TIP3     935      TIP3     H1       HT       0.417000       1.00800           0
     12721 TIP3     935      TIP3     H2       HT       0.417000       1.00800           0
     12722 TIP3     936      TIP3     OH2      OT      -0.834000       15.9994           0
     12723 TIP3     936      TIP3     H1       HT       0.417000       1.00800           0
     12724 TIP3     936      TIP3     H2       HT       0.417000       1.00800           0
     12725 TIP3     937      TIP3     OH2      OT      -0.834000       15.9994           0
     12726 TIP3     937      TIP3     H1       HT       0.417000       1.00800           0
     12727 TIP3     937      TIP3     H2       HT       0.417000       1.00800           0
     12728 TIP3     938      TIP3     OH2      OT      -0.834000       15.9994           0
     12729 TIP3     938      TIP3     H1       HT       0.417000       1.00800           0
     12730 TIP3     938      TIP3     H2       HT       0.417000       1.00800           0
     12731 TIP3     939      TIP3     OH2      OT      -0.834000       15.9994           0
     12732 TIP3     939      TIP3     H1       HT       0.417000       1.00800           0
     12733 TIP3     939      TIP3     H2       HT       0.417000       1.00800           0
     12734 TIP3     940      TIP3     OH2      OT      -0.834000       15.9994           0
     12735 TIP3     940      TIP3     H1       HT       0.417000       1.00800           0
     12736 TIP3     940      TIP3     H2       HT       0.417000       1.00800           0
     12737 TIP3     941      TIP3     OH2      OT      -0.834000       15.9994           0
     12738 TIP3     941      TIP3     H1       HT       0.417000       1.00800           0
     12739 TIP3     941      TIP3     H2       HT       0.417000       1.00800           0
     12740 TIP3     942      TIP3     OH2      OT      -0.834000       15.9994           0
     12741 TIP3     942      TIP3     H1       HT       0.417000       1.00800           0
     12742 TIP3     942      TIP3     H2       HT       0.417000       1.00800           0
     12743 TIP3     943      TIP3     OH2      OT      -0.834000       15.9994           0
     12744 TIP3     943      TIP3     H1       HT       0.417000       1.00800           0
     12745 TIP3     943      TIP3     H2       HT       0.417000       1.00800           0
     12746 TIP3     944      TIP3     OH2      OT      -0.834000       15.9994           0
     12747 TIP3     944      TIP3     H1       HT       0.417000       1.00800           0
     12748 TIP3     944      TIP3     H2       HT       0.417000       1.00800           0
     12749 TIP3     945      TIP3     OH2      OT      -0.834000       15.9994           0
     12750 TIP3     945      TIP3     H1       HT       0.417000       1.00800           0
     12751 TIP3     945      TIP3     H2       HT       0.417000       1.00800           0
     12752 TIP3     946      TIP3     OH2      OT      -0.834000       15.9994           0
     12753 TIP3     946      TIP3     H1       HT       0.417000       1.00800           0
     12754 TIP3     946      TIP3     H2       HT       0.417000       1.00800           0
     12755 TIP3     947      TIP3     OH2      OT      -0.834000       15.9994           0
     12756 TIP3     947      TIP3     H1       HT       0.417000       1.00800           0
     12757 TIP3     947      TIP3     H2       HT       0.417000       1.00800           0
     12758 TIP3     948      TIP3     OH2      OT      -0.834000       15.9994           0
     12759 TIP3     948      TIP3     H1       HT       0.417000       1.00800           0
     12760 TIP3     948      TIP3     H2       HT       0.417000       1.00800           0
     12761 TIP3     949      TIP3     OH2      OT      -0.834000       15.9994           0
     12762 TIP3     949      TIP3     H1       HT       0.417000       1.00800           0
     12763 TIP3     949      TIP3     H2       HT       0.417000       1.00800           0
     12764 TIP3     950      TIP3     OH2      OT      -0.834000       15.9994           0
     12765 TIP3     950      TIP3     H1       HT       0.417000       1.00800           0
     12766 TIP3     950      TIP3     H2       HT       0.417000       1.00800           0
     12767 TIP3     951      TIP3     OH2      OT      -0.834000       15.9994           0
     12768 TIP3     951      TIP3     H1       HT       0.417000       1.00800           0
     12769 TIP3     951      TIP3     H2       HT       0.417000       1.00800           0
     12770 TIP3     952      TIP3     OH2      OT      -0.834000       15.9994           0
     12771 TIP3     952      TIP3     H1       HT       0.417000       1.00800           0
     12772 TIP3     952      TIP3     H2       HT       0.417000       1.00800           0
     12773 TIP3     953      TIP3     OH2      OT      -0.834000       15.9994           0
     12774 TIP3     953      TIP3     H1       HT       0.417000       1.00800           0
     12775 TIP3     953      TIP3     H2       HT       0.417000       1.00800           0
     12776 TIP3     954      TIP3     OH2      OT      -0.834000       15.9994           0
     12777 TIP3     954      TIP3     H1       HT       0.417000       1.00800           0
     12778 TIP3     954      TIP3     H2       HT       0.417000       1.00800           0
     12779 TIP3     955      TIP3     OH2      OT      -0.834000       15.9994           0
     12780 TIP3     955      TIP3     H1       HT       0.417000       1.00800           0
     12781 TIP3     955      TIP3     H2       HT       0.417000       1.00800           0
     12782 TIP3     956      TIP3     OH2      OT      -0.834000       15.9994           0
     12783 TIP3     956      TIP3     H1       HT       0.417000       1.00800           0
     12784 TIP3     956      TIP3     H2       HT       0.417000       1.00800           0
     12785 TIP3     957      TIP3     OH2      OT      -0.834000       15.9994           0
     12786 TIP3     957      TIP3     H1       HT       0.417000       1.00800           0
     12787 TIP3     957      TIP3     H2       HT       0.417000       1.00800           0
     12788 TIP3     958      TIP3     OH2      OT      -0.834000       15.9994           0
     12789 TIP3     958      TIP3     H1       HT       0.417000       1.00800           0
     12790 TIP3     958      TIP3     H2       HT       0.417000       1.00800           0
     12791 TIP3     959      TIP3     OH2      OT      -0.834000       15.9994           0
     12792 TIP3     959      TIP3     H1       HT       0.417000       1.00800           0
     12793 TIP3     959      TIP3     H2       HT       0.417000       1.00800           0
     12794 TIP3     960      TIP3     OH2      OT      -0.834000       15.9994           0
     12795 TIP3     960      TIP3     H1       HT       0.417000       1.00800           0
     12796 TIP3     960      TIP3     H2       HT       0.417000       1.00800           0
     12797 TIP3     961      TIP3     OH2      OT      -0.834000       15.9994           0
     12798 TIP3     961      TIP3     H1       HT       0.417000       1.00800           0
     12799 TIP3     961      TIP3     H2       HT       0.417000       1.00800           0
     12800 TIP3     962      TIP3     OH2      OT      -0.834000       15.9994           0
     12801 TIP3     962      TIP3     H1       HT       0.417000       1.00800           0
     12802 TIP3     962      TIP3     H2       HT       0.417000       1.00800           0
     12803 TIP3     963      TIP3     OH2      OT      -0.834000       15.9994           0
     12804 TIP3     963      TIP3     H1       HT       0.417000       1.00800           0
     12805 TIP3     963      TIP3     H2       HT       0.417000       1.00800           0
     12806 TIP3     964      TIP3     OH2      OT      -0.834000       15.9994           0
     12807 TIP3     964      TIP3     H1       HT       0.417000       1.00800           0
     12808 TIP3     964      TIP3     H2       HT       0.417000       1.00800           0
     12809 TIP3     965      TIP3     OH2      OT      -0.834000       15.9994           0
     12810 TIP3     965      TIP3     H1       HT       0.417000       1.00800           0
     12811 TIP3     965      TIP3     H2       HT       0.417000       1.00800           0
     12812 TIP3     966      TIP3     OH2      OT      -0.834000       15.9994           0
     12813 TIP3     966      TIP3     H1       HT       0.417000       1.00800           0
     12814 TIP3     966      TIP3     H2       HT       0.417000       1.00800           0
     12815 TIP3     967      TIP3     OH2      OT      -0.834000       15.9994           0
     12816 TIP3     967      TIP3     H1       HT       0.417000       1.00800           0
     12817 TIP3     967      TIP3     H2       HT       0.417000       1.00800           0
     12818 TIP3     968      TIP3     OH2      OT      -0.834000       15.9994           0
     12819 TIP3     968      TIP3     H1       HT       0.417000       1.00800           0
     12820 TIP3     968      TIP3     H2       HT       0.417000       1.00800           0
     12821 TIP3     969      TIP3     OH2      OT      -0.834000       15.9994           0
     12822 TIP3     969      TIP3     H1       HT       0.417000       1.00800           0
     12823 TIP3     969      TIP3     H2       HT       0.417000       1.00800           0
     12824 TIP3     970      TIP3     OH2      OT      -0.834000       15.9994           0
     12825 TIP3     970      TIP3     H1       HT       0.417000       1.00800           0
     12826 TIP3     970      TIP3     H2       HT       0.417000       1.00800           0
     12827 TIP3     971      TIP3     OH2      OT      -0.834000       15.9994           0
     12828 TIP3     971      TIP3     H1       HT       0.417000       1.00800           0
     12829 TIP3     971      TIP3     H2       HT       0.417000       1.00800           0
     12830 TIP3     972      TIP3     OH2      OT      -0.834000       15.9994           0
     12831 TIP3     972      TIP3     H1       HT       0.417000       1.00800           0
     12832 TIP3     972      TIP3     H2       HT       0.417000       1.00800           0
     12833 TIP3     973      TIP3     OH2      OT      -0.834000       15.9994           0
     12834 TIP3     973      TIP3     H1       HT       0.417000       1.00800           0
     12835 TIP3     973      TIP3     H2       HT       0.417000       1.00800           0
     12836 TIP3     974      TIP3     OH2      OT      -0.834000       15.9994           0
     12837 TIP3     974      TIP3     H1       HT       0.417000       1.00800           0
     12838 TIP3     974      TIP3     H2       HT       0.417000       1.00800           0
     12839 TIP3     975      TIP3     OH2      OT      -0.834000       15.9994           0
     12840 TIP3     975      TIP3     H1       HT       0.417000       1.00800           0
     12841 TIP3     975      TIP3     H2       HT       0.417000       1.00800           0
     12842 TIP3     976      TIP3     OH2      OT      -0.834000       15.9994           0
     12843 TIP3     976      TIP3     H1       HT       0.417000       1.00800           0
     12844 TIP3     976      TIP3     H2       HT       0.417000       1.00800           0
     12845 TIP3     977      TIP3     OH2      OT      -0.834000       15.9994           0
     12846 TIP3     977      TIP3     H1       HT       0.417000       1.00800           0
     12847 TIP3     977      TIP3     H2       HT       0.417000       1.00800           0
     12848 TIP3     978      TIP3     OH2      OT      -0.834000       15.9994           0
     12849 TIP3     978      TIP3     H1       HT       0.417000       1.00800           0
     12850 TIP3     978      TIP3     H2       HT       0.417000       1.00800           0
     12851 TIP3     979      TIP3     OH2      OT      -0.834000       15.9994           0
     12852 TIP3     979      TIP3     H1       HT       0.417000       1.00800           0
     12853 TIP3     979      TIP3     H2       HT       0.417000       1.00800           0
     12854 TIP3     980      TIP3     OH2      OT      -0.834000       15.9994           0
     12855 TIP3     980      TIP3     H1       HT       0.417000       1.00800           0
     12856 TIP3     980      TIP3     H2       HT       0.417000       1.00800           0
     12857 TIP3     981      TIP3     OH2      OT      -0.834000       15.9994           0
     12858 TIP3     981      TIP3     H1       HT       0.417000       1.00800           0
     12859 TIP3     981      TIP3     H2       HT       0.417000       1.00800           0
     12860 TIP3     982      TIP3     OH2      OT      -0.834000       15.9994           0
     12861 TIP3     982      TIP3     H1       HT       0.417000       1.00800           0
     12862 TIP3     982      TIP3     H2       HT       0.417000       1.00800           0
     12863 TIP3     983      TIP3     OH2      OT      -0.834000       15.9994           0
     12864 TIP3     983      TIP3     H1       HT       0.417000       1.00800           0
     12865 TIP3     983      TIP3     H2       HT       0.417000       1.00800           0
     12866 TIP3     984      TIP3     OH2      OT      -0.834000       15.9994           0
     12867 TIP3     984      TIP3     H1       HT       0.417000       1.00800           0
     12868 TIP3     984      TIP3     H2       HT       0.417000       1.00800           0
     12869 TIP3     985      TIP3     OH2      OT      -0.834000       15.9994           0
     12870 TIP3     985      TIP3     H1       HT       0.417000       1.00800           0
     12871 TIP3     985      TIP3     H2       HT       0.417000       1.00800           0
     12872 TIP3     986      TIP3     OH2      OT      -0.834000       15.9994           0
     12873 TIP3     986      TIP3     H1       HT       0.417000       1.00800           0
     12874 TIP3     986      TIP3     H2       HT       0.417000       1.00800           0
     12875 TIP3     987      TIP3     OH2      OT      -0.834000       15.9994           0
     12876 TIP3     987      TIP3     H1       HT       0.417000       1.00800           0
     12877 TIP3     987      TIP3     H2       HT       0.417000       1.00800           0
     12878 TIP3     988      TIP3     OH2      OT      -0.834000       15.9994           0
     12879 TIP3     988      TIP3     H1       HT       0.417000       1.00800           0
     12880 TIP3     988      TIP3     H2       HT       0.417000       1.00800           0
     12881 TIP3     989      TIP3     OH2      OT      -0.834000       15.9994           0
     12882 TIP3     989      TIP3     H1       HT       0.417000       1.00800           0
     12883 TIP3     989      TIP3     H2       HT       0.417000       1.00800           0
     12884 TIP3     990      TIP3     OH2      OT      -0.834000       15.9994           0
     12885 TIP3     990      TIP3     H1       HT       0.417000       1.00800           0
     12886 TIP3     990      TIP3     H2       HT       0.417000       1.00800           0
     12887 TIP3     991      TIP3     OH2      OT      -0.834000       15.9994           0
     12888 TIP3     991      TIP3     H1       HT       0.417000       1.00800           0
     12889 TIP3     991      TIP3     H2       HT       0.417000       1.00800           0
     12890 TIP3     992      TIP3     OH2      OT      -0.834000       15.9994           0
     12891 TIP3     992      TIP3     H1       HT       0.417000       1.00800           0
     12892 TIP3     992      TIP3     H2       HT       0.417000       1.00800           0
     12893 TIP3     993      TIP3     OH2      OT      -0.834000       15.9994           0
     12894 TIP3     993      TIP3     H1       HT       0.417000       1.00800           0
     12895 TIP3     993      TIP3     H2       HT       0.417000       1.00800           0
     12896 TIP3     994      TIP3     OH2      OT      -0.834000       15.9994           0
     12897 TIP3     994      TIP3     H1       HT       0.417000       1.00800           0
     12898 TIP3     994      TIP3     H2       HT       0.417000       1.00800           0
     12899 TIP3     995      TIP3     OH2      OT      -0.834000       15.9994           0
     12900 TIP3     995      TIP3     H1       HT       0.417000       1.00800           0
     12901 TIP3     995      TIP3     H2       HT       0.417000       1.00800           0
     12902 TIP3     996      TIP3     OH2      OT      -0.834000       15.9994           0
     12903 TIP3     996      TIP3     H1       HT       0.417000       1.00800           0
     12904 TIP3     996      TIP3     H2       HT       0.417000       1.00800           0
     12905 TIP3     997      TIP3     OH2      OT      -0.834000       15.9994           0
     12906 TIP3     997      TIP3     H1       HT       0.417000       1.00800           0
     12907 TIP3     997      TIP3     H2       HT       0.417000       1.00800           0
     12908 TIP3     998      TIP3     OH2      OT      -0.834000       15.9994           0
     12909 TIP3     998      TIP3     H1       HT       0.417000       1.00800           0
     12910 TIP3     998      TIP3     H2       HT       0.417000       1.00800           0
     12911 TIP3     999      TIP3     OH2      OT      -0.834000       15.9994           0
     12912 TIP3     999      TIP3     H1       HT       0.417000       1.00800           0
     12913 TIP3     999      TIP3     H2       HT       0.417000       1.00800           0
     12914 TIP3     1000     TIP3     OH2      OT      -0.834000       15.9994           0
     12915 TIP3     1000     TIP3     H1       HT       0.417000       1.00800           0
     12916 TIP3     1000     TIP3     H2       HT       0.417000       1.00800           0
     12917 TIP3     1001     TIP3     OH2      OT      -0.834000       15.9994           0
     12918 TIP3     1001     TIP3     H1       HT       0.417000       1.00800           0
     12919 TIP3     1001     TIP3     H2       HT       0.417000       1.00800           0
     12920 TIP3     1002     TIP3     OH2      OT      -0.834000       15.9994           0
     12921 TIP3     1002     TIP3     H1       HT       0.417000       1.00800           0
     12922 TIP3     1002     TIP3     H2       HT       0.417000       1.00800           0
     12923 TIP3     1003     TIP3     OH2      OT      -0.834000       15.9994           0
     12924 TIP3     1003     TIP3     H1       HT       0.417000       1.00800           0
     12925 TIP3     1003     TIP3     H2       HT       0.417000       1.00800           0
     12926 TIP3     1004     TIP3     OH2      OT      -0.834000       15.9994           0
     12927 TIP3     1004     TIP3     H1       HT       0.417000       1.00800           0
     12928 TIP3     1004     TIP3     H2       HT       0.417000       1.00800           0
     12929 TIP3     1005     TIP3     OH2      OT      -0.834000       15.9994           0
     12930 TIP3     1005     TIP3     H1       HT       0.417000       1.00800           0
     12931 TIP3     1005     TIP3     H2       HT       0.417000       1.00800           0
     12932 TIP3     1006     TIP3     OH2      OT      -0.834000       15.9994           0
     12933 TIP3     1006     TIP3     H1       HT       0.417000       1.00800           0
     12934 TIP3     1006     TIP3     H2       HT       0.417000       1.00800           0
     12935 TIP3     1007     TIP3     OH2      OT      -0.834000       15.9994           0
     12936 TIP3     1007     TIP3     H1       HT       0.417000       1.00800           0
     12937 TIP3     1007     TIP3     H2       HT       0.417000       1.00800           0
     12938 TIP3     1008     TIP3     OH2      OT      -0.834000       15.9994           0
     12939 TIP3     1008     TIP3     H1       HT       0.417000       1.00800           0
     12940 TIP3     1008     TIP3     H2       HT       0.417000       1.00800           0
     12941 TIP3     1009     TIP3     OH2      OT      -0.834000       15.9994           0
     12942 TIP3     1009     TIP3     H1       HT       0.417000       1.00800           0
     12943 TIP3     1009     TIP3     H2       HT       0.417000       1.00800           0
     12944 TIP3     1010     TIP3     OH2      OT      -0.834000       15.9994           0
     12945 TIP3     1010     TIP3     H1       HT       0.417000       1.00800           0
     12946 TIP3     1010     TIP3     H2       HT       0.417000       1.00800           0
     12947 TIP3     1011     TIP3     OH2      OT      -0.834000       15.9994           0
     12948 TIP3     1011     TIP3     H1       HT       0.417000       1.00800           0
     12949 TIP3     1011     TIP3     H2       HT       0.417000       1.00800           0
     12950 TIP3     1012     TIP3     OH2      OT      -0.834000       15.9994           0
     12951 TIP3     1012     TIP3     H1       HT       0.417000       1.00800           0
     12952 TIP3     1012     TIP3     H2       HT       0.417000       1.00800           0
     12953 TIP3     1013     TIP3     OH2      OT      -0.834000       15.9994           0
     12954 TIP3     1013     TIP3     H1       HT       0.417000       1.00800           0
     12955 TIP3     1013     TIP3     H2       HT       0.417000       1.00800           0
     12956 TIP3     1014     TIP3     OH2      OT      -0.834000       15.9994           0
     12957 TIP3     1014     TIP3     H1       HT       0.417000       1.00800           0
     12958 TIP3     1014     TIP3     H2       HT       0.417000       1.00800           0
     12959 TIP3     1015     TIP3     OH2      OT      -0.834000       15.9994           0
     12960 TIP3     1015     TIP3     H1       HT       0.417000       1.00800           0
     12961 TIP3     1015     TIP3     H2       HT       0.417000       1.00800           0
     12962 TIP3     1016     TIP3     OH2      OT      -0.834000       15.9994           0
     12963 TIP3     1016     TIP3     H1       HT       0.417000       1.00800           0
     12964 TIP3     1016     TIP3     H2       HT       0.417000       1.00800           0
     12965 TIP3     1017     TIP3     OH2      OT      -0.834000       15.9994           0
     12966 TIP3     1017     TIP3     H1       HT       0.417000       1.00800           0
     12967 TIP3     1017     TIP3     H2       HT       0.417000       1.00800           0
     12968 TIP3     1018     TIP3     OH2      OT      -0.834000       15.9994           0
     12969 TIP3     1018     TIP3     H1       HT       0.417000       1.00800           0
     12970 TIP3     1018     TIP3     H2       HT       0.417000       1.00800           0
     12971 TIP3     1019     TIP3     OH2      OT      -0.834000       15.9994           0
     12972 TIP3     1019     TIP3     H1       HT       0.417000       1.00800           0
     12973 TIP3     1019     TIP3     H2       HT       0.417000       1.00800           0
     12974 TIP3     1020     TIP3     OH2      OT      -0.834000       15.9994           0
     12975 TIP3     1020     TIP3     H1       HT       0.417000       1.00800           0
     12976 TIP3     1020     TIP3     H2       HT       0.417000       1.00800           0
     12977 TIP3     1021     TIP3     OH2      OT      -0.834000       15.9994           0
     12978 TIP3     1021     TIP3     H1       HT       0.417000       1.00800           0
     12979 TIP3     1021     TIP3     H2       HT       0.417000       1.00800           0
     12980 TIP3     1022     TIP3     OH2      OT      -0.834000       15.9994           0
     12981 TIP3     1022     TIP3     H1       HT       0.417000       1.00800           0
     12982 TIP3     1022     TIP3     H2       HT       0.417000       1.00800           0
     12983 TIP3     1023     TIP3     OH2      OT      -0.834000       15.9994           0
     12984 TIP3     1023     TIP3     H1       HT       0.417000       1.00800           0
     12985 TIP3     1023     TIP3     H2       HT       0.417000       1.00800           0
     12986 TIP3     1024     TIP3     OH2      OT      -0.834000       15.9994           0
     12987 TIP3     1024     TIP3     H1       HT       0.417000       1.00800           0
     12988 TIP3     1024     TIP3     H2       HT       0.417000       1.00800           0
     12989 TIP3     1025     TIP3     OH2      OT      -0.834000       15.9994           0
     12990 TIP3     1025     TIP3     H1       HT       0.417000       1.00800           0
     12991 TIP3     1025     TIP3     H2       HT       0.417000       1.00800           0
     12992 TIP3     1026     TIP3     OH2      OT      -0.834000       15.9994           0
     12993 TIP3     1026     TIP3     H1       HT       0.417000       1.00800           0
     12994 TIP3     1026     TIP3     H2       HT       0.417000       1.00800           0
     12995 TIP3     1027     TIP3     OH2      OT      -0.834000       15.9994           0
     12996 TIP3     1027     TIP3     H1       HT       0.417000       1.00800           0
     12997 TIP3     1027     TIP3     H2       HT       0.417000       1.00800           0
     12998 TIP3     1028     TIP3     OH2      OT      -0.834000       15.9994           0
     12999 TIP3     1028     TIP3     H1       HT       0.417000       1.00800           0
     13000 TIP3     1028     TIP3     H2       HT       0.417000       1.00800           0
     13001 TIP3     1029     TIP3     OH2      OT      -0.834000       15.9994           0
     13002 TIP3     1029     TIP3     H1       HT       0.417000       1.00800           0
     13003 TIP3     1029     TIP3     H2       HT       0.417000       1.00800           0
     13004 TIP3     1030     TIP3     OH2      OT      -0.834000       15.9994           0
     13005 TIP3     1030     TIP3     H1       HT       0.417000       1.00800           0
     13006 TIP3     1030     TIP3     H2       HT       0.417000       1.00800           0
     13007 TIP3     1031     TIP3     OH2      OT      -0.834000       15.9994           0
     13008 TIP3     1031     TIP3     H1       HT       0.417000       1.00800           0
     13009 TIP3     1031     TIP3     H2       HT       0.417000       1.00800           0
     13010 TIP3     1032     TIP3     OH2      OT      -0.834000       15.9994           0
     13011 TIP3     1032     TIP3     H1       HT       0.417000       1.00800           0
     13012 TIP3     1032     TIP3     H2       HT       0.417000       1.00800           0
     13013 TIP3     1033     TIP3     OH2      OT      -0.834000       15.9994           0
     13014 TIP3     1033     TIP3     H1       HT       0.417000       1.00800           0
     13015 TIP3     1033     TIP3     H2       HT       0.417000       1.00800           0
     13016 TIP3     1034     TIP3     OH2      OT      -0.834000       15.9994           0
     13017 TIP3     1034     TIP3     H1       HT       0.417000       1.00800           0
     13018 TIP3     1034     TIP3     H2       HT       0.417000       1.00800           0
     13019 TIP3     1035     TIP3     OH2      OT      -0.834000       15.9994           0
     13020 TIP3     1035     TIP3     H1       HT       0.417000       1.00800           0
     13021 TIP3     1035     TIP3     H2       HT       0.417000       1.00800           0
     13022 TIP3     1036     TIP3     OH2      OT      -0.834000       15.9994           0
     13023 TIP3     1036     TIP3     H1       HT       0.417000       1.00800           0
     13024 TIP3     1036     TIP3     H2       HT       0.417000       1.00800           0
     13025 TIP3     1037     TIP3     OH2      OT      -0.834000       15.9994           0
     13026 TIP3     1037     TIP3     H1       HT       0.417000       1.00800           0
     13027 TIP3     1037     TIP3     H2       HT       0.417000       1.00800           0
     13028 TIP3     1038     TIP3     OH2      OT      -0.834000       15.9994           0
     13029 TIP3     1038     TIP3     H1       HT       0.417000       1.00800           0
     13030 TIP3     1038     TIP3     H2       HT       0.417000       1.00800           0
     13031 TIP3     1039     TIP3     OH2      OT      -0.834000       15.9994           0
     13032 TIP3     1039     TIP3     H1       HT       0.417000       1.00800           0
     13033 TIP3     1039     TIP3     H2       HT       0.417000       1.00800           0
     13034 TIP3     1040     TIP3     OH2      OT      -0.834000       15.9994           0
     13035 TIP3     1040     TIP3     H1       HT       0.417000       1.00800           0
     13036 TIP3     1040     TIP3     H2       HT       0.417000       1.00800           0
     13037 TIP3     1041     TIP3     OH2      OT      -0.834000       15.9994           0
     13038 TIP3     1041     TIP3     H1       HT       0.417000       1.00800           0
     13039 TIP3     1041     TIP3     H2       HT       0.417000       1.00800           0
     13040 TIP3     1042     TIP3     OH2      OT      -0.834000       15.9994           0
     13041 TIP3     1042     TIP3     H1       HT       0.417000       1.00800           0
     13042 TIP3     1042     TIP3     H2       HT       0.417000       1.00800           0
     13043 TIP3     1043     TIP3     OH2      OT      -0.834000       15.9994           0
     13044 TIP3     1043     TIP3     H1       HT       0.417000       1.00800           0
     13045 TIP3     1043     TIP3     H2       HT       0.417000       1.00800           0
     13046 TIP3     1044     TIP3     OH2      OT      -0.834000       15.9994           0
     13047 TIP3     1044     TIP3     H1       HT       0.417000       1.00800           0
     13048 TIP3     1044     TIP3     H2       HT       0.417000       1.00800           0
     13049 TIP3     1045     TIP3     OH2      OT      -0.834000       15.9994           0
     13050 TIP3     1045     TIP3     H1       HT       0.417000       1.00800           0
     13051 TIP3     1045     TIP3     H2       HT       0.417000       1.00800           0
     13052 TIP3     1046     TIP3     OH2      OT      -0.834000       15.9994           0
     13053 TIP3     1046     TIP3     H1       HT       0.417000       1.00800           0
     13054 TIP3     1046     TIP3     H2       HT       0.417000       1.00800           0
     13055 TIP3     1047     TIP3     OH2      OT      -0.834000       15.9994           0
     13056 TIP3     1047     TIP3     H1       HT       0.417000       1.00800           0
     13057 TIP3     1047     TIP3     H2       HT       0.417000       1.00800           0
     13058 TIP3     1048     TIP3     OH2      OT      -0.834000       15.9994           0
     13059 TIP3     1048     TIP3     H1       HT       0.417000       1.00800           0
     13060 TIP3     1048     TIP3     H2       HT       0.417000       1.00800           0
     13061 TIP3     1049     TIP3     OH2      OT      -0.834000       15.9994           0
     13062 TIP3     1049     TIP3     H1       HT       0.417000       1.00800           0
     13063 TIP3     1049     TIP3     H2       HT       0.417000       1.00800           0
     13064 TIP3     1050     TIP3     OH2      OT      -0.834000       15.9994           0
     13065 TIP3     1050     TIP3     H1       HT       0.417000       1.00800           0
     13066 TIP3     1050     TIP3     H2       HT       0.417000       1.00800           0
     13067 TIP3     1051     TIP3     OH2      OT      -0.834000       15.9994           0
     13068 TIP3     1051     TIP3     H1       HT       0.417000       1.00800           0
     13069 TIP3     1051     TIP3     H2       HT       0.417000       1.00800           0
     13070 TIP3     1052     TIP3     OH2      OT      -0.834000       15.9994           0
     13071 TIP3     1052     TIP3     H1       HT       0.417000       1.00800           0
     13072 TIP3     1052     TIP3     H2       HT       0.417000       1.00800           0
     13073 TIP3     1053     TIP3     OH2      OT      -0.834000       15.9994           0
     13074 TIP3     1053     TIP3     H1       HT       0.417000       1.00800           0
     13075 TIP3     1053     TIP3     H2       HT       0.417000       1.00800           0
     13076 TIP3     1054     TIP3     OH2      OT      -0.834000       15.9994           0
     13077 TIP3     1054     TIP3     H1       HT       0.417000       1.00800           0
     13078 TIP3     1054     TIP3     H2       HT       0.417000       1.00800           0
     13079 TIP3     1055     TIP3     OH2      OT      -0.834000       15.9994           0
     13080 TIP3     1055     TIP3     H1       HT       0.417000       1.00800           0
     13081 TIP3     1055     TIP3     H2       HT       0.417000       1.00800           0
     13082 TIP3     1056     TIP3     OH2      OT      -0.834000       15.9994           0
     13083 TIP3     1056     TIP3     H1       HT       0.417000       1.00800           0
     13084 TIP3     1056     TIP3     H2       HT       0.417000       1.00800           0
     13085 TIP3     1057     TIP3     OH2      OT      -0.834000       15.9994           0
     13086 TIP3     1057     TIP3     H1       HT       0.417000       1.00800           0
     13087 TIP3     1057     TIP3     H2       HT       0.417000       1.00800           0
     13088 TIP3     1058     TIP3     OH2      OT      -0.834000       15.9994           0
     13089 TIP3     1058     TIP3     H1       HT       0.417000       1.00800           0
     13090 TIP3     1058     TIP3     H2       HT       0.417000       1.00800           0
     13091 TIP3     1059     TIP3     OH2      OT      -0.834000       15.9994           0
     13092 TIP3     1059     TIP3     H1       HT       0.417000       1.00800           0
     13093 TIP3     1059     TIP3     H2       HT       0.417000       1.00800           0
     13094 TIP3     1060     TIP3     OH2      OT      -0.834000       15.9994           0
     13095 TIP3     1060     TIP3     H1       HT       0.417000       1.00800           0
     13096 TIP3     1060     TIP3     H2       HT       0.417000       1.00800           0
     13097 TIP3     1061     TIP3     OH2      OT      -0.834000       15.9994           0
     13098 TIP3     1061     TIP3     H1       HT       0.417000       1.00800           0
     13099 TIP3     1061     TIP3     H2       HT       0.417000       1.00800           0
     13100 TIP3     1062     TIP3     OH2      OT      -0.834000       15.9994           0
     13101 TIP3     1062     TIP3     H1       HT       0.417000       1.00800           0
     13102 TIP3     1062     TIP3     H2       HT       0.417000       1.00800           0
     13103 TIP3     1063     TIP3     OH2      OT      -0.834000       15.9994           0
     13104 TIP3     1063     TIP3     H1       HT       0.417000       1.00800           0
     13105 TIP3     1063     TIP3     H2       HT       0.417000       1.00800           0
     13106 TIP3     1064     TIP3     OH2      OT      -0.834000       15.9994           0
     13107 TIP3     1064     TIP3     H1       HT       0.417000       1.00800           0
     13108 TIP3     1064     TIP3     H2       HT       0.417000       1.00800           0
     13109 TIP3     1065     TIP3     OH2      OT      -0.834000       15.9994           0
     13110 TIP3     1065     TIP3     H1       HT       0.417000       1.00800           0
     13111 TIP3     1065     TIP3     H2       HT       0.417000       1.00800           0
     13112 TIP3     1066     TIP3     OH2      OT      -0.834000       15.9994           0
     13113 TIP3     1066     TIP3     H1       HT       0.417000       1.00800           0
     13114 TIP3     1066     TIP3     H2       HT       0.417000       1.00800           0
     13115 TIP3     1067     TIP3     OH2      OT      -0.834000       15.9994           0
     13116 TIP3     1067     TIP3     H1       HT       0.417000       1.00800           0
     13117 TIP3     1067     TIP3     H2       HT       0.417000       1.00800           0
     13118 TIP3     1068     TIP3     OH2      OT      -0.834000       15.9994           0
     13119 TIP3     1068     TIP3     H1       HT       0.417000       1.00800           0
     13120 TIP3     1068     TIP3     H2       HT       0.417000       1.00800           0
     13121 TIP3     1069     TIP3     OH2      OT      -0.834000       15.9994           0
     13122 TIP3     1069     TIP3     H1       HT       0.417000       1.00800           0
     13123 TIP3     1069     TIP3     H2       HT       0.417000       1.00800           0
     13124 TIP3     1070     TIP3     OH2      OT      -0.834000       15.9994           0
     13125 TIP3     1070     TIP3     H1       HT       0.417000       1.00800           0
     13126 TIP3     1070     TIP3     H2       HT       0.417000       1.00800           0
     13127 TIP3     1071     TIP3     OH2      OT      -0.834000       15.9994           0
     13128 TIP3     1071     TIP3     H1       HT       0.417000       1.00800           0
     13129 TIP3     1071     TIP3     H2       HT       0.417000       1.00800           0
     13130 TIP3     1072     TIP3     OH2      OT      -0.834000       15.9994           0
     13131 TIP3     1072     TIP3     H1       HT       0.417000       1.00800           0
     13132 TIP3     1072     TIP3     H2       HT       0.417000       1.00800           0
     13133 TIP3     1073     TIP3     OH2      OT      -0.834000       15.9994           0
     13134 TIP3     1073     TIP3     H1       HT       0.417000       1.00800           0
     13135 TIP3     1073     TIP3     H2       HT       0.417000       1.00800           0
     13136 TIP3     1074     TIP3     OH2      OT      -0.834000       15.9994           0
     13137 TIP3     1074     TIP3     H1       HT       0.417000       1.00800           0
     13138 TIP3     1074     TIP3     H2       HT       0.417000       1.00800           0
     13139 TIP3     1075     TIP3     OH2      OT      -0.834000       15.9994           0
     13140 TIP3     1075     TIP3     H1       HT       0.417000       1.00800           0
     13141 TIP3     1075     TIP3     H2       HT       0.417000       1.00800           0
     13142 TIP3     1076     TIP3     OH2      OT      -0.834000       15.9994           0
     13143 TIP3     1076     TIP3     H1       HT       0.417000       1.00800           0
     13144 TIP3     1076     TIP3     H2       HT       0.417000       1.00800           0
     13145 TIP3     1077     TIP3     OH2      OT      -0.834000       15.9994           0
     13146 TIP3     1077     TIP3     H1       HT       0.417000       1.00800           0
     13147 TIP3     1077     TIP3     H2       HT       0.417000       1.00800           0
     13148 TIP3     1078     TIP3     OH2      OT      -0.834000       15.9994           0
     13149 TIP3     1078     TIP3     H1       HT       0.417000       1.00800           0
     13150 TIP3     1078     TIP3     H2       HT       0.417000       1.00800           0
     13151 TIP3     1079     TIP3     OH2      OT      -0.834000       15.9994           0
     13152 TIP3     1079     TIP3     H1       HT       0.417000       1.00800           0
     13153 TIP3     1079     TIP3     H2       HT       0.417000       1.00800           0
     13154 TIP3     1080     TIP3     OH2      OT      -0.834000       15.9994           0
     13155 TIP3     1080     TIP3     H1       HT       0.417000       1.00800           0
     13156 TIP3     1080     TIP3     H2       HT       0.417000       1.00800           0
     13157 TIP3     1081     TIP3     OH2      OT      -0.834000       15.9994           0
     13158 TIP3     1081     TIP3     H1       HT       0.417000       1.00800           0
     13159 TIP3     1081     TIP3     H2       HT       0.417000       1.00800           0
     13160 TIP3     1082     TIP3     OH2      OT      -0.834000       15.9994           0
     13161 TIP3     1082     TIP3     H1       HT       0.417000       1.00800           0
     13162 TIP3     1082     TIP3     H2       HT       0.417000       1.00800           0
     13163 TIP3     1083     TIP3     OH2      OT      -0.834000       15.9994           0
     13164 TIP3     1083     TIP3     H1       HT       0.417000       1.00800           0
     13165 TIP3     1083     TIP3     H2       HT       0.417000       1.00800           0
     13166 TIP3     1084     TIP3     OH2      OT      -0.834000       15.9994           0
     13167 TIP3     1084     TIP3     H1       HT       0.417000       1.00800           0
     13168 TIP3     1084     TIP3     H2       HT       0.417000       1.00800           0
     13169 TIP3     1085     TIP3     OH2      OT      -0.834000       15.9994           0
     13170 TIP3     1085     TIP3     H1       HT       0.417000       1.00800           0
     13171 TIP3     1085     TIP3     H2       HT       0.417000       1.00800           0
     13172 TIP3     1086     TIP3     OH2      OT      -0.834000       15.9994           0
     13173 TIP3     1086     TIP3     H1       HT       0.417000       1.00800           0
     13174 TIP3     1086     TIP3     H2       HT       0.417000       1.00800           0
     13175 TIP3     1087     TIP3     OH2      OT      -0.834000       15.9994           0
     13176 TIP3     1087     TIP3     H1       HT       0.417000       1.00800           0
     13177 TIP3     1087     TIP3     H2       HT       0.417000       1.00800           0
     13178 TIP3     1088     TIP3     OH2      OT      -0.834000       15.9994           0
     13179 TIP3     1088     TIP3     H1       HT       0.417000       1.00800           0
     13180 TIP3     1088     TIP3     H2       HT       0.417000       1.00800           0
     13181 TIP3     1089     TIP3     OH2      OT      -0.834000       15.9994           0
     13182 TIP3     1089     TIP3     H1       HT       0.417000       1.00800           0
     13183 TIP3     1089     TIP3     H2       HT       0.417000       1.00800           0
     13184 TIP3     1090     TIP3     OH2      OT      -0.834000       15.9994           0
     13185 TIP3     1090     TIP3     H1       HT       0.417000       1.00800           0
     13186 TIP3     1090     TIP3     H2       HT       0.417000       1.00800           0
     13187 TIP3     1091     TIP3     OH2      OT      -0.834000       15.9994           0
     13188 TIP3     1091     TIP3     H1       HT       0.417000       1.00800           0
     13189 TIP3     1091     TIP3     H2       HT       0.417000       1.00800           0
     13190 TIP3     1092     TIP3     OH2      OT      -0.834000       15.9994           0
     13191 TIP3     1092     TIP3     H1       HT       0.417000       1.00800           0
     13192 TIP3     1092     TIP3     H2       HT       0.417000       1.00800           0
     13193 TIP3     1093     TIP3     OH2      OT      -0.834000       15.9994           0
     13194 TIP3     1093     TIP3     H1       HT       0.417000       1.00800           0
     13195 TIP3     1093     TIP3     H2       HT       0.417000       1.00800           0
     13196 TIP3     1094     TIP3     OH2      OT      -0.834000       15.9994           0
     13197 TIP3     1094     TIP3     H1       HT       0.417000       1.00800           0
     13198 TIP3     1094     TIP3     H2       HT       0.417000       1.00800           0
     13199 TIP3     1095     TIP3     OH2      OT      -0.834000       15.9994           0
     13200 TIP3     1095     TIP3     H1       HT       0.417000       1.00800           0
     13201 TIP3     1095     TIP3     H2       HT       0.417000       1.00800           0
     13202 TIP3     1096     TIP3     OH2      OT      -0.834000       15.9994           0
     13203 TIP3     1096     TIP3     H1       HT       0.417000       1.00800           0
     13204 TIP3     1096     TIP3     H2       HT       0.417000       1.00800           0
     13205 TIP3     1097     TIP3     OH2      OT      -0.834000       15.9994           0
     13206 TIP3     1097     TIP3     H1       HT       0.417000       1.00800           0
     13207 TIP3     1097     TIP3     H2       HT       0.417000       1.00800           0
     13208 TIP3     1098     TIP3     OH2      OT      -0.834000       15.9994           0
     13209 TIP3     1098     TIP3     H1       HT       0.417000       1.00800           0
     13210 TIP3     1098     TIP3     H2       HT       0.417000       1.00800           0
     13211 TIP3     1099     TIP3     OH2      OT      -0.834000       15.9994           0
     13212 TIP3     1099     TIP3     H1       HT       0.417000       1.00800           0
     13213 TIP3     1099     TIP3     H2       HT       0.417000       1.00800           0
     13214 TIP3     1100     TIP3     OH2      OT      -0.834000       15.9994           0
     13215 TIP3     1100     TIP3     H1       HT       0.417000       1.00800           0
     13216 TIP3     1100     TIP3     H2       HT       0.417000       1.00800           0
     13217 TIP3     1101     TIP3     OH2      OT      -0.834000       15.9994           0
     13218 TIP3     1101     TIP3     H1       HT       0.417000       1.00800           0
     13219 TIP3     1101     TIP3     H2       HT       0.417000       1.00800           0
     13220 TIP3     1102     TIP3     OH2      OT      -0.834000       15.9994           0
     13221 TIP3     1102     TIP3     H1       HT       0.417000       1.00800           0
     13222 TIP3     1102     TIP3     H2       HT       0.417000       1.00800           0
     13223 TIP3     1103     TIP3     OH2      OT      -0.834000       15.9994           0
     13224 TIP3     1103     TIP3     H1       HT       0.417000       1.00800           0
     13225 TIP3     1103     TIP3     H2       HT       0.417000       1.00800           0
     13226 TIP3     1104     TIP3     OH2      OT      -0.834000       15.9994           0
     13227 TIP3     1104     TIP3     H1       HT       0.417000       1.00800           0
     13228 TIP3     1104     TIP3     H2       HT       0.417000       1.00800           0
     13229 TIP3     1105     TIP3     OH2      OT      -0.834000       15.9994           0
     13230 TIP3     1105     TIP3     H1       HT       0.417000       1.00800           0
     13231 TIP3     1105     TIP3     H2       HT       0.417000       1.00800           0
     13232 TIP3     1106     TIP3     OH2      OT      -0.834000       15.9994           0
     13233 TIP3     1106     TIP3     H1       HT       0.417000       1.00800           0
     13234 TIP3     1106     TIP3     H2       HT       0.417000       1.00800           0
     13235 TIP3     1107     TIP3     OH2      OT      -0.834000       15.9994           0
     13236 TIP3     1107     TIP3     H1       HT       0.417000       1.00800           0
     13237 TIP3     1107     TIP3     H2       HT       0.417000       1.00800           0
     13238 TIP3     1108     TIP3     OH2      OT      -0.834000       15.9994           0
     13239 TIP3     1108     TIP3     H1       HT       0.417000       1.00800           0
     13240 TIP3     1108     TIP3     H2       HT       0.417000       1.00800           0
     13241 TIP3     1109     TIP3     OH2      OT      -0.834000       15.9994           0
     13242 TIP3     1109     TIP3     H1       HT       0.417000       1.00800           0
     13243 TIP3     1109     TIP3     H2       HT       0.417000       1.00800           0
     13244 TIP3     1110     TIP3     OH2      OT      -0.834000       15.9994           0
     13245 TIP3     1110     TIP3     H1       HT       0.417000       1.00800           0
     13246 TIP3     1110     TIP3     H2       HT       0.417000       1.00800           0
     13247 TIP3     1111     TIP3     OH2      OT      -0.834000       15.9994           0
     13248 TIP3     1111     TIP3     H1       HT       0.417000       1.00800           0
     13249 TIP3     1111     TIP3     H2       HT       0.417000       1.00800           0
     13250 TIP3     1112     TIP3     OH2      OT      -0.834000       15.9994           0
     13251 TIP3     1112     TIP3     H1       HT       0.417000       1.00800           0
     13252 TIP3     1112     TIP3     H2       HT       0.417000       1.00800           0
     13253 TIP3     1113     TIP3     OH2      OT      -0.834000       15.9994           0
     13254 TIP3     1113     TIP3     H1       HT       0.417000       1.00800           0
     13255 TIP3     1113     TIP3     H2       HT       0.417000       1.00800           0
     13256 TIP3     1114     TIP3     OH2      OT      -0.834000       15.9994           0
     13257 TIP3     1114     TIP3     H1       HT       0.417000       1.00800           0
     13258 TIP3     1114     TIP3     H2       HT       0.417000       1.00800           0
     13259 TIP3     1115     TIP3     OH2      OT      -0.834000       15.9994           0
     13260 TIP3     1115     TIP3     H1       HT       0.417000       1.00800           0
     13261 TIP3     1115     TIP3     H2       HT       0.417000       1.00800           0
     13262 TIP3     1116     TIP3     OH2      OT      -0.834000       15.9994           0
     13263 TIP3     1116     TIP3     H1       HT       0.417000       1.00800           0
     13264 TIP3     1116     TIP3     H2       HT       0.417000       1.00800           0
     13265 TIP3     1117     TIP3     OH2      OT      -0.834000       15.9994           0
     13266 TIP3     1117     TIP3     H1       HT       0.417000       1.00800           0
     13267 TIP3     1117     TIP3     H2       HT       0.417000       1.00800           0
     13268 TIP3     1118     TIP3     OH2      OT      -0.834000       15.9994           0
     13269 TIP3     1118     TIP3     H1       HT       0.417000       1.00800           0
     13270 TIP3     1118     TIP3     H2       HT       0.417000       1.00800           0
     13271 TIP3     1119     TIP3     OH2      OT      -0.834000       15.9994           0
     13272 TIP3     1119     TIP3     H1       HT       0.417000       1.00800           0
     13273 TIP3     1119     TIP3     H2       HT       0.417000       1.00800           0
     13274 TIP3     1120     TIP3     OH2      OT      -0.834000       15.9994           0
     13275 TIP3     1120     TIP3     H1       HT       0.417000       1.00800           0
     13276 TIP3     1120     TIP3     H2       HT       0.417000       1.00800           0
     13277 TIP3     1121     TIP3     OH2      OT      -0.834000       15.9994           0
     13278 TIP3     1121     TIP3     H1       HT       0.417000       1.00800           0
     13279 TIP3     1121     TIP3     H2       HT       0.417000       1.00800           0
     13280 TIP3     1122     TIP3     OH2      OT      -0.834000       15.9994           0
     13281 TIP3     1122     TIP3     H1       HT       0.417000       1.00800           0
     13282 TIP3     1122     TIP3     H2       HT       0.417000       1.00800           0
     13283 TIP3     1123     TIP3     OH2      OT      -0.834000       15.9994           0
     13284 TIP3     1123     TIP3     H1       HT       0.417000       1.00800           0
     13285 TIP3     1123     TIP3     H2       HT       0.417000       1.00800           0
     13286 TIP3     1124     TIP3     OH2      OT      -0.834000       15.9994           0
     13287 TIP3     1124     TIP3     H1       HT       0.417000       1.00800           0
     13288 TIP3     1124     TIP3     H2       HT       0.417000       1.00800           0
     13289 TIP3     1125     TIP3     OH2      OT      -0.834000       15.9994           0
     13290 TIP3     1125     TIP3     H1       HT       0.417000       1.00800           0
     13291 TIP3     1125     TIP3     H2       HT       0.417000       1.00800           0
     13292 TIP3     1126     TIP3     OH2      OT      -0.834000       15.9994           0
     13293 TIP3     1126     TIP3     H1       HT       0.417000       1.00800           0
     13294 TIP3     1126     TIP3     H2       HT       0.417000       1.00800           0
     13295 TIP3     1127     TIP3     OH2      OT      -0.834000       15.9994           0
     13296 TIP3     1127     TIP3     H1       HT       0.417000       1.00800           0
     13297 TIP3     1127     TIP3     H2       HT       0.417000       1.00800           0
     13298 TIP3     1128     TIP3     OH2      OT      -0.834000       15.9994           0
     13299 TIP3     1128     TIP3     H1       HT       0.417000       1.00800           0
     13300 TIP3     1128     TIP3     H2       HT       0.417000       1.00800           0
     13301 TIP3     1129     TIP3     OH2      OT      -0.834000       15.9994           0
     13302 TIP3     1129     TIP3     H1       HT       0.417000       1.00800           0
     13303 TIP3     1129     TIP3     H2       HT       0.417000       1.00800           0
     13304 TIP3     1130     TIP3     OH2      OT      -0.834000       15.9994           0
     13305 TIP3     1130     TIP3     H1       HT       0.417000       1.00800           0
     13306 TIP3     1130     TIP3     H2       HT       0.417000       1.00800           0
     13307 TIP3     1131     TIP3     OH2      OT      -0.834000       15.9994           0
     13308 TIP3     1131     TIP3     H1       HT       0.417000       1.00800           0
     13309 TIP3     1131     TIP3     H2       HT       0.417000       1.00800           0
     13310 TIP3     1132     TIP3     OH2      OT      -0.834000       15.9994           0
     13311 TIP3     1132     TIP3     H1       HT       0.417000       1.00800           0
     13312 TIP3     1132     TIP3     H2       HT       0.417000       1.00800           0
     13313 TIP3     1133     TIP3     OH2      OT      -0.834000       15.9994           0
     13314 TIP3     1133     TIP3     H1       HT       0.417000       1.00800           0
     13315 TIP3     1133     TIP3     H2       HT       0.417000       1.00800           0
     13316 TIP3     1134     TIP3     OH2      OT      -0.834000       15.9994           0
     13317 TIP3     1134     TIP3     H1       HT       0.417000       1.00800           0
     13318 TIP3     1134     TIP3     H2       HT       0.417000       1.00800           0
     13319 TIP3     1135     TIP3     OH2      OT      -0.834000       15.9994           0
     13320 TIP3     1135     TIP3     H1       HT       0.417000       1.00800           0
     13321 TIP3     1135     TIP3     H2       HT       0.417000       1.00800           0
     13322 TIP3     1136     TIP3     OH2      OT      -0.834000       15.9994           0
     13323 TIP3     1136     TIP3     H1       HT       0.417000       1.00800           0
     13324 TIP3     1136     TIP3     H2       HT       0.417000       1.00800           0
     13325 TIP3     1137     TIP3     OH2      OT      -0.834000       15.9994           0
     13326 TIP3     1137     TIP3     H1       HT       0.417000       1.00800           0
     13327 TIP3     1137     TIP3     H2       HT       0.417000       1.00800           0
     13328 TIP3     1138     TIP3     OH2      OT      -0.834000       15.9994           0
     13329 TIP3     1138     TIP3     H1       HT       0.417000       1.00800           0
     13330 TIP3     1138     TIP3     H2       HT       0.417000       1.00800           0
     13331 TIP3     1139     TIP3     OH2      OT      -0.834000       15.9994           0
     13332 TIP3     1139     TIP3     H1       HT       0.417000       1.00800           0
     13333 TIP3     1139     TIP3     H2       HT       0.417000       1.00800           0
     13334 TIP3     1140     TIP3     OH2      OT      -0.834000       15.9994           0
     13335 TIP3     1140     TIP3     H1       HT       0.417000       1.00800           0
     13336 TIP3     1140     TIP3     H2       HT       0.417000       1.00800           0
     13337 TIP3     1141     TIP3     OH2      OT      -0.834000       15.9994           0
     13338 TIP3     1141     TIP3     H1       HT       0.417000       1.00800           0
     13339 TIP3     1141     TIP3     H2       HT       0.417000       1.00800           0
     13340 TIP3     1142     TIP3     OH2      OT      -0.834000       15.9994           0
     13341 TIP3     1142     TIP3     H1       HT       0.417000       1.00800           0
     13342 TIP3     1142     TIP3     H2       HT       0.417000       1.00800           0
     13343 TIP3     1143     TIP3     OH2      OT      -0.834000       15.9994           0
     13344 TIP3     1143     TIP3     H1       HT       0.417000       1.00800           0
     13345 TIP3     1143     TIP3     H2       HT       0.417000       1.00800           0
     13346 TIP3     1144     TIP3     OH2      OT      -0.834000       15.9994           0
     13347 TIP3     1144     TIP3     H1       HT       0.417000       1.00800           0
     13348 TIP3     1144     TIP3     H2       HT       0.417000       1.00800           0
     13349 TIP3     1145     TIP3     OH2      OT      -0.834000       15.9994           0
     13350 TIP3     1145     TIP3     H1       HT       0.417000       1.00800           0
     13351 TIP3     1145     TIP3     H2       HT       0.417000       1.00800           0
     13352 TIP3     1146     TIP3     OH2      OT      -0.834000       15.9994           0
     13353 TIP3     1146     TIP3     H1       HT       0.417000       1.00800           0
     13354 TIP3     1146     TIP3     H2       HT       0.417000       1.00800           0
     13355 TIP3     1147     TIP3     OH2      OT      -0.834000       15.9994           0
     13356 TIP3     1147     TIP3     H1       HT       0.417000       1.00800           0
     13357 TIP3     1147     TIP3     H2       HT       0.417000       1.00800           0
     13358 TIP3     1148     TIP3     OH2      OT      -0.834000       15.9994           0
     13359 TIP3     1148     TIP3     H1       HT       0.417000       1.00800           0
     13360 TIP3     1148     TIP3     H2       HT       0.417000       1.00800           0
     13361 TIP3     1149     TIP3     OH2      OT      -0.834000       15.9994           0
     13362 TIP3     1149     TIP3     H1       HT       0.417000       1.00800           0
     13363 TIP3     1149     TIP3     H2       HT       0.417000       1.00800           0
     13364 TIP3     1150     TIP3     OH2      OT      -0.834000       15.9994           0
     13365 TIP3     1150     TIP3     H1       HT       0.417000       1.00800           0
     13366 TIP3     1150     TIP3     H2       HT       0.417000       1.00800           0
     13367 TIP3     1151     TIP3     OH2      OT      -0.834000       15.9994           0
     13368 TIP3     1151     TIP3     H1       HT       0.417000       1.00800           0
     13369 TIP3     1151     TIP3     H2       HT       0.417000       1.00800           0
     13370 TIP3     1152     TIP3     OH2      OT      -0.834000       15.9994           0
     13371 TIP3     1152     TIP3     H1       HT       0.417000       1.00800           0
     13372 TIP3     1152     TIP3     H2       HT       0.417000       1.00800           0
     13373 TIP3     1153     TIP3     OH2      OT      -0.834000       15.9994           0
     13374 TIP3     1153     TIP3     H1       HT       0.417000       1.00800           0
     13375 TIP3     1153     TIP3     H2       HT       0.417000       1.00800           0
     13376 TIP3     1154     TIP3     OH2      OT      -0.834000       15.9994           0
     13377 TIP3     1154     TIP3     H1       HT       0.417000       1.00800           0
     13378 TIP3     1154     TIP3     H2       HT       0.417000       1.00800           0
     13379 TIP3     1155     TIP3     OH2      OT      -0.834000       15.9994           0
     13380 TIP3     1155     TIP3     H1       HT       0.417000       1.00800           0
     13381 TIP3     1155     TIP3     H2       HT       0.417000       1.00800           0
     13382 TIP3     1156     TIP3     OH2      OT      -0.834000       15.9994           0
     13383 TIP3     1156     TIP3     H1       HT       0.417000       1.00800           0
     13384 TIP3     1156     TIP3     H2       HT       0.417000       1.00800           0
     13385 TIP3     1157     TIP3     OH2      OT      -0.834000       15.9994           0
     13386 TIP3     1157     TIP3     H1       HT       0.417000       1.00800           0
     13387 TIP3     1157     TIP3     H2       HT       0.417000       1.00800           0
     13388 TIP3     1158     TIP3     OH2      OT      -0.834000       15.9994           0
     13389 TIP3     1158     TIP3     H1       HT       0.417000       1.00800           0
     13390 TIP3     1158     TIP3     H2       HT       0.417000       1.00800           0
     13391 TIP3     1159     TIP3     OH2      OT      -0.834000       15.9994           0
     13392 TIP3     1159     TIP3     H1       HT       0.417000       1.00800           0
     13393 TIP3     1159     TIP3     H2       HT       0.417000       1.00800           0
     13394 TIP3     1160     TIP3     OH2      OT      -0.834000       15.9994           0
     13395 TIP3     1160     TIP3     H1       HT       0.417000       1.00800           0
     13396 TIP3     1160     TIP3     H2       HT       0.417000       1.00800           0
     13397 TIP3     1161     TIP3     OH2      OT      -0.834000       15.9994           0
     13398 TIP3     1161     TIP3     H1       HT       0.417000       1.00800           0
     13399 TIP3     1161     TIP3     H2       HT       0.417000       1.00800           0
     13400 TIP3     1162     TIP3     OH2      OT      -0.834000       15.9994           0
     13401 TIP3     1162     TIP3     H1       HT       0.417000       1.00800           0
     13402 TIP3     1162     TIP3     H2       HT       0.417000       1.00800           0
     13403 TIP3     1163     TIP3     OH2      OT      -0.834000       15.9994           0
     13404 TIP3     1163     TIP3     H1       HT       0.417000       1.00800           0
     13405 TIP3     1163     TIP3     H2       HT       0.417000       1.00800           0
     13406 TIP3     1164     TIP3     OH2      OT      -0.834000       15.9994           0
     13407 TIP3     1164     TIP3     H1       HT       0.417000       1.00800           0
     13408 TIP3     1164     TIP3     H2       HT       0.417000       1.00800           0
     13409 TIP3     1165     TIP3     OH2      OT      -0.834000       15.9994           0
     13410 TIP3     1165     TIP3     H1       HT       0.417000       1.00800           0
     13411 TIP3     1165     TIP3     H2       HT       0.417000       1.00800           0
     13412 TIP3     1166     TIP3     OH2      OT      -0.834000       15.9994           0
     13413 TIP3     1166     TIP3     H1       HT       0.417000       1.00800           0
     13414 TIP3     1166     TIP3     H2       HT       0.417000       1.00800           0
     13415 TIP3     1167     TIP3     OH2      OT      -0.834000       15.9994           0
     13416 TIP3     1167     TIP3     H1       HT       0.417000       1.00800           0
     13417 TIP3     1167     TIP3     H2       HT       0.417000       1.00800           0
     13418 TIP3     1168     TIP3     OH2      OT      -0.834000       15.9994           0
     13419 TIP3     1168     TIP3     H1       HT       0.417000       1.00800           0
     13420 TIP3     1168     TIP3     H2       HT       0.417000       1.00800           0
     13421 TIP3     1169     TIP3     OH2      OT      -0.834000       15.9994           0
     13422 TIP3     1169     TIP3     H1       HT       0.417000       1.00800           0
     13423 TIP3     1169     TIP3     H2       HT       0.417000       1.00800           0
     13424 TIP3     1170     TIP3     OH2      OT      -0.834000       15.9994           0
     13425 TIP3     1170     TIP3     H1       HT       0.417000       1.00800           0
     13426 TIP3     1170     TIP3     H2       HT       0.417000       1.00800           0
     13427 TIP3     1171     TIP3     OH2      OT      -0.834000       15.9994           0
     13428 TIP3     1171     TIP3     H1       HT       0.417000       1.00800           0
     13429 TIP3     1171     TIP3     H2       HT       0.417000       1.00800           0
     13430 TIP3     1172     TIP3     OH2      OT      -0.834000       15.9994           0
     13431 TIP3     1172     TIP3     H1       HT       0.417000       1.00800           0
     13432 TIP3     1172     TIP3     H2       HT       0.417000       1.00800           0
     13433 TIP3     1173     TIP3     OH2      OT      -0.834000       15.9994           0
     13434 TIP3     1173     TIP3     H1       HT       0.417000       1.00800           0
     13435 TIP3     1173     TIP3     H2       HT       0.417000       1.00800           0
     13436 TIP3     1174     TIP3     OH2      OT      -0.834000       15.9994           0
     13437 TIP3     1174     TIP3     H1       HT       0.417000       1.00800           0
     13438 TIP3     1174     TIP3     H2       HT       0.417000       1.00800           0
     13439 TIP3     1175     TIP3     OH2      OT      -0.834000       15.9994           0
     13440 TIP3     1175     TIP3     H1       HT       0.417000       1.00800           0
     13441 TIP3     1175     TIP3     H2       HT       0.417000       1.00800           0
     13442 TIP3     1176     TIP3     OH2      OT      -0.834000       15.9994           0
     13443 TIP3     1176     TIP3     H1       HT       0.417000       1.00800           0
     13444 TIP3     1176     TIP3     H2       HT       0.417000       1.00800           0
     13445 TIP3     1177     TIP3     OH2      OT      -0.834000       15.9994           0
     13446 TIP3     1177     TIP3     H1       HT       0.417000       1.00800           0
     13447 TIP3     1177     TIP3     H2       HT       0.417000       1.00800           0
     13448 TIP3     1178     TIP3     OH2      OT      -0.834000       15.9994           0
     13449 TIP3     1178     TIP3     H1       HT       0.417000       1.00800           0
     13450 TIP3     1178     TIP3     H2       HT       0.417000       1.00800           0
     13451 TIP3     1179     TIP3     OH2      OT      -0.834000       15.9994           0
     13452 TIP3     1179     TIP3     H1       HT       0.417000       1.00800           0
     13453 TIP3     1179     TIP3     H2       HT       0.417000       1.00800           0
     13454 TIP3     1180     TIP3     OH2      OT      -0.834000       15.9994           0
     13455 TIP3     1180     TIP3     H1       HT       0.417000       1.00800           0
     13456 TIP3     1180     TIP3     H2       HT       0.417000       1.00800           0
     13457 TIP3     1181     TIP3     OH2      OT      -0.834000       15.9994           0
     13458 TIP3     1181     TIP3     H1       HT       0.417000       1.00800           0
     13459 TIP3     1181     TIP3     H2       HT       0.417000       1.00800           0
     13460 TIP3     1182     TIP3     OH2      OT      -0.834000       15.9994           0
     13461 TIP3     1182     TIP3     H1       HT       0.417000       1.00800           0
     13462 TIP3     1182     TIP3     H2       HT       0.417000       1.00800           0
     13463 TIP3     1183     TIP3     OH2      OT      -0.834000       15.9994           0
     13464 TIP3     1183     TIP3     H1       HT       0.417000       1.00800           0
     13465 TIP3     1183     TIP3     H2       HT       0.417000       1.00800           0
     13466 TIP3     1184     TIP3     OH2      OT      -0.834000       15.9994           0
     13467 TIP3     1184     TIP3     H1       HT       0.417000       1.00800           0
     13468 TIP3     1184     TIP3     H2       HT       0.417000       1.00800           0
     13469 TIP3     1185     TIP3     OH2      OT      -0.834000       15.9994           0
     13470 TIP3     1185     TIP3     H1       HT       0.417000       1.00800           0
     13471 TIP3     1185     TIP3     H2       HT       0.417000       1.00800           0
     13472 TIP3     1186     TIP3     OH2      OT      -0.834000       15.9994           0
     13473 TIP3     1186     TIP3     H1       HT       0.417000       1.00800           0
     13474 TIP3     1186     TIP3     H2       HT       0.417000       1.00800           0
     13475 TIP3     1187     TIP3     OH2      OT      -0.834000       15.9994           0
     13476 TIP3     1187     TIP3     H1       HT       0.417000       1.00800           0
     13477 TIP3     1187     TIP3     H2       HT       0.417000       1.00800           0
     13478 TIP3     1188     TIP3     OH2      OT      -0.834000       15.9994           0
     13479 TIP3     1188     TIP3     H1       HT       0.417000       1.00800           0
     13480 TIP3     1188     TIP3     H2       HT       0.417000       1.00800           0
     13481 TIP3     1189     TIP3     OH2      OT      -0.834000       15.9994           0
     13482 TIP3     1189     TIP3     H1       HT       0.417000       1.00800           0
     13483 TIP3     1189     TIP3     H2       HT       0.417000       1.00800           0
     13484 TIP3     1190     TIP3     OH2      OT      -0.834000       15.9994           0
     13485 TIP3     1190     TIP3     H1       HT       0.417000       1.00800           0
     13486 TIP3     1190     TIP3     H2       HT       0.417000       1.00800           0
     13487 TIP3     1191     TIP3     OH2      OT      -0.834000       15.9994           0
     13488 TIP3     1191     TIP3     H1       HT       0.417000       1.00800           0
     13489 TIP3     1191     TIP3     H2       HT       0.417000       1.00800           0
     13490 TIP3     1192     TIP3     OH2      OT      -0.834000       15.9994           0
     13491 TIP3     1192     TIP3     H1       HT       0.417000       1.00800           0
     13492 TIP3     1192     TIP3     H2       HT       0.417000       1.00800           0
     13493 TIP3     1193     TIP3     OH2      OT      -0.834000       15.9994           0
     13494 TIP3     1193     TIP3     H1       HT       0.417000       1.00800           0
     13495 TIP3     1193     TIP3     H2       HT       0.417000       1.00800           0
     13496 TIP3     1194     TIP3     OH2      OT      -0.834000       15.9994           0
     13497 TIP3     1194     TIP3     H1       HT       0.417000       1.00800           0
     13498 TIP3     1194     TIP3     H2       HT       0.417000       1.00800           0
     13499 TIP3     1195     TIP3     OH2      OT      -0.834000       15.9994           0
     13500 TIP3     1195     TIP3     H1       HT       0.417000       1.00800           0
     13501 TIP3     1195     TIP3     H2       HT       0.417000       1.00800           0
     13502 TIP3     1196     TIP3     OH2      OT      -0.834000       15.9994           0
     13503 TIP3     1196     TIP3     H1       HT       0.417000       1.00800           0
     13504 TIP3     1196     TIP3     H2       HT       0.417000       1.00800           0
     13505 TIP3     1197     TIP3     OH2      OT      -0.834000       15.9994           0
     13506 TIP3     1197     TIP3     H1       HT       0.417000       1.00800           0
     13507 TIP3     1197     TIP3     H2       HT       0.417000       1.00800           0
     13508 TIP3     1198     TIP3     OH2      OT      -0.834000       15.9994           0
     13509 TIP3     1198     TIP3     H1       HT       0.417000       1.00800           0
     13510 TIP3     1198     TIP3     H2       HT       0.417000       1.00800           0
     13511 TIP3     1199     TIP3     OH2      OT      -0.834000       15.9994           0
     13512 TIP3     1199     TIP3     H1       HT       0.417000       1.00800           0
     13513 TIP3     1199     TIP3     H2       HT       0.417000       1.00800           0
     13514 TIP3     1200     TIP3     OH2      OT      -0.834000       15.9994           0
     13515 TIP3     1200     TIP3     H1       HT       0.417000       1.00800           0
     13516 TIP3     1200     TIP3     H2       HT       0.417000       1.00800           0
     13517 TIP3     1201     TIP3     OH2      OT      -0.834000       15.9994           0
     13518 TIP3     1201     TIP3     H1       HT       0.417000       1.00800           0
     13519 TIP3     1201     TIP3     H2       HT       0.417000       1.00800           0
     13520 TIP3     1202     TIP3     OH2      OT      -0.834000       15.9994           0
     13521 TIP3     1202     TIP3     H1       HT       0.417000       1.00800           0
     13522 TIP3     1202     TIP3     H2       HT       0.417000       1.00800           0
     13523 TIP3     1203     TIP3     OH2      OT      -0.834000       15.9994           0
     13524 TIP3     1203     TIP3     H1       HT       0.417000       1.00800           0
     13525 TIP3     1203     TIP3     H2       HT       0.417000       1.00800           0
     13526 TIP3     1204     TIP3     OH2      OT      -0.834000       15.9994           0
     13527 TIP3     1204     TIP3     H1       HT       0.417000       1.00800           0
     13528 TIP3     1204     TIP3     H2       HT       0.417000       1.00800           0
     13529 TIP3     1205     TIP3     OH2      OT      -0.834000       15.9994           0
     13530 TIP3     1205     TIP3     H1       HT       0.417000       1.00800           0
     13531 TIP3     1205     TIP3     H2       HT       0.417000       1.00800           0
     13532 TIP3     1206     TIP3     OH2      OT      -0.834000       15.9994           0
     13533 TIP3     1206     TIP3     H1       HT       0.417000       1.00800           0
     13534 TIP3     1206     TIP3     H2       HT       0.417000       1.00800           0
     13535 TIP3     1207     TIP3     OH2      OT      -0.834000       15.9994           0
     13536 TIP3     1207     TIP3     H1       HT       0.417000       1.00800           0
     13537 TIP3     1207     TIP3     H2       HT       0.417000       1.00800           0
     13538 TIP3     1208     TIP3     OH2      OT      -0.834000       15.9994           0
     13539 TIP3     1208     TIP3     H1       HT       0.417000       1.00800           0
     13540 TIP3     1208     TIP3     H2       HT       0.417000       1.00800           0
     13541 TIP3     1209     TIP3     OH2      OT      -0.834000       15.9994           0
     13542 TIP3     1209     TIP3     H1       HT       0.417000       1.00800           0
     13543 TIP3     1209     TIP3     H2       HT       0.417000       1.00800           0
     13544 TIP3     1210     TIP3     OH2      OT      -0.834000       15.9994           0
     13545 TIP3     1210     TIP3     H1       HT       0.417000       1.00800           0
     13546 TIP3     1210     TIP3     H2       HT       0.417000       1.00800           0
     13547 TIP3     1211     TIP3     OH2      OT      -0.834000       15.9994           0
     13548 TIP3     1211     TIP3     H1       HT       0.417000       1.00800           0
     13549 TIP3     1211     TIP3     H2       HT       0.417000       1.00800           0
     13550 TIP3     1212     TIP3     OH2      OT      -0.834000       15.9994           0
     13551 TIP3     1212     TIP3     H1       HT       0.417000       1.00800           0
     13552 TIP3     1212     TIP3     H2       HT       0.417000       1.00800           0
     13553 TIP3     1213     TIP3     OH2      OT      -0.834000       15.9994           0
     13554 TIP3     1213     TIP3     H1       HT       0.417000       1.00800           0
     13555 TIP3     1213     TIP3     H2       HT       0.417000       1.00800           0
     13556 TIP3     1214     TIP3     OH2      OT      -0.834000       15.9994           0
     13557 TIP3     1214     TIP3     H1       HT       0.417000       1.00800           0
     13558 TIP3     1214     TIP3     H2       HT       0.417000       1.00800           0
     13559 TIP3     1215     TIP3     OH2      OT      -0.834000       15.9994           0
     13560 TIP3     1215     TIP3     H1       HT       0.417000       1.00800           0
     13561 TIP3     1215     TIP3     H2       HT       0.417000       1.00800           0
     13562 TIP3     1216     TIP3     OH2      OT      -0.834000       15.9994           0
     13563 TIP3     1216     TIP3     H1       HT       0.417000       1.00800           0
     13564 TIP3     1216     TIP3     H2       HT       0.417000       1.00800           0
     13565 TIP3     1217     TIP3     OH2      OT      -0.834000       15.9994           0
     13566 TIP3     1217     TIP3     H1       HT       0.417000       1.00800           0
     13567 TIP3     1217     TIP3     H2       HT       0.417000       1.00800           0
     13568 TIP3     1218     TIP3     OH2      OT      -0.834000       15.9994           0
     13569 TIP3     1218     TIP3     H1       HT       0.417000       1.00800           0
     13570 TIP3     1218     TIP3     H2       HT       0.417000       1.00800           0
     13571 TIP3     1219     TIP3     OH2      OT      -0.834000       15.9994           0
     13572 TIP3     1219     TIP3     H1       HT       0.417000       1.00800           0
     13573 TIP3     1219     TIP3     H2       HT       0.417000       1.00800           0
     13574 TIP3     1220     TIP3     OH2      OT      -0.834000       15.9994           0
     13575 TIP3     1220     TIP3     H1       HT       0.417000       1.00800           0
     13576 TIP3     1220     TIP3     H2       HT       0.417000       1.00800           0
     13577 TIP3     1221     TIP3     OH2      OT      -0.834000       15.9994           0
     13578 TIP3     1221     TIP3     H1       HT       0.417000       1.00800           0
     13579 TIP3     1221     TIP3     H2       HT       0.417000       1.00800           0
     13580 TIP3     1222     TIP3     OH2      OT      -0.834000       15.9994           0
     13581 TIP3     1222     TIP3     H1       HT       0.417000       1.00800           0
     13582 TIP3     1222     TIP3     H2       HT       0.417000       1.00800           0
     13583 TIP3     1223     TIP3     OH2      OT      -0.834000       15.9994           0
     13584 TIP3     1223     TIP3     H1       HT       0.417000       1.00800           0
     13585 TIP3     1223     TIP3     H2       HT       0.417000       1.00800           0
     13586 TIP3     1224     TIP3     OH2      OT      -0.834000       15.9994           0
     13587 TIP3     1224     TIP3     H1       HT       0.417000       1.00800           0
     13588 TIP3     1224     TIP3     H2       HT       0.417000       1.00800           0
     13589 TIP3     1225     TIP3     OH2      OT      -0.834000       15.9994           0
     13590 TIP3     1225     TIP3     H1       HT       0.417000       1.00800           0
     13591 TIP3     1225     TIP3     H2       HT       0.417000       1.00800           0
     13592 TIP3     1226     TIP3     OH2      OT      -0.834000       15.9994           0
     13593 TIP3     1226     TIP3     H1       HT       0.417000       1.00800           0
     13594 TIP3     1226     TIP3     H2       HT       0.417000       1.00800           0
     13595 TIP3     1227     TIP3     OH2      OT      -0.834000       15.9994           0
     13596 TIP3     1227     TIP3     H1       HT       0.417000       1.00800           0
     13597 TIP3     1227     TIP3     H2       HT       0.417000       1.00800           0
     13598 TIP3     1228     TIP3     OH2      OT      -0.834000       15.9994           0
     13599 TIP3     1228     TIP3     H1       HT       0.417000       1.00800           0
     13600 TIP3     1228     TIP3     H2       HT       0.417000       1.00800           0
     13601 TIP3     1229     TIP3     OH2      OT      -0.834000       15.9994           0
     13602 TIP3     1229     TIP3     H1       HT       0.417000       1.00800           0
     13603 TIP3     1229     TIP3     H2       HT       0.417000       1.00800           0
     13604 TIP3     1230     TIP3     OH2      OT      -0.834000       15.9994           0
     13605 TIP3     1230     TIP3     H1       HT       0.417000       1.00800           0
     13606 TIP3     1230     TIP3     H2       HT       0.417000       1.00800           0
     13607 TIP3     1231     TIP3     OH2      OT      -0.834000       15.9994           0
     13608 TIP3     1231     TIP3     H1       HT       0.417000       1.00800           0
     13609 TIP3     1231     TIP3     H2       HT       0.417000       1.00800           0
     13610 TIP3     1232     TIP3     OH2      OT      -0.834000       15.9994           0
     13611 TIP3     1232     TIP3     H1       HT       0.417000       1.00800           0
     13612 TIP3     1232     TIP3     H2       HT       0.417000       1.00800           0
     13613 TIP3     1233     TIP3     OH2      OT      -0.834000       15.9994           0
     13614 TIP3     1233     TIP3     H1       HT       0.417000       1.00800           0
     13615 TIP3     1233     TIP3     H2       HT       0.417000       1.00800           0
     13616 TIP3     1234     TIP3     OH2      OT      -0.834000       15.9994           0
     13617 TIP3     1234     TIP3     H1       HT       0.417000       1.00800           0
     13618 TIP3     1234     TIP3     H2       HT       0.417000       1.00800           0
     13619 TIP3     1235     TIP3     OH2      OT      -0.834000       15.9994           0
     13620 TIP3     1235     TIP3     H1       HT       0.417000       1.00800           0
     13621 TIP3     1235     TIP3     H2       HT       0.417000       1.00800           0
     13622 TIP3     1236     TIP3     OH2      OT      -0.834000       15.9994           0
     13623 TIP3     1236     TIP3     H1       HT       0.417000       1.00800           0
     13624 TIP3     1236     TIP3     H2       HT       0.417000       1.00800           0
     13625 TIP3     1237     TIP3     OH2      OT      -0.834000       15.9994           0
     13626 TIP3     1237     TIP3     H1       HT       0.417000       1.00800           0
     13627 TIP3     1237     TIP3     H2       HT       0.417000       1.00800           0
     13628 TIP3     1238     TIP3     OH2      OT      -0.834000       15.9994           0
     13629 TIP3     1238     TIP3     H1       HT       0.417000       1.00800           0
     13630 TIP3     1238     TIP3     H2       HT       0.417000       1.00800           0
     13631 TIP3     1239     TIP3     OH2      OT      -0.834000       15.9994           0
     13632 TIP3     1239     TIP3     H1       HT       0.417000       1.00800           0
     13633 TIP3     1239     TIP3     H2       HT       0.417000       1.00800           0
     13634 TIP3     1240     TIP3     OH2      OT      -0.834000       15.9994           0
     13635 TIP3     1240     TIP3     H1       HT       0.417000       1.00800           0
     13636 TIP3     1240     TIP3     H2       HT       0.417000       1.00800           0
     13637 TIP3     1241     TIP3     OH2      OT      -0.834000       15.9994           0
     13638 TIP3     1241     TIP3     H1       HT       0.417000       1.00800           0
     13639 TIP3     1241     TIP3     H2       HT       0.417000       1.00800           0
     13640 TIP3     1242     TIP3     OH2      OT      -0.834000       15.9994           0
     13641 TIP3     1242     TIP3     H1       HT       0.417000       1.00800           0
     13642 TIP3     1242     TIP3     H2       HT       0.417000       1.00800           0
     13643 TIP3     1243     TIP3     OH2      OT      -0.834000       15.9994           0
     13644 TIP3     1243     TIP3     H1       HT       0.417000       1.00800           0
     13645 TIP3     1243     TIP3     H2       HT       0.417000       1.00800           0
     13646 TIP3     1244     TIP3     OH2      OT      -0.834000       15.9994           0
     13647 TIP3     1244     TIP3     H1       HT       0.417000       1.00800           0
     13648 TIP3     1244     TIP3     H2       HT       0.417000       1.00800           0
     13649 TIP3     1245     TIP3     OH2      OT      -0.834000       15.9994           0
     13650 TIP3     1245     TIP3     H1       HT       0.417000       1.00800           0
     13651 TIP3     1245     TIP3     H2       HT       0.417000       1.00800           0
     13652 TIP3     1246     TIP3     OH2      OT      -0.834000       15.9994           0
     13653 TIP3     1246     TIP3     H1       HT       0.417000       1.00800           0
     13654 TIP3     1246     TIP3     H2       HT       0.417000       1.00800           0
     13655 TIP3     1247     TIP3     OH2      OT      -0.834000       15.9994           0
     13656 TIP3     1247     TIP3     H1       HT       0.417000       1.00800           0
     13657 TIP3     1247     TIP3     H2       HT       0.417000       1.00800           0
     13658 TIP3     1248     TIP3     OH2      OT      -0.834000       15.9994           0
     13659 TIP3     1248     TIP3     H1       HT       0.417000       1.00800           0
     13660 TIP3     1248     TIP3     H2       HT       0.417000       1.00800           0
     13661 TIP3     1249     TIP3     OH2      OT      -0.834000       15.9994           0
     13662 TIP3     1249     TIP3     H1       HT       0.417000       1.00800           0
     13663 TIP3     1249     TIP3     H2       HT       0.417000       1.00800           0
     13664 TIP3     1250     TIP3     OH2      OT      -0.834000       15.9994           0
     13665 TIP3     1250     TIP3     H1       HT       0.417000       1.00800           0
     13666 TIP3     1250     TIP3     H2       HT       0.417000       1.00800           0
     13667 TIP3     1251     TIP3     OH2      OT      -0.834000       15.9994           0
     13668 TIP3     1251     TIP3     H1       HT       0.417000       1.00800           0
     13669 TIP3     1251     TIP3     H2       HT       0.417000       1.00800           0
     13670 TIP3     1252     TIP3     OH2      OT      -0.834000       15.9994           0
     13671 TIP3     1252     TIP3     H1       HT       0.417000       1.00800           0
     13672 TIP3     1252     TIP3     H2       HT       0.417000       1.00800           0
     13673 TIP3     1253     TIP3     OH2      OT      -0.834000       15.9994           0
     13674 TIP3     1253     TIP3     H1       HT       0.417000       1.00800           0
     13675 TIP3     1253     TIP3     H2       HT       0.417000       1.00800           0
     13676 TIP3     1254     TIP3     OH2      OT      -0.834000       15.9994           0
     13677 TIP3     1254     TIP3     H1       HT       0.417000       1.00800           0
     13678 TIP3     1254     TIP3     H2       HT       0.417000       1.00800           0
     13679 TIP3     1255     TIP3     OH2      OT      -0.834000       15.9994           0
     13680 TIP3     1255     TIP3     H1       HT       0.417000       1.00800           0
     13681 TIP3     1255     TIP3     H2       HT       0.417000       1.00800           0
     13682 TIP3     1256     TIP3     OH2      OT      -0.834000       15.9994           0
     13683 TIP3     1256     TIP3     H1       HT       0.417000       1.00800           0
     13684 TIP3     1256     TIP3     H2       HT       0.417000       1.00800           0
     13685 TIP3     1257     TIP3     OH2      OT      -0.834000       15.9994           0
     13686 TIP3     1257     TIP3     H1       HT       0.417000       1.00800           0
     13687 TIP3     1257     TIP3     H2       HT       0.417000       1.00800           0
     13688 TIP3     1258     TIP3     OH2      OT      -0.834000       15.9994           0
     13689 TIP3     1258     TIP3     H1       HT       0.417000       1.00800           0
     13690 TIP3     1258     TIP3     H2       HT       0.417000       1.00800           0
     13691 TIP3     1259     TIP3     OH2      OT      -0.834000       15.9994           0
     13692 TIP3     1259     TIP3     H1       HT       0.417000       1.00800           0
     13693 TIP3     1259     TIP3     H2       HT       0.417000       1.00800           0
     13694 TIP3     1260     TIP3     OH2      OT      -0.834000       15.9994           0
     13695 TIP3     1260     TIP3     H1       HT       0.417000       1.00800           0
     13696 TIP3     1260     TIP3     H2       HT       0.417000       1.00800           0
     13697 TIP3     1261     TIP3     OH2      OT      -0.834000       15.9994           0
     13698 TIP3     1261     TIP3     H1       HT       0.417000       1.00800           0
     13699 TIP3     1261     TIP3     H2       HT       0.417000       1.00800           0
     13700 TIP3     1262     TIP3     OH2      OT      -0.834000       15.9994           0
     13701 TIP3     1262     TIP3     H1       HT       0.417000       1.00800           0
     13702 TIP3     1262     TIP3     H2       HT       0.417000       1.00800           0
     13703 TIP3     1263     TIP3     OH2      OT      -0.834000       15.9994           0
     13704 TIP3     1263     TIP3     H1       HT       0.417000       1.00800           0
     13705 TIP3     1263     TIP3     H2       HT       0.417000       1.00800           0
     13706 TIP3     1264     TIP3     OH2      OT      -0.834000       15.9994           0
     13707 TIP3     1264     TIP3     H1       HT       0.417000       1.00800           0
     13708 TIP3     1264     TIP3     H2       HT       0.417000       1.00800           0
     13709 TIP3     1265     TIP3     OH2      OT      -0.834000       15.9994           0
     13710 TIP3     1265     TIP3     H1       HT       0.417000       1.00800           0
     13711 TIP3     1265     TIP3     H2       HT       0.417000       1.00800           0
     13712 TIP3     1266     TIP3     OH2      OT      -0.834000       15.9994           0
     13713 TIP3     1266     TIP3     H1       HT       0.417000       1.00800           0
     13714 TIP3     1266     TIP3     H2       HT       0.417000       1.00800           0
     13715 TIP3     1267     TIP3     OH2      OT      -0.834000       15.9994           0
     13716 TIP3     1267     TIP3     H1       HT       0.417000       1.00800           0
     13717 TIP3     1267     TIP3     H2       HT       0.417000       1.00800           0
     13718 TIP3     1268     TIP3     OH2      OT      -0.834000       15.9994           0
     13719 TIP3     1268     TIP3     H1       HT       0.417000       1.00800           0
     13720 TIP3     1268     TIP3     H2       HT       0.417000       1.00800           0
     13721 TIP3     1269     TIP3     OH2      OT      -0.834000       15.9994           0
     13722 TIP3     1269     TIP3     H1       HT       0.417000       1.00800           0
     13723 TIP3     1269     TIP3     H2       HT       0.417000       1.00800           0
     13724 TIP3     1270     TIP3     OH2      OT      -0.834000       15.9994           0
     13725 TIP3     1270     TIP3     H1       HT       0.417000       1.00800           0
     13726 TIP3     1270     TIP3     H2       HT       0.417000       1.00800           0
     13727 TIP3     1271     TIP3     OH2      OT      -0.834000       15.9994           0
     13728 TIP3     1271     TIP3     H1       HT       0.417000       1.00800           0
     13729 TIP3     1271     TIP3     H2       HT       0.417000       1.00800           0
     13730 TIP3     1272     TIP3     OH2      OT      -0.834000       15.9994           0
     13731 TIP3     1272     TIP3     H1       HT       0.417000       1.00800           0
     13732 TIP3     1272     TIP3     H2       HT       0.417000       1.00800           0
     13733 TIP3     1273     TIP3     OH2      OT      -0.834000       15.9994           0
     13734 TIP3     1273     TIP3     H1       HT       0.417000       1.00800           0
     13735 TIP3     1273     TIP3     H2       HT       0.417000       1.00800           0
     13736 TIP3     1274     TIP3     OH2      OT      -0.834000       15.9994           0
     13737 TIP3     1274     TIP3     H1       HT       0.417000       1.00800           0
     13738 TIP3     1274     TIP3     H2       HT       0.417000       1.00800           0
     13739 TIP3     1275     TIP3     OH2      OT      -0.834000       15.9994           0
     13740 TIP3     1275     TIP3     H1       HT       0.417000       1.00800           0
     13741 TIP3     1275     TIP3     H2       HT       0.417000       1.00800           0
     13742 TIP3     1276     TIP3     OH2      OT      -0.834000       15.9994           0
     13743 TIP3     1276     TIP3     H1       HT       0.417000       1.00800           0
     13744 TIP3     1276     TIP3     H2       HT       0.417000       1.00800           0
     13745 TIP3     1277     TIP3     OH2      OT      -0.834000       15.9994           0
     13746 TIP3     1277     TIP3     H1       HT       0.417000       1.00800           0
     13747 TIP3     1277     TIP3     H2       HT       0.417000       1.00800           0
     13748 TIP3     1278     TIP3     OH2      OT      -0.834000       15.9994           0
     13749 TIP3     1278     TIP3     H1       HT       0.417000       1.00800           0
     13750 TIP3     1278     TIP3     H2       HT       0.417000       1.00800           0
     13751 TIP3     1279     TIP3     OH2      OT      -0.834000       15.9994           0
     13752 TIP3     1279     TIP3     H1       HT       0.417000       1.00800           0
     13753 TIP3     1279     TIP3     H2       HT       0.417000       1.00800           0
     13754 TIP3     1280     TIP3     OH2      OT      -0.834000       15.9994           0
     13755 TIP3     1280     TIP3     H1       HT       0.417000       1.00800           0
     13756 TIP3     1280     TIP3     H2       HT       0.417000       1.00800           0
     13757 TIP3     1281     TIP3     OH2      OT      -0.834000       15.9994           0
     13758 TIP3     1281     TIP3     H1       HT       0.417000       1.00800           0
     13759 TIP3     1281     TIP3     H2       HT       0.417000       1.00800           0
     13760 TIP3     1282     TIP3     OH2      OT      -0.834000       15.9994           0
     13761 TIP3     1282     TIP3     H1       HT       0.417000       1.00800           0
     13762 TIP3     1282     TIP3     H2       HT       0.417000       1.00800           0
     13763 TIP3     1283     TIP3     OH2      OT      -0.834000       15.9994           0
     13764 TIP3     1283     TIP3     H1       HT       0.417000       1.00800           0
     13765 TIP3     1283     TIP3     H2       HT       0.417000       1.00800           0
     13766 TIP3     1284     TIP3     OH2      OT      -0.834000       15.9994           0
     13767 TIP3     1284     TIP3     H1       HT       0.417000       1.00800           0
     13768 TIP3     1284     TIP3     H2       HT       0.417000       1.00800           0
     13769 TIP3     1285     TIP3     OH2      OT      -0.834000       15.9994           0
     13770 TIP3     1285     TIP3     H1       HT       0.417000       1.00800           0
     13771 TIP3     1285     TIP3     H2       HT       0.417000       1.00800           0
     13772 TIP3     1286     TIP3     OH2      OT      -0.834000       15.9994           0
     13773 TIP3     1286     TIP3     H1       HT       0.417000       1.00800           0
     13774 TIP3     1286     TIP3     H2       HT       0.417000       1.00800           0
     13775 TIP3     1287     TIP3     OH2      OT      -0.834000       15.9994           0
     13776 TIP3     1287     TIP3     H1       HT       0.417000       1.00800           0
     13777 TIP3     1287     TIP3     H2       HT       0.417000       1.00800           0
     13778 TIP3     1288     TIP3     OH2      OT      -0.834000       15.9994           0
     13779 TIP3     1288     TIP3     H1       HT       0.417000       1.00800           0
     13780 TIP3     1288     TIP3     H2       HT       0.417000       1.00800           0
     13781 TIP3     1289     TIP3     OH2      OT      -0.834000       15.9994           0
     13782 TIP3     1289     TIP3     H1       HT       0.417000       1.00800           0
     13783 TIP3     1289     TIP3     H2       HT       0.417000       1.00800           0
     13784 TIP3     1290     TIP3     OH2      OT      -0.834000       15.9994           0
     13785 TIP3     1290     TIP3     H1       HT       0.417000       1.00800           0
     13786 TIP3     1290     TIP3     H2       HT       0.417000       1.00800           0
     13787 TIP3     1291     TIP3     OH2      OT      -0.834000       15.9994           0
     13788 TIP3     1291     TIP3     H1       HT       0.417000       1.00800           0
     13789 TIP3     1291     TIP3     H2       HT       0.417000       1.00800           0
     13790 TIP3     1292     TIP3     OH2      OT      -0.834000       15.9994           0
     13791 TIP3     1292     TIP3     H1       HT       0.417000       1.00800           0
     13792 TIP3     1292     TIP3     H2       HT       0.417000       1.00800           0
     13793 TIP3     1293     TIP3     OH2      OT      -0.834000       15.9994           0
     13794 TIP3     1293     TIP3     H1       HT       0.417000       1.00800           0
     13795 TIP3     1293     TIP3     H2       HT       0.417000       1.00800           0
     13796 TIP3     1294     TIP3     OH2      OT      -0.834000       15.9994           0
     13797 TIP3     1294     TIP3     H1       HT       0.417000       1.00800           0
     13798 TIP3     1294     TIP3     H2       HT       0.417000       1.00800           0
     13799 TIP3     1295     TIP3     OH2      OT      -0.834000       15.9994           0
     13800 TIP3     1295     TIP3     H1       HT       0.417000       1.00800           0
     13801 TIP3     1295     TIP3     H2       HT       0.417000       1.00800           0
     13802 TIP3     1296     TIP3     OH2      OT      -0.834000       15.9994           0
     13803 TIP3     1296     TIP3     H1       HT       0.417000       1.00800           0
     13804 TIP3     1296     TIP3     H2       HT       0.417000       1.00800           0
     13805 TIP3     1297     TIP3     OH2      OT      -0.834000       15.9994           0
     13806 TIP3     1297     TIP3     H1       HT       0.417000       1.00800           0
     13807 TIP3     1297     TIP3     H2       HT       0.417000       1.00800           0
     13808 TIP3     1298     TIP3     OH2      OT      -0.834000       15.9994           0
     13809 TIP3     1298     TIP3     H1       HT       0.417000       1.00800           0
     13810 TIP3     1298     TIP3     H2       HT       0.417000       1.00800           0
     13811 TIP3     1299     TIP3     OH2      OT      -0.834000       15.9994           0
     13812 TIP3     1299     TIP3     H1       HT       0.417000       1.00800           0
     13813 TIP3     1299     TIP3     H2       HT       0.417000       1.00800           0
     13814 TIP3     1300     TIP3     OH2      OT      -0.834000       15.9994           0
     13815 TIP3     1300     TIP3     H1       HT       0.417000       1.00800           0
     13816 TIP3     1300     TIP3     H2       HT       0.417000       1.00800           0
     13817 TIP3     1301     TIP3     OH2      OT      -0.834000       15.9994           0
     13818 TIP3     1301     TIP3     H1       HT       0.417000       1.00800           0
     13819 TIP3     1301     TIP3     H2       HT       0.417000       1.00800           0
     13820 TIP3     1302     TIP3     OH2      OT      -0.834000       15.9994           0
     13821 TIP3     1302     TIP3     H1       HT       0.417000       1.00800           0
     13822 TIP3     1302     TIP3     H2       HT       0.417000       1.00800           0
     13823 TIP3     1303     TIP3     OH2      OT      -0.834000       15.9994           0
     13824 TIP3     1303     TIP3     H1       HT       0.417000       1.00800           0
     13825 TIP3     1303     TIP3     H2       HT       0.417000       1.00800           0
     13826 TIP3     1304     TIP3     OH2      OT      -0.834000       15.9994           0
     13827 TIP3     1304     TIP3     H1       HT       0.417000       1.00800           0
     13828 TIP3     1304     TIP3     H2       HT       0.417000       1.00800           0
     13829 TIP3     1305     TIP3     OH2      OT      -0.834000       15.9994           0
     13830 TIP3     1305     TIP3     H1       HT       0.417000       1.00800           0
     13831 TIP3     1305     TIP3     H2       HT       0.417000       1.00800           0
     13832 TIP3     1306     TIP3     OH2      OT      -0.834000       15.9994           0
     13833 TIP3     1306     TIP3     H1       HT       0.417000       1.00800           0
     13834 TIP3     1306     TIP3     H2       HT       0.417000       1.00800           0
     13835 TIP3     1307     TIP3     OH2      OT      -0.834000       15.9994           0
     13836 TIP3     1307     TIP3     H1       HT       0.417000       1.00800           0
     13837 TIP3     1307     TIP3     H2       HT       0.417000       1.00800           0
     13838 TIP3     1308     TIP3     OH2      OT      -0.834000       15.9994           0
     13839 TIP3     1308     TIP3     H1       HT       0.417000       1.00800           0
     13840 TIP3     1308     TIP3     H2       HT       0.417000       1.00800           0
     13841 TIP3     1309     TIP3     OH2      OT      -0.834000       15.9994           0
     13842 TIP3     1309     TIP3     H1       HT       0.417000       1.00800           0
     13843 TIP3     1309     TIP3     H2       HT       0.417000       1.00800           0
     13844 TIP3     1310     TIP3     OH2      OT      -0.834000       15.9994           0
     13845 TIP3     1310     TIP3     H1       HT       0.417000       1.00800           0
     13846 TIP3     1310     TIP3     H2       HT       0.417000       1.00800           0
     13847 TIP3     1311     TIP3     OH2      OT      -0.834000       15.9994           0
     13848 TIP3     1311     TIP3     H1       HT       0.417000       1.00800           0
     13849 TIP3     1311     TIP3     H2       HT       0.417000       1.00800           0
     13850 TIP3     1312     TIP3     OH2      OT      -0.834000       15.9994           0
     13851 TIP3     1312     TIP3     H1       HT       0.417000       1.00800           0
     13852 TIP3     1312     TIP3     H2       HT       0.417000       1.00800           0
     13853 TIP3     1313     TIP3     OH2      OT      -0.834000       15.9994           0
     13854 TIP3     1313     TIP3     H1       HT       0.417000       1.00800           0
     13855 TIP3     1313     TIP3     H2       HT       0.417000       1.00800           0
     13856 TIP3     1314     TIP3     OH2      OT      -0.834000       15.9994           0
     13857 TIP3     1314     TIP3     H1       HT       0.417000       1.00800           0
     13858 TIP3     1314     TIP3     H2       HT       0.417000       1.00800           0
     13859 TIP3     1315     TIP3     OH2      OT      -0.834000       15.9994           0
     13860 TIP3     1315     TIP3     H1       HT       0.417000       1.00800           0
     13861 TIP3     1315     TIP3     H2       HT       0.417000       1.00800           0
     13862 TIP3     1316     TIP3     OH2      OT      -0.834000       15.9994           0
     13863 TIP3     1316     TIP3     H1       HT       0.417000       1.00800           0
     13864 TIP3     1316     TIP3     H2       HT       0.417000       1.00800           0
     13865 TIP3     1317     TIP3     OH2      OT      -0.834000       15.9994           0
     13866 TIP3     1317     TIP3     H1       HT       0.417000       1.00800           0
     13867 TIP3     1317     TIP3     H2       HT       0.417000       1.00800           0
     13868 TIP3     1318     TIP3     OH2      OT      -0.834000       15.9994           0
     13869 TIP3     1318     TIP3     H1       HT       0.417000       1.00800           0
     13870 TIP3     1318     TIP3     H2       HT       0.417000       1.00800           0
     13871 TIP3     1319     TIP3     OH2      OT      -0.834000       15.9994           0
     13872 TIP3     1319     TIP3     H1       HT       0.417000       1.00800           0
     13873 TIP3     1319     TIP3     H2       HT       0.417000       1.00800           0
     13874 TIP3     1320     TIP3     OH2      OT      -0.834000       15.9994           0
     13875 TIP3     1320     TIP3     H1       HT       0.417000       1.00800           0
     13876 TIP3     1320     TIP3     H2       HT       0.417000       1.00800           0
     13877 TIP3     1321     TIP3     OH2      OT      -0.834000       15.9994           0
     13878 TIP3     1321     TIP3     H1       HT       0.417000       1.00800           0
     13879 TIP3     1321     TIP3     H2       HT       0.417000       1.00800           0
     13880 TIP3     1322     TIP3     OH2      OT      -0.834000       15.9994           0
     13881 TIP3     1322     TIP3     H1       HT       0.417000       1.00800           0
     13882 TIP3     1322     TIP3     H2       HT       0.417000       1.00800           0
     13883 TIP3     1323     TIP3     OH2      OT      -0.834000       15.9994           0
     13884 TIP3     1323     TIP3     H1       HT       0.417000       1.00800           0
     13885 TIP3     1323     TIP3     H2       HT       0.417000       1.00800           0
     13886 TIP3     1324     TIP3     OH2      OT      -0.834000       15.9994           0
     13887 TIP3     1324     TIP3     H1       HT       0.417000       1.00800           0
     13888 TIP3     1324     TIP3     H2       HT       0.417000       1.00800           0
     13889 TIP3     1325     TIP3     OH2      OT      -0.834000       15.9994           0
     13890 TIP3     1325     TIP3     H1       HT       0.417000       1.00800           0
     13891 TIP3     1325     TIP3     H2       HT       0.417000       1.00800           0
     13892 TIP3     1326     TIP3     OH2      OT      -0.834000       15.9994           0
     13893 TIP3     1326     TIP3     H1       HT       0.417000       1.00800           0
     13894 TIP3     1326     TIP3     H2       HT       0.417000       1.00800           0
     13895 TIP3     1327     TIP3     OH2      OT      -0.834000       15.9994           0
     13896 TIP3     1327     TIP3     H1       HT       0.417000       1.00800           0
     13897 TIP3     1327     TIP3     H2       HT       0.417000       1.00800           0
     13898 TIP3     1328     TIP3     OH2      OT      -0.834000       15.9994           0
     13899 TIP3     1328     TIP3     H1       HT       0.417000       1.00800           0
     13900 TIP3     1328     TIP3     H2       HT       0.417000       1.00800           0
     13901 TIP3     1329     TIP3     OH2      OT      -0.834000       15.9994           0
     13902 TIP3     1329     TIP3     H1       HT       0.417000       1.00800           0
     13903 TIP3     1329     TIP3     H2       HT       0.417000       1.00800           0
     13904 TIP3     1330     TIP3     OH2      OT      -0.834000       15.9994           0
     13905 TIP3     1330     TIP3     H1       HT       0.417000       1.00800           0
     13906 TIP3     1330     TIP3     H2       HT       0.417000       1.00800           0
     13907 TIP3     1331     TIP3     OH2      OT      -0.834000       15.9994           0
     13908 TIP3     1331     TIP3     H1       HT       0.417000       1.00800           0
     13909 TIP3     1331     TIP3     H2       HT       0.417000       1.00800           0
     13910 TIP3     1332     TIP3     OH2      OT      -0.834000       15.9994           0
     13911 TIP3     1332     TIP3     H1       HT       0.417000       1.00800           0
     13912 TIP3     1332     TIP3     H2       HT       0.417000       1.00800           0
     13913 TIP3     1333     TIP3     OH2      OT      -0.834000       15.9994           0
     13914 TIP3     1333     TIP3     H1       HT       0.417000       1.00800           0
     13915 TIP3     1333     TIP3     H2       HT       0.417000       1.00800           0
     13916 TIP3     1334     TIP3     OH2      OT      -0.834000       15.9994           0
     13917 TIP3     1334     TIP3     H1       HT       0.417000       1.00800           0
     13918 TIP3     1334     TIP3     H2       HT       0.417000       1.00800           0
     13919 TIP3     1335     TIP3     OH2      OT      -0.834000       15.9994           0
     13920 TIP3     1335     TIP3     H1       HT       0.417000       1.00800           0
     13921 TIP3     1335     TIP3     H2       HT       0.417000       1.00800           0
     13922 TIP3     1336     TIP3     OH2      OT      -0.834000       15.9994           0
     13923 TIP3     1336     TIP3     H1       HT       0.417000       1.00800           0
     13924 TIP3     1336     TIP3     H2       HT       0.417000       1.00800           0
     13925 TIP3     1337     TIP3     OH2      OT      -0.834000       15.9994           0
     13926 TIP3     1337     TIP3     H1       HT       0.417000       1.00800           0
     13927 TIP3     1337     TIP3     H2       HT       0.417000       1.00800           0
     13928 TIP3     1338     TIP3     OH2      OT      -0.834000       15.9994           0
     13929 TIP3     1338     TIP3     H1       HT       0.417000       1.00800           0
     13930 TIP3     1338     TIP3     H2       HT       0.417000       1.00800           0
     13931 TIP3     1339     TIP3     OH2      OT      -0.834000       15.9994           0
     13932 TIP3     1339     TIP3     H1       HT       0.417000       1.00800           0
     13933 TIP3     1339     TIP3     H2       HT       0.417000       1.00800           0
     13934 TIP3     1340     TIP3     OH2      OT      -0.834000       15.9994           0
     13935 TIP3     1340     TIP3     H1       HT       0.417000       1.00800           0
     13936 TIP3     1340     TIP3     H2       HT       0.417000       1.00800           0
     13937 TIP3     1341     TIP3     OH2      OT      -0.834000       15.9994           0
     13938 TIP3     1341     TIP3     H1       HT       0.417000       1.00800           0
     13939 TIP3     1341     TIP3     H2       HT       0.417000       1.00800           0
     13940 TIP3     1342     TIP3     OH2      OT      -0.834000       15.9994           0
     13941 TIP3     1342     TIP3     H1       HT       0.417000       1.00800           0
     13942 TIP3     1342     TIP3     H2       HT       0.417000       1.00800           0
     13943 TIP3     1343     TIP3     OH2      OT      -0.834000       15.9994           0
     13944 TIP3     1343     TIP3     H1       HT       0.417000       1.00800           0
     13945 TIP3     1343     TIP3     H2       HT       0.417000       1.00800           0
     13946 TIP3     1344     TIP3     OH2      OT      -0.834000       15.9994           0
     13947 TIP3     1344     TIP3     H1       HT       0.417000       1.00800           0
     13948 TIP3     1344     TIP3     H2       HT       0.417000       1.00800           0
     13949 TIP3     1345     TIP3     OH2      OT      -0.834000       15.9994           0
     13950 TIP3     1345     TIP3     H1       HT       0.417000       1.00800           0
     13951 TIP3     1345     TIP3     H2       HT       0.417000       1.00800           0
     13952 TIP3     1346     TIP3     OH2      OT      -0.834000       15.9994           0
     13953 TIP3     1346     TIP3     H1       HT       0.417000       1.00800           0
     13954 TIP3     1346     TIP3     H2       HT       0.417000       1.00800           0
     13955 TIP3     1347     TIP3     OH2      OT      -0.834000       15.9994           0
     13956 TIP3     1347     TIP3     H1       HT       0.417000       1.00800           0
     13957 TIP3     1347     TIP3     H2       HT       0.417000       1.00800           0
     13958 TIP3     1348     TIP3     OH2      OT      -0.834000       15.9994           0
     13959 TIP3     1348     TIP3     H1       HT       0.417000       1.00800           0
     13960 TIP3     1348     TIP3     H2       HT       0.417000       1.00800           0
     13961 TIP3     1349     TIP3     OH2      OT      -0.834000       15.9994           0
     13962 TIP3     1349     TIP3     H1       HT       0.417000       1.00800           0
     13963 TIP3     1349     TIP3     H2       HT       0.417000       1.00800           0
     13964 TIP3     1350     TIP3     OH2      OT      -0.834000       15.9994           0
     13965 TIP3     1350     TIP3     H1       HT       0.417000       1.00800           0
     13966 TIP3     1350     TIP3     H2       HT       0.417000       1.00800           0
     13967 TIP3     1351     TIP3     OH2      OT      -0.834000       15.9994           0
     13968 TIP3     1351     TIP3     H1       HT       0.417000       1.00800           0
     13969 TIP3     1351     TIP3     H2       HT       0.417000       1.00800           0
     13970 TIP3     1352     TIP3     OH2      OT      -0.834000       15.9994           0
     13971 TIP3     1352     TIP3     H1       HT       0.417000       1.00800           0
     13972 TIP3     1352     TIP3     H2       HT       0.417000       1.00800           0
     13973 TIP3     1353     TIP3     OH2      OT      -0.834000       15.9994           0
     13974 TIP3     1353     TIP3     H1       HT       0.417000       1.00800           0
     13975 TIP3     1353     TIP3     H2       HT       0.417000       1.00800           0
     13976 TIP3     1354     TIP3     OH2      OT      -0.834000       15.9994           0
     13977 TIP3     1354     TIP3     H1       HT       0.417000       1.00800           0
     13978 TIP3     1354     TIP3     H2       HT       0.417000       1.00800           0
     13979 TIP3     1355     TIP3     OH2      OT      -0.834000       15.9994           0
     13980 TIP3     1355     TIP3     H1       HT       0.417000       1.00800           0
     13981 TIP3     1355     TIP3     H2       HT       0.417000       1.00800           0
     13982 TIP3     1356     TIP3     OH2      OT      -0.834000       15.9994           0
     13983 TIP3     1356     TIP3     H1       HT       0.417000       1.00800           0
     13984 TIP3     1356     TIP3     H2       HT       0.417000       1.00800           0
     13985 TIP3     1357     TIP3     OH2      OT      -0.834000       15.9994           0
     13986 TIP3     1357     TIP3     H1       HT       0.417000       1.00800           0
     13987 TIP3     1357     TIP3     H2       HT       0.417000       1.00800           0
     13988 TIP3     1358     TIP3     OH2      OT      -0.834000       15.9994           0
     13989 TIP3     1358     TIP3     H1       HT       0.417000       1.00800           0
     13990 TIP3     1358     TIP3     H2       HT       0.417000       1.00800           0
     13991 TIP3     1359     TIP3     OH2      OT      -0.834000       15.9994           0
     13992 TIP3     1359     TIP3     H1       HT       0.417000       1.00800           0
     13993 TIP3     1359     TIP3     H2       HT       0.417000       1.00800           0
     13994 TIP3     1360     TIP3     OH2      OT      -0.834000       15.9994           0
     13995 TIP3     1360     TIP3     H1       HT       0.417000       1.00800           0
     13996 TIP3     1360     TIP3     H2       HT       0.417000       1.00800           0
     13997 TIP3     1361     TIP3     OH2      OT      -0.834000       15.9994           0
     13998 TIP3     1361     TIP3     H1       HT       0.417000       1.00800           0
     13999 TIP3     1361     TIP3     H2       HT       0.417000       1.00800           0
     14000 TIP3     1362     TIP3     OH2      OT      -0.834000       15.9994           0
     14001 TIP3     1362     TIP3     H1       HT       0.417000       1.00800           0
     14002 TIP3     1362     TIP3     H2       HT       0.417000       1.00800           0
     14003 TIP3     1363     TIP3     OH2      OT      -0.834000       15.9994           0
     14004 TIP3     1363     TIP3     H1       HT       0.417000       1.00800           0
     14005 TIP3     1363     TIP3     H2       HT       0.417000       1.00800           0
     14006 TIP3     1364     TIP3     OH2      OT      -0.834000       15.9994           0
     14007 TIP3     1364     TIP3     H1       HT       0.417000       1.00800           0
     14008 TIP3     1364     TIP3     H2       HT       0.417000       1.00800           0
     14009 TIP3     1365     TIP3     OH2      OT      -0.834000       15.9994           0
     14010 TIP3     1365     TIP3     H1       HT       0.417000       1.00800           0
     14011 TIP3     1365     TIP3     H2       HT       0.417000       1.00800           0
     14012 TIP3     1366     TIP3     OH2      OT      -0.834000       15.9994           0
     14013 TIP3     1366     TIP3     H1       HT       0.417000       1.00800           0
     14014 TIP3     1366     TIP3     H2       HT       0.417000       1.00800           0
     14015 TIP3     1367     TIP3     OH2      OT      -0.834000       15.9994           0
     14016 TIP3     1367     TIP3     H1       HT       0.417000       1.00800           0
     14017 TIP3     1367     TIP3     H2       HT       0.417000       1.00800           0
     14018 TIP3     1368     TIP3     OH2      OT      -0.834000       15.9994           0
     14019 TIP3     1368     TIP3     H1       HT       0.417000       1.00800           0
     14020 TIP3     1368     TIP3     H2       HT       0.417000       1.00800           0
     14021 TIP3     1369     TIP3     OH2      OT      -0.834000       15.9994           0
     14022 TIP3     1369     TIP3     H1       HT       0.417000       1.00800           0
     14023 TIP3     1369     TIP3     H2       HT       0.417000       1.00800           0
     14024 TIP3     1370     TIP3     OH2      OT      -0.834000       15.9994           0
     14025 TIP3     1370     TIP3     H1       HT       0.417000       1.00800           0
     14026 TIP3     1370     TIP3     H2       HT       0.417000       1.00800           0
     14027 TIP3     1371     TIP3     OH2      OT      -0.834000       15.9994           0
     14028 TIP3     1371     TIP3     H1       HT       0.417000       1.00800           0
     14029 TIP3     1371     TIP3     H2       HT       0.417000       1.00800           0
     14030 TIP3     1372     TIP3     OH2      OT      -0.834000       15.9994           0
     14031 TIP3     1372     TIP3     H1       HT       0.417000       1.00800           0
     14032 TIP3     1372     TIP3     H2       HT       0.417000       1.00800           0
     14033 TIP3     1373     TIP3     OH2      OT      -0.834000       15.9994           0
     14034 TIP3     1373     TIP3     H1       HT       0.417000       1.00800           0
     14035 TIP3     1373     TIP3     H2       HT       0.417000       1.00800           0
     14036 TIP3     1374     TIP3     OH2      OT      -0.834000       15.9994           0
     14037 TIP3     1374     TIP3     H1       HT       0.417000       1.00800           0
     14038 TIP3     1374     TIP3     H2       HT       0.417000       1.00800           0
     14039 TIP3     1375     TIP3     OH2      OT      -0.834000       15.9994           0
     14040 TIP3     1375     TIP3     H1       HT       0.417000       1.00800           0
     14041 TIP3     1375     TIP3     H2       HT       0.417000       1.00800           0
     14042 TIP3     1376     TIP3     OH2      OT      -0.834000       15.9994           0
     14043 TIP3     1376     TIP3     H1       HT       0.417000       1.00800           0
     14044 TIP3     1376     TIP3     H2       HT       0.417000       1.00800           0
     14045 TIP3     1377     TIP3     OH2      OT      -0.834000       15.9994           0
     14046 TIP3     1377     TIP3     H1       HT       0.417000       1.00800           0
     14047 TIP3     1377     TIP3     H2       HT       0.417000       1.00800           0
     14048 TIP3     1378     TIP3     OH2      OT      -0.834000       15.9994           0
     14049 TIP3     1378     TIP3     H1       HT       0.417000       1.00800           0
     14050 TIP3     1378     TIP3     H2       HT       0.417000       1.00800           0
     14051 TIP3     1379     TIP3     OH2      OT      -0.834000       15.9994           0
     14052 TIP3     1379     TIP3     H1       HT       0.417000       1.00800           0
     14053 TIP3     1379     TIP3     H2       HT       0.417000       1.00800           0
     14054 TIP3     1380     TIP3     OH2      OT      -0.834000       15.9994           0
     14055 TIP3     1380     TIP3     H1       HT       0.417000       1.00800           0
     14056 TIP3     1380     TIP3     H2       HT       0.417000       1.00800           0
     14057 TIP3     1381     TIP3     OH2      OT      -0.834000       15.9994           0
     14058 TIP3     1381     TIP3     H1       HT       0.417000       1.00800           0
     14059 TIP3     1381     TIP3     H2       HT       0.417000       1.00800           0
     14060 TIP3     1382     TIP3     OH2      OT      -0.834000       15.9994           0
     14061 TIP3     1382     TIP3     H1       HT       0.417000       1.00800           0
     14062 TIP3     1382     TIP3     H2       HT       0.417000       1.00800           0
     14063 TIP3     1383     TIP3     OH2      OT      -0.834000       15.9994           0
     14064 TIP3     1383     TIP3     H1       HT       0.417000       1.00800           0
     14065 TIP3     1383     TIP3     H2       HT       0.417000       1.00800           0
     14066 TIP3     1384     TIP3     OH2      OT      -0.834000       15.9994           0
     14067 TIP3     1384     TIP3     H1       HT       0.417000       1.00800           0
     14068 TIP3     1384     TIP3     H2       HT       0.417000       1.00800           0
     14069 TIP3     1385     TIP3     OH2      OT      -0.834000       15.9994           0
     14070 TIP3     1385     TIP3     H1       HT       0.417000       1.00800           0
     14071 TIP3     1385     TIP3     H2       HT       0.417000       1.00800           0
     14072 TIP3     1386     TIP3     OH2      OT      -0.834000       15.9994           0
     14073 TIP3     1386     TIP3     H1       HT       0.417000       1.00800           0
     14074 TIP3     1386     TIP3     H2       HT       0.417000       1.00800           0
     14075 TIP3     1387     TIP3     OH2      OT      -0.834000       15.9994           0
     14076 TIP3     1387     TIP3     H1       HT       0.417000       1.00800           0
     14077 TIP3     1387     TIP3     H2       HT       0.417000       1.00800           0
     14078 TIP3     1388     TIP3     OH2      OT      -0.834000       15.9994           0
     14079 TIP3     1388     TIP3     H1       HT       0.417000       1.00800           0
     14080 TIP3     1388     TIP3     H2       HT       0.417000       1.00800           0
     14081 TIP3     1389     TIP3     OH2      OT      -0.834000       15.9994           0
     14082 TIP3     1389     TIP3     H1       HT       0.417000       1.00800           0
     14083 TIP3     1389     TIP3     H2       HT       0.417000       1.00800           0
     14084 TIP3     1390     TIP3     OH2      OT      -0.834000       15.9994           0
     14085 TIP3     1390     TIP3     H1       HT       0.417000       1.00800           0
     14086 TIP3     1390     TIP3     H2       HT       0.417000       1.00800           0
     14087 TIP3     1391     TIP3     OH2      OT      -0.834000       15.9994           0
     14088 TIP3     1391     TIP3     H1       HT       0.417000       1.00800           0
     14089 TIP3     1391     TIP3     H2       HT       0.417000       1.00800           0
     14090 TIP3     1392     TIP3     OH2      OT      -0.834000       15.9994           0
     14091 TIP3     1392     TIP3     H1       HT       0.417000       1.00800           0
     14092 TIP3     1392     TIP3     H2       HT       0.417000       1.00800           0
     14093 TIP3     1393     TIP3     OH2      OT      -0.834000       15.9994           0
     14094 TIP3     1393     TIP3     H1       HT       0.417000       1.00800           0
     14095 TIP3     1393     TIP3     H2       HT       0.417000       1.00800           0
     14096 TIP3     1394     TIP3     OH2      OT      -0.834000       15.9994           0
     14097 TIP3     1394     TIP3     H1       HT       0.417000       1.00800           0
     14098 TIP3     1394     TIP3     H2       HT       0.417000       1.00800           0
     14099 TIP3     1395     TIP3     OH2      OT      -0.834000       15.9994           0
     14100 TIP3     1395     TIP3     H1       HT       0.417000       1.00800           0
     14101 TIP3     1395     TIP3     H2       HT       0.417000       1.00800           0
     14102 TIP3     1396     TIP3     OH2      OT      -0.834000       15.9994           0
     14103 TIP3     1396     TIP3     H1       HT       0.417000       1.00800           0
     14104 TIP3     1396     TIP3     H2       HT       0.417000       1.00800           0
     14105 TIP3     1397     TIP3     OH2      OT      -0.834000       15.9994           0
     14106 TIP3     1397     TIP3     H1       HT       0.417000       1.00800           0
     14107 TIP3     1397     TIP3     H2       HT       0.417000       1.00800           0
     14108 TIP3     1398     TIP3     OH2      OT      -0.834000       15.9994           0
     14109 TIP3     1398     TIP3     H1       HT       0.417000       1.00800           0
     14110 TIP3     1398     TIP3     H2       HT       0.417000       1.00800           0
     14111 TIP3     1399     TIP3     OH2      OT      -0.834000       15.9994           0
     14112 TIP3     1399     TIP3     H1       HT       0.417000       1.00800           0
     14113 TIP3     1399     TIP3     H2       HT       0.417000       1.00800           0
     14114 TIP3     1400     TIP3     OH2      OT      -0.834000       15.9994           0
     14115 TIP3     1400     TIP3     H1       HT       0.417000       1.00800           0
     14116 TIP3     1400     TIP3     H2       HT       0.417000       1.00800           0
     14117 TIP3     1401     TIP3     OH2      OT      -0.834000       15.9994           0
     14118 TIP3     1401     TIP3     H1       HT       0.417000       1.00800           0
     14119 TIP3     1401     TIP3     H2       HT       0.417000       1.00800           0
     14120 TIP3     1402     TIP3     OH2      OT      -0.834000       15.9994           0
     14121 TIP3     1402     TIP3     H1       HT       0.417000       1.00800           0
     14122 TIP3     1402     TIP3     H2       HT       0.417000       1.00800           0
     14123 TIP3     1403     TIP3     OH2      OT      -0.834000       15.9994           0
     14124 TIP3     1403     TIP3     H1       HT       0.417000       1.00800           0
     14125 TIP3     1403     TIP3     H2       HT       0.417000       1.00800           0
     14126 TIP3     1404     TIP3     OH2      OT      -0.834000       15.9994           0
     14127 TIP3     1404     TIP3     H1       HT       0.417000       1.00800           0
     14128 TIP3     1404     TIP3     H2       HT       0.417000       1.00800           0
     14129 TIP3     1405     TIP3     OH2      OT      -0.834000       15.9994           0
     14130 TIP3     1405     TIP3     H1       HT       0.417000       1.00800           0
     14131 TIP3     1405     TIP3     H2       HT       0.417000       1.00800           0
     14132 TIP3     1406     TIP3     OH2      OT      -0.834000       15.9994           0
     14133 TIP3     1406     TIP3     H1       HT       0.417000       1.00800           0
     14134 TIP3     1406     TIP3     H2       HT       0.417000       1.00800           0
     14135 TIP3     1407     TIP3     OH2      OT      -0.834000       15.9994           0
     14136 TIP3     1407     TIP3     H1       HT       0.417000       1.00800           0
     14137 TIP3     1407     TIP3     H2       HT       0.417000       1.00800           0
     14138 TIP3     1408     TIP3     OH2      OT      -0.834000       15.9994           0
     14139 TIP3     1408     TIP3     H1       HT       0.417000       1.00800           0
     14140 TIP3     1408     TIP3     H2       HT       0.417000       1.00800           0
     14141 TIP3     1409     TIP3     OH2      OT      -0.834000       15.9994           0
     14142 TIP3     1409     TIP3     H1       HT       0.417000       1.00800           0
     14143 TIP3     1409     TIP3     H2       HT       0.417000       1.00800           0
     14144 TIP3     1410     TIP3     OH2      OT      -0.834000       15.9994           0
     14145 TIP3     1410     TIP3     H1       HT       0.417000       1.00800           0
     14146 TIP3     1410     TIP3     H2       HT       0.417000       1.00800           0
     14147 TIP3     1411     TIP3     OH2      OT      -0.834000       15.9994           0
     14148 TIP3     1411     TIP3     H1       HT       0.417000       1.00800           0
     14149 TIP3     1411     TIP3     H2       HT       0.417000       1.00800           0
     14150 TIP3     1412     TIP3     OH2      OT      -0.834000       15.9994           0
     14151 TIP3     1412     TIP3     H1       HT       0.417000       1.00800           0
     14152 TIP3     1412     TIP3     H2       HT       0.417000       1.00800           0
     14153 TIP3     1413     TIP3     OH2      OT      -0.834000       15.9994           0
     14154 TIP3     1413     TIP3     H1       HT       0.417000       1.00800           0
     14155 TIP3     1413     TIP3     H2       HT       0.417000       1.00800           0
     14156 TIP3     1414     TIP3     OH2      OT      -0.834000       15.9994           0
     14157 TIP3     1414     TIP3     H1       HT       0.417000       1.00800           0
     14158 TIP3     1414     TIP3     H2       HT       0.417000       1.00800           0
     14159 TIP3     1415     TIP3     OH2      OT      -0.834000       15.9994           0
     14160 TIP3     1415     TIP3     H1       HT       0.417000       1.00800           0
     14161 TIP3     1415     TIP3     H2       HT       0.417000       1.00800           0
     14162 TIP3     1416     TIP3     OH2      OT      -0.834000       15.9994           0
     14163 TIP3     1416     TIP3     H1       HT       0.417000       1.00800           0
     14164 TIP3     1416     TIP3     H2       HT       0.417000       1.00800           0
     14165 TIP3     1417     TIP3     OH2      OT      -0.834000       15.9994           0
     14166 TIP3     1417     TIP3     H1       HT       0.417000       1.00800           0
     14167 TIP3     1417     TIP3     H2       HT       0.417000       1.00800           0
     14168 TIP3     1418     TIP3     OH2      OT      -0.834000       15.9994           0
     14169 TIP3     1418     TIP3     H1       HT       0.417000       1.00800           0
     14170 TIP3     1418     TIP3     H2       HT       0.417000       1.00800           0
     14171 TIP3     1419     TIP3     OH2      OT      -0.834000       15.9994           0
     14172 TIP3     1419     TIP3     H1       HT       0.417000       1.00800           0
     14173 TIP3     1419     TIP3     H2       HT       0.417000       1.00800           0
     14174 TIP3     1420     TIP3     OH2      OT      -0.834000       15.9994           0
     14175 TIP3     1420     TIP3     H1       HT       0.417000       1.00800           0
     14176 TIP3     1420     TIP3     H2       HT       0.417000       1.00800           0
     14177 TIP3     1421     TIP3     OH2      OT      -0.834000       15.9994           0
     14178 TIP3     1421     TIP3     H1       HT       0.417000       1.00800           0
     14179 TIP3     1421     TIP3     H2       HT       0.417000       1.00800           0
     14180 TIP3     1422     TIP3     OH2      OT      -0.834000       15.9994           0
     14181 TIP3     1422     TIP3     H1       HT       0.417000       1.00800           0
     14182 TIP3     1422     TIP3     H2       HT       0.417000       1.00800           0
     14183 TIP3     1423     TIP3     OH2      OT      -0.834000       15.9994           0
     14184 TIP3     1423     TIP3     H1       HT       0.417000       1.00800           0
     14185 TIP3     1423     TIP3     H2       HT       0.417000       1.00800           0
     14186 TIP3     1424     TIP3     OH2      OT      -0.834000       15.9994           0
     14187 TIP3     1424     TIP3     H1       HT       0.417000       1.00800           0
     14188 TIP3     1424     TIP3     H2       HT       0.417000       1.00800           0
     14189 TIP3     1425     TIP3     OH2      OT      -0.834000       15.9994           0
     14190 TIP3     1425     TIP3     H1       HT       0.417000       1.00800           0
     14191 TIP3     1425     TIP3     H2       HT       0.417000       1.00800           0
     14192 TIP3     1426     TIP3     OH2      OT      -0.834000       15.9994           0
     14193 TIP3     1426     TIP3     H1       HT       0.417000       1.00800           0
     14194 TIP3     1426     TIP3     H2       HT       0.417000       1.00800           0
     14195 TIP3     1427     TIP3     OH2      OT      -0.834000       15.9994           0
     14196 TIP3     1427     TIP3     H1       HT       0.417000       1.00800           0
     14197 TIP3     1427     TIP3     H2       HT       0.417000       1.00800           0
     14198 TIP3     1428     TIP3     OH2      OT      -0.834000       15.9994           0
     14199 TIP3     1428     TIP3     H1       HT       0.417000       1.00800           0
     14200 TIP3     1428     TIP3     H2       HT       0.417000       1.00800           0
     14201 TIP3     1429     TIP3     OH2      OT      -0.834000       15.9994           0
     14202 TIP3     1429     TIP3     H1       HT       0.417000       1.00800           0
     14203 TIP3     1429     TIP3     H2       HT       0.417000       1.00800           0
     14204 TIP3     1430     TIP3     OH2      OT      -0.834000       15.9994           0
     14205 TIP3     1430     TIP3     H1       HT       0.417000       1.00800           0
     14206 TIP3     1430     TIP3     H2       HT       0.417000       1.00800           0
     14207 TIP3     1431     TIP3     OH2      OT      -0.834000       15.9994           0
     14208 TIP3     1431     TIP3     H1       HT       0.417000       1.00800           0
     14209 TIP3     1431     TIP3     H2       HT       0.417000       1.00800           0
     14210 TIP3     1432     TIP3     OH2      OT      -0.834000       15.9994           0
     14211 TIP3     1432     TIP3     H1       HT       0.417000       1.00800           0
     14212 TIP3     1432     TIP3     H2       HT       0.417000       1.00800           0
     14213 TIP3     1433     TIP3     OH2      OT      -0.834000       15.9994           0
     14214 TIP3     1433     TIP3     H1       HT       0.417000       1.00800           0
     14215 TIP3     1433     TIP3     H2       HT       0.417000       1.00800           0
     14216 TIP3     1434     TIP3     OH2      OT      -0.834000       15.9994           0
     14217 TIP3     1434     TIP3     H1       HT       0.417000       1.00800           0
     14218 TIP3     1434     TIP3     H2       HT       0.417000       1.00800           0
     14219 TIP3     1435     TIP3     OH2      OT      -0.834000       15.9994           0
     14220 TIP3     1435     TIP3     H1       HT       0.417000       1.00800           0
     14221 TIP3     1435     TIP3     H2       HT       0.417000       1.00800           0
     14222 TIP3     1436     TIP3     OH2      OT      -0.834000       15.9994           0
     14223 TIP3     1436     TIP3     H1       HT       0.417000       1.00800           0
     14224 TIP3     1436     TIP3     H2       HT       0.417000       1.00800           0
     14225 TIP3     1437     TIP3     OH2      OT      -0.834000       15.9994           0
     14226 TIP3     1437     TIP3     H1       HT       0.417000       1.00800           0
     14227 TIP3     1437     TIP3     H2       HT       0.417000       1.00800           0
     14228 TIP3     1438     TIP3     OH2      OT      -0.834000       15.9994           0
     14229 TIP3     1438     TIP3     H1       HT       0.417000       1.00800           0
     14230 TIP3     1438     TIP3     H2       HT       0.417000       1.00800           0
     14231 TIP3     1439     TIP3     OH2      OT      -0.834000       15.9994           0
     14232 TIP3     1439     TIP3     H1       HT       0.417000       1.00800           0
     14233 TIP3     1439     TIP3     H2       HT       0.417000       1.00800           0
     14234 TIP3     1440     TIP3     OH2      OT      -0.834000       15.9994           0
     14235 TIP3     1440     TIP3     H1       HT       0.417000       1.00800           0
     14236 TIP3     1440     TIP3     H2       HT       0.417000       1.00800           0
     14237 TIP3     1441     TIP3     OH2      OT      -0.834000       15.9994           0
     14238 TIP3     1441     TIP3     H1       HT       0.417000       1.00800           0
     14239 TIP3     1441     TIP3     H2       HT       0.417000       1.00800           0
     14240 TIP3     1442     TIP3     OH2      OT      -0.834000       15.9994           0
     14241 TIP3     1442     TIP3     H1       HT       0.417000       1.00800           0
     14242 TIP3     1442     TIP3     H2       HT       0.417000       1.00800           0
     14243 TIP3     1443     TIP3     OH2      OT      -0.834000       15.9994           0
     14244 TIP3     1443     TIP3     H1       HT       0.417000       1.00800           0
     14245 TIP3     1443     TIP3     H2       HT       0.417000       1.00800           0
     14246 TIP3     1444     TIP3     OH2      OT      -0.834000       15.9994           0
     14247 TIP3     1444     TIP3     H1       HT       0.417000       1.00800           0
     14248 TIP3     1444     TIP3     H2       HT       0.417000       1.00800           0
     14249 TIP3     1445     TIP3     OH2      OT      -0.834000       15.9994           0
     14250 TIP3     1445     TIP3     H1       HT       0.417000       1.00800           0
     14251 TIP3     1445     TIP3     H2       HT       0.417000       1.00800           0
     14252 TIP3     1446     TIP3     OH2      OT      -0.834000       15.9994           0
     14253 TIP3     1446     TIP3     H1       HT       0.417000       1.00800           0
     14254 TIP3     1446     TIP3     H2       HT       0.417000       1.00800           0
     14255 TIP3     1447     TIP3     OH2      OT      -0.834000       15.9994           0
     14256 TIP3     1447     TIP3     H1       HT       0.417000       1.00800           0
     14257 TIP3     1447     TIP3     H2       HT       0.417000       1.00800           0
     14258 TIP3     1448     TIP3     OH2      OT      -0.834000       15.9994           0
     14259 TIP3     1448     TIP3     H1       HT       0.417000       1.00800           0
     14260 TIP3     1448     TIP3     H2       HT       0.417000       1.00800           0
     14261 TIP3     1449     TIP3     OH2      OT      -0.834000       15.9994           0
     14262 TIP3     1449     TIP3     H1       HT       0.417000       1.00800           0
     14263 TIP3     1449     TIP3     H2       HT       0.417000       1.00800           0
     14264 TIP3     1450     TIP3     OH2      OT      -0.834000       15.9994           0
     14265 TIP3     1450     TIP3     H1       HT       0.417000       1.00800           0
     14266 TIP3     1450     TIP3     H2       HT       0.417000       1.00800           0
     14267 TIP3     1451     TIP3     OH2      OT      -0.834000       15.9994           0
     14268 TIP3     1451     TIP3     H1       HT       0.417000       1.00800           0
     14269 TIP3     1451     TIP3     H2       HT       0.417000       1.00800           0
     14270 TIP3     1452     TIP3     OH2      OT      -0.834000       15.9994           0
     14271 TIP3     1452     TIP3     H1       HT       0.417000       1.00800           0
     14272 TIP3     1452     TIP3     H2       HT       0.417000       1.00800           0
     14273 TIP3     1453     TIP3     OH2      OT      -0.834000       15.9994           0
     14274 TIP3     1453     TIP3     H1       HT       0.417000       1.00800           0
     14275 TIP3     1453     TIP3     H2       HT       0.417000       1.00800           0
     14276 TIP3     1454     TIP3     OH2      OT      -0.834000       15.9994           0
     14277 TIP3     1454     TIP3     H1       HT       0.417000       1.00800           0
     14278 TIP3     1454     TIP3     H2       HT       0.417000       1.00800           0
     14279 TIP3     1455     TIP3     OH2      OT      -0.834000       15.9994           0
     14280 TIP3     1455     TIP3     H1       HT       0.417000       1.00800           0
     14281 TIP3     1455     TIP3     H2       HT       0.417000       1.00800           0
     14282 TIP3     1456     TIP3     OH2      OT      -0.834000       15.9994           0
     14283 TIP3     1456     TIP3     H1       HT       0.417000       1.00800           0
     14284 TIP3     1456     TIP3     H2       HT       0.417000       1.00800           0
     14285 TIP3     1457     TIP3     OH2      OT      -0.834000       15.9994           0
     14286 TIP3     1457     TIP3     H1       HT       0.417000       1.00800           0
     14287 TIP3     1457     TIP3     H2       HT       0.417000       1.00800           0
     14288 TIP3     1458     TIP3     OH2      OT      -0.834000       15.9994           0
     14289 TIP3     1458     TIP3     H1       HT       0.417000       1.00800           0
     14290 TIP3     1458     TIP3     H2       HT       0.417000       1.00800           0
     14291 TIP3     1459     TIP3     OH2      OT      -0.834000       15.9994           0
     14292 TIP3     1459     TIP3     H1       HT       0.417000       1.00800           0
     14293 TIP3     1459     TIP3     H2       HT       0.417000       1.00800           0
     14294 TIP3     1460     TIP3     OH2      OT      -0.834000       15.9994           0
     14295 TIP3     1460     TIP3     H1       HT       0.417000       1.00800           0
     14296 TIP3     1460     TIP3     H2       HT       0.417000       1.00800           0
     14297 TIP3     1461     TIP3     OH2      OT      -0.834000       15.9994           0
     14298 TIP3     1461     TIP3     H1       HT       0.417000       1.00800           0
     14299 TIP3     1461     TIP3     H2       HT       0.417000       1.00800           0
     14300 TIP3     1462     TIP3     OH2      OT      -0.834000       15.9994           0
     14301 TIP3     1462     TIP3     H1       HT       0.417000       1.00800           0
     14302 TIP3     1462     TIP3     H2       HT       0.417000       1.00800           0
     14303 TIP3     1463     TIP3     OH2      OT      -0.834000       15.9994           0
     14304 TIP3     1463     TIP3     H1       HT       0.417000       1.00800           0
     14305 TIP3     1463     TIP3     H2       HT       0.417000       1.00800           0
     14306 TIP3     1464     TIP3     OH2      OT      -0.834000       15.9994           0
     14307 TIP3     1464     TIP3     H1       HT       0.417000       1.00800           0
     14308 TIP3     1464     TIP3     H2       HT       0.417000       1.00800           0
     14309 TIP3     1465     TIP3     OH2      OT      -0.834000       15.9994           0
     14310 TIP3     1465     TIP3     H1       HT       0.417000       1.00800           0
     14311 TIP3     1465     TIP3     H2       HT       0.417000       1.00800           0
     14312 TIP3     1466     TIP3     OH2      OT      -0.834000       15.9994           0
     14313 TIP3     1466     TIP3     H1       HT       0.417000       1.00800           0
     14314 TIP3     1466     TIP3     H2       HT       0.417000       1.00800           0
     14315 TIP3     1467     TIP3     OH2      OT      -0.834000       15.9994           0
     14316 TIP3     1467     TIP3     H1       HT       0.417000       1.00800           0
     14317 TIP3     1467     TIP3     H2       HT       0.417000       1.00800           0
     14318 TIP3     1468     TIP3     OH2      OT      -0.834000       15.9994           0
     14319 TIP3     1468     TIP3     H1       HT       0.417000       1.00800           0
     14320 TIP3     1468     TIP3     H2       HT       0.417000       1.00800           0
     14321 TIP3     1469     TIP3     OH2      OT      -0.834000       15.9994           0
     14322 TIP3     1469     TIP3     H1       HT       0.417000       1.00800           0
     14323 TIP3     1469     TIP3     H2       HT       0.417000       1.00800           0
     14324 TIP3     1470     TIP3     OH2      OT      -0.834000       15.9994           0
     14325 TIP3     1470     TIP3     H1       HT       0.417000       1.00800           0
     14326 TIP3     1470     TIP3     H2       HT       0.417000       1.00800           0
     14327 TIP3     1471     TIP3     OH2      OT      -0.834000       15.9994           0
     14328 TIP3     1471     TIP3     H1       HT       0.417000       1.00800           0
     14329 TIP3     1471     TIP3     H2       HT       0.417000       1.00800           0
     14330 TIP3     1472     TIP3     OH2      OT      -0.834000       15.9994           0
     14331 TIP3     1472     TIP3     H1       HT       0.417000       1.00800           0
     14332 TIP3     1472     TIP3     H2       HT       0.417000       1.00800           0
     14333 TIP3     1473     TIP3     OH2      OT      -0.834000       15.9994           0
     14334 TIP3     1473     TIP3     H1       HT       0.417000       1.00800           0
     14335 TIP3     1473     TIP3     H2       HT       0.417000       1.00800           0
     14336 TIP3     1474     TIP3     OH2      OT      -0.834000       15.9994           0
     14337 TIP3     1474     TIP3     H1       HT       0.417000       1.00800           0
     14338 TIP3     1474     TIP3     H2       HT       0.417000       1.00800           0
     14339 TIP3     1475     TIP3     OH2      OT      -0.834000       15.9994           0
     14340 TIP3     1475     TIP3     H1       HT       0.417000       1.00800           0
     14341 TIP3     1475     TIP3     H2       HT       0.417000       1.00800           0
     14342 TIP3     1476     TIP3     OH2      OT      -0.834000       15.9994           0
     14343 TIP3     1476     TIP3     H1       HT       0.417000       1.00800           0
     14344 TIP3     1476     TIP3     H2       HT       0.417000       1.00800           0
     14345 TIP3     1477     TIP3     OH2      OT      -0.834000       15.9994           0
     14346 TIP3     1477     TIP3     H1       HT       0.417000       1.00800           0
     14347 TIP3     1477     TIP3     H2       HT       0.417000       1.00800           0
     14348 TIP3     1478     TIP3     OH2      OT      -0.834000       15.9994           0
     14349 TIP3     1478     TIP3     H1       HT       0.417000       1.00800           0
     14350 TIP3     1478     TIP3     H2       HT       0.417000       1.00800           0
     14351 TIP3     1479     TIP3     OH2      OT      -0.834000       15.9994           0
     14352 TIP3     1479     TIP3     H1       HT       0.417000       1.00800           0
     14353 TIP3     1479     TIP3     H2       HT       0.417000       1.00800           0
     14354 TIP3     1480     TIP3     OH2      OT      -0.834000       15.9994           0
     14355 TIP3     1480     TIP3     H1       HT       0.417000       1.00800           0
     14356 TIP3     1480     TIP3     H2       HT       0.417000       1.00800           0
     14357 TIP3     1481     TIP3     OH2      OT      -0.834000       15.9994           0
     14358 TIP3     1481     TIP3     H1       HT       0.417000       1.00800           0
     14359 TIP3     1481     TIP3     H2       HT       0.417000       1.00800           0
     14360 TIP3     1482     TIP3     OH2      OT      -0.834000       15.9994           0
     14361 TIP3     1482     TIP3     H1       HT       0.417000       1.00800           0
     14362 TIP3     1482     TIP3     H2       HT       0.417000       1.00800           0
     14363 TIP3     1483     TIP3     OH2      OT      -0.834000       15.9994           0
     14364 TIP3     1483     TIP3     H1       HT       0.417000       1.00800           0
     14365 TIP3     1483     TIP3     H2       HT       0.417000       1.00800           0
     14366 TIP3     1484     TIP3     OH2      OT      -0.834000       15.9994           0
     14367 TIP3     1484     TIP3     H1       HT       0.417000       1.00800           0
     14368 TIP3     1484     TIP3     H2       HT       0.417000       1.00800           0
     14369 TIP3     1485     TIP3     OH2      OT      -0.834000       15.9994           0
     14370 TIP3     1485     TIP3     H1       HT       0.417000       1.00800           0
     14371 TIP3     1485     TIP3     H2       HT       0.417000       1.00800           0
     14372 TIP3     1486     TIP3     OH2      OT      -0.834000       15.9994           0
     14373 TIP3     1486     TIP3     H1       HT       0.417000       1.00800           0
     14374 TIP3     1486     TIP3     H2       HT       0.417000       1.00800           0
     14375 TIP3     1487     TIP3     OH2      OT      -0.834000       15.9994           0
     14376 TIP3     1487     TIP3     H1       HT       0.417000       1.00800           0
     14377 TIP3     1487     TIP3     H2       HT       0.417000       1.00800           0
     14378 TIP3     1488     TIP3     OH2      OT      -0.834000       15.9994           0
     14379 TIP3     1488     TIP3     H1       HT       0.417000       1.00800           0
     14380 TIP3     1488     TIP3     H2       HT       0.417000       1.00800           0
     14381 TIP3     1489     TIP3     OH2      OT      -0.834000       15.9994           0
     14382 TIP3     1489     TIP3     H1       HT       0.417000       1.00800           0
     14383 TIP3     1489     TIP3     H2       HT       0.417000       1.00800           0
     14384 TIP3     1490     TIP3     OH2      OT      -0.834000       15.9994           0
     14385 TIP3     1490     TIP3     H1       HT       0.417000       1.00800           0
     14386 TIP3     1490     TIP3     H2       HT       0.417000       1.00800           0
     14387 TIP3     1491     TIP3     OH2      OT      -0.834000       15.9994           0
     14388 TIP3     1491     TIP3     H1       HT       0.417000       1.00800           0
     14389 TIP3     1491     TIP3     H2       HT       0.417000       1.00800           0
     14390 TIP3     1492     TIP3     OH2      OT      -0.834000       15.9994           0
     14391 TIP3     1492     TIP3     H1       HT       0.417000       1.00800           0
     14392 TIP3     1492     TIP3     H2       HT       0.417000       1.00800           0
     14393 TIP3     1493     TIP3     OH2      OT      -0.834000       15.9994           0
     14394 TIP3     1493     TIP3     H1       HT       0.417000       1.00800           0
     14395 TIP3     1493     TIP3     H2       HT       0.417000       1.00800           0
     14396 TIP3     1494     TIP3     OH2      OT      -0.834000       15.9994           0
     14397 TIP3     1494     TIP3     H1       HT       0.417000       1.00800           0
     14398 TIP3     1494     TIP3     H2       HT       0.417000       1.00800           0
     14399 TIP3     1495     TIP3     OH2      OT      -0.834000       15.9994           0
     14400 TIP3     1495     TIP3     H1       HT       0.417000       1.00800           0
     14401 TIP3     1495     TIP3     H2       HT       0.417000       1.00800           0
     14402 TIP3     1496     TIP3     OH2      OT      -0.834000       15.9994           0
     14403 TIP3     1496     TIP3     H1       HT       0.417000       1.00800           0
     14404 TIP3     1496     TIP3     H2       HT       0.417000       1.00800           0
     14405 TIP3     1497     TIP3     OH2      OT      -0.834000       15.9994           0
     14406 TIP3     1497     TIP3     H1       HT       0.417000       1.00800           0
     14407 TIP3     1497     TIP3     H2       HT       0.417000       1.00800           0
     14408 TIP3     1498     TIP3     OH2      OT      -0.834000       15.9994           0
     14409 TIP3     1498     TIP3     H1       HT       0.417000       1.00800           0
     14410 TIP3     1498     TIP3     H2       HT       0.417000       1.00800           0
     14411 TIP3     1499     TIP3     OH2      OT      -0.834000       15.9994           0
     14412 TIP3     1499     TIP3     H1       HT       0.417000       1.00800           0
     14413 TIP3     1499     TIP3     H2       HT       0.417000       1.00800           0
     14414 TIP3     1500     TIP3     OH2      OT      -0.834000       15.9994           0
     14415 TIP3     1500     TIP3     H1       HT       0.417000       1.00800           0
     14416 TIP3     1500     TIP3     H2       HT       0.417000       1.00800           0
     14417 TIP3     1501     TIP3     OH2      OT      -0.834000       15.9994           0
     14418 TIP3     1501     TIP3     H1       HT       0.417000       1.00800           0
     14419 TIP3     1501     TIP3     H2       HT       0.417000       1.00800           0
     14420 TIP3     1502     TIP3     OH2      OT      -0.834000       15.9994           0
     14421 TIP3     1502     TIP3     H1       HT       0.417000       1.00800           0
     14422 TIP3     1502     TIP3     H2       HT       0.417000       1.00800           0
     14423 TIP3     1503     TIP3     OH2      OT      -0.834000       15.9994           0
     14424 TIP3     1503     TIP3     H1       HT       0.417000       1.00800           0
     14425 TIP3     1503     TIP3     H2       HT       0.417000       1.00800           0
     14426 TIP3     1504     TIP3     OH2      OT      -0.834000       15.9994           0
     14427 TIP3     1504     TIP3     H1       HT       0.417000       1.00800           0
     14428 TIP3     1504     TIP3     H2       HT       0.417000       1.00800           0
     14429 TIP3     1505     TIP3     OH2      OT      -0.834000       15.9994           0
     14430 TIP3     1505     TIP3     H1       HT       0.417000       1.00800           0
     14431 TIP3     1505     TIP3     H2       HT       0.417000       1.00800           0
     14432 TIP3     1506     TIP3     OH2      OT      -0.834000       15.9994           0
     14433 TIP3     1506     TIP3     H1       HT       0.417000       1.00800           0
     14434 TIP3     1506     TIP3     H2       HT       0.417000       1.00800           0
     14435 TIP3     1507     TIP3     OH2      OT      -0.834000       15.9994           0
     14436 TIP3     1507     TIP3     H1       HT       0.417000       1.00800           0
     14437 TIP3     1507     TIP3     H2       HT       0.417000       1.00800           0
     14438 TIP3     1508     TIP3     OH2      OT      -0.834000       15.9994           0
     14439 TIP3     1508     TIP3     H1       HT       0.417000       1.00800           0
     14440 TIP3     1508     TIP3     H2       HT       0.417000       1.00800           0
     14441 TIP3     1509     TIP3     OH2      OT      -0.834000       15.9994           0
     14442 TIP3     1509     TIP3     H1       HT       0.417000       1.00800           0
     14443 TIP3     1509     TIP3     H2       HT       0.417000       1.00800           0
     14444 TIP3     1510     TIP3     OH2      OT      -0.834000       15.9994           0
     14445 TIP3     1510     TIP3     H1       HT       0.417000       1.00800           0
     14446 TIP3     1510     TIP3     H2       HT       0.417000       1.00800           0
     14447 TIP3     1511     TIP3     OH2      OT      -0.834000       15.9994           0
     14448 TIP3     1511     TIP3     H1       HT       0.417000       1.00800           0
     14449 TIP3     1511     TIP3     H2       HT       0.417000       1.00800           0
     14450 TIP3     1512     TIP3     OH2      OT      -0.834000       15.9994           0
     14451 TIP3     1512     TIP3     H1       HT       0.417000       1.00800           0
     14452 TIP3     1512     TIP3     H2       HT       0.417000       1.00800           0
     14453 TIP3     1513     TIP3     OH2      OT      -0.834000       15.9994           0
     14454 TIP3     1513     TIP3     H1       HT       0.417000       1.00800           0
     14455 TIP3     1513     TIP3     H2       HT       0.417000       1.00800           0
     14456 TIP3     1514     TIP3     OH2      OT      -0.834000       15.9994           0
     14457 TIP3     1514     TIP3     H1       HT       0.417000       1.00800           0
     14458 TIP3     1514     TIP3     H2       HT       0.417000       1.00800           0
     14459 TIP3     1515     TIP3     OH2      OT      -0.834000       15.9994           0
     14460 TIP3     1515     TIP3     H1       HT       0.417000       1.00800           0
     14461 TIP3     1515     TIP3     H2       HT       0.417000       1.00800           0
     14462 TIP3     1516     TIP3     OH2      OT      -0.834000       15.9994           0
     14463 TIP3     1516     TIP3     H1       HT       0.417000       1.00800           0
     14464 TIP3     1516     TIP3     H2       HT       0.417000       1.00800           0
     14465 TIP3     1517     TIP3     OH2      OT      -0.834000       15.9994           0
     14466 TIP3     1517     TIP3     H1       HT       0.417000       1.00800           0
     14467 TIP3     1517     TIP3     H2       HT       0.417000       1.00800           0
     14468 TIP3     1518     TIP3     OH2      OT      -0.834000       15.9994           0
     14469 TIP3     1518     TIP3     H1       HT       0.417000       1.00800           0
     14470 TIP3     1518     TIP3     H2       HT       0.417000       1.00800           0
     14471 TIP3     1519     TIP3     OH2      OT      -0.834000       15.9994           0
     14472 TIP3     1519     TIP3     H1       HT       0.417000       1.00800           0
     14473 TIP3     1519     TIP3     H2       HT       0.417000       1.00800           0
     14474 TIP3     1520     TIP3     OH2      OT      -0.834000       15.9994           0
     14475 TIP3     1520     TIP3     H1       HT       0.417000       1.00800           0
     14476 TIP3     1520     TIP3     H2       HT       0.417000       1.00800           0
     14477 TIP3     1521     TIP3     OH2      OT      -0.834000       15.9994           0
     14478 TIP3     1521     TIP3     H1       HT       0.417000       1.00800           0
     14479 TIP3     1521     TIP3     H2       HT       0.417000       1.00800           0
     14480 TIP3     1522     TIP3     OH2      OT      -0.834000       15.9994           0
     14481 TIP3     1522     TIP3     H1       HT       0.417000       1.00800           0
     14482 TIP3     1522     TIP3     H2       HT       0.417000       1.00800           0
     14483 TIP3     1523     TIP3     OH2      OT      -0.834000       15.9994           0
     14484 TIP3     1523     TIP3     H1       HT       0.417000       1.00800           0
     14485 TIP3     1523     TIP3     H2       HT       0.417000       1.00800           0
     14486 TIP3     1524     TIP3     OH2      OT      -0.834000       15.9994           0
     14487 TIP3     1524     TIP3     H1       HT       0.417000       1.00800           0
     14488 TIP3     1524     TIP3     H2       HT       0.417000       1.00800           0
     14489 TIP3     1525     TIP3     OH2      OT      -0.834000       15.9994           0
     14490 TIP3     1525     TIP3     H1       HT       0.417000       1.00800           0
     14491 TIP3     1525     TIP3     H2       HT       0.417000       1.00800           0
     14492 TIP3     1526     TIP3     OH2      OT      -0.834000       15.9994           0
     14493 TIP3     1526     TIP3     H1       HT       0.417000       1.00800           0
     14494 TIP3     1526     TIP3     H2       HT       0.417000       1.00800           0
     14495 TIP3     1527     TIP3     OH2      OT      -0.834000       15.9994           0
     14496 TIP3     1527     TIP3     H1       HT       0.417000       1.00800           0
     14497 TIP3     1527     TIP3     H2       HT       0.417000       1.00800           0
     14498 TIP3     1528     TIP3     OH2      OT      -0.834000       15.9994           0
     14499 TIP3     1528     TIP3     H1       HT       0.417000       1.00800           0
     14500 TIP3     1528     TIP3     H2       HT       0.417000       1.00800           0
     14501 TIP3     1529     TIP3     OH2      OT      -0.834000       15.9994           0
     14502 TIP3     1529     TIP3     H1       HT       0.417000       1.00800           0
     14503 TIP3     1529     TIP3     H2       HT       0.417000       1.00800           0
     14504 TIP3     1530     TIP3     OH2      OT      -0.834000       15.9994           0
     14505 TIP3     1530     TIP3     H1       HT       0.417000       1.00800           0
     14506 TIP3     1530     TIP3     H2       HT       0.417000       1.00800           0
     14507 TIP3     1531     TIP3     OH2      OT      -0.834000       15.9994           0
     14508 TIP3     1531     TIP3     H1       HT       0.417000       1.00800           0
     14509 TIP3     1531     TIP3     H2       HT       0.417000       1.00800           0
     14510 TIP3     1532     TIP3     OH2      OT      -0.834000       15.9994           0
     14511 TIP3     1532     TIP3     H1       HT       0.417000       1.00800           0
     14512 TIP3     1532     TIP3     H2       HT       0.417000       1.00800           0
     14513 TIP3     1533     TIP3     OH2      OT      -0.834000       15.9994           0
     14514 TIP3     1533     TIP3     H1       HT       0.417000       1.00800           0
     14515 TIP3     1533     TIP3     H2       HT       0.417000       1.00800           0
     14516 TIP3     1534     TIP3     OH2      OT      -0.834000       15.9994           0
     14517 TIP3     1534     TIP3     H1       HT       0.417000       1.00800           0
     14518 TIP3     1534     TIP3     H2       HT       0.417000       1.00800           0
     14519 TIP3     1535     TIP3     OH2      OT      -0.834000       15.9994           0
     14520 TIP3     1535     TIP3     H1       HT       0.417000       1.00800           0
     14521 TIP3     1535     TIP3     H2       HT       0.417000       1.00800           0
     14522 TIP3     1536     TIP3     OH2      OT      -0.834000       15.9994           0
     14523 TIP3     1536     TIP3     H1       HT       0.417000       1.00800           0
     14524 TIP3     1536     TIP3     H2       HT       0.417000       1.00800           0
     14525 TIP3     1537     TIP3     OH2      OT      -0.834000       15.9994           0
     14526 TIP3     1537     TIP3     H1       HT       0.417000       1.00800           0
     14527 TIP3     1537     TIP3     H2       HT       0.417000       1.00800           0
     14528 TIP3     1538     TIP3     OH2      OT      -0.834000       15.9994           0
     14529 TIP3     1538     TIP3     H1       HT       0.417000       1.00800           0
     14530 TIP3     1538     TIP3     H2       HT       0.417000       1.00800           0
     14531 TIP3     1539     TIP3     OH2      OT      -0.834000       15.9994           0
     14532 TIP3     1539     TIP3     H1       HT       0.417000       1.00800           0
     14533 TIP3     1539     TIP3     H2       HT       0.417000       1.00800           0
     14534 TIP3     1540     TIP3     OH2      OT      -0.834000       15.9994           0
     14535 TIP3     1540     TIP3     H1       HT       0.417000       1.00800           0
     14536 TIP3     1540     TIP3     H2       HT       0.417000       1.00800           0
     14537 TIP3     1541     TIP3     OH2      OT      -0.834000       15.9994           0
     14538 TIP3     1541     TIP3     H1       HT       0.417000       1.00800           0
     14539 TIP3     1541     TIP3     H2       HT       0.417000       1.00800           0
     14540 TIP3     1542     TIP3     OH2      OT      -0.834000       15.9994           0
     14541 TIP3     1542     TIP3     H1       HT       0.417000       1.00800           0
     14542 TIP3     1542     TIP3     H2       HT       0.417000       1.00800           0
     14543 TIP3     1543     TIP3     OH2      OT      -0.834000       15.9994           0
     14544 TIP3     1543     TIP3     H1       HT       0.417000       1.00800           0
     14545 TIP3     1543     TIP3     H2       HT       0.417000       1.00800           0
     14546 TIP3     1544     TIP3     OH2      OT      -0.834000       15.9994           0
     14547 TIP3     1544     TIP3     H1       HT       0.417000       1.00800           0
     14548 TIP3     1544     TIP3     H2       HT       0.417000       1.00800           0
     14549 TIP3     1545     TIP3     OH2      OT      -0.834000       15.9994           0
     14550 TIP3     1545     TIP3     H1       HT       0.417000       1.00800           0
     14551 TIP3     1545     TIP3     H2       HT       0.417000       1.00800           0
     14552 TIP3     1546     TIP3     OH2      OT      -0.834000       15.9994           0
     14553 TIP3     1546     TIP3     H1       HT       0.417000       1.00800           0
     14554 TIP3     1546     TIP3     H2       HT       0.417000       1.00800           0
     14555 TIP3     1547     TIP3     OH2      OT      -0.834000       15.9994           0
     14556 TIP3     1547     TIP3     H1       HT       0.417000       1.00800           0
     14557 TIP3     1547     TIP3     H2       HT       0.417000       1.00800           0
     14558 TIP3     1548     TIP3     OH2      OT      -0.834000       15.9994           0
     14559 TIP3     1548     TIP3     H1       HT       0.417000       1.00800           0
     14560 TIP3     1548     TIP3     H2       HT       0.417000       1.00800           0
     14561 TIP3     1549     TIP3     OH2      OT      -0.834000       15.9994           0
     14562 TIP3     1549     TIP3     H1       HT       0.417000       1.00800           0
     14563 TIP3     1549     TIP3     H2       HT       0.417000       1.00800           0
     14564 TIP3     1550     TIP3     OH2      OT      -0.834000       15.9994           0
     14565 TIP3     1550     TIP3     H1       HT       0.417000       1.00800           0
     14566 TIP3     1550     TIP3     H2       HT       0.417000       1.00800           0
     14567 TIP3     1551     TIP3     OH2      OT      -0.834000       15.9994           0
     14568 TIP3     1551     TIP3     H1       HT       0.417000       1.00800           0
     14569 TIP3     1551     TIP3     H2       HT       0.417000       1.00800           0
     14570 TIP3     1552     TIP3     OH2      OT      -0.834000       15.9994           0
     14571 TIP3     1552     TIP3     H1       HT       0.417000       1.00800           0
     14572 TIP3     1552     TIP3     H2       HT       0.417000       1.00800           0
     14573 TIP3     1553     TIP3     OH2      OT      -0.834000       15.9994           0
     14574 TIP3     1553     TIP3     H1       HT       0.417000       1.00800           0
     14575 TIP3     1553     TIP3     H2       HT       0.417000       1.00800           0
     14576 TIP3     1554     TIP3     OH2      OT      -0.834000       15.9994           0
     14577 TIP3     1554     TIP3     H1       HT       0.417000       1.00800           0
     14578 TIP3     1554     TIP3     H2       HT       0.417000       1.00800           0
     14579 TIP3     1555     TIP3     OH2      OT      -0.834000       15.9994           0
     14580 TIP3     1555     TIP3     H1       HT       0.417000       1.00800           0
     14581 TIP3     1555     TIP3     H2       HT       0.417000       1.00800           0
     14582 TIP3     1556     TIP3     OH2      OT      -0.834000       15.9994           0
     14583 TIP3     1556     TIP3     H1       HT       0.417000       1.00800           0
     14584 TIP3     1556     TIP3     H2       HT       0.417000       1.00800           0
     14585 TIP3     1557     TIP3     OH2      OT      -0.834000       15.9994           0
     14586 TIP3     1557     TIP3     H1       HT       0.417000       1.00800           0
     14587 TIP3     1557     TIP3     H2       HT       0.417000       1.00800           0
     14588 TIP3     1558     TIP3     OH2      OT      -0.834000       15.9994           0
     14589 TIP3     1558     TIP3     H1       HT       0.417000       1.00800           0
     14590 TIP3     1558     TIP3     H2       HT       0.417000       1.00800           0
     14591 TIP3     1559     TIP3     OH2      OT      -0.834000       15.9994           0
     14592 TIP3     1559     TIP3     H1       HT       0.417000       1.00800           0
     14593 TIP3     1559     TIP3     H2       HT       0.417000       1.00800           0
     14594 TIP3     1560     TIP3     OH2      OT      -0.834000       15.9994           0
     14595 TIP3     1560     TIP3     H1       HT       0.417000       1.00800           0
     14596 TIP3     1560     TIP3     H2       HT       0.417000       1.00800           0
     14597 TIP3     1561     TIP3     OH2      OT      -0.834000       15.9994           0
     14598 TIP3     1561     TIP3     H1       HT       0.417000       1.00800           0
     14599 TIP3     1561     TIP3     H2       HT       0.417000       1.00800           0
     14600 TIP3     1562     TIP3     OH2      OT      -0.834000       15.9994           0
     14601 TIP3     1562     TIP3     H1       HT       0.417000       1.00800           0
     14602 TIP3     1562     TIP3     H2       HT       0.417000       1.00800           0
     14603 TIP3     1563     TIP3     OH2      OT      -0.834000       15.9994           0
     14604 TIP3     1563     TIP3     H1       HT       0.417000       1.00800           0
     14605 TIP3     1563     TIP3     H2       HT       0.417000       1.00800           0
     14606 TIP3     1564     TIP3     OH2      OT      -0.834000       15.9994           0
     14607 TIP3     1564     TIP3     H1       HT       0.417000       1.00800           0
     14608 TIP3     1564     TIP3     H2       HT       0.417000       1.00800           0
     14609 TIP3     1565     TIP3     OH2      OT      -0.834000       15.9994           0
     14610 TIP3     1565     TIP3     H1       HT       0.417000       1.00800           0
     14611 TIP3     1565     TIP3     H2       HT       0.417000       1.00800           0
     14612 TIP3     1566     TIP3     OH2      OT      -0.834000       15.9994           0
     14613 TIP3     1566     TIP3     H1       HT       0.417000       1.00800           0
     14614 TIP3     1566     TIP3     H2       HT       0.417000       1.00800           0
     14615 TIP3     1567     TIP3     OH2      OT      -0.834000       15.9994           0
     14616 TIP3     1567     TIP3     H1       HT       0.417000       1.00800           0
     14617 TIP3     1567     TIP3     H2       HT       0.417000       1.00800           0
     14618 TIP3     1568     TIP3     OH2      OT      -0.834000       15.9994           0
     14619 TIP3     1568     TIP3     H1       HT       0.417000       1.00800           0
     14620 TIP3     1568     TIP3     H2       HT       0.417000       1.00800           0
     14621 TIP3     1569     TIP3     OH2      OT      -0.834000       15.9994           0
     14622 TIP3     1569     TIP3     H1       HT       0.417000       1.00800           0
     14623 TIP3     1569     TIP3     H2       HT       0.417000       1.00800           0
     14624 TIP3     1570     TIP3     OH2      OT      -0.834000       15.9994           0
     14625 TIP3     1570     TIP3     H1       HT       0.417000       1.00800           0
     14626 TIP3     1570     TIP3     H2       HT       0.417000       1.00800           0
     14627 TIP3     1571     TIP3     OH2      OT      -0.834000       15.9994           0
     14628 TIP3     1571     TIP3     H1       HT       0.417000       1.00800           0
     14629 TIP3     1571     TIP3     H2       HT       0.417000       1.00800           0
     14630 TIP3     1572     TIP3     OH2      OT      -0.834000       15.9994           0
     14631 TIP3     1572     TIP3     H1       HT       0.417000       1.00800           0
     14632 TIP3     1572     TIP3     H2       HT       0.417000       1.00800           0
     14633 TIP3     1573     TIP3     OH2      OT      -0.834000       15.9994           0
     14634 TIP3     1573     TIP3     H1       HT       0.417000       1.00800           0
     14635 TIP3     1573     TIP3     H2       HT       0.417000       1.00800           0
     14636 TIP3     1574     TIP3     OH2      OT      -0.834000       15.9994           0
     14637 TIP3     1574     TIP3     H1       HT       0.417000       1.00800           0
     14638 TIP3     1574     TIP3     H2       HT       0.417000       1.00800           0
     14639 TIP3     1575     TIP3     OH2      OT      -0.834000       15.9994           0
     14640 TIP3     1575     TIP3     H1       HT       0.417000       1.00800           0
     14641 TIP3     1575     TIP3     H2       HT       0.417000       1.00800           0
     14642 TIP3     1576     TIP3     OH2      OT      -0.834000       15.9994           0
     14643 TIP3     1576     TIP3     H1       HT       0.417000       1.00800           0
     14644 TIP3     1576     TIP3     H2       HT       0.417000       1.00800           0
     14645 TIP3     1577     TIP3     OH2      OT      -0.834000       15.9994           0
     14646 TIP3     1577     TIP3     H1       HT       0.417000       1.00800           0
     14647 TIP3     1577     TIP3     H2       HT       0.417000       1.00800           0
     14648 TIP3     1578     TIP3     OH2      OT      -0.834000       15.9994           0
     14649 TIP3     1578     TIP3     H1       HT       0.417000       1.00800           0
     14650 TIP3     1578     TIP3     H2       HT       0.417000       1.00800           0
     14651 TIP3     1579     TIP3     OH2      OT      -0.834000       15.9994           0
     14652 TIP3     1579     TIP3     H1       HT       0.417000       1.00800           0
     14653 TIP3     1579     TIP3     H2       HT       0.417000       1.00800           0
     14654 TIP3     1580     TIP3     OH2      OT      -0.834000       15.9994           0
     14655 TIP3     1580     TIP3     H1       HT       0.417000       1.00800           0
     14656 TIP3     1580     TIP3     H2       HT       0.417000       1.00800           0
     14657 TIP3     1581     TIP3     OH2      OT      -0.834000       15.9994           0
     14658 TIP3     1581     TIP3     H1       HT       0.417000       1.00800           0
     14659 TIP3     1581     TIP3     H2       HT       0.417000       1.00800           0
     14660 TIP3     1582     TIP3     OH2      OT      -0.834000       15.9994           0
     14661 TIP3     1582     TIP3     H1       HT       0.417000       1.00800           0
     14662 TIP3     1582     TIP3     H2       HT       0.417000       1.00800           0
     14663 TIP3     1583     TIP3     OH2      OT      -0.834000       15.9994           0
     14664 TIP3     1583     TIP3     H1       HT       0.417000       1.00800           0
     14665 TIP3     1583     TIP3     H2       HT       0.417000       1.00800           0
     14666 TIP3     1584     TIP3     OH2      OT      -0.834000       15.9994           0
     14667 TIP3     1584     TIP3     H1       HT       0.417000       1.00800           0
     14668 TIP3     1584     TIP3     H2       HT       0.417000       1.00800           0
     14669 TIP3     1585     TIP3     OH2      OT      -0.834000       15.9994           0
     14670 TIP3     1585     TIP3     H1       HT       0.417000       1.00800           0
     14671 TIP3     1585     TIP3     H2       HT       0.417000       1.00800           0
     14672 TIP3     1586     TIP3     OH2      OT      -0.834000       15.9994           0
     14673 TIP3     1586     TIP3     H1       HT       0.417000       1.00800           0
     14674 TIP3     1586     TIP3     H2       HT       0.417000       1.00800           0
     14675 TIP3     1587     TIP3     OH2      OT      -0.834000       15.9994           0
     14676 TIP3     1587     TIP3     H1       HT       0.417000       1.00800           0
     14677 TIP3     1587     TIP3     H2       HT       0.417000       1.00800           0
     14678 TIP3     1588     TIP3     OH2      OT      -0.834000       15.9994           0
     14679 TIP3     1588     TIP3     H1       HT       0.417000       1.00800           0
     14680 TIP3     1588     TIP3     H2       HT       0.417000       1.00800           0
     14681 TIP3     1589     TIP3     OH2      OT      -0.834000       15.9994           0
     14682 TIP3     1589     TIP3     H1       HT       0.417000       1.00800           0
     14683 TIP3     1589     TIP3     H2       HT       0.417000       1.00800           0
     14684 TIP3     1590     TIP3     OH2      OT      -0.834000       15.9994           0
     14685 TIP3     1590     TIP3     H1       HT       0.417000       1.00800           0
     14686 TIP3     1590     TIP3     H2       HT       0.417000       1.00800           0
     14687 TIP3     1591     TIP3     OH2      OT      -0.834000       15.9994           0
     14688 TIP3     1591     TIP3     H1       HT       0.417000       1.00800           0
     14689 TIP3     1591     TIP3     H2       HT       0.417000       1.00800           0
     14690 TIP3     1592     TIP3     OH2      OT      -0.834000       15.9994           0
     14691 TIP3     1592     TIP3     H1       HT       0.417000       1.00800           0
     14692 TIP3     1592     TIP3     H2       HT       0.417000       1.00800           0
     14693 TIP3     1593     TIP3     OH2      OT      -0.834000       15.9994           0
     14694 TIP3     1593     TIP3     H1       HT       0.417000       1.00800           0
     14695 TIP3     1593     TIP3     H2       HT       0.417000       1.00800           0
     14696 TIP3     1594     TIP3     OH2      OT      -0.834000       15.9994           0
     14697 TIP3     1594     TIP3     H1       HT       0.417000       1.00800           0
     14698 TIP3     1594     TIP3     H2       HT       0.417000       1.00800           0
     14699 TIP3     1595     TIP3     OH2      OT      -0.834000       15.9994           0
     14700 TIP3     1595     TIP3     H1       HT       0.417000       1.00800           0
     14701 TIP3     1595     TIP3     H2       HT       0.417000       1.00800           0
     14702 TIP3     1596     TIP3     OH2      OT      -0.834000       15.9994           0
     14703 TIP3     1596     TIP3     H1       HT       0.417000       1.00800           0
     14704 TIP3     1596     TIP3     H2       HT       0.417000       1.00800           0
     14705 TIP3     1597     TIP3     OH2      OT      -0.834000       15.9994           0
     14706 TIP3     1597     TIP3     H1       HT       0.417000       1.00800           0
     14707 TIP3     1597     TIP3     H2       HT       0.417000       1.00800           0
     14708 TIP3     1598     TIP3     OH2      OT      -0.834000       15.9994           0
     14709 TIP3     1598     TIP3     H1       HT       0.417000       1.00800           0
     14710 TIP3     1598     TIP3     H2       HT       0.417000       1.00800           0
     14711 TIP3     1599     TIP3     OH2      OT      -0.834000       15.9994           0
     14712 TIP3     1599     TIP3     H1       HT       0.417000       1.00800           0
     14713 TIP3     1599     TIP3     H2       HT       0.417000       1.00800           0
     14714 TIP3     1600     TIP3     OH2      OT      -0.834000       15.9994           0
     14715 TIP3     1600     TIP3     H1       HT       0.417000       1.00800           0
     14716 TIP3     1600     TIP3     H2       HT       0.417000       1.00800           0
     14717 TIP3     1601     TIP3     OH2      OT      -0.834000       15.9994           0
     14718 TIP3     1601     TIP3     H1       HT       0.417000       1.00800           0
     14719 TIP3     1601     TIP3     H2       HT       0.417000       1.00800           0
     14720 TIP3     1602     TIP3     OH2      OT      -0.834000       15.9994           0
     14721 TIP3     1602     TIP3     H1       HT       0.417000       1.00800           0
     14722 TIP3     1602     TIP3     H2       HT       0.417000       1.00800           0
     14723 TIP3     1603     TIP3     OH2      OT      -0.834000       15.9994           0
     14724 TIP3     1603     TIP3     H1       HT       0.417000       1.00800           0
     14725 TIP3     1603     TIP3     H2       HT       0.417000       1.00800           0
     14726 TIP3     1604     TIP3     OH2      OT      -0.834000       15.9994           0
     14727 TIP3     1604     TIP3     H1       HT       0.417000       1.00800           0
     14728 TIP3     1604     TIP3     H2       HT       0.417000       1.00800           0
     14729 TIP3     1605     TIP3     OH2      OT      -0.834000       15.9994           0
     14730 TIP3     1605     TIP3     H1       HT       0.417000       1.00800           0
     14731 TIP3     1605     TIP3     H2       HT       0.417000       1.00800           0
     14732 TIP3     1606     TIP3     OH2      OT      -0.834000       15.9994           0
     14733 TIP3     1606     TIP3     H1       HT       0.417000       1.00800           0
     14734 TIP3     1606     TIP3     H2       HT       0.417000       1.00800           0
     14735 TIP3     1607     TIP3     OH2      OT      -0.834000       15.9994           0
     14736 TIP3     1607     TIP3     H1       HT       0.417000       1.00800           0
     14737 TIP3     1607     TIP3     H2       HT       0.417000       1.00800           0
     14738 TIP3     1608     TIP3     OH2      OT      -0.834000       15.9994           0
     14739 TIP3     1608     TIP3     H1       HT       0.417000       1.00800           0
     14740 TIP3     1608     TIP3     H2       HT       0.417000       1.00800           0
     14741 TIP3     1609     TIP3     OH2      OT      -0.834000       15.9994           0
     14742 TIP3     1609     TIP3     H1       HT       0.417000       1.00800           0
     14743 TIP3     1609     TIP3     H2       HT       0.417000       1.00800           0
     14744 TIP3     1610     TIP3     OH2      OT      -0.834000       15.9994           0
     14745 TIP3     1610     TIP3     H1       HT       0.417000       1.00800           0
     14746 TIP3     1610     TIP3     H2       HT       0.417000       1.00800           0
     14747 TIP3     1611     TIP3     OH2      OT      -0.834000       15.9994           0
     14748 TIP3     1611     TIP3     H1       HT       0.417000       1.00800           0
     14749 TIP3     1611     TIP3     H2       HT       0.417000       1.00800           0
     14750 TIP3     1612     TIP3     OH2      OT      -0.834000       15.9994           0
     14751 TIP3     1612     TIP3     H1       HT       0.417000       1.00800           0
     14752 TIP3     1612     TIP3     H2       HT       0.417000       1.00800           0
     14753 TIP3     1613     TIP3     OH2      OT      -0.834000       15.9994           0
     14754 TIP3     1613     TIP3     H1       HT       0.417000       1.00800           0
     14755 TIP3     1613     TIP3     H2       HT       0.417000       1.00800           0
     14756 TIP3     1614     TIP3     OH2      OT      -0.834000       15.9994           0
     14757 TIP3     1614     TIP3     H1       HT       0.417000       1.00800           0
     14758 TIP3     1614     TIP3     H2       HT       0.417000       1.00800           0
     14759 TIP3     1615     TIP3     OH2      OT      -0.834000       15.9994           0
     14760 TIP3     1615     TIP3     H1       HT       0.417000       1.00800           0
     14761 TIP3     1615     TIP3     H2       HT       0.417000       1.00800           0
     14762 TIP3     1616     TIP3     OH2      OT      -0.834000       15.9994           0
     14763 TIP3     1616     TIP3     H1       HT       0.417000       1.00800           0
     14764 TIP3     1616     TIP3     H2       HT       0.417000       1.00800           0
     14765 TIP3     1617     TIP3     OH2      OT      -0.834000       15.9994           0
     14766 TIP3     1617     TIP3     H1       HT       0.417000       1.00800           0
     14767 TIP3     1617     TIP3     H2       HT       0.417000       1.00800           0
     14768 TIP3     1618     TIP3     OH2      OT      -0.834000       15.9994           0
     14769 TIP3     1618     TIP3     H1       HT       0.417000       1.00800           0
     14770 TIP3     1618     TIP3     H2       HT       0.417000       1.00800           0
     14771 TIP3     1619     TIP3     OH2      OT      -0.834000       15.9994           0
     14772 TIP3     1619     TIP3     H1       HT       0.417000       1.00800           0
     14773 TIP3     1619     TIP3     H2       HT       0.417000       1.00800           0
     14774 TIP3     1620     TIP3     OH2      OT      -0.834000       15.9994           0
     14775 TIP3     1620     TIP3     H1       HT       0.417000       1.00800           0
     14776 TIP3     1620     TIP3     H2       HT       0.417000       1.00800           0
     14777 TIP3     1621     TIP3     OH2      OT      -0.834000       15.9994           0
     14778 TIP3     1621     TIP3     H1       HT       0.417000       1.00800           0
     14779 TIP3     1621     TIP3     H2       HT       0.417000       1.00800           0
     14780 TIP3     1622     TIP3     OH2      OT      -0.834000       15.9994           0
     14781 TIP3     1622     TIP3     H1       HT       0.417000       1.00800           0
     14782 TIP3     1622     TIP3     H2       HT       0.417000       1.00800           0
     14783 TIP3     1623     TIP3     OH2      OT      -0.834000       15.9994           0
     14784 TIP3     1623     TIP3     H1       HT       0.417000       1.00800           0
     14785 TIP3     1623     TIP3     H2       HT       0.417000       1.00800           0
     14786 TIP3     1624     TIP3     OH2      OT      -0.834000       15.9994           0
     14787 TIP3     1624     TIP3     H1       HT       0.417000       1.00800           0
     14788 TIP3     1624     TIP3     H2       HT       0.417000       1.00800           0
     14789 TIP3     1625     TIP3     OH2      OT      -0.834000       15.9994           0
     14790 TIP3     1625     TIP3     H1       HT       0.417000       1.00800           0
     14791 TIP3     1625     TIP3     H2       HT       0.417000       1.00800           0
     14792 TIP3     1626     TIP3     OH2      OT      -0.834000       15.9994           0
     14793 TIP3     1626     TIP3     H1       HT       0.417000       1.00800           0
     14794 TIP3     1626     TIP3     H2       HT       0.417000       1.00800           0
     14795 TIP3     1627     TIP3     OH2      OT      -0.834000       15.9994           0
     14796 TIP3     1627     TIP3     H1       HT       0.417000       1.00800           0
     14797 TIP3     1627     TIP3     H2       HT       0.417000       1.00800           0
     14798 TIP3     1628     TIP3     OH2      OT      -0.834000       15.9994           0
     14799 TIP3     1628     TIP3     H1       HT       0.417000       1.00800           0
     14800 TIP3     1628     TIP3     H2       HT       0.417000       1.00800           0
     14801 TIP3     1629     TIP3     OH2      OT      -0.834000       15.9994           0
     14802 TIP3     1629     TIP3     H1       HT       0.417000       1.00800           0
     14803 TIP3     1629     TIP3     H2       HT       0.417000       1.00800           0
     14804 TIP3     1630     TIP3     OH2      OT      -0.834000       15.9994           0
     14805 TIP3     1630     TIP3     H1       HT       0.417000       1.00800           0
     14806 TIP3     1630     TIP3     H2       HT       0.417000       1.00800           0
     14807 TIP3     1631     TIP3     OH2      OT      -0.834000       15.9994           0
     14808 TIP3     1631     TIP3     H1       HT       0.417000       1.00800           0
     14809 TIP3     1631     TIP3     H2       HT       0.417000       1.00800           0
     14810 TIP3     1632     TIP3     OH2      OT      -0.834000       15.9994           0
     14811 TIP3     1632     TIP3     H1       HT       0.417000       1.00800           0
     14812 TIP3     1632     TIP3     H2       HT       0.417000       1.00800           0
     14813 TIP3     1633     TIP3     OH2      OT      -0.834000       15.9994           0
     14814 TIP3     1633     TIP3     H1       HT       0.417000       1.00800           0
     14815 TIP3     1633     TIP3     H2       HT       0.417000       1.00800           0
     14816 TIP3     1634     TIP3     OH2      OT      -0.834000       15.9994           0
     14817 TIP3     1634     TIP3     H1       HT       0.417000       1.00800           0
     14818 TIP3     1634     TIP3     H2       HT       0.417000       1.00800           0
     14819 TIP3     1635     TIP3     OH2      OT      -0.834000       15.9994           0
     14820 TIP3     1635     TIP3     H1       HT       0.417000       1.00800           0
     14821 TIP3     1635     TIP3     H2       HT       0.417000       1.00800           0
     14822 TIP3     1636     TIP3     OH2      OT      -0.834000       15.9994           0
     14823 TIP3     1636     TIP3     H1       HT       0.417000       1.00800           0
     14824 TIP3     1636     TIP3     H2       HT       0.417000       1.00800           0
     14825 TIP3     1637     TIP3     OH2      OT      -0.834000       15.9994           0
     14826 TIP3     1637     TIP3     H1       HT       0.417000       1.00800           0
     14827 TIP3     1637     TIP3     H2       HT       0.417000       1.00800           0
     14828 TIP3     1638     TIP3     OH2      OT      -0.834000       15.9994           0
     14829 TIP3     1638     TIP3     H1       HT       0.417000       1.00800           0
     14830 TIP3     1638     TIP3     H2       HT       0.417000       1.00800           0
     14831 TIP3     1639     TIP3     OH2      OT      -0.834000       15.9994           0
     14832 TIP3     1639     TIP3     H1       HT       0.417000       1.00800           0
     14833 TIP3     1639     TIP3     H2       HT       0.417000       1.00800           0
     14834 TIP3     1640     TIP3     OH2      OT      -0.834000       15.9994           0
     14835 TIP3     1640     TIP3     H1       HT       0.417000       1.00800           0
     14836 TIP3     1640     TIP3     H2       HT       0.417000       1.00800           0
     14837 TIP3     1641     TIP3     OH2      OT      -0.834000       15.9994           0
     14838 TIP3     1641     TIP3     H1       HT       0.417000       1.00800           0
     14839 TIP3     1641     TIP3     H2       HT       0.417000       1.00800           0
     14840 TIP3     1642     TIP3     OH2      OT      -0.834000       15.9994           0
     14841 TIP3     1642     TIP3     H1       HT       0.417000       1.00800           0
     14842 TIP3     1642     TIP3     H2       HT       0.417000       1.00800           0
     14843 TIP3     1643     TIP3     OH2      OT      -0.834000       15.9994           0
     14844 TIP3     1643     TIP3     H1       HT       0.417000       1.00800           0
     14845 TIP3     1643     TIP3     H2       HT       0.417000       1.00800           0
     14846 TIP3     1644     TIP3     OH2      OT      -0.834000       15.9994           0
     14847 TIP3     1644     TIP3     H1       HT       0.417000       1.00800           0
     14848 TIP3     1644     TIP3     H2       HT       0.417000       1.00800           0
     14849 TIP3     1645     TIP3     OH2      OT      -0.834000       15.9994           0
     14850 TIP3     1645     TIP3     H1       HT       0.417000       1.00800           0
     14851 TIP3     1645     TIP3     H2       HT       0.417000       1.00800           0
     14852 TIP3     1646     TIP3     OH2      OT      -0.834000       15.9994           0
     14853 TIP3     1646     TIP3     H1       HT       0.417000       1.00800           0
     14854 TIP3     1646     TIP3     H2       HT       0.417000       1.00800           0
     14855 TIP3     1647     TIP3     OH2      OT      -0.834000       15.9994           0
     14856 TIP3     1647     TIP3     H1       HT       0.417000       1.00800           0
     14857 TIP3     1647     TIP3     H2       HT       0.417000       1.00800           0
     14858 TIP3     1648     TIP3     OH2      OT      -0.834000       15.9994           0
     14859 TIP3     1648     TIP3     H1       HT       0.417000       1.00800           0
     14860 TIP3     1648     TIP3     H2       HT       0.417000       1.00800           0
     14861 TIP3     1649     TIP3     OH2      OT      -0.834000       15.9994           0
     14862 TIP3     1649     TIP3     H1       HT       0.417000       1.00800           0
     14863 TIP3     1649     TIP3     H2       HT       0.417000       1.00800           0
     14864 TIP3     1650     TIP3     OH2      OT      -0.834000       15.9994           0
     14865 TIP3     1650     TIP3     H1       HT       0.417000       1.00800           0
     14866 TIP3     1650     TIP3     H2       HT       0.417000       1.00800           0
     14867 TIP3     1651     TIP3     OH2      OT      -0.834000       15.9994           0
     14868 TIP3     1651     TIP3     H1       HT       0.417000       1.00800           0
     14869 TIP3     1651     TIP3     H2       HT       0.417000       1.00800           0
     14870 TIP3     1652     TIP3     OH2      OT      -0.834000       15.9994           0
     14871 TIP3     1652     TIP3     H1       HT       0.417000       1.00800           0
     14872 TIP3     1652     TIP3     H2       HT       0.417000       1.00800           0
     14873 TIP3     1653     TIP3     OH2      OT      -0.834000       15.9994           0
     14874 TIP3     1653     TIP3     H1       HT       0.417000       1.00800           0
     14875 TIP3     1653     TIP3     H2       HT       0.417000       1.00800           0
     14876 TIP3     1654     TIP3     OH2      OT      -0.834000       15.9994           0
     14877 TIP3     1654     TIP3     H1       HT       0.417000       1.00800           0
     14878 TIP3     1654     TIP3     H2       HT       0.417000       1.00800           0
     14879 TIP3     1655     TIP3     OH2      OT      -0.834000       15.9994           0
     14880 TIP3     1655     TIP3     H1       HT       0.417000       1.00800           0
     14881 TIP3     1655     TIP3     H2       HT       0.417000       1.00800           0
     14882 TIP3     1656     TIP3     OH2      OT      -0.834000       15.9994           0
     14883 TIP3     1656     TIP3     H1       HT       0.417000       1.00800           0
     14884 TIP3     1656     TIP3     H2       HT       0.417000       1.00800           0
     14885 TIP3     1657     TIP3     OH2      OT      -0.834000       15.9994           0
     14886 TIP3     1657     TIP3     H1       HT       0.417000       1.00800           0
     14887 TIP3     1657     TIP3     H2       HT       0.417000       1.00800           0
     14888 TIP3     1658     TIP3     OH2      OT      -0.834000       15.9994           0
     14889 TIP3     1658     TIP3     H1       HT       0.417000       1.00800           0
     14890 TIP3     1658     TIP3     H2       HT       0.417000       1.00800           0
     14891 TIP3     1659     TIP3     OH2      OT      -0.834000       15.9994           0
     14892 TIP3     1659     TIP3     H1       HT       0.417000       1.00800           0
     14893 TIP3     1659     TIP3     H2       HT       0.417000       1.00800           0
     14894 TIP3     1660     TIP3     OH2      OT      -0.834000       15.9994           0
     14895 TIP3     1660     TIP3     H1       HT       0.417000       1.00800           0
     14896 TIP3     1660     TIP3     H2       HT       0.417000       1.00800           0
     14897 TIP3     1661     TIP3     OH2      OT      -0.834000       15.9994           0
     14898 TIP3     1661     TIP3     H1       HT       0.417000       1.00800           0
     14899 TIP3     1661     TIP3     H2       HT       0.417000       1.00800           0
     14900 TIP3     1662     TIP3     OH2      OT      -0.834000       15.9994           0
     14901 TIP3     1662     TIP3     H1       HT       0.417000       1.00800           0
     14902 TIP3     1662     TIP3     H2       HT       0.417000       1.00800           0
     14903 TIP3     1663     TIP3     OH2      OT      -0.834000       15.9994           0
     14904 TIP3     1663     TIP3     H1       HT       0.417000       1.00800           0
     14905 TIP3     1663     TIP3     H2       HT       0.417000       1.00800           0
     14906 TIP3     1664     TIP3     OH2      OT      -0.834000       15.9994           0
     14907 TIP3     1664     TIP3     H1       HT       0.417000       1.00800           0
     14908 TIP3     1664     TIP3     H2       HT       0.417000       1.00800           0
     14909 TIP3     1665     TIP3     OH2      OT      -0.834000       15.9994           0
     14910 TIP3     1665     TIP3     H1       HT       0.417000       1.00800           0
     14911 TIP3     1665     TIP3     H2       HT       0.417000       1.00800           0
     14912 TIP3     1666     TIP3     OH2      OT      -0.834000       15.9994           0
     14913 TIP3     1666     TIP3     H1       HT       0.417000       1.00800           0
     14914 TIP3     1666     TIP3     H2       HT       0.417000       1.00800           0
     14915 TIP3     1667     TIP3     OH2      OT      -0.834000       15.9994           0
     14916 TIP3     1667     TIP3     H1       HT       0.417000       1.00800           0
     14917 TIP3     1667     TIP3     H2       HT       0.417000       1.00800           0
     14918 TIP3     1668     TIP3     OH2      OT      -0.834000       15.9994           0
     14919 TIP3     1668     TIP3     H1       HT       0.417000       1.00800           0
     14920 TIP3     1668     TIP3     H2       HT       0.417000       1.00800           0
     14921 TIP3     1669     TIP3     OH2      OT      -0.834000       15.9994           0
     14922 TIP3     1669     TIP3     H1       HT       0.417000       1.00800           0
     14923 TIP3     1669     TIP3     H2       HT       0.417000       1.00800           0
     14924 TIP3     1670     TIP3     OH2      OT      -0.834000       15.9994           0
     14925 TIP3     1670     TIP3     H1       HT       0.417000       1.00800           0
     14926 TIP3     1670     TIP3     H2       HT       0.417000       1.00800           0
     14927 TIP3     1671     TIP3     OH2      OT      -0.834000       15.9994           0
     14928 TIP3     1671     TIP3     H1       HT       0.417000       1.00800           0
     14929 TIP3     1671     TIP3     H2       HT       0.417000       1.00800           0
     14930 TIP3     1672     TIP3     OH2      OT      -0.834000       15.9994           0
     14931 TIP3     1672     TIP3     H1       HT       0.417000       1.00800           0
     14932 TIP3     1672     TIP3     H2       HT       0.417000       1.00800           0
     14933 TIP3     1673     TIP3     OH2      OT      -0.834000       15.9994           0
     14934 TIP3     1673     TIP3     H1       HT       0.417000       1.00800           0
     14935 TIP3     1673     TIP3     H2       HT       0.417000       1.00800           0
     14936 TIP3     1674     TIP3     OH2      OT      -0.834000       15.9994           0
     14937 TIP3     1674     TIP3     H1       HT       0.417000       1.00800           0
     14938 TIP3     1674     TIP3     H2       HT       0.417000       1.00800           0
     14939 TIP3     1675     TIP3     OH2      OT      -0.834000       15.9994           0
     14940 TIP3     1675     TIP3     H1       HT       0.417000       1.00800           0
     14941 TIP3     1675     TIP3     H2       HT       0.417000       1.00800           0
     14942 TIP3     1676     TIP3     OH2      OT      -0.834000       15.9994           0
     14943 TIP3     1676     TIP3     H1       HT       0.417000       1.00800           0
     14944 TIP3     1676     TIP3     H2       HT       0.417000       1.00800           0
     14945 TIP3     1677     TIP3     OH2      OT      -0.834000       15.9994           0
     14946 TIP3     1677     TIP3     H1       HT       0.417000       1.00800           0
     14947 TIP3     1677     TIP3     H2       HT       0.417000       1.00800           0
     14948 TIP3     1678     TIP3     OH2      OT      -0.834000       15.9994           0
     14949 TIP3     1678     TIP3     H1       HT       0.417000       1.00800           0
     14950 TIP3     1678     TIP3     H2       HT       0.417000       1.00800           0
     14951 TIP3     1679     TIP3     OH2      OT      -0.834000       15.9994           0
     14952 TIP3     1679     TIP3     H1       HT       0.417000       1.00800           0
     14953 TIP3     1679     TIP3     H2       HT       0.417000       1.00800           0
     14954 TIP3     1680     TIP3     OH2      OT      -0.834000       15.9994           0
     14955 TIP3     1680     TIP3     H1       HT       0.417000       1.00800           0
     14956 TIP3     1680     TIP3     H2       HT       0.417000       1.00800           0
     14957 TIP3     1681     TIP3     OH2      OT      -0.834000       15.9994           0
     14958 TIP3     1681     TIP3     H1       HT       0.417000       1.00800           0
     14959 TIP3     1681     TIP3     H2       HT       0.417000       1.00800           0
     14960 TIP3     1682     TIP3     OH2      OT      -0.834000       15.9994           0
     14961 TIP3     1682     TIP3     H1       HT       0.417000       1.00800           0
     14962 TIP3     1682     TIP3     H2       HT       0.417000       1.00800           0
     14963 TIP3     1683     TIP3     OH2      OT      -0.834000       15.9994           0
     14964 TIP3     1683     TIP3     H1       HT       0.417000       1.00800           0
     14965 TIP3     1683     TIP3     H2       HT       0.417000       1.00800           0
     14966 TIP3     1684     TIP3     OH2      OT      -0.834000       15.9994           0
     14967 TIP3     1684     TIP3     H1       HT       0.417000       1.00800           0
     14968 TIP3     1684     TIP3     H2       HT       0.417000       1.00800           0
     14969 TIP3     1685     TIP3     OH2      OT      -0.834000       15.9994           0
     14970 TIP3     1685     TIP3     H1       HT       0.417000       1.00800           0
     14971 TIP3     1685     TIP3     H2       HT       0.417000       1.00800           0
     14972 TIP3     1686     TIP3     OH2      OT      -0.834000       15.9994           0
     14973 TIP3     1686     TIP3     H1       HT       0.417000       1.00800           0
     14974 TIP3     1686     TIP3     H2       HT       0.417000       1.00800           0
     14975 TIP3     1687     TIP3     OH2      OT      -0.834000       15.9994           0
     14976 TIP3     1687     TIP3     H1       HT       0.417000       1.00800           0
     14977 TIP3     1687     TIP3     H2       HT       0.417000       1.00800           0
     14978 TIP3     1688     TIP3     OH2      OT      -0.834000       15.9994           0
     14979 TIP3     1688     TIP3     H1       HT       0.417000       1.00800           0
     14980 TIP3     1688     TIP3     H2       HT       0.417000       1.00800           0
     14981 TIP3     1689     TIP3     OH2      OT      -0.834000       15.9994           0
     14982 TIP3     1689     TIP3     H1       HT       0.417000       1.00800           0
     14983 TIP3     1689     TIP3     H2       HT       0.417000       1.00800           0
     14984 TIP3     1690     TIP3     OH2      OT      -0.834000       15.9994           0
     14985 TIP3     1690     TIP3     H1       HT       0.417000       1.00800           0
     14986 TIP3     1690     TIP3     H2       HT       0.417000       1.00800           0
     14987 TIP3     1691     TIP3     OH2      OT      -0.834000       15.9994           0
     14988 TIP3     1691     TIP3     H1       HT       0.417000       1.00800           0
     14989 TIP3     1691     TIP3     H2       HT       0.417000       1.00800           0
     14990 TIP3     1692     TIP3     OH2      OT      -0.834000       15.9994           0
     14991 TIP3     1692     TIP3     H1       HT       0.417000       1.00800           0
     14992 TIP3     1692     TIP3     H2       HT       0.417000       1.00800           0
     14993 TIP3     1693     TIP3     OH2      OT      -0.834000       15.9994           0
     14994 TIP3     1693     TIP3     H1       HT       0.417000       1.00800           0
     14995 TIP3     1693     TIP3     H2       HT       0.417000       1.00800           0
     14996 TIP3     1694     TIP3     OH2      OT      -0.834000       15.9994           0
     14997 TIP3     1694     TIP3     H1       HT       0.417000       1.00800           0
     14998 TIP3     1694     TIP3     H2       HT       0.417000       1.00800           0
     14999 TIP3     1695     TIP3     OH2      OT      -0.834000       15.9994           0
     15000 TIP3     1695     TIP3     H1       HT       0.417000       1.00800           0
     15001 TIP3     1695     TIP3     H2       HT       0.417000       1.00800           0
     15002 TIP3     1696     TIP3     OH2      OT      -0.834000       15.9994           0
     15003 TIP3     1696     TIP3     H1       HT       0.417000       1.00800           0
     15004 TIP3     1696     TIP3     H2       HT       0.417000       1.00800           0
     15005 TIP3     1697     TIP3     OH2      OT      -0.834000       15.9994           0
     15006 TIP3     1697     TIP3     H1       HT       0.417000       1.00800           0
     15007 TIP3     1697     TIP3     H2       HT       0.417000       1.00800           0
     15008 TIP3     1698     TIP3     OH2      OT      -0.834000       15.9994           0
     15009 TIP3     1698     TIP3     H1       HT       0.417000       1.00800           0
     15010 TIP3     1698     TIP3     H2       HT       0.417000       1.00800           0
     15011 TIP3     1699     TIP3     OH2      OT      -0.834000       15.9994           0
     15012 TIP3     1699     TIP3     H1       HT       0.417000       1.00800           0
     15013 TIP3     1699     TIP3     H2       HT       0.417000       1.00800           0
     15014 TIP3     1700     TIP3     OH2      OT      -0.834000       15.9994           0
     15015 TIP3     1700     TIP3     H1       HT       0.417000       1.00800           0
     15016 TIP3     1700     TIP3     H2       HT       0.417000       1.00800           0
     15017 TIP3     1701     TIP3     OH2      OT      -0.834000       15.9994           0
     15018 TIP3     1701     TIP3     H1       HT       0.417000       1.00800           0
     15019 TIP3     1701     TIP3     H2       HT       0.417000       1.00800           0
     15020 TIP3     1702     TIP3     OH2      OT      -0.834000       15.9994           0
     15021 TIP3     1702     TIP3     H1       HT       0.417000       1.00800           0
     15022 TIP3     1702     TIP3     H2       HT       0.417000       1.00800           0
     15023 TIP3     1703     TIP3     OH2      OT      -0.834000       15.9994           0
     15024 TIP3     1703     TIP3     H1       HT       0.417000       1.00800           0
     15025 TIP3     1703     TIP3     H2       HT       0.417000       1.00800           0
     15026 TIP3     1704     TIP3     OH2      OT      -0.834000       15.9994           0
     15027 TIP3     1704     TIP3     H1       HT       0.417000       1.00800           0
     15028 TIP3     1704     TIP3     H2       HT       0.417000       1.00800           0
     15029 TIP3     1705     TIP3     OH2      OT      -0.834000       15.9994           0
     15030 TIP3     1705     TIP3     H1       HT       0.417000       1.00800           0
     15031 TIP3     1705     TIP3     H2       HT       0.417000       1.00800           0
     15032 TIP3     1706     TIP3     OH2      OT      -0.834000       15.9994           0
     15033 TIP3     1706     TIP3     H1       HT       0.417000       1.00800           0
     15034 TIP3     1706     TIP3     H2       HT       0.417000       1.00800           0
     15035 TIP3     1707     TIP3     OH2      OT      -0.834000       15.9994           0
     15036 TIP3     1707     TIP3     H1       HT       0.417000       1.00800           0
     15037 TIP3     1707     TIP3     H2       HT       0.417000       1.00800           0
     15038 TIP3     1708     TIP3     OH2      OT      -0.834000       15.9994           0
     15039 TIP3     1708     TIP3     H1       HT       0.417000       1.00800           0
     15040 TIP3     1708     TIP3     H2       HT       0.417000       1.00800           0
     15041 TIP3     1709     TIP3     OH2      OT      -0.834000       15.9994           0
     15042 TIP3     1709     TIP3     H1       HT       0.417000       1.00800           0
     15043 TIP3     1709     TIP3     H2       HT       0.417000       1.00800           0
     15044 TIP3     1710     TIP3     OH2      OT      -0.834000       15.9994           0
     15045 TIP3     1710     TIP3     H1       HT       0.417000       1.00800           0
     15046 TIP3     1710     TIP3     H2       HT       0.417000       1.00800           0
     15047 TIP3     1711     TIP3     OH2      OT      -0.834000       15.9994           0
     15048 TIP3     1711     TIP3     H1       HT       0.417000       1.00800           0
     15049 TIP3     1711     TIP3     H2       HT       0.417000       1.00800           0
     15050 TIP3     1712     TIP3     OH2      OT      -0.834000       15.9994           0
     15051 TIP3     1712     TIP3     H1       HT       0.417000       1.00800           0
     15052 TIP3     1712     TIP3     H2       HT       0.417000       1.00800           0
     15053 TIP3     1713     TIP3     OH2      OT      -0.834000       15.9994           0
     15054 TIP3     1713     TIP3     H1       HT       0.417000       1.00800           0
     15055 TIP3     1713     TIP3     H2       HT       0.417000       1.00800           0
     15056 TIP3     1714     TIP3     OH2      OT      -0.834000       15.9994           0
     15057 TIP3     1714     TIP3     H1       HT       0.417000       1.00800           0
     15058 TIP3     1714     TIP3     H2       HT       0.417000       1.00800           0
     15059 TIP3     1715     TIP3     OH2      OT      -0.834000       15.9994           0
     15060 TIP3     1715     TIP3     H1       HT       0.417000       1.00800           0
     15061 TIP3     1715     TIP3     H2       HT       0.417000       1.00800           0
     15062 TIP3     1716     TIP3     OH2      OT      -0.834000       15.9994           0
     15063 TIP3     1716     TIP3     H1       HT       0.417000       1.00800           0
     15064 TIP3     1716     TIP3     H2       HT       0.417000       1.00800           0
     15065 TIP3     1717     TIP3     OH2      OT      -0.834000       15.9994           0
     15066 TIP3     1717     TIP3     H1       HT       0.417000       1.00800           0
     15067 TIP3     1717     TIP3     H2       HT       0.417000       1.00800           0
     15068 TIP3     1718     TIP3     OH2      OT      -0.834000       15.9994           0
     15069 TIP3     1718     TIP3     H1       HT       0.417000       1.00800           0
     15070 TIP3     1718     TIP3     H2       HT       0.417000       1.00800           0
     15071 TIP3     1719     TIP3     OH2      OT      -0.834000       15.9994           0
     15072 TIP3     1719     TIP3     H1       HT       0.417000       1.00800           0
     15073 TIP3     1719     TIP3     H2       HT       0.417000       1.00800           0
     15074 TIP3     1720     TIP3     OH2      OT      -0.834000       15.9994           0
     15075 TIP3     1720     TIP3     H1       HT       0.417000       1.00800           0
     15076 TIP3     1720     TIP3     H2       HT       0.417000       1.00800           0
     15077 TIP3     1721     TIP3     OH2      OT      -0.834000       15.9994           0
     15078 TIP3     1721     TIP3     H1       HT       0.417000       1.00800           0
     15079 TIP3     1721     TIP3     H2       HT       0.417000       1.00800           0
     15080 TIP3     1722     TIP3     OH2      OT      -0.834000       15.9994           0
     15081 TIP3     1722     TIP3     H1       HT       0.417000       1.00800           0
     15082 TIP3     1722     TIP3     H2       HT       0.417000       1.00800           0
     15083 TIP3     1723     TIP3     OH2      OT      -0.834000       15.9994           0
     15084 TIP3     1723     TIP3     H1       HT       0.417000       1.00800           0
     15085 TIP3     1723     TIP3     H2       HT       0.417000       1.00800           0
     15086 TIP3     1724     TIP3     OH2      OT      -0.834000       15.9994           0
     15087 TIP3     1724     TIP3     H1       HT       0.417000       1.00800           0
     15088 TIP3     1724     TIP3     H2       HT       0.417000       1.00800           0
     15089 TIP3     1725     TIP3     OH2      OT      -0.834000       15.9994           0
     15090 TIP3     1725     TIP3     H1       HT       0.417000       1.00800           0
     15091 TIP3     1725     TIP3     H2       HT       0.417000       1.00800           0
     15092 TIP3     1726     TIP3     OH2      OT      -0.834000       15.9994           0
     15093 TIP3     1726     TIP3     H1       HT       0.417000       1.00800           0
     15094 TIP3     1726     TIP3     H2       HT       0.417000       1.00800           0
     15095 TIP3     1727     TIP3     OH2      OT      -0.834000       15.9994           0
     15096 TIP3     1727     TIP3     H1       HT       0.417000       1.00800           0
     15097 TIP3     1727     TIP3     H2       HT       0.417000       1.00800           0
     15098 TIP3     1728     TIP3     OH2      OT      -0.834000       15.9994           0
     15099 TIP3     1728     TIP3     H1       HT       0.417000       1.00800           0
     15100 TIP3     1728     TIP3     H2       HT       0.417000       1.00800           0
     15101 TIP3     1729     TIP3     OH2      OT      -0.834000       15.9994           0
     15102 TIP3     1729     TIP3     H1       HT       0.417000       1.00800           0
     15103 TIP3     1729     TIP3     H2       HT       0.417000       1.00800           0
     15104 TIP3     1730     TIP3     OH2      OT      -0.834000       15.9994           0
     15105 TIP3     1730     TIP3     H1       HT       0.417000       1.00800           0
     15106 TIP3     1730     TIP3     H2       HT       0.417000       1.00800           0
     15107 TIP3     1731     TIP3     OH2      OT      -0.834000       15.9994           0
     15108 TIP3     1731     TIP3     H1       HT       0.417000       1.00800           0
     15109 TIP3     1731     TIP3     H2       HT       0.417000       1.00800           0
     15110 TIP3     1732     TIP3     OH2      OT      -0.834000       15.9994           0
     15111 TIP3     1732     TIP3     H1       HT       0.417000       1.00800           0
     15112 TIP3     1732     TIP3     H2       HT       0.417000       1.00800           0
     15113 TIP3     1733     TIP3     OH2      OT      -0.834000       15.9994           0
     15114 TIP3     1733     TIP3     H1       HT       0.417000       1.00800           0
     15115 TIP3     1733     TIP3     H2       HT       0.417000       1.00800           0
     15116 TIP3     1734     TIP3     OH2      OT      -0.834000       15.9994           0
     15117 TIP3     1734     TIP3     H1       HT       0.417000       1.00800           0
     15118 TIP3     1734     TIP3     H2       HT       0.417000       1.00800           0
     15119 TIP3     1735     TIP3     OH2      OT      -0.834000       15.9994           0
     15120 TIP3     1735     TIP3     H1       HT       0.417000       1.00800           0
     15121 TIP3     1735     TIP3     H2       HT       0.417000       1.00800           0
     15122 TIP3     1736     TIP3     OH2      OT      -0.834000       15.9994           0
     15123 TIP3     1736     TIP3     H1       HT       0.417000       1.00800           0
     15124 TIP3     1736     TIP3     H2       HT       0.417000       1.00800           0
     15125 TIP3     1737     TIP3     OH2      OT      -0.834000       15.9994           0
     15126 TIP3     1737     TIP3     H1       HT       0.417000       1.00800           0
     15127 TIP3     1737     TIP3     H2       HT       0.417000       1.00800           0
     15128 TIP3     1738     TIP3     OH2      OT      -0.834000       15.9994           0
     15129 TIP3     1738     TIP3     H1       HT       0.417000       1.00800           0
     15130 TIP3     1738     TIP3     H2       HT       0.417000       1.00800           0
     15131 TIP3     1739     TIP3     OH2      OT      -0.834000       15.9994           0
     15132 TIP3     1739     TIP3     H1       HT       0.417000       1.00800           0
     15133 TIP3     1739     TIP3     H2       HT       0.417000       1.00800           0
     15134 TIP3     1740     TIP3     OH2      OT      -0.834000       15.9994           0
     15135 TIP3     1740     TIP3     H1       HT       0.417000       1.00800           0
     15136 TIP3     1740     TIP3     H2       HT       0.417000       1.00800           0
     15137 TIP3     1741     TIP3     OH2      OT      -0.834000       15.9994           0
     15138 TIP3     1741     TIP3     H1       HT       0.417000       1.00800           0
     15139 TIP3     1741     TIP3     H2       HT       0.417000       1.00800           0
     15140 TIP3     1742     TIP3     OH2      OT      -0.834000       15.9994           0
     15141 TIP3     1742     TIP3     H1       HT       0.417000       1.00800           0
     15142 TIP3     1742     TIP3     H2       HT       0.417000       1.00800           0
     15143 TIP3     1743     TIP3     OH2      OT      -0.834000       15.9994           0
     15144 TIP3     1743     TIP3     H1       HT       0.417000       1.00800           0
     15145 TIP3     1743     TIP3     H2       HT       0.417000       1.00800           0
     15146 TIP3     1744     TIP3     OH2      OT      -0.834000       15.9994           0
     15147 TIP3     1744     TIP3     H1       HT       0.417000       1.00800           0
     15148 TIP3     1744     TIP3     H2       HT       0.417000       1.00800           0
     15149 TIP3     1745     TIP3     OH2      OT      -0.834000       15.9994           0
     15150 TIP3     1745     TIP3     H1       HT       0.417000       1.00800           0
     15151 TIP3     1745     TIP3     H2       HT       0.417000       1.00800           0
     15152 TIP3     1746     TIP3     OH2      OT      -0.834000       15.9994           0
     15153 TIP3     1746     TIP3     H1       HT       0.417000       1.00800           0
     15154 TIP3     1746     TIP3     H2       HT       0.417000       1.00800           0
     15155 TIP3     1747     TIP3     OH2      OT      -0.834000       15.9994           0
     15156 TIP3     1747     TIP3     H1       HT       0.417000       1.00800           0
     15157 TIP3     1747     TIP3     H2       HT       0.417000       1.00800           0
     15158 TIP3     1748     TIP3     OH2      OT      -0.834000       15.9994           0
     15159 TIP3     1748     TIP3     H1       HT       0.417000       1.00800           0
     15160 TIP3     1748     TIP3     H2       HT       0.417000       1.00800           0
     15161 TIP3     1749     TIP3     OH2      OT      -0.834000       15.9994           0
     15162 TIP3     1749     TIP3     H1       HT       0.417000       1.00800           0
     15163 TIP3     1749     TIP3     H2       HT       0.417000       1.00800           0
     15164 TIP3     1750     TIP3     OH2      OT      -0.834000       15.9994           0
     15165 TIP3     1750     TIP3     H1       HT       0.417000       1.00800           0
     15166 TIP3     1750     TIP3     H2       HT       0.417000       1.00800           0
     15167 TIP3     1751     TIP3     OH2      OT      -0.834000       15.9994           0
     15168 TIP3     1751     TIP3     H1       HT       0.417000       1.00800           0
     15169 TIP3     1751     TIP3     H2       HT       0.417000       1.00800           0
     15170 TIP3     1752     TIP3     OH2      OT      -0.834000       15.9994           0
     15171 TIP3     1752     TIP3     H1       HT       0.417000       1.00800           0
     15172 TIP3     1752     TIP3     H2       HT       0.417000       1.00800           0
     15173 TIP3     1753     TIP3     OH2      OT      -0.834000       15.9994           0
     15174 TIP3     1753     TIP3     H1       HT       0.417000       1.00800           0
     15175 TIP3     1753     TIP3     H2       HT       0.417000       1.00800           0
     15176 TIP3     1754     TIP3     OH2      OT      -0.834000       15.9994           0
     15177 TIP3     1754     TIP3     H1       HT       0.417000       1.00800           0
     15178 TIP3     1754     TIP3     H2       HT       0.417000       1.00800           0
     15179 TIP3     1755     TIP3     OH2      OT      -0.834000       15.9994           0
     15180 TIP3     1755     TIP3     H1       HT       0.417000       1.00800           0
     15181 TIP3     1755     TIP3     H2       HT       0.417000       1.00800           0
     15182 TIP3     1756     TIP3     OH2      OT      -0.834000       15.9994           0
     15183 TIP3     1756     TIP3     H1       HT       0.417000       1.00800           0
     15184 TIP3     1756     TIP3     H2       HT       0.417000       1.00800           0
     15185 TIP3     1757     TIP3     OH2      OT      -0.834000       15.9994           0
     15186 TIP3     1757     TIP3     H1       HT       0.417000       1.00800           0
     15187 TIP3     1757     TIP3     H2       HT       0.417000       1.00800           0
     15188 TIP3     1758     TIP3     OH2      OT      -0.834000       15.9994           0
     15189 TIP3     1758     TIP3     H1       HT       0.417000       1.00800           0
     15190 TIP3     1758     TIP3     H2       HT       0.417000       1.00800           0
     15191 TIP3     1759     TIP3     OH2      OT      -0.834000       15.9994           0
     15192 TIP3     1759     TIP3     H1       HT       0.417000       1.00800           0
     15193 TIP3     1759     TIP3     H2       HT       0.417000       1.00800           0
     15194 TIP3     1760     TIP3     OH2      OT      -0.834000       15.9994           0
     15195 TIP3     1760     TIP3     H1       HT       0.417000       1.00800           0
     15196 TIP3     1760     TIP3     H2       HT       0.417000       1.00800           0
     15197 TIP3     1761     TIP3     OH2      OT      -0.834000       15.9994           0
     15198 TIP3     1761     TIP3     H1       HT       0.417000       1.00800           0
     15199 TIP3     1761     TIP3     H2       HT       0.417000       1.00800           0
     15200 TIP3     1762     TIP3     OH2      OT      -0.834000       15.9994           0
     15201 TIP3     1762     TIP3     H1       HT       0.417000       1.00800           0
     15202 TIP3     1762     TIP3     H2       HT       0.417000       1.00800           0
     15203 TIP3     1763     TIP3     OH2      OT      -0.834000       15.9994           0
     15204 TIP3     1763     TIP3     H1       HT       0.417000       1.00800           0
     15205 TIP3     1763     TIP3     H2       HT       0.417000       1.00800           0
     15206 TIP3     1764     TIP3     OH2      OT      -0.834000       15.9994           0
     15207 TIP3     1764     TIP3     H1       HT       0.417000       1.00800           0
     15208 TIP3     1764     TIP3     H2       HT       0.417000       1.00800           0
     15209 TIP3     1765     TIP3     OH2      OT      -0.834000       15.9994           0
     15210 TIP3     1765     TIP3     H1       HT       0.417000       1.00800           0
     15211 TIP3     1765     TIP3     H2       HT       0.417000       1.00800           0
     15212 TIP3     1766     TIP3     OH2      OT      -0.834000       15.9994           0
     15213 TIP3     1766     TIP3     H1       HT       0.417000       1.00800           0
     15214 TIP3     1766     TIP3     H2       HT       0.417000       1.00800           0
     15215 TIP3     1767     TIP3     OH2      OT      -0.834000       15.9994           0
     15216 TIP3     1767     TIP3     H1       HT       0.417000       1.00800           0
     15217 TIP3     1767     TIP3     H2       HT       0.417000       1.00800           0
     15218 TIP3     1768     TIP3     OH2      OT      -0.834000       15.9994           0
     15219 TIP3     1768     TIP3     H1       HT       0.417000       1.00800           0
     15220 TIP3     1768     TIP3     H2       HT       0.417000       1.00800           0
     15221 TIP3     1769     TIP3     OH2      OT      -0.834000       15.9994           0
     15222 TIP3     1769     TIP3     H1       HT       0.417000       1.00800           0
     15223 TIP3     1769     TIP3     H2       HT       0.417000       1.00800           0
     15224 TIP3     1770     TIP3     OH2      OT      -0.834000       15.9994           0
     15225 TIP3     1770     TIP3     H1       HT       0.417000       1.00800           0
     15226 TIP3     1770     TIP3     H2       HT       0.417000       1.00800           0
     15227 TIP3     1771     TIP3     OH2      OT      -0.834000       15.9994           0
     15228 TIP3     1771     TIP3     H1       HT       0.417000       1.00800           0
     15229 TIP3     1771     TIP3     H2       HT       0.417000       1.00800           0
     15230 TIP3     1772     TIP3     OH2      OT      -0.834000       15.9994           0
     15231 TIP3     1772     TIP3     H1       HT       0.417000       1.00800           0
     15232 TIP3     1772     TIP3     H2       HT       0.417000       1.00800           0
     15233 TIP3     1773     TIP3     OH2      OT      -0.834000       15.9994           0
     15234 TIP3     1773     TIP3     H1       HT       0.417000       1.00800           0
     15235 TIP3     1773     TIP3     H2       HT       0.417000       1.00800           0
     15236 TIP3     1774     TIP3     OH2      OT      -0.834000       15.9994           0
     15237 TIP3     1774     TIP3     H1       HT       0.417000       1.00800           0
     15238 TIP3     1774     TIP3     H2       HT       0.417000       1.00800           0
     15239 TIP3     1775     TIP3     OH2      OT      -0.834000       15.9994           0
     15240 TIP3     1775     TIP3     H1       HT       0.417000       1.00800           0
     15241 TIP3     1775     TIP3     H2       HT       0.417000       1.00800           0
     15242 TIP3     1776     TIP3     OH2      OT      -0.834000       15.9994           0
     15243 TIP3     1776     TIP3     H1       HT       0.417000       1.00800           0
     15244 TIP3     1776     TIP3     H2       HT       0.417000       1.00800           0
     15245 TIP3     1777     TIP3     OH2      OT      -0.834000       15.9994           0
     15246 TIP3     1777     TIP3     H1       HT       0.417000       1.00800           0
     15247 TIP3     1777     TIP3     H2       HT       0.417000       1.00800           0
     15248 TIP3     1778     TIP3     OH2      OT      -0.834000       15.9994           0
     15249 TIP3     1778     TIP3     H1       HT       0.417000       1.00800           0
     15250 TIP3     1778     TIP3     H2       HT       0.417000       1.00800           0
     15251 TIP3     1779     TIP3     OH2      OT      -0.834000       15.9994           0
     15252 TIP3     1779     TIP3     H1       HT       0.417000       1.00800           0
     15253 TIP3     1779     TIP3     H2       HT       0.417000       1.00800           0
     15254 TIP3     1780     TIP3     OH2      OT      -0.834000       15.9994           0
     15255 TIP3     1780     TIP3     H1       HT       0.417000       1.00800           0
     15256 TIP3     1780     TIP3     H2       HT       0.417000       1.00800           0
     15257 TIP3     1781     TIP3     OH2      OT      -0.834000       15.9994           0
     15258 TIP3     1781     TIP3     H1       HT       0.417000       1.00800           0
     15259 TIP3     1781     TIP3     H2       HT       0.417000       1.00800           0
     15260 TIP3     1782     TIP3     OH2      OT      -0.834000       15.9994           0
     15261 TIP3     1782     TIP3     H1       HT       0.417000       1.00800           0
     15262 TIP3     1782     TIP3     H2       HT       0.417000       1.00800           0
     15263 TIP3     1783     TIP3     OH2      OT      -0.834000       15.9994           0
     15264 TIP3     1783     TIP3     H1       HT       0.417000       1.00800           0
     15265 TIP3     1783     TIP3     H2       HT       0.417000       1.00800           0
     15266 TIP3     1784     TIP3     OH2      OT      -0.834000       15.9994           0
     15267 TIP3     1784     TIP3     H1       HT       0.417000       1.00800           0
     15268 TIP3     1784     TIP3     H2       HT       0.417000       1.00800           0
     15269 TIP3     1785     TIP3     OH2      OT      -0.834000       15.9994           0
     15270 TIP3     1785     TIP3     H1       HT       0.417000       1.00800           0
     15271 TIP3     1785     TIP3     H2       HT       0.417000       1.00800           0
     15272 TIP3     1786     TIP3     OH2      OT      -0.834000       15.9994           0
     15273 TIP3     1786     TIP3     H1       HT       0.417000       1.00800           0
     15274 TIP3     1786     TIP3     H2       HT       0.417000       1.00800           0
     15275 TIP3     1787     TIP3     OH2      OT      -0.834000       15.9994           0
     15276 TIP3     1787     TIP3     H1       HT       0.417000       1.00800           0
     15277 TIP3     1787     TIP3     H2       HT       0.417000       1.00800           0
     15278 TIP3     1788     TIP3     OH2      OT      -0.834000       15.9994           0
     15279 TIP3     1788     TIP3     H1       HT       0.417000       1.00800           0
     15280 TIP3     1788     TIP3     H2       HT       0.417000       1.00800           0
     15281 TIP3     1789     TIP3     OH2      OT      -0.834000       15.9994           0
     15282 TIP3     1789     TIP3     H1       HT       0.417000       1.00800           0
     15283 TIP3     1789     TIP3     H2       HT       0.417000       1.00800           0
     15284 TIP3     1790     TIP3     OH2      OT      -0.834000       15.9994           0
     15285 TIP3     1790     TIP3     H1       HT       0.417000       1.00800           0
     15286 TIP3     1790     TIP3     H2       HT       0.417000       1.00800           0
     15287 TIP3     1791     TIP3     OH2      OT      -0.834000       15.9994           0
     15288 TIP3     1791     TIP3     H1       HT       0.417000       1.00800           0
     15289 TIP3     1791     TIP3     H2       HT       0.417000       1.00800           0
     15290 TIP3     1792     TIP3     OH2      OT      -0.834000       15.9994           0
     15291 TIP3     1792     TIP3     H1       HT       0.417000       1.00800           0
     15292 TIP3     1792     TIP3     H2       HT       0.417000       1.00800           0
     15293 TIP3     1793     TIP3     OH2      OT      -0.834000       15.9994           0
     15294 TIP3     1793     TIP3     H1       HT       0.417000       1.00800           0
     15295 TIP3     1793     TIP3     H2       HT       0.417000       1.00800           0
     15296 TIP3     1794     TIP3     OH2      OT      -0.834000       15.9994           0
     15297 TIP3     1794     TIP3     H1       HT       0.417000       1.00800           0
     15298 TIP3     1794     TIP3     H2       HT       0.417000       1.00800           0
     15299 TIP3     1795     TIP3     OH2      OT      -0.834000       15.9994           0
     15300 TIP3     1795     TIP3     H1       HT       0.417000       1.00800           0
     15301 TIP3     1795     TIP3     H2       HT       0.417000       1.00800           0
     15302 TIP3     1796     TIP3     OH2      OT      -0.834000       15.9994           0
     15303 TIP3     1796     TIP3     H1       HT       0.417000       1.00800           0
     15304 TIP3     1796     TIP3     H2       HT       0.417000       1.00800           0
     15305 TIP3     1797     TIP3     OH2      OT      -0.834000       15.9994           0
     15306 TIP3     1797     TIP3     H1       HT       0.417000       1.00800           0
     15307 TIP3     1797     TIP3     H2       HT       0.417000       1.00800           0
     15308 TIP3     1798     TIP3     OH2      OT      -0.834000       15.9994           0
     15309 TIP3     1798     TIP3     H1       HT       0.417000       1.00800           0
     15310 TIP3     1798     TIP3     H2       HT       0.417000       1.00800           0
     15311 TIP3     1799     TIP3     OH2      OT      -0.834000       15.9994           0
     15312 TIP3     1799     TIP3     H1       HT       0.417000       1.00800           0
     15313 TIP3     1799     TIP3     H2       HT       0.417000       1.00800           0
     15314 TIP3     1800     TIP3     OH2      OT      -0.834000       15.9994           0
     15315 TIP3     1800     TIP3     H1       HT       0.417000       1.00800           0
     15316 TIP3     1800     TIP3     H2       HT       0.417000       1.00800           0
     15317 TIP3     1801     TIP3     OH2      OT      -0.834000       15.9994           0
     15318 TIP3     1801     TIP3     H1       HT       0.417000       1.00800           0
     15319 TIP3     1801     TIP3     H2       HT       0.417000       1.00800           0
     15320 TIP3     1802     TIP3     OH2      OT      -0.834000       15.9994           0
     15321 TIP3     1802     TIP3     H1       HT       0.417000       1.00800           0
     15322 TIP3     1802     TIP3     H2       HT       0.417000       1.00800           0
     15323 TIP3     1803     TIP3     OH2      OT      -0.834000       15.9994           0
     15324 TIP3     1803     TIP3     H1       HT       0.417000       1.00800           0
     15325 TIP3     1803     TIP3     H2       HT       0.417000       1.00800           0
     15326 TIP3     1804     TIP3     OH2      OT      -0.834000       15.9994           0
     15327 TIP3     1804     TIP3     H1       HT       0.417000       1.00800           0
     15328 TIP3     1804     TIP3     H2       HT       0.417000       1.00800           0
     15329 TIP3     1805     TIP3     OH2      OT      -0.834000       15.9994           0
     15330 TIP3     1805     TIP3     H1       HT       0.417000       1.00800           0
     15331 TIP3     1805     TIP3     H2       HT       0.417000       1.00800           0
     15332 TIP3     1806     TIP3     OH2      OT      -0.834000       15.9994           0
     15333 TIP3     1806     TIP3     H1       HT       0.417000       1.00800           0
     15334 TIP3     1806     TIP3     H2       HT       0.417000       1.00800           0
     15335 TIP3     1807     TIP3     OH2      OT      -0.834000       15.9994           0
     15336 TIP3     1807     TIP3     H1       HT       0.417000       1.00800           0
     15337 TIP3     1807     TIP3     H2       HT       0.417000       1.00800           0
     15338 TIP3     1808     TIP3     OH2      OT      -0.834000       15.9994           0
     15339 TIP3     1808     TIP3     H1       HT       0.417000       1.00800           0
     15340 TIP3     1808     TIP3     H2       HT       0.417000       1.00800           0
     15341 TIP3     1809     TIP3     OH2      OT      -0.834000       15.9994           0
     15342 TIP3     1809     TIP3     H1       HT       0.417000       1.00800           0
     15343 TIP3     1809     TIP3     H2       HT       0.417000       1.00800           0
     15344 TIP3     1810     TIP3     OH2      OT      -0.834000       15.9994           0
     15345 TIP3     1810     TIP3     H1       HT       0.417000       1.00800           0
     15346 TIP3     1810     TIP3     H2       HT       0.417000       1.00800           0
     15347 TIP3     1811     TIP3     OH2      OT      -0.834000       15.9994           0
     15348 TIP3     1811     TIP3     H1       HT       0.417000       1.00800           0
     15349 TIP3     1811     TIP3     H2       HT       0.417000       1.00800           0
     15350 TIP3     1812     TIP3     OH2      OT      -0.834000       15.9994           0
     15351 TIP3     1812     TIP3     H1       HT       0.417000       1.00800           0
     15352 TIP3     1812     TIP3     H2       HT       0.417000       1.00800           0
     15353 TIP3     1813     TIP3     OH2      OT      -0.834000       15.9994           0
     15354 TIP3     1813     TIP3     H1       HT       0.417000       1.00800           0
     15355 TIP3     1813     TIP3     H2       HT       0.417000       1.00800           0
     15356 TIP3     1814     TIP3     OH2      OT      -0.834000       15.9994           0
     15357 TIP3     1814     TIP3     H1       HT       0.417000       1.00800           0
     15358 TIP3     1814     TIP3     H2       HT       0.417000       1.00800           0
     15359 TIP3     1815     TIP3     OH2      OT      -0.834000       15.9994           0
     15360 TIP3     1815     TIP3     H1       HT       0.417000       1.00800           0
     15361 TIP3     1815     TIP3     H2       HT       0.417000       1.00800           0
     15362 TIP3     1816     TIP3     OH2      OT      -0.834000       15.9994           0
     15363 TIP3     1816     TIP3     H1       HT       0.417000       1.00800           0
     15364 TIP3     1816     TIP3     H2       HT       0.417000       1.00800           0
     15365 TIP3     1817     TIP3     OH2      OT      -0.834000       15.9994           0
     15366 TIP3     1817     TIP3     H1       HT       0.417000       1.00800           0
     15367 TIP3     1817     TIP3     H2       HT       0.417000       1.00800           0
     15368 TIP3     1818     TIP3     OH2      OT      -0.834000       15.9994           0
     15369 TIP3     1818     TIP3     H1       HT       0.417000       1.00800           0
     15370 TIP3     1818     TIP3     H2       HT       0.417000       1.00800           0
     15371 TIP3     1819     TIP3     OH2      OT      -0.834000       15.9994           0
     15372 TIP3     1819     TIP3     H1       HT       0.417000       1.00800           0
     15373 TIP3     1819     TIP3     H2       HT       0.417000       1.00800           0
     15374 TIP3     1820     TIP3     OH2      OT      -0.834000       15.9994           0
     15375 TIP3     1820     TIP3     H1       HT       0.417000       1.00800           0
     15376 TIP3     1820     TIP3     H2       HT       0.417000       1.00800           0
     15377 TIP3     1821     TIP3     OH2      OT      -0.834000       15.9994           0
     15378 TIP3     1821     TIP3     H1       HT       0.417000       1.00800           0
     15379 TIP3     1821     TIP3     H2       HT       0.417000       1.00800           0
     15380 TIP3     1822     TIP3     OH2      OT      -0.834000       15.9994           0
     15381 TIP3     1822     TIP3     H1       HT       0.417000       1.00800           0
     15382 TIP3     1822     TIP3     H2       HT       0.417000       1.00800           0
     15383 TIP3     1823     TIP3     OH2      OT      -0.834000       15.9994           0
     15384 TIP3     1823     TIP3     H1       HT       0.417000       1.00800           0
     15385 TIP3     1823     TIP3     H2       HT       0.417000       1.00800           0
     15386 TIP3     1824     TIP3     OH2      OT      -0.834000       15.9994           0
     15387 TIP3     1824     TIP3     H1       HT       0.417000       1.00800           0
     15388 TIP3     1824     TIP3     H2       HT       0.417000       1.00800           0
     15389 TIP3     1825     TIP3     OH2      OT      -0.834000       15.9994           0
     15390 TIP3     1825     TIP3     H1       HT       0.417000       1.00800           0
     15391 TIP3     1825     TIP3     H2       HT       0.417000       1.00800           0
     15392 TIP3     1826     TIP3     OH2      OT      -0.834000       15.9994           0
     15393 TIP3     1826     TIP3     H1       HT       0.417000       1.00800           0
     15394 TIP3     1826     TIP3     H2       HT       0.417000       1.00800           0
     15395 TIP3     1827     TIP3     OH2      OT      -0.834000       15.9994           0
     15396 TIP3     1827     TIP3     H1       HT       0.417000       1.00800           0
     15397 TIP3     1827     TIP3     H2       HT       0.417000       1.00800           0
     15398 TIP3     1828     TIP3     OH2      OT      -0.834000       15.9994           0
     15399 TIP3     1828     TIP3     H1       HT       0.417000       1.00800           0
     15400 TIP3     1828     TIP3     H2       HT       0.417000       1.00800           0
     15401 TIP3     1829     TIP3     OH2      OT      -0.834000       15.9994           0
     15402 TIP3     1829     TIP3     H1       HT       0.417000       1.00800           0
     15403 TIP3     1829     TIP3     H2       HT       0.417000       1.00800           0
     15404 TIP3     1830     TIP3     OH2      OT      -0.834000       15.9994           0
     15405 TIP3     1830     TIP3     H1       HT       0.417000       1.00800           0
     15406 TIP3     1830     TIP3     H2       HT       0.417000       1.00800           0
     15407 TIP3     1831     TIP3     OH2      OT      -0.834000       15.9994           0
     15408 TIP3     1831     TIP3     H1       HT       0.417000       1.00800           0
     15409 TIP3     1831     TIP3     H2       HT       0.417000       1.00800           0
     15410 TIP3     1832     TIP3     OH2      OT      -0.834000       15.9994           0
     15411 TIP3     1832     TIP3     H1       HT       0.417000       1.00800           0
     15412 TIP3     1832     TIP3     H2       HT       0.417000       1.00800           0
     15413 TIP3     1833     TIP3     OH2      OT      -0.834000       15.9994           0
     15414 TIP3     1833     TIP3     H1       HT       0.417000       1.00800           0
     15415 TIP3     1833     TIP3     H2       HT       0.417000       1.00800           0
     15416 TIP3     1834     TIP3     OH2      OT      -0.834000       15.9994           0
     15417 TIP3     1834     TIP3     H1       HT       0.417000       1.00800           0
     15418 TIP3     1834     TIP3     H2       HT       0.417000       1.00800           0
     15419 TIP3     1835     TIP3     OH2      OT      -0.834000       15.9994           0
     15420 TIP3     1835     TIP3     H1       HT       0.417000       1.00800           0
     15421 TIP3     1835     TIP3     H2       HT       0.417000       1.00800           0
     15422 TIP3     1836     TIP3     OH2      OT      -0.834000       15.9994           0
     15423 TIP3     1836     TIP3     H1       HT       0.417000       1.00800           0
     15424 TIP3     1836     TIP3     H2       HT       0.417000       1.00800           0
     15425 TIP3     1837     TIP3     OH2      OT      -0.834000       15.9994           0
     15426 TIP3     1837     TIP3     H1       HT       0.417000       1.00800           0
     15427 TIP3     1837     TIP3     H2       HT       0.417000       1.00800           0
     15428 TIP3     1838     TIP3     OH2      OT      -0.834000       15.9994           0
     15429 TIP3     1838     TIP3     H1       HT       0.417000       1.00800           0
     15430 TIP3     1838     TIP3     H2       HT       0.417000       1.00800           0
     15431 TIP3     1839     TIP3     OH2      OT      -0.834000       15.9994           0
     15432 TIP3     1839     TIP3     H1       HT       0.417000       1.00800           0
     15433 TIP3     1839     TIP3     H2       HT       0.417000       1.00800           0
     15434 TIP3     1840     TIP3     OH2      OT      -0.834000       15.9994           0
     15435 TIP3     1840     TIP3     H1       HT       0.417000       1.00800           0
     15436 TIP3     1840     TIP3     H2       HT       0.417000       1.00800           0
     15437 TIP3     1841     TIP3     OH2      OT      -0.834000       15.9994           0
     15438 TIP3     1841     TIP3     H1       HT       0.417000       1.00800           0
     15439 TIP3     1841     TIP3     H2       HT       0.417000       1.00800           0
     15440 TIP3     1842     TIP3     OH2      OT      -0.834000       15.9994           0
     15441 TIP3     1842     TIP3     H1       HT       0.417000       1.00800           0
     15442 TIP3     1842     TIP3     H2       HT       0.417000       1.00800           0
     15443 TIP3     1843     TIP3     OH2      OT      -0.834000       15.9994           0
     15444 TIP3     1843     TIP3     H1       HT       0.417000       1.00800           0
     15445 TIP3     1843     TIP3     H2       HT       0.417000       1.00800           0
     15446 TIP3     1844     TIP3     OH2      OT      -0.834000       15.9994           0
     15447 TIP3     1844     TIP3     H1       HT       0.417000       1.00800           0
     15448 TIP3     1844     TIP3     H2       HT       0.417000       1.00800           0
     15449 TIP3     1845     TIP3     OH2      OT      -0.834000       15.9994           0
     15450 TIP3     1845     TIP3     H1       HT       0.417000       1.00800           0
     15451 TIP3     1845     TIP3     H2       HT       0.417000       1.00800           0
     15452 TIP3     1846     TIP3     OH2      OT      -0.834000       15.9994           0
     15453 TIP3     1846     TIP3     H1       HT       0.417000       1.00800           0
     15454 TIP3     1846     TIP3     H2       HT       0.417000       1.00800           0
     15455 TIP3     1847     TIP3     OH2      OT      -0.834000       15.9994           0
     15456 TIP3     1847     TIP3     H1       HT       0.417000       1.00800           0
     15457 TIP3     1847     TIP3     H2       HT       0.417000       1.00800           0
     15458 TIP3     1848     TIP3     OH2      OT      -0.834000       15.9994           0
     15459 TIP3     1848     TIP3     H1       HT       0.417000       1.00800           0
     15460 TIP3     1848     TIP3     H2       HT       0.417000       1.00800           0
     15461 TIP3     1849     TIP3     OH2      OT      -0.834000       15.9994           0
     15462 TIP3     1849     TIP3     H1       HT       0.417000       1.00800           0
     15463 TIP3     1849     TIP3     H2       HT       0.417000       1.00800           0
     15464 TIP3     1850     TIP3     OH2      OT      -0.834000       15.9994           0
     15465 TIP3     1850     TIP3     H1       HT       0.417000       1.00800           0
     15466 TIP3     1850     TIP3     H2       HT       0.417000       1.00800           0
     15467 TIP3     1851     TIP3     OH2      OT      -0.834000       15.9994           0
     15468 TIP3     1851     TIP3     H1       HT       0.417000       1.00800           0
     15469 TIP3     1851     TIP3     H2       HT       0.417000       1.00800           0
     15470 TIP3     1852     TIP3     OH2      OT      -0.834000       15.9994           0
     15471 TIP3     1852     TIP3     H1       HT       0.417000       1.00800           0
     15472 TIP3     1852     TIP3     H2       HT       0.417000       1.00800           0
     15473 TIP3     1853     TIP3     OH2      OT      -0.834000       15.9994           0
     15474 TIP3     1853     TIP3     H1       HT       0.417000       1.00800           0
     15475 TIP3     1853     TIP3     H2       HT       0.417000       1.00800           0
     15476 TIP3     1854     TIP3     OH2      OT      -0.834000       15.9994           0
     15477 TIP3     1854     TIP3     H1       HT       0.417000       1.00800           0
     15478 TIP3     1854     TIP3     H2       HT       0.417000       1.00800           0
     15479 TIP3     1855     TIP3     OH2      OT      -0.834000       15.9994           0
     15480 TIP3     1855     TIP3     H1       HT       0.417000       1.00800           0
     15481 TIP3     1855     TIP3     H2       HT       0.417000       1.00800           0
     15482 TIP3     1856     TIP3     OH2      OT      -0.834000       15.9994           0
     15483 TIP3     1856     TIP3     H1       HT       0.417000       1.00800           0
     15484 TIP3     1856     TIP3     H2       HT       0.417000       1.00800           0
     15485 TIP3     1857     TIP3     OH2      OT      -0.834000       15.9994           0
     15486 TIP3     1857     TIP3     H1       HT       0.417000       1.00800           0
     15487 TIP3     1857     TIP3     H2       HT       0.417000       1.00800           0
     15488 TIP3     1858     TIP3     OH2      OT      -0.834000       15.9994           0
     15489 TIP3     1858     TIP3     H1       HT       0.417000       1.00800           0
     15490 TIP3     1858     TIP3     H2       HT       0.417000       1.00800           0
     15491 TIP3     1859     TIP3     OH2      OT      -0.834000       15.9994           0
     15492 TIP3     1859     TIP3     H1       HT       0.417000       1.00800           0
     15493 TIP3     1859     TIP3     H2       HT       0.417000       1.00800           0
     15494 TIP3     1860     TIP3     OH2      OT      -0.834000       15.9994           0
     15495 TIP3     1860     TIP3     H1       HT       0.417000       1.00800           0
     15496 TIP3     1860     TIP3     H2       HT       0.417000       1.00800           0
     15497 TIP3     1861     TIP3     OH2      OT      -0.834000       15.9994           0
     15498 TIP3     1861     TIP3     H1       HT       0.417000       1.00800           0
     15499 TIP3     1861     TIP3     H2       HT       0.417000       1.00800           0
     15500 TIP3     1862     TIP3     OH2      OT      -0.834000       15.9994           0
     15501 TIP3     1862     TIP3     H1       HT       0.417000       1.00800           0
     15502 TIP3     1862     TIP3     H2       HT       0.417000       1.00800           0
     15503 TIP3     1863     TIP3     OH2      OT      -0.834000       15.9994           0
     15504 TIP3     1863     TIP3     H1       HT       0.417000       1.00800           0
     15505 TIP3     1863     TIP3     H2       HT       0.417000       1.00800           0
     15506 TIP3     1864     TIP3     OH2      OT      -0.834000       15.9994           0
     15507 TIP3     1864     TIP3     H1       HT       0.417000       1.00800           0
     15508 TIP3     1864     TIP3     H2       HT       0.417000       1.00800           0
     15509 TIP3     1865     TIP3     OH2      OT      -0.834000       15.9994           0
     15510 TIP3     1865     TIP3     H1       HT       0.417000       1.00800           0
     15511 TIP3     1865     TIP3     H2       HT       0.417000       1.00800           0
     15512 TIP3     1866     TIP3     OH2      OT      -0.834000       15.9994           0
     15513 TIP3     1866     TIP3     H1       HT       0.417000       1.00800           0
     15514 TIP3     1866     TIP3     H2       HT       0.417000       1.00800           0
     15515 TIP3     1867     TIP3     OH2      OT      -0.834000       15.9994           0
     15516 TIP3     1867     TIP3     H1       HT       0.417000       1.00800           0
     15517 TIP3     1867     TIP3     H2       HT       0.417000       1.00800           0
     15518 TIP3     1868     TIP3     OH2      OT      -0.834000       15.9994           0
     15519 TIP3     1868     TIP3     H1       HT       0.417000       1.00800           0
     15520 TIP3     1868     TIP3     H2       HT       0.417000       1.00800           0
     15521 TIP3     1869     TIP3     OH2      OT      -0.834000       15.9994           0
     15522 TIP3     1869     TIP3     H1       HT       0.417000       1.00800           0
     15523 TIP3     1869     TIP3     H2       HT       0.417000       1.00800           0
     15524 TIP3     1870     TIP3     OH2      OT      -0.834000       15.9994           0
     15525 TIP3     1870     TIP3     H1       HT       0.417000       1.00800           0
     15526 TIP3     1870     TIP3     H2       HT       0.417000       1.00800           0
     15527 TIP3     1871     TIP3     OH2      OT      -0.834000       15.9994           0
     15528 TIP3     1871     TIP3     H1       HT       0.417000       1.00800           0
     15529 TIP3     1871     TIP3     H2       HT       0.417000       1.00800           0
     15530 TIP3     1872     TIP3     OH2      OT      -0.834000       15.9994           0
     15531 TIP3     1872     TIP3     H1       HT       0.417000       1.00800           0
     15532 TIP3     1872     TIP3     H2       HT       0.417000       1.00800           0
     15533 TIP3     1873     TIP3     OH2      OT      -0.834000       15.9994           0
     15534 TIP3     1873     TIP3     H1       HT       0.417000       1.00800           0
     15535 TIP3     1873     TIP3     H2       HT       0.417000       1.00800           0
     15536 TIP3     1874     TIP3     OH2      OT      -0.834000       15.9994           0
     15537 TIP3     1874     TIP3     H1       HT       0.417000       1.00800           0
     15538 TIP3     1874     TIP3     H2       HT       0.417000       1.00800           0
     15539 TIP3     1875     TIP3     OH2      OT      -0.834000       15.9994           0
     15540 TIP3     1875     TIP3     H1       HT       0.417000       1.00800           0
     15541 TIP3     1875     TIP3     H2       HT       0.417000       1.00800           0
     15542 TIP3     1876     TIP3     OH2      OT      -0.834000       15.9994           0
     15543 TIP3     1876     TIP3     H1       HT       0.417000       1.00800           0
     15544 TIP3     1876     TIP3     H2       HT       0.417000       1.00800           0
     15545 TIP3     1877     TIP3     OH2      OT      -0.834000       15.9994           0
     15546 TIP3     1877     TIP3     H1       HT       0.417000       1.00800           0
     15547 TIP3     1877     TIP3     H2       HT       0.417000       1.00800           0
     15548 TIP3     1878     TIP3     OH2      OT      -0.834000       15.9994           0
     15549 TIP3     1878     TIP3     H1       HT       0.417000       1.00800           0
     15550 TIP3     1878     TIP3     H2       HT       0.417000       1.00800           0
     15551 TIP3     1879     TIP3     OH2      OT      -0.834000       15.9994           0
     15552 TIP3     1879     TIP3     H1       HT       0.417000       1.00800           0
     15553 TIP3     1879     TIP3     H2       HT       0.417000       1.00800           0
     15554 TIP3     1880     TIP3     OH2      OT      -0.834000       15.9994           0
     15555 TIP3     1880     TIP3     H1       HT       0.417000       1.00800           0
     15556 TIP3     1880     TIP3     H2       HT       0.417000       1.00800           0
     15557 TIP3     1881     TIP3     OH2      OT      -0.834000       15.9994           0
     15558 TIP3     1881     TIP3     H1       HT       0.417000       1.00800           0
     15559 TIP3     1881     TIP3     H2       HT       0.417000       1.00800           0
     15560 TIP3     1882     TIP3     OH2      OT      -0.834000       15.9994           0
     15561 TIP3     1882     TIP3     H1       HT       0.417000       1.00800           0
     15562 TIP3     1882     TIP3     H2       HT       0.417000       1.00800           0
     15563 TIP3     1883     TIP3     OH2      OT      -0.834000       15.9994           0
     15564 TIP3     1883     TIP3     H1       HT       0.417000       1.00800           0
     15565 TIP3     1883     TIP3     H2       HT       0.417000       1.00800           0
     15566 TIP3     1884     TIP3     OH2      OT      -0.834000       15.9994           0
     15567 TIP3     1884     TIP3     H1       HT       0.417000       1.00800           0
     15568 TIP3     1884     TIP3     H2       HT       0.417000       1.00800           0
     15569 TIP3     1885     TIP3     OH2      OT      -0.834000       15.9994           0
     15570 TIP3     1885     TIP3     H1       HT       0.417000       1.00800           0
     15571 TIP3     1885     TIP3     H2       HT       0.417000       1.00800           0
     15572 TIP3     1886     TIP3     OH2      OT      -0.834000       15.9994           0
     15573 TIP3     1886     TIP3     H1       HT       0.417000       1.00800           0
     15574 TIP3     1886     TIP3     H2       HT       0.417000       1.00800           0
     15575 TIP3     1887     TIP3     OH2      OT      -0.834000       15.9994           0
     15576 TIP3     1887     TIP3     H1       HT       0.417000       1.00800           0
     15577 TIP3     1887     TIP3     H2       HT       0.417000       1.00800           0
     15578 TIP3     1888     TIP3     OH2      OT      -0.834000       15.9994           0
     15579 TIP3     1888     TIP3     H1       HT       0.417000       1.00800           0
     15580 TIP3     1888     TIP3     H2       HT       0.417000       1.00800           0
     15581 TIP3     1889     TIP3     OH2      OT      -0.834000       15.9994           0
     15582 TIP3     1889     TIP3     H1       HT       0.417000       1.00800           0
     15583 TIP3     1889     TIP3     H2       HT       0.417000       1.00800           0
     15584 TIP3     1890     TIP3     OH2      OT      -0.834000       15.9994           0
     15585 TIP3     1890     TIP3     H1       HT       0.417000       1.00800           0
     15586 TIP3     1890     TIP3     H2       HT       0.417000       1.00800           0
     15587 TIP3     1891     TIP3     OH2      OT      -0.834000       15.9994           0
     15588 TIP3     1891     TIP3     H1       HT       0.417000       1.00800           0
     15589 TIP3     1891     TIP3     H2       HT       0.417000       1.00800           0
     15590 TIP3     1892     TIP3     OH2      OT      -0.834000       15.9994           0
     15591 TIP3     1892     TIP3     H1       HT       0.417000       1.00800           0
     15592 TIP3     1892     TIP3     H2       HT       0.417000       1.00800           0
     15593 TIP3     1893     TIP3     OH2      OT      -0.834000       15.9994           0
     15594 TIP3     1893     TIP3     H1       HT       0.417000       1.00800           0
     15595 TIP3     1893     TIP3     H2       HT       0.417000       1.00800           0
     15596 TIP3     1894     TIP3     OH2      OT      -0.834000       15.9994           0
     15597 TIP3     1894     TIP3     H1       HT       0.417000       1.00800           0
     15598 TIP3     1894     TIP3     H2       HT       0.417000       1.00800           0
     15599 TIP3     1895     TIP3     OH2      OT      -0.834000       15.9994           0
     15600 TIP3     1895     TIP3     H1       HT       0.417000       1.00800           0
     15601 TIP3     1895     TIP3     H2       HT       0.417000       1.00800           0
     15602 TIP3     1896     TIP3     OH2      OT      -0.834000       15.9994           0
     15603 TIP3     1896     TIP3     H1       HT       0.417000       1.00800           0
     15604 TIP3     1896     TIP3     H2       HT       0.417000       1.00800           0
     15605 TIP3     1897     TIP3     OH2      OT      -0.834000       15.9994           0
     15606 TIP3     1897     TIP3     H1       HT       0.417000       1.00800           0
     15607 TIP3     1897     TIP3     H2       HT       0.417000       1.00800           0
     15608 TIP3     1898     TIP3     OH2      OT      -0.834000       15.9994           0
     15609 TIP3     1898     TIP3     H1       HT       0.417000       1.00800           0
     15610 TIP3     1898     TIP3     H2       HT       0.417000       1.00800           0
     15611 TIP3     1899     TIP3     OH2      OT      -0.834000       15.9994           0
     15612 TIP3     1899     TIP3     H1       HT       0.417000       1.00800           0
     15613 TIP3     1899     TIP3     H2       HT       0.417000       1.00800           0
     15614 TIP3     1900     TIP3     OH2      OT      -0.834000       15.9994           0
     15615 TIP3     1900     TIP3     H1       HT       0.417000       1.00800           0
     15616 TIP3     1900     TIP3     H2       HT       0.417000       1.00800           0
     15617 TIP3     1901     TIP3     OH2      OT      -0.834000       15.9994           0
     15618 TIP3     1901     TIP3     H1       HT       0.417000       1.00800           0
     15619 TIP3     1901     TIP3     H2       HT       0.417000       1.00800           0
     15620 TIP3     1902     TIP3     OH2      OT      -0.834000       15.9994           0
     15621 TIP3     1902     TIP3     H1       HT       0.417000       1.00800           0
     15622 TIP3     1902     TIP3     H2       HT       0.417000       1.00800           0
     15623 TIP3     1903     TIP3     OH2      OT      -0.834000       15.9994           0
     15624 TIP3     1903     TIP3     H1       HT       0.417000       1.00800           0
     15625 TIP3     1903     TIP3     H2       HT       0.417000       1.00800           0
     15626 TIP3     1904     TIP3     OH2      OT      -0.834000       15.9994           0
     15627 TIP3     1904     TIP3     H1       HT       0.417000       1.00800           0
     15628 TIP3     1904     TIP3     H2       HT       0.417000       1.00800           0
     15629 TIP3     1905     TIP3     OH2      OT      -0.834000       15.9994           0
     15630 TIP3     1905     TIP3     H1       HT       0.417000       1.00800           0
     15631 TIP3     1905     TIP3     H2       HT       0.417000       1.00800           0
     15632 TIP3     1906     TIP3     OH2      OT      -0.834000       15.9994           0
     15633 TIP3     1906     TIP3     H1       HT       0.417000       1.00800           0
     15634 TIP3     1906     TIP3     H2       HT       0.417000       1.00800           0
     15635 TIP3     1907     TIP3     OH2      OT      -0.834000       15.9994           0
     15636 TIP3     1907     TIP3     H1       HT       0.417000       1.00800           0
     15637 TIP3     1907     TIP3     H2       HT       0.417000       1.00800           0
     15638 TIP3     1908     TIP3     OH2      OT      -0.834000       15.9994           0
     15639 TIP3     1908     TIP3     H1       HT       0.417000       1.00800           0
     15640 TIP3     1908     TIP3     H2       HT       0.417000       1.00800           0
     15641 TIP3     1909     TIP3     OH2      OT      -0.834000       15.9994           0
     15642 TIP3     1909     TIP3     H1       HT       0.417000       1.00800           0
     15643 TIP3     1909     TIP3     H2       HT       0.417000       1.00800           0
     15644 TIP3     1910     TIP3     OH2      OT      -0.834000       15.9994           0
     15645 TIP3     1910     TIP3     H1       HT       0.417000       1.00800           0
     15646 TIP3     1910     TIP3     H2       HT       0.417000       1.00800           0
     15647 TIP3     1911     TIP3     OH2      OT      -0.834000       15.9994           0
     15648 TIP3     1911     TIP3     H1       HT       0.417000       1.00800           0
     15649 TIP3     1911     TIP3     H2       HT       0.417000       1.00800           0
     15650 TIP3     1912     TIP3     OH2      OT      -0.834000       15.9994           0
     15651 TIP3     1912     TIP3     H1       HT       0.417000       1.00800           0
     15652 TIP3     1912     TIP3     H2       HT       0.417000       1.00800           0
     15653 TIP3     1913     TIP3     OH2      OT      -0.834000       15.9994           0
     15654 TIP3     1913     TIP3     H1       HT       0.417000       1.00800           0
     15655 TIP3     1913     TIP3     H2       HT       0.417000       1.00800           0
     15656 TIP3     1914     TIP3     OH2      OT      -0.834000       15.9994           0
     15657 TIP3     1914     TIP3     H1       HT       0.417000       1.00800           0
     15658 TIP3     1914     TIP3     H2       HT       0.417000       1.00800           0
     15659 TIP3     1915     TIP3     OH2      OT      -0.834000       15.9994           0
     15660 TIP3     1915     TIP3     H1       HT       0.417000       1.00800           0
     15661 TIP3     1915     TIP3     H2       HT       0.417000       1.00800           0
     15662 TIP3     1916     TIP3     OH2      OT      -0.834000       15.9994           0
     15663 TIP3     1916     TIP3     H1       HT       0.417000       1.00800           0
     15664 TIP3     1916     TIP3     H2       HT       0.417000       1.00800           0
     15665 TIP3     1917     TIP3     OH2      OT      -0.834000       15.9994           0
     15666 TIP3     1917     TIP3     H1       HT       0.417000       1.00800           0
     15667 TIP3     1917     TIP3     H2       HT       0.417000       1.00800           0
     15668 TIP3     1918     TIP3     OH2      OT      -0.834000       15.9994           0
     15669 TIP3     1918     TIP3     H1       HT       0.417000       1.00800           0
     15670 TIP3     1918     TIP3     H2       HT       0.417000       1.00800           0
     15671 TIP3     1919     TIP3     OH2      OT      -0.834000       15.9994           0
     15672 TIP3     1919     TIP3     H1       HT       0.417000       1.00800           0
     15673 TIP3     1919     TIP3     H2       HT       0.417000       1.00800           0
     15674 TIP3     1920     TIP3     OH2      OT      -0.834000       15.9994           0
     15675 TIP3     1920     TIP3     H1       HT       0.417000       1.00800           0
     15676 TIP3     1920     TIP3     H2       HT       0.417000       1.00800           0
     15677 TIP3     1921     TIP3     OH2      OT      -0.834000       15.9994           0
     15678 TIP3     1921     TIP3     H1       HT       0.417000       1.00800           0
     15679 TIP3     1921     TIP3     H2       HT       0.417000       1.00800           0
     15680 TIP3     1922     TIP3     OH2      OT      -0.834000       15.9994           0
     15681 TIP3     1922     TIP3     H1       HT       0.417000       1.00800           0
     15682 TIP3     1922     TIP3     H2       HT       0.417000       1.00800           0
     15683 TIP3     1923     TIP3     OH2      OT      -0.834000       15.9994           0
     15684 TIP3     1923     TIP3     H1       HT       0.417000       1.00800           0
     15685 TIP3     1923     TIP3     H2       HT       0.417000       1.00800           0
     15686 TIP3     1924     TIP3     OH2      OT      -0.834000       15.9994           0
     15687 TIP3     1924     TIP3     H1       HT       0.417000       1.00800           0
     15688 TIP3     1924     TIP3     H2       HT       0.417000       1.00800           0
     15689 TIP3     1925     TIP3     OH2      OT      -0.834000       15.9994           0
     15690 TIP3     1925     TIP3     H1       HT       0.417000       1.00800           0
     15691 TIP3     1925     TIP3     H2       HT       0.417000       1.00800           0
     15692 TIP3     1926     TIP3     OH2      OT      -0.834000       15.9994           0
     15693 TIP3     1926     TIP3     H1       HT       0.417000       1.00800           0
     15694 TIP3     1926     TIP3     H2       HT       0.417000       1.00800           0
     15695 TIP3     1927     TIP3     OH2      OT      -0.834000       15.9994           0
     15696 TIP3     1927     TIP3     H1       HT       0.417000       1.00800           0
     15697 TIP3     1927     TIP3     H2       HT       0.417000       1.00800           0
     15698 TIP3     1928     TIP3     OH2      OT      -0.834000       15.9994           0
     15699 TIP3     1928     TIP3     H1       HT       0.417000       1.00800           0
     15700 TIP3     1928     TIP3     H2       HT       0.417000       1.00800           0
     15701 TIP3     1929     TIP3     OH2      OT      -0.834000       15.9994           0
     15702 TIP3     1929     TIP3     H1       HT       0.417000       1.00800           0
     15703 TIP3     1929     TIP3     H2       HT       0.417000       1.00800           0
     15704 TIP3     1930     TIP3     OH2      OT      -0.834000       15.9994           0
     15705 TIP3     1930     TIP3     H1       HT       0.417000       1.00800           0
     15706 TIP3     1930     TIP3     H2       HT       0.417000       1.00800           0
     15707 TIP3     1931     TIP3     OH2      OT      -0.834000       15.9994           0
     15708 TIP3     1931     TIP3     H1       HT       0.417000       1.00800           0
     15709 TIP3     1931     TIP3     H2       HT       0.417000       1.00800           0
     15710 TIP3     1932     TIP3     OH2      OT      -0.834000       15.9994           0
     15711 TIP3     1932     TIP3     H1       HT       0.417000       1.00800           0
     15712 TIP3     1932     TIP3     H2       HT       0.417000       1.00800           0
     15713 TIP3     1933     TIP3     OH2      OT      -0.834000       15.9994           0
     15714 TIP3     1933     TIP3     H1       HT       0.417000       1.00800           0
     15715 TIP3     1933     TIP3     H2       HT       0.417000       1.00800           0
     15716 TIP3     1934     TIP3     OH2      OT      -0.834000       15.9994           0
     15717 TIP3     1934     TIP3     H1       HT       0.417000       1.00800           0
     15718 TIP3     1934     TIP3     H2       HT       0.417000       1.00800           0
     15719 TIP3     1935     TIP3     OH2      OT      -0.834000       15.9994           0
     15720 TIP3     1935     TIP3     H1       HT       0.417000       1.00800           0
     15721 TIP3     1935     TIP3     H2       HT       0.417000       1.00800           0
     15722 TIP3     1936     TIP3     OH2      OT      -0.834000       15.9994           0
     15723 TIP3     1936     TIP3     H1       HT       0.417000       1.00800           0
     15724 TIP3     1936     TIP3     H2       HT       0.417000       1.00800           0
     15725 TIP3     1937     TIP3     OH2      OT      -0.834000       15.9994           0
     15726 TIP3     1937     TIP3     H1       HT       0.417000       1.00800           0
     15727 TIP3     1937     TIP3     H2       HT       0.417000       1.00800           0
     15728 TIP3     1938     TIP3     OH2      OT      -0.834000       15.9994           0
     15729 TIP3     1938     TIP3     H1       HT       0.417000       1.00800           0
     15730 TIP3     1938     TIP3     H2       HT       0.417000       1.00800           0
     15731 TIP3     1939     TIP3     OH2      OT      -0.834000       15.9994           0
     15732 TIP3     1939     TIP3     H1       HT       0.417000       1.00800           0
     15733 TIP3     1939     TIP3     H2       HT       0.417000       1.00800           0
     15734 TIP3     1940     TIP3     OH2      OT      -0.834000       15.9994           0
     15735 TIP3     1940     TIP3     H1       HT       0.417000       1.00800           0
     15736 TIP3     1940     TIP3     H2       HT       0.417000       1.00800           0
     15737 TIP3     1941     TIP3     OH2      OT      -0.834000       15.9994           0
     15738 TIP3     1941     TIP3     H1       HT       0.417000       1.00800           0
     15739 TIP3     1941     TIP3     H2       HT       0.417000       1.00800           0
     15740 TIP3     1942     TIP3     OH2      OT      -0.834000       15.9994           0
     15741 TIP3     1942     TIP3     H1       HT       0.417000       1.00800           0
     15742 TIP3     1942     TIP3     H2       HT       0.417000       1.00800           0
     15743 TIP3     1943     TIP3     OH2      OT      -0.834000       15.9994           0
     15744 TIP3     1943     TIP3     H1       HT       0.417000       1.00800           0
     15745 TIP3     1943     TIP3     H2       HT       0.417000       1.00800           0
     15746 TIP3     1944     TIP3     OH2      OT      -0.834000       15.9994           0
     15747 TIP3     1944     TIP3     H1       HT       0.417000       1.00800           0
     15748 TIP3     1944     TIP3     H2       HT       0.417000       1.00800           0
     15749 TIP3     1945     TIP3     OH2      OT      -0.834000       15.9994           0
     15750 TIP3     1945     TIP3     H1       HT       0.417000       1.00800           0
     15751 TIP3     1945     TIP3     H2       HT       0.417000       1.00800           0
     15752 TIP3     1946     TIP3     OH2      OT      -0.834000       15.9994           0
     15753 TIP3     1946     TIP3     H1       HT       0.417000       1.00800           0
     15754 TIP3     1946     TIP3     H2       HT       0.417000       1.00800           0
     15755 TIP3     1947     TIP3     OH2      OT      -0.834000       15.9994           0
     15756 TIP3     1947     TIP3     H1       HT       0.417000       1.00800           0
     15757 TIP3     1947     TIP3     H2       HT       0.417000       1.00800           0
     15758 TIP3     1948     TIP3     OH2      OT      -0.834000       15.9994           0
     15759 TIP3     1948     TIP3     H1       HT       0.417000       1.00800           0
     15760 TIP3     1948     TIP3     H2       HT       0.417000       1.00800           0
     15761 TIP3     1949     TIP3     OH2      OT      -0.834000       15.9994           0
     15762 TIP3     1949     TIP3     H1       HT       0.417000       1.00800           0
     15763 TIP3     1949     TIP3     H2       HT       0.417000       1.00800           0
     15764 TIP3     1950     TIP3     OH2      OT      -0.834000       15.9994           0
     15765 TIP3     1950     TIP3     H1       HT       0.417000       1.00800           0
     15766 TIP3     1950     TIP3     H2       HT       0.417000       1.00800           0
     15767 TIP3     1951     TIP3     OH2      OT      -0.834000       15.9994           0
     15768 TIP3     1951     TIP3     H1       HT       0.417000       1.00800           0
     15769 TIP3     1951     TIP3     H2       HT       0.417000       1.00800           0
     15770 TIP3     1952     TIP3     OH2      OT      -0.834000       15.9994           0
     15771 TIP3     1952     TIP3     H1       HT       0.417000       1.00800           0
     15772 TIP3     1952     TIP3     H2       HT       0.417000       1.00800           0
     15773 TIP3     1953     TIP3     OH2      OT      -0.834000       15.9994           0
     15774 TIP3     1953     TIP3     H1       HT       0.417000       1.00800           0
     15775 TIP3     1953     TIP3     H2       HT       0.417000       1.00800           0
     15776 TIP3     1954     TIP3     OH2      OT      -0.834000       15.9994           0
     15777 TIP3     1954     TIP3     H1       HT       0.417000       1.00800           0
     15778 TIP3     1954     TIP3     H2       HT       0.417000       1.00800           0
     15779 TIP3     1955     TIP3     OH2      OT      -0.834000       15.9994           0
     15780 TIP3     1955     TIP3     H1       HT       0.417000       1.00800           0
     15781 TIP3     1955     TIP3     H2       HT       0.417000       1.00800           0
     15782 TIP3     1956     TIP3     OH2      OT      -0.834000       15.9994           0
     15783 TIP3     1956     TIP3     H1       HT       0.417000       1.00800           0
     15784 TIP3     1956     TIP3     H2       HT       0.417000       1.00800           0
     15785 TIP3     1957     TIP3     OH2      OT      -0.834000       15.9994           0
     15786 TIP3     1957     TIP3     H1       HT       0.417000       1.00800           0
     15787 TIP3     1957     TIP3     H2       HT       0.417000       1.00800           0
     15788 TIP3     1958     TIP3     OH2      OT      -0.834000       15.9994           0
     15789 TIP3     1958     TIP3     H1       HT       0.417000       1.00800           0
     15790 TIP3     1958     TIP3     H2       HT       0.417000       1.00800           0
     15791 TIP3     1959     TIP3     OH2      OT      -0.834000       15.9994           0
     15792 TIP3     1959     TIP3     H1       HT       0.417000       1.00800           0
     15793 TIP3     1959     TIP3     H2       HT       0.417000       1.00800           0
     15794 TIP3     1960     TIP3     OH2      OT      -0.834000       15.9994           0
     15795 TIP3     1960     TIP3     H1       HT       0.417000       1.00800           0
     15796 TIP3     1960     TIP3     H2       HT       0.417000       1.00800           0
     15797 TIP3     1961     TIP3     OH2      OT      -0.834000       15.9994           0
     15798 TIP3     1961     TIP3     H1       HT       0.417000       1.00800           0
     15799 TIP3     1961     TIP3     H2       HT       0.417000       1.00800           0
     15800 TIP3     1962     TIP3     OH2      OT      -0.834000       15.9994           0
     15801 TIP3     1962     TIP3     H1       HT       0.417000       1.00800           0
     15802 TIP3     1962     TIP3     H2       HT       0.417000       1.00800           0
     15803 TIP3     1963     TIP3     OH2      OT      -0.834000       15.9994           0
     15804 TIP3     1963     TIP3     H1       HT       0.417000       1.00800           0
     15805 TIP3     1963     TIP3     H2       HT       0.417000       1.00800           0
     15806 TIP3     1964     TIP3     OH2      OT      -0.834000       15.9994           0
     15807 TIP3     1964     TIP3     H1       HT       0.417000       1.00800           0
     15808 TIP3     1964     TIP3     H2       HT       0.417000       1.00800           0
     15809 TIP3     1965     TIP3     OH2      OT      -0.834000       15.9994           0
     15810 TIP3     1965     TIP3     H1       HT       0.417000       1.00800           0
     15811 TIP3     1965     TIP3     H2       HT       0.417000       1.00800           0
     15812 TIP3     1966     TIP3     OH2      OT      -0.834000       15.9994           0
     15813 TIP3     1966     TIP3     H1       HT       0.417000       1.00800           0
     15814 TIP3     1966     TIP3     H2       HT       0.417000       1.00800           0
     15815 TIP3     1967     TIP3     OH2      OT      -0.834000       15.9994           0
     15816 TIP3     1967     TIP3     H1       HT       0.417000       1.00800           0
     15817 TIP3     1967     TIP3     H2       HT       0.417000       1.00800           0
     15818 TIP3     1968     TIP3     OH2      OT      -0.834000       15.9994           0
     15819 TIP3     1968     TIP3     H1       HT       0.417000       1.00800           0
     15820 TIP3     1968     TIP3     H2       HT       0.417000       1.00800           0
     15821 TIP3     1969     TIP3     OH2      OT      -0.834000       15.9994           0
     15822 TIP3     1969     TIP3     H1       HT       0.417000       1.00800           0
     15823 TIP3     1969     TIP3     H2       HT       0.417000       1.00800           0
     15824 TIP3     1970     TIP3     OH2      OT      -0.834000       15.9994           0
     15825 TIP3     1970     TIP3     H1       HT       0.417000       1.00800           0
     15826 TIP3     1970     TIP3     H2       HT       0.417000       1.00800           0
     15827 TIP3     1971     TIP3     OH2      OT      -0.834000       15.9994           0
     15828 TIP3     1971     TIP3     H1       HT       0.417000       1.00800           0
     15829 TIP3     1971     TIP3     H2       HT       0.417000       1.00800           0
     15830 TIP3     1972     TIP3     OH2      OT      -0.834000       15.9994           0
     15831 TIP3     1972     TIP3     H1       HT       0.417000       1.00800           0
     15832 TIP3     1972     TIP3     H2       HT       0.417000       1.00800           0
     15833 TIP3     1973     TIP3     OH2      OT      -0.834000       15.9994           0
     15834 TIP3     1973     TIP3     H1       HT       0.417000       1.00800           0
     15835 TIP3     1973     TIP3     H2       HT       0.417000       1.00800           0
     15836 TIP3     1974     TIP3     OH2      OT      -0.834000       15.9994           0
     15837 TIP3     1974     TIP3     H1       HT       0.417000       1.00800           0
     15838 TIP3     1974     TIP3     H2       HT       0.417000       1.00800           0
     15839 TIP3     1975     TIP3     OH2      OT      -0.834000       15.9994           0
     15840 TIP3     1975     TIP3     H1       HT       0.417000       1.00800           0
     15841 TIP3     1975     TIP3     H2       HT       0.417000       1.00800           0
     15842 TIP3     1976     TIP3     OH2      OT      -0.834000       15.9994           0
     15843 TIP3     1976     TIP3     H1       HT       0.417000       1.00800           0
     15844 TIP3     1976     TIP3     H2       HT       0.417000       1.00800           0
     15845 TIP3     1977     TIP3     OH2      OT      -0.834000       15.9994           0
     15846 TIP3     1977     TIP3     H1       HT       0.417000       1.00800           0
     15847 TIP3     1977     TIP3     H2       HT       0.417000       1.00800           0
     15848 TIP3     1978     TIP3     OH2      OT      -0.834000       15.9994           0
     15849 TIP3     1978     TIP3     H1       HT       0.417000       1.00800           0
     15850 TIP3     1978     TIP3     H2       HT       0.417000       1.00800           0
     15851 TIP3     1979     TIP3     OH2      OT      -0.834000       15.9994           0
     15852 TIP3     1979     TIP3     H1       HT       0.417000       1.00800           0
     15853 TIP3     1979     TIP3     H2       HT       0.417000       1.00800           0
     15854 TIP3     1980     TIP3     OH2      OT      -0.834000       15.9994           0
     15855 TIP3     1980     TIP3     H1       HT       0.417000       1.00800           0
     15856 TIP3     1980     TIP3     H2       HT       0.417000       1.00800           0
     15857 TIP3     1981     TIP3     OH2      OT      -0.834000       15.9994           0
     15858 TIP3     1981     TIP3     H1       HT       0.417000       1.00800           0
     15859 TIP3     1981     TIP3     H2       HT       0.417000       1.00800           0
     15860 TIP3     1982     TIP3     OH2      OT      -0.834000       15.9994           0
     15861 TIP3     1982     TIP3     H1       HT       0.417000       1.00800           0
     15862 TIP3     1982     TIP3     H2       HT       0.417000       1.00800           0
     15863 TIP3     1983     TIP3     OH2      OT      -0.834000       15.9994           0
     15864 TIP3     1983     TIP3     H1       HT       0.417000       1.00800           0
     15865 TIP3     1983     TIP3     H2       HT       0.417000       1.00800           0
     15866 TIP3     1984     TIP3     OH2      OT      -0.834000       15.9994           0
     15867 TIP3     1984     TIP3     H1       HT       0.417000       1.00800           0
     15868 TIP3     1984     TIP3     H2       HT       0.417000       1.00800           0
     15869 TIP3     1985     TIP3     OH2      OT      -0.834000       15.9994           0
     15870 TIP3     1985     TIP3     H1       HT       0.417000       1.00800           0
     15871 TIP3     1985     TIP3     H2       HT       0.417000       1.00800           0
     15872 TIP3     1986     TIP3     OH2      OT      -0.834000       15.9994           0
     15873 TIP3     1986     TIP3     H1       HT       0.417000       1.00800           0
     15874 TIP3     1986     TIP3     H2       HT       0.417000       1.00800           0
     15875 TIP3     1987     TIP3     OH2      OT      -0.834000       15.9994           0
     15876 TIP3     1987     TIP3     H1       HT       0.417000       1.00800           0
     15877 TIP3     1987     TIP3     H2       HT       0.417000       1.00800           0
     15878 TIP3     1988     TIP3     OH2      OT      -0.834000       15.9994           0
     15879 TIP3     1988     TIP3     H1       HT       0.417000       1.00800           0
     15880 TIP3     1988     TIP3     H2       HT       0.417000       1.00800           0
     15881 TIP3     1989     TIP3     OH2      OT      -0.834000       15.9994           0
     15882 TIP3     1989     TIP3     H1       HT       0.417000       1.00800           0
     15883 TIP3     1989     TIP3     H2       HT       0.417000       1.00800           0
     15884 TIP3     1990     TIP3     OH2      OT      -0.834000       15.9994           0
     15885 TIP3     1990     TIP3     H1       HT       0.417000       1.00800           0
     15886 TIP3     1990     TIP3     H2       HT       0.417000       1.00800           0
     15887 TIP3     1991     TIP3     OH2      OT      -0.834000       15.9994           0
     15888 TIP3     1991     TIP3     H1       HT       0.417000       1.00800           0
     15889 TIP3     1991     TIP3     H2       HT       0.417000       1.00800           0
     15890 TIP3     1992     TIP3     OH2      OT      -0.834000       15.9994           0
     15891 TIP3     1992     TIP3     H1       HT       0.417000       1.00800           0
     15892 TIP3     1992     TIP3     H2       HT       0.417000       1.00800           0
     15893 TIP3     1993     TIP3     OH2      OT      -0.834000       15.9994           0
     15894 TIP3     1993     TIP3     H1       HT       0.417000       1.00800           0
     15895 TIP3     1993     TIP3     H2       HT       0.417000       1.00800           0
     15896 TIP3     1994     TIP3     OH2      OT      -0.834000       15.9994           0
     15897 TIP3     1994     TIP3     H1       HT       0.417000       1.00800           0
     15898 TIP3     1994     TIP3     H2       HT       0.417000       1.00800           0
     15899 TIP3     1995     TIP3     OH2      OT      -0.834000       15.9994           0
     15900 TIP3     1995     TIP3     H1       HT       0.417000       1.00800           0
     15901 TIP3     1995     TIP3     H2       HT       0.417000       1.00800           0
     15902 TIP3     1996     TIP3     OH2      OT      -0.834000       15.9994           0
     15903 TIP3     1996     TIP3     H1       HT       0.417000       1.00800           0
     15904 TIP3     1996     TIP3     H2       HT       0.417000       1.00800           0
     15905 TIP3     1997     TIP3     OH2      OT      -0.834000       15.9994           0
     15906 TIP3     1997     TIP3     H1       HT       0.417000       1.00800           0
     15907 TIP3     1997     TIP3     H2       HT       0.417000       1.00800           0
     15908 TIP3     1998     TIP3     OH2      OT      -0.834000       15.9994           0
     15909 TIP3     1998     TIP3     H1       HT       0.417000       1.00800           0
     15910 TIP3     1998     TIP3     H2       HT       0.417000       1.00800           0
     15911 TIP3     1999     TIP3     OH2      OT      -0.834000       15.9994           0
     15912 TIP3     1999     TIP3     H1       HT       0.417000       1.00800           0
     15913 TIP3     1999     TIP3     H2       HT       0.417000       1.00800           0
     15914 TIP3     2000     TIP3     OH2      OT      -0.834000       15.9994           0
     15915 TIP3     2000     TIP3     H1       HT       0.417000       1.00800           0
     15916 TIP3     2000     TIP3     H2       HT       0.417000       1.00800           0
     15917 TIP3     2001     TIP3     OH2      OT      -0.834000       15.9994           0
     15918 TIP3     2001     TIP3     H1       HT       0.417000       1.00800           0
     15919 TIP3     2001     TIP3     H2       HT       0.417000       1.00800           0
     15920 TIP3     2002     TIP3     OH2      OT      -0.834000       15.9994           0
     15921 TIP3     2002     TIP3     H1       HT       0.417000       1.00800           0
     15922 TIP3     2002     TIP3     H2       HT       0.417000       1.00800           0
     15923 TIP3     2003     TIP3     OH2      OT      -0.834000       15.9994           0
     15924 TIP3     2003     TIP3     H1       HT       0.417000       1.00800           0
     15925 TIP3     2003     TIP3     H2       HT       0.417000       1.00800           0
     15926 TIP3     2004     TIP3     OH2      OT      -0.834000       15.9994           0
     15927 TIP3     2004     TIP3     H1       HT       0.417000       1.00800           0
     15928 TIP3     2004     TIP3     H2       HT       0.417000       1.00800           0
     15929 TIP3     2005     TIP3     OH2      OT      -0.834000       15.9994           0
     15930 TIP3     2005     TIP3     H1       HT       0.417000       1.00800           0
     15931 TIP3     2005     TIP3     H2       HT       0.417000       1.00800           0
     15932 TIP3     2006     TIP3     OH2      OT      -0.834000       15.9994           0
     15933 TIP3     2006     TIP3     H1       HT       0.417000       1.00800           0
     15934 TIP3     2006     TIP3     H2       HT       0.417000       1.00800           0
     15935 TIP3     2007     TIP3     OH2      OT      -0.834000       15.9994           0
     15936 TIP3     2007     TIP3     H1       HT       0.417000       1.00800           0
     15937 TIP3     2007     TIP3     H2       HT       0.417000       1.00800           0
     15938 TIP3     2008     TIP3     OH2      OT      -0.834000       15.9994           0
     15939 TIP3     2008     TIP3     H1       HT       0.417000       1.00800           0
     15940 TIP3     2008     TIP3     H2       HT       0.417000       1.00800           0
     15941 TIP3     2009     TIP3     OH2      OT      -0.834000       15.9994           0
     15942 TIP3     2009     TIP3     H1       HT       0.417000       1.00800           0
     15943 TIP3     2009     TIP3     H2       HT       0.417000       1.00800           0
     15944 TIP3     2010     TIP3     OH2      OT      -0.834000       15.9994           0
     15945 TIP3     2010     TIP3     H1       HT       0.417000       1.00800           0
     15946 TIP3     2010     TIP3     H2       HT       0.417000       1.00800           0
     15947 TIP3     2011     TIP3     OH2      OT      -0.834000       15.9994           0
     15948 TIP3     2011     TIP3     H1       HT       0.417000       1.00800           0
     15949 TIP3     2011     TIP3     H2       HT       0.417000       1.00800           0
     15950 TIP3     2012     TIP3     OH2      OT      -0.834000       15.9994           0
     15951 TIP3     2012     TIP3     H1       HT       0.417000       1.00800           0
     15952 TIP3     2012     TIP3     H2       HT       0.417000       1.00800           0
     15953 TIP3     2013     TIP3     OH2      OT      -0.834000       15.9994           0
     15954 TIP3     2013     TIP3     H1       HT       0.417000       1.00800           0
     15955 TIP3     2013     TIP3     H2       HT       0.417000       1.00800           0
     15956 TIP3     2014     TIP3     OH2      OT      -0.834000       15.9994           0
     15957 TIP3     2014     TIP3     H1       HT       0.417000       1.00800           0
     15958 TIP3     2014     TIP3     H2       HT       0.417000       1.00800           0
     15959 TIP3     2015     TIP3     OH2      OT      -0.834000       15.9994           0
     15960 TIP3     2015     TIP3     H1       HT       0.417000       1.00800           0
     15961 TIP3     2015     TIP3     H2       HT       0.417000       1.00800           0
     15962 TIP3     2016     TIP3     OH2      OT      -0.834000       15.9994           0
     15963 TIP3     2016     TIP3     H1       HT       0.417000       1.00800           0
     15964 TIP3     2016     TIP3     H2       HT       0.417000       1.00800           0
     15965 TIP3     2017     TIP3     OH2      OT      -0.834000       15.9994           0
     15966 TIP3     2017     TIP3     H1       HT       0.417000       1.00800           0
     15967 TIP3     2017     TIP3     H2       HT       0.417000       1.00800           0
     15968 TIP3     2018     TIP3     OH2      OT      -0.834000       15.9994           0
     15969 TIP3     2018     TIP3     H1       HT       0.417000       1.00800           0
     15970 TIP3     2018     TIP3     H2       HT       0.417000       1.00800           0
     15971 TIP3     2019     TIP3     OH2      OT      -0.834000       15.9994           0
     15972 TIP3     2019     TIP3     H1       HT       0.417000       1.00800           0
     15973 TIP3     2019     TIP3     H2       HT       0.417000       1.00800           0
     15974 TIP3     2020     TIP3     OH2      OT      -0.834000       15.9994           0
     15975 TIP3     2020     TIP3     H1       HT       0.417000       1.00800           0
     15976 TIP3     2020     TIP3     H2       HT       0.417000       1.00800           0
     15977 TIP3     2021     TIP3     OH2      OT      -0.834000       15.9994           0
     15978 TIP3     2021     TIP3     H1       HT       0.417000       1.00800           0
     15979 TIP3     2021     TIP3     H2       HT       0.417000       1.00800           0
     15980 TIP3     2022     TIP3     OH2      OT      -0.834000       15.9994           0
     15981 TIP3     2022     TIP3     H1       HT       0.417000       1.00800           0
     15982 TIP3     2022     TIP3     H2       HT       0.417000       1.00800           0
     15983 TIP3     2023     TIP3     OH2      OT      -0.834000       15.9994           0
     15984 TIP3     2023     TIP3     H1       HT       0.417000       1.00800           0
     15985 TIP3     2023     TIP3     H2       HT       0.417000       1.00800           0
     15986 TIP3     2024     TIP3     OH2      OT      -0.834000       15.9994           0
     15987 TIP3     2024     TIP3     H1       HT       0.417000       1.00800           0
     15988 TIP3     2024     TIP3     H2       HT       0.417000       1.00800           0
     15989 TIP3     2025     TIP3     OH2      OT      -0.834000       15.9994           0
     15990 TIP3     2025     TIP3     H1       HT       0.417000       1.00800           0
     15991 TIP3     2025     TIP3     H2       HT       0.417000       1.00800           0
     15992 TIP3     2026     TIP3     OH2      OT      -0.834000       15.9994           0
     15993 TIP3     2026     TIP3     H1       HT       0.417000       1.00800           0
     15994 TIP3     2026     TIP3     H2       HT       0.417000       1.00800           0
     15995 TIP3     2027     TIP3     OH2      OT      -0.834000       15.9994           0
     15996 TIP3     2027     TIP3     H1       HT       0.417000       1.00800           0
     15997 TIP3     2027     TIP3     H2       HT       0.417000       1.00800           0
     15998 TIP3     2028     TIP3     OH2      OT      -0.834000       15.9994           0
     15999 TIP3     2028     TIP3     H1       HT       0.417000       1.00800           0
     16000 TIP3     2028     TIP3     H2       HT       0.417000       1.00800           0
     16001 TIP3     2029     TIP3     OH2      OT      -0.834000       15.9994           0
     16002 TIP3     2029     TIP3     H1       HT       0.417000       1.00800           0
     16003 TIP3     2029     TIP3     H2       HT       0.417000       1.00800           0
     16004 TIP3     2030     TIP3     OH2      OT      -0.834000       15.9994           0
     16005 TIP3     2030     TIP3     H1       HT       0.417000       1.00800           0
     16006 TIP3     2030     TIP3     H2       HT       0.417000       1.00800           0
     16007 TIP3     2031     TIP3     OH2      OT      -0.834000       15.9994           0
     16008 TIP3     2031     TIP3     H1       HT       0.417000       1.00800           0
     16009 TIP3     2031     TIP3     H2       HT       0.417000       1.00800           0
     16010 TIP3     2032     TIP3     OH2      OT      -0.834000       15.9994           0
     16011 TIP3     2032     TIP3     H1       HT       0.417000       1.00800           0
     16012 TIP3     2032     TIP3     H2       HT       0.417000       1.00800           0
     16013 TIP3     2033     TIP3     OH2      OT      -0.834000       15.9994           0
     16014 TIP3     2033     TIP3     H1       HT       0.417000       1.00800           0
     16015 TIP3     2033     TIP3     H2       HT       0.417000       1.00800           0
     16016 TIP3     2034     TIP3     OH2      OT      -0.834000       15.9994           0
     16017 TIP3     2034     TIP3     H1       HT       0.417000       1.00800           0
     16018 TIP3     2034     TIP3     H2       HT       0.417000       1.00800           0
     16019 TIP3     2035     TIP3     OH2      OT      -0.834000       15.9994           0
     16020 TIP3     2035     TIP3     H1       HT       0.417000       1.00800           0
     16021 TIP3     2035     TIP3     H2       HT       0.417000       1.00800           0
     16022 TIP3     2036     TIP3     OH2      OT      -0.834000       15.9994           0
     16023 TIP3     2036     TIP3     H1       HT       0.417000       1.00800           0
     16024 TIP3     2036     TIP3     H2       HT       0.417000       1.00800           0
     16025 TIP3     2037     TIP3     OH2      OT      -0.834000       15.9994           0
     16026 TIP3     2037     TIP3     H1       HT       0.417000       1.00800           0
     16027 TIP3     2037     TIP3     H2       HT       0.417000       1.00800           0
     16028 TIP3     2038     TIP3     OH2      OT      -0.834000       15.9994           0
     16029 TIP3     2038     TIP3     H1       HT       0.417000       1.00800           0
     16030 TIP3     2038     TIP3     H2       HT       0.417000       1.00800           0
     16031 TIP3     2039     TIP3     OH2      OT      -0.834000       15.9994           0
     16032 TIP3     2039     TIP3     H1       HT       0.417000       1.00800           0
     16033 TIP3     2039     TIP3     H2       HT       0.417000       1.00800           0
     16034 TIP3     2040     TIP3     OH2      OT      -0.834000       15.9994           0
     16035 TIP3     2040     TIP3     H1       HT       0.417000       1.00800           0
     16036 TIP3     2040     TIP3     H2       HT       0.417000       1.00800           0
     16037 TIP3     2041     TIP3     OH2      OT      -0.834000       15.9994           0
     16038 TIP3     2041     TIP3     H1       HT       0.417000       1.00800           0
     16039 TIP3     2041     TIP3     H2       HT       0.417000       1.00800           0
     16040 TIP3     2042     TIP3     OH2      OT      -0.834000       15.9994           0
     16041 TIP3     2042     TIP3     H1       HT       0.417000       1.00800           0
     16042 TIP3     2042     TIP3     H2       HT       0.417000       1.00800           0
     16043 TIP3     2043     TIP3     OH2      OT      -0.834000       15.9994           0
     16044 TIP3     2043     TIP3     H1       HT       0.417000       1.00800           0
     16045 TIP3     2043     TIP3     H2       HT       0.417000       1.00800           0
     16046 TIP3     2044     TIP3     OH2      OT      -0.834000       15.9994           0
     16047 TIP3     2044     TIP3     H1       HT       0.417000       1.00800           0
     16048 TIP3     2044     TIP3     H2       HT       0.417000       1.00800           0
     16049 TIP3     2045     TIP3     OH2      OT      -0.834000       15.9994           0
     16050 TIP3     2045     TIP3     H1       HT       0.417000       1.00800           0
     16051 TIP3     2045     TIP3     H2       HT       0.417000       1.00800           0
     16052 TIP3     2046     TIP3     OH2      OT      -0.834000       15.9994           0
     16053 TIP3     2046     TIP3     H1       HT       0.417000       1.00800           0
     16054 TIP3     2046     TIP3     H2       HT       0.417000       1.00800           0
     16055 TIP3     2047     TIP3     OH2      OT      -0.834000       15.9994           0
     16056 TIP3     2047     TIP3     H1       HT       0.417000       1.00800           0
     16057 TIP3     2047     TIP3     H2       HT       0.417000       1.00800           0
     16058 TIP3     2048     TIP3     OH2      OT      -0.834000       15.9994           0
     16059 TIP3     2048     TIP3     H1       HT       0.417000       1.00800           0
     16060 TIP3     2048     TIP3     H2       HT       0.417000       1.00800           0
     16061 TIP3     2049     TIP3     OH2      OT      -0.834000       15.9994           0
     16062 TIP3     2049     TIP3     H1       HT       0.417000       1.00800           0
     16063 TIP3     2049     TIP3     H2       HT       0.417000       1.00800           0
     16064 TIP3     2050     TIP3     OH2      OT      -0.834000       15.9994           0
     16065 TIP3     2050     TIP3     H1       HT       0.417000       1.00800           0
     16066 TIP3     2050     TIP3     H2       HT       0.417000       1.00800           0
     16067 TIP3     2051     TIP3     OH2      OT      -0.834000       15.9994           0
     16068 TIP3     2051     TIP3     H1       HT       0.417000       1.00800           0
     16069 TIP3     2051     TIP3     H2       HT       0.417000       1.00800           0
     16070 TIP3     2052     TIP3     OH2      OT      -0.834000       15.9994           0
     16071 TIP3     2052     TIP3     H1       HT       0.417000       1.00800           0
     16072 TIP3     2052     TIP3     H2       HT       0.417000       1.00800           0
     16073 TIP3     2053     TIP3     OH2      OT      -0.834000       15.9994           0
     16074 TIP3     2053     TIP3     H1       HT       0.417000       1.00800           0
     16075 TIP3     2053     TIP3     H2       HT       0.417000       1.00800           0
     16076 TIP3     2054     TIP3     OH2      OT      -0.834000       15.9994           0
     16077 TIP3     2054     TIP3     H1       HT       0.417000       1.00800           0
     16078 TIP3     2054     TIP3     H2       HT       0.417000       1.00800           0
     16079 TIP3     2055     TIP3     OH2      OT      -0.834000       15.9994           0
     16080 TIP3     2055     TIP3     H1       HT       0.417000       1.00800           0
     16081 TIP3     2055     TIP3     H2       HT       0.417000       1.00800           0
     16082 TIP3     2056     TIP3     OH2      OT      -0.834000       15.9994           0
     16083 TIP3     2056     TIP3     H1       HT       0.417000       1.00800           0
     16084 TIP3     2056     TIP3     H2       HT       0.417000       1.00800           0
     16085 TIP3     2057     TIP3     OH2      OT      -0.834000       15.9994           0
     16086 TIP3     2057     TIP3     H1       HT       0.417000       1.00800           0
     16087 TIP3     2057     TIP3     H2       HT       0.417000       1.00800           0
     16088 TIP3     2058     TIP3     OH2      OT      -0.834000       15.9994           0
     16089 TIP3     2058     TIP3     H1       HT       0.417000       1.00800           0
     16090 TIP3     2058     TIP3     H2       HT       0.417000       1.00800           0
     16091 TIP3     2059     TIP3     OH2      OT      -0.834000       15.9994           0
     16092 TIP3     2059     TIP3     H1       HT       0.417000       1.00800           0
     16093 TIP3     2059     TIP3     H2       HT       0.417000       1.00800           0
     16094 TIP3     2060     TIP3     OH2      OT      -0.834000       15.9994           0
     16095 TIP3     2060     TIP3     H1       HT       0.417000       1.00800           0
     16096 TIP3     2060     TIP3     H2       HT       0.417000       1.00800           0
     16097 TIP3     2061     TIP3     OH2      OT      -0.834000       15.9994           0
     16098 TIP3     2061     TIP3     H1       HT       0.417000       1.00800           0
     16099 TIP3     2061     TIP3     H2       HT       0.417000       1.00800           0
     16100 TIP3     2062     TIP3     OH2      OT      -0.834000       15.9994           0
     16101 TIP3     2062     TIP3     H1       HT       0.417000       1.00800           0
     16102 TIP3     2062     TIP3     H2       HT       0.417000       1.00800           0
     16103 TIP3     2063     TIP3     OH2      OT      -0.834000       15.9994           0
     16104 TIP3     2063     TIP3     H1       HT       0.417000       1.00800           0
     16105 TIP3     2063     TIP3     H2       HT       0.417000       1.00800           0
     16106 TIP3     2064     TIP3     OH2      OT      -0.834000       15.9994           0
     16107 TIP3     2064     TIP3     H1       HT       0.417000       1.00800           0
     16108 TIP3     2064     TIP3     H2       HT       0.417000       1.00800           0
     16109 TIP3     2065     TIP3     OH2      OT      -0.834000       15.9994           0
     16110 TIP3     2065     TIP3     H1       HT       0.417000       1.00800           0
     16111 TIP3     2065     TIP3     H2       HT       0.417000       1.00800           0
     16112 TIP3     2066     TIP3     OH2      OT      -0.834000       15.9994           0
     16113 TIP3     2066     TIP3     H1       HT       0.417000       1.00800           0
     16114 TIP3     2066     TIP3     H2       HT       0.417000       1.00800           0
     16115 TIP3     2067     TIP3     OH2      OT      -0.834000       15.9994           0
     16116 TIP3     2067     TIP3     H1       HT       0.417000       1.00800           0
     16117 TIP3     2067     TIP3     H2       HT       0.417000       1.00800           0
     16118 TIP3     2068     TIP3     OH2      OT      -0.834000       15.9994           0
     16119 TIP3     2068     TIP3     H1       HT       0.417000       1.00800           0
     16120 TIP3     2068     TIP3     H2       HT       0.417000       1.00800           0
     16121 TIP3     2069     TIP3     OH2      OT      -0.834000       15.9994           0
     16122 TIP3     2069     TIP3     H1       HT       0.417000       1.00800           0
     16123 TIP3     2069     TIP3     H2       HT       0.417000       1.00800           0
     16124 TIP3     2070     TIP3     OH2      OT      -0.834000       15.9994           0
     16125 TIP3     2070     TIP3     H1       HT       0.417000       1.00800           0
     16126 TIP3     2070     TIP3     H2       HT       0.417000       1.00800           0
     16127 TIP3     2071     TIP3     OH2      OT      -0.834000       15.9994           0
     16128 TIP3     2071     TIP3     H1       HT       0.417000       1.00800           0
     16129 TIP3     2071     TIP3     H2       HT       0.417000       1.00800           0
     16130 TIP3     2072     TIP3     OH2      OT      -0.834000       15.9994           0
     16131 TIP3     2072     TIP3     H1       HT       0.417000       1.00800           0
     16132 TIP3     2072     TIP3     H2       HT       0.417000       1.00800           0
     16133 TIP3     2073     TIP3     OH2      OT      -0.834000       15.9994           0
     16134 TIP3     2073     TIP3     H1       HT       0.417000       1.00800           0
     16135 TIP3     2073     TIP3     H2       HT       0.417000       1.00800           0
     16136 TIP3     2074     TIP3     OH2      OT      -0.834000       15.9994           0
     16137 TIP3     2074     TIP3     H1       HT       0.417000       1.00800           0
     16138 TIP3     2074     TIP3     H2       HT       0.417000       1.00800           0
     16139 TIP3     2075     TIP3     OH2      OT      -0.834000       15.9994           0
     16140 TIP3     2075     TIP3     H1       HT       0.417000       1.00800           0
     16141 TIP3     2075     TIP3     H2       HT       0.417000       1.00800           0
     16142 TIP3     2076     TIP3     OH2      OT      -0.834000       15.9994           0
     16143 TIP3     2076     TIP3     H1       HT       0.417000       1.00800           0
     16144 TIP3     2076     TIP3     H2       HT       0.417000       1.00800           0
     16145 TIP3     2077     TIP3     OH2      OT      -0.834000       15.9994           0
     16146 TIP3     2077     TIP3     H1       HT       0.417000       1.00800           0
     16147 TIP3     2077     TIP3     H2       HT       0.417000       1.00800           0
     16148 TIP3     2078     TIP3     OH2      OT      -0.834000       15.9994           0
     16149 TIP3     2078     TIP3     H1       HT       0.417000       1.00800           0
     16150 TIP3     2078     TIP3     H2       HT       0.417000       1.00800           0
     16151 TIP3     2079     TIP3     OH2      OT      -0.834000       15.9994           0
     16152 TIP3     2079     TIP3     H1       HT       0.417000       1.00800           0
     16153 TIP3     2079     TIP3     H2       HT       0.417000       1.00800           0
     16154 TIP3     2080     TIP3     OH2      OT      -0.834000       15.9994           0
     16155 TIP3     2080     TIP3     H1       HT       0.417000       1.00800           0
     16156 TIP3     2080     TIP3     H2       HT       0.417000       1.00800           0
     16157 TIP3     2081     TIP3     OH2      OT      -0.834000       15.9994           0
     16158 TIP3     2081     TIP3     H1       HT       0.417000       1.00800           0
     16159 TIP3     2081     TIP3     H2       HT       0.417000       1.00800           0
     16160 TIP3     2082     TIP3     OH2      OT      -0.834000       15.9994           0
     16161 TIP3     2082     TIP3     H1       HT       0.417000       1.00800           0
     16162 TIP3     2082     TIP3     H2       HT       0.417000       1.00800           0
     16163 TIP3     2083     TIP3     OH2      OT      -0.834000       15.9994           0
     16164 TIP3     2083     TIP3     H1       HT       0.417000       1.00800           0
     16165 TIP3     2083     TIP3     H2       HT       0.417000       1.00800           0
     16166 TIP3     2084     TIP3     OH2      OT      -0.834000       15.9994           0
     16167 TIP3     2084     TIP3     H1       HT       0.417000       1.00800           0
     16168 TIP3     2084     TIP3     H2       HT       0.417000       1.00800           0
     16169 TIP3     2085     TIP3     OH2      OT      -0.834000       15.9994           0
     16170 TIP3     2085     TIP3     H1       HT       0.417000       1.00800           0
     16171 TIP3     2085     TIP3     H2       HT       0.417000       1.00800           0
     16172 TIP3     2086     TIP3     OH2      OT      -0.834000       15.9994           0
     16173 TIP3     2086     TIP3     H1       HT       0.417000       1.00800           0
     16174 TIP3     2086     TIP3     H2       HT       0.417000       1.00800           0
     16175 TIP3     2087     TIP3     OH2      OT      -0.834000       15.9994           0
     16176 TIP3     2087     TIP3     H1       HT       0.417000       1.00800           0
     16177 TIP3     2087     TIP3     H2       HT       0.417000       1.00800           0
     16178 TIP3     2088     TIP3     OH2      OT      -0.834000       15.9994           0
     16179 TIP3     2088     TIP3     H1       HT       0.417000       1.00800           0
     16180 TIP3     2088     TIP3     H2       HT       0.417000       1.00800           0
     16181 TIP3     2089     TIP3     OH2      OT      -0.834000       15.9994           0
     16182 TIP3     2089     TIP3     H1       HT       0.417000       1.00800           0
     16183 TIP3     2089     TIP3     H2       HT       0.417000       1.00800           0
     16184 TIP3     2090     TIP3     OH2      OT      -0.834000       15.9994           0
     16185 TIP3     2090     TIP3     H1       HT       0.417000       1.00800           0
     16186 TIP3     2090     TIP3     H2       HT       0.417000       1.00800           0
     16187 TIP3     2091     TIP3     OH2      OT      -0.834000       15.9994           0
     16188 TIP3     2091     TIP3     H1       HT       0.417000       1.00800           0
     16189 TIP3     2091     TIP3     H2       HT       0.417000       1.00800           0
     16190 TIP3     2092     TIP3     OH2      OT      -0.834000       15.9994           0
     16191 TIP3     2092     TIP3     H1       HT       0.417000       1.00800           0
     16192 TIP3     2092     TIP3     H2       HT       0.417000       1.00800           0
     16193 TIP3     2093     TIP3     OH2      OT      -0.834000       15.9994           0
     16194 TIP3     2093     TIP3     H1       HT       0.417000       1.00800           0
     16195 TIP3     2093     TIP3     H2       HT       0.417000       1.00800           0
     16196 TIP3     2094     TIP3     OH2      OT      -0.834000       15.9994           0
     16197 TIP3     2094     TIP3     H1       HT       0.417000       1.00800           0
     16198 TIP3     2094     TIP3     H2       HT       0.417000       1.00800           0
     16199 TIP3     2095     TIP3     OH2      OT      -0.834000       15.9994           0
     16200 TIP3     2095     TIP3     H1       HT       0.417000       1.00800           0
     16201 TIP3     2095     TIP3     H2       HT       0.417000       1.00800           0
     16202 TIP3     2096     TIP3     OH2      OT      -0.834000       15.9994           0
     16203 TIP3     2096     TIP3     H1       HT       0.417000       1.00800           0
     16204 TIP3     2096     TIP3     H2       HT       0.417000       1.00800           0
     16205 TIP3     2097     TIP3     OH2      OT      -0.834000       15.9994           0
     16206 TIP3     2097     TIP3     H1       HT       0.417000       1.00800           0
     16207 TIP3     2097     TIP3     H2       HT       0.417000       1.00800           0
     16208 TIP3     2098     TIP3     OH2      OT      -0.834000       15.9994           0
     16209 TIP3     2098     TIP3     H1       HT       0.417000       1.00800           0
     16210 TIP3     2098     TIP3     H2       HT       0.417000       1.00800           0
     16211 TIP3     2099     TIP3     OH2      OT      -0.834000       15.9994           0
     16212 TIP3     2099     TIP3     H1       HT       0.417000       1.00800           0
     16213 TIP3     2099     TIP3     H2       HT       0.417000       1.00800           0
     16214 TIP3     2100     TIP3     OH2      OT      -0.834000       15.9994           0
     16215 TIP3     2100     TIP3     H1       HT       0.417000       1.00800           0
     16216 TIP3     2100     TIP3     H2       HT       0.417000       1.00800           0
     16217 TIP3     2101     TIP3     OH2      OT      -0.834000       15.9994           0
     16218 TIP3     2101     TIP3     H1       HT       0.417000       1.00800           0
     16219 TIP3     2101     TIP3     H2       HT       0.417000       1.00800           0
     16220 TIP3     2102     TIP3     OH2      OT      -0.834000       15.9994           0
     16221 TIP3     2102     TIP3     H1       HT       0.417000       1.00800           0
     16222 TIP3     2102     TIP3     H2       HT       0.417000       1.00800           0
     16223 TIP3     2103     TIP3     OH2      OT      -0.834000       15.9994           0
     16224 TIP3     2103     TIP3     H1       HT       0.417000       1.00800           0
     16225 TIP3     2103     TIP3     H2       HT       0.417000       1.00800           0
     16226 TIP3     2104     TIP3     OH2      OT      -0.834000       15.9994           0
     16227 TIP3     2104     TIP3     H1       HT       0.417000       1.00800           0
     16228 TIP3     2104     TIP3     H2       HT       0.417000       1.00800           0
     16229 TIP3     2105     TIP3     OH2      OT      -0.834000       15.9994           0
     16230 TIP3     2105     TIP3     H1       HT       0.417000       1.00800           0
     16231 TIP3     2105     TIP3     H2       HT       0.417000       1.00800           0
     16232 TIP3     2106     TIP3     OH2      OT      -0.834000       15.9994           0
     16233 TIP3     2106     TIP3     H1       HT       0.417000       1.00800           0
     16234 TIP3     2106     TIP3     H2       HT       0.417000       1.00800           0
     16235 TIP3     2107     TIP3     OH2      OT      -0.834000       15.9994           0
     16236 TIP3     2107     TIP3     H1       HT       0.417000       1.00800           0
     16237 TIP3     2107     TIP3     H2       HT       0.417000       1.00800           0
     16238 TIP3     2108     TIP3     OH2      OT      -0.834000       15.9994           0
     16239 TIP3     2108     TIP3     H1       HT       0.417000       1.00800           0
     16240 TIP3     2108     TIP3     H2       HT       0.417000       1.00800           0
     16241 TIP3     2109     TIP3     OH2      OT      -0.834000       15.9994           0
     16242 TIP3     2109     TIP3     H1       HT       0.417000       1.00800           0
     16243 TIP3     2109     TIP3     H2       HT       0.417000       1.00800           0
     16244 TIP3     2110     TIP3     OH2      OT      -0.834000       15.9994           0
     16245 TIP3     2110     TIP3     H1       HT       0.417000       1.00800           0
     16246 TIP3     2110     TIP3     H2       HT       0.417000       1.00800           0
     16247 TIP3     2111     TIP3     OH2      OT      -0.834000       15.9994           0
     16248 TIP3     2111     TIP3     H1       HT       0.417000       1.00800           0
     16249 TIP3     2111     TIP3     H2       HT       0.417000       1.00800           0
     16250 TIP3     2112     TIP3     OH2      OT      -0.834000       15.9994           0
     16251 TIP3     2112     TIP3     H1       HT       0.417000       1.00800           0
     16252 TIP3     2112     TIP3     H2       HT       0.417000       1.00800           0
     16253 TIP3     2113     TIP3     OH2      OT      -0.834000       15.9994           0
     16254 TIP3     2113     TIP3     H1       HT       0.417000       1.00800           0
     16255 TIP3     2113     TIP3     H2       HT       0.417000       1.00800           0
     16256 TIP3     2114     TIP3     OH2      OT      -0.834000       15.9994           0
     16257 TIP3     2114     TIP3     H1       HT       0.417000       1.00800           0
     16258 TIP3     2114     TIP3     H2       HT       0.417000       1.00800           0
     16259 TIP3     2115     TIP3     OH2      OT      -0.834000       15.9994           0
     16260 TIP3     2115     TIP3     H1       HT       0.417000       1.00800           0
     16261 TIP3     2115     TIP3     H2       HT       0.417000       1.00800           0
     16262 TIP3     2116     TIP3     OH2      OT      -0.834000       15.9994           0
     16263 TIP3     2116     TIP3     H1       HT       0.417000       1.00800           0
     16264 TIP3     2116     TIP3     H2       HT       0.417000       1.00800           0
     16265 TIP3     2117     TIP3     OH2      OT      -0.834000       15.9994           0
     16266 TIP3     2117     TIP3     H1       HT       0.417000       1.00800           0
     16267 TIP3     2117     TIP3     H2       HT       0.417000       1.00800           0
     16268 TIP3     2118     TIP3     OH2      OT      -0.834000       15.9994           0
     16269 TIP3     2118     TIP3     H1       HT       0.417000       1.00800           0
     16270 TIP3     2118     TIP3     H2       HT       0.417000       1.00800           0
     16271 TIP3     2119     TIP3     OH2      OT      -0.834000       15.9994           0
     16272 TIP3     2119     TIP3     H1       HT       0.417000       1.00800           0
     16273 TIP3     2119     TIP3     H2       HT       0.417000       1.00800           0
     16274 TIP3     2120     TIP3     OH2      OT      -0.834000       15.9994           0
     16275 TIP3     2120     TIP3     H1       HT       0.417000       1.00800           0
     16276 TIP3     2120     TIP3     H2       HT       0.417000       1.00800           0
     16277 TIP3     2121     TIP3     OH2      OT      -0.834000       15.9994           0
     16278 TIP3     2121     TIP3     H1       HT       0.417000       1.00800           0
     16279 TIP3     2121     TIP3     H2       HT       0.417000       1.00800           0
     16280 TIP3     2122     TIP3     OH2      OT      -0.834000       15.9994           0
     16281 TIP3     2122     TIP3     H1       HT       0.417000       1.00800           0
     16282 TIP3     2122     TIP3     H2       HT       0.417000       1.00800           0
     16283 TIP3     2123     TIP3     OH2      OT      -0.834000       15.9994           0
     16284 TIP3     2123     TIP3     H1       HT       0.417000       1.00800           0
     16285 TIP3     2123     TIP3     H2       HT       0.417000       1.00800           0
     16286 TIP3     2124     TIP3     OH2      OT      -0.834000       15.9994           0
     16287 TIP3     2124     TIP3     H1       HT       0.417000       1.00800           0
     16288 TIP3     2124     TIP3     H2       HT       0.417000       1.00800           0
     16289 TIP3     2125     TIP3     OH2      OT      -0.834000       15.9994           0
     16290 TIP3     2125     TIP3     H1       HT       0.417000       1.00800           0
     16291 TIP3     2125     TIP3     H2       HT       0.417000       1.00800           0
     16292 TIP3     2126     TIP3     OH2      OT      -0.834000       15.9994           0
     16293 TIP3     2126     TIP3     H1       HT       0.417000       1.00800           0
     16294 TIP3     2126     TIP3     H2       HT       0.417000       1.00800           0
     16295 TIP3     2127     TIP3     OH2      OT      -0.834000       15.9994           0
     16296 TIP3     2127     TIP3     H1       HT       0.417000       1.00800           0
     16297 TIP3     2127     TIP3     H2       HT       0.417000       1.00800           0
     16298 TIP3     2128     TIP3     OH2      OT      -0.834000       15.9994           0
     16299 TIP3     2128     TIP3     H1       HT       0.417000       1.00800           0
     16300 TIP3     2128     TIP3     H2       HT       0.417000       1.00800           0
     16301 TIP3     2129     TIP3     OH2      OT      -0.834000       15.9994           0
     16302 TIP3     2129     TIP3     H1       HT       0.417000       1.00800           0
     16303 TIP3     2129     TIP3     H2       HT       0.417000       1.00800           0
     16304 TIP3     2130     TIP3     OH2      OT      -0.834000       15.9994           0
     16305 TIP3     2130     TIP3     H1       HT       0.417000       1.00800           0
     16306 TIP3     2130     TIP3     H2       HT       0.417000       1.00800           0
     16307 TIP3     2131     TIP3     OH2      OT      -0.834000       15.9994           0
     16308 TIP3     2131     TIP3     H1       HT       0.417000       1.00800           0
     16309 TIP3     2131     TIP3     H2       HT       0.417000       1.00800           0
     16310 TIP3     2132     TIP3     OH2      OT      -0.834000       15.9994           0
     16311 TIP3     2132     TIP3     H1       HT       0.417000       1.00800           0
     16312 TIP3     2132     TIP3     H2       HT       0.417000       1.00800           0
     16313 TIP3     2133     TIP3     OH2      OT      -0.834000       15.9994           0
     16314 TIP3     2133     TIP3     H1       HT       0.417000       1.00800           0
     16315 TIP3     2133     TIP3     H2       HT       0.417000       1.00800           0
     16316 TIP3     2134     TIP3     OH2      OT      -0.834000       15.9994           0
     16317 TIP3     2134     TIP3     H1       HT       0.417000       1.00800           0
     16318 TIP3     2134     TIP3     H2       HT       0.417000       1.00800           0
     16319 TIP3     2135     TIP3     OH2      OT      -0.834000       15.9994           0
     16320 TIP3     2135     TIP3     H1       HT       0.417000       1.00800           0
     16321 TIP3     2135     TIP3     H2       HT       0.417000       1.00800           0
     16322 TIP3     2136     TIP3     OH2      OT      -0.834000       15.9994           0
     16323 TIP3     2136     TIP3     H1       HT       0.417000       1.00800           0
     16324 TIP3     2136     TIP3     H2       HT       0.417000       1.00800           0
     16325 TIP3     2137     TIP3     OH2      OT      -0.834000       15.9994           0
     16326 TIP3     2137     TIP3     H1       HT       0.417000       1.00800           0
     16327 TIP3     2137     TIP3     H2       HT       0.417000       1.00800           0
     16328 TIP3     2138     TIP3     OH2      OT      -0.834000       15.9994           0
     16329 TIP3     2138     TIP3     H1       HT       0.417000       1.00800           0
     16330 TIP3     2138     TIP3     H2       HT       0.417000       1.00800           0
     16331 TIP3     2139     TIP3     OH2      OT      -0.834000       15.9994           0
     16332 TIP3     2139     TIP3     H1       HT       0.417000       1.00800           0
     16333 TIP3     2139     TIP3     H2       HT       0.417000       1.00800           0
     16334 TIP3     2140     TIP3     OH2      OT      -0.834000       15.9994           0
     16335 TIP3     2140     TIP3     H1       HT       0.417000       1.00800           0
     16336 TIP3     2140     TIP3     H2       HT       0.417000       1.00800           0
     16337 TIP3     2141     TIP3     OH2      OT      -0.834000       15.9994           0
     16338 TIP3     2141     TIP3     H1       HT       0.417000       1.00800           0
     16339 TIP3     2141     TIP3     H2       HT       0.417000       1.00800           0
     16340 TIP3     2142     TIP3     OH2      OT      -0.834000       15.9994           0
     16341 TIP3     2142     TIP3     H1       HT       0.417000       1.00800           0
     16342 TIP3     2142     TIP3     H2       HT       0.417000       1.00800           0
     16343 TIP3     2143     TIP3     OH2      OT      -0.834000       15.9994           0
     16344 TIP3     2143     TIP3     H1       HT       0.417000       1.00800           0
     16345 TIP3     2143     TIP3     H2       HT       0.417000       1.00800           0
     16346 TIP3     2144     TIP3     OH2      OT      -0.834000       15.9994           0
     16347 TIP3     2144     TIP3     H1       HT       0.417000       1.00800           0
     16348 TIP3     2144     TIP3     H2       HT       0.417000       1.00800           0
     16349 TIP3     2145     TIP3     OH2      OT      -0.834000       15.9994           0
     16350 TIP3     2145     TIP3     H1       HT       0.417000       1.00800           0
     16351 TIP3     2145     TIP3     H2       HT       0.417000       1.00800           0
     16352 TIP3     2146     TIP3     OH2      OT      -0.834000       15.9994           0
     16353 TIP3     2146     TIP3     H1       HT       0.417000       1.00800           0
     16354 TIP3     2146     TIP3     H2       HT       0.417000       1.00800           0
     16355 TIP3     2147     TIP3     OH2      OT      -0.834000       15.9994           0
     16356 TIP3     2147     TIP3     H1       HT       0.417000       1.00800           0
     16357 TIP3     2147     TIP3     H2       HT       0.417000       1.00800           0
     16358 TIP3     2148     TIP3     OH2      OT      -0.834000       15.9994           0
     16359 TIP3     2148     TIP3     H1       HT       0.417000       1.00800           0
     16360 TIP3     2148     TIP3     H2       HT       0.417000       1.00800           0
     16361 TIP3     2149     TIP3     OH2      OT      -0.834000       15.9994           0
     16362 TIP3     2149     TIP3     H1       HT       0.417000       1.00800           0
     16363 TIP3     2149     TIP3     H2       HT       0.417000       1.00800           0
     16364 TIP3     2150     TIP3     OH2      OT      -0.834000       15.9994           0
     16365 TIP3     2150     TIP3     H1       HT       0.417000       1.00800           0
     16366 TIP3     2150     TIP3     H2       HT       0.417000       1.00800           0
     16367 TIP3     2151     TIP3     OH2      OT      -0.834000       15.9994           0
     16368 TIP3     2151     TIP3     H1       HT       0.417000       1.00800           0
     16369 TIP3     2151     TIP3     H2       HT       0.417000       1.00800           0
     16370 TIP3     2152     TIP3     OH2      OT      -0.834000       15.9994           0
     16371 TIP3     2152     TIP3     H1       HT       0.417000       1.00800           0
     16372 TIP3     2152     TIP3     H2       HT       0.417000       1.00800           0
     16373 TIP3     2153     TIP3     OH2      OT      -0.834000       15.9994           0
     16374 TIP3     2153     TIP3     H1       HT       0.417000       1.00800           0
     16375 TIP3     2153     TIP3     H2       HT       0.417000       1.00800           0
     16376 TIP3     2154     TIP3     OH2      OT      -0.834000       15.9994           0
     16377 TIP3     2154     TIP3     H1       HT       0.417000       1.00800           0
     16378 TIP3     2154     TIP3     H2       HT       0.417000       1.00800           0
     16379 TIP3     2155     TIP3     OH2      OT      -0.834000       15.9994           0
     16380 TIP3     2155     TIP3     H1       HT       0.417000       1.00800           0
     16381 TIP3     2155     TIP3     H2       HT       0.417000       1.00800           0
     16382 TIP3     2156     TIP3     OH2      OT      -0.834000       15.9994           0
     16383 TIP3     2156     TIP3     H1       HT       0.417000       1.00800           0
     16384 TIP3     2156     TIP3     H2       HT       0.417000       1.00800           0
     16385 TIP3     2157     TIP3     OH2      OT      -0.834000       15.9994           0
     16386 TIP3     2157     TIP3     H1       HT       0.417000       1.00800           0
     16387 TIP3     2157     TIP3     H2       HT       0.417000       1.00800           0
     16388 TIP3     2158     TIP3     OH2      OT      -0.834000       15.9994           0
     16389 TIP3     2158     TIP3     H1       HT       0.417000       1.00800           0
     16390 TIP3     2158     TIP3     H2       HT       0.417000       1.00800           0
     16391 TIP3     2159     TIP3     OH2      OT      -0.834000       15.9994           0
     16392 TIP3     2159     TIP3     H1       HT       0.417000       1.00800           0
     16393 TIP3     2159     TIP3     H2       HT       0.417000       1.00800           0
     16394 TIP3     2160     TIP3     OH2      OT      -0.834000       15.9994           0
     16395 TIP3     2160     TIP3     H1       HT       0.417000       1.00800           0
     16396 TIP3     2160     TIP3     H2       HT       0.417000       1.00800           0
     16397 TIP3     2161     TIP3     OH2      OT      -0.834000       15.9994           0
     16398 TIP3     2161     TIP3     H1       HT       0.417000       1.00800           0
     16399 TIP3     2161     TIP3     H2       HT       0.417000       1.00800           0
     16400 TIP3     2162     TIP3     OH2      OT      -0.834000       15.9994           0
     16401 TIP3     2162     TIP3     H1       HT       0.417000       1.00800           0
     16402 TIP3     2162     TIP3     H2       HT       0.417000       1.00800           0
     16403 TIP3     2163     TIP3     OH2      OT      -0.834000       15.9994           0
     16404 TIP3     2163     TIP3     H1       HT       0.417000       1.00800           0
     16405 TIP3     2163     TIP3     H2       HT       0.417000       1.00800           0
     16406 TIP3     2164     TIP3     OH2      OT      -0.834000       15.9994           0
     16407 TIP3     2164     TIP3     H1       HT       0.417000       1.00800           0
     16408 TIP3     2164     TIP3     H2       HT       0.417000       1.00800           0
     16409 TIP3     2165     TIP3     OH2      OT      -0.834000       15.9994           0
     16410 TIP3     2165     TIP3     H1       HT       0.417000       1.00800           0
     16411 TIP3     2165     TIP3     H2       HT       0.417000       1.00800           0
     16412 TIP3     2166     TIP3     OH2      OT      -0.834000       15.9994           0
     16413 TIP3     2166     TIP3     H1       HT       0.417000       1.00800           0
     16414 TIP3     2166     TIP3     H2       HT       0.417000       1.00800           0
     16415 TIP3     2167     TIP3     OH2      OT      -0.834000       15.9994           0
     16416 TIP3     2167     TIP3     H1       HT       0.417000       1.00800           0
     16417 TIP3     2167     TIP3     H2       HT       0.417000       1.00800           0
     16418 TIP3     2168     TIP3     OH2      OT      -0.834000       15.9994           0
     16419 TIP3     2168     TIP3     H1       HT       0.417000       1.00800           0
     16420 TIP3     2168     TIP3     H2       HT       0.417000       1.00800           0
     16421 TIP3     2169     TIP3     OH2      OT      -0.834000       15.9994           0
     16422 TIP3     2169     TIP3     H1       HT       0.417000       1.00800           0
     16423 TIP3     2169     TIP3     H2       HT       0.417000       1.00800           0
     16424 TIP3     2170     TIP3     OH2      OT      -0.834000       15.9994           0
     16425 TIP3     2170     TIP3     H1       HT       0.417000       1.00800           0
     16426 TIP3     2170     TIP3     H2       HT       0.417000       1.00800           0
     16427 TIP3     2171     TIP3     OH2      OT      -0.834000       15.9994           0
     16428 TIP3     2171     TIP3     H1       HT       0.417000       1.00800           0
     16429 TIP3     2171     TIP3     H2       HT       0.417000       1.00800           0
     16430 TIP3     2172     TIP3     OH2      OT      -0.834000       15.9994           0
     16431 TIP3     2172     TIP3     H1       HT       0.417000       1.00800           0
     16432 TIP3     2172     TIP3     H2       HT       0.417000       1.00800           0
     16433 TIP3     2173     TIP3     OH2      OT      -0.834000       15.9994           0
     16434 TIP3     2173     TIP3     H1       HT       0.417000       1.00800           0
     16435 TIP3     2173     TIP3     H2       HT       0.417000       1.00800           0
     16436 TIP3     2174     TIP3     OH2      OT      -0.834000       15.9994           0
     16437 TIP3     2174     TIP3     H1       HT       0.417000       1.00800           0
     16438 TIP3     2174     TIP3     H2       HT       0.417000       1.00800           0
     16439 TIP3     2175     TIP3     OH2      OT      -0.834000       15.9994           0
     16440 TIP3     2175     TIP3     H1       HT       0.417000       1.00800           0
     16441 TIP3     2175     TIP3     H2       HT       0.417000       1.00800           0
     16442 TIP3     2176     TIP3     OH2      OT      -0.834000       15.9994           0
     16443 TIP3     2176     TIP3     H1       HT       0.417000       1.00800           0
     16444 TIP3     2176     TIP3     H2       HT       0.417000       1.00800           0
     16445 TIP3     2177     TIP3     OH2      OT      -0.834000       15.9994           0
     16446 TIP3     2177     TIP3     H1       HT       0.417000       1.00800           0
     16447 TIP3     2177     TIP3     H2       HT       0.417000       1.00800           0
     16448 TIP3     2178     TIP3     OH2      OT      -0.834000       15.9994           0
     16449 TIP3     2178     TIP3     H1       HT       0.417000       1.00800           0
     16450 TIP3     2178     TIP3     H2       HT       0.417000       1.00800           0
     16451 TIP3     2179     TIP3     OH2      OT      -0.834000       15.9994           0
     16452 TIP3     2179     TIP3     H1       HT       0.417000       1.00800           0
     16453 TIP3     2179     TIP3     H2       HT       0.417000       1.00800           0
     16454 TIP3     2180     TIP3     OH2      OT      -0.834000       15.9994           0
     16455 TIP3     2180     TIP3     H1       HT       0.417000       1.00800           0
     16456 TIP3     2180     TIP3     H2       HT       0.417000       1.00800           0
     16457 TIP3     2181     TIP3     OH2      OT      -0.834000       15.9994           0
     16458 TIP3     2181     TIP3     H1       HT       0.417000       1.00800           0
     16459 TIP3     2181     TIP3     H2       HT       0.417000       1.00800           0
     16460 TIP3     2182     TIP3     OH2      OT      -0.834000       15.9994           0
     16461 TIP3     2182     TIP3     H1       HT       0.417000       1.00800           0
     16462 TIP3     2182     TIP3     H2       HT       0.417000       1.00800           0
     16463 TIP3     2183     TIP3     OH2      OT      -0.834000       15.9994           0
     16464 TIP3     2183     TIP3     H1       HT       0.417000       1.00800           0
     16465 TIP3     2183     TIP3     H2       HT       0.417000       1.00800           0
     16466 TIP3     2184     TIP3     OH2      OT      -0.834000       15.9994           0
     16467 TIP3     2184     TIP3     H1       HT       0.417000       1.00800           0
     16468 TIP3     2184     TIP3     H2       HT       0.417000       1.00800           0
     16469 TIP3     2185     TIP3     OH2      OT      -0.834000       15.9994           0
     16470 TIP3     2185     TIP3     H1       HT       0.417000       1.00800           0
     16471 TIP3     2185     TIP3     H2       HT       0.417000       1.00800           0
     16472 TIP3     2186     TIP3     OH2      OT      -0.834000       15.9994           0
     16473 TIP3     2186     TIP3     H1       HT       0.417000       1.00800           0
     16474 TIP3     2186     TIP3     H2       HT       0.417000       1.00800           0
     16475 TIP3     2187     TIP3     OH2      OT      -0.834000       15.9994           0
     16476 TIP3     2187     TIP3     H1       HT       0.417000       1.00800           0
     16477 TIP3     2187     TIP3     H2       HT       0.417000       1.00800           0
     16478 TIP3     2188     TIP3     OH2      OT      -0.834000       15.9994           0
     16479 TIP3     2188     TIP3     H1       HT       0.417000       1.00800           0
     16480 TIP3     2188     TIP3     H2       HT       0.417000       1.00800           0
     16481 TIP3     2189     TIP3     OH2      OT      -0.834000       15.9994           0
     16482 TIP3     2189     TIP3     H1       HT       0.417000       1.00800           0
     16483 TIP3     2189     TIP3     H2       HT       0.417000       1.00800           0
     16484 TIP3     2190     TIP3     OH2      OT      -0.834000       15.9994           0
     16485 TIP3     2190     TIP3     H1       HT       0.417000       1.00800           0
     16486 TIP3     2190     TIP3     H2       HT       0.417000       1.00800           0
     16487 TIP3     2191     TIP3     OH2      OT      -0.834000       15.9994           0
     16488 TIP3     2191     TIP3     H1       HT       0.417000       1.00800           0
     16489 TIP3     2191     TIP3     H2       HT       0.417000       1.00800           0
     16490 TIP3     2192     TIP3     OH2      OT      -0.834000       15.9994           0
     16491 TIP3     2192     TIP3     H1       HT       0.417000       1.00800           0
     16492 TIP3     2192     TIP3     H2       HT       0.417000       1.00800           0
     16493 TIP3     2193     TIP3     OH2      OT      -0.834000       15.9994           0
     16494 TIP3     2193     TIP3     H1       HT       0.417000       1.00800           0
     16495 TIP3     2193     TIP3     H2       HT       0.417000       1.00800           0
     16496 TIP3     2194     TIP3     OH2      OT      -0.834000       15.9994           0
     16497 TIP3     2194     TIP3     H1       HT       0.417000       1.00800           0
     16498 TIP3     2194     TIP3     H2       HT       0.417000       1.00800           0
     16499 TIP3     2195     TIP3     OH2      OT      -0.834000       15.9994           0
     16500 TIP3     2195     TIP3     H1       HT       0.417000       1.00800           0
     16501 TIP3     2195     TIP3     H2       HT       0.417000       1.00800           0
     16502 TIP3     2196     TIP3     OH2      OT      -0.834000       15.9994           0
     16503 TIP3     2196     TIP3     H1       HT       0.417000       1.00800           0
     16504 TIP3     2196     TIP3     H2       HT       0.417000       1.00800           0
     16505 TIP3     2197     TIP3     OH2      OT      -0.834000       15.9994           0
     16506 TIP3     2197     TIP3     H1       HT       0.417000       1.00800           0
     16507 TIP3     2197     TIP3     H2       HT       0.417000       1.00800           0
     16508 TIP3     2198     TIP3     OH2      OT      -0.834000       15.9994           0
     16509 TIP3     2198     TIP3     H1       HT       0.417000       1.00800           0
     16510 TIP3     2198     TIP3     H2       HT       0.417000       1.00800           0
     16511 TIP3     2199     TIP3     OH2      OT      -0.834000       15.9994           0
     16512 TIP3     2199     TIP3     H1       HT       0.417000       1.00800           0
     16513 TIP3     2199     TIP3     H2       HT       0.417000       1.00800           0
     16514 TIP3     2200     TIP3     OH2      OT      -0.834000       15.9994           0
     16515 TIP3     2200     TIP3     H1       HT       0.417000       1.00800           0
     16516 TIP3     2200     TIP3     H2       HT       0.417000       1.00800           0
     16517 TIP3     2201     TIP3     OH2      OT      -0.834000       15.9994           0
     16518 TIP3     2201     TIP3     H1       HT       0.417000       1.00800           0
     16519 TIP3     2201     TIP3     H2       HT       0.417000       1.00800           0
     16520 TIP3     2202     TIP3     OH2      OT      -0.834000       15.9994           0
     16521 TIP3     2202     TIP3     H1       HT       0.417000       1.00800           0
     16522 TIP3     2202     TIP3     H2       HT       0.417000       1.00800           0
     16523 TIP3     2203     TIP3     OH2      OT      -0.834000       15.9994           0
     16524 TIP3     2203     TIP3     H1       HT       0.417000       1.00800           0
     16525 TIP3     2203     TIP3     H2       HT       0.417000       1.00800           0
     16526 TIP3     2204     TIP3     OH2      OT      -0.834000       15.9994           0
     16527 TIP3     2204     TIP3     H1       HT       0.417000       1.00800           0
     16528 TIP3     2204     TIP3     H2       HT       0.417000       1.00800           0
     16529 TIP3     2205     TIP3     OH2      OT      -0.834000       15.9994           0
     16530 TIP3     2205     TIP3     H1       HT       0.417000       1.00800           0
     16531 TIP3     2205     TIP3     H2       HT       0.417000       1.00800           0
     16532 TIP3     2206     TIP3     OH2      OT      -0.834000       15.9994           0
     16533 TIP3     2206     TIP3     H1       HT       0.417000       1.00800           0
     16534 TIP3     2206     TIP3     H2       HT       0.417000       1.00800           0
     16535 TIP3     2207     TIP3     OH2      OT      -0.834000       15.9994           0
     16536 TIP3     2207     TIP3     H1       HT       0.417000       1.00800           0
     16537 TIP3     2207     TIP3     H2       HT       0.417000       1.00800           0
     16538 TIP3     2208     TIP3     OH2      OT      -0.834000       15.9994           0
     16539 TIP3     2208     TIP3     H1       HT       0.417000       1.00800           0
     16540 TIP3     2208     TIP3     H2       HT       0.417000       1.00800           0
     16541 TIP3     2209     TIP3     OH2      OT      -0.834000       15.9994           0
     16542 TIP3     2209     TIP3     H1       HT       0.417000       1.00800           0
     16543 TIP3     2209     TIP3     H2       HT       0.417000       1.00800           0
     16544 TIP3     2210     TIP3     OH2      OT      -0.834000       15.9994           0
     16545 TIP3     2210     TIP3     H1       HT       0.417000       1.00800           0
     16546 TIP3     2210     TIP3     H2       HT       0.417000       1.00800           0
     16547 TIP3     2211     TIP3     OH2      OT      -0.834000       15.9994           0
     16548 TIP3     2211     TIP3     H1       HT       0.417000       1.00800           0
     16549 TIP3     2211     TIP3     H2       HT       0.417000       1.00800           0
     16550 TIP3     2212     TIP3     OH2      OT      -0.834000       15.9994           0
     16551 TIP3     2212     TIP3     H1       HT       0.417000       1.00800           0
     16552 TIP3     2212     TIP3     H2       HT       0.417000       1.00800           0
     16553 TIP3     2213     TIP3     OH2      OT      -0.834000       15.9994           0
     16554 TIP3     2213     TIP3     H1       HT       0.417000       1.00800           0
     16555 TIP3     2213     TIP3     H2       HT       0.417000       1.00800           0
     16556 TIP3     2214     TIP3     OH2      OT      -0.834000       15.9994           0
     16557 TIP3     2214     TIP3     H1       HT       0.417000       1.00800           0
     16558 TIP3     2214     TIP3     H2       HT       0.417000       1.00800           0
     16559 TIP3     2215     TIP3     OH2      OT      -0.834000       15.9994           0
     16560 TIP3     2215     TIP3     H1       HT       0.417000       1.00800           0
     16561 TIP3     2215     TIP3     H2       HT       0.417000       1.00800           0
     16562 TIP3     2216     TIP3     OH2      OT      -0.834000       15.9994           0
     16563 TIP3     2216     TIP3     H1       HT       0.417000       1.00800           0
     16564 TIP3     2216     TIP3     H2       HT       0.417000       1.00800           0
     16565 TIP3     2217     TIP3     OH2      OT      -0.834000       15.9994           0
     16566 TIP3     2217     TIP3     H1       HT       0.417000       1.00800           0
     16567 TIP3     2217     TIP3     H2       HT       0.417000       1.00800           0
     16568 TIP3     2218     TIP3     OH2      OT      -0.834000       15.9994           0
     16569 TIP3     2218     TIP3     H1       HT       0.417000       1.00800           0
     16570 TIP3     2218     TIP3     H2       HT       0.417000       1.00800           0
     16571 TIP3     2219     TIP3     OH2      OT      -0.834000       15.9994           0
     16572 TIP3     2219     TIP3     H1       HT       0.417000       1.00800           0
     16573 TIP3     2219     TIP3     H2       HT       0.417000       1.00800           0
     16574 TIP3     2220     TIP3     OH2      OT      -0.834000       15.9994           0
     16575 TIP3     2220     TIP3     H1       HT       0.417000       1.00800           0
     16576 TIP3     2220     TIP3     H2       HT       0.417000       1.00800           0
     16577 TIP3     2221     TIP3     OH2      OT      -0.834000       15.9994           0
     16578 TIP3     2221     TIP3     H1       HT       0.417000       1.00800           0
     16579 TIP3     2221     TIP3     H2       HT       0.417000       1.00800           0
     16580 TIP3     2222     TIP3     OH2      OT      -0.834000       15.9994           0
     16581 TIP3     2222     TIP3     H1       HT       0.417000       1.00800           0
     16582 TIP3     2222     TIP3     H2       HT       0.417000       1.00800           0
     16583 TIP3     2223     TIP3     OH2      OT      -0.834000       15.9994           0
     16584 TIP3     2223     TIP3     H1       HT       0.417000       1.00800           0
     16585 TIP3     2223     TIP3     H2       HT       0.417000       1.00800           0
     16586 TIP3     2224     TIP3     OH2      OT      -0.834000       15.9994           0
     16587 TIP3     2224     TIP3     H1       HT       0.417000       1.00800           0
     16588 TIP3     2224     TIP3     H2       HT       0.417000       1.00800           0
     16589 TIP3     2225     TIP3     OH2      OT      -0.834000       15.9994           0
     16590 TIP3     2225     TIP3     H1       HT       0.417000       1.00800           0
     16591 TIP3     2225     TIP3     H2       HT       0.417000       1.00800           0
     16592 TIP3     2226     TIP3     OH2      OT      -0.834000       15.9994           0
     16593 TIP3     2226     TIP3     H1       HT       0.417000       1.00800           0
     16594 TIP3     2226     TIP3     H2       HT       0.417000       1.00800           0
     16595 TIP3     2227     TIP3     OH2      OT      -0.834000       15.9994           0
     16596 TIP3     2227     TIP3     H1       HT       0.417000       1.00800           0
     16597 TIP3     2227     TIP3     H2       HT       0.417000       1.00800           0
     16598 TIP3     2228     TIP3     OH2      OT      -0.834000       15.9994           0
     16599 TIP3     2228     TIP3     H1       HT       0.417000       1.00800           0
     16600 TIP3     2228     TIP3     H2       HT       0.417000       1.00800           0
     16601 TIP3     2229     TIP3     OH2      OT      -0.834000       15.9994           0
     16602 TIP3     2229     TIP3     H1       HT       0.417000       1.00800           0
     16603 TIP3     2229     TIP3     H2       HT       0.417000       1.00800           0
     16604 TIP3     2230     TIP3     OH2      OT      -0.834000       15.9994           0
     16605 TIP3     2230     TIP3     H1       HT       0.417000       1.00800           0
     16606 TIP3     2230     TIP3     H2       HT       0.417000       1.00800           0
     16607 TIP3     2231     TIP3     OH2      OT      -0.834000       15.9994           0
     16608 TIP3     2231     TIP3     H1       HT       0.417000       1.00800           0
     16609 TIP3     2231     TIP3     H2       HT       0.417000       1.00800           0
     16610 TIP3     2232     TIP3     OH2      OT      -0.834000       15.9994           0
     16611 TIP3     2232     TIP3     H1       HT       0.417000       1.00800           0
     16612 TIP3     2232     TIP3     H2       HT       0.417000       1.00800           0
     16613 TIP3     2233     TIP3     OH2      OT      -0.834000       15.9994           0
     16614 TIP3     2233     TIP3     H1       HT       0.417000       1.00800           0
     16615 TIP3     2233     TIP3     H2       HT       0.417000       1.00800           0
     16616 TIP3     2234     TIP3     OH2      OT      -0.834000       15.9994           0
     16617 TIP3     2234     TIP3     H1       HT       0.417000       1.00800           0
     16618 TIP3     2234     TIP3     H2       HT       0.417000       1.00800           0
     16619 TIP3     2235     TIP3     OH2      OT      -0.834000       15.9994           0
     16620 TIP3     2235     TIP3     H1       HT       0.417000       1.00800           0
     16621 TIP3     2235     TIP3     H2       HT       0.417000       1.00800           0
     16622 TIP3     2236     TIP3     OH2      OT      -0.834000       15.9994           0
     16623 TIP3     2236     TIP3     H1       HT       0.417000       1.00800           0
     16624 TIP3     2236     TIP3     H2       HT       0.417000       1.00800           0
     16625 TIP3     2237     TIP3     OH2      OT      -0.834000       15.9994           0
     16626 TIP3     2237     TIP3     H1       HT       0.417000       1.00800           0
     16627 TIP3     2237     TIP3     H2       HT       0.417000       1.00800           0
     16628 TIP3     2238     TIP3     OH2      OT      -0.834000       15.9994           0
     16629 TIP3     2238     TIP3     H1       HT       0.417000       1.00800           0
     16630 TIP3     2238     TIP3     H2       HT       0.417000       1.00800           0
     16631 TIP3     2239     TIP3     OH2      OT      -0.834000       15.9994           0
     16632 TIP3     2239     TIP3     H1       HT       0.417000       1.00800           0
     16633 TIP3     2239     TIP3     H2       HT       0.417000       1.00800           0
     16634 TIP3     2240     TIP3     OH2      OT      -0.834000       15.9994           0
     16635 TIP3     2240     TIP3     H1       HT       0.417000       1.00800           0
     16636 TIP3     2240     TIP3     H2       HT       0.417000       1.00800           0
     16637 TIP3     2241     TIP3     OH2      OT      -0.834000       15.9994           0
     16638 TIP3     2241     TIP3     H1       HT       0.417000       1.00800           0
     16639 TIP3     2241     TIP3     H2       HT       0.417000       1.00800           0
     16640 TIP3     2242     TIP3     OH2      OT      -0.834000       15.9994           0
     16641 TIP3     2242     TIP3     H1       HT       0.417000       1.00800           0
     16642 TIP3     2242     TIP3     H2       HT       0.417000       1.00800           0
     16643 TIP3     2243     TIP3     OH2      OT      -0.834000       15.9994           0
     16644 TIP3     2243     TIP3     H1       HT       0.417000       1.00800           0
     16645 TIP3     2243     TIP3     H2       HT       0.417000       1.00800           0
     16646 TIP3     2244     TIP3     OH2      OT      -0.834000       15.9994           0
     16647 TIP3     2244     TIP3     H1       HT       0.417000       1.00800           0
     16648 TIP3     2244     TIP3     H2       HT       0.417000       1.00800           0
     16649 TIP3     2245     TIP3     OH2      OT      -0.834000       15.9994           0
     16650 TIP3     2245     TIP3     H1       HT       0.417000       1.00800           0
     16651 TIP3     2245     TIP3     H2       HT       0.417000       1.00800           0
     16652 TIP3     2246     TIP3     OH2      OT      -0.834000       15.9994           0
     16653 TIP3     2246     TIP3     H1       HT       0.417000       1.00800           0
     16654 TIP3     2246     TIP3     H2       HT       0.417000       1.00800           0
     16655 TIP3     2247     TIP3     OH2      OT      -0.834000       15.9994           0
     16656 TIP3     2247     TIP3     H1       HT       0.417000       1.00800           0
     16657 TIP3     2247     TIP3     H2       HT       0.417000       1.00800           0
     16658 TIP3     2248     TIP3     OH2      OT      -0.834000       15.9994           0
     16659 TIP3     2248     TIP3     H1       HT       0.417000       1.00800           0
     16660 TIP3     2248     TIP3     H2       HT       0.417000       1.00800           0
     16661 TIP3     2249     TIP3     OH2      OT      -0.834000       15.9994           0
     16662 TIP3     2249     TIP3     H1       HT       0.417000       1.00800           0
     16663 TIP3     2249     TIP3     H2       HT       0.417000       1.00800           0
     16664 TIP3     2250     TIP3     OH2      OT      -0.834000       15.9994           0
     16665 TIP3     2250     TIP3     H1       HT       0.417000       1.00800           0
     16666 TIP3     2250     TIP3     H2       HT       0.417000       1.00800           0
     16667 TIP3     2251     TIP3     OH2      OT      -0.834000       15.9994           0
     16668 TIP3     2251     TIP3     H1       HT       0.417000       1.00800           0
     16669 TIP3     2251     TIP3     H2       HT       0.417000       1.00800           0
     16670 TIP3     2252     TIP3     OH2      OT      -0.834000       15.9994           0
     16671 TIP3     2252     TIP3     H1       HT       0.417000       1.00800           0
     16672 TIP3     2252     TIP3     H2       HT       0.417000       1.00800           0
     16673 TIP3     2253     TIP3     OH2      OT      -0.834000       15.9994           0
     16674 TIP3     2253     TIP3     H1       HT       0.417000       1.00800           0
     16675 TIP3     2253     TIP3     H2       HT       0.417000       1.00800           0
     16676 TIP3     2254     TIP3     OH2      OT      -0.834000       15.9994           0
     16677 TIP3     2254     TIP3     H1       HT       0.417000       1.00800           0
     16678 TIP3     2254     TIP3     H2       HT       0.417000       1.00800           0
     16679 TIP3     2255     TIP3     OH2      OT      -0.834000       15.9994           0
     16680 TIP3     2255     TIP3     H1       HT       0.417000       1.00800           0
     16681 TIP3     2255     TIP3     H2       HT       0.417000       1.00800           0
     16682 TIP3     2256     TIP3     OH2      OT      -0.834000       15.9994           0
     16683 TIP3     2256     TIP3     H1       HT       0.417000       1.00800           0
     16684 TIP3     2256     TIP3     H2       HT       0.417000       1.00800           0
     16685 TIP3     2257     TIP3     OH2      OT      -0.834000       15.9994           0
     16686 TIP3     2257     TIP3     H1       HT       0.417000       1.00800           0
     16687 TIP3     2257     TIP3     H2       HT       0.417000       1.00800           0
     16688 TIP3     2258     TIP3     OH2      OT      -0.834000       15.9994           0
     16689 TIP3     2258     TIP3     H1       HT       0.417000       1.00800           0
     16690 TIP3     2258     TIP3     H2       HT       0.417000       1.00800           0
     16691 TIP3     2259     TIP3     OH2      OT      -0.834000       15.9994           0
     16692 TIP3     2259     TIP3     H1       HT       0.417000       1.00800           0
     16693 TIP3     2259     TIP3     H2       HT       0.417000       1.00800           0
     16694 TIP3     2260     TIP3     OH2      OT      -0.834000       15.9994           0
     16695 TIP3     2260     TIP3     H1       HT       0.417000       1.00800           0
     16696 TIP3     2260     TIP3     H2       HT       0.417000       1.00800           0
     16697 TIP3     2261     TIP3     OH2      OT      -0.834000       15.9994           0
     16698 TIP3     2261     TIP3     H1       HT       0.417000       1.00800           0
     16699 TIP3     2261     TIP3     H2       HT       0.417000       1.00800           0
     16700 TIP3     2262     TIP3     OH2      OT      -0.834000       15.9994           0
     16701 TIP3     2262     TIP3     H1       HT       0.417000       1.00800           0
     16702 TIP3     2262     TIP3     H2       HT       0.417000       1.00800           0
     16703 TIP3     2263     TIP3     OH2      OT      -0.834000       15.9994           0
     16704 TIP3     2263     TIP3     H1       HT       0.417000       1.00800           0
     16705 TIP3     2263     TIP3     H2       HT       0.417000       1.00800           0
     16706 TIP3     2264     TIP3     OH2      OT      -0.834000       15.9994           0
     16707 TIP3     2264     TIP3     H1       HT       0.417000       1.00800           0
     16708 TIP3     2264     TIP3     H2       HT       0.417000       1.00800           0
     16709 TIP3     2265     TIP3     OH2      OT      -0.834000       15.9994           0
     16710 TIP3     2265     TIP3     H1       HT       0.417000       1.00800           0
     16711 TIP3     2265     TIP3     H2       HT       0.417000       1.00800           0
     16712 TIP3     2266     TIP3     OH2      OT      -0.834000       15.9994           0
     16713 TIP3     2266     TIP3     H1       HT       0.417000       1.00800           0
     16714 TIP3     2266     TIP3     H2       HT       0.417000       1.00800           0
     16715 TIP3     2267     TIP3     OH2      OT      -0.834000       15.9994           0
     16716 TIP3     2267     TIP3     H1       HT       0.417000       1.00800           0
     16717 TIP3     2267     TIP3     H2       HT       0.417000       1.00800           0
     16718 TIP3     2268     TIP3     OH2      OT      -0.834000       15.9994           0
     16719 TIP3     2268     TIP3     H1       HT       0.417000       1.00800           0
     16720 TIP3     2268     TIP3     H2       HT       0.417000       1.00800           0
     16721 TIP3     2269     TIP3     OH2      OT      -0.834000       15.9994           0
     16722 TIP3     2269     TIP3     H1       HT       0.417000       1.00800           0
     16723 TIP3     2269     TIP3     H2       HT       0.417000       1.00800           0
     16724 TIP3     2270     TIP3     OH2      OT      -0.834000       15.9994           0
     16725 TIP3     2270     TIP3     H1       HT       0.417000       1.00800           0
     16726 TIP3     2270     TIP3     H2       HT       0.417000       1.00800           0
     16727 TIP3     2271     TIP3     OH2      OT      -0.834000       15.9994           0
     16728 TIP3     2271     TIP3     H1       HT       0.417000       1.00800           0
     16729 TIP3     2271     TIP3     H2       HT       0.417000       1.00800           0
     16730 TIP3     2272     TIP3     OH2      OT      -0.834000       15.9994           0
     16731 TIP3     2272     TIP3     H1       HT       0.417000       1.00800           0
     16732 TIP3     2272     TIP3     H2       HT       0.417000       1.00800           0
     16733 TIP3     2273     TIP3     OH2      OT      -0.834000       15.9994           0
     16734 TIP3     2273     TIP3     H1       HT       0.417000       1.00800           0
     16735 TIP3     2273     TIP3     H2       HT       0.417000       1.00800           0
     16736 TIP3     2274     TIP3     OH2      OT      -0.834000       15.9994           0
     16737 TIP3     2274     TIP3     H1       HT       0.417000       1.00800           0
     16738 TIP3     2274     TIP3     H2       HT       0.417000       1.00800           0
     16739 TIP3     2275     TIP3     OH2      OT      -0.834000       15.9994           0
     16740 TIP3     2275     TIP3     H1       HT       0.417000       1.00800           0
     16741 TIP3     2275     TIP3     H2       HT       0.417000       1.00800           0
     16742 TIP3     2276     TIP3     OH2      OT      -0.834000       15.9994           0
     16743 TIP3     2276     TIP3     H1       HT       0.417000       1.00800           0
     16744 TIP3     2276     TIP3     H2       HT       0.417000       1.00800           0
     16745 TIP3     2277     TIP3     OH2      OT      -0.834000       15.9994           0
     16746 TIP3     2277     TIP3     H1       HT       0.417000       1.00800           0
     16747 TIP3     2277     TIP3     H2       HT       0.417000       1.00800           0
     16748 TIP3     2278     TIP3     OH2      OT      -0.834000       15.9994           0
     16749 TIP3     2278     TIP3     H1       HT       0.417000       1.00800           0
     16750 TIP3     2278     TIP3     H2       HT       0.417000       1.00800           0
     16751 TIP3     2279     TIP3     OH2      OT      -0.834000       15.9994           0
     16752 TIP3     2279     TIP3     H1       HT       0.417000       1.00800           0
     16753 TIP3     2279     TIP3     H2       HT       0.417000       1.00800           0
     16754 TIP3     2280     TIP3     OH2      OT      -0.834000       15.9994           0
     16755 TIP3     2280     TIP3     H1       HT       0.417000       1.00800           0
     16756 TIP3     2280     TIP3     H2       HT       0.417000       1.00800           0
     16757 TIP3     2281     TIP3     OH2      OT      -0.834000       15.9994           0
     16758 TIP3     2281     TIP3     H1       HT       0.417000       1.00800           0
     16759 TIP3     2281     TIP3     H2       HT       0.417000       1.00800           0
     16760 TIP3     2282     TIP3     OH2      OT      -0.834000       15.9994           0
     16761 TIP3     2282     TIP3     H1       HT       0.417000       1.00800           0
     16762 TIP3     2282     TIP3     H2       HT       0.417000       1.00800           0
     16763 TIP3     2283     TIP3     OH2      OT      -0.834000       15.9994           0
     16764 TIP3     2283     TIP3     H1       HT       0.417000       1.00800           0
     16765 TIP3     2283     TIP3     H2       HT       0.417000       1.00800           0
     16766 TIP3     2284     TIP3     OH2      OT      -0.834000       15.9994           0
     16767 TIP3     2284     TIP3     H1       HT       0.417000       1.00800           0
     16768 TIP3     2284     TIP3     H2       HT       0.417000       1.00800           0
     16769 TIP3     2285     TIP3     OH2      OT      -0.834000       15.9994           0
     16770 TIP3     2285     TIP3     H1       HT       0.417000       1.00800           0
     16771 TIP3     2285     TIP3     H2       HT       0.417000       1.00800           0
     16772 TIP3     2286     TIP3     OH2      OT      -0.834000       15.9994           0
     16773 TIP3     2286     TIP3     H1       HT       0.417000       1.00800           0
     16774 TIP3     2286     TIP3     H2       HT       0.417000       1.00800           0
     16775 TIP3     2287     TIP3     OH2      OT      -0.834000       15.9994           0
     16776 TIP3     2287     TIP3     H1       HT       0.417000       1.00800           0
     16777 TIP3     2287     TIP3     H2       HT       0.417000       1.00800           0
     16778 TIP3     2288     TIP3     OH2      OT      -0.834000       15.9994           0
     16779 TIP3     2288     TIP3     H1       HT       0.417000       1.00800           0
     16780 TIP3     2288     TIP3     H2       HT       0.417000       1.00800           0
     16781 TIP3     2289     TIP3     OH2      OT      -0.834000       15.9994           0
     16782 TIP3     2289     TIP3     H1       HT       0.417000       1.00800           0
     16783 TIP3     2289     TIP3     H2       HT       0.417000       1.00800           0
     16784 TIP3     2290     TIP3     OH2      OT      -0.834000       15.9994           0
     16785 TIP3     2290     TIP3     H1       HT       0.417000       1.00800           0
     16786 TIP3     2290     TIP3     H2       HT       0.417000       1.00800           0
     16787 TIP3     2291     TIP3     OH2      OT      -0.834000       15.9994           0
     16788 TIP3     2291     TIP3     H1       HT       0.417000       1.00800           0
     16789 TIP3     2291     TIP3     H2       HT       0.417000       1.00800           0
     16790 TIP3     2292     TIP3     OH2      OT      -0.834000       15.9994           0
     16791 TIP3     2292     TIP3     H1       HT       0.417000       1.00800           0
     16792 TIP3     2292     TIP3     H2       HT       0.417000       1.00800           0
     16793 TIP3     2293     TIP3     OH2      OT      -0.834000       15.9994           0
     16794 TIP3     2293     TIP3     H1       HT       0.417000       1.00800           0
     16795 TIP3     2293     TIP3     H2       HT       0.417000       1.00800           0
     16796 TIP3     2294     TIP3     OH2      OT      -0.834000       15.9994           0
     16797 TIP3     2294     TIP3     H1       HT       0.417000       1.00800           0
     16798 TIP3     2294     TIP3     H2       HT       0.417000       1.00800           0
     16799 TIP3     2295     TIP3     OH2      OT      -0.834000       15.9994           0
     16800 TIP3     2295     TIP3     H1       HT       0.417000       1.00800           0
     16801 TIP3     2295     TIP3     H2       HT       0.417000       1.00800           0
     16802 TIP3     2296     TIP3     OH2      OT      -0.834000       15.9994           0
     16803 TIP3     2296     TIP3     H1       HT       0.417000       1.00800           0
     16804 TIP3     2296     TIP3     H2       HT       0.417000       1.00800           0
     16805 TIP3     2297     TIP3     OH2      OT      -0.834000       15.9994           0
     16806 TIP3     2297     TIP3     H1       HT       0.417000       1.00800           0
     16807 TIP3     2297     TIP3     H2       HT       0.417000       1.00800           0
     16808 TIP3     2298     TIP3     OH2      OT      -0.834000       15.9994           0
     16809 TIP3     2298     TIP3     H1       HT       0.417000       1.00800           0
     16810 TIP3     2298     TIP3     H2       HT       0.417000       1.00800           0
     16811 TIP3     2299     TIP3     OH2      OT      -0.834000       15.9994           0
     16812 TIP3     2299     TIP3     H1       HT       0.417000       1.00800           0
     16813 TIP3     2299     TIP3     H2       HT       0.417000       1.00800           0
     16814 TIP3     2300     TIP3     OH2      OT      -0.834000       15.9994           0
     16815 TIP3     2300     TIP3     H1       HT       0.417000       1.00800           0
     16816 TIP3     2300     TIP3     H2       HT       0.417000       1.00800           0
     16817 TIP3     2301     TIP3     OH2      OT      -0.834000       15.9994           0
     16818 TIP3     2301     TIP3     H1       HT       0.417000       1.00800           0
     16819 TIP3     2301     TIP3     H2       HT       0.417000       1.00800           0
     16820 TIP3     2302     TIP3     OH2      OT      -0.834000       15.9994           0
     16821 TIP3     2302     TIP3     H1       HT       0.417000       1.00800           0
     16822 TIP3     2302     TIP3     H2       HT       0.417000       1.00800           0
     16823 TIP3     2303     TIP3     OH2      OT      -0.834000       15.9994           0
     16824 TIP3     2303     TIP3     H1       HT       0.417000       1.00800           0
     16825 TIP3     2303     TIP3     H2       HT       0.417000       1.00800           0
     16826 TIP3     2304     TIP3     OH2      OT      -0.834000       15.9994           0
     16827 TIP3     2304     TIP3     H1       HT       0.417000       1.00800           0
     16828 TIP3     2304     TIP3     H2       HT       0.417000       1.00800           0
     16829 TIP3     2305     TIP3     OH2      OT      -0.834000       15.9994           0
     16830 TIP3     2305     TIP3     H1       HT       0.417000       1.00800           0
     16831 TIP3     2305     TIP3     H2       HT       0.417000       1.00800           0
     16832 TIP3     2306     TIP3     OH2      OT      -0.834000       15.9994           0
     16833 TIP3     2306     TIP3     H1       HT       0.417000       1.00800           0
     16834 TIP3     2306     TIP3     H2       HT       0.417000       1.00800           0
     16835 TIP3     2307     TIP3     OH2      OT      -0.834000       15.9994           0
     16836 TIP3     2307     TIP3     H1       HT       0.417000       1.00800           0
     16837 TIP3     2307     TIP3     H2       HT       0.417000       1.00800           0
     16838 TIP3     2308     TIP3     OH2      OT      -0.834000       15.9994           0
     16839 TIP3     2308     TIP3     H1       HT       0.417000       1.00800           0
     16840 TIP3     2308     TIP3     H2       HT       0.417000       1.00800           0
     16841 TIP3     2309     TIP3     OH2      OT      -0.834000       15.9994           0
     16842 TIP3     2309     TIP3     H1       HT       0.417000       1.00800           0
     16843 TIP3     2309     TIP3     H2       HT       0.417000       1.00800           0
     16844 TIP3     2310     TIP3     OH2      OT      -0.834000       15.9994           0
     16845 TIP3     2310     TIP3     H1       HT       0.417000       1.00800           0
     16846 TIP3     2310     TIP3     H2       HT       0.417000       1.00800           0
     16847 TIP3     2311     TIP3     OH2      OT      -0.834000       15.9994           0
     16848 TIP3     2311     TIP3     H1       HT       0.417000       1.00800           0
     16849 TIP3     2311     TIP3     H2       HT       0.417000       1.00800           0
     16850 TIP3     2312     TIP3     OH2      OT      -0.834000       15.9994           0
     16851 TIP3     2312     TIP3     H1       HT       0.417000       1.00800           0
     16852 TIP3     2312     TIP3     H2       HT       0.417000       1.00800           0
     16853 TIP3     2313     TIP3     OH2      OT      -0.834000       15.9994           0
     16854 TIP3     2313     TIP3     H1       HT       0.417000       1.00800           0
     16855 TIP3     2313     TIP3     H2       HT       0.417000       1.00800           0
     16856 TIP3     2314     TIP3     OH2      OT      -0.834000       15.9994           0
     16857 TIP3     2314     TIP3     H1       HT       0.417000       1.00800           0
     16858 TIP3     2314     TIP3     H2       HT       0.417000       1.00800           0
     16859 TIP3     2315     TIP3     OH2      OT      -0.834000       15.9994           0
     16860 TIP3     2315     TIP3     H1       HT       0.417000       1.00800           0
     16861 TIP3     2315     TIP3     H2       HT       0.417000       1.00800           0
     16862 TIP3     2316     TIP3     OH2      OT      -0.834000       15.9994           0
     16863 TIP3     2316     TIP3     H1       HT       0.417000       1.00800           0
     16864 TIP3     2316     TIP3     H2       HT       0.417000       1.00800           0
     16865 TIP3     2317     TIP3     OH2      OT      -0.834000       15.9994           0
     16866 TIP3     2317     TIP3     H1       HT       0.417000       1.00800           0
     16867 TIP3     2317     TIP3     H2       HT       0.417000       1.00800           0
     16868 TIP3     2318     TIP3     OH2      OT      -0.834000       15.9994           0
     16869 TIP3     2318     TIP3     H1       HT       0.417000       1.00800           0
     16870 TIP3     2318     TIP3     H2       HT       0.417000       1.00800           0
     16871 TIP3     2319     TIP3     OH2      OT      -0.834000       15.9994           0
     16872 TIP3     2319     TIP3     H1       HT       0.417000       1.00800           0
     16873 TIP3     2319     TIP3     H2       HT       0.417000       1.00800           0
     16874 TIP3     2320     TIP3     OH2      OT      -0.834000       15.9994           0
     16875 TIP3     2320     TIP3     H1       HT       0.417000       1.00800           0
     16876 TIP3     2320     TIP3     H2       HT       0.417000       1.00800           0
     16877 TIP3     2321     TIP3     OH2      OT      -0.834000       15.9994           0
     16878 TIP3     2321     TIP3     H1       HT       0.417000       1.00800           0
     16879 TIP3     2321     TIP3     H2       HT       0.417000       1.00800           0
     16880 TIP3     2322     TIP3     OH2      OT      -0.834000       15.9994           0
     16881 TIP3     2322     TIP3     H1       HT       0.417000       1.00800           0
     16882 TIP3     2322     TIP3     H2       HT       0.417000       1.00800           0
     16883 TIP3     2323     TIP3     OH2      OT      -0.834000       15.9994           0
     16884 TIP3     2323     TIP3     H1       HT       0.417000       1.00800           0
     16885 TIP3     2323     TIP3     H2       HT       0.417000       1.00800           0
     16886 TIP3     2324     TIP3     OH2      OT      -0.834000       15.9994           0
     16887 TIP3     2324     TIP3     H1       HT       0.417000       1.00800           0
     16888 TIP3     2324     TIP3     H2       HT       0.417000       1.00800           0
     16889 TIP3     2325     TIP3     OH2      OT      -0.834000       15.9994           0
     16890 TIP3     2325     TIP3     H1       HT       0.417000       1.00800           0
     16891 TIP3     2325     TIP3     H2       HT       0.417000       1.00800           0
     16892 TIP3     2326     TIP3     OH2      OT      -0.834000       15.9994           0
     16893 TIP3     2326     TIP3     H1       HT       0.417000       1.00800           0
     16894 TIP3     2326     TIP3     H2       HT       0.417000       1.00800           0
     16895 TIP3     2327     TIP3     OH2      OT      -0.834000       15.9994           0
     16896 TIP3     2327     TIP3     H1       HT       0.417000       1.00800           0
     16897 TIP3     2327     TIP3     H2       HT       0.417000       1.00800           0
     16898 TIP3     2328     TIP3     OH2      OT      -0.834000       15.9994           0
     16899 TIP3     2328     TIP3     H1       HT       0.417000       1.00800           0
     16900 TIP3     2328     TIP3     H2       HT       0.417000       1.00800           0
     16901 TIP3     2329     TIP3     OH2      OT      -0.834000       15.9994           0
     16902 TIP3     2329     TIP3     H1       HT       0.417000       1.00800           0
     16903 TIP3     2329     TIP3     H2       HT       0.417000       1.00800           0
     16904 TIP3     2330     TIP3     OH2      OT      -0.834000       15.9994           0
     16905 TIP3     2330     TIP3     H1       HT       0.417000       1.00800           0
     16906 TIP3     2330     TIP3     H2       HT       0.417000       1.00800           0
     16907 TIP3     2331     TIP3     OH2      OT      -0.834000       15.9994           0
     16908 TIP3     2331     TIP3     H1       HT       0.417000       1.00800           0
     16909 TIP3     2331     TIP3     H2       HT       0.417000       1.00800           0
     16910 TIP3     2332     TIP3     OH2      OT      -0.834000       15.9994           0
     16911 TIP3     2332     TIP3     H1       HT       0.417000       1.00800           0
     16912 TIP3     2332     TIP3     H2       HT       0.417000       1.00800           0
     16913 TIP3     2333     TIP3     OH2      OT      -0.834000       15.9994           0
     16914 TIP3     2333     TIP3     H1       HT       0.417000       1.00800           0
     16915 TIP3     2333     TIP3     H2       HT       0.417000       1.00800           0
     16916 TIP3     2334     TIP3     OH2      OT      -0.834000       15.9994           0
     16917 TIP3     2334     TIP3     H1       HT       0.417000       1.00800           0
     16918 TIP3     2334     TIP3     H2       HT       0.417000       1.00800           0
     16919 TIP3     2335     TIP3     OH2      OT      -0.834000       15.9994           0
     16920 TIP3     2335     TIP3     H1       HT       0.417000       1.00800           0
     16921 TIP3     2335     TIP3     H2       HT       0.417000       1.00800           0
     16922 TIP3     2336     TIP3     OH2      OT      -0.834000       15.9994           0
     16923 TIP3     2336     TIP3     H1       HT       0.417000       1.00800           0
     16924 TIP3     2336     TIP3     H2       HT       0.417000       1.00800           0
     16925 TIP3     2337     TIP3     OH2      OT      -0.834000       15.9994           0
     16926 TIP3     2337     TIP3     H1       HT       0.417000       1.00800           0
     16927 TIP3     2337     TIP3     H2       HT       0.417000       1.00800           0
     16928 TIP3     2338     TIP3     OH2      OT      -0.834000       15.9994           0
     16929 TIP3     2338     TIP3     H1       HT       0.417000       1.00800           0
     16930 TIP3     2338     TIP3     H2       HT       0.417000       1.00800           0
     16931 TIP3     2339     TIP3     OH2      OT      -0.834000       15.9994           0
     16932 TIP3     2339     TIP3     H1       HT       0.417000       1.00800           0
     16933 TIP3     2339     TIP3     H2       HT       0.417000       1.00800           0
     16934 TIP3     2340     TIP3     OH2      OT      -0.834000       15.9994           0
     16935 TIP3     2340     TIP3     H1       HT       0.417000       1.00800           0
     16936 TIP3     2340     TIP3     H2       HT       0.417000       1.00800           0
     16937 TIP3     2341     TIP3     OH2      OT      -0.834000       15.9994           0
     16938 TIP3     2341     TIP3     H1       HT       0.417000       1.00800           0
     16939 TIP3     2341     TIP3     H2       HT       0.417000       1.00800           0
     16940 TIP3     2342     TIP3     OH2      OT      -0.834000       15.9994           0
     16941 TIP3     2342     TIP3     H1       HT       0.417000       1.00800           0
     16942 TIP3     2342     TIP3     H2       HT       0.417000       1.00800           0
     16943 TIP3     2343     TIP3     OH2      OT      -0.834000       15.9994           0
     16944 TIP3     2343     TIP3     H1       HT       0.417000       1.00800           0
     16945 TIP3     2343     TIP3     H2       HT       0.417000       1.00800           0
     16946 TIP3     2344     TIP3     OH2      OT      -0.834000       15.9994           0
     16947 TIP3     2344     TIP3     H1       HT       0.417000       1.00800           0
     16948 TIP3     2344     TIP3     H2       HT       0.417000       1.00800           0
     16949 TIP3     2345     TIP3     OH2      OT      -0.834000       15.9994           0
     16950 TIP3     2345     TIP3     H1       HT       0.417000       1.00800           0
     16951 TIP3     2345     TIP3     H2       HT       0.417000       1.00800           0
     16952 TIP3     2346     TIP3     OH2      OT      -0.834000       15.9994           0
     16953 TIP3     2346     TIP3     H1       HT       0.417000       1.00800           0
     16954 TIP3     2346     TIP3     H2       HT       0.417000       1.00800           0
     16955 TIP3     2347     TIP3     OH2      OT      -0.834000       15.9994           0
     16956 TIP3     2347     TIP3     H1       HT       0.417000       1.00800           0
     16957 TIP3     2347     TIP3     H2       HT       0.417000       1.00800           0
     16958 TIP3     2348     TIP3     OH2      OT      -0.834000       15.9994           0
     16959 TIP3     2348     TIP3     H1       HT       0.417000       1.00800           0
     16960 TIP3     2348     TIP3     H2       HT       0.417000       1.00800           0
     16961 TIP3     2349     TIP3     OH2      OT      -0.834000       15.9994           0
     16962 TIP3     2349     TIP3     H1       HT       0.417000       1.00800           0
     16963 TIP3     2349     TIP3     H2       HT       0.417000       1.00800           0
     16964 TIP3     2350     TIP3     OH2      OT      -0.834000       15.9994           0
     16965 TIP3     2350     TIP3     H1       HT       0.417000       1.00800           0
     16966 TIP3     2350     TIP3     H2       HT       0.417000       1.00800           0
     16967 TIP3     2351     TIP3     OH2      OT      -0.834000       15.9994           0
     16968 TIP3     2351     TIP3     H1       HT       0.417000       1.00800           0
     16969 TIP3     2351     TIP3     H2       HT       0.417000       1.00800           0
     16970 TIP3     2352     TIP3     OH2      OT      -0.834000       15.9994           0
     16971 TIP3     2352     TIP3     H1       HT       0.417000       1.00800           0
     16972 TIP3     2352     TIP3     H2       HT       0.417000       1.00800           0
     16973 TIP3     2353     TIP3     OH2      OT      -0.834000       15.9994           0
     16974 TIP3     2353     TIP3     H1       HT       0.417000       1.00800           0
     16975 TIP3     2353     TIP3     H2       HT       0.417000       1.00800           0
     16976 TIP3     2354     TIP3     OH2      OT      -0.834000       15.9994           0
     16977 TIP3     2354     TIP3     H1       HT       0.417000       1.00800           0
     16978 TIP3     2354     TIP3     H2       HT       0.417000       1.00800           0
     16979 TIP3     2355     TIP3     OH2      OT      -0.834000       15.9994           0
     16980 TIP3     2355     TIP3     H1       HT       0.417000       1.00800           0
     16981 TIP3     2355     TIP3     H2       HT       0.417000       1.00800           0
     16982 TIP3     2356     TIP3     OH2      OT      -0.834000       15.9994           0
     16983 TIP3     2356     TIP3     H1       HT       0.417000       1.00800           0
     16984 TIP3     2356     TIP3     H2       HT       0.417000       1.00800           0
     16985 TIP3     2357     TIP3     OH2      OT      -0.834000       15.9994           0
     16986 TIP3     2357     TIP3     H1       HT       0.417000       1.00800           0
     16987 TIP3     2357     TIP3     H2       HT       0.417000       1.00800           0
     16988 TIP3     2358     TIP3     OH2      OT      -0.834000       15.9994           0
     16989 TIP3     2358     TIP3     H1       HT       0.417000       1.00800           0
     16990 TIP3     2358     TIP3     H2       HT       0.417000       1.00800           0
     16991 TIP3     2359     TIP3     OH2      OT      -0.834000       15.9994           0
     16992 TIP3     2359     TIP3     H1       HT       0.417000       1.00800           0
     16993 TIP3     2359     TIP3     H2       HT       0.417000       1.00800           0
     16994 TIP3     2360     TIP3     OH2      OT      -0.834000       15.9994           0
     16995 TIP3     2360     TIP3     H1       HT       0.417000       1.00800           0
     16996 TIP3     2360     TIP3     H2       HT       0.417000       1.00800           0
     16997 TIP3     2361     TIP3     OH2      OT      -0.834000       15.9994           0
     16998 TIP3     2361     TIP3     H1       HT       0.417000       1.00800           0
     16999 TIP3     2361     TIP3     H2       HT       0.417000       1.00800           0
     17000 TIP3     2362     TIP3     OH2      OT      -0.834000       15.9994           0
     17001 TIP3     2362     TIP3     H1       HT       0.417000       1.00800           0
     17002 TIP3     2362     TIP3     H2       HT       0.417000       1.00800           0
     17003 TIP3     2363     TIP3     OH2      OT      -0.834000       15.9994           0
     17004 TIP3     2363     TIP3     H1       HT       0.417000       1.00800           0
     17005 TIP3     2363     TIP3     H2       HT       0.417000       1.00800           0
     17006 TIP3     2364     TIP3     OH2      OT      -0.834000       15.9994           0
     17007 TIP3     2364     TIP3     H1       HT       0.417000       1.00800           0
     17008 TIP3     2364     TIP3     H2       HT       0.417000       1.00800           0
     17009 TIP3     2365     TIP3     OH2      OT      -0.834000       15.9994           0
     17010 TIP3     2365     TIP3     H1       HT       0.417000       1.00800           0
     17011 TIP3     2365     TIP3     H2       HT       0.417000       1.00800           0
     17012 TIP3     2366     TIP3     OH2      OT      -0.834000       15.9994           0
     17013 TIP3     2366     TIP3     H1       HT       0.417000       1.00800           0
     17014 TIP3     2366     TIP3     H2       HT       0.417000       1.00800           0
     17015 TIP3     2367     TIP3     OH2      OT      -0.834000       15.9994           0
     17016 TIP3     2367     TIP3     H1       HT       0.417000       1.00800           0
     17017 TIP3     2367     TIP3     H2       HT       0.417000       1.00800           0
     17018 TIP3     2368     TIP3     OH2      OT      -0.834000       15.9994           0
     17019 TIP3     2368     TIP3     H1       HT       0.417000       1.00800           0
     17020 TIP3     2368     TIP3     H2       HT       0.417000       1.00800           0
     17021 TIP3     2369     TIP3     OH2      OT      -0.834000       15.9994           0
     17022 TIP3     2369     TIP3     H1       HT       0.417000       1.00800           0
     17023 TIP3     2369     TIP3     H2       HT       0.417000       1.00800           0
     17024 TIP3     2370     TIP3     OH2      OT      -0.834000       15.9994           0
     17025 TIP3     2370     TIP3     H1       HT       0.417000       1.00800           0
     17026 TIP3     2370     TIP3     H2       HT       0.417000       1.00800           0
     17027 TIP3     2371     TIP3     OH2      OT      -0.834000       15.9994           0
     17028 TIP3     2371     TIP3     H1       HT       0.417000       1.00800           0
     17029 TIP3     2371     TIP3     H2       HT       0.417000       1.00800           0
     17030 TIP3     2372     TIP3     OH2      OT      -0.834000       15.9994           0
     17031 TIP3     2372     TIP3     H1       HT       0.417000       1.00800           0
     17032 TIP3     2372     TIP3     H2       HT       0.417000       1.00800           0
     17033 TIP3     2373     TIP3     OH2      OT      -0.834000       15.9994           0
     17034 TIP3     2373     TIP3     H1       HT       0.417000       1.00800           0
     17035 TIP3     2373     TIP3     H2       HT       0.417000       1.00800           0
     17036 TIP3     2374     TIP3     OH2      OT      -0.834000       15.9994           0
     17037 TIP3     2374     TIP3     H1       HT       0.417000       1.00800           0
     17038 TIP3     2374     TIP3     H2       HT       0.417000       1.00800           0
     17039 TIP3     2375     TIP3     OH2      OT      -0.834000       15.9994           0
     17040 TIP3     2375     TIP3     H1       HT       0.417000       1.00800           0
     17041 TIP3     2375     TIP3     H2       HT       0.417000       1.00800           0
     17042 TIP3     2376     TIP3     OH2      OT      -0.834000       15.9994           0
     17043 TIP3     2376     TIP3     H1       HT       0.417000       1.00800           0
     17044 TIP3     2376     TIP3     H2       HT       0.417000       1.00800           0
     17045 TIP3     2377     TIP3     OH2      OT      -0.834000       15.9994           0
     17046 TIP3     2377     TIP3     H1       HT       0.417000       1.00800           0
     17047 TIP3     2377     TIP3     H2       HT       0.417000       1.00800           0
     17048 TIP3     2378     TIP3     OH2      OT      -0.834000       15.9994           0
     17049 TIP3     2378     TIP3     H1       HT       0.417000       1.00800           0
     17050 TIP3     2378     TIP3     H2       HT       0.417000       1.00800           0
     17051 TIP3     2379     TIP3     OH2      OT      -0.834000       15.9994           0
     17052 TIP3     2379     TIP3     H1       HT       0.417000       1.00800           0
     17053 TIP3     2379     TIP3     H2       HT       0.417000       1.00800           0
     17054 TIP3     2380     TIP3     OH2      OT      -0.834000       15.9994           0
     17055 TIP3     2380     TIP3     H1       HT       0.417000       1.00800           0
     17056 TIP3     2380     TIP3     H2       HT       0.417000       1.00800           0
     17057 TIP3     2381     TIP3     OH2      OT      -0.834000       15.9994           0
     17058 TIP3     2381     TIP3     H1       HT       0.417000       1.00800           0
     17059 TIP3     2381     TIP3     H2       HT       0.417000       1.00800           0
     17060 TIP3     2382     TIP3     OH2      OT      -0.834000       15.9994           0
     17061 TIP3     2382     TIP3     H1       HT       0.417000       1.00800           0
     17062 TIP3     2382     TIP3     H2       HT       0.417000       1.00800           0
     17063 TIP3     2383     TIP3     OH2      OT      -0.834000       15.9994           0
     17064 TIP3     2383     TIP3     H1       HT       0.417000       1.00800           0
     17065 TIP3     2383     TIP3     H2       HT       0.417000       1.00800           0
     17066 TIP3     2384     TIP3     OH2      OT      -0.834000       15.9994           0
     17067 TIP3     2384     TIP3     H1       HT       0.417000       1.00800           0
     17068 TIP3     2384     TIP3     H2       HT       0.417000       1.00800           0
     17069 TIP3     2385     TIP3     OH2      OT      -0.834000       15.9994           0
     17070 TIP3     2385     TIP3     H1       HT       0.417000       1.00800           0
     17071 TIP3     2385     TIP3     H2       HT       0.417000       1.00800           0
     17072 TIP3     2386     TIP3     OH2      OT      -0.834000       15.9994           0
     17073 TIP3     2386     TIP3     H1       HT       0.417000       1.00800           0
     17074 TIP3     2386     TIP3     H2       HT       0.417000       1.00800           0
     17075 TIP3     2387     TIP3     OH2      OT      -0.834000       15.9994           0
     17076 TIP3     2387     TIP3     H1       HT       0.417000       1.00800           0
     17077 TIP3     2387     TIP3     H2       HT       0.417000       1.00800           0
     17078 TIP3     2388     TIP3     OH2      OT      -0.834000       15.9994           0
     17079 TIP3     2388     TIP3     H1       HT       0.417000       1.00800           0
     17080 TIP3     2388     TIP3     H2       HT       0.417000       1.00800           0
     17081 TIP3     2389     TIP3     OH2      OT      -0.834000       15.9994           0
     17082 TIP3     2389     TIP3     H1       HT       0.417000       1.00800           0
     17083 TIP3     2389     TIP3     H2       HT       0.417000       1.00800           0
     17084 TIP3     2390     TIP3     OH2      OT      -0.834000       15.9994           0
     17085 TIP3     2390     TIP3     H1       HT       0.417000       1.00800           0
     17086 TIP3     2390     TIP3     H2       HT       0.417000       1.00800           0
     17087 TIP3     2391     TIP3     OH2      OT      -0.834000       15.9994           0
     17088 TIP3     2391     TIP3     H1       HT       0.417000       1.00800           0
     17089 TIP3     2391     TIP3     H2       HT       0.417000       1.00800           0
     17090 TIP3     2392     TIP3     OH2      OT      -0.834000       15.9994           0
     17091 TIP3     2392     TIP3     H1       HT       0.417000       1.00800           0
     17092 TIP3     2392     TIP3     H2       HT       0.417000       1.00800           0
     17093 TIP3     2393     TIP3     OH2      OT      -0.834000       15.9994           0
     17094 TIP3     2393     TIP3     H1       HT       0.417000       1.00800           0
     17095 TIP3     2393     TIP3     H2       HT       0.417000       1.00800           0
     17096 TIP3     2394     TIP3     OH2      OT      -0.834000       15.9994           0
     17097 TIP3     2394     TIP3     H1       HT       0.417000       1.00800           0
     17098 TIP3     2394     TIP3     H2       HT       0.417000       1.00800           0
     17099 TIP3     2395     TIP3     OH2      OT      -0.834000       15.9994           0
     17100 TIP3     2395     TIP3     H1       HT       0.417000       1.00800           0
     17101 TIP3     2395     TIP3     H2       HT       0.417000       1.00800           0
     17102 TIP3     2396     TIP3     OH2      OT      -0.834000       15.9994           0
     17103 TIP3     2396     TIP3     H1       HT       0.417000       1.00800           0
     17104 TIP3     2396     TIP3     H2       HT       0.417000       1.00800           0
     17105 TIP3     2397     TIP3     OH2      OT      -0.834000       15.9994           0
     17106 TIP3     2397     TIP3     H1       HT       0.417000       1.00800           0
     17107 TIP3     2397     TIP3     H2       HT       0.417000       1.00800           0
     17108 TIP3     2398     TIP3     OH2      OT      -0.834000       15.9994           0
     17109 TIP3     2398     TIP3     H1       HT       0.417000       1.00800           0
     17110 TIP3     2398     TIP3     H2       HT       0.417000       1.00800           0
     17111 TIP3     2399     TIP3     OH2      OT      -0.834000       15.9994           0
     17112 TIP3     2399     TIP3     H1       HT       0.417000       1.00800           0
     17113 TIP3     2399     TIP3     H2       HT       0.417000       1.00800           0
     17114 TIP3     2400     TIP3     OH2      OT      -0.834000       15.9994           0
     17115 TIP3     2400     TIP3     H1       HT       0.417000       1.00800           0
     17116 TIP3     2400     TIP3     H2       HT       0.417000       1.00800           0
     17117 TIP3     2401     TIP3     OH2      OT      -0.834000       15.9994           0
     17118 TIP3     2401     TIP3     H1       HT       0.417000       1.00800           0
     17119 TIP3     2401     TIP3     H2       HT       0.417000       1.00800           0
     17120 TIP3     2402     TIP3     OH2      OT      -0.834000       15.9994           0
     17121 TIP3     2402     TIP3     H1       HT       0.417000       1.00800           0
     17122 TIP3     2402     TIP3     H2       HT       0.417000       1.00800           0
     17123 TIP3     2403     TIP3     OH2      OT      -0.834000       15.9994           0
     17124 TIP3     2403     TIP3     H1       HT       0.417000       1.00800           0
     17125 TIP3     2403     TIP3     H2       HT       0.417000       1.00800           0
     17126 TIP3     2404     TIP3     OH2      OT      -0.834000       15.9994           0
     17127 TIP3     2404     TIP3     H1       HT       0.417000       1.00800           0
     17128 TIP3     2404     TIP3     H2       HT       0.417000       1.00800           0
     17129 TIP3     2405     TIP3     OH2      OT      -0.834000       15.9994           0
     17130 TIP3     2405     TIP3     H1       HT       0.417000       1.00800           0
     17131 TIP3     2405     TIP3     H2       HT       0.417000       1.00800           0
     17132 TIP3     2406     TIP3     OH2      OT      -0.834000       15.9994           0
     17133 TIP3     2406     TIP3     H1       HT       0.417000       1.00800           0
     17134 TIP3     2406     TIP3     H2       HT       0.417000       1.00800           0
     17135 TIP3     2407     TIP3     OH2      OT      -0.834000       15.9994           0
     17136 TIP3     2407     TIP3     H1       HT       0.417000       1.00800           0
     17137 TIP3     2407     TIP3     H2       HT       0.417000       1.00800           0
     17138 TIP3     2408     TIP3     OH2      OT      -0.834000       15.9994           0
     17139 TIP3     2408     TIP3     H1       HT       0.417000       1.00800           0
     17140 TIP3     2408     TIP3     H2       HT       0.417000       1.00800           0
     17141 TIP3     2409     TIP3     OH2      OT      -0.834000       15.9994           0
     17142 TIP3     2409     TIP3     H1       HT       0.417000       1.00800           0
     17143 TIP3     2409     TIP3     H2       HT       0.417000       1.00800           0
     17144 TIP3     2410     TIP3     OH2      OT      -0.834000       15.9994           0
     17145 TIP3     2410     TIP3     H1       HT       0.417000       1.00800           0
     17146 TIP3     2410     TIP3     H2       HT       0.417000       1.00800           0
     17147 TIP3     2411     TIP3     OH2      OT      -0.834000       15.9994           0
     17148 TIP3     2411     TIP3     H1       HT       0.417000       1.00800           0
     17149 TIP3     2411     TIP3     H2       HT       0.417000       1.00800           0
     17150 TIP3     2412     TIP3     OH2      OT      -0.834000       15.9994           0
     17151 TIP3     2412     TIP3     H1       HT       0.417000       1.00800           0
     17152 TIP3     2412     TIP3     H2       HT       0.417000       1.00800           0
     17153 TIP3     2413     TIP3     OH2      OT      -0.834000       15.9994           0
     17154 TIP3     2413     TIP3     H1       HT       0.417000       1.00800           0
     17155 TIP3     2413     TIP3     H2       HT       0.417000       1.00800           0
     17156 TIP3     2414     TIP3     OH2      OT      -0.834000       15.9994           0
     17157 TIP3     2414     TIP3     H1       HT       0.417000       1.00800           0
     17158 TIP3     2414     TIP3     H2       HT       0.417000       1.00800           0
     17159 TIP3     2415     TIP3     OH2      OT      -0.834000       15.9994           0
     17160 TIP3     2415     TIP3     H1       HT       0.417000       1.00800           0
     17161 TIP3     2415     TIP3     H2       HT       0.417000       1.00800           0
     17162 TIP3     2416     TIP3     OH2      OT      -0.834000       15.9994           0
     17163 TIP3     2416     TIP3     H1       HT       0.417000       1.00800           0
     17164 TIP3     2416     TIP3     H2       HT       0.417000       1.00800           0
     17165 TIP3     2417     TIP3     OH2      OT      -0.834000       15.9994           0
     17166 TIP3     2417     TIP3     H1       HT       0.417000       1.00800           0
     17167 TIP3     2417     TIP3     H2       HT       0.417000       1.00800           0
     17168 TIP3     2418     TIP3     OH2      OT      -0.834000       15.9994           0
     17169 TIP3     2418     TIP3     H1       HT       0.417000       1.00800           0
     17170 TIP3     2418     TIP3     H2       HT       0.417000       1.00800           0
     17171 TIP3     2419     TIP3     OH2      OT      -0.834000       15.9994           0
     17172 TIP3     2419     TIP3     H1       HT       0.417000       1.00800           0
     17173 TIP3     2419     TIP3     H2       HT       0.417000       1.00800           0
     17174 TIP3     2420     TIP3     OH2      OT      -0.834000       15.9994           0
     17175 TIP3     2420     TIP3     H1       HT       0.417000       1.00800           0
     17176 TIP3     2420     TIP3     H2       HT       0.417000       1.00800           0
     17177 TIP3     2421     TIP3     OH2      OT      -0.834000       15.9994           0
     17178 TIP3     2421     TIP3     H1       HT       0.417000       1.00800           0
     17179 TIP3     2421     TIP3     H2       HT       0.417000       1.00800           0
     17180 TIP3     2422     TIP3     OH2      OT      -0.834000       15.9994           0
     17181 TIP3     2422     TIP3     H1       HT       0.417000       1.00800           0
     17182 TIP3     2422     TIP3     H2       HT       0.417000       1.00800           0
     17183 TIP3     2423     TIP3     OH2      OT      -0.834000       15.9994           0
     17184 TIP3     2423     TIP3     H1       HT       0.417000       1.00800           0
     17185 TIP3     2423     TIP3     H2       HT       0.417000       1.00800           0
     17186 TIP3     2424     TIP3     OH2      OT      -0.834000       15.9994           0
     17187 TIP3     2424     TIP3     H1       HT       0.417000       1.00800           0
     17188 TIP3     2424     TIP3     H2       HT       0.417000       1.00800           0
     17189 TIP3     2425     TIP3     OH2      OT      -0.834000       15.9994           0
     17190 TIP3     2425     TIP3     H1       HT       0.417000       1.00800           0
     17191 TIP3     2425     TIP3     H2       HT       0.417000       1.00800           0
     17192 TIP3     2426     TIP3     OH2      OT      -0.834000       15.9994           0
     17193 TIP3     2426     TIP3     H1       HT       0.417000       1.00800           0
     17194 TIP3     2426     TIP3     H2       HT       0.417000       1.00800           0
     17195 TIP3     2427     TIP3     OH2      OT      -0.834000       15.9994           0
     17196 TIP3     2427     TIP3     H1       HT       0.417000       1.00800           0
     17197 TIP3     2427     TIP3     H2       HT       0.417000       1.00800           0
     17198 TIP3     2428     TIP3     OH2      OT      -0.834000       15.9994           0
     17199 TIP3     2428     TIP3     H1       HT       0.417000       1.00800           0
     17200 TIP3     2428     TIP3     H2       HT       0.417000       1.00800           0
     17201 TIP3     2429     TIP3     OH2      OT      -0.834000       15.9994           0
     17202 TIP3     2429     TIP3     H1       HT       0.417000       1.00800           0
     17203 TIP3     2429     TIP3     H2       HT       0.417000       1.00800           0
     17204 TIP3     2430     TIP3     OH2      OT      -0.834000       15.9994           0
     17205 TIP3     2430     TIP3     H1       HT       0.417000       1.00800           0
     17206 TIP3     2430     TIP3     H2       HT       0.417000       1.00800           0
     17207 TIP3     2431     TIP3     OH2      OT      -0.834000       15.9994           0
     17208 TIP3     2431     TIP3     H1       HT       0.417000       1.00800           0
     17209 TIP3     2431     TIP3     H2       HT       0.417000       1.00800           0
     17210 TIP3     2432     TIP3     OH2      OT      -0.834000       15.9994           0
     17211 TIP3     2432     TIP3     H1       HT       0.417000       1.00800           0
     17212 TIP3     2432     TIP3     H2       HT       0.417000       1.00800           0
     17213 TIP3     2433     TIP3     OH2      OT      -0.834000       15.9994           0
     17214 TIP3     2433     TIP3     H1       HT       0.417000       1.00800           0
     17215 TIP3     2433     TIP3     H2       HT       0.417000       1.00800           0
     17216 TIP3     2434     TIP3     OH2      OT      -0.834000       15.9994           0
     17217 TIP3     2434     TIP3     H1       HT       0.417000       1.00800           0
     17218 TIP3     2434     TIP3     H2       HT       0.417000       1.00800           0
     17219 TIP3     2435     TIP3     OH2      OT      -0.834000       15.9994           0
     17220 TIP3     2435     TIP3     H1       HT       0.417000       1.00800           0
     17221 TIP3     2435     TIP3     H2       HT       0.417000       1.00800           0
     17222 TIP3     2436     TIP3     OH2      OT      -0.834000       15.9994           0
     17223 TIP3     2436     TIP3     H1       HT       0.417000       1.00800           0
     17224 TIP3     2436     TIP3     H2       HT       0.417000       1.00800           0
     17225 TIP3     2437     TIP3     OH2      OT      -0.834000       15.9994           0
     17226 TIP3     2437     TIP3     H1       HT       0.417000       1.00800           0
     17227 TIP3     2437     TIP3     H2       HT       0.417000       1.00800           0
     17228 TIP3     2438     TIP3     OH2      OT      -0.834000       15.9994           0
     17229 TIP3     2438     TIP3     H1       HT       0.417000       1.00800           0
     17230 TIP3     2438     TIP3     H2       HT       0.417000       1.00800           0
     17231 TIP3     2439     TIP3     OH2      OT      -0.834000       15.9994           0
     17232 TIP3     2439     TIP3     H1       HT       0.417000       1.00800           0
     17233 TIP3     2439     TIP3     H2       HT       0.417000       1.00800           0
     17234 TIP3     2440     TIP3     OH2      OT      -0.834000       15.9994           0
     17235 TIP3     2440     TIP3     H1       HT       0.417000       1.00800           0
     17236 TIP3     2440     TIP3     H2       HT       0.417000       1.00800           0
     17237 TIP3     2441     TIP3     OH2      OT      -0.834000       15.9994           0
     17238 TIP3     2441     TIP3     H1       HT       0.417000       1.00800           0
     17239 TIP3     2441     TIP3     H2       HT       0.417000       1.00800           0
     17240 TIP3     2442     TIP3     OH2      OT      -0.834000       15.9994           0
     17241 TIP3     2442     TIP3     H1       HT       0.417000       1.00800           0
     17242 TIP3     2442     TIP3     H2       HT       0.417000       1.00800           0
     17243 TIP3     2443     TIP3     OH2      OT      -0.834000       15.9994           0
     17244 TIP3     2443     TIP3     H1       HT       0.417000       1.00800           0
     17245 TIP3     2443     TIP3     H2       HT       0.417000       1.00800           0
     17246 TIP3     2444     TIP3     OH2      OT      -0.834000       15.9994           0
     17247 TIP3     2444     TIP3     H1       HT       0.417000       1.00800           0
     17248 TIP3     2444     TIP3     H2       HT       0.417000       1.00800           0
     17249 TIP3     2445     TIP3     OH2      OT      -0.834000       15.9994           0
     17250 TIP3     2445     TIP3     H1       HT       0.417000       1.00800           0
     17251 TIP3     2445     TIP3     H2       HT       0.417000       1.00800           0
     17252 TIP3     2446     TIP3     OH2      OT      -0.834000       15.9994           0
     17253 TIP3     2446     TIP3     H1       HT       0.417000       1.00800           0
     17254 TIP3     2446     TIP3     H2       HT       0.417000       1.00800           0
     17255 TIP3     2447     TIP3     OH2      OT      -0.834000       15.9994           0
     17256 TIP3     2447     TIP3     H1       HT       0.417000       1.00800           0
     17257 TIP3     2447     TIP3     H2       HT       0.417000       1.00800           0
     17258 TIP3     2448     TIP3     OH2      OT      -0.834000       15.9994           0
     17259 TIP3     2448     TIP3     H1       HT       0.417000       1.00800           0
     17260 TIP3     2448     TIP3     H2       HT       0.417000       1.00800           0
     17261 TIP3     2449     TIP3     OH2      OT      -0.834000       15.9994           0
     17262 TIP3     2449     TIP3     H1       HT       0.417000       1.00800           0
     17263 TIP3     2449     TIP3     H2       HT       0.417000       1.00800           0
     17264 TIP3     2450     TIP3     OH2      OT      -0.834000       15.9994           0
     17265 TIP3     2450     TIP3     H1       HT       0.417000       1.00800           0
     17266 TIP3     2450     TIP3     H2       HT       0.417000       1.00800           0
     17267 TIP3     2451     TIP3     OH2      OT      -0.834000       15.9994           0
     17268 TIP3     2451     TIP3     H1       HT       0.417000       1.00800           0
     17269 TIP3     2451     TIP3     H2       HT       0.417000       1.00800           0
     17270 TIP3     2452     TIP3     OH2      OT      -0.834000       15.9994           0
     17271 TIP3     2452     TIP3     H1       HT       0.417000       1.00800           0
     17272 TIP3     2452     TIP3     H2       HT       0.417000       1.00800           0
     17273 TIP3     2453     TIP3     OH2      OT      -0.834000       15.9994           0
     17274 TIP3     2453     TIP3     H1       HT       0.417000       1.00800           0
     17275 TIP3     2453     TIP3     H2       HT       0.417000       1.00800           0
     17276 TIP3     2454     TIP3     OH2      OT      -0.834000       15.9994           0
     17277 TIP3     2454     TIP3     H1       HT       0.417000       1.00800           0
     17278 TIP3     2454     TIP3     H2       HT       0.417000       1.00800           0
     17279 TIP3     2455     TIP3     OH2      OT      -0.834000       15.9994           0
     17280 TIP3     2455     TIP3     H1       HT       0.417000       1.00800           0
     17281 TIP3     2455     TIP3     H2       HT       0.417000       1.00800           0
     17282 TIP3     2456     TIP3     OH2      OT      -0.834000       15.9994           0
     17283 TIP3     2456     TIP3     H1       HT       0.417000       1.00800           0
     17284 TIP3     2456     TIP3     H2       HT       0.417000       1.00800           0
     17285 TIP3     2457     TIP3     OH2      OT      -0.834000       15.9994           0
     17286 TIP3     2457     TIP3     H1       HT       0.417000       1.00800           0
     17287 TIP3     2457     TIP3     H2       HT       0.417000       1.00800           0
     17288 TIP3     2458     TIP3     OH2      OT      -0.834000       15.9994           0
     17289 TIP3     2458     TIP3     H1       HT       0.417000       1.00800           0
     17290 TIP3     2458     TIP3     H2       HT       0.417000       1.00800           0
     17291 TIP3     2459     TIP3     OH2      OT      -0.834000       15.9994           0
     17292 TIP3     2459     TIP3     H1       HT       0.417000       1.00800           0
     17293 TIP3     2459     TIP3     H2       HT       0.417000       1.00800           0
     17294 TIP3     2460     TIP3     OH2      OT      -0.834000       15.9994           0
     17295 TIP3     2460     TIP3     H1       HT       0.417000       1.00800           0
     17296 TIP3     2460     TIP3     H2       HT       0.417000       1.00800           0
     17297 TIP3     2461     TIP3     OH2      OT      -0.834000       15.9994           0
     17298 TIP3     2461     TIP3     H1       HT       0.417000       1.00800           0
     17299 TIP3     2461     TIP3     H2       HT       0.417000       1.00800           0
     17300 TIP3     2462     TIP3     OH2      OT      -0.834000       15.9994           0
     17301 TIP3     2462     TIP3     H1       HT       0.417000       1.00800           0
     17302 TIP3     2462     TIP3     H2       HT       0.417000       1.00800           0
     17303 TIP3     2463     TIP3     OH2      OT      -0.834000       15.9994           0
     17304 TIP3     2463     TIP3     H1       HT       0.417000       1.00800           0
     17305 TIP3     2463     TIP3     H2       HT       0.417000       1.00800           0
     17306 TIP3     2464     TIP3     OH2      OT      -0.834000       15.9994           0
     17307 TIP3     2464     TIP3     H1       HT       0.417000       1.00800           0
     17308 TIP3     2464     TIP3     H2       HT       0.417000       1.00800           0
     17309 TIP3     2465     TIP3     OH2      OT      -0.834000       15.9994           0
     17310 TIP3     2465     TIP3     H1       HT       0.417000       1.00800           0
     17311 TIP3     2465     TIP3     H2       HT       0.417000       1.00800           0
     17312 TIP3     2466     TIP3     OH2      OT      -0.834000       15.9994           0
     17313 TIP3     2466     TIP3     H1       HT       0.417000       1.00800           0
     17314 TIP3     2466     TIP3     H2       HT       0.417000       1.00800           0
     17315 TIP3     2467     TIP3     OH2      OT      -0.834000       15.9994           0
     17316 TIP3     2467     TIP3     H1       HT       0.417000       1.00800           0
     17317 TIP3     2467     TIP3     H2       HT       0.417000       1.00800           0
     17318 TIP3     2468     TIP3     OH2      OT      -0.834000       15.9994           0
     17319 TIP3     2468     TIP3     H1       HT       0.417000       1.00800           0
     17320 TIP3     2468     TIP3     H2       HT       0.417000       1.00800           0
     17321 TIP3     2469     TIP3     OH2      OT      -0.834000       15.9994           0
     17322 TIP3     2469     TIP3     H1       HT       0.417000       1.00800           0
     17323 TIP3     2469     TIP3     H2       HT       0.417000       1.00800           0
     17324 TIP3     2470     TIP3     OH2      OT      -0.834000       15.9994           0
     17325 TIP3     2470     TIP3     H1       HT       0.417000       1.00800           0
     17326 TIP3     2470     TIP3     H2       HT       0.417000       1.00800           0
     17327 TIP3     2471     TIP3     OH2      OT      -0.834000       15.9994           0
     17328 TIP3     2471     TIP3     H1       HT       0.417000       1.00800           0
     17329 TIP3     2471     TIP3     H2       HT       0.417000       1.00800           0
     17330 TIP3     2472     TIP3     OH2      OT      -0.834000       15.9994           0
     17331 TIP3     2472     TIP3     H1       HT       0.417000       1.00800           0
     17332 TIP3     2472     TIP3     H2       HT       0.417000       1.00800           0
     17333 TIP3     2473     TIP3     OH2      OT      -0.834000       15.9994           0
     17334 TIP3     2473     TIP3     H1       HT       0.417000       1.00800           0
     17335 TIP3     2473     TIP3     H2       HT       0.417000       1.00800           0
     17336 TIP3     2474     TIP3     OH2      OT      -0.834000       15.9994           0
     17337 TIP3     2474     TIP3     H1       HT       0.417000       1.00800           0
     17338 TIP3     2474     TIP3     H2       HT       0.417000       1.00800           0
     17339 TIP3     2475     TIP3     OH2      OT      -0.834000       15.9994           0
     17340 TIP3     2475     TIP3     H1       HT       0.417000       1.00800           0
     17341 TIP3     2475     TIP3     H2       HT       0.417000       1.00800           0
     17342 TIP3     2476     TIP3     OH2      OT      -0.834000       15.9994           0
     17343 TIP3     2476     TIP3     H1       HT       0.417000       1.00800           0
     17344 TIP3     2476     TIP3     H2       HT       0.417000       1.00800           0
     17345 TIP3     2477     TIP3     OH2      OT      -0.834000       15.9994           0
     17346 TIP3     2477     TIP3     H1       HT       0.417000       1.00800           0
     17347 TIP3     2477     TIP3     H2       HT       0.417000       1.00800           0
     17348 TIP3     2478     TIP3     OH2      OT      -0.834000       15.9994           0
     17349 TIP3     2478     TIP3     H1       HT       0.417000       1.00800           0
     17350 TIP3     2478     TIP3     H2       HT       0.417000       1.00800           0
     17351 TIP3     2479     TIP3     OH2      OT      -0.834000       15.9994           0
     17352 TIP3     2479     TIP3     H1       HT       0.417000       1.00800           0
     17353 TIP3     2479     TIP3     H2       HT       0.417000       1.00800           0
     17354 TIP3     2480     TIP3     OH2      OT      -0.834000       15.9994           0
     17355 TIP3     2480     TIP3     H1       HT       0.417000       1.00800           0
     17356 TIP3     2480     TIP3     H2       HT       0.417000       1.00800           0
     17357 TIP3     2481     TIP3     OH2      OT      -0.834000       15.9994           0
     17358 TIP3     2481     TIP3     H1       HT       0.417000       1.00800           0
     17359 TIP3     2481     TIP3     H2       HT       0.417000       1.00800           0
     17360 TIP3     2482     TIP3     OH2      OT      -0.834000       15.9994           0
     17361 TIP3     2482     TIP3     H1       HT       0.417000       1.00800           0
     17362 TIP3     2482     TIP3     H2       HT       0.417000       1.00800           0
     17363 TIP3     2483     TIP3     OH2      OT      -0.834000       15.9994           0
     17364 TIP3     2483     TIP3     H1       HT       0.417000       1.00800           0
     17365 TIP3     2483     TIP3     H2       HT       0.417000       1.00800           0
     17366 TIP3     2484     TIP3     OH2      OT      -0.834000       15.9994           0
     17367 TIP3     2484     TIP3     H1       HT       0.417000       1.00800           0
     17368 TIP3     2484     TIP3     H2       HT       0.417000       1.00800           0
     17369 TIP3     2485     TIP3     OH2      OT      -0.834000       15.9994           0
     17370 TIP3     2485     TIP3     H1       HT       0.417000       1.00800           0
     17371 TIP3     2485     TIP3     H2       HT       0.417000       1.00800           0
     17372 TIP3     2486     TIP3     OH2      OT      -0.834000       15.9994           0
     17373 TIP3     2486     TIP3     H1       HT       0.417000       1.00800           0
     17374 TIP3     2486     TIP3     H2       HT       0.417000       1.00800           0
     17375 TIP3     2487     TIP3     OH2      OT      -0.834000       15.9994           0
     17376 TIP3     2487     TIP3     H1       HT       0.417000       1.00800           0
     17377 TIP3     2487     TIP3     H2       HT       0.417000       1.00800           0
     17378 TIP3     2488     TIP3     OH2      OT      -0.834000       15.9994           0
     17379 TIP3     2488     TIP3     H1       HT       0.417000       1.00800           0
     17380 TIP3     2488     TIP3     H2       HT       0.417000       1.00800           0
     17381 TIP3     2489     TIP3     OH2      OT      -0.834000       15.9994           0
     17382 TIP3     2489     TIP3     H1       HT       0.417000       1.00800           0
     17383 TIP3     2489     TIP3     H2       HT       0.417000       1.00800           0
     17384 TIP3     2490     TIP3     OH2      OT      -0.834000       15.9994           0
     17385 TIP3     2490     TIP3     H1       HT       0.417000       1.00800           0
     17386 TIP3     2490     TIP3     H2       HT       0.417000       1.00800           0
     17387 TIP3     2491     TIP3     OH2      OT      -0.834000       15.9994           0
     17388 TIP3     2491     TIP3     H1       HT       0.417000       1.00800           0
     17389 TIP3     2491     TIP3     H2       HT       0.417000       1.00800           0
     17390 TIP3     2492     TIP3     OH2      OT      -0.834000       15.9994           0
     17391 TIP3     2492     TIP3     H1       HT       0.417000       1.00800           0
     17392 TIP3     2492     TIP3     H2       HT       0.417000       1.00800           0
     17393 TIP3     2493     TIP3     OH2      OT      -0.834000       15.9994           0
     17394 TIP3     2493     TIP3     H1       HT       0.417000       1.00800           0
     17395 TIP3     2493     TIP3     H2       HT       0.417000       1.00800           0
     17396 TIP3     2494     TIP3     OH2      OT      -0.834000       15.9994           0
     17397 TIP3     2494     TIP3     H1       HT       0.417000       1.00800           0
     17398 TIP3     2494     TIP3     H2       HT       0.417000       1.00800           0
     17399 TIP3     2495     TIP3     OH2      OT      -0.834000       15.9994           0
     17400 TIP3     2495     TIP3     H1       HT       0.417000       1.00800           0
     17401 TIP3     2495     TIP3     H2       HT       0.417000       1.00800           0
     17402 TIP3     2496     TIP3     OH2      OT      -0.834000       15.9994           0
     17403 TIP3     2496     TIP3     H1       HT       0.417000       1.00800           0
     17404 TIP3     2496     TIP3     H2       HT       0.417000       1.00800           0
     17405 TIP3     2497     TIP3     OH2      OT      -0.834000       15.9994           0
     17406 TIP3     2497     TIP3     H1       HT       0.417000       1.00800           0
     17407 TIP3     2497     TIP3     H2       HT       0.417000       1.00800           0
     17408 TIP3     2498     TIP3     OH2      OT      -0.834000       15.9994           0
     17409 TIP3     2498     TIP3     H1       HT       0.417000       1.00800           0
     17410 TIP3     2498     TIP3     H2       HT       0.417000       1.00800           0
     17411 TIP3     2499     TIP3     OH2      OT      -0.834000       15.9994           0
     17412 TIP3     2499     TIP3     H1       HT       0.417000       1.00800           0
     17413 TIP3     2499     TIP3     H2       HT       0.417000       1.00800           0
     17414 TIP3     2500     TIP3     OH2      OT      -0.834000       15.9994           0
     17415 TIP3     2500     TIP3     H1       HT       0.417000       1.00800           0
     17416 TIP3     2500     TIP3     H2       HT       0.417000       1.00800           0
     17417 TIP3     2501     TIP3     OH2      OT      -0.834000       15.9994           0
     17418 TIP3     2501     TIP3     H1       HT       0.417000       1.00800           0
     17419 TIP3     2501     TIP3     H2       HT       0.417000       1.00800           0
     17420 TIP3     2502     TIP3     OH2      OT      -0.834000       15.9994           0
     17421 TIP3     2502     TIP3     H1       HT       0.417000       1.00800           0
     17422 TIP3     2502     TIP3     H2       HT       0.417000       1.00800           0
     17423 TIP3     2503     TIP3     OH2      OT      -0.834000       15.9994           0
     17424 TIP3     2503     TIP3     H1       HT       0.417000       1.00800           0
     17425 TIP3     2503     TIP3     H2       HT       0.417000       1.00800           0
     17426 TIP3     2504     TIP3     OH2      OT      -0.834000       15.9994           0
     17427 TIP3     2504     TIP3     H1       HT       0.417000       1.00800           0
     17428 TIP3     2504     TIP3     H2       HT       0.417000       1.00800           0
     17429 TIP3     2505     TIP3     OH2      OT      -0.834000       15.9994           0
     17430 TIP3     2505     TIP3     H1       HT       0.417000       1.00800           0
     17431 TIP3     2505     TIP3     H2       HT       0.417000       1.00800           0
     17432 TIP3     2506     TIP3     OH2      OT      -0.834000       15.9994           0
     17433 TIP3     2506     TIP3     H1       HT       0.417000       1.00800           0
     17434 TIP3     2506     TIP3     H2       HT       0.417000       1.00800           0
     17435 TIP3     2507     TIP3     OH2      OT      -0.834000       15.9994           0
     17436 TIP3     2507     TIP3     H1       HT       0.417000       1.00800           0
     17437 TIP3     2507     TIP3     H2       HT       0.417000       1.00800           0
     17438 TIP3     2508     TIP3     OH2      OT      -0.834000       15.9994           0
     17439 TIP3     2508     TIP3     H1       HT       0.417000       1.00800           0
     17440 TIP3     2508     TIP3     H2       HT       0.417000       1.00800           0
     17441 TIP3     2509     TIP3     OH2      OT      -0.834000       15.9994           0
     17442 TIP3     2509     TIP3     H1       HT       0.417000       1.00800           0
     17443 TIP3     2509     TIP3     H2       HT       0.417000       1.00800           0
     17444 TIP3     2510     TIP3     OH2      OT      -0.834000       15.9994           0
     17445 TIP3     2510     TIP3     H1       HT       0.417000       1.00800           0
     17446 TIP3     2510     TIP3     H2       HT       0.417000       1.00800           0
     17447 TIP3     2511     TIP3     OH2      OT      -0.834000       15.9994           0
     17448 TIP3     2511     TIP3     H1       HT       0.417000       1.00800           0
     17449 TIP3     2511     TIP3     H2       HT       0.417000       1.00800           0
     17450 TIP3     2512     TIP3     OH2      OT      -0.834000       15.9994           0
     17451 TIP3     2512     TIP3     H1       HT       0.417000       1.00800           0
     17452 TIP3     2512     TIP3     H2       HT       0.417000       1.00800           0
     17453 TIP3     2513     TIP3     OH2      OT      -0.834000       15.9994           0
     17454 TIP3     2513     TIP3     H1       HT       0.417000       1.00800           0
     17455 TIP3     2513     TIP3     H2       HT       0.417000       1.00800           0
     17456 TIP3     2514     TIP3     OH2      OT      -0.834000       15.9994           0
     17457 TIP3     2514     TIP3     H1       HT       0.417000       1.00800           0
     17458 TIP3     2514     TIP3     H2       HT       0.417000       1.00800           0
     17459 TIP3     2515     TIP3     OH2      OT      -0.834000       15.9994           0
     17460 TIP3     2515     TIP3     H1       HT       0.417000       1.00800           0
     17461 TIP3     2515     TIP3     H2       HT       0.417000       1.00800           0
     17462 TIP3     2516     TIP3     OH2      OT      -0.834000       15.9994           0
     17463 TIP3     2516     TIP3     H1       HT       0.417000       1.00800           0
     17464 TIP3     2516     TIP3     H2       HT       0.417000       1.00800           0
     17465 TIP3     2517     TIP3     OH2      OT      -0.834000       15.9994           0
     17466 TIP3     2517     TIP3     H1       HT       0.417000       1.00800           0
     17467 TIP3     2517     TIP3     H2       HT       0.417000       1.00800           0
     17468 TIP3     2518     TIP3     OH2      OT      -0.834000       15.9994           0
     17469 TIP3     2518     TIP3     H1       HT       0.417000       1.00800           0
     17470 TIP3     2518     TIP3     H2       HT       0.417000       1.00800           0
     17471 TIP3     2519     TIP3     OH2      OT      -0.834000       15.9994           0
     17472 TIP3     2519     TIP3     H1       HT       0.417000       1.00800           0
     17473 TIP3     2519     TIP3     H2       HT       0.417000       1.00800           0
     17474 TIP3     2520     TIP3     OH2      OT      -0.834000       15.9994           0
     17475 TIP3     2520     TIP3     H1       HT       0.417000       1.00800           0
     17476 TIP3     2520     TIP3     H2       HT       0.417000       1.00800           0
     17477 TIP3     2521     TIP3     OH2      OT      -0.834000       15.9994           0
     17478 TIP3     2521     TIP3     H1       HT       0.417000       1.00800           0
     17479 TIP3     2521     TIP3     H2       HT       0.417000       1.00800           0
     17480 TIP3     2522     TIP3     OH2      OT      -0.834000       15.9994           0
     17481 TIP3     2522     TIP3     H1       HT       0.417000       1.00800           0
     17482 TIP3     2522     TIP3     H2       HT       0.417000       1.00800           0
     17483 TIP3     2523     TIP3     OH2      OT      -0.834000       15.9994           0
     17484 TIP3     2523     TIP3     H1       HT       0.417000       1.00800           0
     17485 TIP3     2523     TIP3     H2       HT       0.417000       1.00800           0
     17486 TIP3     2524     TIP3     OH2      OT      -0.834000       15.9994           0
     17487 TIP3     2524     TIP3     H1       HT       0.417000       1.00800           0
     17488 TIP3     2524     TIP3     H2       HT       0.417000       1.00800           0
     17489 TIP3     2525     TIP3     OH2      OT      -0.834000       15.9994           0
     17490 TIP3     2525     TIP3     H1       HT       0.417000       1.00800           0
     17491 TIP3     2525     TIP3     H2       HT       0.417000       1.00800           0
     17492 TIP3     2526     TIP3     OH2      OT      -0.834000       15.9994           0
     17493 TIP3     2526     TIP3     H1       HT       0.417000       1.00800           0
     17494 TIP3     2526     TIP3     H2       HT       0.417000       1.00800           0
     17495 TIP3     2527     TIP3     OH2      OT      -0.834000       15.9994           0
     17496 TIP3     2527     TIP3     H1       HT       0.417000       1.00800           0
     17497 TIP3     2527     TIP3     H2       HT       0.417000       1.00800           0
     17498 TIP3     2528     TIP3     OH2      OT      -0.834000       15.9994           0
     17499 TIP3     2528     TIP3     H1       HT       0.417000       1.00800           0
     17500 TIP3     2528     TIP3     H2       HT       0.417000       1.00800           0
     17501 TIP3     2529     TIP3     OH2      OT      -0.834000       15.9994           0
     17502 TIP3     2529     TIP3     H1       HT       0.417000       1.00800           0
     17503 TIP3     2529     TIP3     H2       HT       0.417000       1.00800           0
     17504 TIP3     2530     TIP3     OH2      OT      -0.834000       15.9994           0
     17505 TIP3     2530     TIP3     H1       HT       0.417000       1.00800           0
     17506 TIP3     2530     TIP3     H2       HT       0.417000       1.00800           0
     17507 TIP3     2531     TIP3     OH2      OT      -0.834000       15.9994           0
     17508 TIP3     2531     TIP3     H1       HT       0.417000       1.00800           0
     17509 TIP3     2531     TIP3     H2       HT       0.417000       1.00800           0
     17510 TIP3     2532     TIP3     OH2      OT      -0.834000       15.9994           0
     17511 TIP3     2532     TIP3     H1       HT       0.417000       1.00800           0
     17512 TIP3     2532     TIP3     H2       HT       0.417000       1.00800           0
     17513 TIP3     2533     TIP3     OH2      OT      -0.834000       15.9994           0
     17514 TIP3     2533     TIP3     H1       HT       0.417000       1.00800           0
     17515 TIP3     2533     TIP3     H2       HT       0.417000       1.00800           0
     17516 TIP3     2534     TIP3     OH2      OT      -0.834000       15.9994           0
     17517 TIP3     2534     TIP3     H1       HT       0.417000       1.00800           0
     17518 TIP3     2534     TIP3     H2       HT       0.417000       1.00800           0
     17519 TIP3     2535     TIP3     OH2      OT      -0.834000       15.9994           0
     17520 TIP3     2535     TIP3     H1       HT       0.417000       1.00800           0
     17521 TIP3     2535     TIP3     H2       HT       0.417000       1.00800           0
     17522 TIP3     2536     TIP3     OH2      OT      -0.834000       15.9994           0
     17523 TIP3     2536     TIP3     H1       HT       0.417000       1.00800           0
     17524 TIP3     2536     TIP3     H2       HT       0.417000       1.00800           0
     17525 TIP3     2537     TIP3     OH2      OT      -0.834000       15.9994           0
     17526 TIP3     2537     TIP3     H1       HT       0.417000       1.00800           0
     17527 TIP3     2537     TIP3     H2       HT       0.417000       1.00800           0
     17528 TIP3     2538     TIP3     OH2      OT      -0.834000       15.9994           0
     17529 TIP3     2538     TIP3     H1       HT       0.417000       1.00800           0
     17530 TIP3     2538     TIP3     H2       HT       0.417000       1.00800           0
     17531 TIP3     2539     TIP3     OH2      OT      -0.834000       15.9994           0
     17532 TIP3     2539     TIP3     H1       HT       0.417000       1.00800           0
     17533 TIP3     2539     TIP3     H2       HT       0.417000       1.00800           0
     17534 TIP3     2540     TIP3     OH2      OT      -0.834000       15.9994           0
     17535 TIP3     2540     TIP3     H1       HT       0.417000       1.00800           0
     17536 TIP3     2540     TIP3     H2       HT       0.417000       1.00800           0
     17537 TIP3     2541     TIP3     OH2      OT      -0.834000       15.9994           0
     17538 TIP3     2541     TIP3     H1       HT       0.417000       1.00800           0
     17539 TIP3     2541     TIP3     H2       HT       0.417000       1.00800           0
     17540 TIP3     2542     TIP3     OH2      OT      -0.834000       15.9994           0
     17541 TIP3     2542     TIP3     H1       HT       0.417000       1.00800           0
     17542 TIP3     2542     TIP3     H2       HT       0.417000       1.00800           0
     17543 TIP3     2543     TIP3     OH2      OT      -0.834000       15.9994           0
     17544 TIP3     2543     TIP3     H1       HT       0.417000       1.00800           0
     17545 TIP3     2543     TIP3     H2       HT       0.417000       1.00800           0
     17546 TIP3     2544     TIP3     OH2      OT      -0.834000       15.9994           0
     17547 TIP3     2544     TIP3     H1       HT       0.417000       1.00800           0
     17548 TIP3     2544     TIP3     H2       HT       0.417000       1.00800           0
     17549 TIP3     2545     TIP3     OH2      OT      -0.834000       15.9994           0
     17550 TIP3     2545     TIP3     H1       HT       0.417000       1.00800           0
     17551 TIP3     2545     TIP3     H2       HT       0.417000       1.00800           0
     17552 TIP3     2546     TIP3     OH2      OT      -0.834000       15.9994           0
     17553 TIP3     2546     TIP3     H1       HT       0.417000       1.00800           0
     17554 TIP3     2546     TIP3     H2       HT       0.417000       1.00800           0
     17555 TIP3     2547     TIP3     OH2      OT      -0.834000       15.9994           0
     17556 TIP3     2547     TIP3     H1       HT       0.417000       1.00800           0
     17557 TIP3     2547     TIP3     H2       HT       0.417000       1.00800           0
     17558 TIP3     2548     TIP3     OH2      OT      -0.834000       15.9994           0
     17559 TIP3     2548     TIP3     H1       HT       0.417000       1.00800           0
     17560 TIP3     2548     TIP3     H2       HT       0.417000       1.00800           0
     17561 TIP3     2549     TIP3     OH2      OT      -0.834000       15.9994           0
     17562 TIP3     2549     TIP3     H1       HT       0.417000       1.00800           0
     17563 TIP3     2549     TIP3     H2       HT       0.417000       1.00800           0
     17564 TIP3     2550     TIP3     OH2      OT      -0.834000       15.9994           0
     17565 TIP3     2550     TIP3     H1       HT       0.417000       1.00800           0
     17566 TIP3     2550     TIP3     H2       HT       0.417000       1.00800           0
     17567 TIP3     2551     TIP3     OH2      OT      -0.834000       15.9994           0
     17568 TIP3     2551     TIP3     H1       HT       0.417000       1.00800           0
     17569 TIP3     2551     TIP3     H2       HT       0.417000       1.00800           0
     17570 TIP3     2552     TIP3     OH2      OT      -0.834000       15.9994           0
     17571 TIP3     2552     TIP3     H1       HT       0.417000       1.00800           0
     17572 TIP3     2552     TIP3     H2       HT       0.417000       1.00800           0
     17573 TIP3     2553     TIP3     OH2      OT      -0.834000       15.9994           0
     17574 TIP3     2553     TIP3     H1       HT       0.417000       1.00800           0
     17575 TIP3     2553     TIP3     H2       HT       0.417000       1.00800           0
     17576 TIP3     2554     TIP3     OH2      OT      -0.834000       15.9994           0
     17577 TIP3     2554     TIP3     H1       HT       0.417000       1.00800           0
     17578 TIP3     2554     TIP3     H2       HT       0.417000       1.00800           0
     17579 TIP3     2555     TIP3     OH2      OT      -0.834000       15.9994           0
     17580 TIP3     2555     TIP3     H1       HT       0.417000       1.00800           0
     17581 TIP3     2555     TIP3     H2       HT       0.417000       1.00800           0
     17582 TIP3     2556     TIP3     OH2      OT      -0.834000       15.9994           0
     17583 TIP3     2556     TIP3     H1       HT       0.417000       1.00800           0
     17584 TIP3     2556     TIP3     H2       HT       0.417000       1.00800           0
     17585 TIP3     2557     TIP3     OH2      OT      -0.834000       15.9994           0
     17586 TIP3     2557     TIP3     H1       HT       0.417000       1.00800           0
     17587 TIP3     2557     TIP3     H2       HT       0.417000       1.00800           0
     17588 TIP3     2558     TIP3     OH2      OT      -0.834000       15.9994           0
     17589 TIP3     2558     TIP3     H1       HT       0.417000       1.00800           0
     17590 TIP3     2558     TIP3     H2       HT       0.417000       1.00800           0
     17591 TIP3     2559     TIP3     OH2      OT      -0.834000       15.9994           0
     17592 TIP3     2559     TIP3     H1       HT       0.417000       1.00800           0
     17593 TIP3     2559     TIP3     H2       HT       0.417000       1.00800           0
     17594 TIP3     2560     TIP3     OH2      OT      -0.834000       15.9994           0
     17595 TIP3     2560     TIP3     H1       HT       0.417000       1.00800           0
     17596 TIP3     2560     TIP3     H2       HT       0.417000       1.00800           0
     17597 TIP3     2561     TIP3     OH2      OT      -0.834000       15.9994           0
     17598 TIP3     2561     TIP3     H1       HT       0.417000       1.00800           0
     17599 TIP3     2561     TIP3     H2       HT       0.417000       1.00800           0
     17600 TIP3     2562     TIP3     OH2      OT      -0.834000       15.9994           0
     17601 TIP3     2562     TIP3     H1       HT       0.417000       1.00800           0
     17602 TIP3     2562     TIP3     H2       HT       0.417000       1.00800           0
     17603 TIP3     2563     TIP3     OH2      OT      -0.834000       15.9994           0
     17604 TIP3     2563     TIP3     H1       HT       0.417000       1.00800           0
     17605 TIP3     2563     TIP3     H2       HT       0.417000       1.00800           0
     17606 TIP3     2564     TIP3     OH2      OT      -0.834000       15.9994           0
     17607 TIP3     2564     TIP3     H1       HT       0.417000       1.00800           0
     17608 TIP3     2564     TIP3     H2       HT       0.417000       1.00800           0
     17609 TIP3     2565     TIP3     OH2      OT      -0.834000       15.9994           0
     17610 TIP3     2565     TIP3     H1       HT       0.417000       1.00800           0
     17611 TIP3     2565     TIP3     H2       HT       0.417000       1.00800           0
     17612 TIP3     2566     TIP3     OH2      OT      -0.834000       15.9994           0
     17613 TIP3     2566     TIP3     H1       HT       0.417000       1.00800           0
     17614 TIP3     2566     TIP3     H2       HT       0.417000       1.00800           0
     17615 TIP3     2567     TIP3     OH2      OT      -0.834000       15.9994           0
     17616 TIP3     2567     TIP3     H1       HT       0.417000       1.00800           0
     17617 TIP3     2567     TIP3     H2       HT       0.417000       1.00800           0
     17618 TIP3     2568     TIP3     OH2      OT      -0.834000       15.9994           0
     17619 TIP3     2568     TIP3     H1       HT       0.417000       1.00800           0
     17620 TIP3     2568     TIP3     H2       HT       0.417000       1.00800           0
     17621 TIP3     2569     TIP3     OH2      OT      -0.834000       15.9994           0
     17622 TIP3     2569     TIP3     H1       HT       0.417000       1.00800           0
     17623 TIP3     2569     TIP3     H2       HT       0.417000       1.00800           0
     17624 TIP3     2570     TIP3     OH2      OT      -0.834000       15.9994           0
     17625 TIP3     2570     TIP3     H1       HT       0.417000       1.00800           0
     17626 TIP3     2570     TIP3     H2       HT       0.417000       1.00800           0
     17627 TIP3     2571     TIP3     OH2      OT      -0.834000       15.9994           0
     17628 TIP3     2571     TIP3     H1       HT       0.417000       1.00800           0
     17629 TIP3     2571     TIP3     H2       HT       0.417000       1.00800           0
     17630 TIP3     2572     TIP3     OH2      OT      -0.834000       15.9994           0
     17631 TIP3     2572     TIP3     H1       HT       0.417000       1.00800           0
     17632 TIP3     2572     TIP3     H2       HT       0.417000       1.00800           0
     17633 TIP3     2573     TIP3     OH2      OT      -0.834000       15.9994           0
     17634 TIP3     2573     TIP3     H1       HT       0.417000       1.00800           0
     17635 TIP3     2573     TIP3     H2       HT       0.417000       1.00800           0
     17636 TIP3     2574     TIP3     OH2      OT      -0.834000       15.9994           0
     17637 TIP3     2574     TIP3     H1       HT       0.417000       1.00800           0
     17638 TIP3     2574     TIP3     H2       HT       0.417000       1.00800           0
     17639 TIP3     2575     TIP3     OH2      OT      -0.834000       15.9994           0
     17640 TIP3     2575     TIP3     H1       HT       0.417000       1.00800           0
     17641 TIP3     2575     TIP3     H2       HT       0.417000       1.00800           0
     17642 TIP3     2576     TIP3     OH2      OT      -0.834000       15.9994           0
     17643 TIP3     2576     TIP3     H1       HT       0.417000       1.00800           0
     17644 TIP3     2576     TIP3     H2       HT       0.417000       1.00800           0
     17645 TIP3     2577     TIP3     OH2      OT      -0.834000       15.9994           0
     17646 TIP3     2577     TIP3     H1       HT       0.417000       1.00800           0
     17647 TIP3     2577     TIP3     H2       HT       0.417000       1.00800           0
     17648 TIP3     2578     TIP3     OH2      OT      -0.834000       15.9994           0
     17649 TIP3     2578     TIP3     H1       HT       0.417000       1.00800           0
     17650 TIP3     2578     TIP3     H2       HT       0.417000       1.00800           0
     17651 TIP3     2579     TIP3     OH2      OT      -0.834000       15.9994           0
     17652 TIP3     2579     TIP3     H1       HT       0.417000       1.00800           0
     17653 TIP3     2579     TIP3     H2       HT       0.417000       1.00800           0
     17654 TIP3     2580     TIP3     OH2      OT      -0.834000       15.9994           0
     17655 TIP3     2580     TIP3     H1       HT       0.417000       1.00800           0
     17656 TIP3     2580     TIP3     H2       HT       0.417000       1.00800           0
     17657 TIP3     2581     TIP3     OH2      OT      -0.834000       15.9994           0
     17658 TIP3     2581     TIP3     H1       HT       0.417000       1.00800           0
     17659 TIP3     2581     TIP3     H2       HT       0.417000       1.00800           0
     17660 TIP3     2582     TIP3     OH2      OT      -0.834000       15.9994           0
     17661 TIP3     2582     TIP3     H1       HT       0.417000       1.00800           0
     17662 TIP3     2582     TIP3     H2       HT       0.417000       1.00800           0
     17663 TIP3     2583     TIP3     OH2      OT      -0.834000       15.9994           0
     17664 TIP3     2583     TIP3     H1       HT       0.417000       1.00800           0
     17665 TIP3     2583     TIP3     H2       HT       0.417000       1.00800           0
     17666 TIP3     2584     TIP3     OH2      OT      -0.834000       15.9994           0
     17667 TIP3     2584     TIP3     H1       HT       0.417000       1.00800           0
     17668 TIP3     2584     TIP3     H2       HT       0.417000       1.00800           0
     17669 TIP3     2585     TIP3     OH2      OT      -0.834000       15.9994           0
     17670 TIP3     2585     TIP3     H1       HT       0.417000       1.00800           0
     17671 TIP3     2585     TIP3     H2       HT       0.417000       1.00800           0
     17672 TIP3     2586     TIP3     OH2      OT      -0.834000       15.9994           0
     17673 TIP3     2586     TIP3     H1       HT       0.417000       1.00800           0
     17674 TIP3     2586     TIP3     H2       HT       0.417000       1.00800           0
     17675 TIP3     2587     TIP3     OH2      OT      -0.834000       15.9994           0
     17676 TIP3     2587     TIP3     H1       HT       0.417000       1.00800           0
     17677 TIP3     2587     TIP3     H2       HT       0.417000       1.00800           0
     17678 TIP3     2588     TIP3     OH2      OT      -0.834000       15.9994           0
     17679 TIP3     2588     TIP3     H1       HT       0.417000       1.00800           0
     17680 TIP3     2588     TIP3     H2       HT       0.417000       1.00800           0
     17681 TIP3     2589     TIP3     OH2      OT      -0.834000       15.9994           0
     17682 TIP3     2589     TIP3     H1       HT       0.417000       1.00800           0
     17683 TIP3     2589     TIP3     H2       HT       0.417000       1.00800           0
     17684 TIP3     2590     TIP3     OH2      OT      -0.834000       15.9994           0
     17685 TIP3     2590     TIP3     H1       HT       0.417000       1.00800           0
     17686 TIP3     2590     TIP3     H2       HT       0.417000       1.00800           0
     17687 TIP3     2591     TIP3     OH2      OT      -0.834000       15.9994           0
     17688 TIP3     2591     TIP3     H1       HT       0.417000       1.00800           0
     17689 TIP3     2591     TIP3     H2       HT       0.417000       1.00800           0
     17690 TIP3     2592     TIP3     OH2      OT      -0.834000       15.9994           0
     17691 TIP3     2592     TIP3     H1       HT       0.417000       1.00800           0
     17692 TIP3     2592     TIP3     H2       HT       0.417000       1.00800           0
     17693 TIP3     2593     TIP3     OH2      OT      -0.834000       15.9994           0
     17694 TIP3     2593     TIP3     H1       HT       0.417000       1.00800           0
     17695 TIP3     2593     TIP3     H2       HT       0.417000       1.00800           0
     17696 TIP3     2594     TIP3     OH2      OT      -0.834000       15.9994           0
     17697 TIP3     2594     TIP3     H1       HT       0.417000       1.00800           0
     17698 TIP3     2594     TIP3     H2       HT       0.417000       1.00800           0
     17699 TIP3     2595     TIP3     OH2      OT      -0.834000       15.9994           0
     17700 TIP3     2595     TIP3     H1       HT       0.417000       1.00800           0
     17701 TIP3     2595     TIP3     H2       HT       0.417000       1.00800           0
     17702 TIP3     2596     TIP3     OH2      OT      -0.834000       15.9994           0
     17703 TIP3     2596     TIP3     H1       HT       0.417000       1.00800           0
     17704 TIP3     2596     TIP3     H2       HT       0.417000       1.00800           0
     17705 TIP3     2597     TIP3     OH2      OT      -0.834000       15.9994           0
     17706 TIP3     2597     TIP3     H1       HT       0.417000       1.00800           0
     17707 TIP3     2597     TIP3     H2       HT       0.417000       1.00800           0
     17708 TIP3     2598     TIP3     OH2      OT      -0.834000       15.9994           0
     17709 TIP3     2598     TIP3     H1       HT       0.417000       1.00800           0
     17710 TIP3     2598     TIP3     H2       HT       0.417000       1.00800           0
     17711 TIP3     2599     TIP3     OH2      OT      -0.834000       15.9994           0
     17712 TIP3     2599     TIP3     H1       HT       0.417000       1.00800           0
     17713 TIP3     2599     TIP3     H2       HT       0.417000       1.00800           0
     17714 TIP3     2600     TIP3     OH2      OT      -0.834000       15.9994           0
     17715 TIP3     2600     TIP3     H1       HT       0.417000       1.00800           0
     17716 TIP3     2600     TIP3     H2       HT       0.417000       1.00800           0
     17717 TIP3     2601     TIP3     OH2      OT      -0.834000       15.9994           0
     17718 TIP3     2601     TIP3     H1       HT       0.417000       1.00800           0
     17719 TIP3     2601     TIP3     H2       HT       0.417000       1.00800           0
     17720 TIP3     2602     TIP3     OH2      OT      -0.834000       15.9994           0
     17721 TIP3     2602     TIP3     H1       HT       0.417000       1.00800           0
     17722 TIP3     2602     TIP3     H2       HT       0.417000       1.00800           0
     17723 TIP3     2603     TIP3     OH2      OT      -0.834000       15.9994           0
     17724 TIP3     2603     TIP3     H1       HT       0.417000       1.00800           0
     17725 TIP3     2603     TIP3     H2       HT       0.417000       1.00800           0
     17726 TIP3     2604     TIP3     OH2      OT      -0.834000       15.9994           0
     17727 TIP3     2604     TIP3     H1       HT       0.417000       1.00800           0
     17728 TIP3     2604     TIP3     H2       HT       0.417000       1.00800           0
     17729 TIP3     2605     TIP3     OH2      OT      -0.834000       15.9994           0
     17730 TIP3     2605     TIP3     H1       HT       0.417000       1.00800           0
     17731 TIP3     2605     TIP3     H2       HT       0.417000       1.00800           0
     17732 TIP3     2606     TIP3     OH2      OT      -0.834000       15.9994           0
     17733 TIP3     2606     TIP3     H1       HT       0.417000       1.00800           0
     17734 TIP3     2606     TIP3     H2       HT       0.417000       1.00800           0
     17735 TIP3     2607     TIP3     OH2      OT      -0.834000       15.9994           0
     17736 TIP3     2607     TIP3     H1       HT       0.417000       1.00800           0
     17737 TIP3     2607     TIP3     H2       HT       0.417000       1.00800           0
     17738 TIP3     2608     TIP3     OH2      OT      -0.834000       15.9994           0
     17739 TIP3     2608     TIP3     H1       HT       0.417000       1.00800           0
     17740 TIP3     2608     TIP3     H2       HT       0.417000       1.00800           0
     17741 TIP3     2609     TIP3     OH2      OT      -0.834000       15.9994           0
     17742 TIP3     2609     TIP3     H1       HT       0.417000       1.00800           0
     17743 TIP3     2609     TIP3     H2       HT       0.417000       1.00800           0
     17744 TIP3     2610     TIP3     OH2      OT      -0.834000       15.9994           0
     17745 TIP3     2610     TIP3     H1       HT       0.417000       1.00800           0
     17746 TIP3     2610     TIP3     H2       HT       0.417000       1.00800           0
     17747 TIP3     2611     TIP3     OH2      OT      -0.834000       15.9994           0
     17748 TIP3     2611     TIP3     H1       HT       0.417000       1.00800           0
     17749 TIP3     2611     TIP3     H2       HT       0.417000       1.00800           0
     17750 TIP3     2612     TIP3     OH2      OT      -0.834000       15.9994           0
     17751 TIP3     2612     TIP3     H1       HT       0.417000       1.00800           0
     17752 TIP3     2612     TIP3     H2       HT       0.417000       1.00800           0
     17753 TIP3     2613     TIP3     OH2      OT      -0.834000       15.9994           0
     17754 TIP3     2613     TIP3     H1       HT       0.417000       1.00800           0
     17755 TIP3     2613     TIP3     H2       HT       0.417000       1.00800           0
     17756 TIP3     2614     TIP3     OH2      OT      -0.834000       15.9994           0
     17757 TIP3     2614     TIP3     H1       HT       0.417000       1.00800           0
     17758 TIP3     2614     TIP3     H2       HT       0.417000       1.00800           0
     17759 TIP3     2615     TIP3     OH2      OT      -0.834000       15.9994           0
     17760 TIP3     2615     TIP3     H1       HT       0.417000       1.00800           0
     17761 TIP3     2615     TIP3     H2       HT       0.417000       1.00800           0
     17762 TIP3     2616     TIP3     OH2      OT      -0.834000       15.9994           0
     17763 TIP3     2616     TIP3     H1       HT       0.417000       1.00800           0
     17764 TIP3     2616     TIP3     H2       HT       0.417000       1.00800           0
     17765 TIP3     2617     TIP3     OH2      OT      -0.834000       15.9994           0
     17766 TIP3     2617     TIP3     H1       HT       0.417000       1.00800           0
     17767 TIP3     2617     TIP3     H2       HT       0.417000       1.00800           0
     17768 TIP3     2618     TIP3     OH2      OT      -0.834000       15.9994           0
     17769 TIP3     2618     TIP3     H1       HT       0.417000       1.00800           0
     17770 TIP3     2618     TIP3     H2       HT       0.417000       1.00800           0
     17771 TIP3     2619     TIP3     OH2      OT      -0.834000       15.9994           0
     17772 TIP3     2619     TIP3     H1       HT       0.417000       1.00800           0
     17773 TIP3     2619     TIP3     H2       HT       0.417000       1.00800           0
     17774 TIP3     2620     TIP3     OH2      OT      -0.834000       15.9994           0
     17775 TIP3     2620     TIP3     H1       HT       0.417000       1.00800           0
     17776 TIP3     2620     TIP3     H2       HT       0.417000       1.00800           0
     17777 TIP3     2621     TIP3     OH2      OT      -0.834000       15.9994           0
     17778 TIP3     2621     TIP3     H1       HT       0.417000       1.00800           0
     17779 TIP3     2621     TIP3     H2       HT       0.417000       1.00800           0
     17780 TIP3     2622     TIP3     OH2      OT      -0.834000       15.9994           0
     17781 TIP3     2622     TIP3     H1       HT       0.417000       1.00800           0
     17782 TIP3     2622     TIP3     H2       HT       0.417000       1.00800           0
     17783 TIP3     2623     TIP3     OH2      OT      -0.834000       15.9994           0
     17784 TIP3     2623     TIP3     H1       HT       0.417000       1.00800           0
     17785 TIP3     2623     TIP3     H2       HT       0.417000       1.00800           0
     17786 TIP3     2624     TIP3     OH2      OT      -0.834000       15.9994           0
     17787 TIP3     2624     TIP3     H1       HT       0.417000       1.00800           0
     17788 TIP3     2624     TIP3     H2       HT       0.417000       1.00800           0
     17789 TIP3     2625     TIP3     OH2      OT      -0.834000       15.9994           0
     17790 TIP3     2625     TIP3     H1       HT       0.417000       1.00800           0
     17791 TIP3     2625     TIP3     H2       HT       0.417000       1.00800           0
     17792 TIP3     2626     TIP3     OH2      OT      -0.834000       15.9994           0
     17793 TIP3     2626     TIP3     H1       HT       0.417000       1.00800           0
     17794 TIP3     2626     TIP3     H2       HT       0.417000       1.00800           0
     17795 TIP3     2627     TIP3     OH2      OT      -0.834000       15.9994           0
     17796 TIP3     2627     TIP3     H1       HT       0.417000       1.00800           0
     17797 TIP3     2627     TIP3     H2       HT       0.417000       1.00800           0
     17798 TIP3     2628     TIP3     OH2      OT      -0.834000       15.9994           0
     17799 TIP3     2628     TIP3     H1       HT       0.417000       1.00800           0
     17800 TIP3     2628     TIP3     H2       HT       0.417000       1.00800           0
     17801 TIP3     2629     TIP3     OH2      OT      -0.834000       15.9994           0
     17802 TIP3     2629     TIP3     H1       HT       0.417000       1.00800           0
     17803 TIP3     2629     TIP3     H2       HT       0.417000       1.00800           0
     17804 TIP3     2630     TIP3     OH2      OT      -0.834000       15.9994           0
     17805 TIP3     2630     TIP3     H1       HT       0.417000       1.00800           0
     17806 TIP3     2630     TIP3     H2       HT       0.417000       1.00800           0
     17807 TIP3     2631     TIP3     OH2      OT      -0.834000       15.9994           0
     17808 TIP3     2631     TIP3     H1       HT       0.417000       1.00800           0
     17809 TIP3     2631     TIP3     H2       HT       0.417000       1.00800           0
     17810 TIP3     2632     TIP3     OH2      OT      -0.834000       15.9994           0
     17811 TIP3     2632     TIP3     H1       HT       0.417000       1.00800           0
     17812 TIP3     2632     TIP3     H2       HT       0.417000       1.00800           0
     17813 TIP3     2633     TIP3     OH2      OT      -0.834000       15.9994           0
     17814 TIP3     2633     TIP3     H1       HT       0.417000       1.00800           0
     17815 TIP3     2633     TIP3     H2       HT       0.417000       1.00800           0
     17816 TIP3     2634     TIP3     OH2      OT      -0.834000       15.9994           0
     17817 TIP3     2634     TIP3     H1       HT       0.417000       1.00800           0
     17818 TIP3     2634     TIP3     H2       HT       0.417000       1.00800           0
     17819 TIP3     2635     TIP3     OH2      OT      -0.834000       15.9994           0
     17820 TIP3     2635     TIP3     H1       HT       0.417000       1.00800           0
     17821 TIP3     2635     TIP3     H2       HT       0.417000       1.00800           0
     17822 TIP3     2636     TIP3     OH2      OT      -0.834000       15.9994           0
     17823 TIP3     2636     TIP3     H1       HT       0.417000       1.00800           0
     17824 TIP3     2636     TIP3     H2       HT       0.417000       1.00800           0
     17825 TIP3     2637     TIP3     OH2      OT      -0.834000       15.9994           0
     17826 TIP3     2637     TIP3     H1       HT       0.417000       1.00800           0
     17827 TIP3     2637     TIP3     H2       HT       0.417000       1.00800           0
     17828 TIP3     2638     TIP3     OH2      OT      -0.834000       15.9994           0
     17829 TIP3     2638     TIP3     H1       HT       0.417000       1.00800           0
     17830 TIP3     2638     TIP3     H2       HT       0.417000       1.00800           0
     17831 TIP3     2639     TIP3     OH2      OT      -0.834000       15.9994           0
     17832 TIP3     2639     TIP3     H1       HT       0.417000       1.00800           0
     17833 TIP3     2639     TIP3     H2       HT       0.417000       1.00800           0
     17834 TIP3     2640     TIP3     OH2      OT      -0.834000       15.9994           0
     17835 TIP3     2640     TIP3     H1       HT       0.417000       1.00800           0
     17836 TIP3     2640     TIP3     H2       HT       0.417000       1.00800           0
     17837 TIP3     2641     TIP3     OH2      OT      -0.834000       15.9994           0
     17838 TIP3     2641     TIP3     H1       HT       0.417000       1.00800           0
     17839 TIP3     2641     TIP3     H2       HT       0.417000       1.00800           0
     17840 TIP3     2642     TIP3     OH2      OT      -0.834000       15.9994           0
     17841 TIP3     2642     TIP3     H1       HT       0.417000       1.00800           0
     17842 TIP3     2642     TIP3     H2       HT       0.417000       1.00800           0
     17843 TIP3     2643     TIP3     OH2      OT      -0.834000       15.9994           0
     17844 TIP3     2643     TIP3     H1       HT       0.417000       1.00800           0
     17845 TIP3     2643     TIP3     H2       HT       0.417000       1.00800           0
     17846 TIP3     2644     TIP3     OH2      OT      -0.834000       15.9994           0
     17847 TIP3     2644     TIP3     H1       HT       0.417000       1.00800           0
     17848 TIP3     2644     TIP3     H2       HT       0.417000       1.00800           0
     17849 TIP3     2645     TIP3     OH2      OT      -0.834000       15.9994           0
     17850 TIP3     2645     TIP3     H1       HT       0.417000       1.00800           0
     17851 TIP3     2645     TIP3     H2       HT       0.417000       1.00800           0
     17852 TIP3     2646     TIP3     OH2      OT      -0.834000       15.9994           0
     17853 TIP3     2646     TIP3     H1       HT       0.417000       1.00800           0
     17854 TIP3     2646     TIP3     H2       HT       0.417000       1.00800           0
     17855 TIP3     2647     TIP3     OH2      OT      -0.834000       15.9994           0
     17856 TIP3     2647     TIP3     H1       HT       0.417000       1.00800           0
     17857 TIP3     2647     TIP3     H2       HT       0.417000       1.00800           0
     17858 TIP3     2648     TIP3     OH2      OT      -0.834000       15.9994           0
     17859 TIP3     2648     TIP3     H1       HT       0.417000       1.00800           0
     17860 TIP3     2648     TIP3     H2       HT       0.417000       1.00800           0
     17861 TIP3     2649     TIP3     OH2      OT      -0.834000       15.9994           0
     17862 TIP3     2649     TIP3     H1       HT       0.417000       1.00800           0
     17863 TIP3     2649     TIP3     H2       HT       0.417000       1.00800           0
     17864 TIP3     2650     TIP3     OH2      OT      -0.834000       15.9994           0
     17865 TIP3     2650     TIP3     H1       HT       0.417000       1.00800           0
     17866 TIP3     2650     TIP3     H2       HT       0.417000       1.00800           0
     17867 TIP3     2651     TIP3     OH2      OT      -0.834000       15.9994           0
     17868 TIP3     2651     TIP3     H1       HT       0.417000       1.00800           0
     17869 TIP3     2651     TIP3     H2       HT       0.417000       1.00800           0
     17870 TIP3     2652     TIP3     OH2      OT      -0.834000       15.9994           0
     17871 TIP3     2652     TIP3     H1       HT       0.417000       1.00800           0
     17872 TIP3     2652     TIP3     H2       HT       0.417000       1.00800           0
     17873 TIP3     2653     TIP3     OH2      OT      -0.834000       15.9994           0
     17874 TIP3     2653     TIP3     H1       HT       0.417000       1.00800           0
     17875 TIP3     2653     TIP3     H2       HT       0.417000       1.00800           0
     17876 TIP3     2654     TIP3     OH2      OT      -0.834000       15.9994           0
     17877 TIP3     2654     TIP3     H1       HT       0.417000       1.00800           0
     17878 TIP3     2654     TIP3     H2       HT       0.417000       1.00800           0
     17879 TIP3     2655     TIP3     OH2      OT      -0.834000       15.9994           0
     17880 TIP3     2655     TIP3     H1       HT       0.417000       1.00800           0
     17881 TIP3     2655     TIP3     H2       HT       0.417000       1.00800           0
     17882 TIP3     2656     TIP3     OH2      OT      -0.834000       15.9994           0
     17883 TIP3     2656     TIP3     H1       HT       0.417000       1.00800           0
     17884 TIP3     2656     TIP3     H2       HT       0.417000       1.00800           0
     17885 TIP3     2657     TIP3     OH2      OT      -0.834000       15.9994           0
     17886 TIP3     2657     TIP3     H1       HT       0.417000       1.00800           0
     17887 TIP3     2657     TIP3     H2       HT       0.417000       1.00800           0
     17888 TIP3     2658     TIP3     OH2      OT      -0.834000       15.9994           0
     17889 TIP3     2658     TIP3     H1       HT       0.417000       1.00800           0
     17890 TIP3     2658     TIP3     H2       HT       0.417000       1.00800           0
     17891 TIP3     2659     TIP3     OH2      OT      -0.834000       15.9994           0
     17892 TIP3     2659     TIP3     H1       HT       0.417000       1.00800           0
     17893 TIP3     2659     TIP3     H2       HT       0.417000       1.00800           0
     17894 TIP3     2660     TIP3     OH2      OT      -0.834000       15.9994           0
     17895 TIP3     2660     TIP3     H1       HT       0.417000       1.00800           0
     17896 TIP3     2660     TIP3     H2       HT       0.417000       1.00800           0
     17897 TIP3     2661     TIP3     OH2      OT      -0.834000       15.9994           0
     17898 TIP3     2661     TIP3     H1       HT       0.417000       1.00800           0
     17899 TIP3     2661     TIP3     H2       HT       0.417000       1.00800           0
     17900 TIP3     2662     TIP3     OH2      OT      -0.834000       15.9994           0
     17901 TIP3     2662     TIP3     H1       HT       0.417000       1.00800           0
     17902 TIP3     2662     TIP3     H2       HT       0.417000       1.00800           0
     17903 TIP3     2663     TIP3     OH2      OT      -0.834000       15.9994           0
     17904 TIP3     2663     TIP3     H1       HT       0.417000       1.00800           0
     17905 TIP3     2663     TIP3     H2       HT       0.417000       1.00800           0
     17906 TIP3     2664     TIP3     OH2      OT      -0.834000       15.9994           0
     17907 TIP3     2664     TIP3     H1       HT       0.417000       1.00800           0
     17908 TIP3     2664     TIP3     H2       HT       0.417000       1.00800           0
     17909 TIP3     2665     TIP3     OH2      OT      -0.834000       15.9994           0
     17910 TIP3     2665     TIP3     H1       HT       0.417000       1.00800           0
     17911 TIP3     2665     TIP3     H2       HT       0.417000       1.00800           0
     17912 TIP3     2666     TIP3     OH2      OT      -0.834000       15.9994           0
     17913 TIP3     2666     TIP3     H1       HT       0.417000       1.00800           0
     17914 TIP3     2666     TIP3     H2       HT       0.417000       1.00800           0
     17915 TIP3     2667     TIP3     OH2      OT      -0.834000       15.9994           0
     17916 TIP3     2667     TIP3     H1       HT       0.417000       1.00800           0
     17917 TIP3     2667     TIP3     H2       HT       0.417000       1.00800           0
     17918 TIP3     2668     TIP3     OH2      OT      -0.834000       15.9994           0
     17919 TIP3     2668     TIP3     H1       HT       0.417000       1.00800           0
     17920 TIP3     2668     TIP3     H2       HT       0.417000       1.00800           0
     17921 TIP3     2669     TIP3     OH2      OT      -0.834000       15.9994           0
     17922 TIP3     2669     TIP3     H1       HT       0.417000       1.00800           0
     17923 TIP3     2669     TIP3     H2       HT       0.417000       1.00800           0
     17924 TIP3     2670     TIP3     OH2      OT      -0.834000       15.9994           0
     17925 TIP3     2670     TIP3     H1       HT       0.417000       1.00800           0
     17926 TIP3     2670     TIP3     H2       HT       0.417000       1.00800           0
     17927 TIP3     2671     TIP3     OH2      OT      -0.834000       15.9994           0
     17928 TIP3     2671     TIP3     H1       HT       0.417000       1.00800           0
     17929 TIP3     2671     TIP3     H2       HT       0.417000       1.00800           0
     17930 TIP3     2672     TIP3     OH2      OT      -0.834000       15.9994           0
     17931 TIP3     2672     TIP3     H1       HT       0.417000       1.00800           0
     17932 TIP3     2672     TIP3     H2       HT       0.417000       1.00800           0
     17933 TIP3     2673     TIP3     OH2      OT      -0.834000       15.9994           0
     17934 TIP3     2673     TIP3     H1       HT       0.417000       1.00800           0
     17935 TIP3     2673     TIP3     H2       HT       0.417000       1.00800           0
     17936 TIP3     2674     TIP3     OH2      OT      -0.834000       15.9994           0
     17937 TIP3     2674     TIP3     H1       HT       0.417000       1.00800           0
     17938 TIP3     2674     TIP3     H2       HT       0.417000       1.00800           0
     17939 TIP3     2675     TIP3     OH2      OT      -0.834000       15.9994           0
     17940 TIP3     2675     TIP3     H1       HT       0.417000       1.00800           0
     17941 TIP3     2675     TIP3     H2       HT       0.417000       1.00800           0
     17942 TIP3     2676     TIP3     OH2      OT      -0.834000       15.9994           0
     17943 TIP3     2676     TIP3     H1       HT       0.417000       1.00800           0
     17944 TIP3     2676     TIP3     H2       HT       0.417000       1.00800           0
     17945 TIP3     2677     TIP3     OH2      OT      -0.834000       15.9994           0
     17946 TIP3     2677     TIP3     H1       HT       0.417000       1.00800           0
     17947 TIP3     2677     TIP3     H2       HT       0.417000       1.00800           0
     17948 TIP3     2678     TIP3     OH2      OT      -0.834000       15.9994           0
     17949 TIP3     2678     TIP3     H1       HT       0.417000       1.00800           0
     17950 TIP3     2678     TIP3     H2       HT       0.417000       1.00800           0
     17951 TIP3     2679     TIP3     OH2      OT      -0.834000       15.9994           0
     17952 TIP3     2679     TIP3     H1       HT       0.417000       1.00800           0
     17953 TIP3     2679     TIP3     H2       HT       0.417000       1.00800           0
     17954 TIP3     2680     TIP3     OH2      OT      -0.834000       15.9994           0
     17955 TIP3     2680     TIP3     H1       HT       0.417000       1.00800           0
     17956 TIP3     2680     TIP3     H2       HT       0.417000       1.00800           0
     17957 TIP3     2681     TIP3     OH2      OT      -0.834000       15.9994           0
     17958 TIP3     2681     TIP3     H1       HT       0.417000       1.00800           0
     17959 TIP3     2681     TIP3     H2       HT       0.417000       1.00800           0
     17960 TIP3     2682     TIP3     OH2      OT      -0.834000       15.9994           0
     17961 TIP3     2682     TIP3     H1       HT       0.417000       1.00800           0
     17962 TIP3     2682     TIP3     H2       HT       0.417000       1.00800           0
     17963 TIP3     2683     TIP3     OH2      OT      -0.834000       15.9994           0
     17964 TIP3     2683     TIP3     H1       HT       0.417000       1.00800           0
     17965 TIP3     2683     TIP3     H2       HT       0.417000       1.00800           0
     17966 TIP3     2684     TIP3     OH2      OT      -0.834000       15.9994           0
     17967 TIP3     2684     TIP3     H1       HT       0.417000       1.00800           0
     17968 TIP3     2684     TIP3     H2       HT       0.417000       1.00800           0
     17969 TIP3     2685     TIP3     OH2      OT      -0.834000       15.9994           0
     17970 TIP3     2685     TIP3     H1       HT       0.417000       1.00800           0
     17971 TIP3     2685     TIP3     H2       HT       0.417000       1.00800           0
     17972 TIP3     2686     TIP3     OH2      OT      -0.834000       15.9994           0
     17973 TIP3     2686     TIP3     H1       HT       0.417000       1.00800           0
     17974 TIP3     2686     TIP3     H2       HT       0.417000       1.00800           0
     17975 TIP3     2687     TIP3     OH2      OT      -0.834000       15.9994           0
     17976 TIP3     2687     TIP3     H1       HT       0.417000       1.00800           0
     17977 TIP3     2687     TIP3     H2       HT       0.417000       1.00800           0
     17978 TIP3     2688     TIP3     OH2      OT      -0.834000       15.9994           0
     17979 TIP3     2688     TIP3     H1       HT       0.417000       1.00800           0
     17980 TIP3     2688     TIP3     H2       HT       0.417000       1.00800           0
     17981 TIP3     2689     TIP3     OH2      OT      -0.834000       15.9994           0
     17982 TIP3     2689     TIP3     H1       HT       0.417000       1.00800           0
     17983 TIP3     2689     TIP3     H2       HT       0.417000       1.00800           0
     17984 TIP3     2690     TIP3     OH2      OT      -0.834000       15.9994           0
     17985 TIP3     2690     TIP3     H1       HT       0.417000       1.00800           0
     17986 TIP3     2690     TIP3     H2       HT       0.417000       1.00800           0
     17987 TIP3     2691     TIP3     OH2      OT      -0.834000       15.9994           0
     17988 TIP3     2691     TIP3     H1       HT       0.417000       1.00800           0
     17989 TIP3     2691     TIP3     H2       HT       0.417000       1.00800           0
     17990 TIP3     2692     TIP3     OH2      OT      -0.834000       15.9994           0
     17991 TIP3     2692     TIP3     H1       HT       0.417000       1.00800           0
     17992 TIP3     2692     TIP3     H2       HT       0.417000       1.00800           0
     17993 TIP3     2693     TIP3     OH2      OT      -0.834000       15.9994           0
     17994 TIP3     2693     TIP3     H1       HT       0.417000       1.00800           0
     17995 TIP3     2693     TIP3     H2       HT       0.417000       1.00800           0
     17996 TIP3     2694     TIP3     OH2      OT      -0.834000       15.9994           0
     17997 TIP3     2694     TIP3     H1       HT       0.417000       1.00800           0
     17998 TIP3     2694     TIP3     H2       HT       0.417000       1.00800           0
     17999 TIP3     2695     TIP3     OH2      OT      -0.834000       15.9994           0
     18000 TIP3     2695     TIP3     H1       HT       0.417000       1.00800           0
     18001 TIP3     2695     TIP3     H2       HT       0.417000       1.00800           0
     18002 TIP3     2696     TIP3     OH2      OT      -0.834000       15.9994           0
     18003 TIP3     2696     TIP3     H1       HT       0.417000       1.00800           0
     18004 TIP3     2696     TIP3     H2       HT       0.417000       1.00800           0
     18005 TIP3     2697     TIP3     OH2      OT      -0.834000       15.9994           0
     18006 TIP3     2697     TIP3     H1       HT       0.417000       1.00800           0
     18007 TIP3     2697     TIP3     H2       HT       0.417000       1.00800           0
     18008 TIP3     2698     TIP3     OH2      OT      -0.834000       15.9994           0
     18009 TIP3     2698     TIP3     H1       HT       0.417000       1.00800           0
     18010 TIP3     2698     TIP3     H2       HT       0.417000       1.00800           0
     18011 TIP3     2699     TIP3     OH2      OT      -0.834000       15.9994           0
     18012 TIP3     2699     TIP3     H1       HT       0.417000       1.00800           0
     18013 TIP3     2699     TIP3     H2       HT       0.417000       1.00800           0
     18014 TIP3     2700     TIP3     OH2      OT      -0.834000       15.9994           0
     18015 TIP3     2700     TIP3     H1       HT       0.417000       1.00800           0
     18016 TIP3     2700     TIP3     H2       HT       0.417000       1.00800           0
     18017 TIP3     2701     TIP3     OH2      OT      -0.834000       15.9994           0
     18018 TIP3     2701     TIP3     H1       HT       0.417000       1.00800           0
     18019 TIP3     2701     TIP3     H2       HT       0.417000       1.00800           0
     18020 TIP3     2702     TIP3     OH2      OT      -0.834000       15.9994           0
     18021 TIP3     2702     TIP3     H1       HT       0.417000       1.00800           0
     18022 TIP3     2702     TIP3     H2       HT       0.417000       1.00800           0
     18023 TIP3     2703     TIP3     OH2      OT      -0.834000       15.9994           0
     18024 TIP3     2703     TIP3     H1       HT       0.417000       1.00800           0
     18025 TIP3     2703     TIP3     H2       HT       0.417000       1.00800           0
     18026 TIP3     2704     TIP3     OH2      OT      -0.834000       15.9994           0
     18027 TIP3     2704     TIP3     H1       HT       0.417000       1.00800           0
     18028 TIP3     2704     TIP3     H2       HT       0.417000       1.00800           0
     18029 TIP3     2705     TIP3     OH2      OT      -0.834000       15.9994           0
     18030 TIP3     2705     TIP3     H1       HT       0.417000       1.00800           0
     18031 TIP3     2705     TIP3     H2       HT       0.417000       1.00800           0
     18032 TIP3     2706     TIP3     OH2      OT      -0.834000       15.9994           0
     18033 TIP3     2706     TIP3     H1       HT       0.417000       1.00800           0
     18034 TIP3     2706     TIP3     H2       HT       0.417000       1.00800           0
     18035 TIP3     2707     TIP3     OH2      OT      -0.834000       15.9994           0
     18036 TIP3     2707     TIP3     H1       HT       0.417000       1.00800           0
     18037 TIP3     2707     TIP3     H2       HT       0.417000       1.00800           0
     18038 TIP3     2708     TIP3     OH2      OT      -0.834000       15.9994           0
     18039 TIP3     2708     TIP3     H1       HT       0.417000       1.00800           0
     18040 TIP3     2708     TIP3     H2       HT       0.417000       1.00800           0
     18041 TIP3     2709     TIP3     OH2      OT      -0.834000       15.9994           0
     18042 TIP3     2709     TIP3     H1       HT       0.417000       1.00800           0
     18043 TIP3     2709     TIP3     H2       HT       0.417000       1.00800           0
     18044 TIP3     2710     TIP3     OH2      OT      -0.834000       15.9994           0
     18045 TIP3     2710     TIP3     H1       HT       0.417000       1.00800           0
     18046 TIP3     2710     TIP3     H2       HT       0.417000       1.00800           0
     18047 TIP3     2711     TIP3     OH2      OT      -0.834000       15.9994           0
     18048 TIP3     2711     TIP3     H1       HT       0.417000       1.00800           0
     18049 TIP3     2711     TIP3     H2       HT       0.417000       1.00800           0
     18050 TIP3     2712     TIP3     OH2      OT      -0.834000       15.9994           0
     18051 TIP3     2712     TIP3     H1       HT       0.417000       1.00800           0
     18052 TIP3     2712     TIP3     H2       HT       0.417000       1.00800           0
     18053 TIP3     2713     TIP3     OH2      OT      -0.834000       15.9994           0
     18054 TIP3     2713     TIP3     H1       HT       0.417000       1.00800           0
     18055 TIP3     2713     TIP3     H2       HT       0.417000       1.00800           0
     18056 TIP3     2714     TIP3     OH2      OT      -0.834000       15.9994           0
     18057 TIP3     2714     TIP3     H1       HT       0.417000       1.00800           0
     18058 TIP3     2714     TIP3     H2       HT       0.417000       1.00800           0
     18059 TIP3     2715     TIP3     OH2      OT      -0.834000       15.9994           0
     18060 TIP3     2715     TIP3     H1       HT       0.417000       1.00800           0
     18061 TIP3     2715     TIP3     H2       HT       0.417000       1.00800           0
     18062 TIP3     2716     TIP3     OH2      OT      -0.834000       15.9994           0
     18063 TIP3     2716     TIP3     H1       HT       0.417000       1.00800           0
     18064 TIP3     2716     TIP3     H2       HT       0.417000       1.00800           0
     18065 TIP3     2717     TIP3     OH2      OT      -0.834000       15.9994           0
     18066 TIP3     2717     TIP3     H1       HT       0.417000       1.00800           0
     18067 TIP3     2717     TIP3     H2       HT       0.417000       1.00800           0
     18068 TIP3     2718     TIP3     OH2      OT      -0.834000       15.9994           0
     18069 TIP3     2718     TIP3     H1       HT       0.417000       1.00800           0
     18070 TIP3     2718     TIP3     H2       HT       0.417000       1.00800           0
     18071 TIP3     2719     TIP3     OH2      OT      -0.834000       15.9994           0
     18072 TIP3     2719     TIP3     H1       HT       0.417000       1.00800           0
     18073 TIP3     2719     TIP3     H2       HT       0.417000       1.00800           0
     18074 TIP3     2720     TIP3     OH2      OT      -0.834000       15.9994           0
     18075 TIP3     2720     TIP3     H1       HT       0.417000       1.00800           0
     18076 TIP3     2720     TIP3     H2       HT       0.417000       1.00800           0
     18077 TIP3     2721     TIP3     OH2      OT      -0.834000       15.9994           0
     18078 TIP3     2721     TIP3     H1       HT       0.417000       1.00800           0
     18079 TIP3     2721     TIP3     H2       HT       0.417000       1.00800           0
     18080 TIP3     2722     TIP3     OH2      OT      -0.834000       15.9994           0
     18081 TIP3     2722     TIP3     H1       HT       0.417000       1.00800           0
     18082 TIP3     2722     TIP3     H2       HT       0.417000       1.00800           0
     18083 TIP3     2723     TIP3     OH2      OT      -0.834000       15.9994           0
     18084 TIP3     2723     TIP3     H1       HT       0.417000       1.00800           0
     18085 TIP3     2723     TIP3     H2       HT       0.417000       1.00800           0
     18086 TIP3     2724     TIP3     OH2      OT      -0.834000       15.9994           0
     18087 TIP3     2724     TIP3     H1       HT       0.417000       1.00800           0
     18088 TIP3     2724     TIP3     H2       HT       0.417000       1.00800           0
     18089 TIP3     2725     TIP3     OH2      OT      -0.834000       15.9994           0
     18090 TIP3     2725     TIP3     H1       HT       0.417000       1.00800           0
     18091 TIP3     2725     TIP3     H2       HT       0.417000       1.00800           0
     18092 TIP3     2726     TIP3     OH2      OT      -0.834000       15.9994           0
     18093 TIP3     2726     TIP3     H1       HT       0.417000       1.00800           0
     18094 TIP3     2726     TIP3     H2       HT       0.417000       1.00800           0
     18095 TIP3     2727     TIP3     OH2      OT      -0.834000       15.9994           0
     18096 TIP3     2727     TIP3     H1       HT       0.417000       1.00800           0
     18097 TIP3     2727     TIP3     H2       HT       0.417000       1.00800           0
     18098 TIP3     2728     TIP3     OH2      OT      -0.834000       15.9994           0
     18099 TIP3     2728     TIP3     H1       HT       0.417000       1.00800           0
     18100 TIP3     2728     TIP3     H2       HT       0.417000       1.00800           0
     18101 TIP3     2729     TIP3     OH2      OT      -0.834000       15.9994           0
     18102 TIP3     2729     TIP3     H1       HT       0.417000       1.00800           0
     18103 TIP3     2729     TIP3     H2       HT       0.417000       1.00800           0
     18104 TIP3     2730     TIP3     OH2      OT      -0.834000       15.9994           0
     18105 TIP3     2730     TIP3     H1       HT       0.417000       1.00800           0
     18106 TIP3     2730     TIP3     H2       HT       0.417000       1.00800           0
     18107 TIP3     2731     TIP3     OH2      OT      -0.834000       15.9994           0
     18108 TIP3     2731     TIP3     H1       HT       0.417000       1.00800           0
     18109 TIP3     2731     TIP3     H2       HT       0.417000       1.00800           0
     18110 TIP3     2732     TIP3     OH2      OT      -0.834000       15.9994           0
     18111 TIP3     2732     TIP3     H1       HT       0.417000       1.00800           0
     18112 TIP3     2732     TIP3     H2       HT       0.417000       1.00800           0
     18113 TIP3     2733     TIP3     OH2      OT      -0.834000       15.9994           0
     18114 TIP3     2733     TIP3     H1       HT       0.417000       1.00800           0
     18115 TIP3     2733     TIP3     H2       HT       0.417000       1.00800           0
     18116 TIP3     2734     TIP3     OH2      OT      -0.834000       15.9994           0
     18117 TIP3     2734     TIP3     H1       HT       0.417000       1.00800           0
     18118 TIP3     2734     TIP3     H2       HT       0.417000       1.00800           0
     18119 TIP3     2735     TIP3     OH2      OT      -0.834000       15.9994           0
     18120 TIP3     2735     TIP3     H1       HT       0.417000       1.00800           0
     18121 TIP3     2735     TIP3     H2       HT       0.417000       1.00800           0
     18122 TIP3     2736     TIP3     OH2      OT      -0.834000       15.9994           0
     18123 TIP3     2736     TIP3     H1       HT       0.417000       1.00800           0
     18124 TIP3     2736     TIP3     H2       HT       0.417000       1.00800           0
     18125 TIP3     2737     TIP3     OH2      OT      -0.834000       15.9994           0
     18126 TIP3     2737     TIP3     H1       HT       0.417000       1.00800           0
     18127 TIP3     2737     TIP3     H2       HT       0.417000       1.00800           0
     18128 TIP3     2738     TIP3     OH2      OT      -0.834000       15.9994           0
     18129 TIP3     2738     TIP3     H1       HT       0.417000       1.00800           0
     18130 TIP3     2738     TIP3     H2       HT       0.417000       1.00800           0
     18131 TIP3     2739     TIP3     OH2      OT      -0.834000       15.9994           0
     18132 TIP3     2739     TIP3     H1       HT       0.417000       1.00800           0
     18133 TIP3     2739     TIP3     H2       HT       0.417000       1.00800           0
     18134 TIP3     2740     TIP3     OH2      OT      -0.834000       15.9994           0
     18135 TIP3     2740     TIP3     H1       HT       0.417000       1.00800           0
     18136 TIP3     2740     TIP3     H2       HT       0.417000       1.00800           0
     18137 TIP3     2741     TIP3     OH2      OT      -0.834000       15.9994           0
     18138 TIP3     2741     TIP3     H1       HT       0.417000       1.00800           0
     18139 TIP3     2741     TIP3     H2       HT       0.417000       1.00800           0
     18140 TIP3     2742     TIP3     OH2      OT      -0.834000       15.9994           0
     18141 TIP3     2742     TIP3     H1       HT       0.417000       1.00800           0
     18142 TIP3     2742     TIP3     H2       HT       0.417000       1.00800           0
     18143 TIP3     2743     TIP3     OH2      OT      -0.834000       15.9994           0
     18144 TIP3     2743     TIP3     H1       HT       0.417000       1.00800           0
     18145 TIP3     2743     TIP3     H2       HT       0.417000       1.00800           0
     18146 TIP3     2744     TIP3     OH2      OT      -0.834000       15.9994           0
     18147 TIP3     2744     TIP3     H1       HT       0.417000       1.00800           0
     18148 TIP3     2744     TIP3     H2       HT       0.417000       1.00800           0
     18149 TIP3     2745     TIP3     OH2      OT      -0.834000       15.9994           0
     18150 TIP3     2745     TIP3     H1       HT       0.417000       1.00800           0
     18151 TIP3     2745     TIP3     H2       HT       0.417000       1.00800           0
     18152 TIP3     2746     TIP3     OH2      OT      -0.834000       15.9994           0
     18153 TIP3     2746     TIP3     H1       HT       0.417000       1.00800           0
     18154 TIP3     2746     TIP3     H2       HT       0.417000       1.00800           0
     18155 TIP3     2747     TIP3     OH2      OT      -0.834000       15.9994           0
     18156 TIP3     2747     TIP3     H1       HT       0.417000       1.00800           0
     18157 TIP3     2747     TIP3     H2       HT       0.417000       1.00800           0
     18158 TIP3     2748     TIP3     OH2      OT      -0.834000       15.9994           0
     18159 TIP3     2748     TIP3     H1       HT       0.417000       1.00800           0
     18160 TIP3     2748     TIP3     H2       HT       0.417000       1.00800           0
     18161 TIP3     2749     TIP3     OH2      OT      -0.834000       15.9994           0
     18162 TIP3     2749     TIP3     H1       HT       0.417000       1.00800           0
     18163 TIP3     2749     TIP3     H2       HT       0.417000       1.00800           0
     18164 TIP3     2750     TIP3     OH2      OT      -0.834000       15.9994           0
     18165 TIP3     2750     TIP3     H1       HT       0.417000       1.00800           0
     18166 TIP3     2750     TIP3     H2       HT       0.417000       1.00800           0
     18167 TIP3     2751     TIP3     OH2      OT      -0.834000       15.9994           0
     18168 TIP3     2751     TIP3     H1       HT       0.417000       1.00800           0
     18169 TIP3     2751     TIP3     H2       HT       0.417000       1.00800           0
     18170 TIP3     2752     TIP3     OH2      OT      -0.834000       15.9994           0
     18171 TIP3     2752     TIP3     H1       HT       0.417000       1.00800           0
     18172 TIP3     2752     TIP3     H2       HT       0.417000       1.00800           0
     18173 TIP3     2753     TIP3     OH2      OT      -0.834000       15.9994           0
     18174 TIP3     2753     TIP3     H1       HT       0.417000       1.00800           0
     18175 TIP3     2753     TIP3     H2       HT       0.417000       1.00800           0
     18176 TIP3     2754     TIP3     OH2      OT      -0.834000       15.9994           0
     18177 TIP3     2754     TIP3     H1       HT       0.417000       1.00800           0
     18178 TIP3     2754     TIP3     H2       HT       0.417000       1.00800           0
     18179 TIP3     2755     TIP3     OH2      OT      -0.834000       15.9994           0
     18180 TIP3     2755     TIP3     H1       HT       0.417000       1.00800           0
     18181 TIP3     2755     TIP3     H2       HT       0.417000       1.00800           0
     18182 TIP3     2756     TIP3     OH2      OT      -0.834000       15.9994           0
     18183 TIP3     2756     TIP3     H1       HT       0.417000       1.00800           0
     18184 TIP3     2756     TIP3     H2       HT       0.417000       1.00800           0
     18185 TIP3     2757     TIP3     OH2      OT      -0.834000       15.9994           0
     18186 TIP3     2757     TIP3     H1       HT       0.417000       1.00800           0
     18187 TIP3     2757     TIP3     H2       HT       0.417000       1.00800           0
     18188 TIP3     2758     TIP3     OH2      OT      -0.834000       15.9994           0
     18189 TIP3     2758     TIP3     H1       HT       0.417000       1.00800           0
     18190 TIP3     2758     TIP3     H2       HT       0.417000       1.00800           0
     18191 TIP3     2759     TIP3     OH2      OT      -0.834000       15.9994           0
     18192 TIP3     2759     TIP3     H1       HT       0.417000       1.00800           0
     18193 TIP3     2759     TIP3     H2       HT       0.417000       1.00800           0
     18194 TIP3     2760     TIP3     OH2      OT      -0.834000       15.9994           0
     18195 TIP3     2760     TIP3     H1       HT       0.417000       1.00800           0
     18196 TIP3     2760     TIP3     H2       HT       0.417000       1.00800           0
     18197 TIP3     2761     TIP3     OH2      OT      -0.834000       15.9994           0
     18198 TIP3     2761     TIP3     H1       HT       0.417000       1.00800           0
     18199 TIP3     2761     TIP3     H2       HT       0.417000       1.00800           0
     18200 TIP3     2762     TIP3     OH2      OT      -0.834000       15.9994           0
     18201 TIP3     2762     TIP3     H1       HT       0.417000       1.00800           0
     18202 TIP3     2762     TIP3     H2       HT       0.417000       1.00800           0
     18203 TIP3     2763     TIP3     OH2      OT      -0.834000       15.9994           0
     18204 TIP3     2763     TIP3     H1       HT       0.417000       1.00800           0
     18205 TIP3     2763     TIP3     H2       HT       0.417000       1.00800           0
     18206 TIP3     2764     TIP3     OH2      OT      -0.834000       15.9994           0
     18207 TIP3     2764     TIP3     H1       HT       0.417000       1.00800           0
     18208 TIP3     2764     TIP3     H2       HT       0.417000       1.00800           0
     18209 TIP3     2765     TIP3     OH2      OT      -0.834000       15.9994           0
     18210 TIP3     2765     TIP3     H1       HT       0.417000       1.00800           0
     18211 TIP3     2765     TIP3     H2       HT       0.417000       1.00800           0
     18212 TIP3     2766     TIP3     OH2      OT      -0.834000       15.9994           0
     18213 TIP3     2766     TIP3     H1       HT       0.417000       1.00800           0
     18214 TIP3     2766     TIP3     H2       HT       0.417000       1.00800           0
     18215 TIP3     2767     TIP3     OH2      OT      -0.834000       15.9994           0
     18216 TIP3     2767     TIP3     H1       HT       0.417000       1.00800           0
     18217 TIP3     2767     TIP3     H2       HT       0.417000       1.00800           0
     18218 TIP3     2768     TIP3     OH2      OT      -0.834000       15.9994           0
     18219 TIP3     2768     TIP3     H1       HT       0.417000       1.00800           0
     18220 TIP3     2768     TIP3     H2       HT       0.417000       1.00800           0
     18221 TIP3     2769     TIP3     OH2      OT      -0.834000       15.9994           0
     18222 TIP3     2769     TIP3     H1       HT       0.417000       1.00800           0
     18223 TIP3     2769     TIP3     H2       HT       0.417000       1.00800           0
     18224 TIP3     2770     TIP3     OH2      OT      -0.834000       15.9994           0
     18225 TIP3     2770     TIP3     H1       HT       0.417000       1.00800           0
     18226 TIP3     2770     TIP3     H2       HT       0.417000       1.00800           0
     18227 TIP3     2771     TIP3     OH2      OT      -0.834000       15.9994           0
     18228 TIP3     2771     TIP3     H1       HT       0.417000       1.00800           0
     18229 TIP3     2771     TIP3     H2       HT       0.417000       1.00800           0
     18230 TIP3     2772     TIP3     OH2      OT      -0.834000       15.9994           0
     18231 TIP3     2772     TIP3     H1       HT       0.417000       1.00800           0
     18232 TIP3     2772     TIP3     H2       HT       0.417000       1.00800           0
     18233 TIP3     2773     TIP3     OH2      OT      -0.834000       15.9994           0
     18234 TIP3     2773     TIP3     H1       HT       0.417000       1.00800           0
     18235 TIP3     2773     TIP3     H2       HT       0.417000       1.00800           0
     18236 TIP3     2774     TIP3     OH2      OT      -0.834000       15.9994           0
     18237 TIP3     2774     TIP3     H1       HT       0.417000       1.00800           0
     18238 TIP3     2774     TIP3     H2       HT       0.417000       1.00800           0
     18239 TIP3     2775     TIP3     OH2      OT      -0.834000       15.9994           0
     18240 TIP3     2775     TIP3     H1       HT       0.417000       1.00800           0
     18241 TIP3     2775     TIP3     H2       HT       0.417000       1.00800           0
     18242 TIP3     2776     TIP3     OH2      OT      -0.834000       15.9994           0
     18243 TIP3     2776     TIP3     H1       HT       0.417000       1.00800           0
     18244 TIP3     2776     TIP3     H2       HT       0.417000       1.00800           0
     18245 TIP3     2777     TIP3     OH2      OT      -0.834000       15.9994           0
     18246 TIP3     2777     TIP3     H1       HT       0.417000       1.00800           0
     18247 TIP3     2777     TIP3     H2       HT       0.417000       1.00800           0
     18248 TIP3     2778     TIP3     OH2      OT      -0.834000       15.9994           0
     18249 TIP3     2778     TIP3     H1       HT       0.417000       1.00800           0
     18250 TIP3     2778     TIP3     H2       HT       0.417000       1.00800           0
     18251 TIP3     2779     TIP3     OH2      OT      -0.834000       15.9994           0
     18252 TIP3     2779     TIP3     H1       HT       0.417000       1.00800           0
     18253 TIP3     2779     TIP3     H2       HT       0.417000       1.00800           0
     18254 TIP3     2780     TIP3     OH2      OT      -0.834000       15.9994           0
     18255 TIP3     2780     TIP3     H1       HT       0.417000       1.00800           0
     18256 TIP3     2780     TIP3     H2       HT       0.417000       1.00800           0
     18257 TIP3     2781     TIP3     OH2      OT      -0.834000       15.9994           0
     18258 TIP3     2781     TIP3     H1       HT       0.417000       1.00800           0
     18259 TIP3     2781     TIP3     H2       HT       0.417000       1.00800           0
     18260 TIP3     2782     TIP3     OH2      OT      -0.834000       15.9994           0
     18261 TIP3     2782     TIP3     H1       HT       0.417000       1.00800           0
     18262 TIP3     2782     TIP3     H2       HT       0.417000       1.00800           0
     18263 TIP3     2783     TIP3     OH2      OT      -0.834000       15.9994           0
     18264 TIP3     2783     TIP3     H1       HT       0.417000       1.00800           0
     18265 TIP3     2783     TIP3     H2       HT       0.417000       1.00800           0
     18266 TIP3     2784     TIP3     OH2      OT      -0.834000       15.9994           0
     18267 TIP3     2784     TIP3     H1       HT       0.417000       1.00800           0
     18268 TIP3     2784     TIP3     H2       HT       0.417000       1.00800           0
     18269 TIP3     2785     TIP3     OH2      OT      -0.834000       15.9994           0
     18270 TIP3     2785     TIP3     H1       HT       0.417000       1.00800           0
     18271 TIP3     2785     TIP3     H2       HT       0.417000       1.00800           0
     18272 TIP3     2786     TIP3     OH2      OT      -0.834000       15.9994           0
     18273 TIP3     2786     TIP3     H1       HT       0.417000       1.00800           0
     18274 TIP3     2786     TIP3     H2       HT       0.417000       1.00800           0
     18275 TIP3     2787     TIP3     OH2      OT      -0.834000       15.9994           0
     18276 TIP3     2787     TIP3     H1       HT       0.417000       1.00800           0
     18277 TIP3     2787     TIP3     H2       HT       0.417000       1.00800           0
     18278 TIP3     2788     TIP3     OH2      OT      -0.834000       15.9994           0
     18279 TIP3     2788     TIP3     H1       HT       0.417000       1.00800           0
     18280 TIP3     2788     TIP3     H2       HT       0.417000       1.00800           0
     18281 TIP3     2789     TIP3     OH2      OT      -0.834000       15.9994           0
     18282 TIP3     2789     TIP3     H1       HT       0.417000       1.00800           0
     18283 TIP3     2789     TIP3     H2       HT       0.417000       1.00800           0
     18284 TIP3     2790     TIP3     OH2      OT      -0.834000       15.9994           0
     18285 TIP3     2790     TIP3     H1       HT       0.417000       1.00800           0
     18286 TIP3     2790     TIP3     H2       HT       0.417000       1.00800           0
     18287 TIP3     2791     TIP3     OH2      OT      -0.834000       15.9994           0
     18288 TIP3     2791     TIP3     H1       HT       0.417000       1.00800           0
     18289 TIP3     2791     TIP3     H2       HT       0.417000       1.00800           0
     18290 TIP3     2792     TIP3     OH2      OT      -0.834000       15.9994           0
     18291 TIP3     2792     TIP3     H1       HT       0.417000       1.00800           0
     18292 TIP3     2792     TIP3     H2       HT       0.417000       1.00800           0
     18293 TIP3     2793     TIP3     OH2      OT      -0.834000       15.9994           0
     18294 TIP3     2793     TIP3     H1       HT       0.417000       1.00800           0
     18295 TIP3     2793     TIP3     H2       HT       0.417000       1.00800           0
     18296 TIP3     2794     TIP3     OH2      OT      -0.834000       15.9994           0
     18297 TIP3     2794     TIP3     H1       HT       0.417000       1.00800           0
     18298 TIP3     2794     TIP3     H2       HT       0.417000       1.00800           0
     18299 TIP3     2795     TIP3     OH2      OT      -0.834000       15.9994           0
     18300 TIP3     2795     TIP3     H1       HT       0.417000       1.00800           0
     18301 TIP3     2795     TIP3     H2       HT       0.417000       1.00800           0
     18302 TIP3     2796     TIP3     OH2      OT      -0.834000       15.9994           0
     18303 TIP3     2796     TIP3     H1       HT       0.417000       1.00800           0
     18304 TIP3     2796     TIP3     H2       HT       0.417000       1.00800           0
     18305 TIP3     2797     TIP3     OH2      OT      -0.834000       15.9994           0
     18306 TIP3     2797     TIP3     H1       HT       0.417000       1.00800           0
     18307 TIP3     2797     TIP3     H2       HT       0.417000       1.00800           0
     18308 TIP3     2798     TIP3     OH2      OT      -0.834000       15.9994           0
     18309 TIP3     2798     TIP3     H1       HT       0.417000       1.00800           0
     18310 TIP3     2798     TIP3     H2       HT       0.417000       1.00800           0
     18311 TIP3     2799     TIP3     OH2      OT      -0.834000       15.9994           0
     18312 TIP3     2799     TIP3     H1       HT       0.417000       1.00800           0
     18313 TIP3     2799     TIP3     H2       HT       0.417000       1.00800           0
     18314 TIP3     2800     TIP3     OH2      OT      -0.834000       15.9994           0
     18315 TIP3     2800     TIP3     H1       HT       0.417000       1.00800           0
     18316 TIP3     2800     TIP3     H2       HT       0.417000       1.00800           0
     18317 TIP3     2801     TIP3     OH2      OT      -0.834000       15.9994           0
     18318 TIP3     2801     TIP3     H1       HT       0.417000       1.00800           0
     18319 TIP3     2801     TIP3     H2       HT       0.417000       1.00800           0
     18320 TIP3     2802     TIP3     OH2      OT      -0.834000       15.9994           0
     18321 TIP3     2802     TIP3     H1       HT       0.417000       1.00800           0
     18322 TIP3     2802     TIP3     H2       HT       0.417000       1.00800           0
     18323 TIP3     2803     TIP3     OH2      OT      -0.834000       15.9994           0
     18324 TIP3     2803     TIP3     H1       HT       0.417000       1.00800           0
     18325 TIP3     2803     TIP3     H2       HT       0.417000       1.00800           0
     18326 TIP3     2804     TIP3     OH2      OT      -0.834000       15.9994           0
     18327 TIP3     2804     TIP3     H1       HT       0.417000       1.00800           0
     18328 TIP3     2804     TIP3     H2       HT       0.417000       1.00800           0
     18329 TIP3     2805     TIP3     OH2      OT      -0.834000       15.9994           0
     18330 TIP3     2805     TIP3     H1       HT       0.417000       1.00800           0
     18331 TIP3     2805     TIP3     H2       HT       0.417000       1.00800           0
     18332 TIP3     2806     TIP3     OH2      OT      -0.834000       15.9994           0
     18333 TIP3     2806     TIP3     H1       HT       0.417000       1.00800           0
     18334 TIP3     2806     TIP3     H2       HT       0.417000       1.00800           0
     18335 TIP3     2807     TIP3     OH2      OT      -0.834000       15.9994           0
     18336 TIP3     2807     TIP3     H1       HT       0.417000       1.00800           0
     18337 TIP3     2807     TIP3     H2       HT       0.417000       1.00800           0
     18338 TIP3     2808     TIP3     OH2      OT      -0.834000       15.9994           0
     18339 TIP3     2808     TIP3     H1       HT       0.417000       1.00800           0
     18340 TIP3     2808     TIP3     H2       HT       0.417000       1.00800           0
     18341 TIP3     2809     TIP3     OH2      OT      -0.834000       15.9994           0
     18342 TIP3     2809     TIP3     H1       HT       0.417000       1.00800           0
     18343 TIP3     2809     TIP3     H2       HT       0.417000       1.00800           0
     18344 TIP3     2810     TIP3     OH2      OT      -0.834000       15.9994           0
     18345 TIP3     2810     TIP3     H1       HT       0.417000       1.00800           0
     18346 TIP3     2810     TIP3     H2       HT       0.417000       1.00800           0
     18347 TIP3     2811     TIP3     OH2      OT      -0.834000       15.9994           0
     18348 TIP3     2811     TIP3     H1       HT       0.417000       1.00800           0
     18349 TIP3     2811     TIP3     H2       HT       0.417000       1.00800           0
     18350 TIP3     2812     TIP3     OH2      OT      -0.834000       15.9994           0
     18351 TIP3     2812     TIP3     H1       HT       0.417000       1.00800           0
     18352 TIP3     2812     TIP3     H2       HT       0.417000       1.00800           0
     18353 TIP3     2813     TIP3     OH2      OT      -0.834000       15.9994           0
     18354 TIP3     2813     TIP3     H1       HT       0.417000       1.00800           0
     18355 TIP3     2813     TIP3     H2       HT       0.417000       1.00800           0
     18356 TIP3     2814     TIP3     OH2      OT      -0.834000       15.9994           0
     18357 TIP3     2814     TIP3     H1       HT       0.417000       1.00800           0
     18358 TIP3     2814     TIP3     H2       HT       0.417000       1.00800           0
     18359 TIP3     2815     TIP3     OH2      OT      -0.834000       15.9994           0
     18360 TIP3     2815     TIP3     H1       HT       0.417000       1.00800           0
     18361 TIP3     2815     TIP3     H2       HT       0.417000       1.00800           0
     18362 TIP3     2816     TIP3     OH2      OT      -0.834000       15.9994           0
     18363 TIP3     2816     TIP3     H1       HT       0.417000       1.00800           0
     18364 TIP3     2816     TIP3     H2       HT       0.417000       1.00800           0
     18365 TIP3     2817     TIP3     OH2      OT      -0.834000       15.9994           0
     18366 TIP3     2817     TIP3     H1       HT       0.417000       1.00800           0
     18367 TIP3     2817     TIP3     H2       HT       0.417000       1.00800           0
     18368 TIP3     2818     TIP3     OH2      OT      -0.834000       15.9994           0
     18369 TIP3     2818     TIP3     H1       HT       0.417000       1.00800           0
     18370 TIP3     2818     TIP3     H2       HT       0.417000       1.00800           0
     18371 TIP3     2819     TIP3     OH2      OT      -0.834000       15.9994           0
     18372 TIP3     2819     TIP3     H1       HT       0.417000       1.00800           0
     18373 TIP3     2819     TIP3     H2       HT       0.417000       1.00800           0
     18374 TIP3     2820     TIP3     OH2      OT      -0.834000       15.9994           0
     18375 TIP3     2820     TIP3     H1       HT       0.417000       1.00800           0
     18376 TIP3     2820     TIP3     H2       HT       0.417000       1.00800           0
     18377 TIP3     2821     TIP3     OH2      OT      -0.834000       15.9994           0
     18378 TIP3     2821     TIP3     H1       HT       0.417000       1.00800           0
     18379 TIP3     2821     TIP3     H2       HT       0.417000       1.00800           0
     18380 TIP3     2822     TIP3     OH2      OT      -0.834000       15.9994           0
     18381 TIP3     2822     TIP3     H1       HT       0.417000       1.00800           0
     18382 TIP3     2822     TIP3     H2       HT       0.417000       1.00800           0
     18383 TIP3     2823     TIP3     OH2      OT      -0.834000       15.9994           0
     18384 TIP3     2823     TIP3     H1       HT       0.417000       1.00800           0
     18385 TIP3     2823     TIP3     H2       HT       0.417000       1.00800           0
     18386 TIP3     2824     TIP3     OH2      OT      -0.834000       15.9994           0
     18387 TIP3     2824     TIP3     H1       HT       0.417000       1.00800           0
     18388 TIP3     2824     TIP3     H2       HT       0.417000       1.00800           0
     18389 TIP3     2825     TIP3     OH2      OT      -0.834000       15.9994           0
     18390 TIP3     2825     TIP3     H1       HT       0.417000       1.00800           0
     18391 TIP3     2825     TIP3     H2       HT       0.417000       1.00800           0
     18392 TIP3     2826     TIP3     OH2      OT      -0.834000       15.9994           0
     18393 TIP3     2826     TIP3     H1       HT       0.417000       1.00800           0
     18394 TIP3     2826     TIP3     H2       HT       0.417000       1.00800           0
     18395 TIP3     2827     TIP3     OH2      OT      -0.834000       15.9994           0
     18396 TIP3     2827     TIP3     H1       HT       0.417000       1.00800           0
     18397 TIP3     2827     TIP3     H2       HT       0.417000       1.00800           0
     18398 TIP3     2828     TIP3     OH2      OT      -0.834000       15.9994           0
     18399 TIP3     2828     TIP3     H1       HT       0.417000       1.00800           0
     18400 TIP3     2828     TIP3     H2       HT       0.417000       1.00800           0
     18401 TIP3     2829     TIP3     OH2      OT      -0.834000       15.9994           0
     18402 TIP3     2829     TIP3     H1       HT       0.417000       1.00800           0
     18403 TIP3     2829     TIP3     H2       HT       0.417000       1.00800           0
     18404 TIP3     2830     TIP3     OH2      OT      -0.834000       15.9994           0
     18405 TIP3     2830     TIP3     H1       HT       0.417000       1.00800           0
     18406 TIP3     2830     TIP3     H2       HT       0.417000       1.00800           0
     18407 TIP3     2831     TIP3     OH2      OT      -0.834000       15.9994           0
     18408 TIP3     2831     TIP3     H1       HT       0.417000       1.00800           0
     18409 TIP3     2831     TIP3     H2       HT       0.417000       1.00800           0
     18410 TIP3     2832     TIP3     OH2      OT      -0.834000       15.9994           0
     18411 TIP3     2832     TIP3     H1       HT       0.417000       1.00800           0
     18412 TIP3     2832     TIP3     H2       HT       0.417000       1.00800           0
     18413 TIP3     2833     TIP3     OH2      OT      -0.834000       15.9994           0
     18414 TIP3     2833     TIP3     H1       HT       0.417000       1.00800           0
     18415 TIP3     2833     TIP3     H2       HT       0.417000       1.00800           0
     18416 TIP3     2834     TIP3     OH2      OT      -0.834000       15.9994           0
     18417 TIP3     2834     TIP3     H1       HT       0.417000       1.00800           0
     18418 TIP3     2834     TIP3     H2       HT       0.417000       1.00800           0
     18419 TIP3     2835     TIP3     OH2      OT      -0.834000       15.9994           0
     18420 TIP3     2835     TIP3     H1       HT       0.417000       1.00800           0
     18421 TIP3     2835     TIP3     H2       HT       0.417000       1.00800           0
     18422 TIP3     2836     TIP3     OH2      OT      -0.834000       15.9994           0
     18423 TIP3     2836     TIP3     H1       HT       0.417000       1.00800           0
     18424 TIP3     2836     TIP3     H2       HT       0.417000       1.00800           0
     18425 TIP3     2837     TIP3     OH2      OT      -0.834000       15.9994           0
     18426 TIP3     2837     TIP3     H1       HT       0.417000       1.00800           0
     18427 TIP3     2837     TIP3     H2       HT       0.417000       1.00800           0
     18428 TIP3     2838     TIP3     OH2      OT      -0.834000       15.9994           0
     18429 TIP3     2838     TIP3     H1       HT       0.417000       1.00800           0
     18430 TIP3     2838     TIP3     H2       HT       0.417000       1.00800           0
     18431 TIP3     2839     TIP3     OH2      OT      -0.834000       15.9994           0
     18432 TIP3     2839     TIP3     H1       HT       0.417000       1.00800           0
     18433 TIP3     2839     TIP3     H2       HT       0.417000       1.00800           0
     18434 TIP3     2840     TIP3     OH2      OT      -0.834000       15.9994           0
     18435 TIP3     2840     TIP3     H1       HT       0.417000       1.00800           0
     18436 TIP3     2840     TIP3     H2       HT       0.417000       1.00800           0
     18437 TIP3     2841     TIP3     OH2      OT      -0.834000       15.9994           0
     18438 TIP3     2841     TIP3     H1       HT       0.417000       1.00800           0
     18439 TIP3     2841     TIP3     H2       HT       0.417000       1.00800           0
     18440 TIP3     2842     TIP3     OH2      OT      -0.834000       15.9994           0
     18441 TIP3     2842     TIP3     H1       HT       0.417000       1.00800           0
     18442 TIP3     2842     TIP3     H2       HT       0.417000       1.00800           0
     18443 TIP3     2843     TIP3     OH2      OT      -0.834000       15.9994           0
     18444 TIP3     2843     TIP3     H1       HT       0.417000       1.00800           0
     18445 TIP3     2843     TIP3     H2       HT       0.417000       1.00800           0
     18446 TIP3     2844     TIP3     OH2      OT      -0.834000       15.9994           0
     18447 TIP3     2844     TIP3     H1       HT       0.417000       1.00800           0
     18448 TIP3     2844     TIP3     H2       HT       0.417000       1.00800           0
     18449 TIP3     2845     TIP3     OH2      OT      -0.834000       15.9994           0
     18450 TIP3     2845     TIP3     H1       HT       0.417000       1.00800           0
     18451 TIP3     2845     TIP3     H2       HT       0.417000       1.00800           0
     18452 TIP3     2846     TIP3     OH2      OT      -0.834000       15.9994           0
     18453 TIP3     2846     TIP3     H1       HT       0.417000       1.00800           0
     18454 TIP3     2846     TIP3     H2       HT       0.417000       1.00800           0
     18455 TIP3     2847     TIP3     OH2      OT      -0.834000       15.9994           0
     18456 TIP3     2847     TIP3     H1       HT       0.417000       1.00800           0
     18457 TIP3     2847     TIP3     H2       HT       0.417000       1.00800           0
     18458 TIP3     2848     TIP3     OH2      OT      -0.834000       15.9994           0
     18459 TIP3     2848     TIP3     H1       HT       0.417000       1.00800           0
     18460 TIP3     2848     TIP3     H2       HT       0.417000       1.00800           0
     18461 TIP3     2849     TIP3     OH2      OT      -0.834000       15.9994           0
     18462 TIP3     2849     TIP3     H1       HT       0.417000       1.00800           0
     18463 TIP3     2849     TIP3     H2       HT       0.417000       1.00800           0
     18464 TIP3     2850     TIP3     OH2      OT      -0.834000       15.9994           0
     18465 TIP3     2850     TIP3     H1       HT       0.417000       1.00800           0
     18466 TIP3     2850     TIP3     H2       HT       0.417000       1.00800           0
     18467 TIP3     2851     TIP3     OH2      OT      -0.834000       15.9994           0
     18468 TIP3     2851     TIP3     H1       HT       0.417000       1.00800           0
     18469 TIP3     2851     TIP3     H2       HT       0.417000       1.00800           0
     18470 TIP3     2852     TIP3     OH2      OT      -0.834000       15.9994           0
     18471 TIP3     2852     TIP3     H1       HT       0.417000       1.00800           0
     18472 TIP3     2852     TIP3     H2       HT       0.417000       1.00800           0
     18473 TIP3     2853     TIP3     OH2      OT      -0.834000       15.9994           0
     18474 TIP3     2853     TIP3     H1       HT       0.417000       1.00800           0
     18475 TIP3     2853     TIP3     H2       HT       0.417000       1.00800           0
     18476 TIP3     2854     TIP3     OH2      OT      -0.834000       15.9994           0
     18477 TIP3     2854     TIP3     H1       HT       0.417000       1.00800           0
     18478 TIP3     2854     TIP3     H2       HT       0.417000       1.00800           0
     18479 TIP3     2855     TIP3     OH2      OT      -0.834000       15.9994           0
     18480 TIP3     2855     TIP3     H1       HT       0.417000       1.00800           0
     18481 TIP3     2855     TIP3     H2       HT       0.417000       1.00800           0
     18482 TIP3     2856     TIP3     OH2      OT      -0.834000       15.9994           0
     18483 TIP3     2856     TIP3     H1       HT       0.417000       1.00800           0
     18484 TIP3     2856     TIP3     H2       HT       0.417000       1.00800           0
     18485 TIP3     2857     TIP3     OH2      OT      -0.834000       15.9994           0
     18486 TIP3     2857     TIP3     H1       HT       0.417000       1.00800           0
     18487 TIP3     2857     TIP3     H2       HT       0.417000       1.00800           0
     18488 TIP3     2858     TIP3     OH2      OT      -0.834000       15.9994           0
     18489 TIP3     2858     TIP3     H1       HT       0.417000       1.00800           0
     18490 TIP3     2858     TIP3     H2       HT       0.417000       1.00800           0
     18491 TIP3     2859     TIP3     OH2      OT      -0.834000       15.9994           0
     18492 TIP3     2859     TIP3     H1       HT       0.417000       1.00800           0
     18493 TIP3     2859     TIP3     H2       HT       0.417000       1.00800           0
     18494 TIP3     2860     TIP3     OH2      OT      -0.834000       15.9994           0
     18495 TIP3     2860     TIP3     H1       HT       0.417000       1.00800           0
     18496 TIP3     2860     TIP3     H2       HT       0.417000       1.00800           0
     18497 TIP3     2861     TIP3     OH2      OT      -0.834000       15.9994           0
     18498 TIP3     2861     TIP3     H1       HT       0.417000       1.00800           0
     18499 TIP3     2861     TIP3     H2       HT       0.417000       1.00800           0
     18500 TIP3     2862     TIP3     OH2      OT      -0.834000       15.9994           0
     18501 TIP3     2862     TIP3     H1       HT       0.417000       1.00800           0
     18502 TIP3     2862     TIP3     H2       HT       0.417000       1.00800           0
     18503 TIP3     2863     TIP3     OH2      OT      -0.834000       15.9994           0
     18504 TIP3     2863     TIP3     H1       HT       0.417000       1.00800           0
     18505 TIP3     2863     TIP3     H2       HT       0.417000       1.00800           0
     18506 TIP3     2864     TIP3     OH2      OT      -0.834000       15.9994           0
     18507 TIP3     2864     TIP3     H1       HT       0.417000       1.00800           0
     18508 TIP3     2864     TIP3     H2       HT       0.417000       1.00800           0
     18509 TIP3     2865     TIP3     OH2      OT      -0.834000       15.9994           0
     18510 TIP3     2865     TIP3     H1       HT       0.417000       1.00800           0
     18511 TIP3     2865     TIP3     H2       HT       0.417000       1.00800           0
     18512 TIP3     2866     TIP3     OH2      OT      -0.834000       15.9994           0
     18513 TIP3     2866     TIP3     H1       HT       0.417000       1.00800           0
     18514 TIP3     2866     TIP3     H2       HT       0.417000       1.00800           0
     18515 TIP3     2867     TIP3     OH2      OT      -0.834000       15.9994           0
     18516 TIP3     2867     TIP3     H1       HT       0.417000       1.00800           0
     18517 TIP3     2867     TIP3     H2       HT       0.417000       1.00800           0
     18518 TIP3     2868     TIP3     OH2      OT      -0.834000       15.9994           0
     18519 TIP3     2868     TIP3     H1       HT       0.417000       1.00800           0
     18520 TIP3     2868     TIP3     H2       HT       0.417000       1.00800           0
     18521 TIP3     2869     TIP3     OH2      OT      -0.834000       15.9994           0
     18522 TIP3     2869     TIP3     H1       HT       0.417000       1.00800           0
     18523 TIP3     2869     TIP3     H2       HT       0.417000       1.00800           0
     18524 TIP3     2870     TIP3     OH2      OT      -0.834000       15.9994           0
     18525 TIP3     2870     TIP3     H1       HT       0.417000       1.00800           0
     18526 TIP3     2870     TIP3     H2       HT       0.417000       1.00800           0
     18527 TIP3     2871     TIP3     OH2      OT      -0.834000       15.9994           0
     18528 TIP3     2871     TIP3     H1       HT       0.417000       1.00800           0
     18529 TIP3     2871     TIP3     H2       HT       0.417000       1.00800           0
     18530 TIP3     2872     TIP3     OH2      OT      -0.834000       15.9994           0
     18531 TIP3     2872     TIP3     H1       HT       0.417000       1.00800           0
     18532 TIP3     2872     TIP3     H2       HT       0.417000       1.00800           0
     18533 TIP3     2873     TIP3     OH2      OT      -0.834000       15.9994           0
     18534 TIP3     2873     TIP3     H1       HT       0.417000       1.00800           0
     18535 TIP3     2873     TIP3     H2       HT       0.417000       1.00800           0
     18536 TIP3     2874     TIP3     OH2      OT      -0.834000       15.9994           0
     18537 TIP3     2874     TIP3     H1       HT       0.417000       1.00800           0
     18538 TIP3     2874     TIP3     H2       HT       0.417000       1.00800           0
     18539 TIP3     2875     TIP3     OH2      OT      -0.834000       15.9994           0
     18540 TIP3     2875     TIP3     H1       HT       0.417000       1.00800           0
     18541 TIP3     2875     TIP3     H2       HT       0.417000       1.00800           0
     18542 TIP3     2876     TIP3     OH2      OT      -0.834000       15.9994           0
     18543 TIP3     2876     TIP3     H1       HT       0.417000       1.00800           0
     18544 TIP3     2876     TIP3     H2       HT       0.417000       1.00800           0
     18545 TIP3     2877     TIP3     OH2      OT      -0.834000       15.9994           0
     18546 TIP3     2877     TIP3     H1       HT       0.417000       1.00800           0
     18547 TIP3     2877     TIP3     H2       HT       0.417000       1.00800           0
     18548 TIP3     2878     TIP3     OH2      OT      -0.834000       15.9994           0
     18549 TIP3     2878     TIP3     H1       HT       0.417000       1.00800           0
     18550 TIP3     2878     TIP3     H2       HT       0.417000       1.00800           0
     18551 TIP3     2879     TIP3     OH2      OT      -0.834000       15.9994           0
     18552 TIP3     2879     TIP3     H1       HT       0.417000       1.00800           0
     18553 TIP3     2879     TIP3     H2       HT       0.417000       1.00800           0
     18554 TIP3     2880     TIP3     OH2      OT      -0.834000       15.9994           0
     18555 TIP3     2880     TIP3     H1       HT       0.417000       1.00800           0
     18556 TIP3     2880     TIP3     H2       HT       0.417000       1.00800           0
     18557 TIP3     2881     TIP3     OH2      OT      -0.834000       15.9994           0
     18558 TIP3     2881     TIP3     H1       HT       0.417000       1.00800           0
     18559 TIP3     2881     TIP3     H2       HT       0.417000       1.00800           0
     18560 TIP3     2882     TIP3     OH2      OT      -0.834000       15.9994           0
     18561 TIP3     2882     TIP3     H1       HT       0.417000       1.00800           0
     18562 TIP3     2882     TIP3     H2       HT       0.417000       1.00800           0
     18563 TIP3     2883     TIP3     OH2      OT      -0.834000       15.9994           0
     18564 TIP3     2883     TIP3     H1       HT       0.417000       1.00800           0
     18565 TIP3     2883     TIP3     H2       HT       0.417000       1.00800           0
     18566 TIP3     2884     TIP3     OH2      OT      -0.834000       15.9994           0
     18567 TIP3     2884     TIP3     H1       HT       0.417000       1.00800           0
     18568 TIP3     2884     TIP3     H2       HT       0.417000       1.00800           0
     18569 TIP3     2885     TIP3     OH2      OT      -0.834000       15.9994           0
     18570 TIP3     2885     TIP3     H1       HT       0.417000       1.00800           0
     18571 TIP3     2885     TIP3     H2       HT       0.417000       1.00800           0
     18572 TIP3     2886     TIP3     OH2      OT      -0.834000       15.9994           0
     18573 TIP3     2886     TIP3     H1       HT       0.417000       1.00800           0
     18574 TIP3     2886     TIP3     H2       HT       0.417000       1.00800           0
     18575 TIP3     2887     TIP3     OH2      OT      -0.834000       15.9994           0
     18576 TIP3     2887     TIP3     H1       HT       0.417000       1.00800           0
     18577 TIP3     2887     TIP3     H2       HT       0.417000       1.00800           0
     18578 TIP3     2888     TIP3     OH2      OT      -0.834000       15.9994           0
     18579 TIP3     2888     TIP3     H1       HT       0.417000       1.00800           0
     18580 TIP3     2888     TIP3     H2       HT       0.417000       1.00800           0
     18581 TIP3     2889     TIP3     OH2      OT      -0.834000       15.9994           0
     18582 TIP3     2889     TIP3     H1       HT       0.417000       1.00800           0
     18583 TIP3     2889     TIP3     H2       HT       0.417000       1.00800           0
     18584 TIP3     2890     TIP3     OH2      OT      -0.834000       15.9994           0
     18585 TIP3     2890     TIP3     H1       HT       0.417000       1.00800           0
     18586 TIP3     2890     TIP3     H2       HT       0.417000       1.00800           0
     18587 TIP3     2891     TIP3     OH2      OT      -0.834000       15.9994           0
     18588 TIP3     2891     TIP3     H1       HT       0.417000       1.00800           0
     18589 TIP3     2891     TIP3     H2       HT       0.417000       1.00800           0
     18590 TIP3     2892     TIP3     OH2      OT      -0.834000       15.9994           0
     18591 TIP3     2892     TIP3     H1       HT       0.417000       1.00800           0
     18592 TIP3     2892     TIP3     H2       HT       0.417000       1.00800           0
     18593 TIP3     2893     TIP3     OH2      OT      -0.834000       15.9994           0
     18594 TIP3     2893     TIP3     H1       HT       0.417000       1.00800           0
     18595 TIP3     2893     TIP3     H2       HT       0.417000       1.00800           0
     18596 TIP3     2894     TIP3     OH2      OT      -0.834000       15.9994           0
     18597 TIP3     2894     TIP3     H1       HT       0.417000       1.00800           0
     18598 TIP3     2894     TIP3     H2       HT       0.417000       1.00800           0
     18599 TIP3     2895     TIP3     OH2      OT      -0.834000       15.9994           0
     18600 TIP3     2895     TIP3     H1       HT       0.417000       1.00800           0
     18601 TIP3     2895     TIP3     H2       HT       0.417000       1.00800           0
     18602 TIP3     2896     TIP3     OH2      OT      -0.834000       15.9994           0
     18603 TIP3     2896     TIP3     H1       HT       0.417000       1.00800           0
     18604 TIP3     2896     TIP3     H2       HT       0.417000       1.00800           0
     18605 TIP3     2897     TIP3     OH2      OT      -0.834000       15.9994           0
     18606 TIP3     2897     TIP3     H1       HT       0.417000       1.00800           0
     18607 TIP3     2897     TIP3     H2       HT       0.417000       1.00800           0
     18608 TIP3     2898     TIP3     OH2      OT      -0.834000       15.9994           0
     18609 TIP3     2898     TIP3     H1       HT       0.417000       1.00800           0
     18610 TIP3     2898     TIP3     H2       HT       0.417000       1.00800           0
     18611 TIP3     2899     TIP3     OH2      OT      -0.834000       15.9994           0
     18612 TIP3     2899     TIP3     H1       HT       0.417000       1.00800           0
     18613 TIP3     2899     TIP3     H2       HT       0.417000       1.00800           0
     18614 TIP3     2900     TIP3     OH2      OT      -0.834000       15.9994           0
     18615 TIP3     2900     TIP3     H1       HT       0.417000       1.00800           0
     18616 TIP3     2900     TIP3     H2       HT       0.417000       1.00800           0
     18617 TIP3     2901     TIP3     OH2      OT      -0.834000       15.9994           0
     18618 TIP3     2901     TIP3     H1       HT       0.417000       1.00800           0
     18619 TIP3     2901     TIP3     H2       HT       0.417000       1.00800           0
     18620 TIP3     2902     TIP3     OH2      OT      -0.834000       15.9994           0
     18621 TIP3     2902     TIP3     H1       HT       0.417000       1.00800           0
     18622 TIP3     2902     TIP3     H2       HT       0.417000       1.00800           0
     18623 TIP3     2903     TIP3     OH2      OT      -0.834000       15.9994           0
     18624 TIP3     2903     TIP3     H1       HT       0.417000       1.00800           0
     18625 TIP3     2903     TIP3     H2       HT       0.417000       1.00800           0
     18626 TIP3     2904     TIP3     OH2      OT      -0.834000       15.9994           0
     18627 TIP3     2904     TIP3     H1       HT       0.417000       1.00800           0
     18628 TIP3     2904     TIP3     H2       HT       0.417000       1.00800           0
     18629 TIP3     2905     TIP3     OH2      OT      -0.834000       15.9994           0
     18630 TIP3     2905     TIP3     H1       HT       0.417000       1.00800           0
     18631 TIP3     2905     TIP3     H2       HT       0.417000       1.00800           0
     18632 TIP3     2906     TIP3     OH2      OT      -0.834000       15.9994           0
     18633 TIP3     2906     TIP3     H1       HT       0.417000       1.00800           0
     18634 TIP3     2906     TIP3     H2       HT       0.417000       1.00800           0
     18635 TIP3     2907     TIP3     OH2      OT      -0.834000       15.9994           0
     18636 TIP3     2907     TIP3     H1       HT       0.417000       1.00800           0
     18637 TIP3     2907     TIP3     H2       HT       0.417000       1.00800           0
     18638 TIP3     2908     TIP3     OH2      OT      -0.834000       15.9994           0
     18639 TIP3     2908     TIP3     H1       HT       0.417000       1.00800           0
     18640 TIP3     2908     TIP3     H2       HT       0.417000       1.00800           0
     18641 TIP3     2909     TIP3     OH2      OT      -0.834000       15.9994           0
     18642 TIP3     2909     TIP3     H1       HT       0.417000       1.00800           0
     18643 TIP3     2909     TIP3     H2       HT       0.417000       1.00800           0
     18644 TIP3     2910     TIP3     OH2      OT      -0.834000       15.9994           0
     18645 TIP3     2910     TIP3     H1       HT       0.417000       1.00800           0
     18646 TIP3     2910     TIP3     H2       HT       0.417000       1.00800           0
     18647 TIP3     2911     TIP3     OH2      OT      -0.834000       15.9994           0
     18648 TIP3     2911     TIP3     H1       HT       0.417000       1.00800           0
     18649 TIP3     2911     TIP3     H2       HT       0.417000       1.00800           0
     18650 TIP3     2912     TIP3     OH2      OT      -0.834000       15.9994           0
     18651 TIP3     2912     TIP3     H1       HT       0.417000       1.00800           0
     18652 TIP3     2912     TIP3     H2       HT       0.417000       1.00800           0
     18653 TIP3     2913     TIP3     OH2      OT      -0.834000       15.9994           0
     18654 TIP3     2913     TIP3     H1       HT       0.417000       1.00800           0
     18655 TIP3     2913     TIP3     H2       HT       0.417000       1.00800           0
     18656 TIP3     2914     TIP3     OH2      OT      -0.834000       15.9994           0
     18657 TIP3     2914     TIP3     H1       HT       0.417000       1.00800           0
     18658 TIP3     2914     TIP3     H2       HT       0.417000       1.00800           0
     18659 TIP3     2915     TIP3     OH2      OT      -0.834000       15.9994           0
     18660 TIP3     2915     TIP3     H1       HT       0.417000       1.00800           0
     18661 TIP3     2915     TIP3     H2       HT       0.417000       1.00800           0
     18662 TIP3     2916     TIP3     OH2      OT      -0.834000       15.9994           0
     18663 TIP3     2916     TIP3     H1       HT       0.417000       1.00800           0
     18664 TIP3     2916     TIP3     H2       HT       0.417000       1.00800           0
     18665 TIP3     2917     TIP3     OH2      OT      -0.834000       15.9994           0
     18666 TIP3     2917     TIP3     H1       HT       0.417000       1.00800           0
     18667 TIP3     2917     TIP3     H2       HT       0.417000       1.00800           0
     18668 TIP3     2918     TIP3     OH2      OT      -0.834000       15.9994           0
     18669 TIP3     2918     TIP3     H1       HT       0.417000       1.00800           0
     18670 TIP3     2918     TIP3     H2       HT       0.417000       1.00800           0
     18671 TIP3     2919     TIP3     OH2      OT      -0.834000       15.9994           0
     18672 TIP3     2919     TIP3     H1       HT       0.417000       1.00800           0
     18673 TIP3     2919     TIP3     H2       HT       0.417000       1.00800           0
     18674 TIP3     2920     TIP3     OH2      OT      -0.834000       15.9994           0
     18675 TIP3     2920     TIP3     H1       HT       0.417000       1.00800           0
     18676 TIP3     2920     TIP3     H2       HT       0.417000       1.00800           0
     18677 TIP3     2921     TIP3     OH2      OT      -0.834000       15.9994           0
     18678 TIP3     2921     TIP3     H1       HT       0.417000       1.00800           0
     18679 TIP3     2921     TIP3     H2       HT       0.417000       1.00800           0
     18680 TIP3     2922     TIP3     OH2      OT      -0.834000       15.9994           0
     18681 TIP3     2922     TIP3     H1       HT       0.417000       1.00800           0
     18682 TIP3     2922     TIP3     H2       HT       0.417000       1.00800           0
     18683 TIP3     2923     TIP3     OH2      OT      -0.834000       15.9994           0
     18684 TIP3     2923     TIP3     H1       HT       0.417000       1.00800           0
     18685 TIP3     2923     TIP3     H2       HT       0.417000       1.00800           0
     18686 TIP3     2924     TIP3     OH2      OT      -0.834000       15.9994           0
     18687 TIP3     2924     TIP3     H1       HT       0.417000       1.00800           0
     18688 TIP3     2924     TIP3     H2       HT       0.417000       1.00800           0
     18689 TIP3     2925     TIP3     OH2      OT      -0.834000       15.9994           0
     18690 TIP3     2925     TIP3     H1       HT       0.417000       1.00800           0
     18691 TIP3     2925     TIP3     H2       HT       0.417000       1.00800           0
     18692 TIP3     2926     TIP3     OH2      OT      -0.834000       15.9994           0
     18693 TIP3     2926     TIP3     H1       HT       0.417000       1.00800           0
     18694 TIP3     2926     TIP3     H2       HT       0.417000       1.00800           0
     18695 TIP3     2927     TIP3     OH2      OT      -0.834000       15.9994           0
     18696 TIP3     2927     TIP3     H1       HT       0.417000       1.00800           0
     18697 TIP3     2927     TIP3     H2       HT       0.417000       1.00800           0
     18698 TIP3     2928     TIP3     OH2      OT      -0.834000       15.9994           0
     18699 TIP3     2928     TIP3     H1       HT       0.417000       1.00800           0
     18700 TIP3     2928     TIP3     H2       HT       0.417000       1.00800           0
     18701 TIP3     2929     TIP3     OH2      OT      -0.834000       15.9994           0
     18702 TIP3     2929     TIP3     H1       HT       0.417000       1.00800           0
     18703 TIP3     2929     TIP3     H2       HT       0.417000       1.00800           0
     18704 TIP3     2930     TIP3     OH2      OT      -0.834000       15.9994           0
     18705 TIP3     2930     TIP3     H1       HT       0.417000       1.00800           0
     18706 TIP3     2930     TIP3     H2       HT       0.417000       1.00800           0
     18707 TIP3     2931     TIP3     OH2      OT      -0.834000       15.9994           0
     18708 TIP3     2931     TIP3     H1       HT       0.417000       1.00800           0
     18709 TIP3     2931     TIP3     H2       HT       0.417000       1.00800           0
     18710 TIP3     2932     TIP3     OH2      OT      -0.834000       15.9994           0
     18711 TIP3     2932     TIP3     H1       HT       0.417000       1.00800           0
     18712 TIP3     2932     TIP3     H2       HT       0.417000       1.00800           0
     18713 TIP3     2933     TIP3     OH2      OT      -0.834000       15.9994           0
     18714 TIP3     2933     TIP3     H1       HT       0.417000       1.00800           0
     18715 TIP3     2933     TIP3     H2       HT       0.417000       1.00800           0
     18716 TIP3     2934     TIP3     OH2      OT      -0.834000       15.9994           0
     18717 TIP3     2934     TIP3     H1       HT       0.417000       1.00800           0
     18718 TIP3     2934     TIP3     H2       HT       0.417000       1.00800           0
     18719 TIP3     2935     TIP3     OH2      OT      -0.834000       15.9994           0
     18720 TIP3     2935     TIP3     H1       HT       0.417000       1.00800           0
     18721 TIP3     2935     TIP3     H2       HT       0.417000       1.00800           0
     18722 TIP3     2936     TIP3     OH2      OT      -0.834000       15.9994           0
     18723 TIP3     2936     TIP3     H1       HT       0.417000       1.00800           0
     18724 TIP3     2936     TIP3     H2       HT       0.417000       1.00800           0
     18725 TIP3     2937     TIP3     OH2      OT      -0.834000       15.9994           0
     18726 TIP3     2937     TIP3     H1       HT       0.417000       1.00800           0
     18727 TIP3     2937     TIP3     H2       HT       0.417000       1.00800           0
     18728 TIP3     2938     TIP3     OH2      OT      -0.834000       15.9994           0
     18729 TIP3     2938     TIP3     H1       HT       0.417000       1.00800           0
     18730 TIP3     2938     TIP3     H2       HT       0.417000       1.00800           0
     18731 TIP3     2939     TIP3     OH2      OT      -0.834000       15.9994           0
     18732 TIP3     2939     TIP3     H1       HT       0.417000       1.00800           0
     18733 TIP3     2939     TIP3     H2       HT       0.417000       1.00800           0
     18734 TIP3     2940     TIP3     OH2      OT      -0.834000       15.9994           0
     18735 TIP3     2940     TIP3     H1       HT       0.417000       1.00800           0
     18736 TIP3     2940     TIP3     H2       HT       0.417000       1.00800           0
     18737 TIP3     2941     TIP3     OH2      OT      -0.834000       15.9994           0
     18738 TIP3     2941     TIP3     H1       HT       0.417000       1.00800           0
     18739 TIP3     2941     TIP3     H2       HT       0.417000       1.00800           0
     18740 TIP3     2942     TIP3     OH2      OT      -0.834000       15.9994           0
     18741 TIP3     2942     TIP3     H1       HT       0.417000       1.00800           0
     18742 TIP3     2942     TIP3     H2       HT       0.417000       1.00800           0
     18743 TIP3     2943     TIP3     OH2      OT      -0.834000       15.9994           0
     18744 TIP3     2943     TIP3     H1       HT       0.417000       1.00800           0
     18745 TIP3     2943     TIP3     H2       HT       0.417000       1.00800           0
     18746 TIP3     2944     TIP3     OH2      OT      -0.834000       15.9994           0
     18747 TIP3     2944     TIP3     H1       HT       0.417000       1.00800           0
     18748 TIP3     2944     TIP3     H2       HT       0.417000       1.00800           0
     18749 TIP3     2945     TIP3     OH2      OT      -0.834000       15.9994           0
     18750 TIP3     2945     TIP3     H1       HT       0.417000       1.00800           0
     18751 TIP3     2945     TIP3     H2       HT       0.417000       1.00800           0
     18752 TIP3     2946     TIP3     OH2      OT      -0.834000       15.9994           0
     18753 TIP3     2946     TIP3     H1       HT       0.417000       1.00800           0
     18754 TIP3     2946     TIP3     H2       HT       0.417000       1.00800           0
     18755 TIP3     2947     TIP3     OH2      OT      -0.834000       15.9994           0
     18756 TIP3     2947     TIP3     H1       HT       0.417000       1.00800           0
     18757 TIP3     2947     TIP3     H2       HT       0.417000       1.00800           0
     18758 TIP3     2948     TIP3     OH2      OT      -0.834000       15.9994           0
     18759 TIP3     2948     TIP3     H1       HT       0.417000       1.00800           0
     18760 TIP3     2948     TIP3     H2       HT       0.417000       1.00800           0
     18761 TIP3     2949     TIP3     OH2      OT      -0.834000       15.9994           0
     18762 TIP3     2949     TIP3     H1       HT       0.417000       1.00800           0
     18763 TIP3     2949     TIP3     H2       HT       0.417000       1.00800           0
     18764 TIP3     2950     TIP3     OH2      OT      -0.834000       15.9994           0
     18765 TIP3     2950     TIP3     H1       HT       0.417000       1.00800           0
     18766 TIP3     2950     TIP3     H2       HT       0.417000       1.00800           0
     18767 TIP3     2951     TIP3     OH2      OT      -0.834000       15.9994           0
     18768 TIP3     2951     TIP3     H1       HT       0.417000       1.00800           0
     18769 TIP3     2951     TIP3     H2       HT       0.417000       1.00800           0
     18770 TIP3     2952     TIP3     OH2      OT      -0.834000       15.9994           0
     18771 TIP3     2952     TIP3     H1       HT       0.417000       1.00800           0
     18772 TIP3     2952     TIP3     H2       HT       0.417000       1.00800           0
     18773 TIP3     2953     TIP3     OH2      OT      -0.834000       15.9994           0
     18774 TIP3     2953     TIP3     H1       HT       0.417000       1.00800           0
     18775 TIP3     2953     TIP3     H2       HT       0.417000       1.00800           0
     18776 TIP3     2954     TIP3     OH2      OT      -0.834000       15.9994           0
     18777 TIP3     2954     TIP3     H1       HT       0.417000       1.00800           0
     18778 TIP3     2954     TIP3     H2       HT       0.417000       1.00800           0
     18779 TIP3     2955     TIP3     OH2      OT      -0.834000       15.9994           0
     18780 TIP3     2955     TIP3     H1       HT       0.417000       1.00800           0
     18781 TIP3     2955     TIP3     H2       HT       0.417000       1.00800           0
     18782 TIP3     2956     TIP3     OH2      OT      -0.834000       15.9994           0
     18783 TIP3     2956     TIP3     H1       HT       0.417000       1.00800           0
     18784 TIP3     2956     TIP3     H2       HT       0.417000       1.00800           0
     18785 TIP3     2957     TIP3     OH2      OT      -0.834000       15.9994           0
     18786 TIP3     2957     TIP3     H1       HT       0.417000       1.00800           0
     18787 TIP3     2957     TIP3     H2       HT       0.417000       1.00800           0
     18788 TIP3     2958     TIP3     OH2      OT      -0.834000       15.9994           0
     18789 TIP3     2958     TIP3     H1       HT       0.417000       1.00800           0
     18790 TIP3     2958     TIP3     H2       HT       0.417000       1.00800           0
     18791 TIP3     2959     TIP3     OH2      OT      -0.834000       15.9994           0
     18792 TIP3     2959     TIP3     H1       HT       0.417000       1.00800           0
     18793 TIP3     2959     TIP3     H2       HT       0.417000       1.00800           0
     18794 TIP3     2960     TIP3     OH2      OT      -0.834000       15.9994           0
     18795 TIP3     2960     TIP3     H1       HT       0.417000       1.00800           0
     18796 TIP3     2960     TIP3     H2       HT       0.417000       1.00800           0
     18797 TIP3     2961     TIP3     OH2      OT      -0.834000       15.9994           0
     18798 TIP3     2961     TIP3     H1       HT       0.417000       1.00800           0
     18799 TIP3     2961     TIP3     H2       HT       0.417000       1.00800           0
     18800 TIP3     2962     TIP3     OH2      OT      -0.834000       15.9994           0
     18801 TIP3     2962     TIP3     H1       HT       0.417000       1.00800           0
     18802 TIP3     2962     TIP3     H2       HT       0.417000       1.00800           0
     18803 TIP3     2963     TIP3     OH2      OT      -0.834000       15.9994           0
     18804 TIP3     2963     TIP3     H1       HT       0.417000       1.00800           0
     18805 TIP3     2963     TIP3     H2       HT       0.417000       1.00800           0
     18806 TIP3     2964     TIP3     OH2      OT      -0.834000       15.9994           0
     18807 TIP3     2964     TIP3     H1       HT       0.417000       1.00800           0
     18808 TIP3     2964     TIP3     H2       HT       0.417000       1.00800           0
     18809 TIP3     2965     TIP3     OH2      OT      -0.834000       15.9994           0
     18810 TIP3     2965     TIP3     H1       HT       0.417000       1.00800           0
     18811 TIP3     2965     TIP3     H2       HT       0.417000       1.00800           0
     18812 TIP3     2966     TIP3     OH2      OT      -0.834000       15.9994           0
     18813 TIP3     2966     TIP3     H1       HT       0.417000       1.00800           0
     18814 TIP3     2966     TIP3     H2       HT       0.417000       1.00800           0
     18815 TIP3     2967     TIP3     OH2      OT      -0.834000       15.9994           0
     18816 TIP3     2967     TIP3     H1       HT       0.417000       1.00800           0
     18817 TIP3     2967     TIP3     H2       HT       0.417000       1.00800           0
     18818 TIP3     2968     TIP3     OH2      OT      -0.834000       15.9994           0
     18819 TIP3     2968     TIP3     H1       HT       0.417000       1.00800           0
     18820 TIP3     2968     TIP3     H2       HT       0.417000       1.00800           0
     18821 TIP3     2969     TIP3     OH2      OT      -0.834000       15.9994           0
     18822 TIP3     2969     TIP3     H1       HT       0.417000       1.00800           0
     18823 TIP3     2969     TIP3     H2       HT       0.417000       1.00800           0
     18824 TIP3     2970     TIP3     OH2      OT      -0.834000       15.9994           0
     18825 TIP3     2970     TIP3     H1       HT       0.417000       1.00800           0
     18826 TIP3     2970     TIP3     H2       HT       0.417000       1.00800           0
     18827 TIP3     2971     TIP3     OH2      OT      -0.834000       15.9994           0
     18828 TIP3     2971     TIP3     H1       HT       0.417000       1.00800           0
     18829 TIP3     2971     TIP3     H2       HT       0.417000       1.00800           0
     18830 TIP3     2972     TIP3     OH2      OT      -0.834000       15.9994           0
     18831 TIP3     2972     TIP3     H1       HT       0.417000       1.00800           0
     18832 TIP3     2972     TIP3     H2       HT       0.417000       1.00800           0
     18833 TIP3     2973     TIP3     OH2      OT      -0.834000       15.9994           0
     18834 TIP3     2973     TIP3     H1       HT       0.417000       1.00800           0
     18835 TIP3     2973     TIP3     H2       HT       0.417000       1.00800           0
     18836 TIP3     2974     TIP3     OH2      OT      -0.834000       15.9994           0
     18837 TIP3     2974     TIP3     H1       HT       0.417000       1.00800           0
     18838 TIP3     2974     TIP3     H2       HT       0.417000       1.00800           0
     18839 TIP3     2975     TIP3     OH2      OT      -0.834000       15.9994           0
     18840 TIP3     2975     TIP3     H1       HT       0.417000       1.00800           0
     18841 TIP3     2975     TIP3     H2       HT       0.417000       1.00800           0
     18842 TIP3     2976     TIP3     OH2      OT      -0.834000       15.9994           0
     18843 TIP3     2976     TIP3     H1       HT       0.417000       1.00800           0
     18844 TIP3     2976     TIP3     H2       HT       0.417000       1.00800           0
     18845 TIP3     2977     TIP3     OH2      OT      -0.834000       15.9994           0
     18846 TIP3     2977     TIP3     H1       HT       0.417000       1.00800           0
     18847 TIP3     2977     TIP3     H2       HT       0.417000       1.00800           0
     18848 TIP3     2978     TIP3     OH2      OT      -0.834000       15.9994           0
     18849 TIP3     2978     TIP3     H1       HT       0.417000       1.00800           0
     18850 TIP3     2978     TIP3     H2       HT       0.417000       1.00800           0
     18851 TIP3     2979     TIP3     OH2      OT      -0.834000       15.9994           0
     18852 TIP3     2979     TIP3     H1       HT       0.417000       1.00800           0
     18853 TIP3     2979     TIP3     H2       HT       0.417000       1.00800           0
     18854 TIP3     2980     TIP3     OH2      OT      -0.834000       15.9994           0
     18855 TIP3     2980     TIP3     H1       HT       0.417000       1.00800           0
     18856 TIP3     2980     TIP3     H2       HT       0.417000       1.00800           0
     18857 TIP3     2981     TIP3     OH2      OT      -0.834000       15.9994           0
     18858 TIP3     2981     TIP3     H1       HT       0.417000       1.00800           0
     18859 TIP3     2981     TIP3     H2       HT       0.417000       1.00800           0
     18860 TIP3     2982     TIP3     OH2      OT      -0.834000       15.9994           0
     18861 TIP3     2982     TIP3     H1       HT       0.417000       1.00800           0
     18862 TIP3     2982     TIP3     H2       HT       0.417000       1.00800           0
     18863 TIP3     2983     TIP3     OH2      OT      -0.834000       15.9994           0
     18864 TIP3     2983     TIP3     H1       HT       0.417000       1.00800           0
     18865 TIP3     2983     TIP3     H2       HT       0.417000       1.00800           0
     18866 TIP3     2984     TIP3     OH2      OT      -0.834000       15.9994           0
     18867 TIP3     2984     TIP3     H1       HT       0.417000       1.00800           0
     18868 TIP3     2984     TIP3     H2       HT       0.417000       1.00800           0
     18869 TIP3     2985     TIP3     OH2      OT      -0.834000       15.9994           0
     18870 TIP3     2985     TIP3     H1       HT       0.417000       1.00800           0
     18871 TIP3     2985     TIP3     H2       HT       0.417000       1.00800           0
     18872 TIP3     2986     TIP3     OH2      OT      -0.834000       15.9994           0
     18873 TIP3     2986     TIP3     H1       HT       0.417000       1.00800           0
     18874 TIP3     2986     TIP3     H2       HT       0.417000       1.00800           0
     18875 TIP3     2987     TIP3     OH2      OT      -0.834000       15.9994           0
     18876 TIP3     2987     TIP3     H1       HT       0.417000       1.00800           0
     18877 TIP3     2987     TIP3     H2       HT       0.417000       1.00800           0
     18878 TIP3     2988     TIP3     OH2      OT      -0.834000       15.9994           0
     18879 TIP3     2988     TIP3     H1       HT       0.417000       1.00800           0
     18880 TIP3     2988     TIP3     H2       HT       0.417000       1.00800           0
     18881 TIP3     2989     TIP3     OH2      OT      -0.834000       15.9994           0
     18882 TIP3     2989     TIP3     H1       HT       0.417000       1.00800           0
     18883 TIP3     2989     TIP3     H2       HT       0.417000       1.00800           0
     18884 TIP3     2990     TIP3     OH2      OT      -0.834000       15.9994           0
     18885 TIP3     2990     TIP3     H1       HT       0.417000       1.00800           0
     18886 TIP3     2990     TIP3     H2       HT       0.417000       1.00800           0
     18887 TIP3     2991     TIP3     OH2      OT      -0.834000       15.9994           0
     18888 TIP3     2991     TIP3     H1       HT       0.417000       1.00800           0
     18889 TIP3     2991     TIP3     H2       HT       0.417000       1.00800           0
     18890 TIP3     2992     TIP3     OH2      OT      -0.834000       15.9994           0
     18891 TIP3     2992     TIP3     H1       HT       0.417000       1.00800           0
     18892 TIP3     2992     TIP3     H2       HT       0.417000       1.00800           0
     18893 TIP3     2993     TIP3     OH2      OT      -0.834000       15.9994           0
     18894 TIP3     2993     TIP3     H1       HT       0.417000       1.00800           0
     18895 TIP3     2993     TIP3     H2       HT       0.417000       1.00800           0
     18896 TIP3     2994     TIP3     OH2      OT      -0.834000       15.9994           0
     18897 TIP3     2994     TIP3     H1       HT       0.417000       1.00800           0
     18898 TIP3     2994     TIP3     H2       HT       0.417000       1.00800           0
     18899 TIP3     2995     TIP3     OH2      OT      -0.834000       15.9994           0
     18900 TIP3     2995     TIP3     H1       HT       0.417000       1.00800           0
     18901 TIP3     2995     TIP3     H2       HT       0.417000       1.00800           0
     18902 TIP3     2996     TIP3     OH2      OT      -0.834000       15.9994           0
     18903 TIP3     2996     TIP3     H1       HT       0.417000       1.00800           0
     18904 TIP3     2996     TIP3     H2       HT       0.417000       1.00800           0
     18905 TIP3     2997     TIP3     OH2      OT      -0.834000       15.9994           0
     18906 TIP3     2997     TIP3     H1       HT       0.417000       1.00800           0
     18907 TIP3     2997     TIP3     H2       HT       0.417000       1.00800           0
     18908 TIP3     2998     TIP3     OH2      OT      -0.834000       15.9994           0
     18909 TIP3     2998     TIP3     H1       HT       0.417000       1.00800           0
     18910 TIP3     2998     TIP3     H2       HT       0.417000       1.00800           0
     18911 TIP3     2999     TIP3     OH2      OT      -0.834000       15.9994           0
     18912 TIP3     2999     TIP3     H1       HT       0.417000       1.00800           0
     18913 TIP3     2999     TIP3     H2       HT       0.417000       1.00800           0
     18914 TIP3     3000     TIP3     OH2      OT      -0.834000       15.9994           0
     18915 TIP3     3000     TIP3     H1       HT       0.417000       1.00800           0
     18916 TIP3     3000     TIP3     H2       HT       0.417000       1.00800           0
     18917 TIP3     3001     TIP3     OH2      OT      -0.834000       15.9994           0
     18918 TIP3     3001     TIP3     H1       HT       0.417000       1.00800           0
     18919 TIP3     3001     TIP3     H2       HT       0.417000       1.00800           0
     18920 TIP3     3002     TIP3     OH2      OT      -0.834000       15.9994           0
     18921 TIP3     3002     TIP3     H1       HT       0.417000       1.00800           0
     18922 TIP3     3002     TIP3     H2       HT       0.417000       1.00800           0
     18923 TIP3     3003     TIP3     OH2      OT      -0.834000       15.9994           0
     18924 TIP3     3003     TIP3     H1       HT       0.417000       1.00800           0
     18925 TIP3     3003     TIP3     H2       HT       0.417000       1.00800           0
     18926 TIP3     3004     TIP3     OH2      OT      -0.834000       15.9994           0
     18927 TIP3     3004     TIP3     H1       HT       0.417000       1.00800           0
     18928 TIP3     3004     TIP3     H2       HT       0.417000       1.00800           0
     18929 TIP3     3005     TIP3     OH2      OT      -0.834000       15.9994           0
     18930 TIP3     3005     TIP3     H1       HT       0.417000       1.00800           0
     18931 TIP3     3005     TIP3     H2       HT       0.417000       1.00800           0
     18932 TIP3     3006     TIP3     OH2      OT      -0.834000       15.9994           0
     18933 TIP3     3006     TIP3     H1       HT       0.417000       1.00800           0
     18934 TIP3     3006     TIP3     H2       HT       0.417000       1.00800           0
     18935 TIP3     3007     TIP3     OH2      OT      -0.834000       15.9994           0
     18936 TIP3     3007     TIP3     H1       HT       0.417000       1.00800           0
     18937 TIP3     3007     TIP3     H2       HT       0.417000       1.00800           0
     18938 TIP3     3008     TIP3     OH2      OT      -0.834000       15.9994           0
     18939 TIP3     3008     TIP3     H1       HT       0.417000       1.00800           0
     18940 TIP3     3008     TIP3     H2       HT       0.417000       1.00800           0
     18941 TIP3     3009     TIP3     OH2      OT      -0.834000       15.9994           0
     18942 TIP3     3009     TIP3     H1       HT       0.417000       1.00800           0
     18943 TIP3     3009     TIP3     H2       HT       0.417000       1.00800           0
     18944 TIP3     3010     TIP3     OH2      OT      -0.834000       15.9994           0
     18945 TIP3     3010     TIP3     H1       HT       0.417000       1.00800           0
     18946 TIP3     3010     TIP3     H2       HT       0.417000       1.00800           0
     18947 TIP3     3011     TIP3     OH2      OT      -0.834000       15.9994           0
     18948 TIP3     3011     TIP3     H1       HT       0.417000       1.00800           0
     18949 TIP3     3011     TIP3     H2       HT       0.417000       1.00800           0
     18950 TIP3     3012     TIP3     OH2      OT      -0.834000       15.9994           0
     18951 TIP3     3012     TIP3     H1       HT       0.417000       1.00800           0
     18952 TIP3     3012     TIP3     H2       HT       0.417000       1.00800           0
     18953 TIP3     3013     TIP3     OH2      OT      -0.834000       15.9994           0
     18954 TIP3     3013     TIP3     H1       HT       0.417000       1.00800           0
     18955 TIP3     3013     TIP3     H2       HT       0.417000       1.00800           0
     18956 TIP3     3014     TIP3     OH2      OT      -0.834000       15.9994           0
     18957 TIP3     3014     TIP3     H1       HT       0.417000       1.00800           0
     18958 TIP3     3014     TIP3     H2       HT       0.417000       1.00800           0
     18959 TIP3     3015     TIP3     OH2      OT      -0.834000       15.9994           0
     18960 TIP3     3015     TIP3     H1       HT       0.417000       1.00800           0
     18961 TIP3     3015     TIP3     H2       HT       0.417000       1.00800           0
     18962 TIP3     3016     TIP3     OH2      OT      -0.834000       15.9994           0
     18963 TIP3     3016     TIP3     H1       HT       0.417000       1.00800           0
     18964 TIP3     3016     TIP3     H2       HT       0.417000       1.00800           0
     18965 TIP3     3017     TIP3     OH2      OT      -0.834000       15.9994           0
     18966 TIP3     3017     TIP3     H1       HT       0.417000       1.00800           0
     18967 TIP3     3017     TIP3     H2       HT       0.417000       1.00800           0
     18968 TIP3     3018     TIP3     OH2      OT      -0.834000       15.9994           0
     18969 TIP3     3018     TIP3     H1       HT       0.417000       1.00800           0
     18970 TIP3     3018     TIP3     H2       HT       0.417000       1.00800           0
     18971 TIP3     3019     TIP3     OH2      OT      -0.834000       15.9994           0
     18972 TIP3     3019     TIP3     H1       HT       0.417000       1.00800           0
     18973 TIP3     3019     TIP3     H2       HT       0.417000       1.00800           0
     18974 TIP3     3020     TIP3     OH2      OT      -0.834000       15.9994           0
     18975 TIP3     3020     TIP3     H1       HT       0.417000       1.00800           0
     18976 TIP3     3020     TIP3     H2       HT       0.417000       1.00800           0
     18977 TIP3     3021     TIP3     OH2      OT      -0.834000       15.9994           0
     18978 TIP3     3021     TIP3     H1       HT       0.417000       1.00800           0
     18979 TIP3     3021     TIP3     H2       HT       0.417000       1.00800           0
     18980 TIP3     3022     TIP3     OH2      OT      -0.834000       15.9994           0
     18981 TIP3     3022     TIP3     H1       HT       0.417000       1.00800           0
     18982 TIP3     3022     TIP3     H2       HT       0.417000       1.00800           0
     18983 TIP3     3023     TIP3     OH2      OT      -0.834000       15.9994           0
     18984 TIP3     3023     TIP3     H1       HT       0.417000       1.00800           0
     18985 TIP3     3023     TIP3     H2       HT       0.417000       1.00800           0
     18986 TIP3     3024     TIP3     OH2      OT      -0.834000       15.9994           0
     18987 TIP3     3024     TIP3     H1       HT       0.417000       1.00800           0
     18988 TIP3     3024     TIP3     H2       HT       0.417000       1.00800           0
     18989 TIP3     3025     TIP3     OH2      OT      -0.834000       15.9994           0
     18990 TIP3     3025     TIP3     H1       HT       0.417000       1.00800           0
     18991 TIP3     3025     TIP3     H2       HT       0.417000       1.00800           0
     18992 TIP3     3026     TIP3     OH2      OT      -0.834000       15.9994           0
     18993 TIP3     3026     TIP3     H1       HT       0.417000       1.00800           0
     18994 TIP3     3026     TIP3     H2       HT       0.417000       1.00800           0
     18995 TIP3     3027     TIP3     OH2      OT      -0.834000       15.9994           0
     18996 TIP3     3027     TIP3     H1       HT       0.417000       1.00800           0
     18997 TIP3     3027     TIP3     H2       HT       0.417000       1.00800           0
     18998 TIP3     3028     TIP3     OH2      OT      -0.834000       15.9994           0
     18999 TIP3     3028     TIP3     H1       HT       0.417000       1.00800           0
     19000 TIP3     3028     TIP3     H2       HT       0.417000       1.00800           0
     19001 TIP3     3029     TIP3     OH2      OT      -0.834000       15.9994           0
     19002 TIP3     3029     TIP3     H1       HT       0.417000       1.00800           0
     19003 TIP3     3029     TIP3     H2       HT       0.417000       1.00800           0
     19004 TIP3     3030     TIP3     OH2      OT      -0.834000       15.9994           0
     19005 TIP3     3030     TIP3     H1       HT       0.417000       1.00800           0
     19006 TIP3     3030     TIP3     H2       HT       0.417000       1.00800           0
     19007 TIP3     3031     TIP3     OH2      OT      -0.834000       15.9994           0
     19008 TIP3     3031     TIP3     H1       HT       0.417000       1.00800           0
     19009 TIP3     3031     TIP3     H2       HT       0.417000       1.00800           0
     19010 TIP3     3032     TIP3     OH2      OT      -0.834000       15.9994           0
     19011 TIP3     3032     TIP3     H1       HT       0.417000       1.00800           0
     19012 TIP3     3032     TIP3     H2       HT       0.417000       1.00800           0
     19013 TIP3     3033     TIP3     OH2      OT      -0.834000       15.9994           0
     19014 TIP3     3033     TIP3     H1       HT       0.417000       1.00800           0
     19015 TIP3     3033     TIP3     H2       HT       0.417000       1.00800           0
     19016 TIP3     3034     TIP3     OH2      OT      -0.834000       15.9994           0
     19017 TIP3     3034     TIP3     H1       HT       0.417000       1.00800           0
     19018 TIP3     3034     TIP3     H2       HT       0.417000       1.00800           0
     19019 TIP3     3035     TIP3     OH2      OT      -0.834000       15.9994           0
     19020 TIP3     3035     TIP3     H1       HT       0.417000       1.00800           0
     19021 TIP3     3035     TIP3     H2       HT       0.417000       1.00800           0
     19022 TIP3     3036     TIP3     OH2      OT      -0.834000       15.9994           0
     19023 TIP3     3036     TIP3     H1       HT       0.417000       1.00800           0
     19024 TIP3     3036     TIP3     H2       HT       0.417000       1.00800           0
     19025 TIP3     3037     TIP3     OH2      OT      -0.834000       15.9994           0
     19026 TIP3     3037     TIP3     H1       HT       0.417000       1.00800           0
     19027 TIP3     3037     TIP3     H2       HT       0.417000       1.00800           0
     19028 TIP3     3038     TIP3     OH2      OT      -0.834000       15.9994           0
     19029 TIP3     3038     TIP3     H1       HT       0.417000       1.00800           0
     19030 TIP3     3038     TIP3     H2       HT       0.417000       1.00800           0
     19031 TIP3     3039     TIP3     OH2      OT      -0.834000       15.9994           0
     19032 TIP3     3039     TIP3     H1       HT       0.417000       1.00800           0
     19033 TIP3     3039     TIP3     H2       HT       0.417000       1.00800           0
     19034 TIP3     3040     TIP3     OH2      OT      -0.834000       15.9994           0
     19035 TIP3     3040     TIP3     H1       HT       0.417000       1.00800           0
     19036 TIP3     3040     TIP3     H2       HT       0.417000       1.00800           0
     19037 TIP3     3041     TIP3     OH2      OT      -0.834000       15.9994           0
     19038 TIP3     3041     TIP3     H1       HT       0.417000       1.00800           0
     19039 TIP3     3041     TIP3     H2       HT       0.417000       1.00800           0
     19040 TIP3     3042     TIP3     OH2      OT      -0.834000       15.9994           0
     19041 TIP3     3042     TIP3     H1       HT       0.417000       1.00800           0
     19042 TIP3     3042     TIP3     H2       HT       0.417000       1.00800           0
     19043 TIP3     3043     TIP3     OH2      OT      -0.834000       15.9994           0
     19044 TIP3     3043     TIP3     H1       HT       0.417000       1.00800           0
     19045 TIP3     3043     TIP3     H2       HT       0.417000       1.00800           0
     19046 TIP3     3044     TIP3     OH2      OT      -0.834000       15.9994           0
     19047 TIP3     3044     TIP3     H1       HT       0.417000       1.00800           0
     19048 TIP3     3044     TIP3     H2       HT       0.417000       1.00800           0
     19049 TIP3     3045     TIP3     OH2      OT      -0.834000       15.9994           0
     19050 TIP3     3045     TIP3     H1       HT       0.417000       1.00800           0
     19051 TIP3     3045     TIP3     H2       HT       0.417000       1.00800           0
     19052 TIP3     3046     TIP3     OH2      OT      -0.834000       15.9994           0
     19053 TIP3     3046     TIP3     H1       HT       0.417000       1.00800           0
     19054 TIP3     3046     TIP3     H2       HT       0.417000       1.00800           0
     19055 TIP3     3047     TIP3     OH2      OT      -0.834000       15.9994           0
     19056 TIP3     3047     TIP3     H1       HT       0.417000       1.00800           0
     19057 TIP3     3047     TIP3     H2       HT       0.417000       1.00800           0
     19058 TIP3     3048     TIP3     OH2      OT      -0.834000       15.9994           0
     19059 TIP3     3048     TIP3     H1       HT       0.417000       1.00800           0
     19060 TIP3     3048     TIP3     H2       HT       0.417000       1.00800           0
     19061 TIP3     3049     TIP3     OH2      OT      -0.834000       15.9994           0
     19062 TIP3     3049     TIP3     H1       HT       0.417000       1.00800           0
     19063 TIP3     3049     TIP3     H2       HT       0.417000       1.00800           0
     19064 TIP3     3050     TIP3     OH2      OT      -0.834000       15.9994           0
     19065 TIP3     3050     TIP3     H1       HT       0.417000       1.00800           0
     19066 TIP3     3050     TIP3     H2       HT       0.417000       1.00800           0
     19067 TIP3     3051     TIP3     OH2      OT      -0.834000       15.9994           0
     19068 TIP3     3051     TIP3     H1       HT       0.417000       1.00800           0
     19069 TIP3     3051     TIP3     H2       HT       0.417000       1.00800           0
     19070 TIP3     3052     TIP3     OH2      OT      -0.834000       15.9994           0
     19071 TIP3     3052     TIP3     H1       HT       0.417000       1.00800           0
     19072 TIP3     3052     TIP3     H2       HT       0.417000       1.00800           0
     19073 TIP3     3053     TIP3     OH2      OT      -0.834000       15.9994           0
     19074 TIP3     3053     TIP3     H1       HT       0.417000       1.00800           0
     19075 TIP3     3053     TIP3     H2       HT       0.417000       1.00800           0
     19076 TIP3     3054     TIP3     OH2      OT      -0.834000       15.9994           0
     19077 TIP3     3054     TIP3     H1       HT       0.417000       1.00800           0
     19078 TIP3     3054     TIP3     H2       HT       0.417000       1.00800           0
     19079 TIP3     3055     TIP3     OH2      OT      -0.834000       15.9994           0
     19080 TIP3     3055     TIP3     H1       HT       0.417000       1.00800           0
     19081 TIP3     3055     TIP3     H2       HT       0.417000       1.00800           0
     19082 TIP3     3056     TIP3     OH2      OT      -0.834000       15.9994           0
     19083 TIP3     3056     TIP3     H1       HT       0.417000       1.00800           0
     19084 TIP3     3056     TIP3     H2       HT       0.417000       1.00800           0
     19085 TIP3     3057     TIP3     OH2      OT      -0.834000       15.9994           0
     19086 TIP3     3057     TIP3     H1       HT       0.417000       1.00800           0
     19087 TIP3     3057     TIP3     H2       HT       0.417000       1.00800           0
     19088 TIP3     3058     TIP3     OH2      OT      -0.834000       15.9994           0
     19089 TIP3     3058     TIP3     H1       HT       0.417000       1.00800           0
     19090 TIP3     3058     TIP3     H2       HT       0.417000       1.00800           0
     19091 TIP3     3059     TIP3     OH2      OT      -0.834000       15.9994           0
     19092 TIP3     3059     TIP3     H1       HT       0.417000       1.00800           0
     19093 TIP3     3059     TIP3     H2       HT       0.417000       1.00800           0
     19094 TIP3     3060     TIP3     OH2      OT      -0.834000       15.9994           0
     19095 TIP3     3060     TIP3     H1       HT       0.417000       1.00800           0
     19096 TIP3     3060     TIP3     H2       HT       0.417000       1.00800           0
     19097 TIP3     3061     TIP3     OH2      OT      -0.834000       15.9994           0
     19098 TIP3     3061     TIP3     H1       HT       0.417000       1.00800           0
     19099 TIP3     3061     TIP3     H2       HT       0.417000       1.00800           0
     19100 TIP3     3062     TIP3     OH2      OT      -0.834000       15.9994           0
     19101 TIP3     3062     TIP3     H1       HT       0.417000       1.00800           0
     19102 TIP3     3062     TIP3     H2       HT       0.417000       1.00800           0
     19103 TIP3     3063     TIP3     OH2      OT      -0.834000       15.9994           0
     19104 TIP3     3063     TIP3     H1       HT       0.417000       1.00800           0
     19105 TIP3     3063     TIP3     H2       HT       0.417000       1.00800           0
     19106 TIP3     3064     TIP3     OH2      OT      -0.834000       15.9994           0
     19107 TIP3     3064     TIP3     H1       HT       0.417000       1.00800           0
     19108 TIP3     3064     TIP3     H2       HT       0.417000       1.00800           0
     19109 TIP3     3065     TIP3     OH2      OT      -0.834000       15.9994           0
     19110 TIP3     3065     TIP3     H1       HT       0.417000       1.00800           0
     19111 TIP3     3065     TIP3     H2       HT       0.417000       1.00800           0
     19112 TIP3     3066     TIP3     OH2      OT      -0.834000       15.9994           0
     19113 TIP3     3066     TIP3     H1       HT       0.417000       1.00800           0
     19114 TIP3     3066     TIP3     H2       HT       0.417000       1.00800           0
     19115 TIP3     3067     TIP3     OH2      OT      -0.834000       15.9994           0
     19116 TIP3     3067     TIP3     H1       HT       0.417000       1.00800           0
     19117 TIP3     3067     TIP3     H2       HT       0.417000       1.00800           0
     19118 TIP3     3068     TIP3     OH2      OT      -0.834000       15.9994           0
     19119 TIP3     3068     TIP3     H1       HT       0.417000       1.00800           0
     19120 TIP3     3068     TIP3     H2       HT       0.417000       1.00800           0
     19121 TIP3     3069     TIP3     OH2      OT      -0.834000       15.9994           0
     19122 TIP3     3069     TIP3     H1       HT       0.417000       1.00800           0
     19123 TIP3     3069     TIP3     H2       HT       0.417000       1.00800           0
     19124 TIP3     3070     TIP3     OH2      OT      -0.834000       15.9994           0
     19125 TIP3     3070     TIP3     H1       HT       0.417000       1.00800           0
     19126 TIP3     3070     TIP3     H2       HT       0.417000       1.00800           0
     19127 TIP3     3071     TIP3     OH2      OT      -0.834000       15.9994           0
     19128 TIP3     3071     TIP3     H1       HT       0.417000       1.00800           0
     19129 TIP3     3071     TIP3     H2       HT       0.417000       1.00800           0
     19130 TIP3     3072     TIP3     OH2      OT      -0.834000       15.9994           0
     19131 TIP3     3072     TIP3     H1       HT       0.417000       1.00800           0
     19132 TIP3     3072     TIP3     H2       HT       0.417000       1.00800           0
     19133 TIP3     3073     TIP3     OH2      OT      -0.834000       15.9994           0
     19134 TIP3     3073     TIP3     H1       HT       0.417000       1.00800           0
     19135 TIP3     3073     TIP3     H2       HT       0.417000       1.00800           0
     19136 TIP3     3074     TIP3     OH2      OT      -0.834000       15.9994           0
     19137 TIP3     3074     TIP3     H1       HT       0.417000       1.00800           0
     19138 TIP3     3074     TIP3     H2       HT       0.417000       1.00800           0
     19139 TIP3     3075     TIP3     OH2      OT      -0.834000       15.9994           0
     19140 TIP3     3075     TIP3     H1       HT       0.417000       1.00800           0
     19141 TIP3     3075     TIP3     H2       HT       0.417000       1.00800           0
     19142 TIP3     3076     TIP3     OH2      OT      -0.834000       15.9994           0
     19143 TIP3     3076     TIP3     H1       HT       0.417000       1.00800           0
     19144 TIP3     3076     TIP3     H2       HT       0.417000       1.00800           0
     19145 TIP3     3077     TIP3     OH2      OT      -0.834000       15.9994           0
     19146 TIP3     3077     TIP3     H1       HT       0.417000       1.00800           0
     19147 TIP3     3077     TIP3     H2       HT       0.417000       1.00800           0
     19148 TIP3     3078     TIP3     OH2      OT      -0.834000       15.9994           0
     19149 TIP3     3078     TIP3     H1       HT       0.417000       1.00800           0
     19150 TIP3     3078     TIP3     H2       HT       0.417000       1.00800           0
     19151 TIP3     3079     TIP3     OH2      OT      -0.834000       15.9994           0
     19152 TIP3     3079     TIP3     H1       HT       0.417000       1.00800           0
     19153 TIP3     3079     TIP3     H2       HT       0.417000       1.00800           0
     19154 TIP3     3080     TIP3     OH2      OT      -0.834000       15.9994           0
     19155 TIP3     3080     TIP3     H1       HT       0.417000       1.00800           0
     19156 TIP3     3080     TIP3     H2       HT       0.417000       1.00800           0
     19157 TIP3     3081     TIP3     OH2      OT      -0.834000       15.9994           0
     19158 TIP3     3081     TIP3     H1       HT       0.417000       1.00800           0
     19159 TIP3     3081     TIP3     H2       HT       0.417000       1.00800           0
     19160 TIP3     3082     TIP3     OH2      OT      -0.834000       15.9994           0
     19161 TIP3     3082     TIP3     H1       HT       0.417000       1.00800           0
     19162 TIP3     3082     TIP3     H2       HT       0.417000       1.00800           0
     19163 TIP3     3083     TIP3     OH2      OT      -0.834000       15.9994           0
     19164 TIP3     3083     TIP3     H1       HT       0.417000       1.00800           0
     19165 TIP3     3083     TIP3     H2       HT       0.417000       1.00800           0
     19166 TIP3     3084     TIP3     OH2      OT      -0.834000       15.9994           0
     19167 TIP3     3084     TIP3     H1       HT       0.417000       1.00800           0
     19168 TIP3     3084     TIP3     H2       HT       0.417000       1.00800           0
     19169 TIP3     3085     TIP3     OH2      OT      -0.834000       15.9994           0
     19170 TIP3     3085     TIP3     H1       HT       0.417000       1.00800           0
     19171 TIP3     3085     TIP3     H2       HT       0.417000       1.00800           0
     19172 TIP3     3086     TIP3     OH2      OT      -0.834000       15.9994           0
     19173 TIP3     3086     TIP3     H1       HT       0.417000       1.00800           0
     19174 TIP3     3086     TIP3     H2       HT       0.417000       1.00800           0
     19175 TIP3     3087     TIP3     OH2      OT      -0.834000       15.9994           0
     19176 TIP3     3087     TIP3     H1       HT       0.417000       1.00800           0
     19177 TIP3     3087     TIP3     H2       HT       0.417000       1.00800           0
     19178 TIP3     3088     TIP3     OH2      OT      -0.834000       15.9994           0
     19179 TIP3     3088     TIP3     H1       HT       0.417000       1.00800           0
     19180 TIP3     3088     TIP3     H2       HT       0.417000       1.00800           0
     19181 TIP3     3089     TIP3     OH2      OT      -0.834000       15.9994           0
     19182 TIP3     3089     TIP3     H1       HT       0.417000       1.00800           0
     19183 TIP3     3089     TIP3     H2       HT       0.417000       1.00800           0
     19184 TIP3     3090     TIP3     OH2      OT      -0.834000       15.9994           0
     19185 TIP3     3090     TIP3     H1       HT       0.417000       1.00800           0
     19186 TIP3     3090     TIP3     H2       HT       0.417000       1.00800           0
     19187 TIP3     3091     TIP3     OH2      OT      -0.834000       15.9994           0
     19188 TIP3     3091     TIP3     H1       HT       0.417000       1.00800           0
     19189 TIP3     3091     TIP3     H2       HT       0.417000       1.00800           0
     19190 TIP3     3092     TIP3     OH2      OT      -0.834000       15.9994           0
     19191 TIP3     3092     TIP3     H1       HT       0.417000       1.00800           0
     19192 TIP3     3092     TIP3     H2       HT       0.417000       1.00800           0
     19193 TIP3     3093     TIP3     OH2      OT      -0.834000       15.9994           0
     19194 TIP3     3093     TIP3     H1       HT       0.417000       1.00800           0
     19195 TIP3     3093     TIP3     H2       HT       0.417000       1.00800           0
     19196 TIP3     3094     TIP3     OH2      OT      -0.834000       15.9994           0
     19197 TIP3     3094     TIP3     H1       HT       0.417000       1.00800           0
     19198 TIP3     3094     TIP3     H2       HT       0.417000       1.00800           0
     19199 TIP3     3095     TIP3     OH2      OT      -0.834000       15.9994           0
     19200 TIP3     3095     TIP3     H1       HT       0.417000       1.00800           0
     19201 TIP3     3095     TIP3     H2       HT       0.417000       1.00800           0
     19202 TIP3     3096     TIP3     OH2      OT      -0.834000       15.9994           0
     19203 TIP3     3096     TIP3     H1       HT       0.417000       1.00800           0
     19204 TIP3     3096     TIP3     H2       HT       0.417000       1.00800           0
     19205 TIP3     3097     TIP3     OH2      OT      -0.834000       15.9994           0
     19206 TIP3     3097     TIP3     H1       HT       0.417000       1.00800           0
     19207 TIP3     3097     TIP3     H2       HT       0.417000       1.00800           0
     19208 TIP3     3098     TIP3     OH2      OT      -0.834000       15.9994           0
     19209 TIP3     3098     TIP3     H1       HT       0.417000       1.00800           0
     19210 TIP3     3098     TIP3     H2       HT       0.417000       1.00800           0
     19211 TIP3     3099     TIP3     OH2      OT      -0.834000       15.9994           0
     19212 TIP3     3099     TIP3     H1       HT       0.417000       1.00800           0
     19213 TIP3     3099     TIP3     H2       HT       0.417000       1.00800           0
     19214 TIP3     3100     TIP3     OH2      OT      -0.834000       15.9994           0
     19215 TIP3     3100     TIP3     H1       HT       0.417000       1.00800           0
     19216 TIP3     3100     TIP3     H2       HT       0.417000       1.00800           0
     19217 TIP3     3101     TIP3     OH2      OT      -0.834000       15.9994           0
     19218 TIP3     3101     TIP3     H1       HT       0.417000       1.00800           0
     19219 TIP3     3101     TIP3     H2       HT       0.417000       1.00800           0
     19220 TIP3     3102     TIP3     OH2      OT      -0.834000       15.9994           0
     19221 TIP3     3102     TIP3     H1       HT       0.417000       1.00800           0
     19222 TIP3     3102     TIP3     H2       HT       0.417000       1.00800           0
     19223 TIP3     3103     TIP3     OH2      OT      -0.834000       15.9994           0
     19224 TIP3     3103     TIP3     H1       HT       0.417000       1.00800           0
     19225 TIP3     3103     TIP3     H2       HT       0.417000       1.00800           0
     19226 TIP3     3104     TIP3     OH2      OT      -0.834000       15.9994           0
     19227 TIP3     3104     TIP3     H1       HT       0.417000       1.00800           0
     19228 TIP3     3104     TIP3     H2       HT       0.417000       1.00800           0
     19229 TIP3     3105     TIP3     OH2      OT      -0.834000       15.9994           0
     19230 TIP3     3105     TIP3     H1       HT       0.417000       1.00800           0
     19231 TIP3     3105     TIP3     H2       HT       0.417000       1.00800           0
     19232 TIP3     3106     TIP3     OH2      OT      -0.834000       15.9994           0
     19233 TIP3     3106     TIP3     H1       HT       0.417000       1.00800           0
     19234 TIP3     3106     TIP3     H2       HT       0.417000       1.00800           0
     19235 TIP3     3107     TIP3     OH2      OT      -0.834000       15.9994           0
     19236 TIP3     3107     TIP3     H1       HT       0.417000       1.00800           0
     19237 TIP3     3107     TIP3     H2       HT       0.417000       1.00800           0
     19238 TIP3     3108     TIP3     OH2      OT      -0.834000       15.9994           0
     19239 TIP3     3108     TIP3     H1       HT       0.417000       1.00800           0
     19240 TIP3     3108     TIP3     H2       HT       0.417000       1.00800           0
     19241 TIP3     3109     TIP3     OH2      OT      -0.834000       15.9994           0
     19242 TIP3     3109     TIP3     H1       HT       0.417000       1.00800           0
     19243 TIP3     3109     TIP3     H2       HT       0.417000       1.00800           0
     19244 TIP3     3110     TIP3     OH2      OT      -0.834000       15.9994           0
     19245 TIP3     3110     TIP3     H1       HT       0.417000       1.00800           0
     19246 TIP3     3110     TIP3     H2       HT       0.417000       1.00800           0
     19247 TIP3     3111     TIP3     OH2      OT      -0.834000       15.9994           0
     19248 TIP3     3111     TIP3     H1       HT       0.417000       1.00800           0
     19249 TIP3     3111     TIP3     H2       HT       0.417000       1.00800           0
     19250 TIP3     3112     TIP3     OH2      OT      -0.834000       15.9994           0
     19251 TIP3     3112     TIP3     H1       HT       0.417000       1.00800           0
     19252 TIP3     3112     TIP3     H2       HT       0.417000       1.00800           0
     19253 TIP3     3113     TIP3     OH2      OT      -0.834000       15.9994           0
     19254 TIP3     3113     TIP3     H1       HT       0.417000       1.00800           0
     19255 TIP3     3113     TIP3     H2       HT       0.417000       1.00800           0
     19256 TIP3     3114     TIP3     OH2      OT      -0.834000       15.9994           0
     19257 TIP3     3114     TIP3     H1       HT       0.417000       1.00800           0
     19258 TIP3     3114     TIP3     H2       HT       0.417000       1.00800           0
     19259 TIP3     3115     TIP3     OH2      OT      -0.834000       15.9994           0
     19260 TIP3     3115     TIP3     H1       HT       0.417000       1.00800           0
     19261 TIP3     3115     TIP3     H2       HT       0.417000       1.00800           0
     19262 TIP3     3116     TIP3     OH2      OT      -0.834000       15.9994           0
     19263 TIP3     3116     TIP3     H1       HT       0.417000       1.00800           0
     19264 TIP3     3116     TIP3     H2       HT       0.417000       1.00800           0
     19265 TIP3     3117     TIP3     OH2      OT      -0.834000       15.9994           0
     19266 TIP3     3117     TIP3     H1       HT       0.417000       1.00800           0
     19267 TIP3     3117     TIP3     H2       HT       0.417000       1.00800           0
     19268 TIP3     3118     TIP3     OH2      OT      -0.834000       15.9994           0
     19269 TIP3     3118     TIP3     H1       HT       0.417000       1.00800           0
     19270 TIP3     3118     TIP3     H2       HT       0.417000       1.00800           0
     19271 TIP3     3119     TIP3     OH2      OT      -0.834000       15.9994           0
     19272 TIP3     3119     TIP3     H1       HT       0.417000       1.00800           0
     19273 TIP3     3119     TIP3     H2       HT       0.417000       1.00800           0
     19274 TIP3     3120     TIP3     OH2      OT      -0.834000       15.9994           0
     19275 TIP3     3120     TIP3     H1       HT       0.417000       1.00800           0
     19276 TIP3     3120     TIP3     H2       HT       0.417000       1.00800           0
     19277 TIP3     3121     TIP3     OH2      OT      -0.834000       15.9994           0
     19278 TIP3     3121     TIP3     H1       HT       0.417000       1.00800           0
     19279 TIP3     3121     TIP3     H2       HT       0.417000       1.00800           0
     19280 TIP3     3122     TIP3     OH2      OT      -0.834000       15.9994           0
     19281 TIP3     3122     TIP3     H1       HT       0.417000       1.00800           0
     19282 TIP3     3122     TIP3     H2       HT       0.417000       1.00800           0
     19283 TIP3     3123     TIP3     OH2      OT      -0.834000       15.9994           0
     19284 TIP3     3123     TIP3     H1       HT       0.417000       1.00800           0
     19285 TIP3     3123     TIP3     H2       HT       0.417000       1.00800           0
     19286 TIP3     3124     TIP3     OH2      OT      -0.834000       15.9994           0
     19287 TIP3     3124     TIP3     H1       HT       0.417000       1.00800           0
     19288 TIP3     3124     TIP3     H2       HT       0.417000       1.00800           0
     19289 TIP3     3125     TIP3     OH2      OT      -0.834000       15.9994           0
     19290 TIP3     3125     TIP3     H1       HT       0.417000       1.00800           0
     19291 TIP3     3125     TIP3     H2       HT       0.417000       1.00800           0
     19292 TIP3     3126     TIP3     OH2      OT      -0.834000       15.9994           0
     19293 TIP3     3126     TIP3     H1       HT       0.417000       1.00800           0
     19294 TIP3     3126     TIP3     H2       HT       0.417000       1.00800           0
     19295 TIP3     3127     TIP3     OH2      OT      -0.834000       15.9994           0
     19296 TIP3     3127     TIP3     H1       HT       0.417000       1.00800           0
     19297 TIP3     3127     TIP3     H2       HT       0.417000       1.00800           0
     19298 TIP3     3128     TIP3     OH2      OT      -0.834000       15.9994           0
     19299 TIP3     3128     TIP3     H1       HT       0.417000       1.00800           0
     19300 TIP3     3128     TIP3     H2       HT       0.417000       1.00800           0
     19301 TIP3     3129     TIP3     OH2      OT      -0.834000       15.9994           0
     19302 TIP3     3129     TIP3     H1       HT       0.417000       1.00800           0
     19303 TIP3     3129     TIP3     H2       HT       0.417000       1.00800           0
     19304 TIP3     3130     TIP3     OH2      OT      -0.834000       15.9994           0
     19305 TIP3     3130     TIP3     H1       HT       0.417000       1.00800           0
     19306 TIP3     3130     TIP3     H2       HT       0.417000       1.00800           0
     19307 TIP3     3131     TIP3     OH2      OT      -0.834000       15.9994           0
     19308 TIP3     3131     TIP3     H1       HT       0.417000       1.00800           0
     19309 TIP3     3131     TIP3     H2       HT       0.417000       1.00800           0
     19310 TIP3     3132     TIP3     OH2      OT      -0.834000       15.9994           0
     19311 TIP3     3132     TIP3     H1       HT       0.417000       1.00800           0
     19312 TIP3     3132     TIP3     H2       HT       0.417000       1.00800           0
     19313 TIP3     3133     TIP3     OH2      OT      -0.834000       15.9994           0
     19314 TIP3     3133     TIP3     H1       HT       0.417000       1.00800           0
     19315 TIP3     3133     TIP3     H2       HT       0.417000       1.00800           0
     19316 TIP3     3134     TIP3     OH2      OT      -0.834000       15.9994           0
     19317 TIP3     3134     TIP3     H1       HT       0.417000       1.00800           0
     19318 TIP3     3134     TIP3     H2       HT       0.417000       1.00800           0
     19319 TIP3     3135     TIP3     OH2      OT      -0.834000       15.9994           0
     19320 TIP3     3135     TIP3     H1       HT       0.417000       1.00800           0
     19321 TIP3     3135     TIP3     H2       HT       0.417000       1.00800           0
     19322 TIP3     3136     TIP3     OH2      OT      -0.834000       15.9994           0
     19323 TIP3     3136     TIP3     H1       HT       0.417000       1.00800           0
     19324 TIP3     3136     TIP3     H2       HT       0.417000       1.00800           0
     19325 TIP3     3137     TIP3     OH2      OT      -0.834000       15.9994           0
     19326 TIP3     3137     TIP3     H1       HT       0.417000       1.00800           0
     19327 TIP3     3137     TIP3     H2       HT       0.417000       1.00800           0
     19328 TIP3     3138     TIP3     OH2      OT      -0.834000       15.9994           0
     19329 TIP3     3138     TIP3     H1       HT       0.417000       1.00800           0
     19330 TIP3     3138     TIP3     H2       HT       0.417000       1.00800           0
     19331 TIP3     3139     TIP3     OH2      OT      -0.834000       15.9994           0
     19332 TIP3     3139     TIP3     H1       HT       0.417000       1.00800           0
     19333 TIP3     3139     TIP3     H2       HT       0.417000       1.00800           0
     19334 TIP3     3140     TIP3     OH2      OT      -0.834000       15.9994           0
     19335 TIP3     3140     TIP3     H1       HT       0.417000       1.00800           0
     19336 TIP3     3140     TIP3     H2       HT       0.417000       1.00800           0
     19337 TIP3     3141     TIP3     OH2      OT      -0.834000       15.9994           0
     19338 TIP3     3141     TIP3     H1       HT       0.417000       1.00800           0
     19339 TIP3     3141     TIP3     H2       HT       0.417000       1.00800           0
     19340 TIP3     3142     TIP3     OH2      OT      -0.834000       15.9994           0
     19341 TIP3     3142     TIP3     H1       HT       0.417000       1.00800           0
     19342 TIP3     3142     TIP3     H2       HT       0.417000       1.00800           0
     19343 TIP3     3143     TIP3     OH2      OT      -0.834000       15.9994           0
     19344 TIP3     3143     TIP3     H1       HT       0.417000       1.00800           0
     19345 TIP3     3143     TIP3     H2       HT       0.417000       1.00800           0
     19346 TIP3     3144     TIP3     OH2      OT      -0.834000       15.9994           0
     19347 TIP3     3144     TIP3     H1       HT       0.417000       1.00800           0
     19348 TIP3     3144     TIP3     H2       HT       0.417000       1.00800           0
     19349 TIP3     3145     TIP3     OH2      OT      -0.834000       15.9994           0
     19350 TIP3     3145     TIP3     H1       HT       0.417000       1.00800           0
     19351 TIP3     3145     TIP3     H2       HT       0.417000       1.00800           0
     19352 TIP3     3146     TIP3     OH2      OT      -0.834000       15.9994           0
     19353 TIP3     3146     TIP3     H1       HT       0.417000       1.00800           0
     19354 TIP3     3146     TIP3     H2       HT       0.417000       1.00800           0
     19355 TIP3     3147     TIP3     OH2      OT      -0.834000       15.9994           0
     19356 TIP3     3147     TIP3     H1       HT       0.417000       1.00800           0
     19357 TIP3     3147     TIP3     H2       HT       0.417000       1.00800           0
     19358 TIP3     3148     TIP3     OH2      OT      -0.834000       15.9994           0
     19359 TIP3     3148     TIP3     H1       HT       0.417000       1.00800           0
     19360 TIP3     3148     TIP3     H2       HT       0.417000       1.00800           0
     19361 TIP3     3149     TIP3     OH2      OT      -0.834000       15.9994           0
     19362 TIP3     3149     TIP3     H1       HT       0.417000       1.00800           0
     19363 TIP3     3149     TIP3     H2       HT       0.417000       1.00800           0
     19364 TIP3     3150     TIP3     OH2      OT      -0.834000       15.9994           0
     19365 TIP3     3150     TIP3     H1       HT       0.417000       1.00800           0
     19366 TIP3     3150     TIP3     H2       HT       0.417000       1.00800           0
     19367 TIP3     3151     TIP3     OH2      OT      -0.834000       15.9994           0
     19368 TIP3     3151     TIP3     H1       HT       0.417000       1.00800           0
     19369 TIP3     3151     TIP3     H2       HT       0.417000       1.00800           0
     19370 TIP3     3152     TIP3     OH2      OT      -0.834000       15.9994           0
     19371 TIP3     3152     TIP3     H1       HT       0.417000       1.00800           0
     19372 TIP3     3152     TIP3     H2       HT       0.417000       1.00800           0
     19373 TIP3     3153     TIP3     OH2      OT      -0.834000       15.9994           0
     19374 TIP3     3153     TIP3     H1       HT       0.417000       1.00800           0
     19375 TIP3     3153     TIP3     H2       HT       0.417000       1.00800           0
     19376 TIP3     3154     TIP3     OH2      OT      -0.834000       15.9994           0
     19377 TIP3     3154     TIP3     H1       HT       0.417000       1.00800           0
     19378 TIP3     3154     TIP3     H2       HT       0.417000       1.00800           0
     19379 TIP3     3155     TIP3     OH2      OT      -0.834000       15.9994           0
     19380 TIP3     3155     TIP3     H1       HT       0.417000       1.00800           0
     19381 TIP3     3155     TIP3     H2       HT       0.417000       1.00800           0
     19382 TIP3     3156     TIP3     OH2      OT      -0.834000       15.9994           0
     19383 TIP3     3156     TIP3     H1       HT       0.417000       1.00800           0
     19384 TIP3     3156     TIP3     H2       HT       0.417000       1.00800           0
     19385 TIP3     3157     TIP3     OH2      OT      -0.834000       15.9994           0
     19386 TIP3     3157     TIP3     H1       HT       0.417000       1.00800           0
     19387 TIP3     3157     TIP3     H2       HT       0.417000       1.00800           0
     19388 TIP3     3158     TIP3     OH2      OT      -0.834000       15.9994           0
     19389 TIP3     3158     TIP3     H1       HT       0.417000       1.00800           0
     19390 TIP3     3158     TIP3     H2       HT       0.417000       1.00800           0
     19391 TIP3     3159     TIP3     OH2      OT      -0.834000       15.9994           0
     19392 TIP3     3159     TIP3     H1       HT       0.417000       1.00800           0
     19393 TIP3     3159     TIP3     H2       HT       0.417000       1.00800           0
     19394 TIP3     3160     TIP3     OH2      OT      -0.834000       15.9994           0
     19395 TIP3     3160     TIP3     H1       HT       0.417000       1.00800           0
     19396 TIP3     3160     TIP3     H2       HT       0.417000       1.00800           0
     19397 TIP3     3161     TIP3     OH2      OT      -0.834000       15.9994           0
     19398 TIP3     3161     TIP3     H1       HT       0.417000       1.00800           0
     19399 TIP3     3161     TIP3     H2       HT       0.417000       1.00800           0
     19400 TIP3     3162     TIP3     OH2      OT      -0.834000       15.9994           0
     19401 TIP3     3162     TIP3     H1       HT       0.417000       1.00800           0
     19402 TIP3     3162     TIP3     H2       HT       0.417000       1.00800           0
     19403 TIP3     3163     TIP3     OH2      OT      -0.834000       15.9994           0
     19404 TIP3     3163     TIP3     H1       HT       0.417000       1.00800           0
     19405 TIP3     3163     TIP3     H2       HT       0.417000       1.00800           0
     19406 TIP3     3164     TIP3     OH2      OT      -0.834000       15.9994           0
     19407 TIP3     3164     TIP3     H1       HT       0.417000       1.00800           0
     19408 TIP3     3164     TIP3     H2       HT       0.417000       1.00800           0
     19409 TIP3     3165     TIP3     OH2      OT      -0.834000       15.9994           0
     19410 TIP3     3165     TIP3     H1       HT       0.417000       1.00800           0
     19411 TIP3     3165     TIP3     H2       HT       0.417000       1.00800           0
     19412 TIP3     3166     TIP3     OH2      OT      -0.834000       15.9994           0
     19413 TIP3     3166     TIP3     H1       HT       0.417000       1.00800           0
     19414 TIP3     3166     TIP3     H2       HT       0.417000       1.00800           0
     19415 TIP3     3167     TIP3     OH2      OT      -0.834000       15.9994           0
     19416 TIP3     3167     TIP3     H1       HT       0.417000       1.00800           0
     19417 TIP3     3167     TIP3     H2       HT       0.417000       1.00800           0
     19418 TIP3     3168     TIP3     OH2      OT      -0.834000       15.9994           0
     19419 TIP3     3168     TIP3     H1       HT       0.417000       1.00800           0
     19420 TIP3     3168     TIP3     H2       HT       0.417000       1.00800           0
     19421 TIP3     3169     TIP3     OH2      OT      -0.834000       15.9994           0
     19422 TIP3     3169     TIP3     H1       HT       0.417000       1.00800           0
     19423 TIP3     3169     TIP3     H2       HT       0.417000       1.00800           0
     19424 TIP3     3170     TIP3     OH2      OT      -0.834000       15.9994           0
     19425 TIP3     3170     TIP3     H1       HT       0.417000       1.00800           0
     19426 TIP3     3170     TIP3     H2       HT       0.417000       1.00800           0
     19427 TIP3     3171     TIP3     OH2      OT      -0.834000       15.9994           0
     19428 TIP3     3171     TIP3     H1       HT       0.417000       1.00800           0
     19429 TIP3     3171     TIP3     H2       HT       0.417000       1.00800           0
     19430 TIP3     3172     TIP3     OH2      OT      -0.834000       15.9994           0
     19431 TIP3     3172     TIP3     H1       HT       0.417000       1.00800           0
     19432 TIP3     3172     TIP3     H2       HT       0.417000       1.00800           0
     19433 TIP3     3173     TIP3     OH2      OT      -0.834000       15.9994           0
     19434 TIP3     3173     TIP3     H1       HT       0.417000       1.00800           0
     19435 TIP3     3173     TIP3     H2       HT       0.417000       1.00800           0
     19436 TIP3     3174     TIP3     OH2      OT      -0.834000       15.9994           0
     19437 TIP3     3174     TIP3     H1       HT       0.417000       1.00800           0
     19438 TIP3     3174     TIP3     H2       HT       0.417000       1.00800           0
     19439 TIP3     3175     TIP3     OH2      OT      -0.834000       15.9994           0
     19440 TIP3     3175     TIP3     H1       HT       0.417000       1.00800           0
     19441 TIP3     3175     TIP3     H2       HT       0.417000       1.00800           0
     19442 TIP3     3176     TIP3     OH2      OT      -0.834000       15.9994           0
     19443 TIP3     3176     TIP3     H1       HT       0.417000       1.00800           0
     19444 TIP3     3176     TIP3     H2       HT       0.417000       1.00800           0
     19445 TIP3     3177     TIP3     OH2      OT      -0.834000       15.9994           0
     19446 TIP3     3177     TIP3     H1       HT       0.417000       1.00800           0
     19447 TIP3     3177     TIP3     H2       HT       0.417000       1.00800           0
     19448 TIP3     3178     TIP3     OH2      OT      -0.834000       15.9994           0
     19449 TIP3     3178     TIP3     H1       HT       0.417000       1.00800           0
     19450 TIP3     3178     TIP3     H2       HT       0.417000       1.00800           0
     19451 TIP3     3179     TIP3     OH2      OT      -0.834000       15.9994           0
     19452 TIP3     3179     TIP3     H1       HT       0.417000       1.00800           0
     19453 TIP3     3179     TIP3     H2       HT       0.417000       1.00800           0
     19454 TIP3     3180     TIP3     OH2      OT      -0.834000       15.9994           0
     19455 TIP3     3180     TIP3     H1       HT       0.417000       1.00800           0
     19456 TIP3     3180     TIP3     H2       HT       0.417000       1.00800           0
     19457 TIP3     3181     TIP3     OH2      OT      -0.834000       15.9994           0
     19458 TIP3     3181     TIP3     H1       HT       0.417000       1.00800           0
     19459 TIP3     3181     TIP3     H2       HT       0.417000       1.00800           0
     19460 TIP3     3182     TIP3     OH2      OT      -0.834000       15.9994           0
     19461 TIP3     3182     TIP3     H1       HT       0.417000       1.00800           0
     19462 TIP3     3182     TIP3     H2       HT       0.417000       1.00800           0
     19463 TIP3     3183     TIP3     OH2      OT      -0.834000       15.9994           0
     19464 TIP3     3183     TIP3     H1       HT       0.417000       1.00800           0
     19465 TIP3     3183     TIP3     H2       HT       0.417000       1.00800           0
     19466 TIP3     3184     TIP3     OH2      OT      -0.834000       15.9994           0
     19467 TIP3     3184     TIP3     H1       HT       0.417000       1.00800           0
     19468 TIP3     3184     TIP3     H2       HT       0.417000       1.00800           0
     19469 TIP3     3185     TIP3     OH2      OT      -0.834000       15.9994           0
     19470 TIP3     3185     TIP3     H1       HT       0.417000       1.00800           0
     19471 TIP3     3185     TIP3     H2       HT       0.417000       1.00800           0
     19472 TIP3     3186     TIP3     OH2      OT      -0.834000       15.9994           0
     19473 TIP3     3186     TIP3     H1       HT       0.417000       1.00800           0
     19474 TIP3     3186     TIP3     H2       HT       0.417000       1.00800           0
     19475 TIP3     3187     TIP3     OH2      OT      -0.834000       15.9994           0
     19476 TIP3     3187     TIP3     H1       HT       0.417000       1.00800           0
     19477 TIP3     3187     TIP3     H2       HT       0.417000       1.00800           0
     19478 TIP3     3188     TIP3     OH2      OT      -0.834000       15.9994           0
     19479 TIP3     3188     TIP3     H1       HT       0.417000       1.00800           0
     19480 TIP3     3188     TIP3     H2       HT       0.417000       1.00800           0
     19481 TIP3     3189     TIP3     OH2      OT      -0.834000       15.9994           0
     19482 TIP3     3189     TIP3     H1       HT       0.417000       1.00800           0
     19483 TIP3     3189     TIP3     H2       HT       0.417000       1.00800           0
     19484 TIP3     3190     TIP3     OH2      OT      -0.834000       15.9994           0
     19485 TIP3     3190     TIP3     H1       HT       0.417000       1.00800           0
     19486 TIP3     3190     TIP3     H2       HT       0.417000       1.00800           0
     19487 TIP3     3191     TIP3     OH2      OT      -0.834000       15.9994           0
     19488 TIP3     3191     TIP3     H1       HT       0.417000       1.00800           0
     19489 TIP3     3191     TIP3     H2       HT       0.417000       1.00800           0
     19490 TIP3     3192     TIP3     OH2      OT      -0.834000       15.9994           0
     19491 TIP3     3192     TIP3     H1       HT       0.417000       1.00800           0
     19492 TIP3     3192     TIP3     H2       HT       0.417000       1.00800           0
     19493 TIP3     3193     TIP3     OH2      OT      -0.834000       15.9994           0
     19494 TIP3     3193     TIP3     H1       HT       0.417000       1.00800           0
     19495 TIP3     3193     TIP3     H2       HT       0.417000       1.00800           0
     19496 TIP3     3194     TIP3     OH2      OT      -0.834000       15.9994           0
     19497 TIP3     3194     TIP3     H1       HT       0.417000       1.00800           0
     19498 TIP3     3194     TIP3     H2       HT       0.417000       1.00800           0
     19499 TIP3     3195     TIP3     OH2      OT      -0.834000       15.9994           0
     19500 TIP3     3195     TIP3     H1       HT       0.417000       1.00800           0
     19501 TIP3     3195     TIP3     H2       HT       0.417000       1.00800           0
     19502 TIP3     3196     TIP3     OH2      OT      -0.834000       15.9994           0
     19503 TIP3     3196     TIP3     H1       HT       0.417000       1.00800           0
     19504 TIP3     3196     TIP3     H2       HT       0.417000       1.00800           0
     19505 TIP3     3197     TIP3     OH2      OT      -0.834000       15.9994           0
     19506 TIP3     3197     TIP3     H1       HT       0.417000       1.00800           0
     19507 TIP3     3197     TIP3     H2       HT       0.417000       1.00800           0
     19508 TIP3     3198     TIP3     OH2      OT      -0.834000       15.9994           0
     19509 TIP3     3198     TIP3     H1       HT       0.417000       1.00800           0
     19510 TIP3     3198     TIP3     H2       HT       0.417000       1.00800           0
     19511 TIP3     3199     TIP3     OH2      OT      -0.834000       15.9994           0
     19512 TIP3     3199     TIP3     H1       HT       0.417000       1.00800           0
     19513 TIP3     3199     TIP3     H2       HT       0.417000       1.00800           0
     19514 TIP3     3200     TIP3     OH2      OT      -0.834000       15.9994           0
     19515 TIP3     3200     TIP3     H1       HT       0.417000       1.00800           0
     19516 TIP3     3200     TIP3     H2       HT       0.417000       1.00800           0
     19517 TIP3     3201     TIP3     OH2      OT      -0.834000       15.9994           0
     19518 TIP3     3201     TIP3     H1       HT       0.417000       1.00800           0
     19519 TIP3     3201     TIP3     H2       HT       0.417000       1.00800           0
     19520 TIP3     3202     TIP3     OH2      OT      -0.834000       15.9994           0
     19521 TIP3     3202     TIP3     H1       HT       0.417000       1.00800           0
     19522 TIP3     3202     TIP3     H2       HT       0.417000       1.00800           0
     19523 TIP3     3203     TIP3     OH2      OT      -0.834000       15.9994           0
     19524 TIP3     3203     TIP3     H1       HT       0.417000       1.00800           0
     19525 TIP3     3203     TIP3     H2       HT       0.417000       1.00800           0
     19526 TIP3     3204     TIP3     OH2      OT      -0.834000       15.9994           0
     19527 TIP3     3204     TIP3     H1       HT       0.417000       1.00800           0
     19528 TIP3     3204     TIP3     H2       HT       0.417000       1.00800           0
     19529 TIP3     3205     TIP3     OH2      OT      -0.834000       15.9994           0
     19530 TIP3     3205     TIP3     H1       HT       0.417000       1.00800           0
     19531 TIP3     3205     TIP3     H2       HT       0.417000       1.00800           0
     19532 TIP3     3206     TIP3     OH2      OT      -0.834000       15.9994           0
     19533 TIP3     3206     TIP3     H1       HT       0.417000       1.00800           0
     19534 TIP3     3206     TIP3     H2       HT       0.417000       1.00800           0
     19535 TIP3     3207     TIP3     OH2      OT      -0.834000       15.9994           0
     19536 TIP3     3207     TIP3     H1       HT       0.417000       1.00800           0
     19537 TIP3     3207     TIP3     H2       HT       0.417000       1.00800           0
     19538 TIP3     3208     TIP3     OH2      OT      -0.834000       15.9994           0
     19539 TIP3     3208     TIP3     H1       HT       0.417000       1.00800           0
     19540 TIP3     3208     TIP3     H2       HT       0.417000       1.00800           0
     19541 TIP3     3209     TIP3     OH2      OT      -0.834000       15.9994           0
     19542 TIP3     3209     TIP3     H1       HT       0.417000       1.00800           0
     19543 TIP3     3209     TIP3     H2       HT       0.417000       1.00800           0
     19544 TIP3     3210     TIP3     OH2      OT      -0.834000       15.9994           0
     19545 TIP3     3210     TIP3     H1       HT       0.417000       1.00800           0
     19546 TIP3     3210     TIP3     H2       HT       0.417000       1.00800           0
     19547 TIP3     3211     TIP3     OH2      OT      -0.834000       15.9994           0
     19548 TIP3     3211     TIP3     H1       HT       0.417000       1.00800           0
     19549 TIP3     3211     TIP3     H2       HT       0.417000       1.00800           0
     19550 TIP3     3212     TIP3     OH2      OT      -0.834000       15.9994           0
     19551 TIP3     3212     TIP3     H1       HT       0.417000       1.00800           0
     19552 TIP3     3212     TIP3     H2       HT       0.417000       1.00800           0
     19553 TIP3     3213     TIP3     OH2      OT      -0.834000       15.9994           0
     19554 TIP3     3213     TIP3     H1       HT       0.417000       1.00800           0
     19555 TIP3     3213     TIP3     H2       HT       0.417000       1.00800           0
     19556 TIP3     3214     TIP3     OH2      OT      -0.834000       15.9994           0
     19557 TIP3     3214     TIP3     H1       HT       0.417000       1.00800           0
     19558 TIP3     3214     TIP3     H2       HT       0.417000       1.00800           0
     19559 TIP3     3215     TIP3     OH2      OT      -0.834000       15.9994           0
     19560 TIP3     3215     TIP3     H1       HT       0.417000       1.00800           0
     19561 TIP3     3215     TIP3     H2       HT       0.417000       1.00800           0
     19562 TIP3     3216     TIP3     OH2      OT      -0.834000       15.9994           0
     19563 TIP3     3216     TIP3     H1       HT       0.417000       1.00800           0
     19564 TIP3     3216     TIP3     H2       HT       0.417000       1.00800           0
     19565 TIP3     3217     TIP3     OH2      OT      -0.834000       15.9994           0
     19566 TIP3     3217     TIP3     H1       HT       0.417000       1.00800           0
     19567 TIP3     3217     TIP3     H2       HT       0.417000       1.00800           0
     19568 TIP3     3218     TIP3     OH2      OT      -0.834000       15.9994           0
     19569 TIP3     3218     TIP3     H1       HT       0.417000       1.00800           0
     19570 TIP3     3218     TIP3     H2       HT       0.417000       1.00800           0
     19571 TIP3     3219     TIP3     OH2      OT      -0.834000       15.9994           0
     19572 TIP3     3219     TIP3     H1       HT       0.417000       1.00800           0
     19573 TIP3     3219     TIP3     H2       HT       0.417000       1.00800           0
     19574 TIP3     3220     TIP3     OH2      OT      -0.834000       15.9994           0
     19575 TIP3     3220     TIP3     H1       HT       0.417000       1.00800           0
     19576 TIP3     3220     TIP3     H2       HT       0.417000       1.00800           0
     19577 TIP3     3221     TIP3     OH2      OT      -0.834000       15.9994           0
     19578 TIP3     3221     TIP3     H1       HT       0.417000       1.00800           0
     19579 TIP3     3221     TIP3     H2       HT       0.417000       1.00800           0
     19580 TIP3     3222     TIP3     OH2      OT      -0.834000       15.9994           0
     19581 TIP3     3222     TIP3     H1       HT       0.417000       1.00800           0
     19582 TIP3     3222     TIP3     H2       HT       0.417000       1.00800           0
     19583 TIP3     3223     TIP3     OH2      OT      -0.834000       15.9994           0
     19584 TIP3     3223     TIP3     H1       HT       0.417000       1.00800           0
     19585 TIP3     3223     TIP3     H2       HT       0.417000       1.00800           0
     19586 TIP3     3224     TIP3     OH2      OT      -0.834000       15.9994           0
     19587 TIP3     3224     TIP3     H1       HT       0.417000       1.00800           0
     19588 TIP3     3224     TIP3     H2       HT       0.417000       1.00800           0
     19589 TIP3     3225     TIP3     OH2      OT      -0.834000       15.9994           0
     19590 TIP3     3225     TIP3     H1       HT       0.417000       1.00800           0
     19591 TIP3     3225     TIP3     H2       HT       0.417000       1.00800           0
     19592 TIP3     3226     TIP3     OH2      OT      -0.834000       15.9994           0
     19593 TIP3     3226     TIP3     H1       HT       0.417000       1.00800           0
     19594 TIP3     3226     TIP3     H2       HT       0.417000       1.00800           0
     19595 TIP3     3227     TIP3     OH2      OT      -0.834000       15.9994           0
     19596 TIP3     3227     TIP3     H1       HT       0.417000       1.00800           0
     19597 TIP3     3227     TIP3     H2       HT       0.417000       1.00800           0
     19598 TIP3     3228     TIP3     OH2      OT      -0.834000       15.9994           0
     19599 TIP3     3228     TIP3     H1       HT       0.417000       1.00800           0
     19600 TIP3     3228     TIP3     H2       HT       0.417000       1.00800           0
     19601 TIP3     3229     TIP3     OH2      OT      -0.834000       15.9994           0
     19602 TIP3     3229     TIP3     H1       HT       0.417000       1.00800           0
     19603 TIP3     3229     TIP3     H2       HT       0.417000       1.00800           0
     19604 TIP3     3230     TIP3     OH2      OT      -0.834000       15.9994           0
     19605 TIP3     3230     TIP3     H1       HT       0.417000       1.00800           0
     19606 TIP3     3230     TIP3     H2       HT       0.417000       1.00800           0
     19607 TIP3     3231     TIP3     OH2      OT      -0.834000       15.9994           0
     19608 TIP3     3231     TIP3     H1       HT       0.417000       1.00800           0
     19609 TIP3     3231     TIP3     H2       HT       0.417000       1.00800           0
     19610 TIP3     3232     TIP3     OH2      OT      -0.834000       15.9994           0
     19611 TIP3     3232     TIP3     H1       HT       0.417000       1.00800           0
     19612 TIP3     3232     TIP3     H2       HT       0.417000       1.00800           0
     19613 TIP3     3233     TIP3     OH2      OT      -0.834000       15.9994           0
     19614 TIP3     3233     TIP3     H1       HT       0.417000       1.00800           0
     19615 TIP3     3233     TIP3     H2       HT       0.417000       1.00800           0
     19616 TIP3     3234     TIP3     OH2      OT      -0.834000       15.9994           0
     19617 TIP3     3234     TIP3     H1       HT       0.417000       1.00800           0
     19618 TIP3     3234     TIP3     H2       HT       0.417000       1.00800           0
     19619 TIP3     3235     TIP3     OH2      OT      -0.834000       15.9994           0
     19620 TIP3     3235     TIP3     H1       HT       0.417000       1.00800           0
     19621 TIP3     3235     TIP3     H2       HT       0.417000       1.00800           0
     19622 TIP3     3236     TIP3     OH2      OT      -0.834000       15.9994           0
     19623 TIP3     3236     TIP3     H1       HT       0.417000       1.00800           0
     19624 TIP3     3236     TIP3     H2       HT       0.417000       1.00800           0
     19625 TIP3     3237     TIP3     OH2      OT      -0.834000       15.9994           0
     19626 TIP3     3237     TIP3     H1       HT       0.417000       1.00800           0
     19627 TIP3     3237     TIP3     H2       HT       0.417000       1.00800           0
     19628 TIP3     3238     TIP3     OH2      OT      -0.834000       15.9994           0
     19629 TIP3     3238     TIP3     H1       HT       0.417000       1.00800           0
     19630 TIP3     3238     TIP3     H2       HT       0.417000       1.00800           0
     19631 TIP3     3239     TIP3     OH2      OT      -0.834000       15.9994           0
     19632 TIP3     3239     TIP3     H1       HT       0.417000       1.00800           0
     19633 TIP3     3239     TIP3     H2       HT       0.417000       1.00800           0
     19634 TIP3     3240     TIP3     OH2      OT      -0.834000       15.9994           0
     19635 TIP3     3240     TIP3     H1       HT       0.417000       1.00800           0
     19636 TIP3     3240     TIP3     H2       HT       0.417000       1.00800           0
     19637 TIP3     3241     TIP3     OH2      OT      -0.834000       15.9994           0
     19638 TIP3     3241     TIP3     H1       HT       0.417000       1.00800           0
     19639 TIP3     3241     TIP3     H2       HT       0.417000       1.00800           0
     19640 TIP3     3242     TIP3     OH2      OT      -0.834000       15.9994           0
     19641 TIP3     3242     TIP3     H1       HT       0.417000       1.00800           0
     19642 TIP3     3242     TIP3     H2       HT       0.417000       1.00800           0
     19643 TIP3     3243     TIP3     OH2      OT      -0.834000       15.9994           0
     19644 TIP3     3243     TIP3     H1       HT       0.417000       1.00800           0
     19645 TIP3     3243     TIP3     H2       HT       0.417000       1.00800           0
     19646 TIP3     3244     TIP3     OH2      OT      -0.834000       15.9994           0
     19647 TIP3     3244     TIP3     H1       HT       0.417000       1.00800           0
     19648 TIP3     3244     TIP3     H2       HT       0.417000       1.00800           0
     19649 TIP3     3245     TIP3     OH2      OT      -0.834000       15.9994           0
     19650 TIP3     3245     TIP3     H1       HT       0.417000       1.00800           0
     19651 TIP3     3245     TIP3     H2       HT       0.417000       1.00800           0
     19652 TIP3     3246     TIP3     OH2      OT      -0.834000       15.9994           0
     19653 TIP3     3246     TIP3     H1       HT       0.417000       1.00800           0
     19654 TIP3     3246     TIP3     H2       HT       0.417000       1.00800           0
     19655 TIP3     3247     TIP3     OH2      OT      -0.834000       15.9994           0
     19656 TIP3     3247     TIP3     H1       HT       0.417000       1.00800           0
     19657 TIP3     3247     TIP3     H2       HT       0.417000       1.00800           0
     19658 TIP3     3248     TIP3     OH2      OT      -0.834000       15.9994           0
     19659 TIP3     3248     TIP3     H1       HT       0.417000       1.00800           0
     19660 TIP3     3248     TIP3     H2       HT       0.417000       1.00800           0
     19661 TIP3     3249     TIP3     OH2      OT      -0.834000       15.9994           0
     19662 TIP3     3249     TIP3     H1       HT       0.417000       1.00800           0
     19663 TIP3     3249     TIP3     H2       HT       0.417000       1.00800           0
     19664 TIP3     3250     TIP3     OH2      OT      -0.834000       15.9994           0
     19665 TIP3     3250     TIP3     H1       HT       0.417000       1.00800           0
     19666 TIP3     3250     TIP3     H2       HT       0.417000       1.00800           0
     19667 TIP3     3251     TIP3     OH2      OT      -0.834000       15.9994           0
     19668 TIP3     3251     TIP3     H1       HT       0.417000       1.00800           0
     19669 TIP3     3251     TIP3     H2       HT       0.417000       1.00800           0
     19670 TIP3     3252     TIP3     OH2      OT      -0.834000       15.9994           0
     19671 TIP3     3252     TIP3     H1       HT       0.417000       1.00800           0
     19672 TIP3     3252     TIP3     H2       HT       0.417000       1.00800           0
     19673 TIP3     3253     TIP3     OH2      OT      -0.834000       15.9994           0
     19674 TIP3     3253     TIP3     H1       HT       0.417000       1.00800           0
     19675 TIP3     3253     TIP3     H2       HT       0.417000       1.00800           0
     19676 TIP3     3254     TIP3     OH2      OT      -0.834000       15.9994           0
     19677 TIP3     3254     TIP3     H1       HT       0.417000       1.00800           0
     19678 TIP3     3254     TIP3     H2       HT       0.417000       1.00800           0
     19679 TIP3     3255     TIP3     OH2      OT      -0.834000       15.9994           0
     19680 TIP3     3255     TIP3     H1       HT       0.417000       1.00800           0
     19681 TIP3     3255     TIP3     H2       HT       0.417000       1.00800           0
     19682 TIP3     3256     TIP3     OH2      OT      -0.834000       15.9994           0
     19683 TIP3     3256     TIP3     H1       HT       0.417000       1.00800           0
     19684 TIP3     3256     TIP3     H2       HT       0.417000       1.00800           0
     19685 TIP3     3257     TIP3     OH2      OT      -0.834000       15.9994           0
     19686 TIP3     3257     TIP3     H1       HT       0.417000       1.00800           0
     19687 TIP3     3257     TIP3     H2       HT       0.417000       1.00800           0
     19688 TIP3     3258     TIP3     OH2      OT      -0.834000       15.9994           0
     19689 TIP3     3258     TIP3     H1       HT       0.417000       1.00800           0
     19690 TIP3     3258     TIP3     H2       HT       0.417000       1.00800           0
     19691 TIP3     3259     TIP3     OH2      OT      -0.834000       15.9994           0
     19692 TIP3     3259     TIP3     H1       HT       0.417000       1.00800           0
     19693 TIP3     3259     TIP3     H2       HT       0.417000       1.00800           0
     19694 TIP3     3260     TIP3     OH2      OT      -0.834000       15.9994           0
     19695 TIP3     3260     TIP3     H1       HT       0.417000       1.00800           0
     19696 TIP3     3260     TIP3     H2       HT       0.417000       1.00800           0
     19697 TIP3     3261     TIP3     OH2      OT      -0.834000       15.9994           0
     19698 TIP3     3261     TIP3     H1       HT       0.417000       1.00800           0
     19699 TIP3     3261     TIP3     H2       HT       0.417000       1.00800           0
     19700 TIP3     3262     TIP3     OH2      OT      -0.834000       15.9994           0
     19701 TIP3     3262     TIP3     H1       HT       0.417000       1.00800           0
     19702 TIP3     3262     TIP3     H2       HT       0.417000       1.00800           0
     19703 TIP3     3263     TIP3     OH2      OT      -0.834000       15.9994           0
     19704 TIP3     3263     TIP3     H1       HT       0.417000       1.00800           0
     19705 TIP3     3263     TIP3     H2       HT       0.417000       1.00800           0
     19706 TIP3     3264     TIP3     OH2      OT      -0.834000       15.9994           0
     19707 TIP3     3264     TIP3     H1       HT       0.417000       1.00800           0
     19708 TIP3     3264     TIP3     H2       HT       0.417000       1.00800           0
     19709 TIP3     3265     TIP3     OH2      OT      -0.834000       15.9994           0
     19710 TIP3     3265     TIP3     H1       HT       0.417000       1.00800           0
     19711 TIP3     3265     TIP3     H2       HT       0.417000       1.00800           0
     19712 TIP3     3266     TIP3     OH2      OT      -0.834000       15.9994           0
     19713 TIP3     3266     TIP3     H1       HT       0.417000       1.00800           0
     19714 TIP3     3266     TIP3     H2       HT       0.417000       1.00800           0
     19715 TIP3     3267     TIP3     OH2      OT      -0.834000       15.9994           0
     19716 TIP3     3267     TIP3     H1       HT       0.417000       1.00800           0
     19717 TIP3     3267     TIP3     H2       HT       0.417000       1.00800           0
     19718 TIP3     3268     TIP3     OH2      OT      -0.834000       15.9994           0
     19719 TIP3     3268     TIP3     H1       HT       0.417000       1.00800           0
     19720 TIP3     3268     TIP3     H2       HT       0.417000       1.00800           0
     19721 TIP3     3269     TIP3     OH2      OT      -0.834000       15.9994           0
     19722 TIP3     3269     TIP3     H1       HT       0.417000       1.00800           0
     19723 TIP3     3269     TIP3     H2       HT       0.417000       1.00800           0
     19724 TIP3     3270     TIP3     OH2      OT      -0.834000       15.9994           0
     19725 TIP3     3270     TIP3     H1       HT       0.417000       1.00800           0
     19726 TIP3     3270     TIP3     H2       HT       0.417000       1.00800           0
     19727 TIP3     3271     TIP3     OH2      OT      -0.834000       15.9994           0
     19728 TIP3     3271     TIP3     H1       HT       0.417000       1.00800           0
     19729 TIP3     3271     TIP3     H2       HT       0.417000       1.00800           0
     19730 TIP3     3272     TIP3     OH2      OT      -0.834000       15.9994           0
     19731 TIP3     3272     TIP3     H1       HT       0.417000       1.00800           0
     19732 TIP3     3272     TIP3     H2       HT       0.417000       1.00800           0
     19733 TIP3     3273     TIP3     OH2      OT      -0.834000       15.9994           0
     19734 TIP3     3273     TIP3     H1       HT       0.417000       1.00800           0
     19735 TIP3     3273     TIP3     H2       HT       0.417000       1.00800           0
     19736 TIP3     3274     TIP3     OH2      OT      -0.834000       15.9994           0
     19737 TIP3     3274     TIP3     H1       HT       0.417000       1.00800           0
     19738 TIP3     3274     TIP3     H2       HT       0.417000       1.00800           0
     19739 TIP3     3275     TIP3     OH2      OT      -0.834000       15.9994           0
     19740 TIP3     3275     TIP3     H1       HT       0.417000       1.00800           0
     19741 TIP3     3275     TIP3     H2       HT       0.417000       1.00800           0
     19742 TIP3     3276     TIP3     OH2      OT      -0.834000       15.9994           0
     19743 TIP3     3276     TIP3     H1       HT       0.417000       1.00800           0
     19744 TIP3     3276     TIP3     H2       HT       0.417000       1.00800           0
     19745 TIP3     3277     TIP3     OH2      OT      -0.834000       15.9994           0
     19746 TIP3     3277     TIP3     H1       HT       0.417000       1.00800           0
     19747 TIP3     3277     TIP3     H2       HT       0.417000       1.00800           0
     19748 TIP3     3278     TIP3     OH2      OT      -0.834000       15.9994           0
     19749 TIP3     3278     TIP3     H1       HT       0.417000       1.00800           0
     19750 TIP3     3278     TIP3     H2       HT       0.417000       1.00800           0
     19751 TIP3     3279     TIP3     OH2      OT      -0.834000       15.9994           0
     19752 TIP3     3279     TIP3     H1       HT       0.417000       1.00800           0
     19753 TIP3     3279     TIP3     H2       HT       0.417000       1.00800           0
     19754 TIP3     3280     TIP3     OH2      OT      -0.834000       15.9994           0
     19755 TIP3     3280     TIP3     H1       HT       0.417000       1.00800           0
     19756 TIP3     3280     TIP3     H2       HT       0.417000       1.00800           0
     19757 TIP3     3281     TIP3     OH2      OT      -0.834000       15.9994           0
     19758 TIP3     3281     TIP3     H1       HT       0.417000       1.00800           0
     19759 TIP3     3281     TIP3     H2       HT       0.417000       1.00800           0
     19760 TIP3     3282     TIP3     OH2      OT      -0.834000       15.9994           0
     19761 TIP3     3282     TIP3     H1       HT       0.417000       1.00800           0
     19762 TIP3     3282     TIP3     H2       HT       0.417000       1.00800           0
     19763 TIP3     3283     TIP3     OH2      OT      -0.834000       15.9994           0
     19764 TIP3     3283     TIP3     H1       HT       0.417000       1.00800           0
     19765 TIP3     3283     TIP3     H2       HT       0.417000       1.00800           0
     19766 TIP3     3284     TIP3     OH2      OT      -0.834000       15.9994           0
     19767 TIP3     3284     TIP3     H1       HT       0.417000       1.00800           0
     19768 TIP3     3284     TIP3     H2       HT       0.417000       1.00800           0
     19769 TIP3     3285     TIP3     OH2      OT      -0.834000       15.9994           0
     19770 TIP3     3285     TIP3     H1       HT       0.417000       1.00800           0
     19771 TIP3     3285     TIP3     H2       HT       0.417000       1.00800           0
     19772 TIP3     3286     TIP3     OH2      OT      -0.834000       15.9994           0
     19773 TIP3     3286     TIP3     H1       HT       0.417000       1.00800           0
     19774 TIP3     3286     TIP3     H2       HT       0.417000       1.00800           0
     19775 TIP3     3287     TIP3     OH2      OT      -0.834000       15.9994           0
     19776 TIP3     3287     TIP3     H1       HT       0.417000       1.00800           0
     19777 TIP3     3287     TIP3     H2       HT       0.417000       1.00800           0
     19778 TIP3     3288     TIP3     OH2      OT      -0.834000       15.9994           0
     19779 TIP3     3288     TIP3     H1       HT       0.417000       1.00800           0
     19780 TIP3     3288     TIP3     H2       HT       0.417000       1.00800           0
     19781 TIP3     3289     TIP3     OH2      OT      -0.834000       15.9994           0
     19782 TIP3     3289     TIP3     H1       HT       0.417000       1.00800           0
     19783 TIP3     3289     TIP3     H2       HT       0.417000       1.00800           0
     19784 TIP3     3290     TIP3     OH2      OT      -0.834000       15.9994           0
     19785 TIP3     3290     TIP3     H1       HT       0.417000       1.00800           0
     19786 TIP3     3290     TIP3     H2       HT       0.417000       1.00800           0
     19787 TIP3     3291     TIP3     OH2      OT      -0.834000       15.9994           0
     19788 TIP3     3291     TIP3     H1       HT       0.417000       1.00800           0
     19789 TIP3     3291     TIP3     H2       HT       0.417000       1.00800           0
     19790 TIP3     3292     TIP3     OH2      OT      -0.834000       15.9994           0
     19791 TIP3     3292     TIP3     H1       HT       0.417000       1.00800           0
     19792 TIP3     3292     TIP3     H2       HT       0.417000       1.00800           0
     19793 TIP3     3293     TIP3     OH2      OT      -0.834000       15.9994           0
     19794 TIP3     3293     TIP3     H1       HT       0.417000       1.00800           0
     19795 TIP3     3293     TIP3     H2       HT       0.417000       1.00800           0
     19796 TIP3     3294     TIP3     OH2      OT      -0.834000       15.9994           0
     19797 TIP3     3294     TIP3     H1       HT       0.417000       1.00800           0
     19798 TIP3     3294     TIP3     H2       HT       0.417000       1.00800           0
     19799 TIP3     3295     TIP3     OH2      OT      -0.834000       15.9994           0
     19800 TIP3     3295     TIP3     H1       HT       0.417000       1.00800           0
     19801 TIP3     3295     TIP3     H2       HT       0.417000       1.00800           0
     19802 TIP3     3296     TIP3     OH2      OT      -0.834000       15.9994           0
     19803 TIP3     3296     TIP3     H1       HT       0.417000       1.00800           0
     19804 TIP3     3296     TIP3     H2       HT       0.417000       1.00800           0
     19805 TIP3     3297     TIP3     OH2      OT      -0.834000       15.9994           0
     19806 TIP3     3297     TIP3     H1       HT       0.417000       1.00800           0
     19807 TIP3     3297     TIP3     H2       HT       0.417000       1.00800           0
     19808 TIP3     3298     TIP3     OH2      OT      -0.834000       15.9994           0
     19809 TIP3     3298     TIP3     H1       HT       0.417000       1.00800           0
     19810 TIP3     3298     TIP3     H2       HT       0.417000       1.00800           0
     19811 TIP3     3299     TIP3     OH2      OT      -0.834000       15.9994           0
     19812 TIP3     3299     TIP3     H1       HT       0.417000       1.00800           0
     19813 TIP3     3299     TIP3     H2       HT       0.417000       1.00800           0
     19814 TIP3     3300     TIP3     OH2      OT      -0.834000       15.9994           0
     19815 TIP3     3300     TIP3     H1       HT       0.417000       1.00800           0
     19816 TIP3     3300     TIP3     H2       HT       0.417000       1.00800           0
     19817 TIP3     3301     TIP3     OH2      OT      -0.834000       15.9994           0
     19818 TIP3     3301     TIP3     H1       HT       0.417000       1.00800           0
     19819 TIP3     3301     TIP3     H2       HT       0.417000       1.00800           0
     19820 TIP3     3302     TIP3     OH2      OT      -0.834000       15.9994           0
     19821 TIP3     3302     TIP3     H1       HT       0.417000       1.00800           0
     19822 TIP3     3302     TIP3     H2       HT       0.417000       1.00800           0
     19823 TIP3     3303     TIP3     OH2      OT      -0.834000       15.9994           0
     19824 TIP3     3303     TIP3     H1       HT       0.417000       1.00800           0
     19825 TIP3     3303     TIP3     H2       HT       0.417000       1.00800           0
     19826 TIP3     3304     TIP3     OH2      OT      -0.834000       15.9994           0
     19827 TIP3     3304     TIP3     H1       HT       0.417000       1.00800           0
     19828 TIP3     3304     TIP3     H2       HT       0.417000       1.00800           0
     19829 TIP3     3305     TIP3     OH2      OT      -0.834000       15.9994           0
     19830 TIP3     3305     TIP3     H1       HT       0.417000       1.00800           0
     19831 TIP3     3305     TIP3     H2       HT       0.417000       1.00800           0
     19832 TIP3     3306     TIP3     OH2      OT      -0.834000       15.9994           0
     19833 TIP3     3306     TIP3     H1       HT       0.417000       1.00800           0
     19834 TIP3     3306     TIP3     H2       HT       0.417000       1.00800           0
     19835 TIP3     3307     TIP3     OH2      OT      -0.834000       15.9994           0
     19836 TIP3     3307     TIP3     H1       HT       0.417000       1.00800           0
     19837 TIP3     3307     TIP3     H2       HT       0.417000       1.00800           0
     19838 TIP3     3308     TIP3     OH2      OT      -0.834000       15.9994           0
     19839 TIP3     3308     TIP3     H1       HT       0.417000       1.00800           0
     19840 TIP3     3308     TIP3     H2       HT       0.417000       1.00800           0
     19841 TIP3     3309     TIP3     OH2      OT      -0.834000       15.9994           0
     19842 TIP3     3309     TIP3     H1       HT       0.417000       1.00800           0
     19843 TIP3     3309     TIP3     H2       HT       0.417000       1.00800           0
     19844 TIP3     3310     TIP3     OH2      OT      -0.834000       15.9994           0
     19845 TIP3     3310     TIP3     H1       HT       0.417000       1.00800           0
     19846 TIP3     3310     TIP3     H2       HT       0.417000       1.00800           0
     19847 TIP3     3311     TIP3     OH2      OT      -0.834000       15.9994           0
     19848 TIP3     3311     TIP3     H1       HT       0.417000       1.00800           0
     19849 TIP3     3311     TIP3     H2       HT       0.417000       1.00800           0
     19850 TIP3     3312     TIP3     OH2      OT      -0.834000       15.9994           0
     19851 TIP3     3312     TIP3     H1       HT       0.417000       1.00800           0
     19852 TIP3     3312     TIP3     H2       HT       0.417000       1.00800           0
     19853 TIP3     3313     TIP3     OH2      OT      -0.834000       15.9994           0
     19854 TIP3     3313     TIP3     H1       HT       0.417000       1.00800           0
     19855 TIP3     3313     TIP3     H2       HT       0.417000       1.00800           0
     19856 TIP3     3314     TIP3     OH2      OT      -0.834000       15.9994           0
     19857 TIP3     3314     TIP3     H1       HT       0.417000       1.00800           0
     19858 TIP3     3314     TIP3     H2       HT       0.417000       1.00800           0
     19859 TIP3     3315     TIP3     OH2      OT      -0.834000       15.9994           0
     19860 TIP3     3315     TIP3     H1       HT       0.417000       1.00800           0
     19861 TIP3     3315     TIP3     H2       HT       0.417000       1.00800           0
     19862 TIP3     3316     TIP3     OH2      OT      -0.834000       15.9994           0
     19863 TIP3     3316     TIP3     H1       HT       0.417000       1.00800           0
     19864 TIP3     3316     TIP3     H2       HT       0.417000       1.00800           0
     19865 TIP3     3317     TIP3     OH2      OT      -0.834000       15.9994           0
     19866 TIP3     3317     TIP3     H1       HT       0.417000       1.00800           0
     19867 TIP3     3317     TIP3     H2       HT       0.417000       1.00800           0
     19868 TIP3     3318     TIP3     OH2      OT      -0.834000       15.9994           0
     19869 TIP3     3318     TIP3     H1       HT       0.417000       1.00800           0
     19870 TIP3     3318     TIP3     H2       HT       0.417000       1.00800           0
     19871 TIP3     3319     TIP3     OH2      OT      -0.834000       15.9994           0
     19872 TIP3     3319     TIP3     H1       HT       0.417000       1.00800           0
     19873 TIP3     3319     TIP3     H2       HT       0.417000       1.00800           0
     19874 TIP3     3320     TIP3     OH2      OT      -0.834000       15.9994           0
     19875 TIP3     3320     TIP3     H1       HT       0.417000       1.00800           0
     19876 TIP3     3320     TIP3     H2       HT       0.417000       1.00800           0
     19877 TIP3     3321     TIP3     OH2      OT      -0.834000       15.9994           0
     19878 TIP3     3321     TIP3     H1       HT       0.417000       1.00800           0
     19879 TIP3     3321     TIP3     H2       HT       0.417000       1.00800           0
     19880 TIP3     3322     TIP3     OH2      OT      -0.834000       15.9994           0
     19881 TIP3     3322     TIP3     H1       HT       0.417000       1.00800           0
     19882 TIP3     3322     TIP3     H2       HT       0.417000       1.00800           0
     19883 TIP3     3323     TIP3     OH2      OT      -0.834000       15.9994           0
     19884 TIP3     3323     TIP3     H1       HT       0.417000       1.00800           0
     19885 TIP3     3323     TIP3     H2       HT       0.417000       1.00800           0
     19886 TIP3     3324     TIP3     OH2      OT      -0.834000       15.9994           0
     19887 TIP3     3324     TIP3     H1       HT       0.417000       1.00800           0
     19888 TIP3     3324     TIP3     H2       HT       0.417000       1.00800           0
     19889 TIP3     3325     TIP3     OH2      OT      -0.834000       15.9994           0
     19890 TIP3     3325     TIP3     H1       HT       0.417000       1.00800           0
     19891 TIP3     3325     TIP3     H2       HT       0.417000       1.00800           0
     19892 TIP3     3326     TIP3     OH2      OT      -0.834000       15.9994           0
     19893 TIP3     3326     TIP3     H1       HT       0.417000       1.00800           0
     19894 TIP3     3326     TIP3     H2       HT       0.417000       1.00800           0
     19895 TIP3     3327     TIP3     OH2      OT      -0.834000       15.9994           0
     19896 TIP3     3327     TIP3     H1       HT       0.417000       1.00800           0
     19897 TIP3     3327     TIP3     H2       HT       0.417000       1.00800           0
     19898 TIP3     3328     TIP3     OH2      OT      -0.834000       15.9994           0
     19899 TIP3     3328     TIP3     H1       HT       0.417000       1.00800           0
     19900 TIP3     3328     TIP3     H2       HT       0.417000       1.00800           0
     19901 TIP3     3329     TIP3     OH2      OT      -0.834000       15.9994           0
     19902 TIP3     3329     TIP3     H1       HT       0.417000       1.00800           0
     19903 TIP3     3329     TIP3     H2       HT       0.417000       1.00800           0
     19904 TIP3     3330     TIP3     OH2      OT      -0.834000       15.9994           0
     19905 TIP3     3330     TIP3     H1       HT       0.417000       1.00800           0
     19906 TIP3     3330     TIP3     H2       HT       0.417000       1.00800           0
     19907 TIP3     3331     TIP3     OH2      OT      -0.834000       15.9994           0
     19908 TIP3     3331     TIP3     H1       HT       0.417000       1.00800           0
     19909 TIP3     3331     TIP3     H2       HT       0.417000       1.00800           0
     19910 TIP3     3332     TIP3     OH2      OT      -0.834000       15.9994           0
     19911 TIP3     3332     TIP3     H1       HT       0.417000       1.00800           0
     19912 TIP3     3332     TIP3     H2       HT       0.417000       1.00800           0
     19913 TIP3     3333     TIP3     OH2      OT      -0.834000       15.9994           0
     19914 TIP3     3333     TIP3     H1       HT       0.417000       1.00800           0
     19915 TIP3     3333     TIP3     H2       HT       0.417000       1.00800           0
     19916 TIP3     3334     TIP3     OH2      OT      -0.834000       15.9994           0
     19917 TIP3     3334     TIP3     H1       HT       0.417000       1.00800           0
     19918 TIP3     3334     TIP3     H2       HT       0.417000       1.00800           0
     19919 TIP3     3335     TIP3     OH2      OT      -0.834000       15.9994           0
     19920 TIP3     3335     TIP3     H1       HT       0.417000       1.00800           0
     19921 TIP3     3335     TIP3     H2       HT       0.417000       1.00800           0
     19922 TIP3     3336     TIP3     OH2      OT      -0.834000       15.9994           0
     19923 TIP3     3336     TIP3     H1       HT       0.417000       1.00800           0
     19924 TIP3     3336     TIP3     H2       HT       0.417000       1.00800           0
     19925 TIP3     3337     TIP3     OH2      OT      -0.834000       15.9994           0
     19926 TIP3     3337     TIP3     H1       HT       0.417000       1.00800           0
     19927 TIP3     3337     TIP3     H2       HT       0.417000       1.00800           0
     19928 TIP3     3338     TIP3     OH2      OT      -0.834000       15.9994           0
     19929 TIP3     3338     TIP3     H1       HT       0.417000       1.00800           0
     19930 TIP3     3338     TIP3     H2       HT       0.417000       1.00800           0
     19931 TIP3     3339     TIP3     OH2      OT      -0.834000       15.9994           0
     19932 TIP3     3339     TIP3     H1       HT       0.417000       1.00800           0
     19933 TIP3     3339     TIP3     H2       HT       0.417000       1.00800           0
     19934 TIP3     3340     TIP3     OH2      OT      -0.834000       15.9994           0
     19935 TIP3     3340     TIP3     H1       HT       0.417000       1.00800           0
     19936 TIP3     3340     TIP3     H2       HT       0.417000       1.00800           0
     19937 TIP3     3341     TIP3     OH2      OT      -0.834000       15.9994           0
     19938 TIP3     3341     TIP3     H1       HT       0.417000       1.00800           0
     19939 TIP3     3341     TIP3     H2       HT       0.417000       1.00800           0
     19940 TIP3     3342     TIP3     OH2      OT      -0.834000       15.9994           0
     19941 TIP3     3342     TIP3     H1       HT       0.417000       1.00800           0
     19942 TIP3     3342     TIP3     H2       HT       0.417000       1.00800           0
     19943 TIP3     3343     TIP3     OH2      OT      -0.834000       15.9994           0
     19944 TIP3     3343     TIP3     H1       HT       0.417000       1.00800           0
     19945 TIP3     3343     TIP3     H2       HT       0.417000       1.00800           0
     19946 TIP3     3344     TIP3     OH2      OT      -0.834000       15.9994           0
     19947 TIP3     3344     TIP3     H1       HT       0.417000       1.00800           0
     19948 TIP3     3344     TIP3     H2       HT       0.417000       1.00800           0
     19949 TIP3     3345     TIP3     OH2      OT      -0.834000       15.9994           0
     19950 TIP3     3345     TIP3     H1       HT       0.417000       1.00800           0
     19951 TIP3     3345     TIP3     H2       HT       0.417000       1.00800           0
     19952 TIP3     3346     TIP3     OH2      OT      -0.834000       15.9994           0
     19953 TIP3     3346     TIP3     H1       HT       0.417000       1.00800           0
     19954 TIP3     3346     TIP3     H2       HT       0.417000       1.00800           0
     19955 TIP3     3347     TIP3     OH2      OT      -0.834000       15.9994           0
     19956 TIP3     3347     TIP3     H1       HT       0.417000       1.00800           0
     19957 TIP3     3347     TIP3     H2       HT       0.417000       1.00800           0
     19958 TIP3     3348     TIP3     OH2      OT      -0.834000       15.9994           0
     19959 TIP3     3348     TIP3     H1       HT       0.417000       1.00800           0
     19960 TIP3     3348     TIP3     H2       HT       0.417000       1.00800           0
     19961 TIP3     3349     TIP3     OH2      OT      -0.834000       15.9994           0
     19962 TIP3     3349     TIP3     H1       HT       0.417000       1.00800           0
     19963 TIP3     3349     TIP3     H2       HT       0.417000       1.00800           0
     19964 TIP3     3350     TIP3     OH2      OT      -0.834000       15.9994           0
     19965 TIP3     3350     TIP3     H1       HT       0.417000       1.00800           0
     19966 TIP3     3350     TIP3     H2       HT       0.417000       1.00800           0
     19967 TIP3     3351     TIP3     OH2      OT      -0.834000       15.9994           0
     19968 TIP3     3351     TIP3     H1       HT       0.417000       1.00800           0
     19969 TIP3     3351     TIP3     H2       HT       0.417000       1.00800           0
     19970 TIP3     3352     TIP3     OH2      OT      -0.834000       15.9994           0
     19971 TIP3     3352     TIP3     H1       HT       0.417000       1.00800           0
     19972 TIP3     3352     TIP3     H2       HT       0.417000       1.00800           0
     19973 TIP3     3353     TIP3     OH2      OT      -0.834000       15.9994           0
     19974 TIP3     3353     TIP3     H1       HT       0.417000       1.00800           0
     19975 TIP3     3353     TIP3     H2       HT       0.417000       1.00800           0
     19976 TIP3     3354     TIP3     OH2      OT      -0.834000       15.9994           0
     19977 TIP3     3354     TIP3     H1       HT       0.417000       1.00800           0
     19978 TIP3     3354     TIP3     H2       HT       0.417000       1.00800           0
     19979 TIP3     3355     TIP3     OH2      OT      -0.834000       15.9994           0
     19980 TIP3     3355     TIP3     H1       HT       0.417000       1.00800           0
     19981 TIP3     3355     TIP3     H2       HT       0.417000       1.00800           0
     19982 TIP3     3356     TIP3     OH2      OT      -0.834000       15.9994           0
     19983 TIP3     3356     TIP3     H1       HT       0.417000       1.00800           0
     19984 TIP3     3356     TIP3     H2       HT       0.417000       1.00800           0
     19985 TIP3     3357     TIP3     OH2      OT      -0.834000       15.9994           0
     19986 TIP3     3357     TIP3     H1       HT       0.417000       1.00800           0
     19987 TIP3     3357     TIP3     H2       HT       0.417000       1.00800           0
     19988 TIP3     3358     TIP3     OH2      OT      -0.834000       15.9994           0
     19989 TIP3     3358     TIP3     H1       HT       0.417000       1.00800           0
     19990 TIP3     3358     TIP3     H2       HT       0.417000       1.00800           0
     19991 TIP3     3359     TIP3     OH2      OT      -0.834000       15.9994           0
     19992 TIP3     3359     TIP3     H1       HT       0.417000       1.00800           0
     19993 TIP3     3359     TIP3     H2       HT       0.417000       1.00800           0
     19994 TIP3     3360     TIP3     OH2      OT      -0.834000       15.9994           0
     19995 TIP3     3360     TIP3     H1       HT       0.417000       1.00800           0
     19996 TIP3     3360     TIP3     H2       HT       0.417000       1.00800           0
     19997 TIP3     3361     TIP3     OH2      OT      -0.834000       15.9994           0
     19998 TIP3     3361     TIP3     H1       HT       0.417000       1.00800           0
     19999 TIP3     3361     TIP3     H2       HT       0.417000       1.00800           0
     20000 TIP3     3362     TIP3     OH2      OT      -0.834000       15.9994           0
     20001 TIP3     3362     TIP3     H1       HT       0.417000       1.00800           0
     20002 TIP3     3362     TIP3     H2       HT       0.417000       1.00800           0
     20003 TIP3     3363     TIP3     OH2      OT      -0.834000       15.9994           0
     20004 TIP3     3363     TIP3     H1       HT       0.417000       1.00800           0
     20005 TIP3     3363     TIP3     H2       HT       0.417000       1.00800           0
     20006 TIP3     3364     TIP3     OH2      OT      -0.834000       15.9994           0
     20007 TIP3     3364     TIP3     H1       HT       0.417000       1.00800           0
     20008 TIP3     3364     TIP3     H2       HT       0.417000       1.00800           0
     20009 TIP3     3365     TIP3     OH2      OT      -0.834000       15.9994           0
     20010 TIP3     3365     TIP3     H1       HT       0.417000       1.00800           0
     20011 TIP3     3365     TIP3     H2       HT       0.417000       1.00800           0
     20012 TIP3     3366     TIP3     OH2      OT      -0.834000       15.9994           0
     20013 TIP3     3366     TIP3     H1       HT       0.417000       1.00800           0
     20014 TIP3     3366     TIP3     H2       HT       0.417000       1.00800           0
     20015 TIP3     3367     TIP3     OH2      OT      -0.834000       15.9994           0
     20016 TIP3     3367     TIP3     H1       HT       0.417000       1.00800           0
     20017 TIP3     3367     TIP3     H2       HT       0.417000       1.00800           0
     20018 TIP3     3368     TIP3     OH2      OT      -0.834000       15.9994           0
     20019 TIP3     3368     TIP3     H1       HT       0.417000       1.00800           0
     20020 TIP3     3368     TIP3     H2       HT       0.417000       1.00800           0
     20021 TIP3     3369     TIP3     OH2      OT      -0.834000       15.9994           0
     20022 TIP3     3369     TIP3     H1       HT       0.417000       1.00800           0
     20023 TIP3     3369     TIP3     H2       HT       0.417000       1.00800           0
     20024 TIP3     3370     TIP3     OH2      OT      -0.834000       15.9994           0
     20025 TIP3     3370     TIP3     H1       HT       0.417000       1.00800           0
     20026 TIP3     3370     TIP3     H2       HT       0.417000       1.00800           0
     20027 TIP3     3371     TIP3     OH2      OT      -0.834000       15.9994           0
     20028 TIP3     3371     TIP3     H1       HT       0.417000       1.00800           0
     20029 TIP3     3371     TIP3     H2       HT       0.417000       1.00800           0
     20030 TIP3     3372     TIP3     OH2      OT      -0.834000       15.9994           0
     20031 TIP3     3372     TIP3     H1       HT       0.417000       1.00800           0
     20032 TIP3     3372     TIP3     H2       HT       0.417000       1.00800           0
     20033 TIP3     3373     TIP3     OH2      OT      -0.834000       15.9994           0
     20034 TIP3     3373     TIP3     H1       HT       0.417000       1.00800           0
     20035 TIP3     3373     TIP3     H2       HT       0.417000       1.00800           0
     20036 TIP3     3374     TIP3     OH2      OT      -0.834000       15.9994           0
     20037 TIP3     3374     TIP3     H1       HT       0.417000       1.00800           0
     20038 TIP3     3374     TIP3     H2       HT       0.417000       1.00800           0
     20039 TIP3     3375     TIP3     OH2      OT      -0.834000       15.9994           0
     20040 TIP3     3375     TIP3     H1       HT       0.417000       1.00800           0
     20041 TIP3     3375     TIP3     H2       HT       0.417000       1.00800           0
     20042 TIP3     3376     TIP3     OH2      OT      -0.834000       15.9994           0
     20043 TIP3     3376     TIP3     H1       HT       0.417000       1.00800           0
     20044 TIP3     3376     TIP3     H2       HT       0.417000       1.00800           0
     20045 TIP3     3377     TIP3     OH2      OT      -0.834000       15.9994           0
     20046 TIP3     3377     TIP3     H1       HT       0.417000       1.00800           0
     20047 TIP3     3377     TIP3     H2       HT       0.417000       1.00800           0
     20048 TIP3     3378     TIP3     OH2      OT      -0.834000       15.9994           0
     20049 TIP3     3378     TIP3     H1       HT       0.417000       1.00800           0
     20050 TIP3     3378     TIP3     H2       HT       0.417000       1.00800           0
     20051 TIP3     3379     TIP3     OH2      OT      -0.834000       15.9994           0
     20052 TIP3     3379     TIP3     H1       HT       0.417000       1.00800           0
     20053 TIP3     3379     TIP3     H2       HT       0.417000       1.00800           0
     20054 TIP3     3380     TIP3     OH2      OT      -0.834000       15.9994           0
     20055 TIP3     3380     TIP3     H1       HT       0.417000       1.00800           0
     20056 TIP3     3380     TIP3     H2       HT       0.417000       1.00800           0
     20057 TIP3     3381     TIP3     OH2      OT      -0.834000       15.9994           0
     20058 TIP3     3381     TIP3     H1       HT       0.417000       1.00800           0
     20059 TIP3     3381     TIP3     H2       HT       0.417000       1.00800           0
     20060 TIP3     3382     TIP3     OH2      OT      -0.834000       15.9994           0
     20061 TIP3     3382     TIP3     H1       HT       0.417000       1.00800           0
     20062 TIP3     3382     TIP3     H2       HT       0.417000       1.00800           0
     20063 TIP3     3383     TIP3     OH2      OT      -0.834000       15.9994           0
     20064 TIP3     3383     TIP3     H1       HT       0.417000       1.00800           0
     20065 TIP3     3383     TIP3     H2       HT       0.417000       1.00800           0
     20066 TIP3     3384     TIP3     OH2      OT      -0.834000       15.9994           0
     20067 TIP3     3384     TIP3     H1       HT       0.417000       1.00800           0
     20068 TIP3     3384     TIP3     H2       HT       0.417000       1.00800           0
     20069 TIP3     3385     TIP3     OH2      OT      -0.834000       15.9994           0
     20070 TIP3     3385     TIP3     H1       HT       0.417000       1.00800           0
     20071 TIP3     3385     TIP3     H2       HT       0.417000       1.00800           0
     20072 TIP3     3386     TIP3     OH2      OT      -0.834000       15.9994           0
     20073 TIP3     3386     TIP3     H1       HT       0.417000       1.00800           0
     20074 TIP3     3386     TIP3     H2       HT       0.417000       1.00800           0
     20075 TIP3     3387     TIP3     OH2      OT      -0.834000       15.9994           0
     20076 TIP3     3387     TIP3     H1       HT       0.417000       1.00800           0
     20077 TIP3     3387     TIP3     H2       HT       0.417000       1.00800           0
     20078 TIP3     3388     TIP3     OH2      OT      -0.834000       15.9994           0
     20079 TIP3     3388     TIP3     H1       HT       0.417000       1.00800           0
     20080 TIP3     3388     TIP3     H2       HT       0.417000       1.00800           0
     20081 TIP3     3389     TIP3     OH2      OT      -0.834000       15.9994           0
     20082 TIP3     3389     TIP3     H1       HT       0.417000       1.00800           0
     20083 TIP3     3389     TIP3     H2       HT       0.417000       1.00800           0
     20084 TIP3     3390     TIP3     OH2      OT      -0.834000       15.9994           0
     20085 TIP3     3390     TIP3     H1       HT       0.417000       1.00800           0
     20086 TIP3     3390     TIP3     H2       HT       0.417000       1.00800           0
     20087 TIP3     3391     TIP3     OH2      OT      -0.834000       15.9994           0
     20088 TIP3     3391     TIP3     H1       HT       0.417000       1.00800           0
     20089 TIP3     3391     TIP3     H2       HT       0.417000       1.00800           0
     20090 TIP3     3392     TIP3     OH2      OT      -0.834000       15.9994           0
     20091 TIP3     3392     TIP3     H1       HT       0.417000       1.00800           0
     20092 TIP3     3392     TIP3     H2       HT       0.417000       1.00800           0
     20093 TIP3     3393     TIP3     OH2      OT      -0.834000       15.9994           0
     20094 TIP3     3393     TIP3     H1       HT       0.417000       1.00800           0
     20095 TIP3     3393     TIP3     H2       HT       0.417000       1.00800           0
     20096 TIP3     3394     TIP3     OH2      OT      -0.834000       15.9994           0
     20097 TIP3     3394     TIP3     H1       HT       0.417000       1.00800           0
     20098 TIP3     3394     TIP3     H2       HT       0.417000       1.00800           0
     20099 TIP3     3395     TIP3     OH2      OT      -0.834000       15.9994           0
     20100 TIP3     3395     TIP3     H1       HT       0.417000       1.00800           0
     20101 TIP3     3395     TIP3     H2       HT       0.417000       1.00800           0
     20102 TIP3     3396     TIP3     OH2      OT      -0.834000       15.9994           0
     20103 TIP3     3396     TIP3     H1       HT       0.417000       1.00800           0
     20104 TIP3     3396     TIP3     H2       HT       0.417000       1.00800           0
     20105 TIP3     3397     TIP3     OH2      OT      -0.834000       15.9994           0
     20106 TIP3     3397     TIP3     H1       HT       0.417000       1.00800           0
     20107 TIP3     3397     TIP3     H2       HT       0.417000       1.00800           0
     20108 TIP3     3398     TIP3     OH2      OT      -0.834000       15.9994           0
     20109 TIP3     3398     TIP3     H1       HT       0.417000       1.00800           0
     20110 TIP3     3398     TIP3     H2       HT       0.417000       1.00800           0
     20111 TIP3     3399     TIP3     OH2      OT      -0.834000       15.9994           0
     20112 TIP3     3399     TIP3     H1       HT       0.417000       1.00800           0
     20113 TIP3     3399     TIP3     H2       HT       0.417000       1.00800           0
     20114 TIP3     3400     TIP3     OH2      OT      -0.834000       15.9994           0
     20115 TIP3     3400     TIP3     H1       HT       0.417000       1.00800           0
     20116 TIP3     3400     TIP3     H2       HT       0.417000       1.00800           0
     20117 TIP3     3401     TIP3     OH2      OT      -0.834000       15.9994           0
     20118 TIP3     3401     TIP3     H1       HT       0.417000       1.00800           0
     20119 TIP3     3401     TIP3     H2       HT       0.417000       1.00800           0
     20120 TIP3     3402     TIP3     OH2      OT      -0.834000       15.9994           0
     20121 TIP3     3402     TIP3     H1       HT       0.417000       1.00800           0
     20122 TIP3     3402     TIP3     H2       HT       0.417000       1.00800           0
     20123 TIP3     3403     TIP3     OH2      OT      -0.834000       15.9994           0
     20124 TIP3     3403     TIP3     H1       HT       0.417000       1.00800           0
     20125 TIP3     3403     TIP3     H2       HT       0.417000       1.00800           0
     20126 TIP3     3404     TIP3     OH2      OT      -0.834000       15.9994           0
     20127 TIP3     3404     TIP3     H1       HT       0.417000       1.00800           0
     20128 TIP3     3404     TIP3     H2       HT       0.417000       1.00800           0
     20129 TIP3     3405     TIP3     OH2      OT      -0.834000       15.9994           0
     20130 TIP3     3405     TIP3     H1       HT       0.417000       1.00800           0
     20131 TIP3     3405     TIP3     H2       HT       0.417000       1.00800           0
     20132 TIP3     3406     TIP3     OH2      OT      -0.834000       15.9994           0
     20133 TIP3     3406     TIP3     H1       HT       0.417000       1.00800           0
     20134 TIP3     3406     TIP3     H2       HT       0.417000       1.00800           0
     20135 TIP3     3407     TIP3     OH2      OT      -0.834000       15.9994           0
     20136 TIP3     3407     TIP3     H1       HT       0.417000       1.00800           0
     20137 TIP3     3407     TIP3     H2       HT       0.417000       1.00800           0
     20138 TIP3     3408     TIP3     OH2      OT      -0.834000       15.9994           0
     20139 TIP3     3408     TIP3     H1       HT       0.417000       1.00800           0
     20140 TIP3     3408     TIP3     H2       HT       0.417000       1.00800           0
     20141 TIP3     3409     TIP3     OH2      OT      -0.834000       15.9994           0
     20142 TIP3     3409     TIP3     H1       HT       0.417000       1.00800           0
     20143 TIP3     3409     TIP3     H2       HT       0.417000       1.00800           0
     20144 TIP3     3410     TIP3     OH2      OT      -0.834000       15.9994           0
     20145 TIP3     3410     TIP3     H1       HT       0.417000       1.00800           0
     20146 TIP3     3410     TIP3     H2       HT       0.417000       1.00800           0
     20147 TIP3     3411     TIP3     OH2      OT      -0.834000       15.9994           0
     20148 TIP3     3411     TIP3     H1       HT       0.417000       1.00800           0
     20149 TIP3     3411     TIP3     H2       HT       0.417000       1.00800           0
     20150 TIP3     3412     TIP3     OH2      OT      -0.834000       15.9994           0
     20151 TIP3     3412     TIP3     H1       HT       0.417000       1.00800           0
     20152 TIP3     3412     TIP3     H2       HT       0.417000       1.00800           0
     20153 TIP3     3413     TIP3     OH2      OT      -0.834000       15.9994           0
     20154 TIP3     3413     TIP3     H1       HT       0.417000       1.00800           0
     20155 TIP3     3413     TIP3     H2       HT       0.417000       1.00800           0
     20156 TIP3     3414     TIP3     OH2      OT      -0.834000       15.9994           0
     20157 TIP3     3414     TIP3     H1       HT       0.417000       1.00800           0
     20158 TIP3     3414     TIP3     H2       HT       0.417000       1.00800           0
     20159 TIP3     3415     TIP3     OH2      OT      -0.834000       15.9994           0
     20160 TIP3     3415     TIP3     H1       HT       0.417000       1.00800           0
     20161 TIP3     3415     TIP3     H2       HT       0.417000       1.00800           0
     20162 TIP3     3416     TIP3     OH2      OT      -0.834000       15.9994           0
     20163 TIP3     3416     TIP3     H1       HT       0.417000       1.00800           0
     20164 TIP3     3416     TIP3     H2       HT       0.417000       1.00800           0
     20165 TIP3     3417     TIP3     OH2      OT      -0.834000       15.9994           0
     20166 TIP3     3417     TIP3     H1       HT       0.417000       1.00800           0
     20167 TIP3     3417     TIP3     H2       HT       0.417000       1.00800           0
     20168 TIP3     3418     TIP3     OH2      OT      -0.834000       15.9994           0
     20169 TIP3     3418     TIP3     H1       HT       0.417000       1.00800           0
     20170 TIP3     3418     TIP3     H2       HT       0.417000       1.00800           0
     20171 TIP3     3419     TIP3     OH2      OT      -0.834000       15.9994           0
     20172 TIP3     3419     TIP3     H1       HT       0.417000       1.00800           0
     20173 TIP3     3419     TIP3     H2       HT       0.417000       1.00800           0
     20174 TIP3     3420     TIP3     OH2      OT      -0.834000       15.9994           0
     20175 TIP3     3420     TIP3     H1       HT       0.417000       1.00800           0
     20176 TIP3     3420     TIP3     H2       HT       0.417000       1.00800           0
     20177 TIP3     3421     TIP3     OH2      OT      -0.834000       15.9994           0
     20178 TIP3     3421     TIP3     H1       HT       0.417000       1.00800           0
     20179 TIP3     3421     TIP3     H2       HT       0.417000       1.00800           0
     20180 TIP3     3422     TIP3     OH2      OT      -0.834000       15.9994           0
     20181 TIP3     3422     TIP3     H1       HT       0.417000       1.00800           0
     20182 TIP3     3422     TIP3     H2       HT       0.417000       1.00800           0
     20183 TIP3     3423     TIP3     OH2      OT      -0.834000       15.9994           0
     20184 TIP3     3423     TIP3     H1       HT       0.417000       1.00800           0
     20185 TIP3     3423     TIP3     H2       HT       0.417000       1.00800           0
     20186 TIP3     3424     TIP3     OH2      OT      -0.834000       15.9994           0
     20187 TIP3     3424     TIP3     H1       HT       0.417000       1.00800           0
     20188 TIP3     3424     TIP3     H2       HT       0.417000       1.00800           0
     20189 TIP3     3425     TIP3     OH2      OT      -0.834000       15.9994           0
     20190 TIP3     3425     TIP3     H1       HT       0.417000       1.00800           0
     20191 TIP3     3425     TIP3     H2       HT       0.417000       1.00800           0
     20192 TIP3     3426     TIP3     OH2      OT      -0.834000       15.9994           0
     20193 TIP3     3426     TIP3     H1       HT       0.417000       1.00800           0
     20194 TIP3     3426     TIP3     H2       HT       0.417000       1.00800           0
     20195 TIP3     3427     TIP3     OH2      OT      -0.834000       15.9994           0
     20196 TIP3     3427     TIP3     H1       HT       0.417000       1.00800           0
     20197 TIP3     3427     TIP3     H2       HT       0.417000       1.00800           0
     20198 TIP3     3428     TIP3     OH2      OT      -0.834000       15.9994           0
     20199 TIP3     3428     TIP3     H1       HT       0.417000       1.00800           0
     20200 TIP3     3428     TIP3     H2       HT       0.417000       1.00800           0
     20201 TIP3     3429     TIP3     OH2      OT      -0.834000       15.9994           0
     20202 TIP3     3429     TIP3     H1       HT       0.417000       1.00800           0
     20203 TIP3     3429     TIP3     H2       HT       0.417000       1.00800           0
     20204 TIP3     3430     TIP3     OH2      OT      -0.834000       15.9994           0
     20205 TIP3     3430     TIP3     H1       HT       0.417000       1.00800           0
     20206 TIP3     3430     TIP3     H2       HT       0.417000       1.00800           0
     20207 TIP3     3431     TIP3     OH2      OT      -0.834000       15.9994           0
     20208 TIP3     3431     TIP3     H1       HT       0.417000       1.00800           0
     20209 TIP3     3431     TIP3     H2       HT       0.417000       1.00800           0
     20210 TIP3     3432     TIP3     OH2      OT      -0.834000       15.9994           0
     20211 TIP3     3432     TIP3     H1       HT       0.417000       1.00800           0
     20212 TIP3     3432     TIP3     H2       HT       0.417000       1.00800           0
     20213 TIP3     3433     TIP3     OH2      OT      -0.834000       15.9994           0
     20214 TIP3     3433     TIP3     H1       HT       0.417000       1.00800           0
     20215 TIP3     3433     TIP3     H2       HT       0.417000       1.00800           0
     20216 TIP3     3434     TIP3     OH2      OT      -0.834000       15.9994           0
     20217 TIP3     3434     TIP3     H1       HT       0.417000       1.00800           0
     20218 TIP3     3434     TIP3     H2       HT       0.417000       1.00800           0
     20219 TIP3     3435     TIP3     OH2      OT      -0.834000       15.9994           0
     20220 TIP3     3435     TIP3     H1       HT       0.417000       1.00800           0
     20221 TIP3     3435     TIP3     H2       HT       0.417000       1.00800           0
     20222 TIP3     3436     TIP3     OH2      OT      -0.834000       15.9994           0
     20223 TIP3     3436     TIP3     H1       HT       0.417000       1.00800           0
     20224 TIP3     3436     TIP3     H2       HT       0.417000       1.00800           0
     20225 TIP3     3437     TIP3     OH2      OT      -0.834000       15.9994           0
     20226 TIP3     3437     TIP3     H1       HT       0.417000       1.00800           0
     20227 TIP3     3437     TIP3     H2       HT       0.417000       1.00800           0
     20228 TIP3     3438     TIP3     OH2      OT      -0.834000       15.9994           0
     20229 TIP3     3438     TIP3     H1       HT       0.417000       1.00800           0
     20230 TIP3     3438     TIP3     H2       HT       0.417000       1.00800           0
     20231 TIP3     3439     TIP3     OH2      OT      -0.834000       15.9994           0
     20232 TIP3     3439     TIP3     H1       HT       0.417000       1.00800           0
     20233 TIP3     3439     TIP3     H2       HT       0.417000       1.00800           0
     20234 TIP3     3440     TIP3     OH2      OT      -0.834000       15.9994           0
     20235 TIP3     3440     TIP3     H1       HT       0.417000       1.00800           0
     20236 TIP3     3440     TIP3     H2       HT       0.417000       1.00800           0
     20237 TIP3     3441     TIP3     OH2      OT      -0.834000       15.9994           0
     20238 TIP3     3441     TIP3     H1       HT       0.417000       1.00800           0
     20239 TIP3     3441     TIP3     H2       HT       0.417000       1.00800           0
     20240 TIP3     3442     TIP3     OH2      OT      -0.834000       15.9994           0
     20241 TIP3     3442     TIP3     H1       HT       0.417000       1.00800           0
     20242 TIP3     3442     TIP3     H2       HT       0.417000       1.00800           0
     20243 TIP3     3443     TIP3     OH2      OT      -0.834000       15.9994           0
     20244 TIP3     3443     TIP3     H1       HT       0.417000       1.00800           0
     20245 TIP3     3443     TIP3     H2       HT       0.417000       1.00800           0
     20246 TIP3     3444     TIP3     OH2      OT      -0.834000       15.9994           0
     20247 TIP3     3444     TIP3     H1       HT       0.417000       1.00800           0
     20248 TIP3     3444     TIP3     H2       HT       0.417000       1.00800           0
     20249 TIP3     3445     TIP3     OH2      OT      -0.834000       15.9994           0
     20250 TIP3     3445     TIP3     H1       HT       0.417000       1.00800           0
     20251 TIP3     3445     TIP3     H2       HT       0.417000       1.00800           0
     20252 TIP3     3446     TIP3     OH2      OT      -0.834000       15.9994           0
     20253 TIP3     3446     TIP3     H1       HT       0.417000       1.00800           0
     20254 TIP3     3446     TIP3     H2       HT       0.417000       1.00800           0
     20255 TIP3     3447     TIP3     OH2      OT      -0.834000       15.9994           0
     20256 TIP3     3447     TIP3     H1       HT       0.417000       1.00800           0
     20257 TIP3     3447     TIP3     H2       HT       0.417000       1.00800           0
     20258 TIP3     3448     TIP3     OH2      OT      -0.834000       15.9994           0
     20259 TIP3     3448     TIP3     H1       HT       0.417000       1.00800           0
     20260 TIP3     3448     TIP3     H2       HT       0.417000       1.00800           0
     20261 TIP3     3449     TIP3     OH2      OT      -0.834000       15.9994           0
     20262 TIP3     3449     TIP3     H1       HT       0.417000       1.00800           0
     20263 TIP3     3449     TIP3     H2       HT       0.417000       1.00800           0
     20264 TIP3     3450     TIP3     OH2      OT      -0.834000       15.9994           0
     20265 TIP3     3450     TIP3     H1       HT       0.417000       1.00800           0
     20266 TIP3     3450     TIP3     H2       HT       0.417000       1.00800           0
     20267 TIP3     3451     TIP3     OH2      OT      -0.834000       15.9994           0
     20268 TIP3     3451     TIP3     H1       HT       0.417000       1.00800           0
     20269 TIP3     3451     TIP3     H2       HT       0.417000       1.00800           0
     20270 TIP3     3452     TIP3     OH2      OT      -0.834000       15.9994           0
     20271 TIP3     3452     TIP3     H1       HT       0.417000       1.00800           0
     20272 TIP3     3452     TIP3     H2       HT       0.417000       1.00800           0
     20273 TIP3     3453     TIP3     OH2      OT      -0.834000       15.9994           0
     20274 TIP3     3453     TIP3     H1       HT       0.417000       1.00800           0
     20275 TIP3     3453     TIP3     H2       HT       0.417000       1.00800           0
     20276 TIP3     3454     TIP3     OH2      OT      -0.834000       15.9994           0
     20277 TIP3     3454     TIP3     H1       HT       0.417000       1.00800           0
     20278 TIP3     3454     TIP3     H2       HT       0.417000       1.00800           0
     20279 TIP3     3455     TIP3     OH2      OT      -0.834000       15.9994           0
     20280 TIP3     3455     TIP3     H1       HT       0.417000       1.00800           0
     20281 TIP3     3455     TIP3     H2       HT       0.417000       1.00800           0
     20282 TIP3     3456     TIP3     OH2      OT      -0.834000       15.9994           0
     20283 TIP3     3456     TIP3     H1       HT       0.417000       1.00800           0
     20284 TIP3     3456     TIP3     H2       HT       0.417000       1.00800           0
     20285 TIP3     3457     TIP3     OH2      OT      -0.834000       15.9994           0
     20286 TIP3     3457     TIP3     H1       HT       0.417000       1.00800           0
     20287 TIP3     3457     TIP3     H2       HT       0.417000       1.00800           0
     20288 TIP3     3458     TIP3     OH2      OT      -0.834000       15.9994           0
     20289 TIP3     3458     TIP3     H1       HT       0.417000       1.00800           0
     20290 TIP3     3458     TIP3     H2       HT       0.417000       1.00800           0
     20291 TIP3     3459     TIP3     OH2      OT      -0.834000       15.9994           0
     20292 TIP3     3459     TIP3     H1       HT       0.417000       1.00800           0
     20293 TIP3     3459     TIP3     H2       HT       0.417000       1.00800           0
     20294 TIP3     3460     TIP3     OH2      OT      -0.834000       15.9994           0
     20295 TIP3     3460     TIP3     H1       HT       0.417000       1.00800           0
     20296 TIP3     3460     TIP3     H2       HT       0.417000       1.00800           0
     20297 TIP3     3461     TIP3     OH2      OT      -0.834000       15.9994           0
     20298 TIP3     3461     TIP3     H1       HT       0.417000       1.00800           0
     20299 TIP3     3461     TIP3     H2       HT       0.417000       1.00800           0
     20300 TIP3     3462     TIP3     OH2      OT      -0.834000       15.9994           0
     20301 TIP3     3462     TIP3     H1       HT       0.417000       1.00800           0
     20302 TIP3     3462     TIP3     H2       HT       0.417000       1.00800           0
     20303 TIP3     3463     TIP3     OH2      OT      -0.834000       15.9994           0
     20304 TIP3     3463     TIP3     H1       HT       0.417000       1.00800           0
     20305 TIP3     3463     TIP3     H2       HT       0.417000       1.00800           0
     20306 TIP3     3464     TIP3     OH2      OT      -0.834000       15.9994           0
     20307 TIP3     3464     TIP3     H1       HT       0.417000       1.00800           0
     20308 TIP3     3464     TIP3     H2       HT       0.417000       1.00800           0
     20309 TIP3     3465     TIP3     OH2      OT      -0.834000       15.9994           0
     20310 TIP3     3465     TIP3     H1       HT       0.417000       1.00800           0
     20311 TIP3     3465     TIP3     H2       HT       0.417000       1.00800           0
     20312 TIP3     3466     TIP3     OH2      OT      -0.834000       15.9994           0
     20313 TIP3     3466     TIP3     H1       HT       0.417000       1.00800           0
     20314 TIP3     3466     TIP3     H2       HT       0.417000       1.00800           0
     20315 TIP3     3467     TIP3     OH2      OT      -0.834000       15.9994           0
     20316 TIP3     3467     TIP3     H1       HT       0.417000       1.00800           0
     20317 TIP3     3467     TIP3     H2       HT       0.417000       1.00800           0
     20318 TIP3     3468     TIP3     OH2      OT      -0.834000       15.9994           0
     20319 TIP3     3468     TIP3     H1       HT       0.417000       1.00800           0
     20320 TIP3     3468     TIP3     H2       HT       0.417000       1.00800           0
     20321 TIP3     3469     TIP3     OH2      OT      -0.834000       15.9994           0
     20322 TIP3     3469     TIP3     H1       HT       0.417000       1.00800           0
     20323 TIP3     3469     TIP3     H2       HT       0.417000       1.00800           0
     20324 TIP3     3470     TIP3     OH2      OT      -0.834000       15.9994           0
     20325 TIP3     3470     TIP3     H1       HT       0.417000       1.00800           0
     20326 TIP3     3470     TIP3     H2       HT       0.417000       1.00800           0
     20327 TIP3     3471     TIP3     OH2      OT      -0.834000       15.9994           0
     20328 TIP3     3471     TIP3     H1       HT       0.417000       1.00800           0
     20329 TIP3     3471     TIP3     H2       HT       0.417000       1.00800           0
     20330 TIP3     3472     TIP3     OH2      OT      -0.834000       15.9994           0
     20331 TIP3     3472     TIP3     H1       HT       0.417000       1.00800           0
     20332 TIP3     3472     TIP3     H2       HT       0.417000       1.00800           0
     20333 TIP3     3473     TIP3     OH2      OT      -0.834000       15.9994           0
     20334 TIP3     3473     TIP3     H1       HT       0.417000       1.00800           0
     20335 TIP3     3473     TIP3     H2       HT       0.417000       1.00800           0
     20336 TIP3     3474     TIP3     OH2      OT      -0.834000       15.9994           0
     20337 TIP3     3474     TIP3     H1       HT       0.417000       1.00800           0
     20338 TIP3     3474     TIP3     H2       HT       0.417000       1.00800           0
     20339 TIP3     3475     TIP3     OH2      OT      -0.834000       15.9994           0
     20340 TIP3     3475     TIP3     H1       HT       0.417000       1.00800           0
     20341 TIP3     3475     TIP3     H2       HT       0.417000       1.00800           0
     20342 TIP3     3476     TIP3     OH2      OT      -0.834000       15.9994           0
     20343 TIP3     3476     TIP3     H1       HT       0.417000       1.00800           0
     20344 TIP3     3476     TIP3     H2       HT       0.417000       1.00800           0
     20345 TIP3     3477     TIP3     OH2      OT      -0.834000       15.9994           0
     20346 TIP3     3477     TIP3     H1       HT       0.417000       1.00800           0
     20347 TIP3     3477     TIP3     H2       HT       0.417000       1.00800           0
     20348 TIP3     3478     TIP3     OH2      OT      -0.834000       15.9994           0
     20349 TIP3     3478     TIP3     H1       HT       0.417000       1.00800           0
     20350 TIP3     3478     TIP3     H2       HT       0.417000       1.00800           0
     20351 TIP3     3479     TIP3     OH2      OT      -0.834000       15.9994           0
     20352 TIP3     3479     TIP3     H1       HT       0.417000       1.00800           0
     20353 TIP3     3479     TIP3     H2       HT       0.417000       1.00800           0
     20354 TIP3     3480     TIP3     OH2      OT      -0.834000       15.9994           0
     20355 TIP3     3480     TIP3     H1       HT       0.417000       1.00800           0
     20356 TIP3     3480     TIP3     H2       HT       0.417000       1.00800           0
     20357 TIP3     3481     TIP3     OH2      OT      -0.834000       15.9994           0
     20358 TIP3     3481     TIP3     H1       HT       0.417000       1.00800           0
     20359 TIP3     3481     TIP3     H2       HT       0.417000       1.00800           0
     20360 TIP3     3482     TIP3     OH2      OT      -0.834000       15.9994           0
     20361 TIP3     3482     TIP3     H1       HT       0.417000       1.00800           0
     20362 TIP3     3482     TIP3     H2       HT       0.417000       1.00800           0
     20363 TIP3     3483     TIP3     OH2      OT      -0.834000       15.9994           0
     20364 TIP3     3483     TIP3     H1       HT       0.417000       1.00800           0
     20365 TIP3     3483     TIP3     H2       HT       0.417000       1.00800           0
     20366 TIP3     3484     TIP3     OH2      OT      -0.834000       15.9994           0
     20367 TIP3     3484     TIP3     H1       HT       0.417000       1.00800           0
     20368 TIP3     3484     TIP3     H2       HT       0.417000       1.00800           0
     20369 TIP3     3485     TIP3     OH2      OT      -0.834000       15.9994           0
     20370 TIP3     3485     TIP3     H1       HT       0.417000       1.00800           0
     20371 TIP3     3485     TIP3     H2       HT       0.417000       1.00800           0
     20372 TIP3     3486     TIP3     OH2      OT      -0.834000       15.9994           0
     20373 TIP3     3486     TIP3     H1       HT       0.417000       1.00800           0
     20374 TIP3     3486     TIP3     H2       HT       0.417000       1.00800           0
     20375 TIP3     3487     TIP3     OH2      OT      -0.834000       15.9994           0
     20376 TIP3     3487     TIP3     H1       HT       0.417000       1.00800           0
     20377 TIP3     3487     TIP3     H2       HT       0.417000       1.00800           0
     20378 TIP3     3488     TIP3     OH2      OT      -0.834000       15.9994           0
     20379 TIP3     3488     TIP3     H1       HT       0.417000       1.00800           0
     20380 TIP3     3488     TIP3     H2       HT       0.417000       1.00800           0
     20381 TIP3     3489     TIP3     OH2      OT      -0.834000       15.9994           0
     20382 TIP3     3489     TIP3     H1       HT       0.417000       1.00800           0
     20383 TIP3     3489     TIP3     H2       HT       0.417000       1.00800           0
     20384 TIP3     3490     TIP3     OH2      OT      -0.834000       15.9994           0
     20385 TIP3     3490     TIP3     H1       HT       0.417000       1.00800           0
     20386 TIP3     3490     TIP3     H2       HT       0.417000       1.00800           0
     20387 TIP3     3491     TIP3     OH2      OT      -0.834000       15.9994           0
     20388 TIP3     3491     TIP3     H1       HT       0.417000       1.00800           0
     20389 TIP3     3491     TIP3     H2       HT       0.417000       1.00800           0
     20390 TIP3     3492     TIP3     OH2      OT      -0.834000       15.9994           0
     20391 TIP3     3492     TIP3     H1       HT       0.417000       1.00800           0
     20392 TIP3     3492     TIP3     H2       HT       0.417000       1.00800           0
     20393 TIP3     3493     TIP3     OH2      OT      -0.834000       15.9994           0
     20394 TIP3     3493     TIP3     H1       HT       0.417000       1.00800           0
     20395 TIP3     3493     TIP3     H2       HT       0.417000       1.00800           0
     20396 TIP3     3494     TIP3     OH2      OT      -0.834000       15.9994           0
     20397 TIP3     3494     TIP3     H1       HT       0.417000       1.00800           0
     20398 TIP3     3494     TIP3     H2       HT       0.417000       1.00800           0
     20399 TIP3     3495     TIP3     OH2      OT      -0.834000       15.9994           0
     20400 TIP3     3495     TIP3     H1       HT       0.417000       1.00800           0
     20401 TIP3     3495     TIP3     H2       HT       0.417000       1.00800           0
     20402 TIP3     3496     TIP3     OH2      OT      -0.834000       15.9994           0
     20403 TIP3     3496     TIP3     H1       HT       0.417000       1.00800           0
     20404 TIP3     3496     TIP3     H2       HT       0.417000       1.00800           0
     20405 TIP3     3497     TIP3     OH2      OT      -0.834000       15.9994           0
     20406 TIP3     3497     TIP3     H1       HT       0.417000       1.00800           0
     20407 TIP3     3497     TIP3     H2       HT       0.417000       1.00800           0
     20408 TIP3     3498     TIP3     OH2      OT      -0.834000       15.9994           0
     20409 TIP3     3498     TIP3     H1       HT       0.417000       1.00800           0
     20410 TIP3     3498     TIP3     H2       HT       0.417000       1.00800           0
     20411 TIP3     3499     TIP3     OH2      OT      -0.834000       15.9994           0
     20412 TIP3     3499     TIP3     H1       HT       0.417000       1.00800           0
     20413 TIP3     3499     TIP3     H2       HT       0.417000       1.00800           0
     20414 TIP3     3500     TIP3     OH2      OT      -0.834000       15.9994           0
     20415 TIP3     3500     TIP3     H1       HT       0.417000       1.00800           0
     20416 TIP3     3500     TIP3     H2       HT       0.417000       1.00800           0
     20417 TIP3     3501     TIP3     OH2      OT      -0.834000       15.9994           0
     20418 TIP3     3501     TIP3     H1       HT       0.417000       1.00800           0
     20419 TIP3     3501     TIP3     H2       HT       0.417000       1.00800           0
     20420 TIP3     3502     TIP3     OH2      OT      -0.834000       15.9994           0
     20421 TIP3     3502     TIP3     H1       HT       0.417000       1.00800           0
     20422 TIP3     3502     TIP3     H2       HT       0.417000       1.00800           0
     20423 TIP3     3503     TIP3     OH2      OT      -0.834000       15.9994           0
     20424 TIP3     3503     TIP3     H1       HT       0.417000       1.00800           0
     20425 TIP3     3503     TIP3     H2       HT       0.417000       1.00800           0
     20426 TIP3     3504     TIP3     OH2      OT      -0.834000       15.9994           0
     20427 TIP3     3504     TIP3     H1       HT       0.417000       1.00800           0
     20428 TIP3     3504     TIP3     H2       HT       0.417000       1.00800           0
     20429 TIP3     3505     TIP3     OH2      OT      -0.834000       15.9994           0
     20430 TIP3     3505     TIP3     H1       HT       0.417000       1.00800           0
     20431 TIP3     3505     TIP3     H2       HT       0.417000       1.00800           0
     20432 TIP3     3506     TIP3     OH2      OT      -0.834000       15.9994           0
     20433 TIP3     3506     TIP3     H1       HT       0.417000       1.00800           0
     20434 TIP3     3506     TIP3     H2       HT       0.417000       1.00800           0
     20435 TIP3     3507     TIP3     OH2      OT      -0.834000       15.9994           0
     20436 TIP3     3507     TIP3     H1       HT       0.417000       1.00800           0
     20437 TIP3     3507     TIP3     H2       HT       0.417000       1.00800           0
     20438 TIP3     3508     TIP3     OH2      OT      -0.834000       15.9994           0
     20439 TIP3     3508     TIP3     H1       HT       0.417000       1.00800           0
     20440 TIP3     3508     TIP3     H2       HT       0.417000       1.00800           0
     20441 TIP3     3509     TIP3     OH2      OT      -0.834000       15.9994           0
     20442 TIP3     3509     TIP3     H1       HT       0.417000       1.00800           0
     20443 TIP3     3509     TIP3     H2       HT       0.417000       1.00800           0
     20444 TIP3     3510     TIP3     OH2      OT      -0.834000       15.9994           0
     20445 TIP3     3510     TIP3     H1       HT       0.417000       1.00800           0
     20446 TIP3     3510     TIP3     H2       HT       0.417000       1.00800           0
     20447 TIP3     3511     TIP3     OH2      OT      -0.834000       15.9994           0
     20448 TIP3     3511     TIP3     H1       HT       0.417000       1.00800           0
     20449 TIP3     3511     TIP3     H2       HT       0.417000       1.00800           0
     20450 TIP3     3512     TIP3     OH2      OT      -0.834000       15.9994           0
     20451 TIP3     3512     TIP3     H1       HT       0.417000       1.00800           0
     20452 TIP3     3512     TIP3     H2       HT       0.417000       1.00800           0
     20453 TIP3     3513     TIP3     OH2      OT      -0.834000       15.9994           0
     20454 TIP3     3513     TIP3     H1       HT       0.417000       1.00800           0
     20455 TIP3     3513     TIP3     H2       HT       0.417000       1.00800           0
     20456 TIP3     3514     TIP3     OH2      OT      -0.834000       15.9994           0
     20457 TIP3     3514     TIP3     H1       HT       0.417000       1.00800           0
     20458 TIP3     3514     TIP3     H2       HT       0.417000       1.00800           0
     20459 TIP3     3515     TIP3     OH2      OT      -0.834000       15.9994           0
     20460 TIP3     3515     TIP3     H1       HT       0.417000       1.00800           0
     20461 TIP3     3515     TIP3     H2       HT       0.417000       1.00800           0
     20462 TIP3     3516     TIP3     OH2      OT      -0.834000       15.9994           0
     20463 TIP3     3516     TIP3     H1       HT       0.417000       1.00800           0
     20464 TIP3     3516     TIP3     H2       HT       0.417000       1.00800           0
     20465 TIP3     3517     TIP3     OH2      OT      -0.834000       15.9994           0
     20466 TIP3     3517     TIP3     H1       HT       0.417000       1.00800           0
     20467 TIP3     3517     TIP3     H2       HT       0.417000       1.00800           0
     20468 TIP3     3518     TIP3     OH2      OT      -0.834000       15.9994           0
     20469 TIP3     3518     TIP3     H1       HT       0.417000       1.00800           0
     20470 TIP3     3518     TIP3     H2       HT       0.417000       1.00800           0
     20471 TIP3     3519     TIP3     OH2      OT      -0.834000       15.9994           0
     20472 TIP3     3519     TIP3     H1       HT       0.417000       1.00800           0
     20473 TIP3     3519     TIP3     H2       HT       0.417000       1.00800           0
     20474 TIP3     3520     TIP3     OH2      OT      -0.834000       15.9994           0
     20475 TIP3     3520     TIP3     H1       HT       0.417000       1.00800           0
     20476 TIP3     3520     TIP3     H2       HT       0.417000       1.00800           0
     20477 TIP3     3521     TIP3     OH2      OT      -0.834000       15.9994           0
     20478 TIP3     3521     TIP3     H1       HT       0.417000       1.00800           0
     20479 TIP3     3521     TIP3     H2       HT       0.417000       1.00800           0
     20480 TIP3     3522     TIP3     OH2      OT      -0.834000       15.9994           0
     20481 TIP3     3522     TIP3     H1       HT       0.417000       1.00800           0
     20482 TIP3     3522     TIP3     H2       HT       0.417000       1.00800           0
     20483 TIP3     3523     TIP3     OH2      OT      -0.834000       15.9994           0
     20484 TIP3     3523     TIP3     H1       HT       0.417000       1.00800           0
     20485 TIP3     3523     TIP3     H2       HT       0.417000       1.00800           0
     20486 TIP3     3524     TIP3     OH2      OT      -0.834000       15.9994           0
     20487 TIP3     3524     TIP3     H1       HT       0.417000       1.00800           0
     20488 TIP3     3524     TIP3     H2       HT       0.417000       1.00800           0
     20489 TIP3     3525     TIP3     OH2      OT      -0.834000       15.9994           0
     20490 TIP3     3525     TIP3     H1       HT       0.417000       1.00800           0
     20491 TIP3     3525     TIP3     H2       HT       0.417000       1.00800           0
     20492 TIP3     3526     TIP3     OH2      OT      -0.834000       15.9994           0
     20493 TIP3     3526     TIP3     H1       HT       0.417000       1.00800           0
     20494 TIP3     3526     TIP3     H2       HT       0.417000       1.00800           0
     20495 TIP3     3527     TIP3     OH2      OT      -0.834000       15.9994           0
     20496 TIP3     3527     TIP3     H1       HT       0.417000       1.00800           0
     20497 TIP3     3527     TIP3     H2       HT       0.417000       1.00800           0
     20498 TIP3     3528     TIP3     OH2      OT      -0.834000       15.9994           0
     20499 TIP3     3528     TIP3     H1       HT       0.417000       1.00800           0
     20500 TIP3     3528     TIP3     H2       HT       0.417000       1.00800           0
     20501 TIP3     3529     TIP3     OH2      OT      -0.834000       15.9994           0
     20502 TIP3     3529     TIP3     H1       HT       0.417000       1.00800           0
     20503 TIP3     3529     TIP3     H2       HT       0.417000       1.00800           0
     20504 TIP3     3530     TIP3     OH2      OT      -0.834000       15.9994           0
     20505 TIP3     3530     TIP3     H1       HT       0.417000       1.00800           0
     20506 TIP3     3530     TIP3     H2       HT       0.417000       1.00800           0
     20507 TIP3     3531     TIP3     OH2      OT      -0.834000       15.9994           0
     20508 TIP3     3531     TIP3     H1       HT       0.417000       1.00800           0
     20509 TIP3     3531     TIP3     H2       HT       0.417000       1.00800           0
     20510 TIP3     3532     TIP3     OH2      OT      -0.834000       15.9994           0
     20511 TIP3     3532     TIP3     H1       HT       0.417000       1.00800           0
     20512 TIP3     3532     TIP3     H2       HT       0.417000       1.00800           0
     20513 TIP3     3533     TIP3     OH2      OT      -0.834000       15.9994           0
     20514 TIP3     3533     TIP3     H1       HT       0.417000       1.00800           0
     20515 TIP3     3533     TIP3     H2       HT       0.417000       1.00800           0
     20516 TIP3     3534     TIP3     OH2      OT      -0.834000       15.9994           0
     20517 TIP3     3534     TIP3     H1       HT       0.417000       1.00800           0
     20518 TIP3     3534     TIP3     H2       HT       0.417000       1.00800           0
     20519 TIP3     3535     TIP3     OH2      OT      -0.834000       15.9994           0
     20520 TIP3     3535     TIP3     H1       HT       0.417000       1.00800           0
     20521 TIP3     3535     TIP3     H2       HT       0.417000       1.00800           0
     20522 TIP3     3536     TIP3     OH2      OT      -0.834000       15.9994           0
     20523 TIP3     3536     TIP3     H1       HT       0.417000       1.00800           0
     20524 TIP3     3536     TIP3     H2       HT       0.417000       1.00800           0
     20525 TIP3     3537     TIP3     OH2      OT      -0.834000       15.9994           0
     20526 TIP3     3537     TIP3     H1       HT       0.417000       1.00800           0
     20527 TIP3     3537     TIP3     H2       HT       0.417000       1.00800           0
     20528 TIP3     3538     TIP3     OH2      OT      -0.834000       15.9994           0
     20529 TIP3     3538     TIP3     H1       HT       0.417000       1.00800           0
     20530 TIP3     3538     TIP3     H2       HT       0.417000       1.00800           0
     20531 TIP3     3539     TIP3     OH2      OT      -0.834000       15.9994           0
     20532 TIP3     3539     TIP3     H1       HT       0.417000       1.00800           0
     20533 TIP3     3539     TIP3     H2       HT       0.417000       1.00800           0
     20534 TIP3     3540     TIP3     OH2      OT      -0.834000       15.9994           0
     20535 TIP3     3540     TIP3     H1       HT       0.417000       1.00800           0
     20536 TIP3     3540     TIP3     H2       HT       0.417000       1.00800           0
     20537 TIP3     3541     TIP3     OH2      OT      -0.834000       15.9994           0
     20538 TIP3     3541     TIP3     H1       HT       0.417000       1.00800           0
     20539 TIP3     3541     TIP3     H2       HT       0.417000       1.00800           0
     20540 TIP3     3542     TIP3     OH2      OT      -0.834000       15.9994           0
     20541 TIP3     3542     TIP3     H1       HT       0.417000       1.00800           0
     20542 TIP3     3542     TIP3     H2       HT       0.417000       1.00800           0
     20543 TIP3     3543     TIP3     OH2      OT      -0.834000       15.9994           0
     20544 TIP3     3543     TIP3     H1       HT       0.417000       1.00800           0
     20545 TIP3     3543     TIP3     H2       HT       0.417000       1.00800           0
     20546 TIP3     3544     TIP3     OH2      OT      -0.834000       15.9994           0
     20547 TIP3     3544     TIP3     H1       HT       0.417000       1.00800           0
     20548 TIP3     3544     TIP3     H2       HT       0.417000       1.00800           0
     20549 TIP3     3545     TIP3     OH2      OT      -0.834000       15.9994           0
     20550 TIP3     3545     TIP3     H1       HT       0.417000       1.00800           0
     20551 TIP3     3545     TIP3     H2       HT       0.417000       1.00800           0
     20552 TIP3     3546     TIP3     OH2      OT      -0.834000       15.9994           0
     20553 TIP3     3546     TIP3     H1       HT       0.417000       1.00800           0
     20554 TIP3     3546     TIP3     H2       HT       0.417000       1.00800           0
     20555 TIP3     3547     TIP3     OH2      OT      -0.834000       15.9994           0
     20556 TIP3     3547     TIP3     H1       HT       0.417000       1.00800           0
     20557 TIP3     3547     TIP3     H2       HT       0.417000       1.00800           0
     20558 TIP3     3548     TIP3     OH2      OT      -0.834000       15.9994           0
     20559 TIP3     3548     TIP3     H1       HT       0.417000       1.00800           0
     20560 TIP3     3548     TIP3     H2       HT       0.417000       1.00800           0
     20561 TIP3     3549     TIP3     OH2      OT      -0.834000       15.9994           0
     20562 TIP3     3549     TIP3     H1       HT       0.417000       1.00800           0
     20563 TIP3     3549     TIP3     H2       HT       0.417000       1.00800           0
     20564 TIP3     3550     TIP3     OH2      OT      -0.834000       15.9994           0
     20565 TIP3     3550     TIP3     H1       HT       0.417000       1.00800           0
     20566 TIP3     3550     TIP3     H2       HT       0.417000       1.00800           0
     20567 TIP3     3551     TIP3     OH2      OT      -0.834000       15.9994           0
     20568 TIP3     3551     TIP3     H1       HT       0.417000       1.00800           0
     20569 TIP3     3551     TIP3     H2       HT       0.417000       1.00800           0
     20570 TIP3     3552     TIP3     OH2      OT      -0.834000       15.9994           0
     20571 TIP3     3552     TIP3     H1       HT       0.417000       1.00800           0
     20572 TIP3     3552     TIP3     H2       HT       0.417000       1.00800           0
     20573 TIP3     3553     TIP3     OH2      OT      -0.834000       15.9994           0
     20574 TIP3     3553     TIP3     H1       HT       0.417000       1.00800           0
     20575 TIP3     3553     TIP3     H2       HT       0.417000       1.00800           0
     20576 TIP3     3554     TIP3     OH2      OT      -0.834000       15.9994           0
     20577 TIP3     3554     TIP3     H1       HT       0.417000       1.00800           0
     20578 TIP3     3554     TIP3     H2       HT       0.417000       1.00800           0
     20579 TIP3     3555     TIP3     OH2      OT      -0.834000       15.9994           0
     20580 TIP3     3555     TIP3     H1       HT       0.417000       1.00800           0
     20581 TIP3     3555     TIP3     H2       HT       0.417000       1.00800           0
     20582 TIP3     3556     TIP3     OH2      OT      -0.834000       15.9994           0
     20583 TIP3     3556     TIP3     H1       HT       0.417000       1.00800           0
     20584 TIP3     3556     TIP3     H2       HT       0.417000       1.00800           0
     20585 TIP3     3557     TIP3     OH2      OT      -0.834000       15.9994           0
     20586 TIP3     3557     TIP3     H1       HT       0.417000       1.00800           0
     20587 TIP3     3557     TIP3     H2       HT       0.417000       1.00800           0
     20588 TIP3     3558     TIP3     OH2      OT      -0.834000       15.9994           0
     20589 TIP3     3558     TIP3     H1       HT       0.417000       1.00800           0
     20590 TIP3     3558     TIP3     H2       HT       0.417000       1.00800           0
     20591 TIP3     3559     TIP3     OH2      OT      -0.834000       15.9994           0
     20592 TIP3     3559     TIP3     H1       HT       0.417000       1.00800           0
     20593 TIP3     3559     TIP3     H2       HT       0.417000       1.00800           0
     20594 TIP3     3560     TIP3     OH2      OT      -0.834000       15.9994           0
     20595 TIP3     3560     TIP3     H1       HT       0.417000       1.00800           0
     20596 TIP3     3560     TIP3     H2       HT       0.417000       1.00800           0
     20597 TIP3     3561     TIP3     OH2      OT      -0.834000       15.9994           0
     20598 TIP3     3561     TIP3     H1       HT       0.417000       1.00800           0
     20599 TIP3     3561     TIP3     H2       HT       0.417000       1.00800           0
     20600 TIP3     3562     TIP3     OH2      OT      -0.834000       15.9994           0
     20601 TIP3     3562     TIP3     H1       HT       0.417000       1.00800           0
     20602 TIP3     3562     TIP3     H2       HT       0.417000       1.00800           0
     20603 TIP3     3563     TIP3     OH2      OT      -0.834000       15.9994           0
     20604 TIP3     3563     TIP3     H1       HT       0.417000       1.00800           0
     20605 TIP3     3563     TIP3     H2       HT       0.417000       1.00800           0
     20606 TIP3     3564     TIP3     OH2      OT      -0.834000       15.9994           0
     20607 TIP3     3564     TIP3     H1       HT       0.417000       1.00800           0
     20608 TIP3     3564     TIP3     H2       HT       0.417000       1.00800           0
     20609 TIP3     3565     TIP3     OH2      OT      -0.834000       15.9994           0
     20610 TIP3     3565     TIP3     H1       HT       0.417000       1.00800           0
     20611 TIP3     3565     TIP3     H2       HT       0.417000       1.00800           0
     20612 TIP3     3566     TIP3     OH2      OT      -0.834000       15.9994           0
     20613 TIP3     3566     TIP3     H1       HT       0.417000       1.00800           0
     20614 TIP3     3566     TIP3     H2       HT       0.417000       1.00800           0
     20615 TIP3     3567     TIP3     OH2      OT      -0.834000       15.9994           0
     20616 TIP3     3567     TIP3     H1       HT       0.417000       1.00800           0
     20617 TIP3     3567     TIP3     H2       HT       0.417000       1.00800           0
     20618 TIP3     3568     TIP3     OH2      OT      -0.834000       15.9994           0
     20619 TIP3     3568     TIP3     H1       HT       0.417000       1.00800           0
     20620 TIP3     3568     TIP3     H2       HT       0.417000       1.00800           0
     20621 TIP3     3569     TIP3     OH2      OT      -0.834000       15.9994           0
     20622 TIP3     3569     TIP3     H1       HT       0.417000       1.00800           0
     20623 TIP3     3569     TIP3     H2       HT       0.417000       1.00800           0
     20624 TIP3     3570     TIP3     OH2      OT      -0.834000       15.9994           0
     20625 TIP3     3570     TIP3     H1       HT       0.417000       1.00800           0
     20626 TIP3     3570     TIP3     H2       HT       0.417000       1.00800           0
     20627 TIP3     3571     TIP3     OH2      OT      -0.834000       15.9994           0
     20628 TIP3     3571     TIP3     H1       HT       0.417000       1.00800           0
     20629 TIP3     3571     TIP3     H2       HT       0.417000       1.00800           0
     20630 TIP3     3572     TIP3     OH2      OT      -0.834000       15.9994           0
     20631 TIP3     3572     TIP3     H1       HT       0.417000       1.00800           0
     20632 TIP3     3572     TIP3     H2       HT       0.417000       1.00800           0
     20633 TIP3     3573     TIP3     OH2      OT      -0.834000       15.9994           0
     20634 TIP3     3573     TIP3     H1       HT       0.417000       1.00800           0
     20635 TIP3     3573     TIP3     H2       HT       0.417000       1.00800           0
     20636 TIP3     3574     TIP3     OH2      OT      -0.834000       15.9994           0
     20637 TIP3     3574     TIP3     H1       HT       0.417000       1.00800           0
     20638 TIP3     3574     TIP3     H2       HT       0.417000       1.00800           0
     20639 TIP3     3575     TIP3     OH2      OT      -0.834000       15.9994           0
     20640 TIP3     3575     TIP3     H1       HT       0.417000       1.00800           0
     20641 TIP3     3575     TIP3     H2       HT       0.417000       1.00800           0
     20642 TIP3     3576     TIP3     OH2      OT      -0.834000       15.9994           0
     20643 TIP3     3576     TIP3     H1       HT       0.417000       1.00800           0
     20644 TIP3     3576     TIP3     H2       HT       0.417000       1.00800           0
     20645 TIP3     3577     TIP3     OH2      OT      -0.834000       15.9994           0
     20646 TIP3     3577     TIP3     H1       HT       0.417000       1.00800           0
     20647 TIP3     3577     TIP3     H2       HT       0.417000       1.00800           0
     20648 TIP3     3578     TIP3     OH2      OT      -0.834000       15.9994           0
     20649 TIP3     3578     TIP3     H1       HT       0.417000       1.00800           0
     20650 TIP3     3578     TIP3     H2       HT       0.417000       1.00800           0
     20651 TIP3     3579     TIP3     OH2      OT      -0.834000       15.9994           0
     20652 TIP3     3579     TIP3     H1       HT       0.417000       1.00800           0
     20653 TIP3     3579     TIP3     H2       HT       0.417000       1.00800           0
     20654 TIP3     3580     TIP3     OH2      OT      -0.834000       15.9994           0
     20655 TIP3     3580     TIP3     H1       HT       0.417000       1.00800           0
     20656 TIP3     3580     TIP3     H2       HT       0.417000       1.00800           0
     20657 TIP3     3581     TIP3     OH2      OT      -0.834000       15.9994           0
     20658 TIP3     3581     TIP3     H1       HT       0.417000       1.00800           0
     20659 TIP3     3581     TIP3     H2       HT       0.417000       1.00800           0
     20660 TIP3     3582     TIP3     OH2      OT      -0.834000       15.9994           0
     20661 TIP3     3582     TIP3     H1       HT       0.417000       1.00800           0
     20662 TIP3     3582     TIP3     H2       HT       0.417000       1.00800           0
     20663 TIP3     3583     TIP3     OH2      OT      -0.834000       15.9994           0
     20664 TIP3     3583     TIP3     H1       HT       0.417000       1.00800           0
     20665 TIP3     3583     TIP3     H2       HT       0.417000       1.00800           0
     20666 TIP3     3584     TIP3     OH2      OT      -0.834000       15.9994           0
     20667 TIP3     3584     TIP3     H1       HT       0.417000       1.00800           0
     20668 TIP3     3584     TIP3     H2       HT       0.417000       1.00800           0
     20669 TIP3     3585     TIP3     OH2      OT      -0.834000       15.9994           0
     20670 TIP3     3585     TIP3     H1       HT       0.417000       1.00800           0
     20671 TIP3     3585     TIP3     H2       HT       0.417000       1.00800           0
     20672 TIP3     3586     TIP3     OH2      OT      -0.834000       15.9994           0
     20673 TIP3     3586     TIP3     H1       HT       0.417000       1.00800           0
     20674 TIP3     3586     TIP3     H2       HT       0.417000       1.00800           0
     20675 TIP3     3587     TIP3     OH2      OT      -0.834000       15.9994           0
     20676 TIP3     3587     TIP3     H1       HT       0.417000       1.00800           0
     20677 TIP3     3587     TIP3     H2       HT       0.417000       1.00800           0
     20678 TIP3     3588     TIP3     OH2      OT      -0.834000       15.9994           0
     20679 TIP3     3588     TIP3     H1       HT       0.417000       1.00800           0
     20680 TIP3     3588     TIP3     H2       HT       0.417000       1.00800           0
     20681 TIP3     3589     TIP3     OH2      OT      -0.834000       15.9994           0
     20682 TIP3     3589     TIP3     H1       HT       0.417000       1.00800           0
     20683 TIP3     3589     TIP3     H2       HT       0.417000       1.00800           0
     20684 TIP3     3590     TIP3     OH2      OT      -0.834000       15.9994           0
     20685 TIP3     3590     TIP3     H1       HT       0.417000       1.00800           0
     20686 TIP3     3590     TIP3     H2       HT       0.417000       1.00800           0
     20687 TIP3     3591     TIP3     OH2      OT      -0.834000       15.9994           0
     20688 TIP3     3591     TIP3     H1       HT       0.417000       1.00800           0
     20689 TIP3     3591     TIP3     H2       HT       0.417000       1.00800           0
     20690 TIP3     3592     TIP3     OH2      OT      -0.834000       15.9994           0
     20691 TIP3     3592     TIP3     H1       HT       0.417000       1.00800           0
     20692 TIP3     3592     TIP3     H2       HT       0.417000       1.00800           0
     20693 TIP3     3593     TIP3     OH2      OT      -0.834000       15.9994           0
     20694 TIP3     3593     TIP3     H1       HT       0.417000       1.00800           0
     20695 TIP3     3593     TIP3     H2       HT       0.417000       1.00800           0
     20696 TIP3     3594     TIP3     OH2      OT      -0.834000       15.9994           0
     20697 TIP3     3594     TIP3     H1       HT       0.417000       1.00800           0
     20698 TIP3     3594     TIP3     H2       HT       0.417000       1.00800           0
     20699 TIP3     3595     TIP3     OH2      OT      -0.834000       15.9994           0
     20700 TIP3     3595     TIP3     H1       HT       0.417000       1.00800           0
     20701 TIP3     3595     TIP3     H2       HT       0.417000       1.00800           0
     20702 TIP3     3596     TIP3     OH2      OT      -0.834000       15.9994           0
     20703 TIP3     3596     TIP3     H1       HT       0.417000       1.00800           0
     20704 TIP3     3596     TIP3     H2       HT       0.417000       1.00800           0
     20705 TIP3     3597     TIP3     OH2      OT      -0.834000       15.9994           0
     20706 TIP3     3597     TIP3     H1       HT       0.417000       1.00800           0
     20707 TIP3     3597     TIP3     H2       HT       0.417000       1.00800           0
     20708 TIP3     3598     TIP3     OH2      OT      -0.834000       15.9994           0
     20709 TIP3     3598     TIP3     H1       HT       0.417000       1.00800           0
     20710 TIP3     3598     TIP3     H2       HT       0.417000       1.00800           0
     20711 TIP3     3599     TIP3     OH2      OT      -0.834000       15.9994           0
     20712 TIP3     3599     TIP3     H1       HT       0.417000       1.00800           0
     20713 TIP3     3599     TIP3     H2       HT       0.417000       1.00800           0
     20714 TIP3     3600     TIP3     OH2      OT      -0.834000       15.9994           0
     20715 TIP3     3600     TIP3     H1       HT       0.417000       1.00800           0
     20716 TIP3     3600     TIP3     H2       HT       0.417000       1.00800           0
     20717 TIP3     3601     TIP3     OH2      OT      -0.834000       15.9994           0
     20718 TIP3     3601     TIP3     H1       HT       0.417000       1.00800           0
     20719 TIP3     3601     TIP3     H2       HT       0.417000       1.00800           0
     20720 TIP3     3602     TIP3     OH2      OT      -0.834000       15.9994           0
     20721 TIP3     3602     TIP3     H1       HT       0.417000       1.00800           0
     20722 TIP3     3602     TIP3     H2       HT       0.417000       1.00800           0
     20723 TIP3     3603     TIP3     OH2      OT      -0.834000       15.9994           0
     20724 TIP3     3603     TIP3     H1       HT       0.417000       1.00800           0
     20725 TIP3     3603     TIP3     H2       HT       0.417000       1.00800           0
     20726 TIP3     3604     TIP3     OH2      OT      -0.834000       15.9994           0
     20727 TIP3     3604     TIP3     H1       HT       0.417000       1.00800           0
     20728 TIP3     3604     TIP3     H2       HT       0.417000       1.00800           0
     20729 TIP3     3605     TIP3     OH2      OT      -0.834000       15.9994           0
     20730 TIP3     3605     TIP3     H1       HT       0.417000       1.00800           0
     20731 TIP3     3605     TIP3     H2       HT       0.417000       1.00800           0
     20732 TIP3     3606     TIP3     OH2      OT      -0.834000       15.9994           0
     20733 TIP3     3606     TIP3     H1       HT       0.417000       1.00800           0
     20734 TIP3     3606     TIP3     H2       HT       0.417000       1.00800           0
     20735 TIP3     3607     TIP3     OH2      OT      -0.834000       15.9994           0
     20736 TIP3     3607     TIP3     H1       HT       0.417000       1.00800           0
     20737 TIP3     3607     TIP3     H2       HT       0.417000       1.00800           0
     20738 TIP3     3608     TIP3     OH2      OT      -0.834000       15.9994           0
     20739 TIP3     3608     TIP3     H1       HT       0.417000       1.00800           0
     20740 TIP3     3608     TIP3     H2       HT       0.417000       1.00800           0
     20741 TIP3     3609     TIP3     OH2      OT      -0.834000       15.9994           0
     20742 TIP3     3609     TIP3     H1       HT       0.417000       1.00800           0
     20743 TIP3     3609     TIP3     H2       HT       0.417000       1.00800           0
     20744 TIP3     3610     TIP3     OH2      OT      -0.834000       15.9994           0
     20745 TIP3     3610     TIP3     H1       HT       0.417000       1.00800           0
     20746 TIP3     3610     TIP3     H2       HT       0.417000       1.00800           0
     20747 TIP3     3611     TIP3     OH2      OT      -0.834000       15.9994           0
     20748 TIP3     3611     TIP3     H1       HT       0.417000       1.00800           0
     20749 TIP3     3611     TIP3     H2       HT       0.417000       1.00800           0
     20750 TIP3     3612     TIP3     OH2      OT      -0.834000       15.9994           0
     20751 TIP3     3612     TIP3     H1       HT       0.417000       1.00800           0
     20752 TIP3     3612     TIP3     H2       HT       0.417000       1.00800           0
     20753 TIP3     3613     TIP3     OH2      OT      -0.834000       15.9994           0
     20754 TIP3     3613     TIP3     H1       HT       0.417000       1.00800           0
     20755 TIP3     3613     TIP3     H2       HT       0.417000       1.00800           0
     20756 TIP3     3614     TIP3     OH2      OT      -0.834000       15.9994           0
     20757 TIP3     3614     TIP3     H1       HT       0.417000       1.00800           0
     20758 TIP3     3614     TIP3     H2       HT       0.417000       1.00800           0
     20759 TIP3     3615     TIP3     OH2      OT      -0.834000       15.9994           0
     20760 TIP3     3615     TIP3     H1       HT       0.417000       1.00800           0
     20761 TIP3     3615     TIP3     H2       HT       0.417000       1.00800           0
     20762 TIP3     3616     TIP3     OH2      OT      -0.834000       15.9994           0
     20763 TIP3     3616     TIP3     H1       HT       0.417000       1.00800           0
     20764 TIP3     3616     TIP3     H2       HT       0.417000       1.00800           0
     20765 TIP3     3617     TIP3     OH2      OT      -0.834000       15.9994           0
     20766 TIP3     3617     TIP3     H1       HT       0.417000       1.00800           0
     20767 TIP3     3617     TIP3     H2       HT       0.417000       1.00800           0
     20768 TIP3     3618     TIP3     OH2      OT      -0.834000       15.9994           0
     20769 TIP3     3618     TIP3     H1       HT       0.417000       1.00800           0
     20770 TIP3     3618     TIP3     H2       HT       0.417000       1.00800           0
     20771 TIP3     3619     TIP3     OH2      OT      -0.834000       15.9994           0
     20772 TIP3     3619     TIP3     H1       HT       0.417000       1.00800           0
     20773 TIP3     3619     TIP3     H2       HT       0.417000       1.00800           0
     20774 TIP3     3620     TIP3     OH2      OT      -0.834000       15.9994           0
     20775 TIP3     3620     TIP3     H1       HT       0.417000       1.00800           0
     20776 TIP3     3620     TIP3     H2       HT       0.417000       1.00800           0
     20777 TIP3     3621     TIP3     OH2      OT      -0.834000       15.9994           0
     20778 TIP3     3621     TIP3     H1       HT       0.417000       1.00800           0
     20779 TIP3     3621     TIP3     H2       HT       0.417000       1.00800           0
     20780 TIP3     3622     TIP3     OH2      OT      -0.834000       15.9994           0
     20781 TIP3     3622     TIP3     H1       HT       0.417000       1.00800           0
     20782 TIP3     3622     TIP3     H2       HT       0.417000       1.00800           0
     20783 TIP3     3623     TIP3     OH2      OT      -0.834000       15.9994           0
     20784 TIP3     3623     TIP3     H1       HT       0.417000       1.00800           0
     20785 TIP3     3623     TIP3     H2       HT       0.417000       1.00800           0
     20786 TIP3     3624     TIP3     OH2      OT      -0.834000       15.9994           0
     20787 TIP3     3624     TIP3     H1       HT       0.417000       1.00800           0
     20788 TIP3     3624     TIP3     H2       HT       0.417000       1.00800           0
     20789 TIP3     3625     TIP3     OH2      OT      -0.834000       15.9994           0
     20790 TIP3     3625     TIP3     H1       HT       0.417000       1.00800           0
     20791 TIP3     3625     TIP3     H2       HT       0.417000       1.00800           0
     20792 TIP3     3626     TIP3     OH2      OT      -0.834000       15.9994           0
     20793 TIP3     3626     TIP3     H1       HT       0.417000       1.00800           0
     20794 TIP3     3626     TIP3     H2       HT       0.417000       1.00800           0
     20795 TIP3     3627     TIP3     OH2      OT      -0.834000       15.9994           0
     20796 TIP3     3627     TIP3     H1       HT       0.417000       1.00800           0
     20797 TIP3     3627     TIP3     H2       HT       0.417000       1.00800           0
     20798 TIP3     3628     TIP3     OH2      OT      -0.834000       15.9994           0
     20799 TIP3     3628     TIP3     H1       HT       0.417000       1.00800           0
     20800 TIP3     3628     TIP3     H2       HT       0.417000       1.00800           0
     20801 TIP3     3629     TIP3     OH2      OT      -0.834000       15.9994           0
     20802 TIP3     3629     TIP3     H1       HT       0.417000       1.00800           0
     20803 TIP3     3629     TIP3     H2       HT       0.417000       1.00800           0
     20804 TIP3     3630     TIP3     OH2      OT      -0.834000       15.9994           0
     20805 TIP3     3630     TIP3     H1       HT       0.417000       1.00800           0
     20806 TIP3     3630     TIP3     H2       HT       0.417000       1.00800           0
     20807 TIP3     3631     TIP3     OH2      OT      -0.834000       15.9994           0
     20808 TIP3     3631     TIP3     H1       HT       0.417000       1.00800           0
     20809 TIP3     3631     TIP3     H2       HT       0.417000       1.00800           0
     20810 TIP3     3632     TIP3     OH2      OT      -0.834000       15.9994           0
     20811 TIP3     3632     TIP3     H1       HT       0.417000       1.00800           0
     20812 TIP3     3632     TIP3     H2       HT       0.417000       1.00800           0
     20813 TIP3     3633     TIP3     OH2      OT      -0.834000       15.9994           0
     20814 TIP3     3633     TIP3     H1       HT       0.417000       1.00800           0
     20815 TIP3     3633     TIP3     H2       HT       0.417000       1.00800           0
     20816 TIP3     3634     TIP3     OH2      OT      -0.834000       15.9994           0
     20817 TIP3     3634     TIP3     H1       HT       0.417000       1.00800           0
     20818 TIP3     3634     TIP3     H2       HT       0.417000       1.00800           0
     20819 TIP3     3635     TIP3     OH2      OT      -0.834000       15.9994           0
     20820 TIP3     3635     TIP3     H1       HT       0.417000       1.00800           0
     20821 TIP3     3635     TIP3     H2       HT       0.417000       1.00800           0
     20822 TIP3     3636     TIP3     OH2      OT      -0.834000       15.9994           0
     20823 TIP3     3636     TIP3     H1       HT       0.417000       1.00800           0
     20824 TIP3     3636     TIP3     H2       HT       0.417000       1.00800           0
     20825 TIP3     3637     TIP3     OH2      OT      -0.834000       15.9994           0
     20826 TIP3     3637     TIP3     H1       HT       0.417000       1.00800           0
     20827 TIP3     3637     TIP3     H2       HT       0.417000       1.00800           0
     20828 TIP3     3638     TIP3     OH2      OT      -0.834000       15.9994           0
     20829 TIP3     3638     TIP3     H1       HT       0.417000       1.00800           0
     20830 TIP3     3638     TIP3     H2       HT       0.417000       1.00800           0
     20831 TIP3     3639     TIP3     OH2      OT      -0.834000       15.9994           0
     20832 TIP3     3639     TIP3     H1       HT       0.417000       1.00800           0
     20833 TIP3     3639     TIP3     H2       HT       0.417000       1.00800           0
     20834 TIP3     3640     TIP3     OH2      OT      -0.834000       15.9994           0
     20835 TIP3     3640     TIP3     H1       HT       0.417000       1.00800           0
     20836 TIP3     3640     TIP3     H2       HT       0.417000       1.00800           0
     20837 TIP3     3641     TIP3     OH2      OT      -0.834000       15.9994           0
     20838 TIP3     3641     TIP3     H1       HT       0.417000       1.00800           0
     20839 TIP3     3641     TIP3     H2       HT       0.417000       1.00800           0
     20840 TIP3     3642     TIP3     OH2      OT      -0.834000       15.9994           0
     20841 TIP3     3642     TIP3     H1       HT       0.417000       1.00800           0
     20842 TIP3     3642     TIP3     H2       HT       0.417000       1.00800           0
     20843 TIP3     3643     TIP3     OH2      OT      -0.834000       15.9994           0
     20844 TIP3     3643     TIP3     H1       HT       0.417000       1.00800           0
     20845 TIP3     3643     TIP3     H2       HT       0.417000       1.00800           0
     20846 TIP3     3644     TIP3     OH2      OT      -0.834000       15.9994           0
     20847 TIP3     3644     TIP3     H1       HT       0.417000       1.00800           0
     20848 TIP3     3644     TIP3     H2       HT       0.417000       1.00800           0
     20849 TIP3     3645     TIP3     OH2      OT      -0.834000       15.9994           0
     20850 TIP3     3645     TIP3     H1       HT       0.417000       1.00800           0
     20851 TIP3     3645     TIP3     H2       HT       0.417000       1.00800           0
     20852 TIP3     3646     TIP3     OH2      OT      -0.834000       15.9994           0
     20853 TIP3     3646     TIP3     H1       HT       0.417000       1.00800           0
     20854 TIP3     3646     TIP3     H2       HT       0.417000       1.00800           0
     20855 TIP3     3647     TIP3     OH2      OT      -0.834000       15.9994           0
     20856 TIP3     3647     TIP3     H1       HT       0.417000       1.00800           0
     20857 TIP3     3647     TIP3     H2       HT       0.417000       1.00800           0
     20858 TIP3     3648     TIP3     OH2      OT      -0.834000       15.9994           0
     20859 TIP3     3648     TIP3     H1       HT       0.417000       1.00800           0
     20860 TIP3     3648     TIP3     H2       HT       0.417000       1.00800           0
     20861 TIP3     3649     TIP3     OH2      OT      -0.834000       15.9994           0
     20862 TIP3     3649     TIP3     H1       HT       0.417000       1.00800           0
     20863 TIP3     3649     TIP3     H2       HT       0.417000       1.00800           0
     20864 TIP3     3650     TIP3     OH2      OT      -0.834000       15.9994           0
     20865 TIP3     3650     TIP3     H1       HT       0.417000       1.00800           0
     20866 TIP3     3650     TIP3     H2       HT       0.417000       1.00800           0
     20867 TIP3     3651     TIP3     OH2      OT      -0.834000       15.9994           0
     20868 TIP3     3651     TIP3     H1       HT       0.417000       1.00800           0
     20869 TIP3     3651     TIP3     H2       HT       0.417000       1.00800           0
     20870 TIP3     3652     TIP3     OH2      OT      -0.834000       15.9994           0
     20871 TIP3     3652     TIP3     H1       HT       0.417000       1.00800           0
     20872 TIP3     3652     TIP3     H2       HT       0.417000       1.00800           0
     20873 TIP3     3653     TIP3     OH2      OT      -0.834000       15.9994           0
     20874 TIP3     3653     TIP3     H1       HT       0.417000       1.00800           0
     20875 TIP3     3653     TIP3     H2       HT       0.417000       1.00800           0
     20876 TIP3     3654     TIP3     OH2      OT      -0.834000       15.9994           0
     20877 TIP3     3654     TIP3     H1       HT       0.417000       1.00800           0
     20878 TIP3     3654     TIP3     H2       HT       0.417000       1.00800           0
     20879 TIP3     3655     TIP3     OH2      OT      -0.834000       15.9994           0
     20880 TIP3     3655     TIP3     H1       HT       0.417000       1.00800           0
     20881 TIP3     3655     TIP3     H2       HT       0.417000       1.00800           0
     20882 TIP3     3656     TIP3     OH2      OT      -0.834000       15.9994           0
     20883 TIP3     3656     TIP3     H1       HT       0.417000       1.00800           0
     20884 TIP3     3656     TIP3     H2       HT       0.417000       1.00800           0
     20885 TIP3     3657     TIP3     OH2      OT      -0.834000       15.9994           0
     20886 TIP3     3657     TIP3     H1       HT       0.417000       1.00800           0
     20887 TIP3     3657     TIP3     H2       HT       0.417000       1.00800           0
     20888 TIP3     3658     TIP3     OH2      OT      -0.834000       15.9994           0
     20889 TIP3     3658     TIP3     H1       HT       0.417000       1.00800           0
     20890 TIP3     3658     TIP3     H2       HT       0.417000       1.00800           0
     20891 TIP3     3659     TIP3     OH2      OT      -0.834000       15.9994           0
     20892 TIP3     3659     TIP3     H1       HT       0.417000       1.00800           0
     20893 TIP3     3659     TIP3     H2       HT       0.417000       1.00800           0
     20894 TIP3     3660     TIP3     OH2      OT      -0.834000       15.9994           0
     20895 TIP3     3660     TIP3     H1       HT       0.417000       1.00800           0
     20896 TIP3     3660     TIP3     H2       HT       0.417000       1.00800           0
     20897 TIP3     3661     TIP3     OH2      OT      -0.834000       15.9994           0
     20898 TIP3     3661     TIP3     H1       HT       0.417000       1.00800           0
     20899 TIP3     3661     TIP3     H2       HT       0.417000       1.00800           0
     20900 TIP3     3662     TIP3     OH2      OT      -0.834000       15.9994           0
     20901 TIP3     3662     TIP3     H1       HT       0.417000       1.00800           0
     20902 TIP3     3662     TIP3     H2       HT       0.417000       1.00800           0
     20903 TIP3     3663     TIP3     OH2      OT      -0.834000       15.9994           0
     20904 TIP3     3663     TIP3     H1       HT       0.417000       1.00800           0
     20905 TIP3     3663     TIP3     H2       HT       0.417000       1.00800           0
     20906 TIP3     3664     TIP3     OH2      OT      -0.834000       15.9994           0
     20907 TIP3     3664     TIP3     H1       HT       0.417000       1.00800           0
     20908 TIP3     3664     TIP3     H2       HT       0.417000       1.00800           0
     20909 TIP3     3665     TIP3     OH2      OT      -0.834000       15.9994           0
     20910 TIP3     3665     TIP3     H1       HT       0.417000       1.00800           0
     20911 TIP3     3665     TIP3     H2       HT       0.417000       1.00800           0
     20912 TIP3     3666     TIP3     OH2      OT      -0.834000       15.9994           0
     20913 TIP3     3666     TIP3     H1       HT       0.417000       1.00800           0
     20914 TIP3     3666     TIP3     H2       HT       0.417000       1.00800           0
     20915 TIP3     3667     TIP3     OH2      OT      -0.834000       15.9994           0
     20916 TIP3     3667     TIP3     H1       HT       0.417000       1.00800           0
     20917 TIP3     3667     TIP3     H2       HT       0.417000       1.00800           0
     20918 TIP3     3668     TIP3     OH2      OT      -0.834000       15.9994           0
     20919 TIP3     3668     TIP3     H1       HT       0.417000       1.00800           0
     20920 TIP3     3668     TIP3     H2       HT       0.417000       1.00800           0
     20921 TIP3     3669     TIP3     OH2      OT      -0.834000       15.9994           0
     20922 TIP3     3669     TIP3     H1       HT       0.417000       1.00800           0
     20923 TIP3     3669     TIP3     H2       HT       0.417000       1.00800           0
     20924 TIP3     3670     TIP3     OH2      OT      -0.834000       15.9994           0
     20925 TIP3     3670     TIP3     H1       HT       0.417000       1.00800           0
     20926 TIP3     3670     TIP3     H2       HT       0.417000       1.00800           0
     20927 TIP3     3671     TIP3     OH2      OT      -0.834000       15.9994           0
     20928 TIP3     3671     TIP3     H1       HT       0.417000       1.00800           0
     20929 TIP3     3671     TIP3     H2       HT       0.417000       1.00800           0
     20930 TIP3     3672     TIP3     OH2      OT      -0.834000       15.9994           0
     20931 TIP3     3672     TIP3     H1       HT       0.417000       1.00800           0
     20932 TIP3     3672     TIP3     H2       HT       0.417000       1.00800           0
     20933 TIP3     3673     TIP3     OH2      OT      -0.834000       15.9994           0
     20934 TIP3     3673     TIP3     H1       HT       0.417000       1.00800           0
     20935 TIP3     3673     TIP3     H2       HT       0.417000       1.00800           0
     20936 TIP3     3674     TIP3     OH2      OT      -0.834000       15.9994           0
     20937 TIP3     3674     TIP3     H1       HT       0.417000       1.00800           0
     20938 TIP3     3674     TIP3     H2       HT       0.417000       1.00800           0
     20939 TIP3     3675     TIP3     OH2      OT      -0.834000       15.9994           0
     20940 TIP3     3675     TIP3     H1       HT       0.417000       1.00800           0
     20941 TIP3     3675     TIP3     H2       HT       0.417000       1.00800           0
     20942 TIP3     3676     TIP3     OH2      OT      -0.834000       15.9994           0
     20943 TIP3     3676     TIP3     H1       HT       0.417000       1.00800           0
     20944 TIP3     3676     TIP3     H2       HT       0.417000       1.00800           0
     20945 TIP3     3677     TIP3     OH2      OT      -0.834000       15.9994           0
     20946 TIP3     3677     TIP3     H1       HT       0.417000       1.00800           0
     20947 TIP3     3677     TIP3     H2       HT       0.417000       1.00800           0
     20948 TIP3     3678     TIP3     OH2      OT      -0.834000       15.9994           0
     20949 TIP3     3678     TIP3     H1       HT       0.417000       1.00800           0
     20950 TIP3     3678     TIP3     H2       HT       0.417000       1.00800           0
     20951 TIP3     3679     TIP3     OH2      OT      -0.834000       15.9994           0
     20952 TIP3     3679     TIP3     H1       HT       0.417000       1.00800           0
     20953 TIP3     3679     TIP3     H2       HT       0.417000       1.00800           0
     20954 TIP3     3680     TIP3     OH2      OT      -0.834000       15.9994           0
     20955 TIP3     3680     TIP3     H1       HT       0.417000       1.00800           0
     20956 TIP3     3680     TIP3     H2       HT       0.417000       1.00800           0
     20957 TIP3     3681     TIP3     OH2      OT      -0.834000       15.9994           0
     20958 TIP3     3681     TIP3     H1       HT       0.417000       1.00800           0
     20959 TIP3     3681     TIP3     H2       HT       0.417000       1.00800           0
     20960 TIP3     3682     TIP3     OH2      OT      -0.834000       15.9994           0
     20961 TIP3     3682     TIP3     H1       HT       0.417000       1.00800           0
     20962 TIP3     3682     TIP3     H2       HT       0.417000       1.00800           0
     20963 TIP3     3683     TIP3     OH2      OT      -0.834000       15.9994           0
     20964 TIP3     3683     TIP3     H1       HT       0.417000       1.00800           0
     20965 TIP3     3683     TIP3     H2       HT       0.417000       1.00800           0
     20966 TIP3     3684     TIP3     OH2      OT      -0.834000       15.9994           0
     20967 TIP3     3684     TIP3     H1       HT       0.417000       1.00800           0
     20968 TIP3     3684     TIP3     H2       HT       0.417000       1.00800           0
     20969 TIP3     3685     TIP3     OH2      OT      -0.834000       15.9994           0
     20970 TIP3     3685     TIP3     H1       HT       0.417000       1.00800           0
     20971 TIP3     3685     TIP3     H2       HT       0.417000       1.00800           0
     20972 TIP3     3686     TIP3     OH2      OT      -0.834000       15.9994           0
     20973 TIP3     3686     TIP3     H1       HT       0.417000       1.00800           0
     20974 TIP3     3686     TIP3     H2       HT       0.417000       1.00800           0
     20975 TIP3     3687     TIP3     OH2      OT      -0.834000       15.9994           0
     20976 TIP3     3687     TIP3     H1       HT       0.417000       1.00800           0
     20977 TIP3     3687     TIP3     H2       HT       0.417000       1.00800           0
     20978 TIP3     3688     TIP3     OH2      OT      -0.834000       15.9994           0
     20979 TIP3     3688     TIP3     H1       HT       0.417000       1.00800           0
     20980 TIP3     3688     TIP3     H2       HT       0.417000       1.00800           0
     20981 TIP3     3689     TIP3     OH2      OT      -0.834000       15.9994           0
     20982 TIP3     3689     TIP3     H1       HT       0.417000       1.00800           0
     20983 TIP3     3689     TIP3     H2       HT       0.417000       1.00800           0
     20984 TIP3     3690     TIP3     OH2      OT      -0.834000       15.9994           0
     20985 TIP3     3690     TIP3     H1       HT       0.417000       1.00800           0
     20986 TIP3     3690     TIP3     H2       HT       0.417000       1.00800           0
     20987 TIP3     3691     TIP3     OH2      OT      -0.834000       15.9994           0
     20988 TIP3     3691     TIP3     H1       HT       0.417000       1.00800           0
     20989 TIP3     3691     TIP3     H2       HT       0.417000       1.00800           0
     20990 TIP3     3692     TIP3     OH2      OT      -0.834000       15.9994           0
     20991 TIP3     3692     TIP3     H1       HT       0.417000       1.00800           0
     20992 TIP3     3692     TIP3     H2       HT       0.417000       1.00800           0
     20993 TIP3     3693     TIP3     OH2      OT      -0.834000       15.9994           0
     20994 TIP3     3693     TIP3     H1       HT       0.417000       1.00800           0
     20995 TIP3     3693     TIP3     H2       HT       0.417000       1.00800           0
     20996 TIP3     3694     TIP3     OH2      OT      -0.834000       15.9994           0
     20997 TIP3     3694     TIP3     H1       HT       0.417000       1.00800           0
     20998 TIP3     3694     TIP3     H2       HT       0.417000       1.00800           0
     20999 TIP3     3695     TIP3     OH2      OT      -0.834000       15.9994           0
     21000 TIP3     3695     TIP3     H1       HT       0.417000       1.00800           0
     21001 TIP3     3695     TIP3     H2       HT       0.417000       1.00800           0
     21002 TIP3     3696     TIP3     OH2      OT      -0.834000       15.9994           0
     21003 TIP3     3696     TIP3     H1       HT       0.417000       1.00800           0
     21004 TIP3     3696     TIP3     H2       HT       0.417000       1.00800           0
     21005 TIP3     3697     TIP3     OH2      OT      -0.834000       15.9994           0
     21006 TIP3     3697     TIP3     H1       HT       0.417000       1.00800           0
     21007 TIP3     3697     TIP3     H2       HT       0.417000       1.00800           0
     21008 TIP3     3698     TIP3     OH2      OT      -0.834000       15.9994           0
     21009 TIP3     3698     TIP3     H1       HT       0.417000       1.00800           0
     21010 TIP3     3698     TIP3     H2       HT       0.417000       1.00800           0
     21011 TIP3     3699     TIP3     OH2      OT      -0.834000       15.9994           0
     21012 TIP3     3699     TIP3     H1       HT       0.417000       1.00800           0
     21013 TIP3     3699     TIP3     H2       HT       0.417000       1.00800           0
     21014 TIP3     3700     TIP3     OH2      OT      -0.834000       15.9994           0
     21015 TIP3     3700     TIP3     H1       HT       0.417000       1.00800           0
     21016 TIP3     3700     TIP3     H2       HT       0.417000       1.00800           0
     21017 TIP3     3701     TIP3     OH2      OT      -0.834000       15.9994           0
     21018 TIP3     3701     TIP3     H1       HT       0.417000       1.00800           0
     21019 TIP3     3701     TIP3     H2       HT       0.417000       1.00800           0
     21020 TIP3     3702     TIP3     OH2      OT      -0.834000       15.9994           0
     21021 TIP3     3702     TIP3     H1       HT       0.417000       1.00800           0
     21022 TIP3     3702     TIP3     H2       HT       0.417000       1.00800           0
     21023 TIP3     3703     TIP3     OH2      OT      -0.834000       15.9994           0
     21024 TIP3     3703     TIP3     H1       HT       0.417000       1.00800           0
     21025 TIP3     3703     TIP3     H2       HT       0.417000       1.00800           0
     21026 TIP3     3704     TIP3     OH2      OT      -0.834000       15.9994           0
     21027 TIP3     3704     TIP3     H1       HT       0.417000       1.00800           0
     21028 TIP3     3704     TIP3     H2       HT       0.417000       1.00800           0
     21029 TIP3     3705     TIP3     OH2      OT      -0.834000       15.9994           0
     21030 TIP3     3705     TIP3     H1       HT       0.417000       1.00800           0
     21031 TIP3     3705     TIP3     H2       HT       0.417000       1.00800           0
     21032 TIP3     3706     TIP3     OH2      OT      -0.834000       15.9994           0
     21033 TIP3     3706     TIP3     H1       HT       0.417000       1.00800           0
     21034 TIP3     3706     TIP3     H2       HT       0.417000       1.00800           0
     21035 TIP3     3707     TIP3     OH2      OT      -0.834000       15.9994           0
     21036 TIP3     3707     TIP3     H1       HT       0.417000       1.00800           0
     21037 TIP3     3707     TIP3     H2       HT       0.417000       1.00800           0
     21038 TIP3     3708     TIP3     OH2      OT      -0.834000       15.9994           0
     21039 TIP3     3708     TIP3     H1       HT       0.417000       1.00800           0
     21040 TIP3     3708     TIP3     H2       HT       0.417000       1.00800           0
     21041 TIP3     3709     TIP3     OH2      OT      -0.834000       15.9994           0
     21042 TIP3     3709     TIP3     H1       HT       0.417000       1.00800           0
     21043 TIP3     3709     TIP3     H2       HT       0.417000       1.00800           0
     21044 TIP3     3710     TIP3     OH2      OT      -0.834000       15.9994           0
     21045 TIP3     3710     TIP3     H1       HT       0.417000       1.00800           0
     21046 TIP3     3710     TIP3     H2       HT       0.417000       1.00800           0
     21047 TIP3     3711     TIP3     OH2      OT      -0.834000       15.9994           0
     21048 TIP3     3711     TIP3     H1       HT       0.417000       1.00800           0
     21049 TIP3     3711     TIP3     H2       HT       0.417000       1.00800           0
     21050 TIP3     3712     TIP3     OH2      OT      -0.834000       15.9994           0
     21051 TIP3     3712     TIP3     H1       HT       0.417000       1.00800           0
     21052 TIP3     3712     TIP3     H2       HT       0.417000       1.00800           0
     21053 TIP3     3713     TIP3     OH2      OT      -0.834000       15.9994           0
     21054 TIP3     3713     TIP3     H1       HT       0.417000       1.00800           0
     21055 TIP3     3713     TIP3     H2       HT       0.417000       1.00800           0
     21056 TIP3     3714     TIP3     OH2      OT      -0.834000       15.9994           0
     21057 TIP3     3714     TIP3     H1       HT       0.417000       1.00800           0
     21058 TIP3     3714     TIP3     H2       HT       0.417000       1.00800           0
     21059 TIP3     3715     TIP3     OH2      OT      -0.834000       15.9994           0
     21060 TIP3     3715     TIP3     H1       HT       0.417000       1.00800           0
     21061 TIP3     3715     TIP3     H2       HT       0.417000       1.00800           0
     21062 TIP3     3716     TIP3     OH2      OT      -0.834000       15.9994           0
     21063 TIP3     3716     TIP3     H1       HT       0.417000       1.00800           0
     21064 TIP3     3716     TIP3     H2       HT       0.417000       1.00800           0
     21065 TIP3     3717     TIP3     OH2      OT      -0.834000       15.9994           0
     21066 TIP3     3717     TIP3     H1       HT       0.417000       1.00800           0
     21067 TIP3     3717     TIP3     H2       HT       0.417000       1.00800           0
     21068 TIP3     3718     TIP3     OH2      OT      -0.834000       15.9994           0
     21069 TIP3     3718     TIP3     H1       HT       0.417000       1.00800           0
     21070 TIP3     3718     TIP3     H2       HT       0.417000       1.00800           0
     21071 TIP3     3719     TIP3     OH2      OT      -0.834000       15.9994           0
     21072 TIP3     3719     TIP3     H1       HT       0.417000       1.00800           0
     21073 TIP3     3719     TIP3     H2       HT       0.417000       1.00800           0
     21074 TIP3     3720     TIP3     OH2      OT      -0.834000       15.9994           0
     21075 TIP3     3720     TIP3     H1       HT       0.417000       1.00800           0
     21076 TIP3     3720     TIP3     H2       HT       0.417000       1.00800           0
     21077 TIP3     3721     TIP3     OH2      OT      -0.834000       15.9994           0
     21078 TIP3     3721     TIP3     H1       HT       0.417000       1.00800           0
     21079 TIP3     3721     TIP3     H2       HT       0.417000       1.00800           0
     21080 TIP3     3722     TIP3     OH2      OT      -0.834000       15.9994           0
     21081 TIP3     3722     TIP3     H1       HT       0.417000       1.00800           0
     21082 TIP3     3722     TIP3     H2       HT       0.417000       1.00800           0
     21083 TIP3     3723     TIP3     OH2      OT      -0.834000       15.9994           0
     21084 TIP3     3723     TIP3     H1       HT       0.417000       1.00800           0
     21085 TIP3     3723     TIP3     H2       HT       0.417000       1.00800           0
     21086 TIP3     3724     TIP3     OH2      OT      -0.834000       15.9994           0
     21087 TIP3     3724     TIP3     H1       HT       0.417000       1.00800           0
     21088 TIP3     3724     TIP3     H2       HT       0.417000       1.00800           0
     21089 TIP3     3725     TIP3     OH2      OT      -0.834000       15.9994           0
     21090 TIP3     3725     TIP3     H1       HT       0.417000       1.00800           0
     21091 TIP3     3725     TIP3     H2       HT       0.417000       1.00800           0
     21092 TIP3     3726     TIP3     OH2      OT      -0.834000       15.9994           0
     21093 TIP3     3726     TIP3     H1       HT       0.417000       1.00800           0
     21094 TIP3     3726     TIP3     H2       HT       0.417000       1.00800           0
     21095 TIP3     3727     TIP3     OH2      OT      -0.834000       15.9994           0
     21096 TIP3     3727     TIP3     H1       HT       0.417000       1.00800           0
     21097 TIP3     3727     TIP3     H2       HT       0.417000       1.00800           0
     21098 TIP3     3728     TIP3     OH2      OT      -0.834000       15.9994           0
     21099 TIP3     3728     TIP3     H1       HT       0.417000       1.00800           0
     21100 TIP3     3728     TIP3     H2       HT       0.417000       1.00800           0
     21101 TIP3     3729     TIP3     OH2      OT      -0.834000       15.9994           0
     21102 TIP3     3729     TIP3     H1       HT       0.417000       1.00800           0
     21103 TIP3     3729     TIP3     H2       HT       0.417000       1.00800           0
     21104 TIP3     3730     TIP3     OH2      OT      -0.834000       15.9994           0
     21105 TIP3     3730     TIP3     H1       HT       0.417000       1.00800           0
     21106 TIP3     3730     TIP3     H2       HT       0.417000       1.00800           0
     21107 TIP3     3731     TIP3     OH2      OT      -0.834000       15.9994           0
     21108 TIP3     3731     TIP3     H1       HT       0.417000       1.00800           0
     21109 TIP3     3731     TIP3     H2       HT       0.417000       1.00800           0
     21110 TIP3     3732     TIP3     OH2      OT      -0.834000       15.9994           0
     21111 TIP3     3732     TIP3     H1       HT       0.417000       1.00800           0
     21112 TIP3     3732     TIP3     H2       HT       0.417000       1.00800           0
     21113 TIP3     3733     TIP3     OH2      OT      -0.834000       15.9994           0
     21114 TIP3     3733     TIP3     H1       HT       0.417000       1.00800           0
     21115 TIP3     3733     TIP3     H2       HT       0.417000       1.00800           0
     21116 TIP3     3734     TIP3     OH2      OT      -0.834000       15.9994           0
     21117 TIP3     3734     TIP3     H1       HT       0.417000       1.00800           0
     21118 TIP3     3734     TIP3     H2       HT       0.417000       1.00800           0
     21119 TIP3     3735     TIP3     OH2      OT      -0.834000       15.9994           0
     21120 TIP3     3735     TIP3     H1       HT       0.417000       1.00800           0
     21121 TIP3     3735     TIP3     H2       HT       0.417000       1.00800           0
     21122 TIP3     3736     TIP3     OH2      OT      -0.834000       15.9994           0
     21123 TIP3     3736     TIP3     H1       HT       0.417000       1.00800           0
     21124 TIP3     3736     TIP3     H2       HT       0.417000       1.00800           0
     21125 TIP3     3737     TIP3     OH2      OT      -0.834000       15.9994           0
     21126 TIP3     3737     TIP3     H1       HT       0.417000       1.00800           0
     21127 TIP3     3737     TIP3     H2       HT       0.417000       1.00800           0
     21128 TIP3     3738     TIP3     OH2      OT      -0.834000       15.9994           0
     21129 TIP3     3738     TIP3     H1       HT       0.417000       1.00800           0
     21130 TIP3     3738     TIP3     H2       HT       0.417000       1.00800           0
     21131 TIP3     3739     TIP3     OH2      OT      -0.834000       15.9994           0
     21132 TIP3     3739     TIP3     H1       HT       0.417000       1.00800           0
     21133 TIP3     3739     TIP3     H2       HT       0.417000       1.00800           0
     21134 TIP3     3740     TIP3     OH2      OT      -0.834000       15.9994           0
     21135 TIP3     3740     TIP3     H1       HT       0.417000       1.00800           0
     21136 TIP3     3740     TIP3     H2       HT       0.417000       1.00800           0
     21137 TIP3     3741     TIP3     OH2      OT      -0.834000       15.9994           0
     21138 TIP3     3741     TIP3     H1       HT       0.417000       1.00800           0
     21139 TIP3     3741     TIP3     H2       HT       0.417000       1.00800           0
     21140 TIP3     3742     TIP3     OH2      OT      -0.834000       15.9994           0
     21141 TIP3     3742     TIP3     H1       HT       0.417000       1.00800           0
     21142 TIP3     3742     TIP3     H2       HT       0.417000       1.00800           0
     21143 TIP3     3743     TIP3     OH2      OT      -0.834000       15.9994           0
     21144 TIP3     3743     TIP3     H1       HT       0.417000       1.00800           0
     21145 TIP3     3743     TIP3     H2       HT       0.417000       1.00800           0
     21146 TIP3     3744     TIP3     OH2      OT      -0.834000       15.9994           0
     21147 TIP3     3744     TIP3     H1       HT       0.417000       1.00800           0
     21148 TIP3     3744     TIP3     H2       HT       0.417000       1.00800           0
     21149 TIP3     3745     TIP3     OH2      OT      -0.834000       15.9994           0
     21150 TIP3     3745     TIP3     H1       HT       0.417000       1.00800           0
     21151 TIP3     3745     TIP3     H2       HT       0.417000       1.00800           0
     21152 TIP3     3746     TIP3     OH2      OT      -0.834000       15.9994           0
     21153 TIP3     3746     TIP3     H1       HT       0.417000       1.00800           0
     21154 TIP3     3746     TIP3     H2       HT       0.417000       1.00800           0
     21155 TIP3     3747     TIP3     OH2      OT      -0.834000       15.9994           0
     21156 TIP3     3747     TIP3     H1       HT       0.417000       1.00800           0
     21157 TIP3     3747     TIP3     H2       HT       0.417000       1.00800           0
     21158 TIP3     3748     TIP3     OH2      OT      -0.834000       15.9994           0
     21159 TIP3     3748     TIP3     H1       HT       0.417000       1.00800           0
     21160 TIP3     3748     TIP3     H2       HT       0.417000       1.00800           0
     21161 TIP3     3749     TIP3     OH2      OT      -0.834000       15.9994           0
     21162 TIP3     3749     TIP3     H1       HT       0.417000       1.00800           0
     21163 TIP3     3749     TIP3     H2       HT       0.417000       1.00800           0
     21164 TIP3     3750     TIP3     OH2      OT      -0.834000       15.9994           0
     21165 TIP3     3750     TIP3     H1       HT       0.417000       1.00800           0
     21166 TIP3     3750     TIP3     H2       HT       0.417000       1.00800           0
     21167 TIP3     3751     TIP3     OH2      OT      -0.834000       15.9994           0
     21168 TIP3     3751     TIP3     H1       HT       0.417000       1.00800           0
     21169 TIP3     3751     TIP3     H2       HT       0.417000       1.00800           0
     21170 TIP3     3752     TIP3     OH2      OT      -0.834000       15.9994           0
     21171 TIP3     3752     TIP3     H1       HT       0.417000       1.00800           0
     21172 TIP3     3752     TIP3     H2       HT       0.417000       1.00800           0
     21173 TIP3     3753     TIP3     OH2      OT      -0.834000       15.9994           0
     21174 TIP3     3753     TIP3     H1       HT       0.417000       1.00800           0
     21175 TIP3     3753     TIP3     H2       HT       0.417000       1.00800           0
     21176 TIP3     3754     TIP3     OH2      OT      -0.834000       15.9994           0
     21177 TIP3     3754     TIP3     H1       HT       0.417000       1.00800           0
     21178 TIP3     3754     TIP3     H2       HT       0.417000       1.00800           0
     21179 TIP3     3755     TIP3     OH2      OT      -0.834000       15.9994           0
     21180 TIP3     3755     TIP3     H1       HT       0.417000       1.00800           0
     21181 TIP3     3755     TIP3     H2       HT       0.417000       1.00800           0
     21182 TIP3     3756     TIP3     OH2      OT      -0.834000       15.9994           0
     21183 TIP3     3756     TIP3     H1       HT       0.417000       1.00800           0
     21184 TIP3     3756     TIP3     H2       HT       0.417000       1.00800           0
     21185 TIP3     3757     TIP3     OH2      OT      -0.834000       15.9994           0
     21186 TIP3     3757     TIP3     H1       HT       0.417000       1.00800           0
     21187 TIP3     3757     TIP3     H2       HT       0.417000       1.00800           0
     21188 TIP3     3758     TIP3     OH2      OT      -0.834000       15.9994           0
     21189 TIP3     3758     TIP3     H1       HT       0.417000       1.00800           0
     21190 TIP3     3758     TIP3     H2       HT       0.417000       1.00800           0
     21191 TIP3     3759     TIP3     OH2      OT      -0.834000       15.9994           0
     21192 TIP3     3759     TIP3     H1       HT       0.417000       1.00800           0
     21193 TIP3     3759     TIP3     H2       HT       0.417000       1.00800           0
     21194 TIP3     3760     TIP3     OH2      OT      -0.834000       15.9994           0
     21195 TIP3     3760     TIP3     H1       HT       0.417000       1.00800           0
     21196 TIP3     3760     TIP3     H2       HT       0.417000       1.00800           0
     21197 TIP3     3761     TIP3     OH2      OT      -0.834000       15.9994           0
     21198 TIP3     3761     TIP3     H1       HT       0.417000       1.00800           0
     21199 TIP3     3761     TIP3     H2       HT       0.417000       1.00800           0
     21200 TIP3     3762     TIP3     OH2      OT      -0.834000       15.9994           0
     21201 TIP3     3762     TIP3     H1       HT       0.417000       1.00800           0
     21202 TIP3     3762     TIP3     H2       HT       0.417000       1.00800           0
     21203 TIP3     3763     TIP3     OH2      OT      -0.834000       15.9994           0
     21204 TIP3     3763     TIP3     H1       HT       0.417000       1.00800           0
     21205 TIP3     3763     TIP3     H2       HT       0.417000       1.00800           0
     21206 TIP3     3764     TIP3     OH2      OT      -0.834000       15.9994           0
     21207 TIP3     3764     TIP3     H1       HT       0.417000       1.00800           0
     21208 TIP3     3764     TIP3     H2       HT       0.417000       1.00800           0
     21209 TIP3     3765     TIP3     OH2      OT      -0.834000       15.9994           0
     21210 TIP3     3765     TIP3     H1       HT       0.417000       1.00800           0
     21211 TIP3     3765     TIP3     H2       HT       0.417000       1.00800           0
     21212 TIP3     3766     TIP3     OH2      OT      -0.834000       15.9994           0
     21213 TIP3     3766     TIP3     H1       HT       0.417000       1.00800           0
     21214 TIP3     3766     TIP3     H2       HT       0.417000       1.00800           0
     21215 TIP3     3767     TIP3     OH2      OT      -0.834000       15.9994           0
     21216 TIP3     3767     TIP3     H1       HT       0.417000       1.00800           0
     21217 TIP3     3767     TIP3     H2       HT       0.417000       1.00800           0
     21218 TIP3     3768     TIP3     OH2      OT      -0.834000       15.9994           0
     21219 TIP3     3768     TIP3     H1       HT       0.417000       1.00800           0
     21220 TIP3     3768     TIP3     H2       HT       0.417000       1.00800           0
     21221 TIP3     3769     TIP3     OH2      OT      -0.834000       15.9994           0
     21222 TIP3     3769     TIP3     H1       HT       0.417000       1.00800           0
     21223 TIP3     3769     TIP3     H2       HT       0.417000       1.00800           0
     21224 TIP3     3770     TIP3     OH2      OT      -0.834000       15.9994           0
     21225 TIP3     3770     TIP3     H1       HT       0.417000       1.00800           0
     21226 TIP3     3770     TIP3     H2       HT       0.417000       1.00800           0
     21227 TIP3     3771     TIP3     OH2      OT      -0.834000       15.9994           0
     21228 TIP3     3771     TIP3     H1       HT       0.417000       1.00800           0
     21229 TIP3     3771     TIP3     H2       HT       0.417000       1.00800           0
     21230 TIP3     3772     TIP3     OH2      OT      -0.834000       15.9994           0
     21231 TIP3     3772     TIP3     H1       HT       0.417000       1.00800           0
     21232 TIP3     3772     TIP3     H2       HT       0.417000       1.00800           0
     21233 TIP3     3773     TIP3     OH2      OT      -0.834000       15.9994           0
     21234 TIP3     3773     TIP3     H1       HT       0.417000       1.00800           0
     21235 TIP3     3773     TIP3     H2       HT       0.417000       1.00800           0
     21236 TIP3     3774     TIP3     OH2      OT      -0.834000       15.9994           0
     21237 TIP3     3774     TIP3     H1       HT       0.417000       1.00800           0
     21238 TIP3     3774     TIP3     H2       HT       0.417000       1.00800           0
     21239 TIP3     3775     TIP3     OH2      OT      -0.834000       15.9994           0
     21240 TIP3     3775     TIP3     H1       HT       0.417000       1.00800           0
     21241 TIP3     3775     TIP3     H2       HT       0.417000       1.00800           0
     21242 TIP3     3776     TIP3     OH2      OT      -0.834000       15.9994           0
     21243 TIP3     3776     TIP3     H1       HT       0.417000       1.00800           0
     21244 TIP3     3776     TIP3     H2       HT       0.417000       1.00800           0
     21245 TIP3     3777     TIP3     OH2      OT      -0.834000       15.9994           0
     21246 TIP3     3777     TIP3     H1       HT       0.417000       1.00800           0
     21247 TIP3     3777     TIP3     H2       HT       0.417000       1.00800           0
     21248 TIP3     3778     TIP3     OH2      OT      -0.834000       15.9994           0
     21249 TIP3     3778     TIP3     H1       HT       0.417000       1.00800           0
     21250 TIP3     3778     TIP3     H2       HT       0.417000       1.00800           0
     21251 TIP3     3779     TIP3     OH2      OT      -0.834000       15.9994           0
     21252 TIP3     3779     TIP3     H1       HT       0.417000       1.00800           0
     21253 TIP3     3779     TIP3     H2       HT       0.417000       1.00800           0
     21254 TIP3     3780     TIP3     OH2      OT      -0.834000       15.9994           0
     21255 TIP3     3780     TIP3     H1       HT       0.417000       1.00800           0
     21256 TIP3     3780     TIP3     H2       HT       0.417000       1.00800           0
     21257 TIP3     3781     TIP3     OH2      OT      -0.834000       15.9994           0
     21258 TIP3     3781     TIP3     H1       HT       0.417000       1.00800           0
     21259 TIP3     3781     TIP3     H2       HT       0.417000       1.00800           0
     21260 TIP3     3782     TIP3     OH2      OT      -0.834000       15.9994           0
     21261 TIP3     3782     TIP3     H1       HT       0.417000       1.00800           0
     21262 TIP3     3782     TIP3     H2       HT       0.417000       1.00800           0
     21263 TIP3     3783     TIP3     OH2      OT      -0.834000       15.9994           0
     21264 TIP3     3783     TIP3     H1       HT       0.417000       1.00800           0
     21265 TIP3     3783     TIP3     H2       HT       0.417000       1.00800           0
     21266 TIP3     3784     TIP3     OH2      OT      -0.834000       15.9994           0
     21267 TIP3     3784     TIP3     H1       HT       0.417000       1.00800           0
     21268 TIP3     3784     TIP3     H2       HT       0.417000       1.00800           0
     21269 TIP3     3785     TIP3     OH2      OT      -0.834000       15.9994           0
     21270 TIP3     3785     TIP3     H1       HT       0.417000       1.00800           0
     21271 TIP3     3785     TIP3     H2       HT       0.417000       1.00800           0
     21272 TIP3     3786     TIP3     OH2      OT      -0.834000       15.9994           0
     21273 TIP3     3786     TIP3     H1       HT       0.417000       1.00800           0
     21274 TIP3     3786     TIP3     H2       HT       0.417000       1.00800           0
     21275 TIP3     3787     TIP3     OH2      OT      -0.834000       15.9994           0
     21276 TIP3     3787     TIP3     H1       HT       0.417000       1.00800           0
     21277 TIP3     3787     TIP3     H2       HT       0.417000       1.00800           0
     21278 TIP3     3788     TIP3     OH2      OT      -0.834000       15.9994           0
     21279 TIP3     3788     TIP3     H1       HT       0.417000       1.00800           0
     21280 TIP3     3788     TIP3     H2       HT       0.417000       1.00800           0
     21281 TIP3     3789     TIP3     OH2      OT      -0.834000       15.9994           0
     21282 TIP3     3789     TIP3     H1       HT       0.417000       1.00800           0
     21283 TIP3     3789     TIP3     H2       HT       0.417000       1.00800           0
     21284 TIP3     3790     TIP3     OH2      OT      -0.834000       15.9994           0
     21285 TIP3     3790     TIP3     H1       HT       0.417000       1.00800           0
     21286 TIP3     3790     TIP3     H2       HT       0.417000       1.00800           0
     21287 TIP3     3791     TIP3     OH2      OT      -0.834000       15.9994           0
     21288 TIP3     3791     TIP3     H1       HT       0.417000       1.00800           0
     21289 TIP3     3791     TIP3     H2       HT       0.417000       1.00800           0
     21290 TIP3     3792     TIP3     OH2      OT      -0.834000       15.9994           0
     21291 TIP3     3792     TIP3     H1       HT       0.417000       1.00800           0
     21292 TIP3     3792     TIP3     H2       HT       0.417000       1.00800           0
     21293 TIP3     3793     TIP3     OH2      OT      -0.834000       15.9994           0
     21294 TIP3     3793     TIP3     H1       HT       0.417000       1.00800           0
     21295 TIP3     3793     TIP3     H2       HT       0.417000       1.00800           0
     21296 TIP3     3794     TIP3     OH2      OT      -0.834000       15.9994           0
     21297 TIP3     3794     TIP3     H1       HT       0.417000       1.00800           0
     21298 TIP3     3794     TIP3     H2       HT       0.417000       1.00800           0
     21299 TIP3     3795     TIP3     OH2      OT      -0.834000       15.9994           0
     21300 TIP3     3795     TIP3     H1       HT       0.417000       1.00800           0
     21301 TIP3     3795     TIP3     H2       HT       0.417000       1.00800           0
     21302 TIP3     3796     TIP3     OH2      OT      -0.834000       15.9994           0
     21303 TIP3     3796     TIP3     H1       HT       0.417000       1.00800           0
     21304 TIP3     3796     TIP3     H2       HT       0.417000       1.00800           0
     21305 TIP3     3797     TIP3     OH2      OT      -0.834000       15.9994           0
     21306 TIP3     3797     TIP3     H1       HT       0.417000       1.00800           0
     21307 TIP3     3797     TIP3     H2       HT       0.417000       1.00800           0
     21308 TIP3     3798     TIP3     OH2      OT      -0.834000       15.9994           0
     21309 TIP3     3798     TIP3     H1       HT       0.417000       1.00800           0
     21310 TIP3     3798     TIP3     H2       HT       0.417000       1.00800           0
     21311 TIP3     3799     TIP3     OH2      OT      -0.834000       15.9994           0
     21312 TIP3     3799     TIP3     H1       HT       0.417000       1.00800           0
     21313 TIP3     3799     TIP3     H2       HT       0.417000       1.00800           0
     21314 TIP3     3800     TIP3     OH2      OT      -0.834000       15.9994           0
     21315 TIP3     3800     TIP3     H1       HT       0.417000       1.00800           0
     21316 TIP3     3800     TIP3     H2       HT       0.417000       1.00800           0
     21317 TIP3     3801     TIP3     OH2      OT      -0.834000       15.9994           0
     21318 TIP3     3801     TIP3     H1       HT       0.417000       1.00800           0
     21319 TIP3     3801     TIP3     H2       HT       0.417000       1.00800           0
     21320 TIP3     3802     TIP3     OH2      OT      -0.834000       15.9994           0
     21321 TIP3     3802     TIP3     H1       HT       0.417000       1.00800           0
     21322 TIP3     3802     TIP3     H2       HT       0.417000       1.00800           0
     21323 TIP3     3803     TIP3     OH2      OT      -0.834000       15.9994           0
     21324 TIP3     3803     TIP3     H1       HT       0.417000       1.00800           0
     21325 TIP3     3803     TIP3     H2       HT       0.417000       1.00800           0
     21326 TIP3     3804     TIP3     OH2      OT      -0.834000       15.9994           0
     21327 TIP3     3804     TIP3     H1       HT       0.417000       1.00800           0
     21328 TIP3     3804     TIP3     H2       HT       0.417000       1.00800           0
     21329 TIP3     3805     TIP3     OH2      OT      -0.834000       15.9994           0
     21330 TIP3     3805     TIP3     H1       HT       0.417000       1.00800           0
     21331 TIP3     3805     TIP3     H2       HT       0.417000       1.00800           0
     21332 TIP3     3806     TIP3     OH2      OT      -0.834000       15.9994           0
     21333 TIP3     3806     TIP3     H1       HT       0.417000       1.00800           0
     21334 TIP3     3806     TIP3     H2       HT       0.417000       1.00800           0
     21335 TIP3     3807     TIP3     OH2      OT      -0.834000       15.9994           0
     21336 TIP3     3807     TIP3     H1       HT       0.417000       1.00800           0
     21337 TIP3     3807     TIP3     H2       HT       0.417000       1.00800           0
     21338 TIP3     3808     TIP3     OH2      OT      -0.834000       15.9994           0
     21339 TIP3     3808     TIP3     H1       HT       0.417000       1.00800           0
     21340 TIP3     3808     TIP3     H2       HT       0.417000       1.00800           0
     21341 TIP3     3809     TIP3     OH2      OT      -0.834000       15.9994           0
     21342 TIP3     3809     TIP3     H1       HT       0.417000       1.00800           0
     21343 TIP3     3809     TIP3     H2       HT       0.417000       1.00800           0
     21344 TIP3     3810     TIP3     OH2      OT      -0.834000       15.9994           0
     21345 TIP3     3810     TIP3     H1       HT       0.417000       1.00800           0
     21346 TIP3     3810     TIP3     H2       HT       0.417000       1.00800           0
     21347 TIP3     3811     TIP3     OH2      OT      -0.834000       15.9994           0
     21348 TIP3     3811     TIP3     H1       HT       0.417000       1.00800           0
     21349 TIP3     3811     TIP3     H2       HT       0.417000       1.00800           0
     21350 TIP3     3812     TIP3     OH2      OT      -0.834000       15.9994           0
     21351 TIP3     3812     TIP3     H1       HT       0.417000       1.00800           0
     21352 TIP3     3812     TIP3     H2       HT       0.417000       1.00800           0
     21353 TIP3     3813     TIP3     OH2      OT      -0.834000       15.9994           0
     21354 TIP3     3813     TIP3     H1       HT       0.417000       1.00800           0
     21355 TIP3     3813     TIP3     H2       HT       0.417000       1.00800           0
     21356 TIP3     3814     TIP3     OH2      OT      -0.834000       15.9994           0
     21357 TIP3     3814     TIP3     H1       HT       0.417000       1.00800           0
     21358 TIP3     3814     TIP3     H2       HT       0.417000       1.00800           0
     21359 TIP3     3815     TIP3     OH2      OT      -0.834000       15.9994           0
     21360 TIP3     3815     TIP3     H1       HT       0.417000       1.00800           0
     21361 TIP3     3815     TIP3     H2       HT       0.417000       1.00800           0
     21362 TIP3     3816     TIP3     OH2      OT      -0.834000       15.9994           0
     21363 TIP3     3816     TIP3     H1       HT       0.417000       1.00800           0
     21364 TIP3     3816     TIP3     H2       HT       0.417000       1.00800           0
     21365 TIP3     3817     TIP3     OH2      OT      -0.834000       15.9994           0
     21366 TIP3     3817     TIP3     H1       HT       0.417000       1.00800           0
     21367 TIP3     3817     TIP3     H2       HT       0.417000       1.00800           0
     21368 TIP3     3818     TIP3     OH2      OT      -0.834000       15.9994           0
     21369 TIP3     3818     TIP3     H1       HT       0.417000       1.00800           0
     21370 TIP3     3818     TIP3     H2       HT       0.417000       1.00800           0
     21371 TIP3     3819     TIP3     OH2      OT      -0.834000       15.9994           0
     21372 TIP3     3819     TIP3     H1       HT       0.417000       1.00800           0
     21373 TIP3     3819     TIP3     H2       HT       0.417000       1.00800           0
     21374 TIP3     3820     TIP3     OH2      OT      -0.834000       15.9994           0
     21375 TIP3     3820     TIP3     H1       HT       0.417000       1.00800           0
     21376 TIP3     3820     TIP3     H2       HT       0.417000       1.00800           0
     21377 TIP3     3821     TIP3     OH2      OT      -0.834000       15.9994           0
     21378 TIP3     3821     TIP3     H1       HT       0.417000       1.00800           0
     21379 TIP3     3821     TIP3     H2       HT       0.417000       1.00800           0
     21380 TIP3     3822     TIP3     OH2      OT      -0.834000       15.9994           0
     21381 TIP3     3822     TIP3     H1       HT       0.417000       1.00800           0
     21382 TIP3     3822     TIP3     H2       HT       0.417000       1.00800           0
     21383 TIP3     3823     TIP3     OH2      OT      -0.834000       15.9994           0
     21384 TIP3     3823     TIP3     H1       HT       0.417000       1.00800           0
     21385 TIP3     3823     TIP3     H2       HT       0.417000       1.00800           0
     21386 TIP3     3824     TIP3     OH2      OT      -0.834000       15.9994           0
     21387 TIP3     3824     TIP3     H1       HT       0.417000       1.00800           0
     21388 TIP3     3824     TIP3     H2       HT       0.417000       1.00800           0
     21389 TIP3     3825     TIP3     OH2      OT      -0.834000       15.9994           0
     21390 TIP3     3825     TIP3     H1       HT       0.417000       1.00800           0
     21391 TIP3     3825     TIP3     H2       HT       0.417000       1.00800           0
     21392 TIP3     3826     TIP3     OH2      OT      -0.834000       15.9994           0
     21393 TIP3     3826     TIP3     H1       HT       0.417000       1.00800           0
     21394 TIP3     3826     TIP3     H2       HT       0.417000       1.00800           0
     21395 TIP3     3827     TIP3     OH2      OT      -0.834000       15.9994           0
     21396 TIP3     3827     TIP3     H1       HT       0.417000       1.00800           0
     21397 TIP3     3827     TIP3     H2       HT       0.417000       1.00800           0
     21398 TIP3     3828     TIP3     OH2      OT      -0.834000       15.9994           0
     21399 TIP3     3828     TIP3     H1       HT       0.417000       1.00800           0
     21400 TIP3     3828     TIP3     H2       HT       0.417000       1.00800           0
     21401 TIP3     3829     TIP3     OH2      OT      -0.834000       15.9994           0
     21402 TIP3     3829     TIP3     H1       HT       0.417000       1.00800           0
     21403 TIP3     3829     TIP3     H2       HT       0.417000       1.00800           0
     21404 TIP3     3830     TIP3     OH2      OT      -0.834000       15.9994           0
     21405 TIP3     3830     TIP3     H1       HT       0.417000       1.00800           0
     21406 TIP3     3830     TIP3     H2       HT       0.417000       1.00800           0
     21407 TIP3     3831     TIP3     OH2      OT      -0.834000       15.9994           0
     21408 TIP3     3831     TIP3     H1       HT       0.417000       1.00800           0
     21409 TIP3     3831     TIP3     H2       HT       0.417000       1.00800           0
     21410 TIP3     3832     TIP3     OH2      OT      -0.834000       15.9994           0
     21411 TIP3     3832     TIP3     H1       HT       0.417000       1.00800           0
     21412 TIP3     3832     TIP3     H2       HT       0.417000       1.00800           0
     21413 TIP3     3833     TIP3     OH2      OT      -0.834000       15.9994           0
     21414 TIP3     3833     TIP3     H1       HT       0.417000       1.00800           0
     21415 TIP3     3833     TIP3     H2       HT       0.417000       1.00800           0
     21416 TIP3     3834     TIP3     OH2      OT      -0.834000       15.9994           0
     21417 TIP3     3834     TIP3     H1       HT       0.417000       1.00800           0
     21418 TIP3     3834     TIP3     H2       HT       0.417000       1.00800           0
     21419 TIP3     3835     TIP3     OH2      OT      -0.834000       15.9994           0
     21420 TIP3     3835     TIP3     H1       HT       0.417000       1.00800           0
     21421 TIP3     3835     TIP3     H2       HT       0.417000       1.00800           0
     21422 TIP3     3836     TIP3     OH2      OT      -0.834000       15.9994           0
     21423 TIP3     3836     TIP3     H1       HT       0.417000       1.00800           0
     21424 TIP3     3836     TIP3     H2       HT       0.417000       1.00800           0
     21425 TIP3     3837     TIP3     OH2      OT      -0.834000       15.9994           0
     21426 TIP3     3837     TIP3     H1       HT       0.417000       1.00800           0
     21427 TIP3     3837     TIP3     H2       HT       0.417000       1.00800           0
     21428 TIP3     3838     TIP3     OH2      OT      -0.834000       15.9994           0
     21429 TIP3     3838     TIP3     H1       HT       0.417000       1.00800           0
     21430 TIP3     3838     TIP3     H2       HT       0.417000       1.00800           0
     21431 TIP3     3839     TIP3     OH2      OT      -0.834000       15.9994           0
     21432 TIP3     3839     TIP3     H1       HT       0.417000       1.00800           0
     21433 TIP3     3839     TIP3     H2       HT       0.417000       1.00800           0
     21434 TIP3     3840     TIP3     OH2      OT      -0.834000       15.9994           0
     21435 TIP3     3840     TIP3     H1       HT       0.417000       1.00800           0
     21436 TIP3     3840     TIP3     H2       HT       0.417000       1.00800           0
     21437 TIP3     3841     TIP3     OH2      OT      -0.834000       15.9994           0
     21438 TIP3     3841     TIP3     H1       HT       0.417000       1.00800           0
     21439 TIP3     3841     TIP3     H2       HT       0.417000       1.00800           0
     21440 TIP3     3842     TIP3     OH2      OT      -0.834000       15.9994           0
     21441 TIP3     3842     TIP3     H1       HT       0.417000       1.00800           0
     21442 TIP3     3842     TIP3     H2       HT       0.417000       1.00800           0
     21443 TIP3     3843     TIP3     OH2      OT      -0.834000       15.9994           0
     21444 TIP3     3843     TIP3     H1       HT       0.417000       1.00800           0
     21445 TIP3     3843     TIP3     H2       HT       0.417000       1.00800           0
     21446 TIP3     3844     TIP3     OH2      OT      -0.834000       15.9994           0
     21447 TIP3     3844     TIP3     H1       HT       0.417000       1.00800           0
     21448 TIP3     3844     TIP3     H2       HT       0.417000       1.00800           0
     21449 TIP3     3845     TIP3     OH2      OT      -0.834000       15.9994           0
     21450 TIP3     3845     TIP3     H1       HT       0.417000       1.00800           0
     21451 TIP3     3845     TIP3     H2       HT       0.417000       1.00800           0
     21452 TIP3     3846     TIP3     OH2      OT      -0.834000       15.9994           0
     21453 TIP3     3846     TIP3     H1       HT       0.417000       1.00800           0
     21454 TIP3     3846     TIP3     H2       HT       0.417000       1.00800           0
     21455 TIP3     3847     TIP3     OH2      OT      -0.834000       15.9994           0
     21456 TIP3     3847     TIP3     H1       HT       0.417000       1.00800           0
     21457 TIP3     3847     TIP3     H2       HT       0.417000       1.00800           0
     21458 TIP3     3848     TIP3     OH2      OT      -0.834000       15.9994           0
     21459 TIP3     3848     TIP3     H1       HT       0.417000       1.00800           0
     21460 TIP3     3848     TIP3     H2       HT       0.417000       1.00800           0
     21461 TIP3     3849     TIP3     OH2      OT      -0.834000       15.9994           0
     21462 TIP3     3849     TIP3     H1       HT       0.417000       1.00800           0
     21463 TIP3     3849     TIP3     H2       HT       0.417000       1.00800           0
     21464 TIP3     3850     TIP3     OH2      OT      -0.834000       15.9994           0
     21465 TIP3     3850     TIP3     H1       HT       0.417000       1.00800           0
     21466 TIP3     3850     TIP3     H2       HT       0.417000       1.00800           0
     21467 TIP3     3851     TIP3     OH2      OT      -0.834000       15.9994           0
     21468 TIP3     3851     TIP3     H1       HT       0.417000       1.00800           0
     21469 TIP3     3851     TIP3     H2       HT       0.417000       1.00800           0
     21470 TIP3     3852     TIP3     OH2      OT      -0.834000       15.9994           0
     21471 TIP3     3852     TIP3     H1       HT       0.417000       1.00800           0
     21472 TIP3     3852     TIP3     H2       HT       0.417000       1.00800           0
     21473 TIP3     3853     TIP3     OH2      OT      -0.834000       15.9994           0
     21474 TIP3     3853     TIP3     H1       HT       0.417000       1.00800           0
     21475 TIP3     3853     TIP3     H2       HT       0.417000       1.00800           0
     21476 TIP3     3854     TIP3     OH2      OT      -0.834000       15.9994           0
     21477 TIP3     3854     TIP3     H1       HT       0.417000       1.00800           0
     21478 TIP3     3854     TIP3     H2       HT       0.417000       1.00800           0
     21479 TIP3     3855     TIP3     OH2      OT      -0.834000       15.9994           0
     21480 TIP3     3855     TIP3     H1       HT       0.417000       1.00800           0
     21481 TIP3     3855     TIP3     H2       HT       0.417000       1.00800           0
     21482 TIP3     3856     TIP3     OH2      OT      -0.834000       15.9994           0
     21483 TIP3     3856     TIP3     H1       HT       0.417000       1.00800           0
     21484 TIP3     3856     TIP3     H2       HT       0.417000       1.00800           0
     21485 TIP3     3857     TIP3     OH2      OT      -0.834000       15.9994           0
     21486 TIP3     3857     TIP3     H1       HT       0.417000       1.00800           0
     21487 TIP3     3857     TIP3     H2       HT       0.417000       1.00800           0
     21488 TIP3     3858     TIP3     OH2      OT      -0.834000       15.9994           0
     21489 TIP3     3858     TIP3     H1       HT       0.417000       1.00800           0
     21490 TIP3     3858     TIP3     H2       HT       0.417000       1.00800           0
     21491 TIP3     3859     TIP3     OH2      OT      -0.834000       15.9994           0
     21492 TIP3     3859     TIP3     H1       HT       0.417000       1.00800           0
     21493 TIP3     3859     TIP3     H2       HT       0.417000       1.00800           0
     21494 TIP3     3860     TIP3     OH2      OT      -0.834000       15.9994           0
     21495 TIP3     3860     TIP3     H1       HT       0.417000       1.00800           0
     21496 TIP3     3860     TIP3     H2       HT       0.417000       1.00800           0
     21497 TIP3     3861     TIP3     OH2      OT      -0.834000       15.9994           0
     21498 TIP3     3861     TIP3     H1       HT       0.417000       1.00800           0
     21499 TIP3     3861     TIP3     H2       HT       0.417000       1.00800           0
     21500 TIP3     3862     TIP3     OH2      OT      -0.834000       15.9994           0
     21501 TIP3     3862     TIP3     H1       HT       0.417000       1.00800           0
     21502 TIP3     3862     TIP3     H2       HT       0.417000       1.00800           0
     21503 TIP3     3863     TIP3     OH2      OT      -0.834000       15.9994           0
     21504 TIP3     3863     TIP3     H1       HT       0.417000       1.00800           0
     21505 TIP3     3863     TIP3     H2       HT       0.417000       1.00800           0
     21506 TIP3     3864     TIP3     OH2      OT      -0.834000       15.9994           0
     21507 TIP3     3864     TIP3     H1       HT       0.417000       1.00800           0
     21508 TIP3     3864     TIP3     H2       HT       0.417000       1.00800           0
     21509 TIP3     3865     TIP3     OH2      OT      -0.834000       15.9994           0
     21510 TIP3     3865     TIP3     H1       HT       0.417000       1.00800           0
     21511 TIP3     3865     TIP3     H2       HT       0.417000       1.00800           0
     21512 TIP3     3866     TIP3     OH2      OT      -0.834000       15.9994           0
     21513 TIP3     3866     TIP3     H1       HT       0.417000       1.00800           0
     21514 TIP3     3866     TIP3     H2       HT       0.417000       1.00800           0
     21515 TIP3     3867     TIP3     OH2      OT      -0.834000       15.9994           0
     21516 TIP3     3867     TIP3     H1       HT       0.417000       1.00800           0
     21517 TIP3     3867     TIP3     H2       HT       0.417000       1.00800           0
     21518 TIP3     3868     TIP3     OH2      OT      -0.834000       15.9994           0
     21519 TIP3     3868     TIP3     H1       HT       0.417000       1.00800           0
     21520 TIP3     3868     TIP3     H2       HT       0.417000       1.00800           0
     21521 TIP3     3869     TIP3     OH2      OT      -0.834000       15.9994           0
     21522 TIP3     3869     TIP3     H1       HT       0.417000       1.00800           0
     21523 TIP3     3869     TIP3     H2       HT       0.417000       1.00800           0
     21524 TIP3     3870     TIP3     OH2      OT      -0.834000       15.9994           0
     21525 TIP3     3870     TIP3     H1       HT       0.417000       1.00800           0
     21526 TIP3     3870     TIP3     H2       HT       0.417000       1.00800           0
     21527 TIP3     3871     TIP3     OH2      OT      -0.834000       15.9994           0
     21528 TIP3     3871     TIP3     H1       HT       0.417000       1.00800           0
     21529 TIP3     3871     TIP3     H2       HT       0.417000       1.00800           0
     21530 TIP3     3872     TIP3     OH2      OT      -0.834000       15.9994           0
     21531 TIP3     3872     TIP3     H1       HT       0.417000       1.00800           0
     21532 TIP3     3872     TIP3     H2       HT       0.417000       1.00800           0
     21533 TIP3     3873     TIP3     OH2      OT      -0.834000       15.9994           0
     21534 TIP3     3873     TIP3     H1       HT       0.417000       1.00800           0
     21535 TIP3     3873     TIP3     H2       HT       0.417000       1.00800           0
     21536 TIP3     3874     TIP3     OH2      OT      -0.834000       15.9994           0
     21537 TIP3     3874     TIP3     H1       HT       0.417000       1.00800           0
     21538 TIP3     3874     TIP3     H2       HT       0.417000       1.00800           0
     21539 TIP3     3875     TIP3     OH2      OT      -0.834000       15.9994           0
     21540 TIP3     3875     TIP3     H1       HT       0.417000       1.00800           0
     21541 TIP3     3875     TIP3     H2       HT       0.417000       1.00800           0
     21542 TIP3     3876     TIP3     OH2      OT      -0.834000       15.9994           0
     21543 TIP3     3876     TIP3     H1       HT       0.417000       1.00800           0
     21544 TIP3     3876     TIP3     H2       HT       0.417000       1.00800           0
     21545 TIP3     3877     TIP3     OH2      OT      -0.834000       15.9994           0
     21546 TIP3     3877     TIP3     H1       HT       0.417000       1.00800           0
     21547 TIP3     3877     TIP3     H2       HT       0.417000       1.00800           0
     21548 TIP3     3878     TIP3     OH2      OT      -0.834000       15.9994           0
     21549 TIP3     3878     TIP3     H1       HT       0.417000       1.00800           0
     21550 TIP3     3878     TIP3     H2       HT       0.417000       1.00800           0
     21551 TIP3     3879     TIP3     OH2      OT      -0.834000       15.9994           0
     21552 TIP3     3879     TIP3     H1       HT       0.417000       1.00800           0
     21553 TIP3     3879     TIP3     H2       HT       0.417000       1.00800           0
     21554 TIP3     3880     TIP3     OH2      OT      -0.834000       15.9994           0
     21555 TIP3     3880     TIP3     H1       HT       0.417000       1.00800           0
     21556 TIP3     3880     TIP3     H2       HT       0.417000       1.00800           0
     21557 TIP3     3881     TIP3     OH2      OT      -0.834000       15.9994           0
     21558 TIP3     3881     TIP3     H1       HT       0.417000       1.00800           0
     21559 TIP3     3881     TIP3     H2       HT       0.417000       1.00800           0
     21560 TIP3     3882     TIP3     OH2      OT      -0.834000       15.9994           0
     21561 TIP3     3882     TIP3     H1       HT       0.417000       1.00800           0
     21562 TIP3     3882     TIP3     H2       HT       0.417000       1.00800           0
     21563 TIP3     3883     TIP3     OH2      OT      -0.834000       15.9994           0
     21564 TIP3     3883     TIP3     H1       HT       0.417000       1.00800           0
     21565 TIP3     3883     TIP3     H2       HT       0.417000       1.00800           0
     21566 TIP3     3884     TIP3     OH2      OT      -0.834000       15.9994           0
     21567 TIP3     3884     TIP3     H1       HT       0.417000       1.00800           0
     21568 TIP3     3884     TIP3     H2       HT       0.417000       1.00800           0
     21569 TIP3     3885     TIP3     OH2      OT      -0.834000       15.9994           0
     21570 TIP3     3885     TIP3     H1       HT       0.417000       1.00800           0
     21571 TIP3     3885     TIP3     H2       HT       0.417000       1.00800           0
     21572 TIP3     3886     TIP3     OH2      OT      -0.834000       15.9994           0
     21573 TIP3     3886     TIP3     H1       HT       0.417000       1.00800           0
     21574 TIP3     3886     TIP3     H2       HT       0.417000       1.00800           0
     21575 TIP3     3887     TIP3     OH2      OT      -0.834000       15.9994           0
     21576 TIP3     3887     TIP3     H1       HT       0.417000       1.00800           0
     21577 TIP3     3887     TIP3     H2       HT       0.417000       1.00800           0
     21578 TIP3     3888     TIP3     OH2      OT      -0.834000       15.9994           0
     21579 TIP3     3888     TIP3     H1       HT       0.417000       1.00800           0
     21580 TIP3     3888     TIP3     H2       HT       0.417000       1.00800           0
     21581 TIP3     3889     TIP3     OH2      OT      -0.834000       15.9994           0
     21582 TIP3     3889     TIP3     H1       HT       0.417000       1.00800           0
     21583 TIP3     3889     TIP3     H2       HT       0.417000       1.00800           0
     21584 TIP3     3890     TIP3     OH2      OT      -0.834000       15.9994           0
     21585 TIP3     3890     TIP3     H1       HT       0.417000       1.00800           0
     21586 TIP3     3890     TIP3     H2       HT       0.417000       1.00800           0
     21587 TIP3     3891     TIP3     OH2      OT      -0.834000       15.9994           0
     21588 TIP3     3891     TIP3     H1       HT       0.417000       1.00800           0
     21589 TIP3     3891     TIP3     H2       HT       0.417000       1.00800           0
     21590 TIP3     3892     TIP3     OH2      OT      -0.834000       15.9994           0
     21591 TIP3     3892     TIP3     H1       HT       0.417000       1.00800           0
     21592 TIP3     3892     TIP3     H2       HT       0.417000       1.00800           0
     21593 TIP3     3893     TIP3     OH2      OT      -0.834000       15.9994           0
     21594 TIP3     3893     TIP3     H1       HT       0.417000       1.00800           0
     21595 TIP3     3893     TIP3     H2       HT       0.417000       1.00800           0
     21596 TIP3     3894     TIP3     OH2      OT      -0.834000       15.9994           0
     21597 TIP3     3894     TIP3     H1       HT       0.417000       1.00800           0
     21598 TIP3     3894     TIP3     H2       HT       0.417000       1.00800           0
     21599 TIP3     3895     TIP3     OH2      OT      -0.834000       15.9994           0
     21600 TIP3     3895     TIP3     H1       HT       0.417000       1.00800           0
     21601 TIP3     3895     TIP3     H2       HT       0.417000       1.00800           0
     21602 TIP3     3896     TIP3     OH2      OT      -0.834000       15.9994           0
     21603 TIP3     3896     TIP3     H1       HT       0.417000       1.00800           0
     21604 TIP3     3896     TIP3     H2       HT       0.417000       1.00800           0
     21605 TIP3     3897     TIP3     OH2      OT      -0.834000       15.9994           0
     21606 TIP3     3897     TIP3     H1       HT       0.417000       1.00800           0
     21607 TIP3     3897     TIP3     H2       HT       0.417000       1.00800           0
     21608 TIP3     3898     TIP3     OH2      OT      -0.834000       15.9994           0
     21609 TIP3     3898     TIP3     H1       HT       0.417000       1.00800           0
     21610 TIP3     3898     TIP3     H2       HT       0.417000       1.00800           0
     21611 TIP3     3899     TIP3     OH2      OT      -0.834000       15.9994           0
     21612 TIP3     3899     TIP3     H1       HT       0.417000       1.00800           0
     21613 TIP3     3899     TIP3     H2       HT       0.417000       1.00800           0
     21614 TIP3     3900     TIP3     OH2      OT      -0.834000       15.9994           0
     21615 TIP3     3900     TIP3     H1       HT       0.417000       1.00800           0
     21616 TIP3     3900     TIP3     H2       HT       0.417000       1.00800           0
     21617 TIP3     3901     TIP3     OH2      OT      -0.834000       15.9994           0
     21618 TIP3     3901     TIP3     H1       HT       0.417000       1.00800           0
     21619 TIP3     3901     TIP3     H2       HT       0.417000       1.00800           0
     21620 TIP3     3902     TIP3     OH2      OT      -0.834000       15.9994           0
     21621 TIP3     3902     TIP3     H1       HT       0.417000       1.00800           0
     21622 TIP3     3902     TIP3     H2       HT       0.417000       1.00800           0
     21623 TIP3     3903     TIP3     OH2      OT      -0.834000       15.9994           0
     21624 TIP3     3903     TIP3     H1       HT       0.417000       1.00800           0
     21625 TIP3     3903     TIP3     H2       HT       0.417000       1.00800           0
     21626 TIP3     3904     TIP3     OH2      OT      -0.834000       15.9994           0
     21627 TIP3     3904     TIP3     H1       HT       0.417000       1.00800           0
     21628 TIP3     3904     TIP3     H2       HT       0.417000       1.00800           0
     21629 TIP3     3905     TIP3     OH2      OT      -0.834000       15.9994           0
     21630 TIP3     3905     TIP3     H1       HT       0.417000       1.00800           0
     21631 TIP3     3905     TIP3     H2       HT       0.417000       1.00800           0
     21632 TIP3     3906     TIP3     OH2      OT      -0.834000       15.9994           0
     21633 TIP3     3906     TIP3     H1       HT       0.417000       1.00800           0
     21634 TIP3     3906     TIP3     H2       HT       0.417000       1.00800           0
     21635 TIP3     3907     TIP3     OH2      OT      -0.834000       15.9994           0
     21636 TIP3     3907     TIP3     H1       HT       0.417000       1.00800           0
     21637 TIP3     3907     TIP3     H2       HT       0.417000       1.00800           0
     21638 TIP3     3908     TIP3     OH2      OT      -0.834000       15.9994           0
     21639 TIP3     3908     TIP3     H1       HT       0.417000       1.00800           0
     21640 TIP3     3908     TIP3     H2       HT       0.417000       1.00800           0
     21641 TIP3     3909     TIP3     OH2      OT      -0.834000       15.9994           0
     21642 TIP3     3909     TIP3     H1       HT       0.417000       1.00800           0
     21643 TIP3     3909     TIP3     H2       HT       0.417000       1.00800           0
     21644 TIP3     3910     TIP3     OH2      OT      -0.834000       15.9994           0
     21645 TIP3     3910     TIP3     H1       HT       0.417000       1.00800           0
     21646 TIP3     3910     TIP3     H2       HT       0.417000       1.00800           0
     21647 TIP3     3911     TIP3     OH2      OT      -0.834000       15.9994           0
     21648 TIP3     3911     TIP3     H1       HT       0.417000       1.00800           0
     21649 TIP3     3911     TIP3     H2       HT       0.417000       1.00800           0
     21650 TIP3     3912     TIP3     OH2      OT      -0.834000       15.9994           0
     21651 TIP3     3912     TIP3     H1       HT       0.417000       1.00800           0
     21652 TIP3     3912     TIP3     H2       HT       0.417000       1.00800           0
     21653 TIP3     3913     TIP3     OH2      OT      -0.834000       15.9994           0
     21654 TIP3     3913     TIP3     H1       HT       0.417000       1.00800           0
     21655 TIP3     3913     TIP3     H2       HT       0.417000       1.00800           0
     21656 TIP3     3914     TIP3     OH2      OT      -0.834000       15.9994           0
     21657 TIP3     3914     TIP3     H1       HT       0.417000       1.00800           0
     21658 TIP3     3914     TIP3     H2       HT       0.417000       1.00800           0
     21659 TIP3     3915     TIP3     OH2      OT      -0.834000       15.9994           0
     21660 TIP3     3915     TIP3     H1       HT       0.417000       1.00800           0
     21661 TIP3     3915     TIP3     H2       HT       0.417000       1.00800           0
     21662 TIP3     3916     TIP3     OH2      OT      -0.834000       15.9994           0
     21663 TIP3     3916     TIP3     H1       HT       0.417000       1.00800           0
     21664 TIP3     3916     TIP3     H2       HT       0.417000       1.00800           0
     21665 TIP3     3917     TIP3     OH2      OT      -0.834000       15.9994           0
     21666 TIP3     3917     TIP3     H1       HT       0.417000       1.00800           0
     21667 TIP3     3917     TIP3     H2       HT       0.417000       1.00800           0
     21668 TIP3     3918     TIP3     OH2      OT      -0.834000       15.9994           0
     21669 TIP3     3918     TIP3     H1       HT       0.417000       1.00800           0
     21670 TIP3     3918     TIP3     H2       HT       0.417000       1.00800           0
     21671 TIP3     3919     TIP3     OH2      OT      -0.834000       15.9994           0
     21672 TIP3     3919     TIP3     H1       HT       0.417000       1.00800           0
     21673 TIP3     3919     TIP3     H2       HT       0.417000       1.00800           0
     21674 TIP3     3920     TIP3     OH2      OT      -0.834000       15.9994           0
     21675 TIP3     3920     TIP3     H1       HT       0.417000       1.00800           0
     21676 TIP3     3920     TIP3     H2       HT       0.417000       1.00800           0
     21677 TIP3     3921     TIP3     OH2      OT      -0.834000       15.9994           0
     21678 TIP3     3921     TIP3     H1       HT       0.417000       1.00800           0
     21679 TIP3     3921     TIP3     H2       HT       0.417000       1.00800           0
     21680 TIP3     3922     TIP3     OH2      OT      -0.834000       15.9994           0
     21681 TIP3     3922     TIP3     H1       HT       0.417000       1.00800           0
     21682 TIP3     3922     TIP3     H2       HT       0.417000       1.00800           0
     21683 TIP3     3923     TIP3     OH2      OT      -0.834000       15.9994           0
     21684 TIP3     3923     TIP3     H1       HT       0.417000       1.00800           0
     21685 TIP3     3923     TIP3     H2       HT       0.417000       1.00800           0
     21686 TIP3     3924     TIP3     OH2      OT      -0.834000       15.9994           0
     21687 TIP3     3924     TIP3     H1       HT       0.417000       1.00800           0
     21688 TIP3     3924     TIP3     H2       HT       0.417000       1.00800           0
     21689 TIP3     3925     TIP3     OH2      OT      -0.834000       15.9994           0
     21690 TIP3     3925     TIP3     H1       HT       0.417000       1.00800           0
     21691 TIP3     3925     TIP3     H2       HT       0.417000       1.00800           0
     21692 TIP3     3926     TIP3     OH2      OT      -0.834000       15.9994           0
     21693 TIP3     3926     TIP3     H1       HT       0.417000       1.00800           0
     21694 TIP3     3926     TIP3     H2       HT       0.417000       1.00800           0
     21695 TIP3     3927     TIP3     OH2      OT      -0.834000       15.9994           0
     21696 TIP3     3927     TIP3     H1       HT       0.417000       1.00800           0
     21697 TIP3     3927     TIP3     H2       HT       0.417000       1.00800           0
     21698 TIP3     3928     TIP3     OH2      OT      -0.834000       15.9994           0
     21699 TIP3     3928     TIP3     H1       HT       0.417000       1.00800           0
     21700 TIP3     3928     TIP3     H2       HT       0.417000       1.00800           0
     21701 TIP3     3929     TIP3     OH2      OT      -0.834000       15.9994           0
     21702 TIP3     3929     TIP3     H1       HT       0.417000       1.00800           0
     21703 TIP3     3929     TIP3     H2       HT       0.417000       1.00800           0
     21704 TIP3     3930     TIP3     OH2      OT      -0.834000       15.9994           0
     21705 TIP3     3930     TIP3     H1       HT       0.417000       1.00800           0
     21706 TIP3     3930     TIP3     H2       HT       0.417000       1.00800           0
     21707 TIP3     3931     TIP3     OH2      OT      -0.834000       15.9994           0
     21708 TIP3     3931     TIP3     H1       HT       0.417000       1.00800           0
     21709 TIP3     3931     TIP3     H2       HT       0.417000       1.00800           0
     21710 TIP3     3932     TIP3     OH2      OT      -0.834000       15.9994           0
     21711 TIP3     3932     TIP3     H1       HT       0.417000       1.00800           0
     21712 TIP3     3932     TIP3     H2       HT       0.417000       1.00800           0
     21713 TIP3     3933     TIP3     OH2      OT      -0.834000       15.9994           0
     21714 TIP3     3933     TIP3     H1       HT       0.417000       1.00800           0
     21715 TIP3     3933     TIP3     H2       HT       0.417000       1.00800           0
     21716 TIP3     3934     TIP3     OH2      OT      -0.834000       15.9994           0
     21717 TIP3     3934     TIP3     H1       HT       0.417000       1.00800           0
     21718 TIP3     3934     TIP3     H2       HT       0.417000       1.00800           0
     21719 TIP3     3935     TIP3     OH2      OT      -0.834000       15.9994           0
     21720 TIP3     3935     TIP3     H1       HT       0.417000       1.00800           0
     21721 TIP3     3935     TIP3     H2       HT       0.417000       1.00800           0
     21722 TIP3     3936     TIP3     OH2      OT      -0.834000       15.9994           0
     21723 TIP3     3936     TIP3     H1       HT       0.417000       1.00800           0
     21724 TIP3     3936     TIP3     H2       HT       0.417000       1.00800           0
     21725 TIP3     3937     TIP3     OH2      OT      -0.834000       15.9994           0
     21726 TIP3     3937     TIP3     H1       HT       0.417000       1.00800           0
     21727 TIP3     3937     TIP3     H2       HT       0.417000       1.00800           0
     21728 TIP3     3938     TIP3     OH2      OT      -0.834000       15.9994           0
     21729 TIP3     3938     TIP3     H1       HT       0.417000       1.00800           0
     21730 TIP3     3938     TIP3     H2       HT       0.417000       1.00800           0
     21731 TIP3     3939     TIP3     OH2      OT      -0.834000       15.9994           0
     21732 TIP3     3939     TIP3     H1       HT       0.417000       1.00800           0
     21733 TIP3     3939     TIP3     H2       HT       0.417000       1.00800           0
     21734 TIP3     3940     TIP3     OH2      OT      -0.834000       15.9994           0
     21735 TIP3     3940     TIP3     H1       HT       0.417000       1.00800           0
     21736 TIP3     3940     TIP3     H2       HT       0.417000       1.00800           0
     21737 TIP3     3941     TIP3     OH2      OT      -0.834000       15.9994           0
     21738 TIP3     3941     TIP3     H1       HT       0.417000       1.00800           0
     21739 TIP3     3941     TIP3     H2       HT       0.417000       1.00800           0
     21740 TIP3     3942     TIP3     OH2      OT      -0.834000       15.9994           0
     21741 TIP3     3942     TIP3     H1       HT       0.417000       1.00800           0
     21742 TIP3     3942     TIP3     H2       HT       0.417000       1.00800           0
     21743 TIP3     3943     TIP3     OH2      OT      -0.834000       15.9994           0
     21744 TIP3     3943     TIP3     H1       HT       0.417000       1.00800           0
     21745 TIP3     3943     TIP3     H2       HT       0.417000       1.00800           0
     21746 TIP3     3944     TIP3     OH2      OT      -0.834000       15.9994           0
     21747 TIP3     3944     TIP3     H1       HT       0.417000       1.00800           0
     21748 TIP3     3944     TIP3     H2       HT       0.417000       1.00800           0
     21749 TIP3     3945     TIP3     OH2      OT      -0.834000       15.9994           0
     21750 TIP3     3945     TIP3     H1       HT       0.417000       1.00800           0
     21751 TIP3     3945     TIP3     H2       HT       0.417000       1.00800           0
     21752 TIP3     3946     TIP3     OH2      OT      -0.834000       15.9994           0
     21753 TIP3     3946     TIP3     H1       HT       0.417000       1.00800           0
     21754 TIP3     3946     TIP3     H2       HT       0.417000       1.00800           0
     21755 TIP3     3947     TIP3     OH2      OT      -0.834000       15.9994           0
     21756 TIP3     3947     TIP3     H1       HT       0.417000       1.00800           0
     21757 TIP3     3947     TIP3     H2       HT       0.417000       1.00800           0
     21758 TIP3     3948     TIP3     OH2      OT      -0.834000       15.9994           0
     21759 TIP3     3948     TIP3     H1       HT       0.417000       1.00800           0
     21760 TIP3     3948     TIP3     H2       HT       0.417000       1.00800           0
     21761 TIP3     3949     TIP3     OH2      OT      -0.834000       15.9994           0
     21762 TIP3     3949     TIP3     H1       HT       0.417000       1.00800           0
     21763 TIP3     3949     TIP3     H2       HT       0.417000       1.00800           0
     21764 TIP3     3950     TIP3     OH2      OT      -0.834000       15.9994           0
     21765 TIP3     3950     TIP3     H1       HT       0.417000       1.00800           0
     21766 TIP3     3950     TIP3     H2       HT       0.417000       1.00800           0
     21767 TIP3     3951     TIP3     OH2      OT      -0.834000       15.9994           0
     21768 TIP3     3951     TIP3     H1       HT       0.417000       1.00800           0
     21769 TIP3     3951     TIP3     H2       HT       0.417000       1.00800           0
     21770 TIP3     3952     TIP3     OH2      OT      -0.834000       15.9994           0
     21771 TIP3     3952     TIP3     H1       HT       0.417000       1.00800           0
     21772 TIP3     3952     TIP3     H2       HT       0.417000       1.00800           0
     21773 TIP3     3953     TIP3     OH2      OT      -0.834000       15.9994           0
     21774 TIP3     3953     TIP3     H1       HT       0.417000       1.00800           0
     21775 TIP3     3953     TIP3     H2       HT       0.417000       1.00800           0
     21776 TIP3     3954     TIP3     OH2      OT      -0.834000       15.9994           0
     21777 TIP3     3954     TIP3     H1       HT       0.417000       1.00800           0
     21778 TIP3     3954     TIP3     H2       HT       0.417000       1.00800           0
     21779 TIP3     3955     TIP3     OH2      OT      -0.834000       15.9994           0
     21780 TIP3     3955     TIP3     H1       HT       0.417000       1.00800           0
     21781 TIP3     3955     TIP3     H2       HT       0.417000       1.00800           0
     21782 TIP3     3956     TIP3     OH2      OT      -0.834000       15.9994           0
     21783 TIP3     3956     TIP3     H1       HT       0.417000       1.00800           0
     21784 TIP3     3956     TIP3     H2       HT       0.417000       1.00800           0
     21785 TIP3     3957     TIP3     OH2      OT      -0.834000       15.9994           0
     21786 TIP3     3957     TIP3     H1       HT       0.417000       1.00800           0
     21787 TIP3     3957     TIP3     H2       HT       0.417000       1.00800           0
     21788 TIP3     3958     TIP3     OH2      OT      -0.834000       15.9994           0
     21789 TIP3     3958     TIP3     H1       HT       0.417000       1.00800           0
     21790 TIP3     3958     TIP3     H2       HT       0.417000       1.00800           0
     21791 TIP3     3959     TIP3     OH2      OT      -0.834000       15.9994           0
     21792 TIP3     3959     TIP3     H1       HT       0.417000       1.00800           0
     21793 TIP3     3959     TIP3     H2       HT       0.417000       1.00800           0
     21794 TIP3     3960     TIP3     OH2      OT      -0.834000       15.9994           0
     21795 TIP3     3960     TIP3     H1       HT       0.417000       1.00800           0
     21796 TIP3     3960     TIP3     H2       HT       0.417000       1.00800           0
     21797 TIP3     3961     TIP3     OH2      OT      -0.834000       15.9994           0
     21798 TIP3     3961     TIP3     H1       HT       0.417000       1.00800           0
     21799 TIP3     3961     TIP3     H2       HT       0.417000       1.00800           0
     21800 TIP3     3962     TIP3     OH2      OT      -0.834000       15.9994           0
     21801 TIP3     3962     TIP3     H1       HT       0.417000       1.00800           0
     21802 TIP3     3962     TIP3     H2       HT       0.417000       1.00800           0
     21803 TIP3     3963     TIP3     OH2      OT      -0.834000       15.9994           0
     21804 TIP3     3963     TIP3     H1       HT       0.417000       1.00800           0
     21805 TIP3     3963     TIP3     H2       HT       0.417000       1.00800           0
     21806 TIP3     3964     TIP3     OH2      OT      -0.834000       15.9994           0
     21807 TIP3     3964     TIP3     H1       HT       0.417000       1.00800           0
     21808 TIP3     3964     TIP3     H2       HT       0.417000       1.00800           0
     21809 TIP3     3965     TIP3     OH2      OT      -0.834000       15.9994           0
     21810 TIP3     3965     TIP3     H1       HT       0.417000       1.00800           0
     21811 TIP3     3965     TIP3     H2       HT       0.417000       1.00800           0
     21812 TIP3     3966     TIP3     OH2      OT      -0.834000       15.9994           0
     21813 TIP3     3966     TIP3     H1       HT       0.417000       1.00800           0
     21814 TIP3     3966     TIP3     H2       HT       0.417000       1.00800           0
     21815 TIP3     3967     TIP3     OH2      OT      -0.834000       15.9994           0
     21816 TIP3     3967     TIP3     H1       HT       0.417000       1.00800           0
     21817 TIP3     3967     TIP3     H2       HT       0.417000       1.00800           0
     21818 TIP3     3968     TIP3     OH2      OT      -0.834000       15.9994           0
     21819 TIP3     3968     TIP3     H1       HT       0.417000       1.00800           0
     21820 TIP3     3968     TIP3     H2       HT       0.417000       1.00800           0
     21821 TIP3     3969     TIP3     OH2      OT      -0.834000       15.9994           0
     21822 TIP3     3969     TIP3     H1       HT       0.417000       1.00800           0
     21823 TIP3     3969     TIP3     H2       HT       0.417000       1.00800           0
     21824 TIP3     3970     TIP3     OH2      OT      -0.834000       15.9994           0
     21825 TIP3     3970     TIP3     H1       HT       0.417000       1.00800           0
     21826 TIP3     3970     TIP3     H2       HT       0.417000       1.00800           0
     21827 TIP3     3971     TIP3     OH2      OT      -0.834000       15.9994           0
     21828 TIP3     3971     TIP3     H1       HT       0.417000       1.00800           0
     21829 TIP3     3971     TIP3     H2       HT       0.417000       1.00800           0
     21830 TIP3     3972     TIP3     OH2      OT      -0.834000       15.9994           0
     21831 TIP3     3972     TIP3     H1       HT       0.417000       1.00800           0
     21832 TIP3     3972     TIP3     H2       HT       0.417000       1.00800           0
     21833 TIP3     3973     TIP3     OH2      OT      -0.834000       15.9994           0
     21834 TIP3     3973     TIP3     H1       HT       0.417000       1.00800           0
     21835 TIP3     3973     TIP3     H2       HT       0.417000       1.00800           0
     21836 TIP3     3974     TIP3     OH2      OT      -0.834000       15.9994           0
     21837 TIP3     3974     TIP3     H1       HT       0.417000       1.00800           0
     21838 TIP3     3974     TIP3     H2       HT       0.417000       1.00800           0
     21839 TIP3     3975     TIP3     OH2      OT      -0.834000       15.9994           0
     21840 TIP3     3975     TIP3     H1       HT       0.417000       1.00800           0
     21841 TIP3     3975     TIP3     H2       HT       0.417000       1.00800           0
     21842 TIP3     3976     TIP3     OH2      OT      -0.834000       15.9994           0
     21843 TIP3     3976     TIP3     H1       HT       0.417000       1.00800           0
     21844 TIP3     3976     TIP3     H2       HT       0.417000       1.00800           0
     21845 TIP3     3977     TIP3     OH2      OT      -0.834000       15.9994           0
     21846 TIP3     3977     TIP3     H1       HT       0.417000       1.00800           0
     21847 TIP3     3977     TIP3     H2       HT       0.417000       1.00800           0
     21848 TIP3     3978     TIP3     OH2      OT      -0.834000       15.9994           0
     21849 TIP3     3978     TIP3     H1       HT       0.417000       1.00800           0
     21850 TIP3     3978     TIP3     H2       HT       0.417000       1.00800           0
     21851 TIP3     3979     TIP3     OH2      OT      -0.834000       15.9994           0
     21852 TIP3     3979     TIP3     H1       HT       0.417000       1.00800           0
     21853 TIP3     3979     TIP3     H2       HT       0.417000       1.00800           0
     21854 TIP3     3980     TIP3     OH2      OT      -0.834000       15.9994           0
     21855 TIP3     3980     TIP3     H1       HT       0.417000       1.00800           0
     21856 TIP3     3980     TIP3     H2       HT       0.417000       1.00800           0
     21857 TIP3     3981     TIP3     OH2      OT      -0.834000       15.9994           0
     21858 TIP3     3981     TIP3     H1       HT       0.417000       1.00800           0
     21859 TIP3     3981     TIP3     H2       HT       0.417000       1.00800           0
     21860 TIP3     3982     TIP3     OH2      OT      -0.834000       15.9994           0
     21861 TIP3     3982     TIP3     H1       HT       0.417000       1.00800           0
     21862 TIP3     3982     TIP3     H2       HT       0.417000       1.00800           0
     21863 TIP3     3983     TIP3     OH2      OT      -0.834000       15.9994           0
     21864 TIP3     3983     TIP3     H1       HT       0.417000       1.00800           0
     21865 TIP3     3983     TIP3     H2       HT       0.417000       1.00800           0
     21866 TIP3     3984     TIP3     OH2      OT      -0.834000       15.9994           0
     21867 TIP3     3984     TIP3     H1       HT       0.417000       1.00800           0
     21868 TIP3     3984     TIP3     H2       HT       0.417000       1.00800           0
     21869 TIP3     3985     TIP3     OH2      OT      -0.834000       15.9994           0
     21870 TIP3     3985     TIP3     H1       HT       0.417000       1.00800           0
     21871 TIP3     3985     TIP3     H2       HT       0.417000       1.00800           0
     21872 TIP3     3986     TIP3     OH2      OT      -0.834000       15.9994           0
     21873 TIP3     3986     TIP3     H1       HT       0.417000       1.00800           0
     21874 TIP3     3986     TIP3     H2       HT       0.417000       1.00800           0
     21875 TIP3     3987     TIP3     OH2      OT      -0.834000       15.9994           0
     21876 TIP3     3987     TIP3     H1       HT       0.417000       1.00800           0
     21877 TIP3     3987     TIP3     H2       HT       0.417000       1.00800           0
     21878 TIP3     3988     TIP3     OH2      OT      -0.834000       15.9994           0
     21879 TIP3     3988     TIP3     H1       HT       0.417000       1.00800           0
     21880 TIP3     3988     TIP3     H2       HT       0.417000       1.00800           0
     21881 TIP3     3989     TIP3     OH2      OT      -0.834000       15.9994           0
     21882 TIP3     3989     TIP3     H1       HT       0.417000       1.00800           0
     21883 TIP3     3989     TIP3     H2       HT       0.417000       1.00800           0
     21884 TIP3     3990     TIP3     OH2      OT      -0.834000       15.9994           0
     21885 TIP3     3990     TIP3     H1       HT       0.417000       1.00800           0
     21886 TIP3     3990     TIP3     H2       HT       0.417000       1.00800           0
     21887 TIP3     3991     TIP3     OH2      OT      -0.834000       15.9994           0
     21888 TIP3     3991     TIP3     H1       HT       0.417000       1.00800           0
     21889 TIP3     3991     TIP3     H2       HT       0.417000       1.00800           0
     21890 TIP3     3992     TIP3     OH2      OT      -0.834000       15.9994           0
     21891 TIP3     3992     TIP3     H1       HT       0.417000       1.00800           0
     21892 TIP3     3992     TIP3     H2       HT       0.417000       1.00800           0
     21893 TIP3     3993     TIP3     OH2      OT      -0.834000       15.9994           0
     21894 TIP3     3993     TIP3     H1       HT       0.417000       1.00800           0
     21895 TIP3     3993     TIP3     H2       HT       0.417000       1.00800           0
     21896 TIP3     3994     TIP3     OH2      OT      -0.834000       15.9994           0
     21897 TIP3     3994     TIP3     H1       HT       0.417000       1.00800           0
     21898 TIP3     3994     TIP3     H2       HT       0.417000       1.00800           0
     21899 TIP3     3995     TIP3     OH2      OT      -0.834000       15.9994           0
     21900 TIP3     3995     TIP3     H1       HT       0.417000       1.00800           0
     21901 TIP3     3995     TIP3     H2       HT       0.417000       1.00800           0
     21902 TIP3     3996     TIP3     OH2      OT      -0.834000       15.9994           0
     21903 TIP3     3996     TIP3     H1       HT       0.417000       1.00800           0
     21904 TIP3     3996     TIP3     H2       HT       0.417000       1.00800           0
     21905 TIP3     3997     TIP3     OH2      OT      -0.834000       15.9994           0
     21906 TIP3     3997     TIP3     H1       HT       0.417000       1.00800           0
     21907 TIP3     3997     TIP3     H2       HT       0.417000       1.00800           0
     21908 TIP3     3998     TIP3     OH2      OT      -0.834000       15.9994           0
     21909 TIP3     3998     TIP3     H1       HT       0.417000       1.00800           0
     21910 TIP3     3998     TIP3     H2       HT       0.417000       1.00800           0
     21911 TIP3     3999     TIP3     OH2      OT      -0.834000       15.9994           0
     21912 TIP3     3999     TIP3     H1       HT       0.417000       1.00800           0
     21913 TIP3     3999     TIP3     H2       HT       0.417000       1.00800           0
     21914 TIP3     4000     TIP3     OH2      OT      -0.834000       15.9994           0
     21915 TIP3     4000     TIP3     H1       HT       0.417000       1.00800           0
     21916 TIP3     4000     TIP3     H2       HT       0.417000       1.00800           0
     21917 TIP3     4001     TIP3     OH2      OT      -0.834000       15.9994           0
     21918 TIP3     4001     TIP3     H1       HT       0.417000       1.00800           0
     21919 TIP3     4001     TIP3     H2       HT       0.417000       1.00800           0
     21920 TIP3     4002     TIP3     OH2      OT      -0.834000       15.9994           0
     21921 TIP3     4002     TIP3     H1       HT       0.417000       1.00800           0
     21922 TIP3     4002     TIP3     H2       HT       0.417000       1.00800           0
     21923 TIP3     4003     TIP3     OH2      OT      -0.834000       15.9994           0
     21924 TIP3     4003     TIP3     H1       HT       0.417000       1.00800           0
     21925 TIP3     4003     TIP3     H2       HT       0.417000       1.00800           0
     21926 TIP3     4004     TIP3     OH2      OT      -0.834000       15.9994           0
     21927 TIP3     4004     TIP3     H1       HT       0.417000       1.00800           0
     21928 TIP3     4004     TIP3     H2       HT       0.417000       1.00800           0
     21929 TIP3     4005     TIP3     OH2      OT      -0.834000       15.9994           0
     21930 TIP3     4005     TIP3     H1       HT       0.417000       1.00800           0
     21931 TIP3     4005     TIP3     H2       HT       0.417000       1.00800           0
     21932 TIP3     4006     TIP3     OH2      OT      -0.834000       15.9994           0
     21933 TIP3     4006     TIP3     H1       HT       0.417000       1.00800           0
     21934 TIP3     4006     TIP3     H2       HT       0.417000       1.00800           0
     21935 TIP3     4007     TIP3     OH2      OT      -0.834000       15.9994           0
     21936 TIP3     4007     TIP3     H1       HT       0.417000       1.00800           0
     21937 TIP3     4007     TIP3     H2       HT       0.417000       1.00800           0
     21938 TIP3     4008     TIP3     OH2      OT      -0.834000       15.9994           0
     21939 TIP3     4008     TIP3     H1       HT       0.417000       1.00800           0
     21940 TIP3     4008     TIP3     H2       HT       0.417000       1.00800           0
     21941 TIP3     4009     TIP3     OH2      OT      -0.834000       15.9994           0
     21942 TIP3     4009     TIP3     H1       HT       0.417000       1.00800           0
     21943 TIP3     4009     TIP3     H2       HT       0.417000       1.00800           0
     21944 TIP3     4010     TIP3     OH2      OT      -0.834000       15.9994           0
     21945 TIP3     4010     TIP3     H1       HT       0.417000       1.00800           0
     21946 TIP3     4010     TIP3     H2       HT       0.417000       1.00800           0
     21947 TIP3     4011     TIP3     OH2      OT      -0.834000       15.9994           0
     21948 TIP3     4011     TIP3     H1       HT       0.417000       1.00800           0
     21949 TIP3     4011     TIP3     H2       HT       0.417000       1.00800           0
     21950 TIP3     4012     TIP3     OH2      OT      -0.834000       15.9994           0
     21951 TIP3     4012     TIP3     H1       HT       0.417000       1.00800           0
     21952 TIP3     4012     TIP3     H2       HT       0.417000       1.00800           0
     21953 TIP3     4013     TIP3     OH2      OT      -0.834000       15.9994           0
     21954 TIP3     4013     TIP3     H1       HT       0.417000       1.00800           0
     21955 TIP3     4013     TIP3     H2       HT       0.417000       1.00800           0
     21956 TIP3     4014     TIP3     OH2      OT      -0.834000       15.9994           0
     21957 TIP3     4014     TIP3     H1       HT       0.417000       1.00800           0
     21958 TIP3     4014     TIP3     H2       HT       0.417000       1.00800           0
     21959 TIP3     4015     TIP3     OH2      OT      -0.834000       15.9994           0
     21960 TIP3     4015     TIP3     H1       HT       0.417000       1.00800           0
     21961 TIP3     4015     TIP3     H2       HT       0.417000       1.00800           0
     21962 TIP3     4016     TIP3     OH2      OT      -0.834000       15.9994           0
     21963 TIP3     4016     TIP3     H1       HT       0.417000       1.00800           0
     21964 TIP3     4016     TIP3     H2       HT       0.417000       1.00800           0
     21965 TIP3     4017     TIP3     OH2      OT      -0.834000       15.9994           0
     21966 TIP3     4017     TIP3     H1       HT       0.417000       1.00800           0
     21967 TIP3     4017     TIP3     H2       HT       0.417000       1.00800           0
     21968 TIP3     4018     TIP3     OH2      OT      -0.834000       15.9994           0
     21969 TIP3     4018     TIP3     H1       HT       0.417000       1.00800           0
     21970 TIP3     4018     TIP3     H2       HT       0.417000       1.00800           0
     21971 TIP3     4019     TIP3     OH2      OT      -0.834000       15.9994           0
     21972 TIP3     4019     TIP3     H1       HT       0.417000       1.00800           0
     21973 TIP3     4019     TIP3     H2       HT       0.417000       1.00800           0
     21974 TIP3     4020     TIP3     OH2      OT      -0.834000       15.9994           0
     21975 TIP3     4020     TIP3     H1       HT       0.417000       1.00800           0
     21976 TIP3     4020     TIP3     H2       HT       0.417000       1.00800           0
     21977 TIP3     4021     TIP3     OH2      OT      -0.834000       15.9994           0
     21978 TIP3     4021     TIP3     H1       HT       0.417000       1.00800           0
     21979 TIP3     4021     TIP3     H2       HT       0.417000       1.00800           0
     21980 TIP3     4022     TIP3     OH2      OT      -0.834000       15.9994           0
     21981 TIP3     4022     TIP3     H1       HT       0.417000       1.00800           0
     21982 TIP3     4022     TIP3     H2       HT       0.417000       1.00800           0
     21983 TIP3     4023     TIP3     OH2      OT      -0.834000       15.9994           0
     21984 TIP3     4023     TIP3     H1       HT       0.417000       1.00800           0
     21985 TIP3     4023     TIP3     H2       HT       0.417000       1.00800           0
     21986 TIP3     4024     TIP3     OH2      OT      -0.834000       15.9994           0
     21987 TIP3     4024     TIP3     H1       HT       0.417000       1.00800           0
     21988 TIP3     4024     TIP3     H2       HT       0.417000       1.00800           0
     21989 TIP3     4025     TIP3     OH2      OT      -0.834000       15.9994           0
     21990 TIP3     4025     TIP3     H1       HT       0.417000       1.00800           0
     21991 TIP3     4025     TIP3     H2       HT       0.417000       1.00800           0
     21992 TIP3     4026     TIP3     OH2      OT      -0.834000       15.9994           0
     21993 TIP3     4026     TIP3     H1       HT       0.417000       1.00800           0
     21994 TIP3     4026     TIP3     H2       HT       0.417000       1.00800           0
     21995 TIP3     4027     TIP3     OH2      OT      -0.834000       15.9994           0
     21996 TIP3     4027     TIP3     H1       HT       0.417000       1.00800           0
     21997 TIP3     4027     TIP3     H2       HT       0.417000       1.00800           0
     21998 TIP3     4028     TIP3     OH2      OT      -0.834000       15.9994           0
     21999 TIP3     4028     TIP3     H1       HT       0.417000       1.00800           0
     22000 TIP3     4028     TIP3     H2       HT       0.417000       1.00800           0
     22001 TIP3     4029     TIP3     OH2      OT      -0.834000       15.9994           0
     22002 TIP3     4029     TIP3     H1       HT       0.417000       1.00800           0
     22003 TIP3     4029     TIP3     H2       HT       0.417000       1.00800           0
     22004 TIP3     4030     TIP3     OH2      OT      -0.834000       15.9994           0
     22005 TIP3     4030     TIP3     H1       HT       0.417000       1.00800           0
     22006 TIP3     4030     TIP3     H2       HT       0.417000       1.00800           0
     22007 TIP3     4031     TIP3     OH2      OT      -0.834000       15.9994           0
     22008 TIP3     4031     TIP3     H1       HT       0.417000       1.00800           0
     22009 TIP3     4031     TIP3     H2       HT       0.417000       1.00800           0
     22010 TIP3     4032     TIP3     OH2      OT      -0.834000       15.9994           0
     22011 TIP3     4032     TIP3     H1       HT       0.417000       1.00800           0
     22012 TIP3     4032     TIP3     H2       HT       0.417000       1.00800           0
     22013 TIP3     4033     TIP3     OH2      OT      -0.834000       15.9994           0
     22014 TIP3     4033     TIP3     H1       HT       0.417000       1.00800           0
     22015 TIP3     4033     TIP3     H2       HT       0.417000       1.00800           0
     22016 TIP3     4034     TIP3     OH2      OT      -0.834000       15.9994           0
     22017 TIP3     4034     TIP3     H1       HT       0.417000       1.00800           0
     22018 TIP3     4034     TIP3     H2       HT       0.417000       1.00800           0
     22019 TIP3     4035     TIP3     OH2      OT      -0.834000       15.9994           0
     22020 TIP3     4035     TIP3     H1       HT       0.417000       1.00800           0
     22021 TIP3     4035     TIP3     H2       HT       0.417000       1.00800           0
     22022 TIP3     4036     TIP3     OH2      OT      -0.834000       15.9994           0
     22023 TIP3     4036     TIP3     H1       HT       0.417000       1.00800           0
     22024 TIP3     4036     TIP3     H2       HT       0.417000       1.00800           0
     22025 TIP3     4037     TIP3     OH2      OT      -0.834000       15.9994           0
     22026 TIP3     4037     TIP3     H1       HT       0.417000       1.00800           0
     22027 TIP3     4037     TIP3     H2       HT       0.417000       1.00800           0
     22028 TIP3     4038     TIP3     OH2      OT      -0.834000       15.9994           0
     22029 TIP3     4038     TIP3     H1       HT       0.417000       1.00800           0
     22030 TIP3     4038     TIP3     H2       HT       0.417000       1.00800           0
     22031 TIP3     4039     TIP3     OH2      OT      -0.834000       15.9994           0
     22032 TIP3     4039     TIP3     H1       HT       0.417000       1.00800           0
     22033 TIP3     4039     TIP3     H2       HT       0.417000       1.00800           0
     22034 TIP3     4040     TIP3     OH2      OT      -0.834000       15.9994           0
     22035 TIP3     4040     TIP3     H1       HT       0.417000       1.00800           0
     22036 TIP3     4040     TIP3     H2       HT       0.417000       1.00800           0
     22037 TIP3     4041     TIP3     OH2      OT      -0.834000       15.9994           0
     22038 TIP3     4041     TIP3     H1       HT       0.417000       1.00800           0
     22039 TIP3     4041     TIP3     H2       HT       0.417000       1.00800           0
     22040 TIP3     4042     TIP3     OH2      OT      -0.834000       15.9994           0
     22041 TIP3     4042     TIP3     H1       HT       0.417000       1.00800           0
     22042 TIP3     4042     TIP3     H2       HT       0.417000       1.00800           0
     22043 TIP3     4043     TIP3     OH2      OT      -0.834000       15.9994           0
     22044 TIP3     4043     TIP3     H1       HT       0.417000       1.00800           0
     22045 TIP3     4043     TIP3     H2       HT       0.417000       1.00800           0
     22046 TIP3     4044     TIP3     OH2      OT      -0.834000       15.9994           0
     22047 TIP3     4044     TIP3     H1       HT       0.417000       1.00800           0
     22048 TIP3     4044     TIP3     H2       HT       0.417000       1.00800           0
     22049 TIP3     4045     TIP3     OH2      OT      -0.834000       15.9994           0
     22050 TIP3     4045     TIP3     H1       HT       0.417000       1.00800           0
     22051 TIP3     4045     TIP3     H2       HT       0.417000       1.00800           0
     22052 TIP3     4046     TIP3     OH2      OT      -0.834000       15.9994           0
     22053 TIP3     4046     TIP3     H1       HT       0.417000       1.00800           0
     22054 TIP3     4046     TIP3     H2       HT       0.417000       1.00800           0
     22055 TIP3     4047     TIP3     OH2      OT      -0.834000       15.9994           0
     22056 TIP3     4047     TIP3     H1       HT       0.417000       1.00800           0
     22057 TIP3     4047     TIP3     H2       HT       0.417000       1.00800           0
     22058 TIP3     4048     TIP3     OH2      OT      -0.834000       15.9994           0
     22059 TIP3     4048     TIP3     H1       HT       0.417000       1.00800           0
     22060 TIP3     4048     TIP3     H2       HT       0.417000       1.00800           0
     22061 TIP3     4049     TIP3     OH2      OT      -0.834000       15.9994           0
     22062 TIP3     4049     TIP3     H1       HT       0.417000       1.00800           0
     22063 TIP3     4049     TIP3     H2       HT       0.417000       1.00800           0
     22064 TIP3     4050     TIP3     OH2      OT      -0.834000       15.9994           0
     22065 TIP3     4050     TIP3     H1       HT       0.417000       1.00800           0
     22066 TIP3     4050     TIP3     H2       HT       0.417000       1.00800           0
     22067 TIP3     4051     TIP3     OH2      OT      -0.834000       15.9994           0
     22068 TIP3     4051     TIP3     H1       HT       0.417000       1.00800           0
     22069 TIP3     4051     TIP3     H2       HT       0.417000       1.00800           0
     22070 TIP3     4052     TIP3     OH2      OT      -0.834000       15.9994           0
     22071 TIP3     4052     TIP3     H1       HT       0.417000       1.00800           0
     22072 TIP3     4052     TIP3     H2       HT       0.417000       1.00800           0
     22073 TIP3     4053     TIP3     OH2      OT      -0.834000       15.9994           0
     22074 TIP3     4053     TIP3     H1       HT       0.417000       1.00800           0
     22075 TIP3     4053     TIP3     H2       HT       0.417000       1.00800           0
     22076 TIP3     4054     TIP3     OH2      OT      -0.834000       15.9994           0
     22077 TIP3     4054     TIP3     H1       HT       0.417000       1.00800           0
     22078 TIP3     4054     TIP3     H2       HT       0.417000       1.00800           0
     22079 TIP3     4055     TIP3     OH2      OT      -0.834000       15.9994           0
     22080 TIP3     4055     TIP3     H1       HT       0.417000       1.00800           0
     22081 TIP3     4055     TIP3     H2       HT       0.417000       1.00800           0
     22082 TIP3     4056     TIP3     OH2      OT      -0.834000       15.9994           0
     22083 TIP3     4056     TIP3     H1       HT       0.417000       1.00800           0
     22084 TIP3     4056     TIP3     H2       HT       0.417000       1.00800           0
     22085 TIP3     4057     TIP3     OH2      OT      -0.834000       15.9994           0
     22086 TIP3     4057     TIP3     H1       HT       0.417000       1.00800           0
     22087 TIP3     4057     TIP3     H2       HT       0.417000       1.00800           0
     22088 TIP3     4058     TIP3     OH2      OT      -0.834000       15.9994           0
     22089 TIP3     4058     TIP3     H1       HT       0.417000       1.00800           0
     22090 TIP3     4058     TIP3     H2       HT       0.417000       1.00800           0
     22091 TIP3     4059     TIP3     OH2      OT      -0.834000       15.9994           0
     22092 TIP3     4059     TIP3     H1       HT       0.417000       1.00800           0
     22093 TIP3     4059     TIP3     H2       HT       0.417000       1.00800           0
     22094 TIP3     4060     TIP3     OH2      OT      -0.834000       15.9994           0
     22095 TIP3     4060     TIP3     H1       HT       0.417000       1.00800           0
     22096 TIP3     4060     TIP3     H2       HT       0.417000       1.00800           0
     22097 TIP3     4061     TIP3     OH2      OT      -0.834000       15.9994           0
     22098 TIP3     4061     TIP3     H1       HT       0.417000       1.00800           0
     22099 TIP3     4061     TIP3     H2       HT       0.417000       1.00800           0
     22100 TIP3     4062     TIP3     OH2      OT      -0.834000       15.9994           0
     22101 TIP3     4062     TIP3     H1       HT       0.417000       1.00800           0
     22102 TIP3     4062     TIP3     H2       HT       0.417000       1.00800           0
     22103 TIP3     4063     TIP3     OH2      OT      -0.834000       15.9994           0
     22104 TIP3     4063     TIP3     H1       HT       0.417000       1.00800           0
     22105 TIP3     4063     TIP3     H2       HT       0.417000       1.00800           0
     22106 TIP3     4064     TIP3     OH2      OT      -0.834000       15.9994           0
     22107 TIP3     4064     TIP3     H1       HT       0.417000       1.00800           0
     22108 TIP3     4064     TIP3     H2       HT       0.417000       1.00800           0
     22109 TIP3     4065     TIP3     OH2      OT      -0.834000       15.9994           0
     22110 TIP3     4065     TIP3     H1       HT       0.417000       1.00800           0
     22111 TIP3     4065     TIP3     H2       HT       0.417000       1.00800           0
     22112 TIP3     4066     TIP3     OH2      OT      -0.834000       15.9994           0
     22113 TIP3     4066     TIP3     H1       HT       0.417000       1.00800           0
     22114 TIP3     4066     TIP3     H2       HT       0.417000       1.00800           0
     22115 TIP3     4067     TIP3     OH2      OT      -0.834000       15.9994           0
     22116 TIP3     4067     TIP3     H1       HT       0.417000       1.00800           0
     22117 TIP3     4067     TIP3     H2       HT       0.417000       1.00800           0
     22118 TIP3     4068     TIP3     OH2      OT      -0.834000       15.9994           0
     22119 TIP3     4068     TIP3     H1       HT       0.417000       1.00800           0
     22120 TIP3     4068     TIP3     H2       HT       0.417000       1.00800           0
     22121 TIP3     4069     TIP3     OH2      OT      -0.834000       15.9994           0
     22122 TIP3     4069     TIP3     H1       HT       0.417000       1.00800           0
     22123 TIP3     4069     TIP3     H2       HT       0.417000       1.00800           0
     22124 TIP3     4070     TIP3     OH2      OT      -0.834000       15.9994           0
     22125 TIP3     4070     TIP3     H1       HT       0.417000       1.00800           0
     22126 TIP3     4070     TIP3     H2       HT       0.417000       1.00800           0
     22127 TIP3     4071     TIP3     OH2      OT      -0.834000       15.9994           0
     22128 TIP3     4071     TIP3     H1       HT       0.417000       1.00800           0
     22129 TIP3     4071     TIP3     H2       HT       0.417000       1.00800           0
     22130 TIP3     4072     TIP3     OH2      OT      -0.834000       15.9994           0
     22131 TIP3     4072     TIP3     H1       HT       0.417000       1.00800           0
     22132 TIP3     4072     TIP3     H2       HT       0.417000       1.00800           0
     22133 TIP3     4073     TIP3     OH2      OT      -0.834000       15.9994           0
     22134 TIP3     4073     TIP3     H1       HT       0.417000       1.00800           0
     22135 TIP3     4073     TIP3     H2       HT       0.417000       1.00800           0
     22136 TIP3     4074     TIP3     OH2      OT      -0.834000       15.9994           0
     22137 TIP3     4074     TIP3     H1       HT       0.417000       1.00800           0
     22138 TIP3     4074     TIP3     H2       HT       0.417000       1.00800           0
     22139 TIP3     4075     TIP3     OH2      OT      -0.834000       15.9994           0
     22140 TIP3     4075     TIP3     H1       HT       0.417000       1.00800           0
     22141 TIP3     4075     TIP3     H2       HT       0.417000       1.00800           0
     22142 TIP3     4076     TIP3     OH2      OT      -0.834000       15.9994           0
     22143 TIP3     4076     TIP3     H1       HT       0.417000       1.00800           0
     22144 TIP3     4076     TIP3     H2       HT       0.417000       1.00800           0
     22145 TIP3     4077     TIP3     OH2      OT      -0.834000       15.9994           0
     22146 TIP3     4077     TIP3     H1       HT       0.417000       1.00800           0
     22147 TIP3     4077     TIP3     H2       HT       0.417000       1.00800           0
     22148 TIP3     4078     TIP3     OH2      OT      -0.834000       15.9994           0
     22149 TIP3     4078     TIP3     H1       HT       0.417000       1.00800           0
     22150 TIP3     4078     TIP3     H2       HT       0.417000       1.00800           0
     22151 TIP3     4079     TIP3     OH2      OT      -0.834000       15.9994           0
     22152 TIP3     4079     TIP3     H1       HT       0.417000       1.00800           0
     22153 TIP3     4079     TIP3     H2       HT       0.417000       1.00800           0
     22154 TIP3     4080     TIP3     OH2      OT      -0.834000       15.9994           0
     22155 TIP3     4080     TIP3     H1       HT       0.417000       1.00800           0
     22156 TIP3     4080     TIP3     H2       HT       0.417000       1.00800           0
     22157 TIP3     4081     TIP3     OH2      OT      -0.834000       15.9994           0
     22158 TIP3     4081     TIP3     H1       HT       0.417000       1.00800           0
     22159 TIP3     4081     TIP3     H2       HT       0.417000       1.00800           0
     22160 TIP3     4082     TIP3     OH2      OT      -0.834000       15.9994           0
     22161 TIP3     4082     TIP3     H1       HT       0.417000       1.00800           0
     22162 TIP3     4082     TIP3     H2       HT       0.417000       1.00800           0
     22163 TIP3     4083     TIP3     OH2      OT      -0.834000       15.9994           0
     22164 TIP3     4083     TIP3     H1       HT       0.417000       1.00800           0
     22165 TIP3     4083     TIP3     H2       HT       0.417000       1.00800           0
     22166 TIP3     4084     TIP3     OH2      OT      -0.834000       15.9994           0
     22167 TIP3     4084     TIP3     H1       HT       0.417000       1.00800           0
     22168 TIP3     4084     TIP3     H2       HT       0.417000       1.00800           0
     22169 TIP3     4085     TIP3     OH2      OT      -0.834000       15.9994           0
     22170 TIP3     4085     TIP3     H1       HT       0.417000       1.00800           0
     22171 TIP3     4085     TIP3     H2       HT       0.417000       1.00800           0
     22172 TIP3     4086     TIP3     OH2      OT      -0.834000       15.9994           0
     22173 TIP3     4086     TIP3     H1       HT       0.417000       1.00800           0
     22174 TIP3     4086     TIP3     H2       HT       0.417000       1.00800           0
     22175 TIP3     4087     TIP3     OH2      OT      -0.834000       15.9994           0
     22176 TIP3     4087     TIP3     H1       HT       0.417000       1.00800           0
     22177 TIP3     4087     TIP3     H2       HT       0.417000       1.00800           0
     22178 TIP3     4088     TIP3     OH2      OT      -0.834000       15.9994           0
     22179 TIP3     4088     TIP3     H1       HT       0.417000       1.00800           0
     22180 TIP3     4088     TIP3     H2       HT       0.417000       1.00800           0
     22181 TIP3     4089     TIP3     OH2      OT      -0.834000       15.9994           0
     22182 TIP3     4089     TIP3     H1       HT       0.417000       1.00800           0
     22183 TIP3     4089     TIP3     H2       HT       0.417000       1.00800           0
     22184 TIP3     4090     TIP3     OH2      OT      -0.834000       15.9994           0
     22185 TIP3     4090     TIP3     H1       HT       0.417000       1.00800           0
     22186 TIP3     4090     TIP3     H2       HT       0.417000       1.00800           0
     22187 TIP3     4091     TIP3     OH2      OT      -0.834000       15.9994           0
     22188 TIP3     4091     TIP3     H1       HT       0.417000       1.00800           0
     22189 TIP3     4091     TIP3     H2       HT       0.417000       1.00800           0
     22190 TIP3     4092     TIP3     OH2      OT      -0.834000       15.9994           0
     22191 TIP3     4092     TIP3     H1       HT       0.417000       1.00800           0
     22192 TIP3     4092     TIP3     H2       HT       0.417000       1.00800           0
     22193 TIP3     4093     TIP3     OH2      OT      -0.834000       15.9994           0
     22194 TIP3     4093     TIP3     H1       HT       0.417000       1.00800           0
     22195 TIP3     4093     TIP3     H2       HT       0.417000       1.00800           0
     22196 TIP3     4094     TIP3     OH2      OT      -0.834000       15.9994           0
     22197 TIP3     4094     TIP3     H1       HT       0.417000       1.00800           0
     22198 TIP3     4094     TIP3     H2       HT       0.417000       1.00800           0
     22199 TIP3     4095     TIP3     OH2      OT      -0.834000       15.9994           0
     22200 TIP3     4095     TIP3     H1       HT       0.417000       1.00800           0
     22201 TIP3     4095     TIP3     H2       HT       0.417000       1.00800           0
     22202 TIP3     4096     TIP3     OH2      OT      -0.834000       15.9994           0
     22203 TIP3     4096     TIP3     H1       HT       0.417000       1.00800           0
     22204 TIP3     4096     TIP3     H2       HT       0.417000       1.00800           0
     22205 TIP3     4097     TIP3     OH2      OT      -0.834000       15.9994           0
     22206 TIP3     4097     TIP3     H1       HT       0.417000       1.00800           0
     22207 TIP3     4097     TIP3     H2       HT       0.417000       1.00800           0
     22208 TIP3     4098     TIP3     OH2      OT      -0.834000       15.9994           0
     22209 TIP3     4098     TIP3     H1       HT       0.417000       1.00800           0
     22210 TIP3     4098     TIP3     H2       HT       0.417000       1.00800           0
     22211 TIP3     4099     TIP3     OH2      OT      -0.834000       15.9994           0
     22212 TIP3     4099     TIP3     H1       HT       0.417000       1.00800           0
     22213 TIP3     4099     TIP3     H2       HT       0.417000       1.00800           0
     22214 TIP3     4100     TIP3     OH2      OT      -0.834000       15.9994           0
     22215 TIP3     4100     TIP3     H1       HT       0.417000       1.00800           0
     22216 TIP3     4100     TIP3     H2       HT       0.417000       1.00800           0
     22217 TIP3     4101     TIP3     OH2      OT      -0.834000       15.9994           0
     22218 TIP3     4101     TIP3     H1       HT       0.417000       1.00800           0
     22219 TIP3     4101     TIP3     H2       HT       0.417000       1.00800           0
     22220 TIP3     4102     TIP3     OH2      OT      -0.834000       15.9994           0
     22221 TIP3     4102     TIP3     H1       HT       0.417000       1.00800           0
     22222 TIP3     4102     TIP3     H2       HT       0.417000       1.00800           0
     22223 TIP3     4103     TIP3     OH2      OT      -0.834000       15.9994           0
     22224 TIP3     4103     TIP3     H1       HT       0.417000       1.00800           0
     22225 TIP3     4103     TIP3     H2       HT       0.417000       1.00800           0
     22226 TIP3     4104     TIP3     OH2      OT      -0.834000       15.9994           0
     22227 TIP3     4104     TIP3     H1       HT       0.417000       1.00800           0
     22228 TIP3     4104     TIP3     H2       HT       0.417000       1.00800           0
     22229 TIP3     4105     TIP3     OH2      OT      -0.834000       15.9994           0
     22230 TIP3     4105     TIP3     H1       HT       0.417000       1.00800           0
     22231 TIP3     4105     TIP3     H2       HT       0.417000       1.00800           0
     22232 TIP3     4106     TIP3     OH2      OT      -0.834000       15.9994           0
     22233 TIP3     4106     TIP3     H1       HT       0.417000       1.00800           0
     22234 TIP3     4106     TIP3     H2       HT       0.417000       1.00800           0
     22235 TIP3     4107     TIP3     OH2      OT      -0.834000       15.9994           0
     22236 TIP3     4107     TIP3     H1       HT       0.417000       1.00800           0
     22237 TIP3     4107     TIP3     H2       HT       0.417000       1.00800           0
     22238 TIP3     4108     TIP3     OH2      OT      -0.834000       15.9994           0
     22239 TIP3     4108     TIP3     H1       HT       0.417000       1.00800           0
     22240 TIP3     4108     TIP3     H2       HT       0.417000       1.00800           0
     22241 TIP3     4109     TIP3     OH2      OT      -0.834000       15.9994           0
     22242 TIP3     4109     TIP3     H1       HT       0.417000       1.00800           0
     22243 TIP3     4109     TIP3     H2       HT       0.417000       1.00800           0
     22244 TIP3     4110     TIP3     OH2      OT      -0.834000       15.9994           0
     22245 TIP3     4110     TIP3     H1       HT       0.417000       1.00800           0
     22246 TIP3     4110     TIP3     H2       HT       0.417000       1.00800           0
     22247 TIP3     4111     TIP3     OH2      OT      -0.834000       15.9994           0
     22248 TIP3     4111     TIP3     H1       HT       0.417000       1.00800           0
     22249 TIP3     4111     TIP3     H2       HT       0.417000       1.00800           0
     22250 TIP3     4112     TIP3     OH2      OT      -0.834000       15.9994           0
     22251 TIP3     4112     TIP3     H1       HT       0.417000       1.00800           0
     22252 TIP3     4112     TIP3     H2       HT       0.417000       1.00800           0
     22253 TIP3     4113     TIP3     OH2      OT      -0.834000       15.9994           0
     22254 TIP3     4113     TIP3     H1       HT       0.417000       1.00800           0
     22255 TIP3     4113     TIP3     H2       HT       0.417000       1.00800           0
     22256 TIP3     4114     TIP3     OH2      OT      -0.834000       15.9994           0
     22257 TIP3     4114     TIP3     H1       HT       0.417000       1.00800           0
     22258 TIP3     4114     TIP3     H2       HT       0.417000       1.00800           0
     22259 TIP3     4115     TIP3     OH2      OT      -0.834000       15.9994           0
     22260 TIP3     4115     TIP3     H1       HT       0.417000       1.00800           0
     22261 TIP3     4115     TIP3     H2       HT       0.417000       1.00800           0
     22262 TIP3     4116     TIP3     OH2      OT      -0.834000       15.9994           0
     22263 TIP3     4116     TIP3     H1       HT       0.417000       1.00800           0
     22264 TIP3     4116     TIP3     H2       HT       0.417000       1.00800           0
     22265 TIP3     4117     TIP3     OH2      OT      -0.834000       15.9994           0
     22266 TIP3     4117     TIP3     H1       HT       0.417000       1.00800           0
     22267 TIP3     4117     TIP3     H2       HT       0.417000       1.00800           0
     22268 TIP3     4118     TIP3     OH2      OT      -0.834000       15.9994           0
     22269 TIP3     4118     TIP3     H1       HT       0.417000       1.00800           0
     22270 TIP3     4118     TIP3     H2       HT       0.417000       1.00800           0
     22271 TIP3     4119     TIP3     OH2      OT      -0.834000       15.9994           0
     22272 TIP3     4119     TIP3     H1       HT       0.417000       1.00800           0
     22273 TIP3     4119     TIP3     H2       HT       0.417000       1.00800           0
     22274 TIP3     4120     TIP3     OH2      OT      -0.834000       15.9994           0
     22275 TIP3     4120     TIP3     H1       HT       0.417000       1.00800           0
     22276 TIP3     4120     TIP3     H2       HT       0.417000       1.00800           0
     22277 TIP3     4121     TIP3     OH2      OT      -0.834000       15.9994           0
     22278 TIP3     4121     TIP3     H1       HT       0.417000       1.00800           0
     22279 TIP3     4121     TIP3     H2       HT       0.417000       1.00800           0
     22280 TIP3     4122     TIP3     OH2      OT      -0.834000       15.9994           0
     22281 TIP3     4122     TIP3     H1       HT       0.417000       1.00800           0
     22282 TIP3     4122     TIP3     H2       HT       0.417000       1.00800           0
     22283 TIP3     4123     TIP3     OH2      OT      -0.834000       15.9994           0
     22284 TIP3     4123     TIP3     H1       HT       0.417000       1.00800           0
     22285 TIP3     4123     TIP3     H2       HT       0.417000       1.00800           0
     22286 TIP3     4124     TIP3     OH2      OT      -0.834000       15.9994           0
     22287 TIP3     4124     TIP3     H1       HT       0.417000       1.00800           0
     22288 TIP3     4124     TIP3     H2       HT       0.417000       1.00800           0
     22289 TIP3     4125     TIP3     OH2      OT      -0.834000       15.9994           0
     22290 TIP3     4125     TIP3     H1       HT       0.417000       1.00800           0
     22291 TIP3     4125     TIP3     H2       HT       0.417000       1.00800           0
     22292 TIP3     4126     TIP3     OH2      OT      -0.834000       15.9994           0
     22293 TIP3     4126     TIP3     H1       HT       0.417000       1.00800           0
     22294 TIP3     4126     TIP3     H2       HT       0.417000       1.00800           0
     22295 TIP3     4127     TIP3     OH2      OT      -0.834000       15.9994           0
     22296 TIP3     4127     TIP3     H1       HT       0.417000       1.00800           0
     22297 TIP3     4127     TIP3     H2       HT       0.417000       1.00800           0
     22298 TIP3     4128     TIP3     OH2      OT      -0.834000       15.9994           0
     22299 TIP3     4128     TIP3     H1       HT       0.417000       1.00800           0
     22300 TIP3     4128     TIP3     H2       HT       0.417000       1.00800           0
     22301 TIP3     4129     TIP3     OH2      OT      -0.834000       15.9994           0
     22302 TIP3     4129     TIP3     H1       HT       0.417000       1.00800           0
     22303 TIP3     4129     TIP3     H2       HT       0.417000       1.00800           0
     22304 TIP3     4130     TIP3     OH2      OT      -0.834000       15.9994           0
     22305 TIP3     4130     TIP3     H1       HT       0.417000       1.00800           0
     22306 TIP3     4130     TIP3     H2       HT       0.417000       1.00800           0
     22307 TIP3     4131     TIP3     OH2      OT      -0.834000       15.9994           0
     22308 TIP3     4131     TIP3     H1       HT       0.417000       1.00800           0
     22309 TIP3     4131     TIP3     H2       HT       0.417000       1.00800           0
     22310 TIP3     4132     TIP3     OH2      OT      -0.834000       15.9994           0
     22311 TIP3     4132     TIP3     H1       HT       0.417000       1.00800           0
     22312 TIP3     4132     TIP3     H2       HT       0.417000       1.00800           0
     22313 TIP3     4133     TIP3     OH2      OT      -0.834000       15.9994           0
     22314 TIP3     4133     TIP3     H1       HT       0.417000       1.00800           0
     22315 TIP3     4133     TIP3     H2       HT       0.417000       1.00800           0
     22316 TIP3     4134     TIP3     OH2      OT      -0.834000       15.9994           0
     22317 TIP3     4134     TIP3     H1       HT       0.417000       1.00800           0
     22318 TIP3     4134     TIP3     H2       HT       0.417000       1.00800           0
     22319 TIP3     4135     TIP3     OH2      OT      -0.834000       15.9994           0
     22320 TIP3     4135     TIP3     H1       HT       0.417000       1.00800           0
     22321 TIP3     4135     TIP3     H2       HT       0.417000       1.00800           0
     22322 TIP3     4136     TIP3     OH2      OT      -0.834000       15.9994           0
     22323 TIP3     4136     TIP3     H1       HT       0.417000       1.00800           0
     22324 TIP3     4136     TIP3     H2       HT       0.417000       1.00800           0
     22325 TIP3     4137     TIP3     OH2      OT      -0.834000       15.9994           0
     22326 TIP3     4137     TIP3     H1       HT       0.417000       1.00800           0
     22327 TIP3     4137     TIP3     H2       HT       0.417000       1.00800           0
     22328 TIP3     4138     TIP3     OH2      OT      -0.834000       15.9994           0
     22329 TIP3     4138     TIP3     H1       HT       0.417000       1.00800           0
     22330 TIP3     4138     TIP3     H2       HT       0.417000       1.00800           0
     22331 TIP3     4139     TIP3     OH2      OT      -0.834000       15.9994           0
     22332 TIP3     4139     TIP3     H1       HT       0.417000       1.00800           0
     22333 TIP3     4139     TIP3     H2       HT       0.417000       1.00800           0
     22334 TIP3     4140     TIP3     OH2      OT      -0.834000       15.9994           0
     22335 TIP3     4140     TIP3     H1       HT       0.417000       1.00800           0
     22336 TIP3     4140     TIP3     H2       HT       0.417000       1.00800           0
     22337 TIP3     4141     TIP3     OH2      OT      -0.834000       15.9994           0
     22338 TIP3     4141     TIP3     H1       HT       0.417000       1.00800           0
     22339 TIP3     4141     TIP3     H2       HT       0.417000       1.00800           0
     22340 TIP3     4142     TIP3     OH2      OT      -0.834000       15.9994           0
     22341 TIP3     4142     TIP3     H1       HT       0.417000       1.00800           0
     22342 TIP3     4142     TIP3     H2       HT       0.417000       1.00800           0
     22343 TIP3     4143     TIP3     OH2      OT      -0.834000       15.9994           0
     22344 TIP3     4143     TIP3     H1       HT       0.417000       1.00800           0
     22345 TIP3     4143     TIP3     H2       HT       0.417000       1.00800           0
     22346 TIP3     4144     TIP3     OH2      OT      -0.834000       15.9994           0
     22347 TIP3     4144     TIP3     H1       HT       0.417000       1.00800           0
     22348 TIP3     4144     TIP3     H2       HT       0.417000       1.00800           0
     22349 TIP3     4145     TIP3     OH2      OT      -0.834000       15.9994           0
     22350 TIP3     4145     TIP3     H1       HT       0.417000       1.00800           0
     22351 TIP3     4145     TIP3     H2       HT       0.417000       1.00800           0
     22352 TIP3     4146     TIP3     OH2      OT      -0.834000       15.9994           0
     22353 TIP3     4146     TIP3     H1       HT       0.417000       1.00800           0
     22354 TIP3     4146     TIP3     H2       HT       0.417000       1.00800           0
     22355 TIP3     4147     TIP3     OH2      OT      -0.834000       15.9994           0
     22356 TIP3     4147     TIP3     H1       HT       0.417000       1.00800           0
     22357 TIP3     4147     TIP3     H2       HT       0.417000       1.00800           0
     22358 TIP3     4148     TIP3     OH2      OT      -0.834000       15.9994           0
     22359 TIP3     4148     TIP3     H1       HT       0.417000       1.00800           0
     22360 TIP3     4148     TIP3     H2       HT       0.417000       1.00800           0
     22361 TIP3     4149     TIP3     OH2      OT      -0.834000       15.9994           0
     22362 TIP3     4149     TIP3     H1       HT       0.417000       1.00800           0
     22363 TIP3     4149     TIP3     H2       HT       0.417000       1.00800           0
     22364 TIP3     4150     TIP3     OH2      OT      -0.834000       15.9994           0
     22365 TIP3     4150     TIP3     H1       HT       0.417000       1.00800           0
     22366 TIP3     4150     TIP3     H2       HT       0.417000       1.00800           0
     22367 TIP3     4151     TIP3     OH2      OT      -0.834000       15.9994           0
     22368 TIP3     4151     TIP3     H1       HT       0.417000       1.00800           0
     22369 TIP3     4151     TIP3     H2       HT       0.417000       1.00800           0
     22370 TIP3     4152     TIP3     OH2      OT      -0.834000       15.9994           0
     22371 TIP3     4152     TIP3     H1       HT       0.417000       1.00800           0
     22372 TIP3     4152     TIP3     H2       HT       0.417000       1.00800           0
     22373 TIP3     4153     TIP3     OH2      OT      -0.834000       15.9994           0
     22374 TIP3     4153     TIP3     H1       HT       0.417000       1.00800           0
     22375 TIP3     4153     TIP3     H2       HT       0.417000       1.00800           0
     22376 TIP3     4154     TIP3     OH2      OT      -0.834000       15.9994           0
     22377 TIP3     4154     TIP3     H1       HT       0.417000       1.00800           0
     22378 TIP3     4154     TIP3     H2       HT       0.417000       1.00800           0
     22379 TIP3     4155     TIP3     OH2      OT      -0.834000       15.9994           0
     22380 TIP3     4155     TIP3     H1       HT       0.417000       1.00800           0
     22381 TIP3     4155     TIP3     H2       HT       0.417000       1.00800           0
     22382 TIP3     4156     TIP3     OH2      OT      -0.834000       15.9994           0
     22383 TIP3     4156     TIP3     H1       HT       0.417000       1.00800           0
     22384 TIP3     4156     TIP3     H2       HT       0.417000       1.00800           0
     22385 TIP3     4157     TIP3     OH2      OT      -0.834000       15.9994           0
     22386 TIP3     4157     TIP3     H1       HT       0.417000       1.00800           0
     22387 TIP3     4157     TIP3     H2       HT       0.417000       1.00800           0
     22388 TIP3     4158     TIP3     OH2      OT      -0.834000       15.9994           0
     22389 TIP3     4158     TIP3     H1       HT       0.417000       1.00800           0
     22390 TIP3     4158     TIP3     H2       HT       0.417000       1.00800           0
     22391 TIP3     4159     TIP3     OH2      OT      -0.834000       15.9994           0
     22392 TIP3     4159     TIP3     H1       HT       0.417000       1.00800           0
     22393 TIP3     4159     TIP3     H2       HT       0.417000       1.00800           0
     22394 TIP3     4160     TIP3     OH2      OT      -0.834000       15.9994           0
     22395 TIP3     4160     TIP3     H1       HT       0.417000       1.00800           0
     22396 TIP3     4160     TIP3     H2       HT       0.417000       1.00800           0
     22397 TIP3     4161     TIP3     OH2      OT      -0.834000       15.9994           0
     22398 TIP3     4161     TIP3     H1       HT       0.417000       1.00800           0
     22399 TIP3     4161     TIP3     H2       HT       0.417000       1.00800           0
     22400 TIP3     4162     TIP3     OH2      OT      -0.834000       15.9994           0
     22401 TIP3     4162     TIP3     H1       HT       0.417000       1.00800           0
     22402 TIP3     4162     TIP3     H2       HT       0.417000       1.00800           0
     22403 TIP3     4163     TIP3     OH2      OT      -0.834000       15.9994           0
     22404 TIP3     4163     TIP3     H1       HT       0.417000       1.00800           0
     22405 TIP3     4163     TIP3     H2       HT       0.417000       1.00800           0
     22406 TIP3     4164     TIP3     OH2      OT      -0.834000       15.9994           0
     22407 TIP3     4164     TIP3     H1       HT       0.417000       1.00800           0
     22408 TIP3     4164     TIP3     H2       HT       0.417000       1.00800           0
     22409 TIP3     4165     TIP3     OH2      OT      -0.834000       15.9994           0
     22410 TIP3     4165     TIP3     H1       HT       0.417000       1.00800           0
     22411 TIP3     4165     TIP3     H2       HT       0.417000       1.00800           0
     22412 TIP3     4166     TIP3     OH2      OT      -0.834000       15.9994           0
     22413 TIP3     4166     TIP3     H1       HT       0.417000       1.00800           0
     22414 TIP3     4166     TIP3     H2       HT       0.417000       1.00800           0
     22415 TIP3     4167     TIP3     OH2      OT      -0.834000       15.9994           0
     22416 TIP3     4167     TIP3     H1       HT       0.417000       1.00800           0
     22417 TIP3     4167     TIP3     H2       HT       0.417000       1.00800           0
     22418 TIP3     4168     TIP3     OH2      OT      -0.834000       15.9994           0
     22419 TIP3     4168     TIP3     H1       HT       0.417000       1.00800           0
     22420 TIP3     4168     TIP3     H2       HT       0.417000       1.00800           0
     22421 TIP3     4169     TIP3     OH2      OT      -0.834000       15.9994           0
     22422 TIP3     4169     TIP3     H1       HT       0.417000       1.00800           0
     22423 TIP3     4169     TIP3     H2       HT       0.417000       1.00800           0
     22424 TIP3     4170     TIP3     OH2      OT      -0.834000       15.9994           0
     22425 TIP3     4170     TIP3     H1       HT       0.417000       1.00800           0
     22426 TIP3     4170     TIP3     H2       HT       0.417000       1.00800           0
     22427 TIP3     4171     TIP3     OH2      OT      -0.834000       15.9994           0
     22428 TIP3     4171     TIP3     H1       HT       0.417000       1.00800           0
     22429 TIP3     4171     TIP3     H2       HT       0.417000       1.00800           0
     22430 TIP3     4172     TIP3     OH2      OT      -0.834000       15.9994           0
     22431 TIP3     4172     TIP3     H1       HT       0.417000       1.00800           0
     22432 TIP3     4172     TIP3     H2       HT       0.417000       1.00800           0
     22433 TIP3     4173     TIP3     OH2      OT      -0.834000       15.9994           0
     22434 TIP3     4173     TIP3     H1       HT       0.417000       1.00800           0
     22435 TIP3     4173     TIP3     H2       HT       0.417000       1.00800           0
     22436 TIP3     4174     TIP3     OH2      OT      -0.834000       15.9994           0
     22437 TIP3     4174     TIP3     H1       HT       0.417000       1.00800           0
     22438 TIP3     4174     TIP3     H2       HT       0.417000       1.00800           0
     22439 TIP3     4175     TIP3     OH2      OT      -0.834000       15.9994           0
     22440 TIP3     4175     TIP3     H1       HT       0.417000       1.00800           0
     22441 TIP3     4175     TIP3     H2       HT       0.417000       1.00800           0
     22442 TIP3     4176     TIP3     OH2      OT      -0.834000       15.9994           0
     22443 TIP3     4176     TIP3     H1       HT       0.417000       1.00800           0
     22444 TIP3     4176     TIP3     H2       HT       0.417000       1.00800           0
     22445 TIP3     4177     TIP3     OH2      OT      -0.834000       15.9994           0
     22446 TIP3     4177     TIP3     H1       HT       0.417000       1.00800           0
     22447 TIP3     4177     TIP3     H2       HT       0.417000       1.00800           0
     22448 TIP3     4178     TIP3     OH2      OT      -0.834000       15.9994           0
     22449 TIP3     4178     TIP3     H1       HT       0.417000       1.00800           0
     22450 TIP3     4178     TIP3     H2       HT       0.417000       1.00800           0
     22451 TIP3     4179     TIP3     OH2      OT      -0.834000       15.9994           0
     22452 TIP3     4179     TIP3     H1       HT       0.417000       1.00800           0
     22453 TIP3     4179     TIP3     H2       HT       0.417000       1.00800           0
     22454 TIP3     4180     TIP3     OH2      OT      -0.834000       15.9994           0
     22455 TIP3     4180     TIP3     H1       HT       0.417000       1.00800           0
     22456 TIP3     4180     TIP3     H2       HT       0.417000       1.00800           0
     22457 TIP3     4181     TIP3     OH2      OT      -0.834000       15.9994           0
     22458 TIP3     4181     TIP3     H1       HT       0.417000       1.00800           0
     22459 TIP3     4181     TIP3     H2       HT       0.417000       1.00800           0
     22460 TIP3     4182     TIP3     OH2      OT      -0.834000       15.9994           0
     22461 TIP3     4182     TIP3     H1       HT       0.417000       1.00800           0
     22462 TIP3     4182     TIP3     H2       HT       0.417000       1.00800           0
     22463 TIP3     4183     TIP3     OH2      OT      -0.834000       15.9994           0
     22464 TIP3     4183     TIP3     H1       HT       0.417000       1.00800           0
     22465 TIP3     4183     TIP3     H2       HT       0.417000       1.00800           0
     22466 TIP3     4184     TIP3     OH2      OT      -0.834000       15.9994           0
     22467 TIP3     4184     TIP3     H1       HT       0.417000       1.00800           0
     22468 TIP3     4184     TIP3     H2       HT       0.417000       1.00800           0
     22469 TIP3     4185     TIP3     OH2      OT      -0.834000       15.9994           0
     22470 TIP3     4185     TIP3     H1       HT       0.417000       1.00800           0
     22471 TIP3     4185     TIP3     H2       HT       0.417000       1.00800           0
     22472 TIP3     4186     TIP3     OH2      OT      -0.834000       15.9994           0
     22473 TIP3     4186     TIP3     H1       HT       0.417000       1.00800           0
     22474 TIP3     4186     TIP3     H2       HT       0.417000       1.00800           0
     22475 TIP3     4187     TIP3     OH2      OT      -0.834000       15.9994           0
     22476 TIP3     4187     TIP3     H1       HT       0.417000       1.00800           0
     22477 TIP3     4187     TIP3     H2       HT       0.417000       1.00800           0
     22478 TIP3     4188     TIP3     OH2      OT      -0.834000       15.9994           0
     22479 TIP3     4188     TIP3     H1       HT       0.417000       1.00800           0
     22480 TIP3     4188     TIP3     H2       HT       0.417000       1.00800           0
     22481 TIP3     4189     TIP3     OH2      OT      -0.834000       15.9994           0
     22482 TIP3     4189     TIP3     H1       HT       0.417000       1.00800           0
     22483 TIP3     4189     TIP3     H2       HT       0.417000       1.00800           0
     22484 TIP3     4190     TIP3     OH2      OT      -0.834000       15.9994           0
     22485 TIP3     4190     TIP3     H1       HT       0.417000       1.00800           0
     22486 TIP3     4190     TIP3     H2       HT       0.417000       1.00800           0
     22487 TIP3     4191     TIP3     OH2      OT      -0.834000       15.9994           0
     22488 TIP3     4191     TIP3     H1       HT       0.417000       1.00800           0
     22489 TIP3     4191     TIP3     H2       HT       0.417000       1.00800           0
     22490 TIP3     4192     TIP3     OH2      OT      -0.834000       15.9994           0
     22491 TIP3     4192     TIP3     H1       HT       0.417000       1.00800           0
     22492 TIP3     4192     TIP3     H2       HT       0.417000       1.00800           0
     22493 TIP3     4193     TIP3     OH2      OT      -0.834000       15.9994           0
     22494 TIP3     4193     TIP3     H1       HT       0.417000       1.00800           0
     22495 TIP3     4193     TIP3     H2       HT       0.417000       1.00800           0
     22496 TIP3     4194     TIP3     OH2      OT      -0.834000       15.9994           0
     22497 TIP3     4194     TIP3     H1       HT       0.417000       1.00800           0
     22498 TIP3     4194     TIP3     H2       HT       0.417000       1.00800           0
     22499 TIP3     4195     TIP3     OH2      OT      -0.834000       15.9994           0
     22500 TIP3     4195     TIP3     H1       HT       0.417000       1.00800           0
     22501 TIP3     4195     TIP3     H2       HT       0.417000       1.00800           0
     22502 TIP3     4196     TIP3     OH2      OT      -0.834000       15.9994           0
     22503 TIP3     4196     TIP3     H1       HT       0.417000       1.00800           0
     22504 TIP3     4196     TIP3     H2       HT       0.417000       1.00800           0
     22505 TIP3     4197     TIP3     OH2      OT      -0.834000       15.9994           0
     22506 TIP3     4197     TIP3     H1       HT       0.417000       1.00800           0
     22507 TIP3     4197     TIP3     H2       HT       0.417000       1.00800           0
     22508 TIP3     4198     TIP3     OH2      OT      -0.834000       15.9994           0
     22509 TIP3     4198     TIP3     H1       HT       0.417000       1.00800           0
     22510 TIP3     4198     TIP3     H2       HT       0.417000       1.00800           0
     22511 TIP3     4199     TIP3     OH2      OT      -0.834000       15.9994           0
     22512 TIP3     4199     TIP3     H1       HT       0.417000       1.00800           0
     22513 TIP3     4199     TIP3     H2       HT       0.417000       1.00800           0
     22514 TIP3     4200     TIP3     OH2      OT      -0.834000       15.9994           0
     22515 TIP3     4200     TIP3     H1       HT       0.417000       1.00800           0
     22516 TIP3     4200     TIP3     H2       HT       0.417000       1.00800           0
     22517 TIP3     4201     TIP3     OH2      OT      -0.834000       15.9994           0
     22518 TIP3     4201     TIP3     H1       HT       0.417000       1.00800           0
     22519 TIP3     4201     TIP3     H2       HT       0.417000       1.00800           0
     22520 TIP3     4202     TIP3     OH2      OT      -0.834000       15.9994           0
     22521 TIP3     4202     TIP3     H1       HT       0.417000       1.00800           0
     22522 TIP3     4202     TIP3     H2       HT       0.417000       1.00800           0
     22523 TIP3     4203     TIP3     OH2      OT      -0.834000       15.9994           0
     22524 TIP3     4203     TIP3     H1       HT       0.417000       1.00800           0
     22525 TIP3     4203     TIP3     H2       HT       0.417000       1.00800           0
     22526 TIP3     4204     TIP3     OH2      OT      -0.834000       15.9994           0
     22527 TIP3     4204     TIP3     H1       HT       0.417000       1.00800           0
     22528 TIP3     4204     TIP3     H2       HT       0.417000       1.00800           0
     22529 TIP3     4205     TIP3     OH2      OT      -0.834000       15.9994           0
     22530 TIP3     4205     TIP3     H1       HT       0.417000       1.00800           0
     22531 TIP3     4205     TIP3     H2       HT       0.417000       1.00800           0
     22532 TIP3     4206     TIP3     OH2      OT      -0.834000       15.9994           0
     22533 TIP3     4206     TIP3     H1       HT       0.417000       1.00800           0
     22534 TIP3     4206     TIP3     H2       HT       0.417000       1.00800           0
     22535 TIP3     4207     TIP3     OH2      OT      -0.834000       15.9994           0
     22536 TIP3     4207     TIP3     H1       HT       0.417000       1.00800           0
     22537 TIP3     4207     TIP3     H2       HT       0.417000       1.00800           0
     22538 TIP3     4208     TIP3     OH2      OT      -0.834000       15.9994           0
     22539 TIP3     4208     TIP3     H1       HT       0.417000       1.00800           0
     22540 TIP3     4208     TIP3     H2       HT       0.417000       1.00800           0
     22541 TIP3     4209     TIP3     OH2      OT      -0.834000       15.9994           0
     22542 TIP3     4209     TIP3     H1       HT       0.417000       1.00800           0
     22543 TIP3     4209     TIP3     H2       HT       0.417000       1.00800           0
     22544 TIP3     4210     TIP3     OH2      OT      -0.834000       15.9994           0
     22545 TIP3     4210     TIP3     H1       HT       0.417000       1.00800           0
     22546 TIP3     4210     TIP3     H2       HT       0.417000       1.00800           0
     22547 TIP3     4211     TIP3     OH2      OT      -0.834000       15.9994           0
     22548 TIP3     4211     TIP3     H1       HT       0.417000       1.00800           0
     22549 TIP3     4211     TIP3     H2       HT       0.417000       1.00800           0
     22550 TIP3     4212     TIP3     OH2      OT      -0.834000       15.9994           0
     22551 TIP3     4212     TIP3     H1       HT       0.417000       1.00800           0
     22552 TIP3     4212     TIP3     H2       HT       0.417000       1.00800           0
     22553 TIP3     4213     TIP3     OH2      OT      -0.834000       15.9994           0
     22554 TIP3     4213     TIP3     H1       HT       0.417000       1.00800           0
     22555 TIP3     4213     TIP3     H2       HT       0.417000       1.00800           0
     22556 TIP3     4214     TIP3     OH2      OT      -0.834000       15.9994           0
     22557 TIP3     4214     TIP3     H1       HT       0.417000       1.00800           0
     22558 TIP3     4214     TIP3     H2       HT       0.417000       1.00800           0
     22559 TIP3     4215     TIP3     OH2      OT      -0.834000       15.9994           0
     22560 TIP3     4215     TIP3     H1       HT       0.417000       1.00800           0
     22561 TIP3     4215     TIP3     H2       HT       0.417000       1.00800           0
     22562 TIP3     4216     TIP3     OH2      OT      -0.834000       15.9994           0
     22563 TIP3     4216     TIP3     H1       HT       0.417000       1.00800           0
     22564 TIP3     4216     TIP3     H2       HT       0.417000       1.00800           0
     22565 TIP3     4217     TIP3     OH2      OT      -0.834000       15.9994           0
     22566 TIP3     4217     TIP3     H1       HT       0.417000       1.00800           0
     22567 TIP3     4217     TIP3     H2       HT       0.417000       1.00800           0
     22568 TIP3     4218     TIP3     OH2      OT      -0.834000       15.9994           0
     22569 TIP3     4218     TIP3     H1       HT       0.417000       1.00800           0
     22570 TIP3     4218     TIP3     H2       HT       0.417000       1.00800           0
     22571 TIP3     4219     TIP3     OH2      OT      -0.834000       15.9994           0
     22572 TIP3     4219     TIP3     H1       HT       0.417000       1.00800           0
     22573 TIP3     4219     TIP3     H2       HT       0.417000       1.00800           0
     22574 TIP3     4220     TIP3     OH2      OT      -0.834000       15.9994           0
     22575 TIP3     4220     TIP3     H1       HT       0.417000       1.00800           0
     22576 TIP3     4220     TIP3     H2       HT       0.417000       1.00800           0
     22577 TIP3     4221     TIP3     OH2      OT      -0.834000       15.9994           0
     22578 TIP3     4221     TIP3     H1       HT       0.417000       1.00800           0
     22579 TIP3     4221     TIP3     H2       HT       0.417000       1.00800           0
     22580 TIP3     4222     TIP3     OH2      OT      -0.834000       15.9994           0
     22581 TIP3     4222     TIP3     H1       HT       0.417000       1.00800           0
     22582 TIP3     4222     TIP3     H2       HT       0.417000       1.00800           0
     22583 TIP3     4223     TIP3     OH2      OT      -0.834000       15.9994           0
     22584 TIP3     4223     TIP3     H1       HT       0.417000       1.00800           0
     22585 TIP3     4223     TIP3     H2       HT       0.417000       1.00800           0
     22586 TIP3     4224     TIP3     OH2      OT      -0.834000       15.9994           0
     22587 TIP3     4224     TIP3     H1       HT       0.417000       1.00800           0
     22588 TIP3     4224     TIP3     H2       HT       0.417000       1.00800           0
     22589 TIP3     4225     TIP3     OH2      OT      -0.834000       15.9994           0
     22590 TIP3     4225     TIP3     H1       HT       0.417000       1.00800           0
     22591 TIP3     4225     TIP3     H2       HT       0.417000       1.00800           0
     22592 TIP3     4226     TIP3     OH2      OT      -0.834000       15.9994           0
     22593 TIP3     4226     TIP3     H1       HT       0.417000       1.00800           0
     22594 TIP3     4226     TIP3     H2       HT       0.417000       1.00800           0
     22595 TIP3     4227     TIP3     OH2      OT      -0.834000       15.9994           0
     22596 TIP3     4227     TIP3     H1       HT       0.417000       1.00800           0
     22597 TIP3     4227     TIP3     H2       HT       0.417000       1.00800           0
     22598 TIP3     4228     TIP3     OH2      OT      -0.834000       15.9994           0
     22599 TIP3     4228     TIP3     H1       HT       0.417000       1.00800           0
     22600 TIP3     4228     TIP3     H2       HT       0.417000       1.00800           0
     22601 TIP3     4229     TIP3     OH2      OT      -0.834000       15.9994           0
     22602 TIP3     4229     TIP3     H1       HT       0.417000       1.00800           0
     22603 TIP3     4229     TIP3     H2       HT       0.417000       1.00800           0
     22604 TIP3     4230     TIP3     OH2      OT      -0.834000       15.9994           0
     22605 TIP3     4230     TIP3     H1       HT       0.417000       1.00800           0
     22606 TIP3     4230     TIP3     H2       HT       0.417000       1.00800           0
     22607 TIP3     4231     TIP3     OH2      OT      -0.834000       15.9994           0
     22608 TIP3     4231     TIP3     H1       HT       0.417000       1.00800           0
     22609 TIP3     4231     TIP3     H2       HT       0.417000       1.00800           0
     22610 TIP3     4232     TIP3     OH2      OT      -0.834000       15.9994           0
     22611 TIP3     4232     TIP3     H1       HT       0.417000       1.00800           0
     22612 TIP3     4232     TIP3     H2       HT       0.417000       1.00800           0
     22613 TIP3     4233     TIP3     OH2      OT      -0.834000       15.9994           0
     22614 TIP3     4233     TIP3     H1       HT       0.417000       1.00800           0
     22615 TIP3     4233     TIP3     H2       HT       0.417000       1.00800           0
     22616 TIP3     4234     TIP3     OH2      OT      -0.834000       15.9994           0
     22617 TIP3     4234     TIP3     H1       HT       0.417000       1.00800           0
     22618 TIP3     4234     TIP3     H2       HT       0.417000       1.00800           0
     22619 TIP3     4235     TIP3     OH2      OT      -0.834000       15.9994           0
     22620 TIP3     4235     TIP3     H1       HT       0.417000       1.00800           0
     22621 TIP3     4235     TIP3     H2       HT       0.417000       1.00800           0
     22622 TIP3     4236     TIP3     OH2      OT      -0.834000       15.9994           0
     22623 TIP3     4236     TIP3     H1       HT       0.417000       1.00800           0
     22624 TIP3     4236     TIP3     H2       HT       0.417000       1.00800           0
     22625 TIP3     4237     TIP3     OH2      OT      -0.834000       15.9994           0
     22626 TIP3     4237     TIP3     H1       HT       0.417000       1.00800           0
     22627 TIP3     4237     TIP3     H2       HT       0.417000       1.00800           0
     22628 TIP3     4238     TIP3     OH2      OT      -0.834000       15.9994           0
     22629 TIP3     4238     TIP3     H1       HT       0.417000       1.00800           0
     22630 TIP3     4238     TIP3     H2       HT       0.417000       1.00800           0
     22631 TIP3     4239     TIP3     OH2      OT      -0.834000       15.9994           0
     22632 TIP3     4239     TIP3     H1       HT       0.417000       1.00800           0
     22633 TIP3     4239     TIP3     H2       HT       0.417000       1.00800           0
     22634 TIP3     4240     TIP3     OH2      OT      -0.834000       15.9994           0
     22635 TIP3     4240     TIP3     H1       HT       0.417000       1.00800           0
     22636 TIP3     4240     TIP3     H2       HT       0.417000       1.00800           0
     22637 TIP3     4241     TIP3     OH2      OT      -0.834000       15.9994           0
     22638 TIP3     4241     TIP3     H1       HT       0.417000       1.00800           0
     22639 TIP3     4241     TIP3     H2       HT       0.417000       1.00800           0
     22640 TIP3     4242     TIP3     OH2      OT      -0.834000       15.9994           0
     22641 TIP3     4242     TIP3     H1       HT       0.417000       1.00800           0
     22642 TIP3     4242     TIP3     H2       HT       0.417000       1.00800           0
     22643 TIP3     4243     TIP3     OH2      OT      -0.834000       15.9994           0
     22644 TIP3     4243     TIP3     H1       HT       0.417000       1.00800           0
     22645 TIP3     4243     TIP3     H2       HT       0.417000       1.00800           0
     22646 TIP3     4244     TIP3     OH2      OT      -0.834000       15.9994           0
     22647 TIP3     4244     TIP3     H1       HT       0.417000       1.00800           0
     22648 TIP3     4244     TIP3     H2       HT       0.417000       1.00800           0
     22649 TIP3     4245     TIP3     OH2      OT      -0.834000       15.9994           0
     22650 TIP3     4245     TIP3     H1       HT       0.417000       1.00800           0
     22651 TIP3     4245     TIP3     H2       HT       0.417000       1.00800           0
     22652 TIP3     4246     TIP3     OH2      OT      -0.834000       15.9994           0
     22653 TIP3     4246     TIP3     H1       HT       0.417000       1.00800           0
     22654 TIP3     4246     TIP3     H2       HT       0.417000       1.00800           0
     22655 TIP3     4247     TIP3     OH2      OT      -0.834000       15.9994           0
     22656 TIP3     4247     TIP3     H1       HT       0.417000       1.00800           0
     22657 TIP3     4247     TIP3     H2       HT       0.417000       1.00800           0
     22658 TIP3     4248     TIP3     OH2      OT      -0.834000       15.9994           0
     22659 TIP3     4248     TIP3     H1       HT       0.417000       1.00800           0
     22660 TIP3     4248     TIP3     H2       HT       0.417000       1.00800           0
     22661 TIP3     4249     TIP3     OH2      OT      -0.834000       15.9994           0
     22662 TIP3     4249     TIP3     H1       HT       0.417000       1.00800           0
     22663 TIP3     4249     TIP3     H2       HT       0.417000       1.00800           0
     22664 TIP3     4250     TIP3     OH2      OT      -0.834000       15.9994           0
     22665 TIP3     4250     TIP3     H1       HT       0.417000       1.00800           0
     22666 TIP3     4250     TIP3     H2       HT       0.417000       1.00800           0
     22667 TIP3     4251     TIP3     OH2      OT      -0.834000       15.9994           0
     22668 TIP3     4251     TIP3     H1       HT       0.417000       1.00800           0
     22669 TIP3     4251     TIP3     H2       HT       0.417000       1.00800           0
     22670 TIP3     4252     TIP3     OH2      OT      -0.834000       15.9994           0
     22671 TIP3     4252     TIP3     H1       HT       0.417000       1.00800           0
     22672 TIP3     4252     TIP3     H2       HT       0.417000       1.00800           0
     22673 TIP3     4253     TIP3     OH2      OT      -0.834000       15.9994           0
     22674 TIP3     4253     TIP3     H1       HT       0.417000       1.00800           0
     22675 TIP3     4253     TIP3     H2       HT       0.417000       1.00800           0
     22676 TIP3     4254     TIP3     OH2      OT      -0.834000       15.9994           0
     22677 TIP3     4254     TIP3     H1       HT       0.417000       1.00800           0
     22678 TIP3     4254     TIP3     H2       HT       0.417000       1.00800           0
     22679 TIP3     4255     TIP3     OH2      OT      -0.834000       15.9994           0
     22680 TIP3     4255     TIP3     H1       HT       0.417000       1.00800           0
     22681 TIP3     4255     TIP3     H2       HT       0.417000       1.00800           0
     22682 TIP3     4256     TIP3     OH2      OT      -0.834000       15.9994           0
     22683 TIP3     4256     TIP3     H1       HT       0.417000       1.00800           0
     22684 TIP3     4256     TIP3     H2       HT       0.417000       1.00800           0
     22685 TIP3     4257     TIP3     OH2      OT      -0.834000       15.9994           0
     22686 TIP3     4257     TIP3     H1       HT       0.417000       1.00800           0
     22687 TIP3     4257     TIP3     H2       HT       0.417000       1.00800           0
     22688 TIP3     4258     TIP3     OH2      OT      -0.834000       15.9994           0
     22689 TIP3     4258     TIP3     H1       HT       0.417000       1.00800           0
     22690 TIP3     4258     TIP3     H2       HT       0.417000       1.00800           0
     22691 TIP3     4259     TIP3     OH2      OT      -0.834000       15.9994           0
     22692 TIP3     4259     TIP3     H1       HT       0.417000       1.00800           0
     22693 TIP3     4259     TIP3     H2       HT       0.417000       1.00800           0
     22694 TIP3     4260     TIP3     OH2      OT      -0.834000       15.9994           0
     22695 TIP3     4260     TIP3     H1       HT       0.417000       1.00800           0
     22696 TIP3     4260     TIP3     H2       HT       0.417000       1.00800           0
     22697 TIP3     4261     TIP3     OH2      OT      -0.834000       15.9994           0
     22698 TIP3     4261     TIP3     H1       HT       0.417000       1.00800           0
     22699 TIP3     4261     TIP3     H2       HT       0.417000       1.00800           0
     22700 TIP3     4262     TIP3     OH2      OT      -0.834000       15.9994           0
     22701 TIP3     4262     TIP3     H1       HT       0.417000       1.00800           0
     22702 TIP3     4262     TIP3     H2       HT       0.417000       1.00800           0
     22703 TIP3     4263     TIP3     OH2      OT      -0.834000       15.9994           0
     22704 TIP3     4263     TIP3     H1       HT       0.417000       1.00800           0
     22705 TIP3     4263     TIP3     H2       HT       0.417000       1.00800           0
     22706 TIP3     4264     TIP3     OH2      OT      -0.834000       15.9994           0
     22707 TIP3     4264     TIP3     H1       HT       0.417000       1.00800           0
     22708 TIP3     4264     TIP3     H2       HT       0.417000       1.00800           0
     22709 TIP3     4265     TIP3     OH2      OT      -0.834000       15.9994           0
     22710 TIP3     4265     TIP3     H1       HT       0.417000       1.00800           0
     22711 TIP3     4265     TIP3     H2       HT       0.417000       1.00800           0
     22712 TIP3     4266     TIP3     OH2      OT      -0.834000       15.9994           0
     22713 TIP3     4266     TIP3     H1       HT       0.417000       1.00800           0
     22714 TIP3     4266     TIP3     H2       HT       0.417000       1.00800           0
     22715 TIP3     4267     TIP3     OH2      OT      -0.834000       15.9994           0
     22716 TIP3     4267     TIP3     H1       HT       0.417000       1.00800           0
     22717 TIP3     4267     TIP3     H2       HT       0.417000       1.00800           0
     22718 TIP3     4268     TIP3     OH2      OT      -0.834000       15.9994           0
     22719 TIP3     4268     TIP3     H1       HT       0.417000       1.00800           0
     22720 TIP3     4268     TIP3     H2       HT       0.417000       1.00800           0
     22721 TIP3     4269     TIP3     OH2      OT      -0.834000       15.9994           0
     22722 TIP3     4269     TIP3     H1       HT       0.417000       1.00800           0
     22723 TIP3     4269     TIP3     H2       HT       0.417000       1.00800           0
     22724 TIP3     4270     TIP3     OH2      OT      -0.834000       15.9994           0
     22725 TIP3     4270     TIP3     H1       HT       0.417000       1.00800           0
     22726 TIP3     4270     TIP3     H2       HT       0.417000       1.00800           0
     22727 TIP3     4271     TIP3     OH2      OT      -0.834000       15.9994           0
     22728 TIP3     4271     TIP3     H1       HT       0.417000       1.00800           0
     22729 TIP3     4271     TIP3     H2       HT       0.417000       1.00800           0
     22730 TIP3     4272     TIP3     OH2      OT      -0.834000       15.9994           0
     22731 TIP3     4272     TIP3     H1       HT       0.417000       1.00800           0
     22732 TIP3     4272     TIP3     H2       HT       0.417000       1.00800           0
     22733 TIP3     4273     TIP3     OH2      OT      -0.834000       15.9994           0
     22734 TIP3     4273     TIP3     H1       HT       0.417000       1.00800           0
     22735 TIP3     4273     TIP3     H2       HT       0.417000       1.00800           0
     22736 TIP3     4274     TIP3     OH2      OT      -0.834000       15.9994           0
     22737 TIP3     4274     TIP3     H1       HT       0.417000       1.00800           0
     22738 TIP3     4274     TIP3     H2       HT       0.417000       1.00800           0
     22739 TIP3     4275     TIP3     OH2      OT      -0.834000       15.9994           0
     22740 TIP3     4275     TIP3     H1       HT       0.417000       1.00800           0
     22741 TIP3     4275     TIP3     H2       HT       0.417000       1.00800           0
     22742 TIP3     4276     TIP3     OH2      OT      -0.834000       15.9994           0
     22743 TIP3     4276     TIP3     H1       HT       0.417000       1.00800           0
     22744 TIP3     4276     TIP3     H2       HT       0.417000       1.00800           0
     22745 TIP3     4277     TIP3     OH2      OT      -0.834000       15.9994           0
     22746 TIP3     4277     TIP3     H1       HT       0.417000       1.00800           0
     22747 TIP3     4277     TIP3     H2       HT       0.417000       1.00800           0
     22748 TIP3     4278     TIP3     OH2      OT      -0.834000       15.9994           0
     22749 TIP3     4278     TIP3     H1       HT       0.417000       1.00800           0
     22750 TIP3     4278     TIP3     H2       HT       0.417000       1.00800           0
     22751 TIP3     4279     TIP3     OH2      OT      -0.834000       15.9994           0
     22752 TIP3     4279     TIP3     H1       HT       0.417000       1.00800           0
     22753 TIP3     4279     TIP3     H2       HT       0.417000       1.00800           0
     22754 TIP3     4280     TIP3     OH2      OT      -0.834000       15.9994           0
     22755 TIP3     4280     TIP3     H1       HT       0.417000       1.00800           0
     22756 TIP3     4280     TIP3     H2       HT       0.417000       1.00800           0
     22757 TIP3     4281     TIP3     OH2      OT      -0.834000       15.9994           0
     22758 TIP3     4281     TIP3     H1       HT       0.417000       1.00800           0
     22759 TIP3     4281     TIP3     H2       HT       0.417000       1.00800           0
     22760 TIP3     4282     TIP3     OH2      OT      -0.834000       15.9994           0
     22761 TIP3     4282     TIP3     H1       HT       0.417000       1.00800           0
     22762 TIP3     4282     TIP3     H2       HT       0.417000       1.00800           0
     22763 TIP3     4283     TIP3     OH2      OT      -0.834000       15.9994           0
     22764 TIP3     4283     TIP3     H1       HT       0.417000       1.00800           0
     22765 TIP3     4283     TIP3     H2       HT       0.417000       1.00800           0
     22766 TIP3     4284     TIP3     OH2      OT      -0.834000       15.9994           0
     22767 TIP3     4284     TIP3     H1       HT       0.417000       1.00800           0
     22768 TIP3     4284     TIP3     H2       HT       0.417000       1.00800           0
     22769 TIP3     4285     TIP3     OH2      OT      -0.834000       15.9994           0
     22770 TIP3     4285     TIP3     H1       HT       0.417000       1.00800           0
     22771 TIP3     4285     TIP3     H2       HT       0.417000       1.00800           0
     22772 TIP3     4286     TIP3     OH2      OT      -0.834000       15.9994           0
     22773 TIP3     4286     TIP3     H1       HT       0.417000       1.00800           0
     22774 TIP3     4286     TIP3     H2       HT       0.417000       1.00800           0
     22775 TIP3     4287     TIP3     OH2      OT      -0.834000       15.9994           0
     22776 TIP3     4287     TIP3     H1       HT       0.417000       1.00800           0
     22777 TIP3     4287     TIP3     H2       HT       0.417000       1.00800           0
     22778 TIP3     4288     TIP3     OH2      OT      -0.834000       15.9994           0
     22779 TIP3     4288     TIP3     H1       HT       0.417000       1.00800           0
     22780 TIP3     4288     TIP3     H2       HT       0.417000       1.00800           0
     22781 TIP3     4289     TIP3     OH2      OT      -0.834000       15.9994           0
     22782 TIP3     4289     TIP3     H1       HT       0.417000       1.00800           0
     22783 TIP3     4289     TIP3     H2       HT       0.417000       1.00800           0
     22784 TIP3     4290     TIP3     OH2      OT      -0.834000       15.9994           0
     22785 TIP3     4290     TIP3     H1       HT       0.417000       1.00800           0
     22786 TIP3     4290     TIP3     H2       HT       0.417000       1.00800           0
     22787 TIP3     4291     TIP3     OH2      OT      -0.834000       15.9994           0
     22788 TIP3     4291     TIP3     H1       HT       0.417000       1.00800           0
     22789 TIP3     4291     TIP3     H2       HT       0.417000       1.00800           0
     22790 TIP3     4292     TIP3     OH2      OT      -0.834000       15.9994           0
     22791 TIP3     4292     TIP3     H1       HT       0.417000       1.00800           0
     22792 TIP3     4292     TIP3     H2       HT       0.417000       1.00800           0
     22793 TIP3     4293     TIP3     OH2      OT      -0.834000       15.9994           0
     22794 TIP3     4293     TIP3     H1       HT       0.417000       1.00800           0
     22795 TIP3     4293     TIP3     H2       HT       0.417000       1.00800           0
     22796 TIP3     4294     TIP3     OH2      OT      -0.834000       15.9994           0
     22797 TIP3     4294     TIP3     H1       HT       0.417000       1.00800           0
     22798 TIP3     4294     TIP3     H2       HT       0.417000       1.00800           0
     22799 TIP3     4295     TIP3     OH2      OT      -0.834000       15.9994           0
     22800 TIP3     4295     TIP3     H1       HT       0.417000       1.00800           0
     22801 TIP3     4295     TIP3     H2       HT       0.417000       1.00800           0
     22802 TIP3     4296     TIP3     OH2      OT      -0.834000       15.9994           0
     22803 TIP3     4296     TIP3     H1       HT       0.417000       1.00800           0
     22804 TIP3     4296     TIP3     H2       HT       0.417000       1.00800           0
     22805 TIP3     4297     TIP3     OH2      OT      -0.834000       15.9994           0
     22806 TIP3     4297     TIP3     H1       HT       0.417000       1.00800           0
     22807 TIP3     4297     TIP3     H2       HT       0.417000       1.00800           0
     22808 TIP3     4298     TIP3     OH2      OT      -0.834000       15.9994           0
     22809 TIP3     4298     TIP3     H1       HT       0.417000       1.00800           0
     22810 TIP3     4298     TIP3     H2       HT       0.417000       1.00800           0
     22811 TIP3     4299     TIP3     OH2      OT      -0.834000       15.9994           0
     22812 TIP3     4299     TIP3     H1       HT       0.417000       1.00800           0
     22813 TIP3     4299     TIP3     H2       HT       0.417000       1.00800           0
     22814 TIP3     4300     TIP3     OH2      OT      -0.834000       15.9994           0
     22815 TIP3     4300     TIP3     H1       HT       0.417000       1.00800           0
     22816 TIP3     4300     TIP3     H2       HT       0.417000       1.00800           0
     22817 TIP3     4301     TIP3     OH2      OT      -0.834000       15.9994           0
     22818 TIP3     4301     TIP3     H1       HT       0.417000       1.00800           0
     22819 TIP3     4301     TIP3     H2       HT       0.417000       1.00800           0
     22820 TIP3     4302     TIP3     OH2      OT      -0.834000       15.9994           0
     22821 TIP3     4302     TIP3     H1       HT       0.417000       1.00800           0
     22822 TIP3     4302     TIP3     H2       HT       0.417000       1.00800           0
     22823 TIP3     4303     TIP3     OH2      OT      -0.834000       15.9994           0
     22824 TIP3     4303     TIP3     H1       HT       0.417000       1.00800           0
     22825 TIP3     4303     TIP3     H2       HT       0.417000       1.00800           0
     22826 TIP3     4304     TIP3     OH2      OT      -0.834000       15.9994           0
     22827 TIP3     4304     TIP3     H1       HT       0.417000       1.00800           0
     22828 TIP3     4304     TIP3     H2       HT       0.417000       1.00800           0
     22829 TIP3     4305     TIP3     OH2      OT      -0.834000       15.9994           0
     22830 TIP3     4305     TIP3     H1       HT       0.417000       1.00800           0
     22831 TIP3     4305     TIP3     H2       HT       0.417000       1.00800           0
     22832 TIP3     4306     TIP3     OH2      OT      -0.834000       15.9994           0
     22833 TIP3     4306     TIP3     H1       HT       0.417000       1.00800           0
     22834 TIP3     4306     TIP3     H2       HT       0.417000       1.00800           0
     22835 TIP3     4307     TIP3     OH2      OT      -0.834000       15.9994           0
     22836 TIP3     4307     TIP3     H1       HT       0.417000       1.00800           0
     22837 TIP3     4307     TIP3     H2       HT       0.417000       1.00800           0
     22838 TIP3     4308     TIP3     OH2      OT      -0.834000       15.9994           0
     22839 TIP3     4308     TIP3     H1       HT       0.417000       1.00800           0
     22840 TIP3     4308     TIP3     H2       HT       0.417000       1.00800           0
     22841 TIP3     4309     TIP3     OH2      OT      -0.834000       15.9994           0
     22842 TIP3     4309     TIP3     H1       HT       0.417000       1.00800           0
     22843 TIP3     4309     TIP3     H2       HT       0.417000       1.00800           0
     22844 TIP3     4310     TIP3     OH2      OT      -0.834000       15.9994           0
     22845 TIP3     4310     TIP3     H1       HT       0.417000       1.00800           0
     22846 TIP3     4310     TIP3     H2       HT       0.417000       1.00800           0
     22847 TIP3     4311     TIP3     OH2      OT      -0.834000       15.9994           0
     22848 TIP3     4311     TIP3     H1       HT       0.417000       1.00800           0
     22849 TIP3     4311     TIP3     H2       HT       0.417000       1.00800           0
     22850 TIP3     4312     TIP3     OH2      OT      -0.834000       15.9994           0
     22851 TIP3     4312     TIP3     H1       HT       0.417000       1.00800           0
     22852 TIP3     4312     TIP3     H2       HT       0.417000       1.00800           0
     22853 TIP3     4313     TIP3     OH2      OT      -0.834000       15.9994           0
     22854 TIP3     4313     TIP3     H1       HT       0.417000       1.00800           0
     22855 TIP3     4313     TIP3     H2       HT       0.417000       1.00800           0
     22856 TIP3     4314     TIP3     OH2      OT      -0.834000       15.9994           0
     22857 TIP3     4314     TIP3     H1       HT       0.417000       1.00800           0
     22858 TIP3     4314     TIP3     H2       HT       0.417000       1.00800           0
     22859 TIP3     4315     TIP3     OH2      OT      -0.834000       15.9994           0
     22860 TIP3     4315     TIP3     H1       HT       0.417000       1.00800           0
     22861 TIP3     4315     TIP3     H2       HT       0.417000       1.00800           0
     22862 TIP3     4316     TIP3     OH2      OT      -0.834000       15.9994           0
     22863 TIP3     4316     TIP3     H1       HT       0.417000       1.00800           0
     22864 TIP3     4316     TIP3     H2       HT       0.417000       1.00800           0
     22865 TIP3     4317     TIP3     OH2      OT      -0.834000       15.9994           0
     22866 TIP3     4317     TIP3     H1       HT       0.417000       1.00800           0
     22867 TIP3     4317     TIP3     H2       HT       0.417000       1.00800           0
     22868 TIP3     4318     TIP3     OH2      OT      -0.834000       15.9994           0
     22869 TIP3     4318     TIP3     H1       HT       0.417000       1.00800           0
     22870 TIP3     4318     TIP3     H2       HT       0.417000       1.00800           0
     22871 TIP3     4319     TIP3     OH2      OT      -0.834000       15.9994           0
     22872 TIP3     4319     TIP3     H1       HT       0.417000       1.00800           0
     22873 TIP3     4319     TIP3     H2       HT       0.417000       1.00800           0
     22874 TIP3     4320     TIP3     OH2      OT      -0.834000       15.9994           0
     22875 TIP3     4320     TIP3     H1       HT       0.417000       1.00800           0
     22876 TIP3     4320     TIP3     H2       HT       0.417000       1.00800           0
     22877 TIP3     4321     TIP3     OH2      OT      -0.834000       15.9994           0
     22878 TIP3     4321     TIP3     H1       HT       0.417000       1.00800           0
     22879 TIP3     4321     TIP3     H2       HT       0.417000       1.00800           0
     22880 TIP3     4322     TIP3     OH2      OT      -0.834000       15.9994           0
     22881 TIP3     4322     TIP3     H1       HT       0.417000       1.00800           0
     22882 TIP3     4322     TIP3     H2       HT       0.417000       1.00800           0
     22883 TIP3     4323     TIP3     OH2      OT      -0.834000       15.9994           0
     22884 TIP3     4323     TIP3     H1       HT       0.417000       1.00800           0
     22885 TIP3     4323     TIP3     H2       HT       0.417000       1.00800           0
     22886 TIP3     4324     TIP3     OH2      OT      -0.834000       15.9994           0
     22887 TIP3     4324     TIP3     H1       HT       0.417000       1.00800           0
     22888 TIP3     4324     TIP3     H2       HT       0.417000       1.00800           0
     22889 TIP3     4325     TIP3     OH2      OT      -0.834000       15.9994           0
     22890 TIP3     4325     TIP3     H1       HT       0.417000       1.00800           0
     22891 TIP3     4325     TIP3     H2       HT       0.417000       1.00800           0
     22892 TIP3     4326     TIP3     OH2      OT      -0.834000       15.9994           0
     22893 TIP3     4326     TIP3     H1       HT       0.417000       1.00800           0
     22894 TIP3     4326     TIP3     H2       HT       0.417000       1.00800           0
     22895 TIP3     4327     TIP3     OH2      OT      -0.834000       15.9994           0
     22896 TIP3     4327     TIP3     H1       HT       0.417000       1.00800           0
     22897 TIP3     4327     TIP3     H2       HT       0.417000       1.00800           0
     22898 TIP3     4328     TIP3     OH2      OT      -0.834000       15.9994           0
     22899 TIP3     4328     TIP3     H1       HT       0.417000       1.00800           0
     22900 TIP3     4328     TIP3     H2       HT       0.417000       1.00800           0
     22901 TIP3     4329     TIP3     OH2      OT      -0.834000       15.9994           0
     22902 TIP3     4329     TIP3     H1       HT       0.417000       1.00800           0
     22903 TIP3     4329     TIP3     H2       HT       0.417000       1.00800           0
     22904 TIP3     4330     TIP3     OH2      OT      -0.834000       15.9994           0
     22905 TIP3     4330     TIP3     H1       HT       0.417000       1.00800           0
     22906 TIP3     4330     TIP3     H2       HT       0.417000       1.00800           0
     22907 TIP3     4331     TIP3     OH2      OT      -0.834000       15.9994           0
     22908 TIP3     4331     TIP3     H1       HT       0.417000       1.00800           0
     22909 TIP3     4331     TIP3     H2       HT       0.417000       1.00800           0
     22910 TIP3     4332     TIP3     OH2      OT      -0.834000       15.9994           0
     22911 TIP3     4332     TIP3     H1       HT       0.417000       1.00800           0
     22912 TIP3     4332     TIP3     H2       HT       0.417000       1.00800           0
     22913 TIP3     4333     TIP3     OH2      OT      -0.834000       15.9994           0
     22914 TIP3     4333     TIP3     H1       HT       0.417000       1.00800           0
     22915 TIP3     4333     TIP3     H2       HT       0.417000       1.00800           0
     22916 TIP3     4334     TIP3     OH2      OT      -0.834000       15.9994           0
     22917 TIP3     4334     TIP3     H1       HT       0.417000       1.00800           0
     22918 TIP3     4334     TIP3     H2       HT       0.417000       1.00800           0
     22919 TIP3     4335     TIP3     OH2      OT      -0.834000       15.9994           0
     22920 TIP3     4335     TIP3     H1       HT       0.417000       1.00800           0
     22921 TIP3     4335     TIP3     H2       HT       0.417000       1.00800           0
     22922 TIP3     4336     TIP3     OH2      OT      -0.834000       15.9994           0
     22923 TIP3     4336     TIP3     H1       HT       0.417000       1.00800           0
     22924 TIP3     4336     TIP3     H2       HT       0.417000       1.00800           0
     22925 TIP3     4337     TIP3     OH2      OT      -0.834000       15.9994           0
     22926 TIP3     4337     TIP3     H1       HT       0.417000       1.00800           0
     22927 TIP3     4337     TIP3     H2       HT       0.417000       1.00800           0
     22928 TIP3     4338     TIP3     OH2      OT      -0.834000       15.9994           0
     22929 TIP3     4338     TIP3     H1       HT       0.417000       1.00800           0
     22930 TIP3     4338     TIP3     H2       HT       0.417000       1.00800           0
     22931 TIP3     4339     TIP3     OH2      OT      -0.834000       15.9994           0
     22932 TIP3     4339     TIP3     H1       HT       0.417000       1.00800           0
     22933 TIP3     4339     TIP3     H2       HT       0.417000       1.00800           0
     22934 TIP3     4340     TIP3     OH2      OT      -0.834000       15.9994           0
     22935 TIP3     4340     TIP3     H1       HT       0.417000       1.00800           0
     22936 TIP3     4340     TIP3     H2       HT       0.417000       1.00800           0
     22937 TIP3     4341     TIP3     OH2      OT      -0.834000       15.9994           0
     22938 TIP3     4341     TIP3     H1       HT       0.417000       1.00800           0
     22939 TIP3     4341     TIP3     H2       HT       0.417000       1.00800           0
     22940 TIP3     4342     TIP3     OH2      OT      -0.834000       15.9994           0
     22941 TIP3     4342     TIP3     H1       HT       0.417000       1.00800           0
     22942 TIP3     4342     TIP3     H2       HT       0.417000       1.00800           0
     22943 TIP3     4343     TIP3     OH2      OT      -0.834000       15.9994           0
     22944 TIP3     4343     TIP3     H1       HT       0.417000       1.00800           0
     22945 TIP3     4343     TIP3     H2       HT       0.417000       1.00800           0
     22946 TIP3     4344     TIP3     OH2      OT      -0.834000       15.9994           0
     22947 TIP3     4344     TIP3     H1       HT       0.417000       1.00800           0
     22948 TIP3     4344     TIP3     H2       HT       0.417000       1.00800           0
     22949 TIP3     4345     TIP3     OH2      OT      -0.834000       15.9994           0
     22950 TIP3     4345     TIP3     H1       HT       0.417000       1.00800           0
     22951 TIP3     4345     TIP3     H2       HT       0.417000       1.00800           0
     22952 TIP3     4346     TIP3     OH2      OT      -0.834000       15.9994           0
     22953 TIP3     4346     TIP3     H1       HT       0.417000       1.00800           0
     22954 TIP3     4346     TIP3     H2       HT       0.417000       1.00800           0
     22955 TIP3     4347     TIP3     OH2      OT      -0.834000       15.9994           0
     22956 TIP3     4347     TIP3     H1       HT       0.417000       1.00800           0
     22957 TIP3     4347     TIP3     H2       HT       0.417000       1.00800           0
     22958 TIP3     4348     TIP3     OH2      OT      -0.834000       15.9994           0
     22959 TIP3     4348     TIP3     H1       HT       0.417000       1.00800           0
     22960 TIP3     4348     TIP3     H2       HT       0.417000       1.00800           0
     22961 TIP3     4349     TIP3     OH2      OT      -0.834000       15.9994           0
     22962 TIP3     4349     TIP3     H1       HT       0.417000       1.00800           0
     22963 TIP3     4349     TIP3     H2       HT       0.417000       1.00800           0
     22964 TIP3     4350     TIP3     OH2      OT      -0.834000       15.9994           0
     22965 TIP3     4350     TIP3     H1       HT       0.417000       1.00800           0
     22966 TIP3     4350     TIP3     H2       HT       0.417000       1.00800           0
     22967 TIP3     4351     TIP3     OH2      OT      -0.834000       15.9994           0
     22968 TIP3     4351     TIP3     H1       HT       0.417000       1.00800           0
     22969 TIP3     4351     TIP3     H2       HT       0.417000       1.00800           0
     22970 TIP3     4352     TIP3     OH2      OT      -0.834000       15.9994           0
     22971 TIP3     4352     TIP3     H1       HT       0.417000       1.00800           0
     22972 TIP3     4352     TIP3     H2       HT       0.417000       1.00800           0
     22973 TIP3     4353     TIP3     OH2      OT      -0.834000       15.9994           0
     22974 TIP3     4353     TIP3     H1       HT       0.417000       1.00800           0
     22975 TIP3     4353     TIP3     H2       HT       0.417000       1.00800           0
     22976 TIP3     4354     TIP3     OH2      OT      -0.834000       15.9994           0
     22977 TIP3     4354     TIP3     H1       HT       0.417000       1.00800           0
     22978 TIP3     4354     TIP3     H2       HT       0.417000       1.00800           0
     22979 TIP3     4355     TIP3     OH2      OT      -0.834000       15.9994           0
     22980 TIP3     4355     TIP3     H1       HT       0.417000       1.00800           0
     22981 TIP3     4355     TIP3     H2       HT       0.417000       1.00800           0
     22982 TIP3     4356     TIP3     OH2      OT      -0.834000       15.9994           0
     22983 TIP3     4356     TIP3     H1       HT       0.417000       1.00800           0
     22984 TIP3     4356     TIP3     H2       HT       0.417000       1.00800           0
     22985 TIP3     4357     TIP3     OH2      OT      -0.834000       15.9994           0
     22986 TIP3     4357     TIP3     H1       HT       0.417000       1.00800           0
     22987 TIP3     4357     TIP3     H2       HT       0.417000       1.00800           0
     22988 TIP3     4358     TIP3     OH2      OT      -0.834000       15.9994           0
     22989 TIP3     4358     TIP3     H1       HT       0.417000       1.00800           0
     22990 TIP3     4358     TIP3     H2       HT       0.417000       1.00800           0
     22991 TIP3     4359     TIP3     OH2      OT      -0.834000       15.9994           0
     22992 TIP3     4359     TIP3     H1       HT       0.417000       1.00800           0
     22993 TIP3     4359     TIP3     H2       HT       0.417000       1.00800           0
     22994 TIP3     4360     TIP3     OH2      OT      -0.834000       15.9994           0
     22995 TIP3     4360     TIP3     H1       HT       0.417000       1.00800           0
     22996 TIP3     4360     TIP3     H2       HT       0.417000       1.00800           0
     22997 TIP3     4361     TIP3     OH2      OT      -0.834000       15.9994           0
     22998 TIP3     4361     TIP3     H1       HT       0.417000       1.00800           0
     22999 TIP3     4361     TIP3     H2       HT       0.417000       1.00800           0
     23000 TIP3     4362     TIP3     OH2      OT      -0.834000       15.9994           0
     23001 TIP3     4362     TIP3     H1       HT       0.417000       1.00800           0
     23002 TIP3     4362     TIP3     H2       HT       0.417000       1.00800           0
     23003 TIP3     4363     TIP3     OH2      OT      -0.834000       15.9994           0
     23004 TIP3     4363     TIP3     H1       HT       0.417000       1.00800           0
     23005 TIP3     4363     TIP3     H2       HT       0.417000       1.00800           0
     23006 TIP3     4364     TIP3     OH2      OT      -0.834000       15.9994           0
     23007 TIP3     4364     TIP3     H1       HT       0.417000       1.00800           0
     23008 TIP3     4364     TIP3     H2       HT       0.417000       1.00800           0
     23009 TIP3     4365     TIP3     OH2      OT      -0.834000       15.9994           0
     23010 TIP3     4365     TIP3     H1       HT       0.417000       1.00800           0
     23011 TIP3     4365     TIP3     H2       HT       0.417000       1.00800           0
     23012 TIP3     4366     TIP3     OH2      OT      -0.834000       15.9994           0
     23013 TIP3     4366     TIP3     H1       HT       0.417000       1.00800           0
     23014 TIP3     4366     TIP3     H2       HT       0.417000       1.00800           0
     23015 TIP3     4367     TIP3     OH2      OT      -0.834000       15.9994           0
     23016 TIP3     4367     TIP3     H1       HT       0.417000       1.00800           0
     23017 TIP3     4367     TIP3     H2       HT       0.417000       1.00800           0
     23018 TIP3     4368     TIP3     OH2      OT      -0.834000       15.9994           0
     23019 TIP3     4368     TIP3     H1       HT       0.417000       1.00800           0
     23020 TIP3     4368     TIP3     H2       HT       0.417000       1.00800           0
     23021 TIP3     4369     TIP3     OH2      OT      -0.834000       15.9994           0
     23022 TIP3     4369     TIP3     H1       HT       0.417000       1.00800           0
     23023 TIP3     4369     TIP3     H2       HT       0.417000       1.00800           0
     23024 TIP3     4370     TIP3     OH2      OT      -0.834000       15.9994           0
     23025 TIP3     4370     TIP3     H1       HT       0.417000       1.00800           0
     23026 TIP3     4370     TIP3     H2       HT       0.417000       1.00800           0
     23027 TIP3     4371     TIP3     OH2      OT      -0.834000       15.9994           0
     23028 TIP3     4371     TIP3     H1       HT       0.417000       1.00800           0
     23029 TIP3     4371     TIP3     H2       HT       0.417000       1.00800           0
     23030 TIP3     4372     TIP3     OH2      OT      -0.834000       15.9994           0
     23031 TIP3     4372     TIP3     H1       HT       0.417000       1.00800           0
     23032 TIP3     4372     TIP3     H2       HT       0.417000       1.00800           0
     23033 TIP3     4373     TIP3     OH2      OT      -0.834000       15.9994           0
     23034 TIP3     4373     TIP3     H1       HT       0.417000       1.00800           0
     23035 TIP3     4373     TIP3     H2       HT       0.417000       1.00800           0
     23036 TIP3     4374     TIP3     OH2      OT      -0.834000       15.9994           0
     23037 TIP3     4374     TIP3     H1       HT       0.417000       1.00800           0
     23038 TIP3     4374     TIP3     H2       HT       0.417000       1.00800           0
     23039 TIP3     4375     TIP3     OH2      OT      -0.834000       15.9994           0
     23040 TIP3     4375     TIP3     H1       HT       0.417000       1.00800           0
     23041 TIP3     4375     TIP3     H2       HT       0.417000       1.00800           0
     23042 TIP3     4376     TIP3     OH2      OT      -0.834000       15.9994           0
     23043 TIP3     4376     TIP3     H1       HT       0.417000       1.00800           0
     23044 TIP3     4376     TIP3     H2       HT       0.417000       1.00800           0
     23045 TIP3     4377     TIP3     OH2      OT      -0.834000       15.9994           0
     23046 TIP3     4377     TIP3     H1       HT       0.417000       1.00800           0
     23047 TIP3     4377     TIP3     H2       HT       0.417000       1.00800           0
     23048 TIP3     4378     TIP3     OH2      OT      -0.834000       15.9994           0
     23049 TIP3     4378     TIP3     H1       HT       0.417000       1.00800           0
     23050 TIP3     4378     TIP3     H2       HT       0.417000       1.00800           0
     23051 TIP3     4379     TIP3     OH2      OT      -0.834000       15.9994           0
     23052 TIP3     4379     TIP3     H1       HT       0.417000       1.00800           0
     23053 TIP3     4379     TIP3     H2       HT       0.417000       1.00800           0
     23054 TIP3     4380     TIP3     OH2      OT      -0.834000       15.9994           0
     23055 TIP3     4380     TIP3     H1       HT       0.417000       1.00800           0
     23056 TIP3     4380     TIP3     H2       HT       0.417000       1.00800           0
     23057 TIP3     4381     TIP3     OH2      OT      -0.834000       15.9994           0
     23058 TIP3     4381     TIP3     H1       HT       0.417000       1.00800           0
     23059 TIP3     4381     TIP3     H2       HT       0.417000       1.00800           0
     23060 TIP3     4382     TIP3     OH2      OT      -0.834000       15.9994           0
     23061 TIP3     4382     TIP3     H1       HT       0.417000       1.00800           0
     23062 TIP3     4382     TIP3     H2       HT       0.417000       1.00800           0
     23063 TIP3     4383     TIP3     OH2      OT      -0.834000       15.9994           0
     23064 TIP3     4383     TIP3     H1       HT       0.417000       1.00800           0
     23065 TIP3     4383     TIP3     H2       HT       0.417000       1.00800           0
     23066 TIP3     4384     TIP3     OH2      OT      -0.834000       15.9994           0
     23067 TIP3     4384     TIP3     H1       HT       0.417000       1.00800           0
     23068 TIP3     4384     TIP3     H2       HT       0.417000       1.00800           0
     23069 TIP3     4385     TIP3     OH2      OT      -0.834000       15.9994           0
     23070 TIP3     4385     TIP3     H1       HT       0.417000       1.00800           0
     23071 TIP3     4385     TIP3     H2       HT       0.417000       1.00800           0
     23072 TIP3     4386     TIP3     OH2      OT      -0.834000       15.9994           0
     23073 TIP3     4386     TIP3     H1       HT       0.417000       1.00800           0
     23074 TIP3     4386     TIP3     H2       HT       0.417000       1.00800           0
     23075 TIP3     4387     TIP3     OH2      OT      -0.834000       15.9994           0
     23076 TIP3     4387     TIP3     H1       HT       0.417000       1.00800           0
     23077 TIP3     4387     TIP3     H2       HT       0.417000       1.00800           0
     23078 TIP3     4388     TIP3     OH2      OT      -0.834000       15.9994           0
     23079 TIP3     4388     TIP3     H1       HT       0.417000       1.00800           0
     23080 TIP3     4388     TIP3     H2       HT       0.417000       1.00800           0
     23081 TIP3     4389     TIP3     OH2      OT      -0.834000       15.9994           0
     23082 TIP3     4389     TIP3     H1       HT       0.417000       1.00800           0
     23083 TIP3     4389     TIP3     H2       HT       0.417000       1.00800           0
     23084 TIP3     4390     TIP3     OH2      OT      -0.834000       15.9994           0
     23085 TIP3     4390     TIP3     H1       HT       0.417000       1.00800           0
     23086 TIP3     4390     TIP3     H2       HT       0.417000       1.00800           0
     23087 TIP3     4391     TIP3     OH2      OT      -0.834000       15.9994           0
     23088 TIP3     4391     TIP3     H1       HT       0.417000       1.00800           0
     23089 TIP3     4391     TIP3     H2       HT       0.417000       1.00800           0
     23090 TIP3     4392     TIP3     OH2      OT      -0.834000       15.9994           0
     23091 TIP3     4392     TIP3     H1       HT       0.417000       1.00800           0
     23092 TIP3     4392     TIP3     H2       HT       0.417000       1.00800           0
     23093 TIP3     4393     TIP3     OH2      OT      -0.834000       15.9994           0
     23094 TIP3     4393     TIP3     H1       HT       0.417000       1.00800           0
     23095 TIP3     4393     TIP3     H2       HT       0.417000       1.00800           0
     23096 TIP3     4394     TIP3     OH2      OT      -0.834000       15.9994           0
     23097 TIP3     4394     TIP3     H1       HT       0.417000       1.00800           0
     23098 TIP3     4394     TIP3     H2       HT       0.417000       1.00800           0
     23099 TIP3     4395     TIP3     OH2      OT      -0.834000       15.9994           0
     23100 TIP3     4395     TIP3     H1       HT       0.417000       1.00800           0
     23101 TIP3     4395     TIP3     H2       HT       0.417000       1.00800           0
     23102 TIP3     4396     TIP3     OH2      OT      -0.834000       15.9994           0
     23103 TIP3     4396     TIP3     H1       HT       0.417000       1.00800           0
     23104 TIP3     4396     TIP3     H2       HT       0.417000       1.00800           0
     23105 TIP3     4397     TIP3     OH2      OT      -0.834000       15.9994           0
     23106 TIP3     4397     TIP3     H1       HT       0.417000       1.00800           0
     23107 TIP3     4397     TIP3     H2       HT       0.417000       1.00800           0
     23108 TIP3     4398     TIP3     OH2      OT      -0.834000       15.9994           0
     23109 TIP3     4398     TIP3     H1       HT       0.417000       1.00800           0
     23110 TIP3     4398     TIP3     H2       HT       0.417000       1.00800           0
     23111 TIP3     4399     TIP3     OH2      OT      -0.834000       15.9994           0
     23112 TIP3     4399     TIP3     H1       HT       0.417000       1.00800           0
     23113 TIP3     4399     TIP3     H2       HT       0.417000       1.00800           0
     23114 TIP3     4400     TIP3     OH2      OT      -0.834000       15.9994           0
     23115 TIP3     4400     TIP3     H1       HT       0.417000       1.00800           0
     23116 TIP3     4400     TIP3     H2       HT       0.417000       1.00800           0
     23117 TIP3     4401     TIP3     OH2      OT      -0.834000       15.9994           0
     23118 TIP3     4401     TIP3     H1       HT       0.417000       1.00800           0
     23119 TIP3     4401     TIP3     H2       HT       0.417000       1.00800           0
     23120 TIP3     4402     TIP3     OH2      OT      -0.834000       15.9994           0
     23121 TIP3     4402     TIP3     H1       HT       0.417000       1.00800           0
     23122 TIP3     4402     TIP3     H2       HT       0.417000       1.00800           0
     23123 TIP3     4403     TIP3     OH2      OT      -0.834000       15.9994           0
     23124 TIP3     4403     TIP3     H1       HT       0.417000       1.00800           0
     23125 TIP3     4403     TIP3     H2       HT       0.417000       1.00800           0
     23126 TIP3     4404     TIP3     OH2      OT      -0.834000       15.9994           0
     23127 TIP3     4404     TIP3     H1       HT       0.417000       1.00800           0
     23128 TIP3     4404     TIP3     H2       HT       0.417000       1.00800           0
     23129 TIP3     4405     TIP3     OH2      OT      -0.834000       15.9994           0
     23130 TIP3     4405     TIP3     H1       HT       0.417000       1.00800           0
     23131 TIP3     4405     TIP3     H2       HT       0.417000       1.00800           0
     23132 TIP3     4406     TIP3     OH2      OT      -0.834000       15.9994           0
     23133 TIP3     4406     TIP3     H1       HT       0.417000       1.00800           0
     23134 TIP3     4406     TIP3     H2       HT       0.417000       1.00800           0
     23135 TIP3     4407     TIP3     OH2      OT      -0.834000       15.9994           0
     23136 TIP3     4407     TIP3     H1       HT       0.417000       1.00800           0
     23137 TIP3     4407     TIP3     H2       HT       0.417000       1.00800           0
     23138 TIP3     4408     TIP3     OH2      OT      -0.834000       15.9994           0
     23139 TIP3     4408     TIP3     H1       HT       0.417000       1.00800           0
     23140 TIP3     4408     TIP3     H2       HT       0.417000       1.00800           0
     23141 TIP3     4409     TIP3     OH2      OT      -0.834000       15.9994           0
     23142 TIP3     4409     TIP3     H1       HT       0.417000       1.00800           0
     23143 TIP3     4409     TIP3     H2       HT       0.417000       1.00800           0
     23144 TIP3     4410     TIP3     OH2      OT      -0.834000       15.9994           0
     23145 TIP3     4410     TIP3     H1       HT       0.417000       1.00800           0
     23146 TIP3     4410     TIP3     H2       HT       0.417000       1.00800           0
     23147 TIP3     4411     TIP3     OH2      OT      -0.834000       15.9994           0
     23148 TIP3     4411     TIP3     H1       HT       0.417000       1.00800           0
     23149 TIP3     4411     TIP3     H2       HT       0.417000       1.00800           0
     23150 TIP3     4412     TIP3     OH2      OT      -0.834000       15.9994           0
     23151 TIP3     4412     TIP3     H1       HT       0.417000       1.00800           0
     23152 TIP3     4412     TIP3     H2       HT       0.417000       1.00800           0
     23153 TIP3     4413     TIP3     OH2      OT      -0.834000       15.9994           0
     23154 TIP3     4413     TIP3     H1       HT       0.417000       1.00800           0
     23155 TIP3     4413     TIP3     H2       HT       0.417000       1.00800           0
     23156 TIP3     4414     TIP3     OH2      OT      -0.834000       15.9994           0
     23157 TIP3     4414     TIP3     H1       HT       0.417000       1.00800           0
     23158 TIP3     4414     TIP3     H2       HT       0.417000       1.00800           0
     23159 TIP3     4415     TIP3     OH2      OT      -0.834000       15.9994           0
     23160 TIP3     4415     TIP3     H1       HT       0.417000       1.00800           0
     23161 TIP3     4415     TIP3     H2       HT       0.417000       1.00800           0
     23162 TIP3     4416     TIP3     OH2      OT      -0.834000       15.9994           0
     23163 TIP3     4416     TIP3     H1       HT       0.417000       1.00800           0
     23164 TIP3     4416     TIP3     H2       HT       0.417000       1.00800           0
     23165 TIP3     4417     TIP3     OH2      OT      -0.834000       15.9994           0
     23166 TIP3     4417     TIP3     H1       HT       0.417000       1.00800           0
     23167 TIP3     4417     TIP3     H2       HT       0.417000       1.00800           0
     23168 TIP3     4418     TIP3     OH2      OT      -0.834000       15.9994           0
     23169 TIP3     4418     TIP3     H1       HT       0.417000       1.00800           0
     23170 TIP3     4418     TIP3     H2       HT       0.417000       1.00800           0
     23171 TIP3     4419     TIP3     OH2      OT      -0.834000       15.9994           0
     23172 TIP3     4419     TIP3     H1       HT       0.417000       1.00800           0
     23173 TIP3     4419     TIP3     H2       HT       0.417000       1.00800           0
     23174 TIP3     4420     TIP3     OH2      OT      -0.834000       15.9994           0
     23175 TIP3     4420     TIP3     H1       HT       0.417000       1.00800           0
     23176 TIP3     4420     TIP3     H2       HT       0.417000       1.00800           0
     23177 TIP3     4421     TIP3     OH2      OT      -0.834000       15.9994           0
     23178 TIP3     4421     TIP3     H1       HT       0.417000       1.00800           0
     23179 TIP3     4421     TIP3     H2       HT       0.417000       1.00800           0
     23180 TIP3     4422     TIP3     OH2      OT      -0.834000       15.9994           0
     23181 TIP3     4422     TIP3     H1       HT       0.417000       1.00800           0
     23182 TIP3     4422     TIP3     H2       HT       0.417000       1.00800           0
     23183 TIP3     4423     TIP3     OH2      OT      -0.834000       15.9994           0
     23184 TIP3     4423     TIP3     H1       HT       0.417000       1.00800           0
     23185 TIP3     4423     TIP3     H2       HT       0.417000       1.00800           0
     23186 TIP3     4424     TIP3     OH2      OT      -0.834000       15.9994           0
     23187 TIP3     4424     TIP3     H1       HT       0.417000       1.00800           0
     23188 TIP3     4424     TIP3     H2       HT       0.417000       1.00800           0
     23189 TIP3     4425     TIP3     OH2      OT      -0.834000       15.9994           0
     23190 TIP3     4425     TIP3     H1       HT       0.417000       1.00800           0
     23191 TIP3     4425     TIP3     H2       HT       0.417000       1.00800           0
     23192 TIP3     4426     TIP3     OH2      OT      -0.834000       15.9994           0
     23193 TIP3     4426     TIP3     H1       HT       0.417000       1.00800           0
     23194 TIP3     4426     TIP3     H2       HT       0.417000       1.00800           0
     23195 TIP3     4427     TIP3     OH2      OT      -0.834000       15.9994           0
     23196 TIP3     4427     TIP3     H1       HT       0.417000       1.00800           0
     23197 TIP3     4427     TIP3     H2       HT       0.417000       1.00800           0
     23198 TIP3     4428     TIP3     OH2      OT      -0.834000       15.9994           0
     23199 TIP3     4428     TIP3     H1       HT       0.417000       1.00800           0
     23200 TIP3     4428     TIP3     H2       HT       0.417000       1.00800           0
     23201 TIP3     4429     TIP3     OH2      OT      -0.834000       15.9994           0
     23202 TIP3     4429     TIP3     H1       HT       0.417000       1.00800           0
     23203 TIP3     4429     TIP3     H2       HT       0.417000       1.00800           0
     23204 TIP3     4430     TIP3     OH2      OT      -0.834000       15.9994           0
     23205 TIP3     4430     TIP3     H1       HT       0.417000       1.00800           0
     23206 TIP3     4430     TIP3     H2       HT       0.417000       1.00800           0
     23207 TIP3     4431     TIP3     OH2      OT      -0.834000       15.9994           0
     23208 TIP3     4431     TIP3     H1       HT       0.417000       1.00800           0
     23209 TIP3     4431     TIP3     H2       HT       0.417000       1.00800           0
     23210 TIP3     4432     TIP3     OH2      OT      -0.834000       15.9994           0
     23211 TIP3     4432     TIP3     H1       HT       0.417000       1.00800           0
     23212 TIP3     4432     TIP3     H2       HT       0.417000       1.00800           0
     23213 TIP3     4433     TIP3     OH2      OT      -0.834000       15.9994           0
     23214 TIP3     4433     TIP3     H1       HT       0.417000       1.00800           0
     23215 TIP3     4433     TIP3     H2       HT       0.417000       1.00800           0
     23216 TIP3     4434     TIP3     OH2      OT      -0.834000       15.9994           0
     23217 TIP3     4434     TIP3     H1       HT       0.417000       1.00800           0
     23218 TIP3     4434     TIP3     H2       HT       0.417000       1.00800           0
     23219 TIP3     4435     TIP3     OH2      OT      -0.834000       15.9994           0
     23220 TIP3     4435     TIP3     H1       HT       0.417000       1.00800           0
     23221 TIP3     4435     TIP3     H2       HT       0.417000       1.00800           0
     23222 TIP3     4436     TIP3     OH2      OT      -0.834000       15.9994           0
     23223 TIP3     4436     TIP3     H1       HT       0.417000       1.00800           0
     23224 TIP3     4436     TIP3     H2       HT       0.417000       1.00800           0
     23225 TIP3     4437     TIP3     OH2      OT      -0.834000       15.9994           0
     23226 TIP3     4437     TIP3     H1       HT       0.417000       1.00800           0
     23227 TIP3     4437     TIP3     H2       HT       0.417000       1.00800           0
     23228 TIP3     4438     TIP3     OH2      OT      -0.834000       15.9994           0
     23229 TIP3     4438     TIP3     H1       HT       0.417000       1.00800           0
     23230 TIP3     4438     TIP3     H2       HT       0.417000       1.00800           0
     23231 TIP3     4439     TIP3     OH2      OT      -0.834000       15.9994           0
     23232 TIP3     4439     TIP3     H1       HT       0.417000       1.00800           0
     23233 TIP3     4439     TIP3     H2       HT       0.417000       1.00800           0
     23234 TIP3     4440     TIP3     OH2      OT      -0.834000       15.9994           0
     23235 TIP3     4440     TIP3     H1       HT       0.417000       1.00800           0
     23236 TIP3     4440     TIP3     H2       HT       0.417000       1.00800           0
     23237 TIP3     4441     TIP3     OH2      OT      -0.834000       15.9994           0
     23238 TIP3     4441     TIP3     H1       HT       0.417000       1.00800           0
     23239 TIP3     4441     TIP3     H2       HT       0.417000       1.00800           0
     23240 TIP3     4442     TIP3     OH2      OT      -0.834000       15.9994           0
     23241 TIP3     4442     TIP3     H1       HT       0.417000       1.00800           0
     23242 TIP3     4442     TIP3     H2       HT       0.417000       1.00800           0
     23243 TIP3     4443     TIP3     OH2      OT      -0.834000       15.9994           0
     23244 TIP3     4443     TIP3     H1       HT       0.417000       1.00800           0
     23245 TIP3     4443     TIP3     H2       HT       0.417000       1.00800           0
     23246 TIP3     4444     TIP3     OH2      OT      -0.834000       15.9994           0
     23247 TIP3     4444     TIP3     H1       HT       0.417000       1.00800           0
     23248 TIP3     4444     TIP3     H2       HT       0.417000       1.00800           0
     23249 TIP3     4445     TIP3     OH2      OT      -0.834000       15.9994           0
     23250 TIP3     4445     TIP3     H1       HT       0.417000       1.00800           0
     23251 TIP3     4445     TIP3     H2       HT       0.417000       1.00800           0
     23252 TIP3     4446     TIP3     OH2      OT      -0.834000       15.9994           0
     23253 TIP3     4446     TIP3     H1       HT       0.417000       1.00800           0
     23254 TIP3     4446     TIP3     H2       HT       0.417000       1.00800           0
     23255 TIP3     4447     TIP3     OH2      OT      -0.834000       15.9994           0
     23256 TIP3     4447     TIP3     H1       HT       0.417000       1.00800           0
     23257 TIP3     4447     TIP3     H2       HT       0.417000       1.00800           0
     23258 TIP3     4448     TIP3     OH2      OT      -0.834000       15.9994           0
     23259 TIP3     4448     TIP3     H1       HT       0.417000       1.00800           0
     23260 TIP3     4448     TIP3     H2       HT       0.417000       1.00800           0
     23261 TIP3     4449     TIP3     OH2      OT      -0.834000       15.9994           0
     23262 TIP3     4449     TIP3     H1       HT       0.417000       1.00800           0
     23263 TIP3     4449     TIP3     H2       HT       0.417000       1.00800           0
     23264 TIP3     4450     TIP3     OH2      OT      -0.834000       15.9994           0
     23265 TIP3     4450     TIP3     H1       HT       0.417000       1.00800           0
     23266 TIP3     4450     TIP3     H2       HT       0.417000       1.00800           0
     23267 TIP3     4451     TIP3     OH2      OT      -0.834000       15.9994           0
     23268 TIP3     4451     TIP3     H1       HT       0.417000       1.00800           0
     23269 TIP3     4451     TIP3     H2       HT       0.417000       1.00800           0
     23270 TIP3     4452     TIP3     OH2      OT      -0.834000       15.9994           0
     23271 TIP3     4452     TIP3     H1       HT       0.417000       1.00800           0
     23272 TIP3     4452     TIP3     H2       HT       0.417000       1.00800           0
     23273 TIP3     4453     TIP3     OH2      OT      -0.834000       15.9994           0
     23274 TIP3     4453     TIP3     H1       HT       0.417000       1.00800           0
     23275 TIP3     4453     TIP3     H2       HT       0.417000       1.00800           0
     23276 TIP3     4454     TIP3     OH2      OT      -0.834000       15.9994           0
     23277 TIP3     4454     TIP3     H1       HT       0.417000       1.00800           0
     23278 TIP3     4454     TIP3     H2       HT       0.417000       1.00800           0
     23279 TIP3     4455     TIP3     OH2      OT      -0.834000       15.9994           0
     23280 TIP3     4455     TIP3     H1       HT       0.417000       1.00800           0
     23281 TIP3     4455     TIP3     H2       HT       0.417000       1.00800           0
     23282 TIP3     4456     TIP3     OH2      OT      -0.834000       15.9994           0
     23283 TIP3     4456     TIP3     H1       HT       0.417000       1.00800           0
     23284 TIP3     4456     TIP3     H2       HT       0.417000       1.00800           0
     23285 TIP3     4457     TIP3     OH2      OT      -0.834000       15.9994           0
     23286 TIP3     4457     TIP3     H1       HT       0.417000       1.00800           0
     23287 TIP3     4457     TIP3     H2       HT       0.417000       1.00800           0
     23288 TIP3     4458     TIP3     OH2      OT      -0.834000       15.9994           0
     23289 TIP3     4458     TIP3     H1       HT       0.417000       1.00800           0
     23290 TIP3     4458     TIP3     H2       HT       0.417000       1.00800           0
     23291 TIP3     4459     TIP3     OH2      OT      -0.834000       15.9994           0
     23292 TIP3     4459     TIP3     H1       HT       0.417000       1.00800           0
     23293 TIP3     4459     TIP3     H2       HT       0.417000       1.00800           0
     23294 TIP3     4460     TIP3     OH2      OT      -0.834000       15.9994           0
     23295 TIP3     4460     TIP3     H1       HT       0.417000       1.00800           0
     23296 TIP3     4460     TIP3     H2       HT       0.417000       1.00800           0
     23297 TIP3     4461     TIP3     OH2      OT      -0.834000       15.9994           0
     23298 TIP3     4461     TIP3     H1       HT       0.417000       1.00800           0
     23299 TIP3     4461     TIP3     H2       HT       0.417000       1.00800           0
     23300 TIP3     4462     TIP3     OH2      OT      -0.834000       15.9994           0
     23301 TIP3     4462     TIP3     H1       HT       0.417000       1.00800           0
     23302 TIP3     4462     TIP3     H2       HT       0.417000       1.00800           0
     23303 TIP3     4463     TIP3     OH2      OT      -0.834000       15.9994           0
     23304 TIP3     4463     TIP3     H1       HT       0.417000       1.00800           0
     23305 TIP3     4463     TIP3     H2       HT       0.417000       1.00800           0
     23306 TIP3     4464     TIP3     OH2      OT      -0.834000       15.9994           0
     23307 TIP3     4464     TIP3     H1       HT       0.417000       1.00800           0
     23308 TIP3     4464     TIP3     H2       HT       0.417000       1.00800           0
     23309 TIP3     4465     TIP3     OH2      OT      -0.834000       15.9994           0
     23310 TIP3     4465     TIP3     H1       HT       0.417000       1.00800           0
     23311 TIP3     4465     TIP3     H2       HT       0.417000       1.00800           0
     23312 TIP3     4466     TIP3     OH2      OT      -0.834000       15.9994           0
     23313 TIP3     4466     TIP3     H1       HT       0.417000       1.00800           0
     23314 TIP3     4466     TIP3     H2       HT       0.417000       1.00800           0
     23315 TIP3     4467     TIP3     OH2      OT      -0.834000       15.9994           0
     23316 TIP3     4467     TIP3     H1       HT       0.417000       1.00800           0
     23317 TIP3     4467     TIP3     H2       HT       0.417000       1.00800           0
     23318 TIP3     4468     TIP3     OH2      OT      -0.834000       15.9994           0
     23319 TIP3     4468     TIP3     H1       HT       0.417000       1.00800           0
     23320 TIP3     4468     TIP3     H2       HT       0.417000       1.00800           0
     23321 TIP3     4469     TIP3     OH2      OT      -0.834000       15.9994           0
     23322 TIP3     4469     TIP3     H1       HT       0.417000       1.00800           0
     23323 TIP3     4469     TIP3     H2       HT       0.417000       1.00800           0
     23324 TIP3     4470     TIP3     OH2      OT      -0.834000       15.9994           0
     23325 TIP3     4470     TIP3     H1       HT       0.417000       1.00800           0
     23326 TIP3     4470     TIP3     H2       HT       0.417000       1.00800           0
     23327 TIP3     4471     TIP3     OH2      OT      -0.834000       15.9994           0
     23328 TIP3     4471     TIP3     H1       HT       0.417000       1.00800           0
     23329 TIP3     4471     TIP3     H2       HT       0.417000       1.00800           0
     23330 TIP3     4472     TIP3     OH2      OT      -0.834000       15.9994           0
     23331 TIP3     4472     TIP3     H1       HT       0.417000       1.00800           0
     23332 TIP3     4472     TIP3     H2       HT       0.417000       1.00800           0
     23333 TIP3     4473     TIP3     OH2      OT      -0.834000       15.9994           0
     23334 TIP3     4473     TIP3     H1       HT       0.417000       1.00800           0
     23335 TIP3     4473     TIP3     H2       HT       0.417000       1.00800           0
     23336 TIP3     4474     TIP3     OH2      OT      -0.834000       15.9994           0
     23337 TIP3     4474     TIP3     H1       HT       0.417000       1.00800           0
     23338 TIP3     4474     TIP3     H2       HT       0.417000       1.00800           0
     23339 TIP3     4475     TIP3     OH2      OT      -0.834000       15.9994           0
     23340 TIP3     4475     TIP3     H1       HT       0.417000       1.00800           0
     23341 TIP3     4475     TIP3     H2       HT       0.417000       1.00800           0
     23342 TIP3     4476     TIP3     OH2      OT      -0.834000       15.9994           0
     23343 TIP3     4476     TIP3     H1       HT       0.417000       1.00800           0
     23344 TIP3     4476     TIP3     H2       HT       0.417000       1.00800           0
     23345 TIP3     4477     TIP3     OH2      OT      -0.834000       15.9994           0
     23346 TIP3     4477     TIP3     H1       HT       0.417000       1.00800           0
     23347 TIP3     4477     TIP3     H2       HT       0.417000       1.00800           0
     23348 TIP3     4478     TIP3     OH2      OT      -0.834000       15.9994           0
     23349 TIP3     4478     TIP3     H1       HT       0.417000       1.00800           0
     23350 TIP3     4478     TIP3     H2       HT       0.417000       1.00800           0
     23351 TIP3     4479     TIP3     OH2      OT      -0.834000       15.9994           0
     23352 TIP3     4479     TIP3     H1       HT       0.417000       1.00800           0
     23353 TIP3     4479     TIP3     H2       HT       0.417000       1.00800           0
     23354 TIP3     4480     TIP3     OH2      OT      -0.834000       15.9994           0
     23355 TIP3     4480     TIP3     H1       HT       0.417000       1.00800           0
     23356 TIP3     4480     TIP3     H2       HT       0.417000       1.00800           0
     23357 TIP3     4481     TIP3     OH2      OT      -0.834000       15.9994           0
     23358 TIP3     4481     TIP3     H1       HT       0.417000       1.00800           0
     23359 TIP3     4481     TIP3     H2       HT       0.417000       1.00800           0
     23360 TIP3     4482     TIP3     OH2      OT      -0.834000       15.9994           0
     23361 TIP3     4482     TIP3     H1       HT       0.417000       1.00800           0
     23362 TIP3     4482     TIP3     H2       HT       0.417000       1.00800           0
     23363 TIP3     4483     TIP3     OH2      OT      -0.834000       15.9994           0
     23364 TIP3     4483     TIP3     H1       HT       0.417000       1.00800           0
     23365 TIP3     4483     TIP3     H2       HT       0.417000       1.00800           0
     23366 TIP3     4484     TIP3     OH2      OT      -0.834000       15.9994           0
     23367 TIP3     4484     TIP3     H1       HT       0.417000       1.00800           0
     23368 TIP3     4484     TIP3     H2       HT       0.417000       1.00800           0
     23369 TIP3     4485     TIP3     OH2      OT      -0.834000       15.9994           0
     23370 TIP3     4485     TIP3     H1       HT       0.417000       1.00800           0
     23371 TIP3     4485     TIP3     H2       HT       0.417000       1.00800           0
     23372 TIP3     4486     TIP3     OH2      OT      -0.834000       15.9994           0
     23373 TIP3     4486     TIP3     H1       HT       0.417000       1.00800           0
     23374 TIP3     4486     TIP3     H2       HT       0.417000       1.00800           0
     23375 TIP3     4487     TIP3     OH2      OT      -0.834000       15.9994           0
     23376 TIP3     4487     TIP3     H1       HT       0.417000       1.00800           0
     23377 TIP3     4487     TIP3     H2       HT       0.417000       1.00800           0
     23378 TIP3     4488     TIP3     OH2      OT      -0.834000       15.9994           0
     23379 TIP3     4488     TIP3     H1       HT       0.417000       1.00800           0
     23380 TIP3     4488     TIP3     H2       HT       0.417000       1.00800           0
     23381 TIP3     4489     TIP3     OH2      OT      -0.834000       15.9994           0
     23382 TIP3     4489     TIP3     H1       HT       0.417000       1.00800           0
     23383 TIP3     4489     TIP3     H2       HT       0.417000       1.00800           0
     23384 TIP3     4490     TIP3     OH2      OT      -0.834000       15.9994           0
     23385 TIP3     4490     TIP3     H1       HT       0.417000       1.00800           0
     23386 TIP3     4490     TIP3     H2       HT       0.417000       1.00800           0
     23387 TIP3     4491     TIP3     OH2      OT      -0.834000       15.9994           0
     23388 TIP3     4491     TIP3     H1       HT       0.417000       1.00800           0
     23389 TIP3     4491     TIP3     H2       HT       0.417000       1.00800           0
     23390 TIP3     4492     TIP3     OH2      OT      -0.834000       15.9994           0
     23391 TIP3     4492     TIP3     H1       HT       0.417000       1.00800           0
     23392 TIP3     4492     TIP3     H2       HT       0.417000       1.00800           0
     23393 TIP3     4493     TIP3     OH2      OT      -0.834000       15.9994           0
     23394 TIP3     4493     TIP3     H1       HT       0.417000       1.00800           0
     23395 TIP3     4493     TIP3     H2       HT       0.417000       1.00800           0
     23396 TIP3     4494     TIP3     OH2      OT      -0.834000       15.9994           0
     23397 TIP3     4494     TIP3     H1       HT       0.417000       1.00800           0
     23398 TIP3     4494     TIP3     H2       HT       0.417000       1.00800           0
     23399 TIP3     4495     TIP3     OH2      OT      -0.834000       15.9994           0
     23400 TIP3     4495     TIP3     H1       HT       0.417000       1.00800           0
     23401 TIP3     4495     TIP3     H2       HT       0.417000       1.00800           0
     23402 TIP3     4496     TIP3     OH2      OT      -0.834000       15.9994           0
     23403 TIP3     4496     TIP3     H1       HT       0.417000       1.00800           0
     23404 TIP3     4496     TIP3     H2       HT       0.417000       1.00800           0
     23405 TIP3     4497     TIP3     OH2      OT      -0.834000       15.9994           0
     23406 TIP3     4497     TIP3     H1       HT       0.417000       1.00800           0
     23407 TIP3     4497     TIP3     H2       HT       0.417000       1.00800           0
     23408 TIP3     4498     TIP3     OH2      OT      -0.834000       15.9994           0
     23409 TIP3     4498     TIP3     H1       HT       0.417000       1.00800           0
     23410 TIP3     4498     TIP3     H2       HT       0.417000       1.00800           0
     23411 TIP3     4499     TIP3     OH2      OT      -0.834000       15.9994           0
     23412 TIP3     4499     TIP3     H1       HT       0.417000       1.00800           0
     23413 TIP3     4499     TIP3     H2       HT       0.417000       1.00800           0
     23414 TIP3     4500     TIP3     OH2      OT      -0.834000       15.9994           0
     23415 TIP3     4500     TIP3     H1       HT       0.417000       1.00800           0
     23416 TIP3     4500     TIP3     H2       HT       0.417000       1.00800           0
     23417 TIP3     4501     TIP3     OH2      OT      -0.834000       15.9994           0
     23418 TIP3     4501     TIP3     H1       HT       0.417000       1.00800           0
     23419 TIP3     4501     TIP3     H2       HT       0.417000       1.00800           0
     23420 TIP3     4502     TIP3     OH2      OT      -0.834000       15.9994           0
     23421 TIP3     4502     TIP3     H1       HT       0.417000       1.00800           0
     23422 TIP3     4502     TIP3     H2       HT       0.417000       1.00800           0
     23423 TIP3     4503     TIP3     OH2      OT      -0.834000       15.9994           0
     23424 TIP3     4503     TIP3     H1       HT       0.417000       1.00800           0
     23425 TIP3     4503     TIP3     H2       HT       0.417000       1.00800           0
     23426 TIP3     4504     TIP3     OH2      OT      -0.834000       15.9994           0
     23427 TIP3     4504     TIP3     H1       HT       0.417000       1.00800           0
     23428 TIP3     4504     TIP3     H2       HT       0.417000       1.00800           0
     23429 TIP3     4505     TIP3     OH2      OT      -0.834000       15.9994           0
     23430 TIP3     4505     TIP3     H1       HT       0.417000       1.00800           0
     23431 TIP3     4505     TIP3     H2       HT       0.417000       1.00800           0
     23432 TIP3     4506     TIP3     OH2      OT      -0.834000       15.9994           0
     23433 TIP3     4506     TIP3     H1       HT       0.417000       1.00800           0
     23434 TIP3     4506     TIP3     H2       HT       0.417000       1.00800           0
     23435 TIP3     4507     TIP3     OH2      OT      -0.834000       15.9994           0
     23436 TIP3     4507     TIP3     H1       HT       0.417000       1.00800           0
     23437 TIP3     4507     TIP3     H2       HT       0.417000       1.00800           0
     23438 TIP3     4508     TIP3     OH2      OT      -0.834000       15.9994           0
     23439 TIP3     4508     TIP3     H1       HT       0.417000       1.00800           0
     23440 TIP3     4508     TIP3     H2       HT       0.417000       1.00800           0
     23441 TIP3     4509     TIP3     OH2      OT      -0.834000       15.9994           0
     23442 TIP3     4509     TIP3     H1       HT       0.417000       1.00800           0
     23443 TIP3     4509     TIP3     H2       HT       0.417000       1.00800           0
     23444 TIP3     4510     TIP3     OH2      OT      -0.834000       15.9994           0
     23445 TIP3     4510     TIP3     H1       HT       0.417000       1.00800           0
     23446 TIP3     4510     TIP3     H2       HT       0.417000       1.00800           0
     23447 TIP3     4511     TIP3     OH2      OT      -0.834000       15.9994           0
     23448 TIP3     4511     TIP3     H1       HT       0.417000       1.00800           0
     23449 TIP3     4511     TIP3     H2       HT       0.417000       1.00800           0
     23450 TIP3     4512     TIP3     OH2      OT      -0.834000       15.9994           0
     23451 TIP3     4512     TIP3     H1       HT       0.417000       1.00800           0
     23452 TIP3     4512     TIP3     H2       HT       0.417000       1.00800           0
     23453 TIP3     4513     TIP3     OH2      OT      -0.834000       15.9994           0
     23454 TIP3     4513     TIP3     H1       HT       0.417000       1.00800           0
     23455 TIP3     4513     TIP3     H2       HT       0.417000       1.00800           0
     23456 TIP3     4514     TIP3     OH2      OT      -0.834000       15.9994           0
     23457 TIP3     4514     TIP3     H1       HT       0.417000       1.00800           0
     23458 TIP3     4514     TIP3     H2       HT       0.417000       1.00800           0
     23459 TIP3     4515     TIP3     OH2      OT      -0.834000       15.9994           0
     23460 TIP3     4515     TIP3     H1       HT       0.417000       1.00800           0
     23461 TIP3     4515     TIP3     H2       HT       0.417000       1.00800           0
     23462 TIP3     4516     TIP3     OH2      OT      -0.834000       15.9994           0
     23463 TIP3     4516     TIP3     H1       HT       0.417000       1.00800           0
     23464 TIP3     4516     TIP3     H2       HT       0.417000       1.00800           0
     23465 TIP3     4517     TIP3     OH2      OT      -0.834000       15.9994           0
     23466 TIP3     4517     TIP3     H1       HT       0.417000       1.00800           0
     23467 TIP3     4517     TIP3     H2       HT       0.417000       1.00800           0
     23468 TIP3     4518     TIP3     OH2      OT      -0.834000       15.9994           0
     23469 TIP3     4518     TIP3     H1       HT       0.417000       1.00800           0
     23470 TIP3     4518     TIP3     H2       HT       0.417000       1.00800           0
     23471 TIP3     4519     TIP3     OH2      OT      -0.834000       15.9994           0
     23472 TIP3     4519     TIP3     H1       HT       0.417000       1.00800           0
     23473 TIP3     4519     TIP3     H2       HT       0.417000       1.00800           0
     23474 TIP3     4520     TIP3     OH2      OT      -0.834000       15.9994           0
     23475 TIP3     4520     TIP3     H1       HT       0.417000       1.00800           0
     23476 TIP3     4520     TIP3     H2       HT       0.417000       1.00800           0
     23477 TIP3     4521     TIP3     OH2      OT      -0.834000       15.9994           0
     23478 TIP3     4521     TIP3     H1       HT       0.417000       1.00800           0
     23479 TIP3     4521     TIP3     H2       HT       0.417000       1.00800           0
     23480 TIP3     4522     TIP3     OH2      OT      -0.834000       15.9994           0
     23481 TIP3     4522     TIP3     H1       HT       0.417000       1.00800           0
     23482 TIP3     4522     TIP3     H2       HT       0.417000       1.00800           0
     23483 TIP3     4523     TIP3     OH2      OT      -0.834000       15.9994           0
     23484 TIP3     4523     TIP3     H1       HT       0.417000       1.00800           0
     23485 TIP3     4523     TIP3     H2       HT       0.417000       1.00800           0
     23486 TIP3     4524     TIP3     OH2      OT      -0.834000       15.9994           0
     23487 TIP3     4524     TIP3     H1       HT       0.417000       1.00800           0
     23488 TIP3     4524     TIP3     H2       HT       0.417000       1.00800           0
     23489 TIP3     4525     TIP3     OH2      OT      -0.834000       15.9994           0
     23490 TIP3     4525     TIP3     H1       HT       0.417000       1.00800           0
     23491 TIP3     4525     TIP3     H2       HT       0.417000       1.00800           0
     23492 TIP3     4526     TIP3     OH2      OT      -0.834000       15.9994           0
     23493 TIP3     4526     TIP3     H1       HT       0.417000       1.00800           0
     23494 TIP3     4526     TIP3     H2       HT       0.417000       1.00800           0
     23495 TIP3     4527     TIP3     OH2      OT      -0.834000       15.9994           0
     23496 TIP3     4527     TIP3     H1       HT       0.417000       1.00800           0
     23497 TIP3     4527     TIP3     H2       HT       0.417000       1.00800           0
     23498 TIP3     4528     TIP3     OH2      OT      -0.834000       15.9994           0
     23499 TIP3     4528     TIP3     H1       HT       0.417000       1.00800           0
     23500 TIP3     4528     TIP3     H2       HT       0.417000       1.00800           0
     23501 TIP3     4529     TIP3     OH2      OT      -0.834000       15.9994           0
     23502 TIP3     4529     TIP3     H1       HT       0.417000       1.00800           0
     23503 TIP3     4529     TIP3     H2       HT       0.417000       1.00800           0
     23504 TIP3     4530     TIP3     OH2      OT      -0.834000       15.9994           0
     23505 TIP3     4530     TIP3     H1       HT       0.417000       1.00800           0
     23506 TIP3     4530     TIP3     H2       HT       0.417000       1.00800           0
     23507 TIP3     4531     TIP3     OH2      OT      -0.834000       15.9994           0
     23508 TIP3     4531     TIP3     H1       HT       0.417000       1.00800           0
     23509 TIP3     4531     TIP3     H2       HT       0.417000       1.00800           0
     23510 TIP3     4532     TIP3     OH2      OT      -0.834000       15.9994           0
     23511 TIP3     4532     TIP3     H1       HT       0.417000       1.00800           0
     23512 TIP3     4532     TIP3     H2       HT       0.417000       1.00800           0
     23513 TIP3     4533     TIP3     OH2      OT      -0.834000       15.9994           0
     23514 TIP3     4533     TIP3     H1       HT       0.417000       1.00800           0
     23515 TIP3     4533     TIP3     H2       HT       0.417000       1.00800           0
     23516 TIP3     4534     TIP3     OH2      OT      -0.834000       15.9994           0
     23517 TIP3     4534     TIP3     H1       HT       0.417000       1.00800           0
     23518 TIP3     4534     TIP3     H2       HT       0.417000       1.00800           0
     23519 TIP3     4535     TIP3     OH2      OT      -0.834000       15.9994           0
     23520 TIP3     4535     TIP3     H1       HT       0.417000       1.00800           0
     23521 TIP3     4535     TIP3     H2       HT       0.417000       1.00800           0
     23522 TIP3     4536     TIP3     OH2      OT      -0.834000       15.9994           0
     23523 TIP3     4536     TIP3     H1       HT       0.417000       1.00800           0
     23524 TIP3     4536     TIP3     H2       HT       0.417000       1.00800           0
     23525 TIP3     4537     TIP3     OH2      OT      -0.834000       15.9994           0
     23526 TIP3     4537     TIP3     H1       HT       0.417000       1.00800           0
     23527 TIP3     4537     TIP3     H2       HT       0.417000       1.00800           0
     23528 TIP3     4538     TIP3     OH2      OT      -0.834000       15.9994           0
     23529 TIP3     4538     TIP3     H1       HT       0.417000       1.00800           0
     23530 TIP3     4538     TIP3     H2       HT       0.417000       1.00800           0
     23531 TIP3     4539     TIP3     OH2      OT      -0.834000       15.9994           0
     23532 TIP3     4539     TIP3     H1       HT       0.417000       1.00800           0
     23533 TIP3     4539     TIP3     H2       HT       0.417000       1.00800           0
     23534 TIP3     4540     TIP3     OH2      OT      -0.834000       15.9994           0
     23535 TIP3     4540     TIP3     H1       HT       0.417000       1.00800           0
     23536 TIP3     4540     TIP3     H2       HT       0.417000       1.00800           0
     23537 TIP3     4541     TIP3     OH2      OT      -0.834000       15.9994           0
     23538 TIP3     4541     TIP3     H1       HT       0.417000       1.00800           0
     23539 TIP3     4541     TIP3     H2       HT       0.417000       1.00800           0
     23540 TIP3     4542     TIP3     OH2      OT      -0.834000       15.9994           0
     23541 TIP3     4542     TIP3     H1       HT       0.417000       1.00800           0
     23542 TIP3     4542     TIP3     H2       HT       0.417000       1.00800           0
     23543 TIP3     4543     TIP3     OH2      OT      -0.834000       15.9994           0
     23544 TIP3     4543     TIP3     H1       HT       0.417000       1.00800           0
     23545 TIP3     4543     TIP3     H2       HT       0.417000       1.00800           0
     23546 TIP3     4544     TIP3     OH2      OT      -0.834000       15.9994           0
     23547 TIP3     4544     TIP3     H1       HT       0.417000       1.00800           0
     23548 TIP3     4544     TIP3     H2       HT       0.417000       1.00800           0
     23549 TIP3     4545     TIP3     OH2      OT      -0.834000       15.9994           0
     23550 TIP3     4545     TIP3     H1       HT       0.417000       1.00800           0
     23551 TIP3     4545     TIP3     H2       HT       0.417000       1.00800           0
     23552 TIP3     4546     TIP3     OH2      OT      -0.834000       15.9994           0
     23553 TIP3     4546     TIP3     H1       HT       0.417000       1.00800           0
     23554 TIP3     4546     TIP3     H2       HT       0.417000       1.00800           0
     23555 TIP3     4547     TIP3     OH2      OT      -0.834000       15.9994           0
     23556 TIP3     4547     TIP3     H1       HT       0.417000       1.00800           0
     23557 TIP3     4547     TIP3     H2       HT       0.417000       1.00800           0
     23558 TIP3     4548     TIP3     OH2      OT      -0.834000       15.9994           0
     23559 TIP3     4548     TIP3     H1       HT       0.417000       1.00800           0
     23560 TIP3     4548     TIP3     H2       HT       0.417000       1.00800           0
     23561 TIP3     4549     TIP3     OH2      OT      -0.834000       15.9994           0
     23562 TIP3     4549     TIP3     H1       HT       0.417000       1.00800           0
     23563 TIP3     4549     TIP3     H2       HT       0.417000       1.00800           0
     23564 TIP3     4550     TIP3     OH2      OT      -0.834000       15.9994           0
     23565 TIP3     4550     TIP3     H1       HT       0.417000       1.00800           0
     23566 TIP3     4550     TIP3     H2       HT       0.417000       1.00800           0
     23567 TIP3     4551     TIP3     OH2      OT      -0.834000       15.9994           0
     23568 TIP3     4551     TIP3     H1       HT       0.417000       1.00800           0
     23569 TIP3     4551     TIP3     H2       HT       0.417000       1.00800           0
     23570 TIP3     4552     TIP3     OH2      OT      -0.834000       15.9994           0
     23571 TIP3     4552     TIP3     H1       HT       0.417000       1.00800           0
     23572 TIP3     4552     TIP3     H2       HT       0.417000       1.00800           0
     23573 TIP3     4553     TIP3     OH2      OT      -0.834000       15.9994           0
     23574 TIP3     4553     TIP3     H1       HT       0.417000       1.00800           0
     23575 TIP3     4553     TIP3     H2       HT       0.417000       1.00800           0
     23576 TIP3     4554     TIP3     OH2      OT      -0.834000       15.9994           0
     23577 TIP3     4554     TIP3     H1       HT       0.417000       1.00800           0
     23578 TIP3     4554     TIP3     H2       HT       0.417000       1.00800           0
     23579 TIP3     4555     TIP3     OH2      OT      -0.834000       15.9994           0
     23580 TIP3     4555     TIP3     H1       HT       0.417000       1.00800           0
     23581 TIP3     4555     TIP3     H2       HT       0.417000       1.00800           0
     23582 TIP3     4556     TIP3     OH2      OT      -0.834000       15.9994           0
     23583 TIP3     4556     TIP3     H1       HT       0.417000       1.00800           0
     23584 TIP3     4556     TIP3     H2       HT       0.417000       1.00800           0
     23585 TIP3     4557     TIP3     OH2      OT      -0.834000       15.9994           0
     23586 TIP3     4557     TIP3     H1       HT       0.417000       1.00800           0
     23587 TIP3     4557     TIP3     H2       HT       0.417000       1.00800           0
     23588 TIP3     4558     TIP3     OH2      OT      -0.834000       15.9994           0
     23589 TIP3     4558     TIP3     H1       HT       0.417000       1.00800           0
     23590 TIP3     4558     TIP3     H2       HT       0.417000       1.00800           0
     23591 TIP3     4559     TIP3     OH2      OT      -0.834000       15.9994           0
     23592 TIP3     4559     TIP3     H1       HT       0.417000       1.00800           0
     23593 TIP3     4559     TIP3     H2       HT       0.417000       1.00800           0
     23594 TIP3     4560     TIP3     OH2      OT      -0.834000       15.9994           0
     23595 TIP3     4560     TIP3     H1       HT       0.417000       1.00800           0
     23596 TIP3     4560     TIP3     H2       HT       0.417000       1.00800           0
     23597 TIP3     4561     TIP3     OH2      OT      -0.834000       15.9994           0
     23598 TIP3     4561     TIP3     H1       HT       0.417000       1.00800           0
     23599 TIP3     4561     TIP3     H2       HT       0.417000       1.00800           0
     23600 TIP3     4562     TIP3     OH2      OT      -0.834000       15.9994           0
     23601 TIP3     4562     TIP3     H1       HT       0.417000       1.00800           0
     23602 TIP3     4562     TIP3     H2       HT       0.417000       1.00800           0
     23603 TIP3     4563     TIP3     OH2      OT      -0.834000       15.9994           0
     23604 TIP3     4563     TIP3     H1       HT       0.417000       1.00800           0
     23605 TIP3     4563     TIP3     H2       HT       0.417000       1.00800           0
     23606 TIP3     4564     TIP3     OH2      OT      -0.834000       15.9994           0
     23607 TIP3     4564     TIP3     H1       HT       0.417000       1.00800           0
     23608 TIP3     4564     TIP3     H2       HT       0.417000       1.00800           0
     23609 TIP3     4565     TIP3     OH2      OT      -0.834000       15.9994           0
     23610 TIP3     4565     TIP3     H1       HT       0.417000       1.00800           0
     23611 TIP3     4565     TIP3     H2       HT       0.417000       1.00800           0
     23612 TIP3     4566     TIP3     OH2      OT      -0.834000       15.9994           0
     23613 TIP3     4566     TIP3     H1       HT       0.417000       1.00800           0
     23614 TIP3     4566     TIP3     H2       HT       0.417000       1.00800           0
     23615 TIP3     4567     TIP3     OH2      OT      -0.834000       15.9994           0
     23616 TIP3     4567     TIP3     H1       HT       0.417000       1.00800           0
     23617 TIP3     4567     TIP3     H2       HT       0.417000       1.00800           0
     23618 TIP3     4568     TIP3     OH2      OT      -0.834000       15.9994           0
     23619 TIP3     4568     TIP3     H1       HT       0.417000       1.00800           0
     23620 TIP3     4568     TIP3     H2       HT       0.417000       1.00800           0
     23621 TIP3     4569     TIP3     OH2      OT      -0.834000       15.9994           0
     23622 TIP3     4569     TIP3     H1       HT       0.417000       1.00800           0
     23623 TIP3     4569     TIP3     H2       HT       0.417000       1.00800           0
     23624 TIP3     4570     TIP3     OH2      OT      -0.834000       15.9994           0
     23625 TIP3     4570     TIP3     H1       HT       0.417000       1.00800           0
     23626 TIP3     4570     TIP3     H2       HT       0.417000       1.00800           0
     23627 TIP3     4571     TIP3     OH2      OT      -0.834000       15.9994           0
     23628 TIP3     4571     TIP3     H1       HT       0.417000       1.00800           0
     23629 TIP3     4571     TIP3     H2       HT       0.417000       1.00800           0
     23630 TIP3     4572     TIP3     OH2      OT      -0.834000       15.9994           0
     23631 TIP3     4572     TIP3     H1       HT       0.417000       1.00800           0
     23632 TIP3     4572     TIP3     H2       HT       0.417000       1.00800           0
     23633 TIP3     4573     TIP3     OH2      OT      -0.834000       15.9994           0
     23634 TIP3     4573     TIP3     H1       HT       0.417000       1.00800           0
     23635 TIP3     4573     TIP3     H2       HT       0.417000       1.00800           0
     23636 TIP3     4574     TIP3     OH2      OT      -0.834000       15.9994           0
     23637 TIP3     4574     TIP3     H1       HT       0.417000       1.00800           0
     23638 TIP3     4574     TIP3     H2       HT       0.417000       1.00800           0
     23639 TIP3     4575     TIP3     OH2      OT      -0.834000       15.9994           0
     23640 TIP3     4575     TIP3     H1       HT       0.417000       1.00800           0
     23641 TIP3     4575     TIP3     H2       HT       0.417000       1.00800           0
     23642 TIP3     4576     TIP3     OH2      OT      -0.834000       15.9994           0
     23643 TIP3     4576     TIP3     H1       HT       0.417000       1.00800           0
     23644 TIP3     4576     TIP3     H2       HT       0.417000       1.00800           0
     23645 TIP3     4577     TIP3     OH2      OT      -0.834000       15.9994           0
     23646 TIP3     4577     TIP3     H1       HT       0.417000       1.00800           0
     23647 TIP3     4577     TIP3     H2       HT       0.417000       1.00800           0
     23648 TIP3     4578     TIP3     OH2      OT      -0.834000       15.9994           0
     23649 TIP3     4578     TIP3     H1       HT       0.417000       1.00800           0
     23650 TIP3     4578     TIP3     H2       HT       0.417000       1.00800           0
     23651 TIP3     4579     TIP3     OH2      OT      -0.834000       15.9994           0
     23652 TIP3     4579     TIP3     H1       HT       0.417000       1.00800           0
     23653 TIP3     4579     TIP3     H2       HT       0.417000       1.00800           0
     23654 TIP3     4580     TIP3     OH2      OT      -0.834000       15.9994           0
     23655 TIP3     4580     TIP3     H1       HT       0.417000       1.00800           0
     23656 TIP3     4580     TIP3     H2       HT       0.417000       1.00800           0
     23657 TIP3     4581     TIP3     OH2      OT      -0.834000       15.9994           0
     23658 TIP3     4581     TIP3     H1       HT       0.417000       1.00800           0
     23659 TIP3     4581     TIP3     H2       HT       0.417000       1.00800           0
     23660 TIP3     4582     TIP3     OH2      OT      -0.834000       15.9994           0
     23661 TIP3     4582     TIP3     H1       HT       0.417000       1.00800           0
     23662 TIP3     4582     TIP3     H2       HT       0.417000       1.00800           0
     23663 TIP3     4583     TIP3     OH2      OT      -0.834000       15.9994           0
     23664 TIP3     4583     TIP3     H1       HT       0.417000       1.00800           0
     23665 TIP3     4583     TIP3     H2       HT       0.417000       1.00800           0
     23666 TIP3     4584     TIP3     OH2      OT      -0.834000       15.9994           0
     23667 TIP3     4584     TIP3     H1       HT       0.417000       1.00800           0
     23668 TIP3     4584     TIP3     H2       HT       0.417000       1.00800           0
     23669 TIP3     4585     TIP3     OH2      OT      -0.834000       15.9994           0
     23670 TIP3     4585     TIP3     H1       HT       0.417000       1.00800           0
     23671 TIP3     4585     TIP3     H2       HT       0.417000       1.00800           0
     23672 TIP3     4586     TIP3     OH2      OT      -0.834000       15.9994           0
     23673 TIP3     4586     TIP3     H1       HT       0.417000       1.00800           0
     23674 TIP3     4586     TIP3     H2       HT       0.417000       1.00800           0
     23675 TIP3     4587     TIP3     OH2      OT      -0.834000       15.9994           0
     23676 TIP3     4587     TIP3     H1       HT       0.417000       1.00800           0
     23677 TIP3     4587     TIP3     H2       HT       0.417000       1.00800           0
     23678 TIP3     4588     TIP3     OH2      OT      -0.834000       15.9994           0
     23679 TIP3     4588     TIP3     H1       HT       0.417000       1.00800           0
     23680 TIP3     4588     TIP3     H2       HT       0.417000       1.00800           0
     23681 TIP3     4589     TIP3     OH2      OT      -0.834000       15.9994           0
     23682 TIP3     4589     TIP3     H1       HT       0.417000       1.00800           0
     23683 TIP3     4589     TIP3     H2       HT       0.417000       1.00800           0
     23684 TIP3     4590     TIP3     OH2      OT      -0.834000       15.9994           0
     23685 TIP3     4590     TIP3     H1       HT       0.417000       1.00800           0
     23686 TIP3     4590     TIP3     H2       HT       0.417000       1.00800           0
     23687 TIP3     4591     TIP3     OH2      OT      -0.834000       15.9994           0
     23688 TIP3     4591     TIP3     H1       HT       0.417000       1.00800           0
     23689 TIP3     4591     TIP3     H2       HT       0.417000       1.00800           0
     23690 TIP3     4592     TIP3     OH2      OT      -0.834000       15.9994           0
     23691 TIP3     4592     TIP3     H1       HT       0.417000       1.00800           0
     23692 TIP3     4592     TIP3     H2       HT       0.417000       1.00800           0
     23693 TIP3     4593     TIP3     OH2      OT      -0.834000       15.9994           0
     23694 TIP3     4593     TIP3     H1       HT       0.417000       1.00800           0
     23695 TIP3     4593     TIP3     H2       HT       0.417000       1.00800           0
     23696 TIP3     4594     TIP3     OH2      OT      -0.834000       15.9994           0
     23697 TIP3     4594     TIP3     H1       HT       0.417000       1.00800           0
     23698 TIP3     4594     TIP3     H2       HT       0.417000       1.00800           0
     23699 TIP3     4595     TIP3     OH2      OT      -0.834000       15.9994           0
     23700 TIP3     4595     TIP3     H1       HT       0.417000       1.00800           0
     23701 TIP3     4595     TIP3     H2       HT       0.417000       1.00800           0
     23702 TIP3     4596     TIP3     OH2      OT      -0.834000       15.9994           0
     23703 TIP3     4596     TIP3     H1       HT       0.417000       1.00800           0
     23704 TIP3     4596     TIP3     H2       HT       0.417000       1.00800           0
     23705 TIP3     4597     TIP3     OH2      OT      -0.834000       15.9994           0
     23706 TIP3     4597     TIP3     H1       HT       0.417000       1.00800           0
     23707 TIP3     4597     TIP3     H2       HT       0.417000       1.00800           0
     23708 TIP3     4598     TIP3     OH2      OT      -0.834000       15.9994           0
     23709 TIP3     4598     TIP3     H1       HT       0.417000       1.00800           0
     23710 TIP3     4598     TIP3     H2       HT       0.417000       1.00800           0
     23711 TIP3     4599     TIP3     OH2      OT      -0.834000       15.9994           0
     23712 TIP3     4599     TIP3     H1       HT       0.417000       1.00800           0
     23713 TIP3     4599     TIP3     H2       HT       0.417000       1.00800           0
     23714 TIP3     4600     TIP3     OH2      OT      -0.834000       15.9994           0
     23715 TIP3     4600     TIP3     H1       HT       0.417000       1.00800           0
     23716 TIP3     4600     TIP3     H2       HT       0.417000       1.00800           0
     23717 TIP3     4601     TIP3     OH2      OT      -0.834000       15.9994           0
     23718 TIP3     4601     TIP3     H1       HT       0.417000       1.00800           0
     23719 TIP3     4601     TIP3     H2       HT       0.417000       1.00800           0
     23720 TIP3     4602     TIP3     OH2      OT      -0.834000       15.9994           0
     23721 TIP3     4602     TIP3     H1       HT       0.417000       1.00800           0
     23722 TIP3     4602     TIP3     H2       HT       0.417000       1.00800           0
     23723 TIP3     4603     TIP3     OH2      OT      -0.834000       15.9994           0
     23724 TIP3     4603     TIP3     H1       HT       0.417000       1.00800           0
     23725 TIP3     4603     TIP3     H2       HT       0.417000       1.00800           0
     23726 TIP3     4604     TIP3     OH2      OT      -0.834000       15.9994           0
     23727 TIP3     4604     TIP3     H1       HT       0.417000       1.00800           0
     23728 TIP3     4604     TIP3     H2       HT       0.417000       1.00800           0
     23729 TIP3     4605     TIP3     OH2      OT      -0.834000       15.9994           0
     23730 TIP3     4605     TIP3     H1       HT       0.417000       1.00800           0
     23731 TIP3     4605     TIP3     H2       HT       0.417000       1.00800           0
     23732 TIP3     4606     TIP3     OH2      OT      -0.834000       15.9994           0
     23733 TIP3     4606     TIP3     H1       HT       0.417000       1.00800           0
     23734 TIP3     4606     TIP3     H2       HT       0.417000       1.00800           0
     23735 TIP3     4607     TIP3     OH2      OT      -0.834000       15.9994           0
     23736 TIP3     4607     TIP3     H1       HT       0.417000       1.00800           0
     23737 TIP3     4607     TIP3     H2       HT       0.417000       1.00800           0
     23738 TIP3     4608     TIP3     OH2      OT      -0.834000       15.9994           0
     23739 TIP3     4608     TIP3     H1       HT       0.417000       1.00800           0
     23740 TIP3     4608     TIP3     H2       HT       0.417000       1.00800           0
     23741 TIP3     4609     TIP3     OH2      OT      -0.834000       15.9994           0
     23742 TIP3     4609     TIP3     H1       HT       0.417000       1.00800           0
     23743 TIP3     4609     TIP3     H2       HT       0.417000       1.00800           0
     23744 TIP3     4610     TIP3     OH2      OT      -0.834000       15.9994           0
     23745 TIP3     4610     TIP3     H1       HT       0.417000       1.00800           0
     23746 TIP3     4610     TIP3     H2       HT       0.417000       1.00800           0
     23747 TIP3     4611     TIP3     OH2      OT      -0.834000       15.9994           0
     23748 TIP3     4611     TIP3     H1       HT       0.417000       1.00800           0
     23749 TIP3     4611     TIP3     H2       HT       0.417000       1.00800           0
     23750 TIP3     4612     TIP3     OH2      OT      -0.834000       15.9994           0
     23751 TIP3     4612     TIP3     H1       HT       0.417000       1.00800           0
     23752 TIP3     4612     TIP3     H2       HT       0.417000       1.00800           0
     23753 TIP3     4613     TIP3     OH2      OT      -0.834000       15.9994           0
     23754 TIP3     4613     TIP3     H1       HT       0.417000       1.00800           0
     23755 TIP3     4613     TIP3     H2       HT       0.417000       1.00800           0
     23756 TIP3     4614     TIP3     OH2      OT      -0.834000       15.9994           0
     23757 TIP3     4614     TIP3     H1       HT       0.417000       1.00800           0
     23758 TIP3     4614     TIP3     H2       HT       0.417000       1.00800           0
     23759 TIP3     4615     TIP3     OH2      OT      -0.834000       15.9994           0
     23760 TIP3     4615     TIP3     H1       HT       0.417000       1.00800           0
     23761 TIP3     4615     TIP3     H2       HT       0.417000       1.00800           0
     23762 TIP3     4616     TIP3     OH2      OT      -0.834000       15.9994           0
     23763 TIP3     4616     TIP3     H1       HT       0.417000       1.00800           0
     23764 TIP3     4616     TIP3     H2       HT       0.417000       1.00800           0
     23765 TIP3     4617     TIP3     OH2      OT      -0.834000       15.9994           0
     23766 TIP3     4617     TIP3     H1       HT       0.417000       1.00800           0
     23767 TIP3     4617     TIP3     H2       HT       0.417000       1.00800           0
     23768 TIP3     4618     TIP3     OH2      OT      -0.834000       15.9994           0
     23769 TIP3     4618     TIP3     H1       HT       0.417000       1.00800           0
     23770 TIP3     4618     TIP3     H2       HT       0.417000       1.00800           0
     23771 TIP3     4619     TIP3     OH2      OT      -0.834000       15.9994           0
     23772 TIP3     4619     TIP3     H1       HT       0.417000       1.00800           0
     23773 TIP3     4619     TIP3     H2       HT       0.417000       1.00800           0
     23774 TIP3     4620     TIP3     OH2      OT      -0.834000       15.9994           0
     23775 TIP3     4620     TIP3     H1       HT       0.417000       1.00800           0
     23776 TIP3     4620     TIP3     H2       HT       0.417000       1.00800           0
     23777 TIP3     4621     TIP3     OH2      OT      -0.834000       15.9994           0
     23778 TIP3     4621     TIP3     H1       HT       0.417000       1.00800           0
     23779 TIP3     4621     TIP3     H2       HT       0.417000       1.00800           0
     23780 TIP3     4622     TIP3     OH2      OT      -0.834000       15.9994           0
     23781 TIP3     4622     TIP3     H1       HT       0.417000       1.00800           0
     23782 TIP3     4622     TIP3     H2       HT       0.417000       1.00800           0
     23783 TIP3     4623     TIP3     OH2      OT      -0.834000       15.9994           0
     23784 TIP3     4623     TIP3     H1       HT       0.417000       1.00800           0
     23785 TIP3     4623     TIP3     H2       HT       0.417000       1.00800           0
     23786 TIP3     4624     TIP3     OH2      OT      -0.834000       15.9994           0
     23787 TIP3     4624     TIP3     H1       HT       0.417000       1.00800           0
     23788 TIP3     4624     TIP3     H2       HT       0.417000       1.00800           0
     23789 TIP3     4625     TIP3     OH2      OT      -0.834000       15.9994           0
     23790 TIP3     4625     TIP3     H1       HT       0.417000       1.00800           0
     23791 TIP3     4625     TIP3     H2       HT       0.417000       1.00800           0
     23792 TIP3     4626     TIP3     OH2      OT      -0.834000       15.9994           0
     23793 TIP3     4626     TIP3     H1       HT       0.417000       1.00800           0
     23794 TIP3     4626     TIP3     H2       HT       0.417000       1.00800           0
     23795 TIP3     4627     TIP3     OH2      OT      -0.834000       15.9994           0
     23796 TIP3     4627     TIP3     H1       HT       0.417000       1.00800           0
     23797 TIP3     4627     TIP3     H2       HT       0.417000       1.00800           0
     23798 TIP3     4628     TIP3     OH2      OT      -0.834000       15.9994           0
     23799 TIP3     4628     TIP3     H1       HT       0.417000       1.00800           0
     23800 TIP3     4628     TIP3     H2       HT       0.417000       1.00800           0
     23801 TIP3     4629     TIP3     OH2      OT      -0.834000       15.9994           0
     23802 TIP3     4629     TIP3     H1       HT       0.417000       1.00800           0
     23803 TIP3     4629     TIP3     H2       HT       0.417000       1.00800           0
     23804 TIP3     4630     TIP3     OH2      OT      -0.834000       15.9994           0
     23805 TIP3     4630     TIP3     H1       HT       0.417000       1.00800           0
     23806 TIP3     4630     TIP3     H2       HT       0.417000       1.00800           0
     23807 TIP3     4631     TIP3     OH2      OT      -0.834000       15.9994           0
     23808 TIP3     4631     TIP3     H1       HT       0.417000       1.00800           0
     23809 TIP3     4631     TIP3     H2       HT       0.417000       1.00800           0
     23810 TIP3     4632     TIP3     OH2      OT      -0.834000       15.9994           0
     23811 TIP3     4632     TIP3     H1       HT       0.417000       1.00800           0
     23812 TIP3     4632     TIP3     H2       HT       0.417000       1.00800           0
     23813 TIP3     4633     TIP3     OH2      OT      -0.834000       15.9994           0
     23814 TIP3     4633     TIP3     H1       HT       0.417000       1.00800           0
     23815 TIP3     4633     TIP3     H2       HT       0.417000       1.00800           0
     23816 TIP3     4634     TIP3     OH2      OT      -0.834000       15.9994           0
     23817 TIP3     4634     TIP3     H1       HT       0.417000       1.00800           0
     23818 TIP3     4634     TIP3     H2       HT       0.417000       1.00800           0
     23819 TIP3     4635     TIP3     OH2      OT      -0.834000       15.9994           0
     23820 TIP3     4635     TIP3     H1       HT       0.417000       1.00800           0
     23821 TIP3     4635     TIP3     H2       HT       0.417000       1.00800           0
     23822 TIP3     4636     TIP3     OH2      OT      -0.834000       15.9994           0
     23823 TIP3     4636     TIP3     H1       HT       0.417000       1.00800           0
     23824 TIP3     4636     TIP3     H2       HT       0.417000       1.00800           0
     23825 TIP3     4637     TIP3     OH2      OT      -0.834000       15.9994           0
     23826 TIP3     4637     TIP3     H1       HT       0.417000       1.00800           0
     23827 TIP3     4637     TIP3     H2       HT       0.417000       1.00800           0
     23828 TIP3     4638     TIP3     OH2      OT      -0.834000       15.9994           0
     23829 TIP3     4638     TIP3     H1       HT       0.417000       1.00800           0
     23830 TIP3     4638     TIP3     H2       HT       0.417000       1.00800           0
     23831 TIP3     4639     TIP3     OH2      OT      -0.834000       15.9994           0
     23832 TIP3     4639     TIP3     H1       HT       0.417000       1.00800           0
     23833 TIP3     4639     TIP3     H2       HT       0.417000       1.00800           0
     23834 TIP3     4640     TIP3     OH2      OT      -0.834000       15.9994           0
     23835 TIP3     4640     TIP3     H1       HT       0.417000       1.00800           0
     23836 TIP3     4640     TIP3     H2       HT       0.417000       1.00800           0
     23837 TIP3     4641     TIP3     OH2      OT      -0.834000       15.9994           0
     23838 TIP3     4641     TIP3     H1       HT       0.417000       1.00800           0
     23839 TIP3     4641     TIP3     H2       HT       0.417000       1.00800           0
     23840 TIP3     4642     TIP3     OH2      OT      -0.834000       15.9994           0
     23841 TIP3     4642     TIP3     H1       HT       0.417000       1.00800           0
     23842 TIP3     4642     TIP3     H2       HT       0.417000       1.00800           0
     23843 TIP3     4643     TIP3     OH2      OT      -0.834000       15.9994           0
     23844 TIP3     4643     TIP3     H1       HT       0.417000       1.00800           0
     23845 TIP3     4643     TIP3     H2       HT       0.417000       1.00800           0
     23846 TIP3     4644     TIP3     OH2      OT      -0.834000       15.9994           0
     23847 TIP3     4644     TIP3     H1       HT       0.417000       1.00800           0
     23848 TIP3     4644     TIP3     H2       HT       0.417000       1.00800           0
     23849 TIP3     4645     TIP3     OH2      OT      -0.834000       15.9994           0
     23850 TIP3     4645     TIP3     H1       HT       0.417000       1.00800           0
     23851 TIP3     4645     TIP3     H2       HT       0.417000       1.00800           0
     23852 TIP3     4646     TIP3     OH2      OT      -0.834000       15.9994           0
     23853 TIP3     4646     TIP3     H1       HT       0.417000       1.00800           0
     23854 TIP3     4646     TIP3     H2       HT       0.417000       1.00800           0
     23855 TIP3     4647     TIP3     OH2      OT      -0.834000       15.9994           0
     23856 TIP3     4647     TIP3     H1       HT       0.417000       1.00800           0
     23857 TIP3     4647     TIP3     H2       HT       0.417000       1.00800           0
     23858 TIP3     4648     TIP3     OH2      OT      -0.834000       15.9994           0
     23859 TIP3     4648     TIP3     H1       HT       0.417000       1.00800           0
     23860 TIP3     4648     TIP3     H2       HT       0.417000       1.00800           0
     23861 TIP3     4649     TIP3     OH2      OT      -0.834000       15.9994           0
     23862 TIP3     4649     TIP3     H1       HT       0.417000       1.00800           0
     23863 TIP3     4649     TIP3     H2       HT       0.417000       1.00800           0
     23864 TIP3     4650     TIP3     OH2      OT      -0.834000       15.9994           0
     23865 TIP3     4650     TIP3     H1       HT       0.417000       1.00800           0
     23866 TIP3     4650     TIP3     H2       HT       0.417000       1.00800           0
     23867 TIP3     4651     TIP3     OH2      OT      -0.834000       15.9994           0
     23868 TIP3     4651     TIP3     H1       HT       0.417000       1.00800           0
     23869 TIP3     4651     TIP3     H2       HT       0.417000       1.00800           0
     23870 TIP3     4652     TIP3     OH2      OT      -0.834000       15.9994           0
     23871 TIP3     4652     TIP3     H1       HT       0.417000       1.00800           0
     23872 TIP3     4652     TIP3     H2       HT       0.417000       1.00800           0
     23873 TIP3     4653     TIP3     OH2      OT      -0.834000       15.9994           0
     23874 TIP3     4653     TIP3     H1       HT       0.417000       1.00800           0
     23875 TIP3     4653     TIP3     H2       HT       0.417000       1.00800           0
     23876 TIP3     4654     TIP3     OH2      OT      -0.834000       15.9994           0
     23877 TIP3     4654     TIP3     H1       HT       0.417000       1.00800           0
     23878 TIP3     4654     TIP3     H2       HT       0.417000       1.00800           0
     23879 TIP3     4655     TIP3     OH2      OT      -0.834000       15.9994           0
     23880 TIP3     4655     TIP3     H1       HT       0.417000       1.00800           0
     23881 TIP3     4655     TIP3     H2       HT       0.417000       1.00800           0
     23882 TIP3     4656     TIP3     OH2      OT      -0.834000       15.9994           0
     23883 TIP3     4656     TIP3     H1       HT       0.417000       1.00800           0
     23884 TIP3     4656     TIP3     H2       HT       0.417000       1.00800           0
     23885 TIP3     4657     TIP3     OH2      OT      -0.834000       15.9994           0
     23886 TIP3     4657     TIP3     H1       HT       0.417000       1.00800           0
     23887 TIP3     4657     TIP3     H2       HT       0.417000       1.00800           0
     23888 TIP3     4658     TIP3     OH2      OT      -0.834000       15.9994           0
     23889 TIP3     4658     TIP3     H1       HT       0.417000       1.00800           0
     23890 TIP3     4658     TIP3     H2       HT       0.417000       1.00800           0
     23891 TIP3     4659     TIP3     OH2      OT      -0.834000       15.9994           0
     23892 TIP3     4659     TIP3     H1       HT       0.417000       1.00800           0
     23893 TIP3     4659     TIP3     H2       HT       0.417000       1.00800           0
     23894 TIP3     4660     TIP3     OH2      OT      -0.834000       15.9994           0
     23895 TIP3     4660     TIP3     H1       HT       0.417000       1.00800           0
     23896 TIP3     4660     TIP3     H2       HT       0.417000       1.00800           0
     23897 TIP3     4661     TIP3     OH2      OT      -0.834000       15.9994           0
     23898 TIP3     4661     TIP3     H1       HT       0.417000       1.00800           0
     23899 TIP3     4661     TIP3     H2       HT       0.417000       1.00800           0
     23900 TIP3     4662     TIP3     OH2      OT      -0.834000       15.9994           0
     23901 TIP3     4662     TIP3     H1       HT       0.417000       1.00800           0
     23902 TIP3     4662     TIP3     H2       HT       0.417000       1.00800           0
     23903 TIP3     4663     TIP3     OH2      OT      -0.834000       15.9994           0
     23904 TIP3     4663     TIP3     H1       HT       0.417000       1.00800           0
     23905 TIP3     4663     TIP3     H2       HT       0.417000       1.00800           0
     23906 TIP3     4664     TIP3     OH2      OT      -0.834000       15.9994           0
     23907 TIP3     4664     TIP3     H1       HT       0.417000       1.00800           0
     23908 TIP3     4664     TIP3     H2       HT       0.417000       1.00800           0
     23909 TIP3     4665     TIP3     OH2      OT      -0.834000       15.9994           0
     23910 TIP3     4665     TIP3     H1       HT       0.417000       1.00800           0
     23911 TIP3     4665     TIP3     H2       HT       0.417000       1.00800           0
     23912 TIP3     4666     TIP3     OH2      OT      -0.834000       15.9994           0
     23913 TIP3     4666     TIP3     H1       HT       0.417000       1.00800           0
     23914 TIP3     4666     TIP3     H2       HT       0.417000       1.00800           0
     23915 TIP3     4667     TIP3     OH2      OT      -0.834000       15.9994           0
     23916 TIP3     4667     TIP3     H1       HT       0.417000       1.00800           0
     23917 TIP3     4667     TIP3     H2       HT       0.417000       1.00800           0
     23918 TIP3     4668     TIP3     OH2      OT      -0.834000       15.9994           0
     23919 TIP3     4668     TIP3     H1       HT       0.417000       1.00800           0
     23920 TIP3     4668     TIP3     H2       HT       0.417000       1.00800           0
     23921 TIP3     4669     TIP3     OH2      OT      -0.834000       15.9994           0
     23922 TIP3     4669     TIP3     H1       HT       0.417000       1.00800           0
     23923 TIP3     4669     TIP3     H2       HT       0.417000       1.00800           0
     23924 TIP3     4670     TIP3     OH2      OT      -0.834000       15.9994           0
     23925 TIP3     4670     TIP3     H1       HT       0.417000       1.00800           0
     23926 TIP3     4670     TIP3     H2       HT       0.417000       1.00800           0
     23927 TIP3     4671     TIP3     OH2      OT      -0.834000       15.9994           0
     23928 TIP3     4671     TIP3     H1       HT       0.417000       1.00800           0
     23929 TIP3     4671     TIP3     H2       HT       0.417000       1.00800           0
     23930 TIP3     4672     TIP3     OH2      OT      -0.834000       15.9994           0
     23931 TIP3     4672     TIP3     H1       HT       0.417000       1.00800           0
     23932 TIP3     4672     TIP3     H2       HT       0.417000       1.00800           0
     23933 TIP3     4673     TIP3     OH2      OT      -0.834000       15.9994           0
     23934 TIP3     4673     TIP3     H1       HT       0.417000       1.00800           0
     23935 TIP3     4673     TIP3     H2       HT       0.417000       1.00800           0
     23936 TIP3     4674     TIP3     OH2      OT      -0.834000       15.9994           0
     23937 TIP3     4674     TIP3     H1       HT       0.417000       1.00800           0
     23938 TIP3     4674     TIP3     H2       HT       0.417000       1.00800           0
     23939 TIP3     4675     TIP3     OH2      OT      -0.834000       15.9994           0
     23940 TIP3     4675     TIP3     H1       HT       0.417000       1.00800           0
     23941 TIP3     4675     TIP3     H2       HT       0.417000       1.00800           0
     23942 TIP3     4676     TIP3     OH2      OT      -0.834000       15.9994           0
     23943 TIP3     4676     TIP3     H1       HT       0.417000       1.00800           0
     23944 TIP3     4676     TIP3     H2       HT       0.417000       1.00800           0
     23945 TIP3     4677     TIP3     OH2      OT      -0.834000       15.9994           0
     23946 TIP3     4677     TIP3     H1       HT       0.417000       1.00800           0
     23947 TIP3     4677     TIP3     H2       HT       0.417000       1.00800           0
     23948 TIP3     4678     TIP3     OH2      OT      -0.834000       15.9994           0
     23949 TIP3     4678     TIP3     H1       HT       0.417000       1.00800           0
     23950 TIP3     4678     TIP3     H2       HT       0.417000       1.00800           0
     23951 TIP3     4679     TIP3     OH2      OT      -0.834000       15.9994           0
     23952 TIP3     4679     TIP3     H1       HT       0.417000       1.00800           0
     23953 TIP3     4679     TIP3     H2       HT       0.417000       1.00800           0
     23954 TIP3     4680     TIP3     OH2      OT      -0.834000       15.9994           0
     23955 TIP3     4680     TIP3     H1       HT       0.417000       1.00800           0
     23956 TIP3     4680     TIP3     H2       HT       0.417000       1.00800           0
     23957 TIP3     4681     TIP3     OH2      OT      -0.834000       15.9994           0
     23958 TIP3     4681     TIP3     H1       HT       0.417000       1.00800           0
     23959 TIP3     4681     TIP3     H2       HT       0.417000       1.00800           0
     23960 TIP3     4682     TIP3     OH2      OT      -0.834000       15.9994           0
     23961 TIP3     4682     TIP3     H1       HT       0.417000       1.00800           0
     23962 TIP3     4682     TIP3     H2       HT       0.417000       1.00800           0
     23963 TIP3     4683     TIP3     OH2      OT      -0.834000       15.9994           0
     23964 TIP3     4683     TIP3     H1       HT       0.417000       1.00800           0
     23965 TIP3     4683     TIP3     H2       HT       0.417000       1.00800           0
     23966 TIP3     4684     TIP3     OH2      OT      -0.834000       15.9994           0
     23967 TIP3     4684     TIP3     H1       HT       0.417000       1.00800           0
     23968 TIP3     4684     TIP3     H2       HT       0.417000       1.00800           0
     23969 TIP3     4685     TIP3     OH2      OT      -0.834000       15.9994           0
     23970 TIP3     4685     TIP3     H1       HT       0.417000       1.00800           0
     23971 TIP3     4685     TIP3     H2       HT       0.417000       1.00800           0
     23972 TIP3     4686     TIP3     OH2      OT      -0.834000       15.9994           0
     23973 TIP3     4686     TIP3     H1       HT       0.417000       1.00800           0
     23974 TIP3     4686     TIP3     H2       HT       0.417000       1.00800           0
     23975 TIP3     4687     TIP3     OH2      OT      -0.834000       15.9994           0
     23976 TIP3     4687     TIP3     H1       HT       0.417000       1.00800           0
     23977 TIP3     4687     TIP3     H2       HT       0.417000       1.00800           0
     23978 TIP3     4688     TIP3     OH2      OT      -0.834000       15.9994           0
     23979 TIP3     4688     TIP3     H1       HT       0.417000       1.00800           0
     23980 TIP3     4688     TIP3     H2       HT       0.417000       1.00800           0
     23981 TIP3     4689     TIP3     OH2      OT      -0.834000       15.9994           0
     23982 TIP3     4689     TIP3     H1       HT       0.417000       1.00800           0
     23983 TIP3     4689     TIP3     H2       HT       0.417000       1.00800           0
     23984 TIP3     4690     TIP3     OH2      OT      -0.834000       15.9994           0
     23985 TIP3     4690     TIP3     H1       HT       0.417000       1.00800           0
     23986 TIP3     4690     TIP3     H2       HT       0.417000       1.00800           0
     23987 TIP3     4691     TIP3     OH2      OT      -0.834000       15.9994           0
     23988 TIP3     4691     TIP3     H1       HT       0.417000       1.00800           0
     23989 TIP3     4691     TIP3     H2       HT       0.417000       1.00800           0
     23990 TIP3     4692     TIP3     OH2      OT      -0.834000       15.9994           0
     23991 TIP3     4692     TIP3     H1       HT       0.417000       1.00800           0
     23992 TIP3     4692     TIP3     H2       HT       0.417000       1.00800           0
     23993 TIP3     4693     TIP3     OH2      OT      -0.834000       15.9994           0
     23994 TIP3     4693     TIP3     H1       HT       0.417000       1.00800           0
     23995 TIP3     4693     TIP3     H2       HT       0.417000       1.00800           0
     23996 TIP3     4694     TIP3     OH2      OT      -0.834000       15.9994           0
     23997 TIP3     4694     TIP3     H1       HT       0.417000       1.00800           0
     23998 TIP3     4694     TIP3     H2       HT       0.417000       1.00800           0
     23999 TIP3     4695     TIP3     OH2      OT      -0.834000       15.9994           0
     24000 TIP3     4695     TIP3     H1       HT       0.417000       1.00800           0
     24001 TIP3     4695     TIP3     H2       HT       0.417000       1.00800           0
     24002 TIP3     4696     TIP3     OH2      OT      -0.834000       15.9994           0
     24003 TIP3     4696     TIP3     H1       HT       0.417000       1.00800           0
     24004 TIP3     4696     TIP3     H2       HT       0.417000       1.00800           0
     24005 TIP3     4697     TIP3     OH2      OT      -0.834000       15.9994           0
     24006 TIP3     4697     TIP3     H1       HT       0.417000       1.00800           0
     24007 TIP3     4697     TIP3     H2       HT       0.417000       1.00800           0
     24008 TIP3     4698     TIP3     OH2      OT      -0.834000       15.9994           0
     24009 TIP3     4698     TIP3     H1       HT       0.417000       1.00800           0
     24010 TIP3     4698     TIP3     H2       HT       0.417000       1.00800           0
     24011 TIP3     4699     TIP3     OH2      OT      -0.834000       15.9994           0
     24012 TIP3     4699     TIP3     H1       HT       0.417000       1.00800           0
     24013 TIP3     4699     TIP3     H2       HT       0.417000       1.00800           0
     24014 TIP3     4700     TIP3     OH2      OT      -0.834000       15.9994           0
     24015 TIP3     4700     TIP3     H1       HT       0.417000       1.00800           0
     24016 TIP3     4700     TIP3     H2       HT       0.417000       1.00800           0
     24017 TIP3     4701     TIP3     OH2      OT      -0.834000       15.9994           0
     24018 TIP3     4701     TIP3     H1       HT       0.417000       1.00800           0
     24019 TIP3     4701     TIP3     H2       HT       0.417000       1.00800           0
     24020 TIP3     4702     TIP3     OH2      OT      -0.834000       15.9994           0
     24021 TIP3     4702     TIP3     H1       HT       0.417000       1.00800           0
     24022 TIP3     4702     TIP3     H2       HT       0.417000       1.00800           0
     24023 TIP3     4703     TIP3     OH2      OT      -0.834000       15.9994           0
     24024 TIP3     4703     TIP3     H1       HT       0.417000       1.00800           0
     24025 TIP3     4703     TIP3     H2       HT       0.417000       1.00800           0
     24026 TIP3     4704     TIP3     OH2      OT      -0.834000       15.9994           0
     24027 TIP3     4704     TIP3     H1       HT       0.417000       1.00800           0
     24028 TIP3     4704     TIP3     H2       HT       0.417000       1.00800           0
     24029 TIP3     4705     TIP3     OH2      OT      -0.834000       15.9994           0
     24030 TIP3     4705     TIP3     H1       HT       0.417000       1.00800           0
     24031 TIP3     4705     TIP3     H2       HT       0.417000       1.00800           0
     24032 TIP3     4706     TIP3     OH2      OT      -0.834000       15.9994           0
     24033 TIP3     4706     TIP3     H1       HT       0.417000       1.00800           0
     24034 TIP3     4706     TIP3     H2       HT       0.417000       1.00800           0
     24035 TIP3     4707     TIP3     OH2      OT      -0.834000       15.9994           0
     24036 TIP3     4707     TIP3     H1       HT       0.417000       1.00800           0
     24037 TIP3     4707     TIP3     H2       HT       0.417000       1.00800           0
     24038 TIP3     4708     TIP3     OH2      OT      -0.834000       15.9994           0
     24039 TIP3     4708     TIP3     H1       HT       0.417000       1.00800           0
     24040 TIP3     4708     TIP3     H2       HT       0.417000       1.00800           0
     24041 TIP3     4709     TIP3     OH2      OT      -0.834000       15.9994           0
     24042 TIP3     4709     TIP3     H1       HT       0.417000       1.00800           0
     24043 TIP3     4709     TIP3     H2       HT       0.417000       1.00800           0
     24044 TIP3     4710     TIP3     OH2      OT      -0.834000       15.9994           0
     24045 TIP3     4710     TIP3     H1       HT       0.417000       1.00800           0
     24046 TIP3     4710     TIP3     H2       HT       0.417000       1.00800           0
     24047 TIP3     4711     TIP3     OH2      OT      -0.834000       15.9994           0
     24048 TIP3     4711     TIP3     H1       HT       0.417000       1.00800           0
     24049 TIP3     4711     TIP3     H2       HT       0.417000       1.00800           0
     24050 TIP3     4712     TIP3     OH2      OT      -0.834000       15.9994           0
     24051 TIP3     4712     TIP3     H1       HT       0.417000       1.00800           0
     24052 TIP3     4712     TIP3     H2       HT       0.417000       1.00800           0
     24053 TIP3     4713     TIP3     OH2      OT      -0.834000       15.9994           0
     24054 TIP3     4713     TIP3     H1       HT       0.417000       1.00800           0
     24055 TIP3     4713     TIP3     H2       HT       0.417000       1.00800           0
     24056 TIP3     4714     TIP3     OH2      OT      -0.834000       15.9994           0
     24057 TIP3     4714     TIP3     H1       HT       0.417000       1.00800           0
     24058 TIP3     4714     TIP3     H2       HT       0.417000       1.00800           0
     24059 TIP3     4715     TIP3     OH2      OT      -0.834000       15.9994           0
     24060 TIP3     4715     TIP3     H1       HT       0.417000       1.00800           0
     24061 TIP3     4715     TIP3     H2       HT       0.417000       1.00800           0
     24062 TIP3     4716     TIP3     OH2      OT      -0.834000       15.9994           0
     24063 TIP3     4716     TIP3     H1       HT       0.417000       1.00800           0
     24064 TIP3     4716     TIP3     H2       HT       0.417000       1.00800           0
     24065 TIP3     4717     TIP3     OH2      OT      -0.834000       15.9994           0
     24066 TIP3     4717     TIP3     H1       HT       0.417000       1.00800           0
     24067 TIP3     4717     TIP3     H2       HT       0.417000       1.00800           0
     24068 TIP3     4718     TIP3     OH2      OT      -0.834000       15.9994           0
     24069 TIP3     4718     TIP3     H1       HT       0.417000       1.00800           0
     24070 TIP3     4718     TIP3     H2       HT       0.417000       1.00800           0
     24071 TIP3     4719     TIP3     OH2      OT      -0.834000       15.9994           0
     24072 TIP3     4719     TIP3     H1       HT       0.417000       1.00800           0
     24073 TIP3     4719     TIP3     H2       HT       0.417000       1.00800           0
     24074 TIP3     4720     TIP3     OH2      OT      -0.834000       15.9994           0
     24075 TIP3     4720     TIP3     H1       HT       0.417000       1.00800           0
     24076 TIP3     4720     TIP3     H2       HT       0.417000       1.00800           0
     24077 TIP3     4721     TIP3     OH2      OT      -0.834000       15.9994           0
     24078 TIP3     4721     TIP3     H1       HT       0.417000       1.00800           0
     24079 TIP3     4721     TIP3     H2       HT       0.417000       1.00800           0
     24080 TIP3     4722     TIP3     OH2      OT      -0.834000       15.9994           0
     24081 TIP3     4722     TIP3     H1       HT       0.417000       1.00800           0
     24082 TIP3     4722     TIP3     H2       HT       0.417000       1.00800           0
     24083 TIP3     4723     TIP3     OH2      OT      -0.834000       15.9994           0
     24084 TIP3     4723     TIP3     H1       HT       0.417000       1.00800           0
     24085 TIP3     4723     TIP3     H2       HT       0.417000       1.00800           0
     24086 TIP3     4724     TIP3     OH2      OT      -0.834000       15.9994           0
     24087 TIP3     4724     TIP3     H1       HT       0.417000       1.00800           0
     24088 TIP3     4724     TIP3     H2       HT       0.417000       1.00800           0
     24089 TIP3     4725     TIP3     OH2      OT      -0.834000       15.9994           0
     24090 TIP3     4725     TIP3     H1       HT       0.417000       1.00800           0
     24091 TIP3     4725     TIP3     H2       HT       0.417000       1.00800           0
     24092 TIP3     4726     TIP3     OH2      OT      -0.834000       15.9994           0
     24093 TIP3     4726     TIP3     H1       HT       0.417000       1.00800           0
     24094 TIP3     4726     TIP3     H2       HT       0.417000       1.00800           0
     24095 TIP3     4727     TIP3     OH2      OT      -0.834000       15.9994           0
     24096 TIP3     4727     TIP3     H1       HT       0.417000       1.00800           0
     24097 TIP3     4727     TIP3     H2       HT       0.417000       1.00800           0
     24098 TIP3     4728     TIP3     OH2      OT      -0.834000       15.9994           0
     24099 TIP3     4728     TIP3     H1       HT       0.417000       1.00800           0
     24100 TIP3     4728     TIP3     H2       HT       0.417000       1.00800           0
     24101 TIP3     4729     TIP3     OH2      OT      -0.834000       15.9994           0
     24102 TIP3     4729     TIP3     H1       HT       0.417000       1.00800           0
     24103 TIP3     4729     TIP3     H2       HT       0.417000       1.00800           0
     24104 TIP3     4730     TIP3     OH2      OT      -0.834000       15.9994           0
     24105 TIP3     4730     TIP3     H1       HT       0.417000       1.00800           0
     24106 TIP3     4730     TIP3     H2       HT       0.417000       1.00800           0
     24107 TIP3     4731     TIP3     OH2      OT      -0.834000       15.9994           0
     24108 TIP3     4731     TIP3     H1       HT       0.417000       1.00800           0
     24109 TIP3     4731     TIP3     H2       HT       0.417000       1.00800           0
     24110 TIP3     4732     TIP3     OH2      OT      -0.834000       15.9994           0
     24111 TIP3     4732     TIP3     H1       HT       0.417000       1.00800           0
     24112 TIP3     4732     TIP3     H2       HT       0.417000       1.00800           0
     24113 TIP3     4733     TIP3     OH2      OT      -0.834000       15.9994           0
     24114 TIP3     4733     TIP3     H1       HT       0.417000       1.00800           0
     24115 TIP3     4733     TIP3     H2       HT       0.417000       1.00800           0
     24116 TIP3     4734     TIP3     OH2      OT      -0.834000       15.9994           0
     24117 TIP3     4734     TIP3     H1       HT       0.417000       1.00800           0
     24118 TIP3     4734     TIP3     H2       HT       0.417000       1.00800           0
     24119 TIP3     4735     TIP3     OH2      OT      -0.834000       15.9994           0
     24120 TIP3     4735     TIP3     H1       HT       0.417000       1.00800           0
     24121 TIP3     4735     TIP3     H2       HT       0.417000       1.00800           0
     24122 TIP3     4736     TIP3     OH2      OT      -0.834000       15.9994           0
     24123 TIP3     4736     TIP3     H1       HT       0.417000       1.00800           0
     24124 TIP3     4736     TIP3     H2       HT       0.417000       1.00800           0
     24125 TIP3     4737     TIP3     OH2      OT      -0.834000       15.9994           0
     24126 TIP3     4737     TIP3     H1       HT       0.417000       1.00800           0
     24127 TIP3     4737     TIP3     H2       HT       0.417000       1.00800           0
     24128 TIP3     4738     TIP3     OH2      OT      -0.834000       15.9994           0
     24129 TIP3     4738     TIP3     H1       HT       0.417000       1.00800           0
     24130 TIP3     4738     TIP3     H2       HT       0.417000       1.00800           0
     24131 TIP3     4739     TIP3     OH2      OT      -0.834000       15.9994           0
     24132 TIP3     4739     TIP3     H1       HT       0.417000       1.00800           0
     24133 TIP3     4739     TIP3     H2       HT       0.417000       1.00800           0
     24134 TIP3     4740     TIP3     OH2      OT      -0.834000       15.9994           0
     24135 TIP3     4740     TIP3     H1       HT       0.417000       1.00800           0
     24136 TIP3     4740     TIP3     H2       HT       0.417000       1.00800           0
     24137 TIP3     4741     TIP3     OH2      OT      -0.834000       15.9994           0
     24138 TIP3     4741     TIP3     H1       HT       0.417000       1.00800           0
     24139 TIP3     4741     TIP3     H2       HT       0.417000       1.00800           0
     24140 TIP3     4742     TIP3     OH2      OT      -0.834000       15.9994           0
     24141 TIP3     4742     TIP3     H1       HT       0.417000       1.00800           0
     24142 TIP3     4742     TIP3     H2       HT       0.417000       1.00800           0
     24143 TIP3     4743     TIP3     OH2      OT      -0.834000       15.9994           0
     24144 TIP3     4743     TIP3     H1       HT       0.417000       1.00800           0
     24145 TIP3     4743     TIP3     H2       HT       0.417000       1.00800           0
     24146 TIP3     4744     TIP3     OH2      OT      -0.834000       15.9994           0
     24147 TIP3     4744     TIP3     H1       HT       0.417000       1.00800           0
     24148 TIP3     4744     TIP3     H2       HT       0.417000       1.00800           0
     24149 TIP3     4745     TIP3     OH2      OT      -0.834000       15.9994           0
     24150 TIP3     4745     TIP3     H1       HT       0.417000       1.00800           0
     24151 TIP3     4745     TIP3     H2       HT       0.417000       1.00800           0
     24152 TIP3     4746     TIP3     OH2      OT      -0.834000       15.9994           0
     24153 TIP3     4746     TIP3     H1       HT       0.417000       1.00800           0
     24154 TIP3     4746     TIP3     H2       HT       0.417000       1.00800           0
     24155 TIP3     4747     TIP3     OH2      OT      -0.834000       15.9994           0
     24156 TIP3     4747     TIP3     H1       HT       0.417000       1.00800           0
     24157 TIP3     4747     TIP3     H2       HT       0.417000       1.00800           0
     24158 TIP3     4748     TIP3     OH2      OT      -0.834000       15.9994           0
     24159 TIP3     4748     TIP3     H1       HT       0.417000       1.00800           0
     24160 TIP3     4748     TIP3     H2       HT       0.417000       1.00800           0
     24161 TIP3     4749     TIP3     OH2      OT      -0.834000       15.9994           0
     24162 TIP3     4749     TIP3     H1       HT       0.417000       1.00800           0
     24163 TIP3     4749     TIP3     H2       HT       0.417000       1.00800           0
     24164 TIP3     4750     TIP3     OH2      OT      -0.834000       15.9994           0
     24165 TIP3     4750     TIP3     H1       HT       0.417000       1.00800           0
     24166 TIP3     4750     TIP3     H2       HT       0.417000       1.00800           0
     24167 TIP3     4751     TIP3     OH2      OT      -0.834000       15.9994           0
     24168 TIP3     4751     TIP3     H1       HT       0.417000       1.00800           0
     24169 TIP3     4751     TIP3     H2       HT       0.417000       1.00800           0
     24170 TIP3     4752     TIP3     OH2      OT      -0.834000       15.9994           0
     24171 TIP3     4752     TIP3     H1       HT       0.417000       1.00800           0
     24172 TIP3     4752     TIP3     H2       HT       0.417000       1.00800           0
     24173 TIP3     4753     TIP3     OH2      OT      -0.834000       15.9994           0
     24174 TIP3     4753     TIP3     H1       HT       0.417000       1.00800           0
     24175 TIP3     4753     TIP3     H2       HT       0.417000       1.00800           0
     24176 TIP3     4754     TIP3     OH2      OT      -0.834000       15.9994           0
     24177 TIP3     4754     TIP3     H1       HT       0.417000       1.00800           0
     24178 TIP3     4754     TIP3     H2       HT       0.417000       1.00800           0
     24179 TIP3     4755     TIP3     OH2      OT      -0.834000       15.9994           0
     24180 TIP3     4755     TIP3     H1       HT       0.417000       1.00800           0
     24181 TIP3     4755     TIP3     H2       HT       0.417000       1.00800           0
     24182 TIP3     4756     TIP3     OH2      OT      -0.834000       15.9994           0
     24183 TIP3     4756     TIP3     H1       HT       0.417000       1.00800           0
     24184 TIP3     4756     TIP3     H2       HT       0.417000       1.00800           0
     24185 TIP3     4757     TIP3     OH2      OT      -0.834000       15.9994           0
     24186 TIP3     4757     TIP3     H1       HT       0.417000       1.00800           0
     24187 TIP3     4757     TIP3     H2       HT       0.417000       1.00800           0
     24188 TIP3     4758     TIP3     OH2      OT      -0.834000       15.9994           0
     24189 TIP3     4758     TIP3     H1       HT       0.417000       1.00800           0
     24190 TIP3     4758     TIP3     H2       HT       0.417000       1.00800           0
     24191 TIP3     4759     TIP3     OH2      OT      -0.834000       15.9994           0
     24192 TIP3     4759     TIP3     H1       HT       0.417000       1.00800           0
     24193 TIP3     4759     TIP3     H2       HT       0.417000       1.00800           0
     24194 TIP3     4760     TIP3     OH2      OT      -0.834000       15.9994           0
     24195 TIP3     4760     TIP3     H1       HT       0.417000       1.00800           0
     24196 TIP3     4760     TIP3     H2       HT       0.417000       1.00800           0
     24197 TIP3     4761     TIP3     OH2      OT      -0.834000       15.9994           0
     24198 TIP3     4761     TIP3     H1       HT       0.417000       1.00800           0
     24199 TIP3     4761     TIP3     H2       HT       0.417000       1.00800           0
     24200 TIP3     4762     TIP3     OH2      OT      -0.834000       15.9994           0
     24201 TIP3     4762     TIP3     H1       HT       0.417000       1.00800           0
     24202 TIP3     4762     TIP3     H2       HT       0.417000       1.00800           0
     24203 TIP3     4763     TIP3     OH2      OT      -0.834000       15.9994           0
     24204 TIP3     4763     TIP3     H1       HT       0.417000       1.00800           0
     24205 TIP3     4763     TIP3     H2       HT       0.417000       1.00800           0
     24206 TIP3     4764     TIP3     OH2      OT      -0.834000       15.9994           0
     24207 TIP3     4764     TIP3     H1       HT       0.417000       1.00800           0
     24208 TIP3     4764     TIP3     H2       HT       0.417000       1.00800           0
     24209 TIP3     4765     TIP3     OH2      OT      -0.834000       15.9994           0
     24210 TIP3     4765     TIP3     H1       HT       0.417000       1.00800           0
     24211 TIP3     4765     TIP3     H2       HT       0.417000       1.00800           0
     24212 TIP3     4766     TIP3     OH2      OT      -0.834000       15.9994           0
     24213 TIP3     4766     TIP3     H1       HT       0.417000       1.00800           0
     24214 TIP3     4766     TIP3     H2       HT       0.417000       1.00800           0
     24215 TIP3     4767     TIP3     OH2      OT      -0.834000       15.9994           0
     24216 TIP3     4767     TIP3     H1       HT       0.417000       1.00800           0
     24217 TIP3     4767     TIP3     H2       HT       0.417000       1.00800           0
     24218 TIP3     4768     TIP3     OH2      OT      -0.834000       15.9994           0
     24219 TIP3     4768     TIP3     H1       HT       0.417000       1.00800           0
     24220 TIP3     4768     TIP3     H2       HT       0.417000       1.00800           0
     24221 TIP3     4769     TIP3     OH2      OT      -0.834000       15.9994           0
     24222 TIP3     4769     TIP3     H1       HT       0.417000       1.00800           0
     24223 TIP3     4769     TIP3     H2       HT       0.417000       1.00800           0
     24224 TIP3     4770     TIP3     OH2      OT      -0.834000       15.9994           0
     24225 TIP3     4770     TIP3     H1       HT       0.417000       1.00800           0
     24226 TIP3     4770     TIP3     H2       HT       0.417000       1.00800           0
     24227 TIP3     4771     TIP3     OH2      OT      -0.834000       15.9994           0
     24228 TIP3     4771     TIP3     H1       HT       0.417000       1.00800           0
     24229 TIP3     4771     TIP3     H2       HT       0.417000       1.00800           0
     24230 TIP3     4772     TIP3     OH2      OT      -0.834000       15.9994           0
     24231 TIP3     4772     TIP3     H1       HT       0.417000       1.00800           0
     24232 TIP3     4772     TIP3     H2       HT       0.417000       1.00800           0
     24233 TIP3     4773     TIP3     OH2      OT      -0.834000       15.9994           0
     24234 TIP3     4773     TIP3     H1       HT       0.417000       1.00800           0
     24235 TIP3     4773     TIP3     H2       HT       0.417000       1.00800           0
     24236 TIP3     4774     TIP3     OH2      OT      -0.834000       15.9994           0
     24237 TIP3     4774     TIP3     H1       HT       0.417000       1.00800           0
     24238 TIP3     4774     TIP3     H2       HT       0.417000       1.00800           0
     24239 TIP3     4775     TIP3     OH2      OT      -0.834000       15.9994           0
     24240 TIP3     4775     TIP3     H1       HT       0.417000       1.00800           0
     24241 TIP3     4775     TIP3     H2       HT       0.417000       1.00800           0
     24242 TIP3     4776     TIP3     OH2      OT      -0.834000       15.9994           0
     24243 TIP3     4776     TIP3     H1       HT       0.417000       1.00800           0
     24244 TIP3     4776     TIP3     H2       HT       0.417000       1.00800           0
     24245 TIP3     4777     TIP3     OH2      OT      -0.834000       15.9994           0
     24246 TIP3     4777     TIP3     H1       HT       0.417000       1.00800           0
     24247 TIP3     4777     TIP3     H2       HT       0.417000       1.00800           0
     24248 TIP3     4778     TIP3     OH2      OT      -0.834000       15.9994           0
     24249 TIP3     4778     TIP3     H1       HT       0.417000       1.00800           0
     24250 TIP3     4778     TIP3     H2       HT       0.417000       1.00800           0
     24251 TIP3     4779     TIP3     OH2      OT      -0.834000       15.9994           0
     24252 TIP3     4779     TIP3     H1       HT       0.417000       1.00800           0
     24253 TIP3     4779     TIP3     H2       HT       0.417000       1.00800           0
     24254 TIP3     4780     TIP3     OH2      OT      -0.834000       15.9994           0
     24255 TIP3     4780     TIP3     H1       HT       0.417000       1.00800           0
     24256 TIP3     4780     TIP3     H2       HT       0.417000       1.00800           0
     24257 TIP3     4781     TIP3     OH2      OT      -0.834000       15.9994           0
     24258 TIP3     4781     TIP3     H1       HT       0.417000       1.00800           0
     24259 TIP3     4781     TIP3     H2       HT       0.417000       1.00800           0
     24260 TIP3     4782     TIP3     OH2      OT      -0.834000       15.9994           0
     24261 TIP3     4782     TIP3     H1       HT       0.417000       1.00800           0
     24262 TIP3     4782     TIP3     H2       HT       0.417000       1.00800           0
     24263 TIP3     4783     TIP3     OH2      OT      -0.834000       15.9994           0
     24264 TIP3     4783     TIP3     H1       HT       0.417000       1.00800           0
     24265 TIP3     4783     TIP3     H2       HT       0.417000       1.00800           0
     24266 TIP3     4784     TIP3     OH2      OT      -0.834000       15.9994           0
     24267 TIP3     4784     TIP3     H1       HT       0.417000       1.00800           0
     24268 TIP3     4784     TIP3     H2       HT       0.417000       1.00800           0
     24269 TIP3     4785     TIP3     OH2      OT      -0.834000       15.9994           0
     24270 TIP3     4785     TIP3     H1       HT       0.417000       1.00800           0
     24271 TIP3     4785     TIP3     H2       HT       0.417000       1.00800           0
     24272 TIP3     4786     TIP3     OH2      OT      -0.834000       15.9994           0
     24273 TIP3     4786     TIP3     H1       HT       0.417000       1.00800           0
     24274 TIP3     4786     TIP3     H2       HT       0.417000       1.00800           0
     24275 TIP3     4787     TIP3     OH2      OT      -0.834000       15.9994           0
     24276 TIP3     4787     TIP3     H1       HT       0.417000       1.00800           0
     24277 TIP3     4787     TIP3     H2       HT       0.417000       1.00800           0
     24278 TIP3     4788     TIP3     OH2      OT      -0.834000       15.9994           0
     24279 TIP3     4788     TIP3     H1       HT       0.417000       1.00800           0
     24280 TIP3     4788     TIP3     H2       HT       0.417000       1.00800           0
     24281 TIP3     4789     TIP3     OH2      OT      -0.834000       15.9994           0
     24282 TIP3     4789     TIP3     H1       HT       0.417000       1.00800           0
     24283 TIP3     4789     TIP3     H2       HT       0.417000       1.00800           0
     24284 TIP3     4790     TIP3     OH2      OT      -0.834000       15.9994           0
     24285 TIP3     4790     TIP3     H1       HT       0.417000       1.00800           0
     24286 TIP3     4790     TIP3     H2       HT       0.417000       1.00800           0
     24287 TIP3     4791     TIP3     OH2      OT      -0.834000       15.9994           0
     24288 TIP3     4791     TIP3     H1       HT       0.417000       1.00800           0
     24289 TIP3     4791     TIP3     H2       HT       0.417000       1.00800           0
     24290 TIP3     4792     TIP3     OH2      OT      -0.834000       15.9994           0
     24291 TIP3     4792     TIP3     H1       HT       0.417000       1.00800           0
     24292 TIP3     4792     TIP3     H2       HT       0.417000       1.00800           0
     24293 TIP3     4793     TIP3     OH2      OT      -0.834000       15.9994           0
     24294 TIP3     4793     TIP3     H1       HT       0.417000       1.00800           0
     24295 TIP3     4793     TIP3     H2       HT       0.417000       1.00800           0
     24296 TIP3     4794     TIP3     OH2      OT      -0.834000       15.9994           0
     24297 TIP3     4794     TIP3     H1       HT       0.417000       1.00800           0
     24298 TIP3     4794     TIP3     H2       HT       0.417000       1.00800           0
     24299 TIP3     4795     TIP3     OH2      OT      -0.834000       15.9994           0
     24300 TIP3     4795     TIP3     H1       HT       0.417000       1.00800           0
     24301 TIP3     4795     TIP3     H2       HT       0.417000       1.00800           0
     24302 TIP3     4796     TIP3     OH2      OT      -0.834000       15.9994           0
     24303 TIP3     4796     TIP3     H1       HT       0.417000       1.00800           0
     24304 TIP3     4796     TIP3     H2       HT       0.417000       1.00800           0
     24305 TIP3     4797     TIP3     OH2      OT      -0.834000       15.9994           0
     24306 TIP3     4797     TIP3     H1       HT       0.417000       1.00800           0
     24307 TIP3     4797     TIP3     H2       HT       0.417000       1.00800           0
     24308 TIP3     4798     TIP3     OH2      OT      -0.834000       15.9994           0
     24309 TIP3     4798     TIP3     H1       HT       0.417000       1.00800           0
     24310 TIP3     4798     TIP3     H2       HT       0.417000       1.00800           0
     24311 TIP3     4799     TIP3     OH2      OT      -0.834000       15.9994           0
     24312 TIP3     4799     TIP3     H1       HT       0.417000       1.00800           0
     24313 TIP3     4799     TIP3     H2       HT       0.417000       1.00800           0
     24314 TIP3     4800     TIP3     OH2      OT      -0.834000       15.9994           0
     24315 TIP3     4800     TIP3     H1       HT       0.417000       1.00800           0
     24316 TIP3     4800     TIP3     H2       HT       0.417000       1.00800           0
     24317 TIP3     4801     TIP3     OH2      OT      -0.834000       15.9994           0
     24318 TIP3     4801     TIP3     H1       HT       0.417000       1.00800           0
     24319 TIP3     4801     TIP3     H2       HT       0.417000       1.00800           0
     24320 TIP3     4802     TIP3     OH2      OT      -0.834000       15.9994           0
     24321 TIP3     4802     TIP3     H1       HT       0.417000       1.00800           0
     24322 TIP3     4802     TIP3     H2       HT       0.417000       1.00800           0
     24323 TIP3     4803     TIP3     OH2      OT      -0.834000       15.9994           0
     24324 TIP3     4803     TIP3     H1       HT       0.417000       1.00800           0
     24325 TIP3     4803     TIP3     H2       HT       0.417000       1.00800           0
     24326 TIP3     4804     TIP3     OH2      OT      -0.834000       15.9994           0
     24327 TIP3     4804     TIP3     H1       HT       0.417000       1.00800           0
     24328 TIP3     4804     TIP3     H2       HT       0.417000       1.00800           0
     24329 TIP3     4805     TIP3     OH2      OT      -0.834000       15.9994           0
     24330 TIP3     4805     TIP3     H1       HT       0.417000       1.00800           0
     24331 TIP3     4805     TIP3     H2       HT       0.417000       1.00800           0
     24332 TIP3     4806     TIP3     OH2      OT      -0.834000       15.9994           0
     24333 TIP3     4806     TIP3     H1       HT       0.417000       1.00800           0
     24334 TIP3     4806     TIP3     H2       HT       0.417000       1.00800           0
     24335 TIP3     4807     TIP3     OH2      OT      -0.834000       15.9994           0
     24336 TIP3     4807     TIP3     H1       HT       0.417000       1.00800           0
     24337 TIP3     4807     TIP3     H2       HT       0.417000       1.00800           0
     24338 TIP3     4808     TIP3     OH2      OT      -0.834000       15.9994           0
     24339 TIP3     4808     TIP3     H1       HT       0.417000       1.00800           0
     24340 TIP3     4808     TIP3     H2       HT       0.417000       1.00800           0
     24341 TIP3     4809     TIP3     OH2      OT      -0.834000       15.9994           0
     24342 TIP3     4809     TIP3     H1       HT       0.417000       1.00800           0
     24343 TIP3     4809     TIP3     H2       HT       0.417000       1.00800           0
     24344 TIP3     4810     TIP3     OH2      OT      -0.834000       15.9994           0
     24345 TIP3     4810     TIP3     H1       HT       0.417000       1.00800           0
     24346 TIP3     4810     TIP3     H2       HT       0.417000       1.00800           0
     24347 TIP3     4811     TIP3     OH2      OT      -0.834000       15.9994           0
     24348 TIP3     4811     TIP3     H1       HT       0.417000       1.00800           0
     24349 TIP3     4811     TIP3     H2       HT       0.417000       1.00800           0
     24350 TIP3     4812     TIP3     OH2      OT      -0.834000       15.9994           0
     24351 TIP3     4812     TIP3     H1       HT       0.417000       1.00800           0
     24352 TIP3     4812     TIP3     H2       HT       0.417000       1.00800           0
     24353 TIP3     4813     TIP3     OH2      OT      -0.834000       15.9994           0
     24354 TIP3     4813     TIP3     H1       HT       0.417000       1.00800           0
     24355 TIP3     4813     TIP3     H2       HT       0.417000       1.00800           0
     24356 TIP3     4814     TIP3     OH2      OT      -0.834000       15.9994           0
     24357 TIP3     4814     TIP3     H1       HT       0.417000       1.00800           0
     24358 TIP3     4814     TIP3     H2       HT       0.417000       1.00800           0
     24359 TIP3     4815     TIP3     OH2      OT      -0.834000       15.9994           0
     24360 TIP3     4815     TIP3     H1       HT       0.417000       1.00800           0
     24361 TIP3     4815     TIP3     H2       HT       0.417000       1.00800           0
     24362 TIP3     4816     TIP3     OH2      OT      -0.834000       15.9994           0
     24363 TIP3     4816     TIP3     H1       HT       0.417000       1.00800           0
     24364 TIP3     4816     TIP3     H2       HT       0.417000       1.00800           0
     24365 TIP3     4817     TIP3     OH2      OT      -0.834000       15.9994           0
     24366 TIP3     4817     TIP3     H1       HT       0.417000       1.00800           0
     24367 TIP3     4817     TIP3     H2       HT       0.417000       1.00800           0
     24368 TIP3     4818     TIP3     OH2      OT      -0.834000       15.9994           0
     24369 TIP3     4818     TIP3     H1       HT       0.417000       1.00800           0
     24370 TIP3     4818     TIP3     H2       HT       0.417000       1.00800           0
     24371 TIP3     4819     TIP3     OH2      OT      -0.834000       15.9994           0
     24372 TIP3     4819     TIP3     H1       HT       0.417000       1.00800           0
     24373 TIP3     4819     TIP3     H2       HT       0.417000       1.00800           0
     24374 TIP3     4820     TIP3     OH2      OT      -0.834000       15.9994           0
     24375 TIP3     4820     TIP3     H1       HT       0.417000       1.00800           0
     24376 TIP3     4820     TIP3     H2       HT       0.417000       1.00800           0
     24377 TIP3     4821     TIP3     OH2      OT      -0.834000       15.9994           0
     24378 TIP3     4821     TIP3     H1       HT       0.417000       1.00800           0
     24379 TIP3     4821     TIP3     H2       HT       0.417000       1.00800           0
     24380 TIP3     4822     TIP3     OH2      OT      -0.834000       15.9994           0
     24381 TIP3     4822     TIP3     H1       HT       0.417000       1.00800           0
     24382 TIP3     4822     TIP3     H2       HT       0.417000       1.00800           0
     24383 TIP3     4823     TIP3     OH2      OT      -0.834000       15.9994           0
     24384 TIP3     4823     TIP3     H1       HT       0.417000       1.00800           0
     24385 TIP3     4823     TIP3     H2       HT       0.417000       1.00800           0
     24386 TIP3     4824     TIP3     OH2      OT      -0.834000       15.9994           0
     24387 TIP3     4824     TIP3     H1       HT       0.417000       1.00800           0
     24388 TIP3     4824     TIP3     H2       HT       0.417000       1.00800           0
     24389 TIP3     4825     TIP3     OH2      OT      -0.834000       15.9994           0
     24390 TIP3     4825     TIP3     H1       HT       0.417000       1.00800           0
     24391 TIP3     4825     TIP3     H2       HT       0.417000       1.00800           0
     24392 TIP3     4826     TIP3     OH2      OT      -0.834000       15.9994           0
     24393 TIP3     4826     TIP3     H1       HT       0.417000       1.00800           0
     24394 TIP3     4826     TIP3     H2       HT       0.417000       1.00800           0
     24395 TIP3     4827     TIP3     OH2      OT      -0.834000       15.9994           0
     24396 TIP3     4827     TIP3     H1       HT       0.417000       1.00800           0
     24397 TIP3     4827     TIP3     H2       HT       0.417000       1.00800           0
     24398 TIP3     4828     TIP3     OH2      OT      -0.834000       15.9994           0
     24399 TIP3     4828     TIP3     H1       HT       0.417000       1.00800           0
     24400 TIP3     4828     TIP3     H2       HT       0.417000       1.00800           0
     24401 TIP3     4829     TIP3     OH2      OT      -0.834000       15.9994           0
     24402 TIP3     4829     TIP3     H1       HT       0.417000       1.00800           0
     24403 TIP3     4829     TIP3     H2       HT       0.417000       1.00800           0
     24404 TIP3     4830     TIP3     OH2      OT      -0.834000       15.9994           0
     24405 TIP3     4830     TIP3     H1       HT       0.417000       1.00800           0
     24406 TIP3     4830     TIP3     H2       HT       0.417000       1.00800           0
     24407 TIP3     4831     TIP3     OH2      OT      -0.834000       15.9994           0
     24408 TIP3     4831     TIP3     H1       HT       0.417000       1.00800           0
     24409 TIP3     4831     TIP3     H2       HT       0.417000       1.00800           0
     24410 TIP3     4832     TIP3     OH2      OT      -0.834000       15.9994           0
     24411 TIP3     4832     TIP3     H1       HT       0.417000       1.00800           0
     24412 TIP3     4832     TIP3     H2       HT       0.417000       1.00800           0
     24413 TIP3     4833     TIP3     OH2      OT      -0.834000       15.9994           0
     24414 TIP3     4833     TIP3     H1       HT       0.417000       1.00800           0
     24415 TIP3     4833     TIP3     H2       HT       0.417000       1.00800           0
     24416 TIP3     4834     TIP3     OH2      OT      -0.834000       15.9994           0
     24417 TIP3     4834     TIP3     H1       HT       0.417000       1.00800           0
     24418 TIP3     4834     TIP3     H2       HT       0.417000       1.00800           0
     24419 TIP3     4835     TIP3     OH2      OT      -0.834000       15.9994           0
     24420 TIP3     4835     TIP3     H1       HT       0.417000       1.00800           0
     24421 TIP3     4835     TIP3     H2       HT       0.417000       1.00800           0
     24422 TIP3     4836     TIP3     OH2      OT      -0.834000       15.9994           0
     24423 TIP3     4836     TIP3     H1       HT       0.417000       1.00800           0
     24424 TIP3     4836     TIP3     H2       HT       0.417000       1.00800           0
     24425 TIP3     4837     TIP3     OH2      OT      -0.834000       15.9994           0
     24426 TIP3     4837     TIP3     H1       HT       0.417000       1.00800           0
     24427 TIP3     4837     TIP3     H2       HT       0.417000       1.00800           0
     24428 TIP3     4838     TIP3     OH2      OT      -0.834000       15.9994           0
     24429 TIP3     4838     TIP3     H1       HT       0.417000       1.00800           0
     24430 TIP3     4838     TIP3     H2       HT       0.417000       1.00800           0
     24431 TIP3     4839     TIP3     OH2      OT      -0.834000       15.9994           0
     24432 TIP3     4839     TIP3     H1       HT       0.417000       1.00800           0
     24433 TIP3     4839     TIP3     H2       HT       0.417000       1.00800           0
     24434 TIP3     4840     TIP3     OH2      OT      -0.834000       15.9994           0
     24435 TIP3     4840     TIP3     H1       HT       0.417000       1.00800           0
     24436 TIP3     4840     TIP3     H2       HT       0.417000       1.00800           0
     24437 TIP3     4841     TIP3     OH2      OT      -0.834000       15.9994           0
     24438 TIP3     4841     TIP3     H1       HT       0.417000       1.00800           0
     24439 TIP3     4841     TIP3     H2       HT       0.417000       1.00800           0
     24440 TIP3     4842     TIP3     OH2      OT      -0.834000       15.9994           0
     24441 TIP3     4842     TIP3     H1       HT       0.417000       1.00800           0
     24442 TIP3     4842     TIP3     H2       HT       0.417000       1.00800           0
     24443 TIP3     4843     TIP3     OH2      OT      -0.834000       15.9994           0
     24444 TIP3     4843     TIP3     H1       HT       0.417000       1.00800           0
     24445 TIP3     4843     TIP3     H2       HT       0.417000       1.00800           0
     24446 TIP3     4844     TIP3     OH2      OT      -0.834000       15.9994           0
     24447 TIP3     4844     TIP3     H1       HT       0.417000       1.00800           0
     24448 TIP3     4844     TIP3     H2       HT       0.417000       1.00800           0
     24449 TIP3     4845     TIP3     OH2      OT      -0.834000       15.9994           0
     24450 TIP3     4845     TIP3     H1       HT       0.417000       1.00800           0
     24451 TIP3     4845     TIP3     H2       HT       0.417000       1.00800           0
     24452 TIP3     4846     TIP3     OH2      OT      -0.834000       15.9994           0
     24453 TIP3     4846     TIP3     H1       HT       0.417000       1.00800           0
     24454 TIP3     4846     TIP3     H2       HT       0.417000       1.00800           0
     24455 TIP3     4847     TIP3     OH2      OT      -0.834000       15.9994           0
     24456 TIP3     4847     TIP3     H1       HT       0.417000       1.00800           0
     24457 TIP3     4847     TIP3     H2       HT       0.417000       1.00800           0
     24458 TIP3     4848     TIP3     OH2      OT      -0.834000       15.9994           0
     24459 TIP3     4848     TIP3     H1       HT       0.417000       1.00800           0
     24460 TIP3     4848     TIP3     H2       HT       0.417000       1.00800           0
     24461 TIP3     4849     TIP3     OH2      OT      -0.834000       15.9994           0
     24462 TIP3     4849     TIP3     H1       HT       0.417000       1.00800           0
     24463 TIP3     4849     TIP3     H2       HT       0.417000       1.00800           0
     24464 TIP3     4850     TIP3     OH2      OT      -0.834000       15.9994           0
     24465 TIP3     4850     TIP3     H1       HT       0.417000       1.00800           0
     24466 TIP3     4850     TIP3     H2       HT       0.417000       1.00800           0
     24467 TIP3     4851     TIP3     OH2      OT      -0.834000       15.9994           0
     24468 TIP3     4851     TIP3     H1       HT       0.417000       1.00800           0
     24469 TIP3     4851     TIP3     H2       HT       0.417000       1.00800           0
     24470 TIP3     4852     TIP3     OH2      OT      -0.834000       15.9994           0
     24471 TIP3     4852     TIP3     H1       HT       0.417000       1.00800           0
     24472 TIP3     4852     TIP3     H2       HT       0.417000       1.00800           0
     24473 TIP3     4853     TIP3     OH2      OT      -0.834000       15.9994           0
     24474 TIP3     4853     TIP3     H1       HT       0.417000       1.00800           0
     24475 TIP3     4853     TIP3     H2       HT       0.417000       1.00800           0
     24476 TIP3     4854     TIP3     OH2      OT      -0.834000       15.9994           0
     24477 TIP3     4854     TIP3     H1       HT       0.417000       1.00800           0
     24478 TIP3     4854     TIP3     H2       HT       0.417000       1.00800           0
     24479 TIP3     4855     TIP3     OH2      OT      -0.834000       15.9994           0
     24480 TIP3     4855     TIP3     H1       HT       0.417000       1.00800           0
     24481 TIP3     4855     TIP3     H2       HT       0.417000       1.00800           0
     24482 TIP3     4856     TIP3     OH2      OT      -0.834000       15.9994           0
     24483 TIP3     4856     TIP3     H1       HT       0.417000       1.00800           0
     24484 TIP3     4856     TIP3     H2       HT       0.417000       1.00800           0
     24485 TIP3     4857     TIP3     OH2      OT      -0.834000       15.9994           0
     24486 TIP3     4857     TIP3     H1       HT       0.417000       1.00800           0
     24487 TIP3     4857     TIP3     H2       HT       0.417000       1.00800           0
     24488 TIP3     4858     TIP3     OH2      OT      -0.834000       15.9994           0
     24489 TIP3     4858     TIP3     H1       HT       0.417000       1.00800           0
     24490 TIP3     4858     TIP3     H2       HT       0.417000       1.00800           0
     24491 TIP3     4859     TIP3     OH2      OT      -0.834000       15.9994           0
     24492 TIP3     4859     TIP3     H1       HT       0.417000       1.00800           0
     24493 TIP3     4859     TIP3     H2       HT       0.417000       1.00800           0
     24494 TIP3     4860     TIP3     OH2      OT      -0.834000       15.9994           0
     24495 TIP3     4860     TIP3     H1       HT       0.417000       1.00800           0
     24496 TIP3     4860     TIP3     H2       HT       0.417000       1.00800           0
     24497 TIP3     4861     TIP3     OH2      OT      -0.834000       15.9994           0
     24498 TIP3     4861     TIP3     H1       HT       0.417000       1.00800           0
     24499 TIP3     4861     TIP3     H2       HT       0.417000       1.00800           0
     24500 TIP3     4862     TIP3     OH2      OT      -0.834000       15.9994           0
     24501 TIP3     4862     TIP3     H1       HT       0.417000       1.00800           0
     24502 TIP3     4862     TIP3     H2       HT       0.417000       1.00800           0
     24503 TIP3     4863     TIP3     OH2      OT      -0.834000       15.9994           0
     24504 TIP3     4863     TIP3     H1       HT       0.417000       1.00800           0
     24505 TIP3     4863     TIP3     H2       HT       0.417000       1.00800           0
     24506 TIP3     4864     TIP3     OH2      OT      -0.834000       15.9994           0
     24507 TIP3     4864     TIP3     H1       HT       0.417000       1.00800           0
     24508 TIP3     4864     TIP3     H2       HT       0.417000       1.00800           0
     24509 TIP3     4865     TIP3     OH2      OT      -0.834000       15.9994           0
     24510 TIP3     4865     TIP3     H1       HT       0.417000       1.00800           0
     24511 TIP3     4865     TIP3     H2       HT       0.417000       1.00800           0
     24512 TIP3     4866     TIP3     OH2      OT      -0.834000       15.9994           0
     24513 TIP3     4866     TIP3     H1       HT       0.417000       1.00800           0
     24514 TIP3     4866     TIP3     H2       HT       0.417000       1.00800           0
     24515 TIP3     4867     TIP3     OH2      OT      -0.834000       15.9994           0
     24516 TIP3     4867     TIP3     H1       HT       0.417000       1.00800           0
     24517 TIP3     4867     TIP3     H2       HT       0.417000       1.00800           0
     24518 TIP3     4868     TIP3     OH2      OT      -0.834000       15.9994           0
     24519 TIP3     4868     TIP3     H1       HT       0.417000       1.00800           0
     24520 TIP3     4868     TIP3     H2       HT       0.417000       1.00800           0
     24521 TIP3     4869     TIP3     OH2      OT      -0.834000       15.9994           0
     24522 TIP3     4869     TIP3     H1       HT       0.417000       1.00800           0
     24523 TIP3     4869     TIP3     H2       HT       0.417000       1.00800           0
     24524 TIP3     4870     TIP3     OH2      OT      -0.834000       15.9994           0
     24525 TIP3     4870     TIP3     H1       HT       0.417000       1.00800           0
     24526 TIP3     4870     TIP3     H2       HT       0.417000       1.00800           0
     24527 TIP3     4871     TIP3     OH2      OT      -0.834000       15.9994           0
     24528 TIP3     4871     TIP3     H1       HT       0.417000       1.00800           0
     24529 TIP3     4871     TIP3     H2       HT       0.417000       1.00800           0
     24530 TIP3     4872     TIP3     OH2      OT      -0.834000       15.9994           0
     24531 TIP3     4872     TIP3     H1       HT       0.417000       1.00800           0
     24532 TIP3     4872     TIP3     H2       HT       0.417000       1.00800           0
     24533 TIP3     4873     TIP3     OH2      OT      -0.834000       15.9994           0
     24534 TIP3     4873     TIP3     H1       HT       0.417000       1.00800           0
     24535 TIP3     4873     TIP3     H2       HT       0.417000       1.00800           0
     24536 TIP3     4874     TIP3     OH2      OT      -0.834000       15.9994           0
     24537 TIP3     4874     TIP3     H1       HT       0.417000       1.00800           0
     24538 TIP3     4874     TIP3     H2       HT       0.417000       1.00800           0
     24539 TIP3     4875     TIP3     OH2      OT      -0.834000       15.9994           0
     24540 TIP3     4875     TIP3     H1       HT       0.417000       1.00800           0
     24541 TIP3     4875     TIP3     H2       HT       0.417000       1.00800           0
     24542 TIP3     4876     TIP3     OH2      OT      -0.834000       15.9994           0
     24543 TIP3     4876     TIP3     H1       HT       0.417000       1.00800           0
     24544 TIP3     4876     TIP3     H2       HT       0.417000       1.00800           0
     24545 TIP3     4877     TIP3     OH2      OT      -0.834000       15.9994           0
     24546 TIP3     4877     TIP3     H1       HT       0.417000       1.00800           0
     24547 TIP3     4877     TIP3     H2       HT       0.417000       1.00800           0
     24548 TIP3     4878     TIP3     OH2      OT      -0.834000       15.9994           0
     24549 TIP3     4878     TIP3     H1       HT       0.417000       1.00800           0
     24550 TIP3     4878     TIP3     H2       HT       0.417000       1.00800           0
     24551 TIP3     4879     TIP3     OH2      OT      -0.834000       15.9994           0
     24552 TIP3     4879     TIP3     H1       HT       0.417000       1.00800           0
     24553 TIP3     4879     TIP3     H2       HT       0.417000       1.00800           0
     24554 TIP3     4880     TIP3     OH2      OT      -0.834000       15.9994           0
     24555 TIP3     4880     TIP3     H1       HT       0.417000       1.00800           0
     24556 TIP3     4880     TIP3     H2       HT       0.417000       1.00800           0
     24557 TIP3     4881     TIP3     OH2      OT      -0.834000       15.9994           0
     24558 TIP3     4881     TIP3     H1       HT       0.417000       1.00800           0
     24559 TIP3     4881     TIP3     H2       HT       0.417000       1.00800           0
     24560 TIP3     4882     TIP3     OH2      OT      -0.834000       15.9994           0
     24561 TIP3     4882     TIP3     H1       HT       0.417000       1.00800           0
     24562 TIP3     4882     TIP3     H2       HT       0.417000       1.00800           0
     24563 TIP3     4883     TIP3     OH2      OT      -0.834000       15.9994           0
     24564 TIP3     4883     TIP3     H1       HT       0.417000       1.00800           0
     24565 TIP3     4883     TIP3     H2       HT       0.417000       1.00800           0
     24566 TIP3     4884     TIP3     OH2      OT      -0.834000       15.9994           0
     24567 TIP3     4884     TIP3     H1       HT       0.417000       1.00800           0
     24568 TIP3     4884     TIP3     H2       HT       0.417000       1.00800           0
     24569 TIP3     4885     TIP3     OH2      OT      -0.834000       15.9994           0
     24570 TIP3     4885     TIP3     H1       HT       0.417000       1.00800           0
     24571 TIP3     4885     TIP3     H2       HT       0.417000       1.00800           0
     24572 TIP3     4886     TIP3     OH2      OT      -0.834000       15.9994           0
     24573 TIP3     4886     TIP3     H1       HT       0.417000       1.00800           0
     24574 TIP3     4886     TIP3     H2       HT       0.417000       1.00800           0
     24575 TIP3     4887     TIP3     OH2      OT      -0.834000       15.9994           0
     24576 TIP3     4887     TIP3     H1       HT       0.417000       1.00800           0
     24577 TIP3     4887     TIP3     H2       HT       0.417000       1.00800           0
     24578 TIP3     4888     TIP3     OH2      OT      -0.834000       15.9994           0
     24579 TIP3     4888     TIP3     H1       HT       0.417000       1.00800           0
     24580 TIP3     4888     TIP3     H2       HT       0.417000       1.00800           0
     24581 TIP3     4889     TIP3     OH2      OT      -0.834000       15.9994           0
     24582 TIP3     4889     TIP3     H1       HT       0.417000       1.00800           0
     24583 TIP3     4889     TIP3     H2       HT       0.417000       1.00800           0
     24584 TIP3     4890     TIP3     OH2      OT      -0.834000       15.9994           0
     24585 TIP3     4890     TIP3     H1       HT       0.417000       1.00800           0
     24586 TIP3     4890     TIP3     H2       HT       0.417000       1.00800           0
     24587 TIP3     4891     TIP3     OH2      OT      -0.834000       15.9994           0
     24588 TIP3     4891     TIP3     H1       HT       0.417000       1.00800           0
     24589 TIP3     4891     TIP3     H2       HT       0.417000       1.00800           0
     24590 TIP3     4892     TIP3     OH2      OT      -0.834000       15.9994           0
     24591 TIP3     4892     TIP3     H1       HT       0.417000       1.00800           0
     24592 TIP3     4892     TIP3     H2       HT       0.417000       1.00800           0
     24593 TIP3     4893     TIP3     OH2      OT      -0.834000       15.9994           0
     24594 TIP3     4893     TIP3     H1       HT       0.417000       1.00800           0
     24595 TIP3     4893     TIP3     H2       HT       0.417000       1.00800           0
     24596 TIP3     4894     TIP3     OH2      OT      -0.834000       15.9994           0
     24597 TIP3     4894     TIP3     H1       HT       0.417000       1.00800           0
     24598 TIP3     4894     TIP3     H2       HT       0.417000       1.00800           0
     24599 TIP3     4895     TIP3     OH2      OT      -0.834000       15.9994           0
     24600 TIP3     4895     TIP3     H1       HT       0.417000       1.00800           0
     24601 TIP3     4895     TIP3     H2       HT       0.417000       1.00800           0
     24602 TIP3     4896     TIP3     OH2      OT      -0.834000       15.9994           0
     24603 TIP3     4896     TIP3     H1       HT       0.417000       1.00800           0
     24604 TIP3     4896     TIP3     H2       HT       0.417000       1.00800           0
     24605 TIP3     4897     TIP3     OH2      OT      -0.834000       15.9994           0
     24606 TIP3     4897     TIP3     H1       HT       0.417000       1.00800           0
     24607 TIP3     4897     TIP3     H2       HT       0.417000       1.00800           0
     24608 TIP3     4898     TIP3     OH2      OT      -0.834000       15.9994           0
     24609 TIP3     4898     TIP3     H1       HT       0.417000       1.00800           0
     24610 TIP3     4898     TIP3     H2       HT       0.417000       1.00800           0
     24611 TIP3     4899     TIP3     OH2      OT      -0.834000       15.9994           0
     24612 TIP3     4899     TIP3     H1       HT       0.417000       1.00800           0
     24613 TIP3     4899     TIP3     H2       HT       0.417000       1.00800           0
     24614 TIP3     4900     TIP3     OH2      OT      -0.834000       15.9994           0
     24615 TIP3     4900     TIP3     H1       HT       0.417000       1.00800           0
     24616 TIP3     4900     TIP3     H2       HT       0.417000       1.00800           0
     24617 TIP3     4901     TIP3     OH2      OT      -0.834000       15.9994           0
     24618 TIP3     4901     TIP3     H1       HT       0.417000       1.00800           0
     24619 TIP3     4901     TIP3     H2       HT       0.417000       1.00800           0
     24620 TIP3     4902     TIP3     OH2      OT      -0.834000       15.9994           0
     24621 TIP3     4902     TIP3     H1       HT       0.417000       1.00800           0
     24622 TIP3     4902     TIP3     H2       HT       0.417000       1.00800           0
     24623 TIP3     4903     TIP3     OH2      OT      -0.834000       15.9994           0
     24624 TIP3     4903     TIP3     H1       HT       0.417000       1.00800           0
     24625 TIP3     4903     TIP3     H2       HT       0.417000       1.00800           0
     24626 TIP3     4904     TIP3     OH2      OT      -0.834000       15.9994           0
     24627 TIP3     4904     TIP3     H1       HT       0.417000       1.00800           0
     24628 TIP3     4904     TIP3     H2       HT       0.417000       1.00800           0
     24629 TIP3     4905     TIP3     OH2      OT      -0.834000       15.9994           0
     24630 TIP3     4905     TIP3     H1       HT       0.417000       1.00800           0
     24631 TIP3     4905     TIP3     H2       HT       0.417000       1.00800           0
     24632 TIP3     4906     TIP3     OH2      OT      -0.834000       15.9994           0
     24633 TIP3     4906     TIP3     H1       HT       0.417000       1.00800           0
     24634 TIP3     4906     TIP3     H2       HT       0.417000       1.00800           0
     24635 TIP3     4907     TIP3     OH2      OT      -0.834000       15.9994           0
     24636 TIP3     4907     TIP3     H1       HT       0.417000       1.00800           0
     24637 TIP3     4907     TIP3     H2       HT       0.417000       1.00800           0
     24638 TIP3     4908     TIP3     OH2      OT      -0.834000       15.9994           0
     24639 TIP3     4908     TIP3     H1       HT       0.417000       1.00800           0
     24640 TIP3     4908     TIP3     H2       HT       0.417000       1.00800           0
     24641 TIP3     4909     TIP3     OH2      OT      -0.834000       15.9994           0
     24642 TIP3     4909     TIP3     H1       HT       0.417000       1.00800           0
     24643 TIP3     4909     TIP3     H2       HT       0.417000       1.00800           0
     24644 TIP3     4910     TIP3     OH2      OT      -0.834000       15.9994           0
     24645 TIP3     4910     TIP3     H1       HT       0.417000       1.00800           0
     24646 TIP3     4910     TIP3     H2       HT       0.417000       1.00800           0
     24647 TIP3     4911     TIP3     OH2      OT      -0.834000       15.9994           0
     24648 TIP3     4911     TIP3     H1       HT       0.417000       1.00800           0
     24649 TIP3     4911     TIP3     H2       HT       0.417000       1.00800           0
     24650 TIP3     4912     TIP3     OH2      OT      -0.834000       15.9994           0
     24651 TIP3     4912     TIP3     H1       HT       0.417000       1.00800           0
     24652 TIP3     4912     TIP3     H2       HT       0.417000       1.00800           0
     24653 TIP3     4913     TIP3     OH2      OT      -0.834000       15.9994           0
     24654 TIP3     4913     TIP3     H1       HT       0.417000       1.00800           0
     24655 TIP3     4913     TIP3     H2       HT       0.417000       1.00800           0
     24656 TIP3     4914     TIP3     OH2      OT      -0.834000       15.9994           0
     24657 TIP3     4914     TIP3     H1       HT       0.417000       1.00800           0
     24658 TIP3     4914     TIP3     H2       HT       0.417000       1.00800           0
     24659 TIP3     4915     TIP3     OH2      OT      -0.834000       15.9994           0
     24660 TIP3     4915     TIP3     H1       HT       0.417000       1.00800           0
     24661 TIP3     4915     TIP3     H2       HT       0.417000       1.00800           0
     24662 TIP3     4916     TIP3     OH2      OT      -0.834000       15.9994           0
     24663 TIP3     4916     TIP3     H1       HT       0.417000       1.00800           0
     24664 TIP3     4916     TIP3     H2       HT       0.417000       1.00800           0
     24665 TIP3     4917     TIP3     OH2      OT      -0.834000       15.9994           0
     24666 TIP3     4917     TIP3     H1       HT       0.417000       1.00800           0
     24667 TIP3     4917     TIP3     H2       HT       0.417000       1.00800           0
     24668 TIP3     4918     TIP3     OH2      OT      -0.834000       15.9994           0
     24669 TIP3     4918     TIP3     H1       HT       0.417000       1.00800           0
     24670 TIP3     4918     TIP3     H2       HT       0.417000       1.00800           0
     24671 TIP3     4919     TIP3     OH2      OT      -0.834000       15.9994           0
     24672 TIP3     4919     TIP3     H1       HT       0.417000       1.00800           0
     24673 TIP3     4919     TIP3     H2       HT       0.417000       1.00800           0
     24674 TIP3     4920     TIP3     OH2      OT      -0.834000       15.9994           0
     24675 TIP3     4920     TIP3     H1       HT       0.417000       1.00800           0
     24676 TIP3     4920     TIP3     H2       HT       0.417000       1.00800           0
     24677 TIP3     4921     TIP3     OH2      OT      -0.834000       15.9994           0
     24678 TIP3     4921     TIP3     H1       HT       0.417000       1.00800           0
     24679 TIP3     4921     TIP3     H2       HT       0.417000       1.00800           0
     24680 TIP3     4922     TIP3     OH2      OT      -0.834000       15.9994           0
     24681 TIP3     4922     TIP3     H1       HT       0.417000       1.00800           0
     24682 TIP3     4922     TIP3     H2       HT       0.417000       1.00800           0
     24683 TIP3     4923     TIP3     OH2      OT      -0.834000       15.9994           0
     24684 TIP3     4923     TIP3     H1       HT       0.417000       1.00800           0
     24685 TIP3     4923     TIP3     H2       HT       0.417000       1.00800           0
     24686 TIP3     4924     TIP3     OH2      OT      -0.834000       15.9994           0
     24687 TIP3     4924     TIP3     H1       HT       0.417000       1.00800           0
     24688 TIP3     4924     TIP3     H2       HT       0.417000       1.00800           0
     24689 TIP3     4925     TIP3     OH2      OT      -0.834000       15.9994           0
     24690 TIP3     4925     TIP3     H1       HT       0.417000       1.00800           0
     24691 TIP3     4925     TIP3     H2       HT       0.417000       1.00800           0
     24692 TIP3     4926     TIP3     OH2      OT      -0.834000       15.9994           0
     24693 TIP3     4926     TIP3     H1       HT       0.417000       1.00800           0
     24694 TIP3     4926     TIP3     H2       HT       0.417000       1.00800           0
     24695 TIP3     4927     TIP3     OH2      OT      -0.834000       15.9994           0
     24696 TIP3     4927     TIP3     H1       HT       0.417000       1.00800           0
     24697 TIP3     4927     TIP3     H2       HT       0.417000       1.00800           0
     24698 TIP3     4928     TIP3     OH2      OT      -0.834000       15.9994           0
     24699 TIP3     4928     TIP3     H1       HT       0.417000       1.00800           0
     24700 TIP3     4928     TIP3     H2       HT       0.417000       1.00800           0
     24701 TIP3     4929     TIP3     OH2      OT      -0.834000       15.9994           0
     24702 TIP3     4929     TIP3     H1       HT       0.417000       1.00800           0
     24703 TIP3     4929     TIP3     H2       HT       0.417000       1.00800           0
     24704 TIP3     4930     TIP3     OH2      OT      -0.834000       15.9994           0
     24705 TIP3     4930     TIP3     H1       HT       0.417000       1.00800           0
     24706 TIP3     4930     TIP3     H2       HT       0.417000       1.00800           0
     24707 TIP3     4931     TIP3     OH2      OT      -0.834000       15.9994           0
     24708 TIP3     4931     TIP3     H1       HT       0.417000       1.00800           0
     24709 TIP3     4931     TIP3     H2       HT       0.417000       1.00800           0
     24710 TIP3     4932     TIP3     OH2      OT      -0.834000       15.9994           0
     24711 TIP3     4932     TIP3     H1       HT       0.417000       1.00800           0
     24712 TIP3     4932     TIP3     H2       HT       0.417000       1.00800           0
     24713 TIP3     4933     TIP3     OH2      OT      -0.834000       15.9994           0
     24714 TIP3     4933     TIP3     H1       HT       0.417000       1.00800           0
     24715 TIP3     4933     TIP3     H2       HT       0.417000       1.00800           0
     24716 TIP3     4934     TIP3     OH2      OT      -0.834000       15.9994           0
     24717 TIP3     4934     TIP3     H1       HT       0.417000       1.00800           0
     24718 TIP3     4934     TIP3     H2       HT       0.417000       1.00800           0
     24719 TIP3     4935     TIP3     OH2      OT      -0.834000       15.9994           0
     24720 TIP3     4935     TIP3     H1       HT       0.417000       1.00800           0
     24721 TIP3     4935     TIP3     H2       HT       0.417000       1.00800           0
     24722 TIP3     4936     TIP3     OH2      OT      -0.834000       15.9994           0
     24723 TIP3     4936     TIP3     H1       HT       0.417000       1.00800           0
     24724 TIP3     4936     TIP3     H2       HT       0.417000       1.00800           0
     24725 TIP3     4937     TIP3     OH2      OT      -0.834000       15.9994           0
     24726 TIP3     4937     TIP3     H1       HT       0.417000       1.00800           0
     24727 TIP3     4937     TIP3     H2       HT       0.417000       1.00800           0
     24728 TIP3     4938     TIP3     OH2      OT      -0.834000       15.9994           0
     24729 TIP3     4938     TIP3     H1       HT       0.417000       1.00800           0
     24730 TIP3     4938     TIP3     H2       HT       0.417000       1.00800           0
     24731 TIP3     4939     TIP3     OH2      OT      -0.834000       15.9994           0
     24732 TIP3     4939     TIP3     H1       HT       0.417000       1.00800           0
     24733 TIP3     4939     TIP3     H2       HT       0.417000       1.00800           0
     24734 TIP3     4940     TIP3     OH2      OT      -0.834000       15.9994           0
     24735 TIP3     4940     TIP3     H1       HT       0.417000       1.00800           0
     24736 TIP3     4940     TIP3     H2       HT       0.417000       1.00800           0
     24737 TIP3     4941     TIP3     OH2      OT      -0.834000       15.9994           0
     24738 TIP3     4941     TIP3     H1       HT       0.417000       1.00800           0
     24739 TIP3     4941     TIP3     H2       HT       0.417000       1.00800           0
     24740 TIP3     4942     TIP3     OH2      OT      -0.834000       15.9994           0
     24741 TIP3     4942     TIP3     H1       HT       0.417000       1.00800           0
     24742 TIP3     4942     TIP3     H2       HT       0.417000       1.00800           0
     24743 TIP3     4943     TIP3     OH2      OT      -0.834000       15.9994           0
     24744 TIP3     4943     TIP3     H1       HT       0.417000       1.00800           0
     24745 TIP3     4943     TIP3     H2       HT       0.417000       1.00800           0
     24746 TIP3     4944     TIP3     OH2      OT      -0.834000       15.9994           0
     24747 TIP3     4944     TIP3     H1       HT       0.417000       1.00800           0
     24748 TIP3     4944     TIP3     H2       HT       0.417000       1.00800           0
     24749 TIP3     4945     TIP3     OH2      OT      -0.834000       15.9994           0
     24750 TIP3     4945     TIP3     H1       HT       0.417000       1.00800           0
     24751 TIP3     4945     TIP3     H2       HT       0.417000       1.00800           0
     24752 TIP3     4946     TIP3     OH2      OT      -0.834000       15.9994           0
     24753 TIP3     4946     TIP3     H1       HT       0.417000       1.00800           0
     24754 TIP3     4946     TIP3     H2       HT       0.417000       1.00800           0
     24755 TIP3     4947     TIP3     OH2      OT      -0.834000       15.9994           0
     24756 TIP3     4947     TIP3     H1       HT       0.417000       1.00800           0
     24757 TIP3     4947     TIP3     H2       HT       0.417000       1.00800           0
     24758 TIP3     4948     TIP3     OH2      OT      -0.834000       15.9994           0
     24759 TIP3     4948     TIP3     H1       HT       0.417000       1.00800           0
     24760 TIP3     4948     TIP3     H2       HT       0.417000       1.00800           0
     24761 TIP3     4949     TIP3     OH2      OT      -0.834000       15.9994           0
     24762 TIP3     4949     TIP3     H1       HT       0.417000       1.00800           0
     24763 TIP3     4949     TIP3     H2       HT       0.417000       1.00800           0
     24764 TIP3     4950     TIP3     OH2      OT      -0.834000       15.9994           0
     24765 TIP3     4950     TIP3     H1       HT       0.417000       1.00800           0
     24766 TIP3     4950     TIP3     H2       HT       0.417000       1.00800           0
     24767 TIP3     4951     TIP3     OH2      OT      -0.834000       15.9994           0
     24768 TIP3     4951     TIP3     H1       HT       0.417000       1.00800           0
     24769 TIP3     4951     TIP3     H2       HT       0.417000       1.00800           0
     24770 TIP3     4952     TIP3     OH2      OT      -0.834000       15.9994           0
     24771 TIP3     4952     TIP3     H1       HT       0.417000       1.00800           0
     24772 TIP3     4952     TIP3     H2       HT       0.417000       1.00800           0
     24773 TIP3     4953     TIP3     OH2      OT      -0.834000       15.9994           0
     24774 TIP3     4953     TIP3     H1       HT       0.417000       1.00800           0
     24775 TIP3     4953     TIP3     H2       HT       0.417000       1.00800           0
     24776 TIP3     4954     TIP3     OH2      OT      -0.834000       15.9994           0
     24777 TIP3     4954     TIP3     H1       HT       0.417000       1.00800           0
     24778 TIP3     4954     TIP3     H2       HT       0.417000       1.00800           0
     24779 TIP3     4955     TIP3     OH2      OT      -0.834000       15.9994           0
     24780 TIP3     4955     TIP3     H1       HT       0.417000       1.00800           0
     24781 TIP3     4955     TIP3     H2       HT       0.417000       1.00800           0
     24782 TIP3     4956     TIP3     OH2      OT      -0.834000       15.9994           0
     24783 TIP3     4956     TIP3     H1       HT       0.417000       1.00800           0
     24784 TIP3     4956     TIP3     H2       HT       0.417000       1.00800           0
     24785 TIP3     4957     TIP3     OH2      OT      -0.834000       15.9994           0
     24786 TIP3     4957     TIP3     H1       HT       0.417000       1.00800           0
     24787 TIP3     4957     TIP3     H2       HT       0.417000       1.00800           0
     24788 TIP3     4958     TIP3     OH2      OT      -0.834000       15.9994           0
     24789 TIP3     4958     TIP3     H1       HT       0.417000       1.00800           0
     24790 TIP3     4958     TIP3     H2       HT       0.417000       1.00800           0
     24791 TIP3     4959     TIP3     OH2      OT      -0.834000       15.9994           0
     24792 TIP3     4959     TIP3     H1       HT       0.417000       1.00800           0
     24793 TIP3     4959     TIP3     H2       HT       0.417000       1.00800           0
     24794 TIP3     4960     TIP3     OH2      OT      -0.834000       15.9994           0
     24795 TIP3     4960     TIP3     H1       HT       0.417000       1.00800           0
     24796 TIP3     4960     TIP3     H2       HT       0.417000       1.00800           0
     24797 TIP3     4961     TIP3     OH2      OT      -0.834000       15.9994           0
     24798 TIP3     4961     TIP3     H1       HT       0.417000       1.00800           0
     24799 TIP3     4961     TIP3     H2       HT       0.417000       1.00800           0
     24800 TIP3     4962     TIP3     OH2      OT      -0.834000       15.9994           0
     24801 TIP3     4962     TIP3     H1       HT       0.417000       1.00800           0
     24802 TIP3     4962     TIP3     H2       HT       0.417000       1.00800           0
     24803 TIP3     4963     TIP3     OH2      OT      -0.834000       15.9994           0
     24804 TIP3     4963     TIP3     H1       HT       0.417000       1.00800           0
     24805 TIP3     4963     TIP3     H2       HT       0.417000       1.00800           0
     24806 TIP3     4964     TIP3     OH2      OT      -0.834000       15.9994           0
     24807 TIP3     4964     TIP3     H1       HT       0.417000       1.00800           0
     24808 TIP3     4964     TIP3     H2       HT       0.417000       1.00800           0
     24809 TIP3     4965     TIP3     OH2      OT      -0.834000       15.9994           0
     24810 TIP3     4965     TIP3     H1       HT       0.417000       1.00800           0
     24811 TIP3     4965     TIP3     H2       HT       0.417000       1.00800           0
     24812 TIP3     4966     TIP3     OH2      OT      -0.834000       15.9994           0
     24813 TIP3     4966     TIP3     H1       HT       0.417000       1.00800           0
     24814 TIP3     4966     TIP3     H2       HT       0.417000       1.00800           0
     24815 TIP3     4967     TIP3     OH2      OT      -0.834000       15.9994           0
     24816 TIP3     4967     TIP3     H1       HT       0.417000       1.00800           0
     24817 TIP3     4967     TIP3     H2       HT       0.417000       1.00800           0
     24818 TIP3     4968     TIP3     OH2      OT      -0.834000       15.9994           0
     24819 TIP3     4968     TIP3     H1       HT       0.417000       1.00800           0
     24820 TIP3     4968     TIP3     H2       HT       0.417000       1.00800           0
     24821 TIP3     4969     TIP3     OH2      OT      -0.834000       15.9994           0
     24822 TIP3     4969     TIP3     H1       HT       0.417000       1.00800           0
     24823 TIP3     4969     TIP3     H2       HT       0.417000       1.00800           0
     24824 TIP3     4970     TIP3     OH2      OT      -0.834000       15.9994           0
     24825 TIP3     4970     TIP3     H1       HT       0.417000       1.00800           0
     24826 TIP3     4970     TIP3     H2       HT       0.417000       1.00800           0
     24827 TIP3     4971     TIP3     OH2      OT      -0.834000       15.9994           0
     24828 TIP3     4971     TIP3     H1       HT       0.417000       1.00800           0
     24829 TIP3     4971     TIP3     H2       HT       0.417000       1.00800           0
     24830 TIP3     4972     TIP3     OH2      OT      -0.834000       15.9994           0
     24831 TIP3     4972     TIP3     H1       HT       0.417000       1.00800           0
     24832 TIP3     4972     TIP3     H2       HT       0.417000       1.00800           0
     24833 TIP3     4973     TIP3     OH2      OT      -0.834000       15.9994           0
     24834 TIP3     4973     TIP3     H1       HT       0.417000       1.00800           0
     24835 TIP3     4973     TIP3     H2       HT       0.417000       1.00800           0
     24836 TIP3     4974     TIP3     OH2      OT      -0.834000       15.9994           0
     24837 TIP3     4974     TIP3     H1       HT       0.417000       1.00800           0
     24838 TIP3     4974     TIP3     H2       HT       0.417000       1.00800           0
     24839 TIP3     4975     TIP3     OH2      OT      -0.834000       15.9994           0
     24840 TIP3     4975     TIP3     H1       HT       0.417000       1.00800           0
     24841 TIP3     4975     TIP3     H2       HT       0.417000       1.00800           0
     24842 TIP3     4976     TIP3     OH2      OT      -0.834000       15.9994           0
     24843 TIP3     4976     TIP3     H1       HT       0.417000       1.00800           0
     24844 TIP3     4976     TIP3     H2       HT       0.417000       1.00800           0
     24845 TIP3     4977     TIP3     OH2      OT      -0.834000       15.9994           0
     24846 TIP3     4977     TIP3     H1       HT       0.417000       1.00800           0
     24847 TIP3     4977     TIP3     H2       HT       0.417000       1.00800           0
     24848 TIP3     4978     TIP3     OH2      OT      -0.834000       15.9994           0
     24849 TIP3     4978     TIP3     H1       HT       0.417000       1.00800           0
     24850 TIP3     4978     TIP3     H2       HT       0.417000       1.00800           0
     24851 TIP3     4979     TIP3     OH2      OT      -0.834000       15.9994           0
     24852 TIP3     4979     TIP3     H1       HT       0.417000       1.00800           0
     24853 TIP3     4979     TIP3     H2       HT       0.417000       1.00800           0
     24854 TIP3     4980     TIP3     OH2      OT      -0.834000       15.9994           0
     24855 TIP3     4980     TIP3     H1       HT       0.417000       1.00800           0
     24856 TIP3     4980     TIP3     H2       HT       0.417000       1.00800           0
     24857 TIP3     4981     TIP3     OH2      OT      -0.834000       15.9994           0
     24858 TIP3     4981     TIP3     H1       HT       0.417000       1.00800           0
     24859 TIP3     4981     TIP3     H2       HT       0.417000       1.00800           0
     24860 TIP3     4982     TIP3     OH2      OT      -0.834000       15.9994           0
     24861 TIP3     4982     TIP3     H1       HT       0.417000       1.00800           0
     24862 TIP3     4982     TIP3     H2       HT       0.417000       1.00800           0
     24863 TIP3     4983     TIP3     OH2      OT      -0.834000       15.9994           0
     24864 TIP3     4983     TIP3     H1       HT       0.417000       1.00800           0
     24865 TIP3     4983     TIP3     H2       HT       0.417000       1.00800           0
     24866 TIP3     4984     TIP3     OH2      OT      -0.834000       15.9994           0
     24867 TIP3     4984     TIP3     H1       HT       0.417000       1.00800           0
     24868 TIP3     4984     TIP3     H2       HT       0.417000       1.00800           0
     24869 TIP3     4985     TIP3     OH2      OT      -0.834000       15.9994           0
     24870 TIP3     4985     TIP3     H1       HT       0.417000       1.00800           0
     24871 TIP3     4985     TIP3     H2       HT       0.417000       1.00800           0
     24872 TIP3     4986     TIP3     OH2      OT      -0.834000       15.9994           0
     24873 TIP3     4986     TIP3     H1       HT       0.417000       1.00800           0
     24874 TIP3     4986     TIP3     H2       HT       0.417000       1.00800           0
     24875 TIP3     4987     TIP3     OH2      OT      -0.834000       15.9994           0
     24876 TIP3     4987     TIP3     H1       HT       0.417000       1.00800           0
     24877 TIP3     4987     TIP3     H2       HT       0.417000       1.00800           0
     24878 TIP3     4988     TIP3     OH2      OT      -0.834000       15.9994           0
     24879 TIP3     4988     TIP3     H1       HT       0.417000       1.00800           0
     24880 TIP3     4988     TIP3     H2       HT       0.417000       1.00800           0
     24881 TIP3     4989     TIP3     OH2      OT      -0.834000       15.9994           0
     24882 TIP3     4989     TIP3     H1       HT       0.417000       1.00800           0
     24883 TIP3     4989     TIP3     H2       HT       0.417000       1.00800           0
     24884 TIP3     4990     TIP3     OH2      OT      -0.834000       15.9994           0
     24885 TIP3     4990     TIP3     H1       HT       0.417000       1.00800           0
     24886 TIP3     4990     TIP3     H2       HT       0.417000       1.00800           0
     24887 TIP3     4991     TIP3     OH2      OT      -0.834000       15.9994           0
     24888 TIP3     4991     TIP3     H1       HT       0.417000       1.00800           0
     24889 TIP3     4991     TIP3     H2       HT       0.417000       1.00800           0
     24890 TIP3     4992     TIP3     OH2      OT      -0.834000       15.9994           0
     24891 TIP3     4992     TIP3     H1       HT       0.417000       1.00800           0
     24892 TIP3     4992     TIP3     H2       HT       0.417000       1.00800           0
     24893 TIP3     4993     TIP3     OH2      OT      -0.834000       15.9994           0
     24894 TIP3     4993     TIP3     H1       HT       0.417000       1.00800           0
     24895 TIP3     4993     TIP3     H2       HT       0.417000       1.00800           0
     24896 TIP3     4994     TIP3     OH2      OT      -0.834000       15.9994           0
     24897 TIP3     4994     TIP3     H1       HT       0.417000       1.00800           0
     24898 TIP3     4994     TIP3     H2       HT       0.417000       1.00800           0
     24899 TIP3     4995     TIP3     OH2      OT      -0.834000       15.9994           0
     24900 TIP3     4995     TIP3     H1       HT       0.417000       1.00800           0
     24901 TIP3     4995     TIP3     H2       HT       0.417000       1.00800           0
     24902 TIP3     4996     TIP3     OH2      OT      -0.834000       15.9994           0
     24903 TIP3     4996     TIP3     H1       HT       0.417000       1.00800           0
     24904 TIP3     4996     TIP3     H2       HT       0.417000       1.00800           0
     24905 TIP3     4997     TIP3     OH2      OT      -0.834000       15.9994           0
     24906 TIP3     4997     TIP3     H1       HT       0.417000       1.00800           0
     24907 TIP3     4997     TIP3     H2       HT       0.417000       1.00800           0
     24908 TIP3     4998     TIP3     OH2      OT      -0.834000       15.9994           0
     24909 TIP3     4998     TIP3     H1       HT       0.417000       1.00800           0
     24910 TIP3     4998     TIP3     H2       HT       0.417000       1.00800           0
     24911 TIP3     4999     TIP3     OH2      OT      -0.834000       15.9994           0
     24912 TIP3     4999     TIP3     H1       HT       0.417000       1.00800           0
     24913 TIP3     4999     TIP3     H2       HT       0.417000       1.00800           0
     24914 TIP3     5000     TIP3     OH2      OT      -0.834000       15.9994           0
     24915 TIP3     5000     TIP3     H1       HT       0.417000       1.00800           0
     24916 TIP3     5000     TIP3     H2       HT       0.417000       1.00800           0
     24917 TIP3     5001     TIP3     OH2      OT      -0.834000       15.9994           0
     24918 TIP3     5001     TIP3     H1       HT       0.417000       1.00800           0
     24919 TIP3     5001     TIP3     H2       HT       0.417000       1.00800           0
     24920 TIP3     5002     TIP3     OH2      OT      -0.834000       15.9994           0
     24921 TIP3     5002     TIP3     H1       HT       0.417000       1.00800           0
     24922 TIP3     5002     TIP3     H2       HT       0.417000       1.00800           0
     24923 TIP3     5003     TIP3     OH2      OT      -0.834000       15.9994           0
     24924 TIP3     5003     TIP3     H1       HT       0.417000       1.00800           0
     24925 TIP3     5003     TIP3     H2       HT       0.417000       1.00800           0
     24926 TIP3     5004     TIP3     OH2      OT      -0.834000       15.9994           0
     24927 TIP3     5004     TIP3     H1       HT       0.417000       1.00800           0
     24928 TIP3     5004     TIP3     H2       HT       0.417000       1.00800           0
     24929 TIP3     5005     TIP3     OH2      OT      -0.834000       15.9994           0
     24930 TIP3     5005     TIP3     H1       HT       0.417000       1.00800           0
     24931 TIP3     5005     TIP3     H2       HT       0.417000       1.00800           0
     24932 TIP3     5006     TIP3     OH2      OT      -0.834000       15.9994           0
     24933 TIP3     5006     TIP3     H1       HT       0.417000       1.00800           0
     24934 TIP3     5006     TIP3     H2       HT       0.417000       1.00800           0
     24935 TIP3     5007     TIP3     OH2      OT      -0.834000       15.9994           0
     24936 TIP3     5007     TIP3     H1       HT       0.417000       1.00800           0
     24937 TIP3     5007     TIP3     H2       HT       0.417000       1.00800           0
     24938 TIP3     5008     TIP3     OH2      OT      -0.834000       15.9994           0
     24939 TIP3     5008     TIP3     H1       HT       0.417000       1.00800           0
     24940 TIP3     5008     TIP3     H2       HT       0.417000       1.00800           0
     24941 TIP3     5009     TIP3     OH2      OT      -0.834000       15.9994           0
     24942 TIP3     5009     TIP3     H1       HT       0.417000       1.00800           0
     24943 TIP3     5009     TIP3     H2       HT       0.417000       1.00800           0
     24944 TIP3     5010     TIP3     OH2      OT      -0.834000       15.9994           0
     24945 TIP3     5010     TIP3     H1       HT       0.417000       1.00800           0
     24946 TIP3     5010     TIP3     H2       HT       0.417000       1.00800           0
     24947 TIP3     5011     TIP3     OH2      OT      -0.834000       15.9994           0
     24948 TIP3     5011     TIP3     H1       HT       0.417000       1.00800           0
     24949 TIP3     5011     TIP3     H2       HT       0.417000       1.00800           0
     24950 TIP3     5012     TIP3     OH2      OT      -0.834000       15.9994           0
     24951 TIP3     5012     TIP3     H1       HT       0.417000       1.00800           0
     24952 TIP3     5012     TIP3     H2       HT       0.417000       1.00800           0
     24953 TIP3     5013     TIP3     OH2      OT      -0.834000       15.9994           0
     24954 TIP3     5013     TIP3     H1       HT       0.417000       1.00800           0
     24955 TIP3     5013     TIP3     H2       HT       0.417000       1.00800           0
     24956 TIP3     5014     TIP3     OH2      OT      -0.834000       15.9994           0
     24957 TIP3     5014     TIP3     H1       HT       0.417000       1.00800           0
     24958 TIP3     5014     TIP3     H2       HT       0.417000       1.00800           0
     24959 TIP3     5015     TIP3     OH2      OT      -0.834000       15.9994           0
     24960 TIP3     5015     TIP3     H1       HT       0.417000       1.00800           0
     24961 TIP3     5015     TIP3     H2       HT       0.417000       1.00800           0
     24962 TIP3     5016     TIP3     OH2      OT      -0.834000       15.9994           0
     24963 TIP3     5016     TIP3     H1       HT       0.417000       1.00800           0
     24964 TIP3     5016     TIP3     H2       HT       0.417000       1.00800           0
     24965 TIP3     5017     TIP3     OH2      OT      -0.834000       15.9994           0
     24966 TIP3     5017     TIP3     H1       HT       0.417000       1.00800           0
     24967 TIP3     5017     TIP3     H2       HT       0.417000       1.00800           0
     24968 TIP3     5018     TIP3     OH2      OT      -0.834000       15.9994           0
     24969 TIP3     5018     TIP3     H1       HT       0.417000       1.00800           0
     24970 TIP3     5018     TIP3     H2       HT       0.417000       1.00800           0
     24971 TIP3     5019     TIP3     OH2      OT      -0.834000       15.9994           0
     24972 TIP3     5019     TIP3     H1       HT       0.417000       1.00800           0
     24973 TIP3     5019     TIP3     H2       HT       0.417000       1.00800           0
     24974 TIP3     5020     TIP3     OH2      OT      -0.834000       15.9994           0
     24975 TIP3     5020     TIP3     H1       HT       0.417000       1.00800           0
     24976 TIP3     5020     TIP3     H2       HT       0.417000       1.00800           0
     24977 TIP3     5021     TIP3     OH2      OT      -0.834000       15.9994           0
     24978 TIP3     5021     TIP3     H1       HT       0.417000       1.00800           0
     24979 TIP3     5021     TIP3     H2       HT       0.417000       1.00800           0
     24980 TIP3     5022     TIP3     OH2      OT      -0.834000       15.9994           0
     24981 TIP3     5022     TIP3     H1       HT       0.417000       1.00800           0
     24982 TIP3     5022     TIP3     H2       HT       0.417000       1.00800           0
     24983 TIP3     5023     TIP3     OH2      OT      -0.834000       15.9994           0
     24984 TIP3     5023     TIP3     H1       HT       0.417000       1.00800           0
     24985 TIP3     5023     TIP3     H2       HT       0.417000       1.00800           0
     24986 TIP3     5024     TIP3     OH2      OT      -0.834000       15.9994           0
     24987 TIP3     5024     TIP3     H1       HT       0.417000       1.00800           0
     24988 TIP3     5024     TIP3     H2       HT       0.417000       1.00800           0
     24989 TIP3     5025     TIP3     OH2      OT      -0.834000       15.9994           0
     24990 TIP3     5025     TIP3     H1       HT       0.417000       1.00800           0
     24991 TIP3     5025     TIP3     H2       HT       0.417000       1.00800           0
     24992 TIP3     5026     TIP3     OH2      OT      -0.834000       15.9994           0
     24993 TIP3     5026     TIP3     H1       HT       0.417000       1.00800           0
     24994 TIP3     5026     TIP3     H2       HT       0.417000       1.00800           0
     24995 TIP3     5027     TIP3     OH2      OT      -0.834000       15.9994           0
     24996 TIP3     5027     TIP3     H1       HT       0.417000       1.00800           0
     24997 TIP3     5027     TIP3     H2       HT       0.417000       1.00800           0
     24998 TIP3     5028     TIP3     OH2      OT      -0.834000       15.9994           0
     24999 TIP3     5028     TIP3     H1       HT       0.417000       1.00800           0
     25000 TIP3     5028     TIP3     H2       HT       0.417000       1.00800           0
     25001 TIP3     5029     TIP3     OH2      OT      -0.834000       15.9994           0
     25002 TIP3     5029     TIP3     H1       HT       0.417000       1.00800           0
     25003 TIP3     5029     TIP3     H2       HT       0.417000       1.00800           0
     25004 TIP3     5030     TIP3     OH2      OT      -0.834000       15.9994           0
     25005 TIP3     5030     TIP3     H1       HT       0.417000       1.00800           0
     25006 TIP3     5030     TIP3     H2       HT       0.417000       1.00800           0
     25007 TIP3     5031     TIP3     OH2      OT      -0.834000       15.9994           0
     25008 TIP3     5031     TIP3     H1       HT       0.417000       1.00800           0
     25009 TIP3     5031     TIP3     H2       HT       0.417000       1.00800           0
     25010 TIP3     5032     TIP3     OH2      OT      -0.834000       15.9994           0
     25011 TIP3     5032     TIP3     H1       HT       0.417000       1.00800           0
     25012 TIP3     5032     TIP3     H2       HT       0.417000       1.00800           0
     25013 TIP3     5033     TIP3     OH2      OT      -0.834000       15.9994           0
     25014 TIP3     5033     TIP3     H1       HT       0.417000       1.00800           0
     25015 TIP3     5033     TIP3     H2       HT       0.417000       1.00800           0
     25016 TIP3     5034     TIP3     OH2      OT      -0.834000       15.9994           0
     25017 TIP3     5034     TIP3     H1       HT       0.417000       1.00800           0
     25018 TIP3     5034     TIP3     H2       HT       0.417000       1.00800           0
     25019 TIP3     5035     TIP3     OH2      OT      -0.834000       15.9994           0
     25020 TIP3     5035     TIP3     H1       HT       0.417000       1.00800           0
     25021 TIP3     5035     TIP3     H2       HT       0.417000       1.00800           0
     25022 TIP3     5036     TIP3     OH2      OT      -0.834000       15.9994           0
     25023 TIP3     5036     TIP3     H1       HT       0.417000       1.00800           0
     25024 TIP3     5036     TIP3     H2       HT       0.417000       1.00800           0
     25025 TIP3     5037     TIP3     OH2      OT      -0.834000       15.9994           0
     25026 TIP3     5037     TIP3     H1       HT       0.417000       1.00800           0
     25027 TIP3     5037     TIP3     H2       HT       0.417000       1.00800           0
     25028 TIP3     5038     TIP3     OH2      OT      -0.834000       15.9994           0
     25029 TIP3     5038     TIP3     H1       HT       0.417000       1.00800           0
     25030 TIP3     5038     TIP3     H2       HT       0.417000       1.00800           0
     25031 TIP3     5039     TIP3     OH2      OT      -0.834000       15.9994           0
     25032 TIP3     5039     TIP3     H1       HT       0.417000       1.00800           0
     25033 TIP3     5039     TIP3     H2       HT       0.417000       1.00800           0
     25034 TIP3     5040     TIP3     OH2      OT      -0.834000       15.9994           0
     25035 TIP3     5040     TIP3     H1       HT       0.417000       1.00800           0
     25036 TIP3     5040     TIP3     H2       HT       0.417000       1.00800           0
     25037 TIP3     5041     TIP3     OH2      OT      -0.834000       15.9994           0
     25038 TIP3     5041     TIP3     H1       HT       0.417000       1.00800           0
     25039 TIP3     5041     TIP3     H2       HT       0.417000       1.00800           0
     25040 TIP3     5042     TIP3     OH2      OT      -0.834000       15.9994           0
     25041 TIP3     5042     TIP3     H1       HT       0.417000       1.00800           0
     25042 TIP3     5042     TIP3     H2       HT       0.417000       1.00800           0
     25043 TIP3     5043     TIP3     OH2      OT      -0.834000       15.9994           0
     25044 TIP3     5043     TIP3     H1       HT       0.417000       1.00800           0
     25045 TIP3     5043     TIP3     H2       HT       0.417000       1.00800           0
     25046 TIP3     5044     TIP3     OH2      OT      -0.834000       15.9994           0
     25047 TIP3     5044     TIP3     H1       HT       0.417000       1.00800           0
     25048 TIP3     5044     TIP3     H2       HT       0.417000       1.00800           0
     25049 TIP3     5045     TIP3     OH2      OT      -0.834000       15.9994           0
     25050 TIP3     5045     TIP3     H1       HT       0.417000       1.00800           0
     25051 TIP3     5045     TIP3     H2       HT       0.417000       1.00800           0
     25052 TIP3     5046     TIP3     OH2      OT      -0.834000       15.9994           0
     25053 TIP3     5046     TIP3     H1       HT       0.417000       1.00800           0
     25054 TIP3     5046     TIP3     H2       HT       0.417000       1.00800           0
     25055 TIP3     5047     TIP3     OH2      OT      -0.834000       15.9994           0
     25056 TIP3     5047     TIP3     H1       HT       0.417000       1.00800           0
     25057 TIP3     5047     TIP3     H2       HT       0.417000       1.00800           0
     25058 TIP3     5048     TIP3     OH2      OT      -0.834000       15.9994           0
     25059 TIP3     5048     TIP3     H1       HT       0.417000       1.00800           0
     25060 TIP3     5048     TIP3     H2       HT       0.417000       1.00800           0
     25061 TIP3     5049     TIP3     OH2      OT      -0.834000       15.9994           0
     25062 TIP3     5049     TIP3     H1       HT       0.417000       1.00800           0
     25063 TIP3     5049     TIP3     H2       HT       0.417000       1.00800           0
     25064 TIP3     5050     TIP3     OH2      OT      -0.834000       15.9994           0
     25065 TIP3     5050     TIP3     H1       HT       0.417000       1.00800           0
     25066 TIP3     5050     TIP3     H2       HT       0.417000       1.00800           0
     25067 TIP3     5051     TIP3     OH2      OT      -0.834000       15.9994           0
     25068 TIP3     5051     TIP3     H1       HT       0.417000       1.00800           0
     25069 TIP3     5051     TIP3     H2       HT       0.417000       1.00800           0
     25070 TIP3     5052     TIP3     OH2      OT      -0.834000       15.9994           0
     25071 TIP3     5052     TIP3     H1       HT       0.417000       1.00800           0
     25072 TIP3     5052     TIP3     H2       HT       0.417000       1.00800           0
     25073 TIP3     5053     TIP3     OH2      OT      -0.834000       15.9994           0
     25074 TIP3     5053     TIP3     H1       HT       0.417000       1.00800           0
     25075 TIP3     5053     TIP3     H2       HT       0.417000       1.00800           0
     25076 TIP3     5054     TIP3     OH2      OT      -0.834000       15.9994           0
     25077 TIP3     5054     TIP3     H1       HT       0.417000       1.00800           0
     25078 TIP3     5054     TIP3     H2       HT       0.417000       1.00800           0
     25079 TIP3     5055     TIP3     OH2      OT      -0.834000       15.9994           0
     25080 TIP3     5055     TIP3     H1       HT       0.417000       1.00800           0
     25081 TIP3     5055     TIP3     H2       HT       0.417000       1.00800           0
     25082 TIP3     5056     TIP3     OH2      OT      -0.834000       15.9994           0
     25083 TIP3     5056     TIP3     H1       HT       0.417000       1.00800           0
     25084 TIP3     5056     TIP3     H2       HT       0.417000       1.00800           0
     25085 TIP3     5057     TIP3     OH2      OT      -0.834000       15.9994           0
     25086 TIP3     5057     TIP3     H1       HT       0.417000       1.00800           0
     25087 TIP3     5057     TIP3     H2       HT       0.417000       1.00800           0
     25088 TIP3     5058     TIP3     OH2      OT      -0.834000       15.9994           0
     25089 TIP3     5058     TIP3     H1       HT       0.417000       1.00800           0
     25090 TIP3     5058     TIP3     H2       HT       0.417000       1.00800           0
     25091 TIP3     5059     TIP3     OH2      OT      -0.834000       15.9994           0
     25092 TIP3     5059     TIP3     H1       HT       0.417000       1.00800           0
     25093 TIP3     5059     TIP3     H2       HT       0.417000       1.00800           0
     25094 TIP3     5060     TIP3     OH2      OT      -0.834000       15.9994           0
     25095 TIP3     5060     TIP3     H1       HT       0.417000       1.00800           0
     25096 TIP3     5060     TIP3     H2       HT       0.417000       1.00800           0
     25097 TIP3     5061     TIP3     OH2      OT      -0.834000       15.9994           0
     25098 TIP3     5061     TIP3     H1       HT       0.417000       1.00800           0
     25099 TIP3     5061     TIP3     H2       HT       0.417000       1.00800           0
     25100 TIP3     5062     TIP3     OH2      OT      -0.834000       15.9994           0
     25101 TIP3     5062     TIP3     H1       HT       0.417000       1.00800           0
     25102 TIP3     5062     TIP3     H2       HT       0.417000       1.00800           0
     25103 TIP3     5063     TIP3     OH2      OT      -0.834000       15.9994           0
     25104 TIP3     5063     TIP3     H1       HT       0.417000       1.00800           0
     25105 TIP3     5063     TIP3     H2       HT       0.417000       1.00800           0
     25106 TIP3     5064     TIP3     OH2      OT      -0.834000       15.9994           0
     25107 TIP3     5064     TIP3     H1       HT       0.417000       1.00800           0
     25108 TIP3     5064     TIP3     H2       HT       0.417000       1.00800           0
     25109 TIP3     5065     TIP3     OH2      OT      -0.834000       15.9994           0
     25110 TIP3     5065     TIP3     H1       HT       0.417000       1.00800           0
     25111 TIP3     5065     TIP3     H2       HT       0.417000       1.00800           0
     25112 TIP3     5066     TIP3     OH2      OT      -0.834000       15.9994           0
     25113 TIP3     5066     TIP3     H1       HT       0.417000       1.00800           0
     25114 TIP3     5066     TIP3     H2       HT       0.417000       1.00800           0
     25115 TIP3     5067     TIP3     OH2      OT      -0.834000       15.9994           0
     25116 TIP3     5067     TIP3     H1       HT       0.417000       1.00800           0
     25117 TIP3     5067     TIP3     H2       HT       0.417000       1.00800           0
     25118 TIP3     5068     TIP3     OH2      OT      -0.834000       15.9994           0
     25119 TIP3     5068     TIP3     H1       HT       0.417000       1.00800           0
     25120 TIP3     5068     TIP3     H2       HT       0.417000       1.00800           0
     25121 TIP3     5069     TIP3     OH2      OT      -0.834000       15.9994           0
     25122 TIP3     5069     TIP3     H1       HT       0.417000       1.00800           0
     25123 TIP3     5069     TIP3     H2       HT       0.417000       1.00800           0
     25124 TIP3     5070     TIP3     OH2      OT      -0.834000       15.9994           0
     25125 TIP3     5070     TIP3     H1       HT       0.417000       1.00800           0
     25126 TIP3     5070     TIP3     H2       HT       0.417000       1.00800           0
     25127 TIP3     5071     TIP3     OH2      OT      -0.834000       15.9994           0
     25128 TIP3     5071     TIP3     H1       HT       0.417000       1.00800           0
     25129 TIP3     5071     TIP3     H2       HT       0.417000       1.00800           0
     25130 TIP3     5072     TIP3     OH2      OT      -0.834000       15.9994           0
     25131 TIP3     5072     TIP3     H1       HT       0.417000       1.00800           0
     25132 TIP3     5072     TIP3     H2       HT       0.417000       1.00800           0
     25133 TIP3     5073     TIP3     OH2      OT      -0.834000       15.9994           0
     25134 TIP3     5073     TIP3     H1       HT       0.417000       1.00800           0
     25135 TIP3     5073     TIP3     H2       HT       0.417000       1.00800           0
     25136 TIP3     5074     TIP3     OH2      OT      -0.834000       15.9994           0
     25137 TIP3     5074     TIP3     H1       HT       0.417000       1.00800           0
     25138 TIP3     5074     TIP3     H2       HT       0.417000       1.00800           0
     25139 TIP3     5075     TIP3     OH2      OT      -0.834000       15.9994           0
     25140 TIP3     5075     TIP3     H1       HT       0.417000       1.00800           0
     25141 TIP3     5075     TIP3     H2       HT       0.417000       1.00800           0
     25142 TIP3     5076     TIP3     OH2      OT      -0.834000       15.9994           0
     25143 TIP3     5076     TIP3     H1       HT       0.417000       1.00800           0
     25144 TIP3     5076     TIP3     H2       HT       0.417000       1.00800           0
     25145 TIP3     5077     TIP3     OH2      OT      -0.834000       15.9994           0
     25146 TIP3     5077     TIP3     H1       HT       0.417000       1.00800           0
     25147 TIP3     5077     TIP3     H2       HT       0.417000       1.00800           0
     25148 TIP3     5078     TIP3     OH2      OT      -0.834000       15.9994           0
     25149 TIP3     5078     TIP3     H1       HT       0.417000       1.00800           0
     25150 TIP3     5078     TIP3     H2       HT       0.417000       1.00800           0
     25151 TIP3     5079     TIP3     OH2      OT      -0.834000       15.9994           0
     25152 TIP3     5079     TIP3     H1       HT       0.417000       1.00800           0
     25153 TIP3     5079     TIP3     H2       HT       0.417000       1.00800           0
     25154 TIP3     5080     TIP3     OH2      OT      -0.834000       15.9994           0
     25155 TIP3     5080     TIP3     H1       HT       0.417000       1.00800           0
     25156 TIP3     5080     TIP3     H2       HT       0.417000       1.00800           0
     25157 TIP3     5081     TIP3     OH2      OT      -0.834000       15.9994           0
     25158 TIP3     5081     TIP3     H1       HT       0.417000       1.00800           0
     25159 TIP3     5081     TIP3     H2       HT       0.417000       1.00800           0
     25160 TIP3     5082     TIP3     OH2      OT      -0.834000       15.9994           0
     25161 TIP3     5082     TIP3     H1       HT       0.417000       1.00800           0
     25162 TIP3     5082     TIP3     H2       HT       0.417000       1.00800           0
     25163 TIP3     5083     TIP3     OH2      OT      -0.834000       15.9994           0
     25164 TIP3     5083     TIP3     H1       HT       0.417000       1.00800           0
     25165 TIP3     5083     TIP3     H2       HT       0.417000       1.00800           0
     25166 TIP3     5084     TIP3     OH2      OT      -0.834000       15.9994           0
     25167 TIP3     5084     TIP3     H1       HT       0.417000       1.00800           0
     25168 TIP3     5084     TIP3     H2       HT       0.417000       1.00800           0
     25169 TIP3     5085     TIP3     OH2      OT      -0.834000       15.9994           0
     25170 TIP3     5085     TIP3     H1       HT       0.417000       1.00800           0
     25171 TIP3     5085     TIP3     H2       HT       0.417000       1.00800           0
     25172 TIP3     5086     TIP3     OH2      OT      -0.834000       15.9994           0
     25173 TIP3     5086     TIP3     H1       HT       0.417000       1.00800           0
     25174 TIP3     5086     TIP3     H2       HT       0.417000       1.00800           0
     25175 TIP3     5087     TIP3     OH2      OT      -0.834000       15.9994           0
     25176 TIP3     5087     TIP3     H1       HT       0.417000       1.00800           0
     25177 TIP3     5087     TIP3     H2       HT       0.417000       1.00800           0
     25178 TIP3     5088     TIP3     OH2      OT      -0.834000       15.9994           0
     25179 TIP3     5088     TIP3     H1       HT       0.417000       1.00800           0
     25180 TIP3     5088     TIP3     H2       HT       0.417000       1.00800           0
     25181 TIP3     5089     TIP3     OH2      OT      -0.834000       15.9994           0
     25182 TIP3     5089     TIP3     H1       HT       0.417000       1.00800           0
     25183 TIP3     5089     TIP3     H2       HT       0.417000       1.00800           0
     25184 TIP3     5090     TIP3     OH2      OT      -0.834000       15.9994           0
     25185 TIP3     5090     TIP3     H1       HT       0.417000       1.00800           0
     25186 TIP3     5090     TIP3     H2       HT       0.417000       1.00800           0
     25187 TIP3     5091     TIP3     OH2      OT      -0.834000       15.9994           0
     25188 TIP3     5091     TIP3     H1       HT       0.417000       1.00800           0
     25189 TIP3     5091     TIP3     H2       HT       0.417000       1.00800           0
     25190 TIP3     5092     TIP3     OH2      OT      -0.834000       15.9994           0
     25191 TIP3     5092     TIP3     H1       HT       0.417000       1.00800           0
     25192 TIP3     5092     TIP3     H2       HT       0.417000       1.00800           0
     25193 TIP3     5093     TIP3     OH2      OT      -0.834000       15.9994           0
     25194 TIP3     5093     TIP3     H1       HT       0.417000       1.00800           0
     25195 TIP3     5093     TIP3     H2       HT       0.417000       1.00800           0
     25196 TIP3     5094     TIP3     OH2      OT      -0.834000       15.9994           0
     25197 TIP3     5094     TIP3     H1       HT       0.417000       1.00800           0
     25198 TIP3     5094     TIP3     H2       HT       0.417000       1.00800           0
     25199 TIP3     5095     TIP3     OH2      OT      -0.834000       15.9994           0
     25200 TIP3     5095     TIP3     H1       HT       0.417000       1.00800           0
     25201 TIP3     5095     TIP3     H2       HT       0.417000       1.00800           0
     25202 TIP3     5096     TIP3     OH2      OT      -0.834000       15.9994           0
     25203 TIP3     5096     TIP3     H1       HT       0.417000       1.00800           0
     25204 TIP3     5096     TIP3     H2       HT       0.417000       1.00800           0
     25205 TIP3     5097     TIP3     OH2      OT      -0.834000       15.9994           0
     25206 TIP3     5097     TIP3     H1       HT       0.417000       1.00800           0
     25207 TIP3     5097     TIP3     H2       HT       0.417000       1.00800           0
     25208 TIP3     5098     TIP3     OH2      OT      -0.834000       15.9994           0
     25209 TIP3     5098     TIP3     H1       HT       0.417000       1.00800           0
     25210 TIP3     5098     TIP3     H2       HT       0.417000       1.00800           0
     25211 TIP3     5099     TIP3     OH2      OT      -0.834000       15.9994           0
     25212 TIP3     5099     TIP3     H1       HT       0.417000       1.00800           0
     25213 TIP3     5099     TIP3     H2       HT       0.417000       1.00800           0
     25214 TIP3     5100     TIP3     OH2      OT      -0.834000       15.9994           0
     25215 TIP3     5100     TIP3     H1       HT       0.417000       1.00800           0
     25216 TIP3     5100     TIP3     H2       HT       0.417000       1.00800           0
     25217 TIP3     5101     TIP3     OH2      OT      -0.834000       15.9994           0
     25218 TIP3     5101     TIP3     H1       HT       0.417000       1.00800           0
     25219 TIP3     5101     TIP3     H2       HT       0.417000       1.00800           0
     25220 TIP3     5102     TIP3     OH2      OT      -0.834000       15.9994           0
     25221 TIP3     5102     TIP3     H1       HT       0.417000       1.00800           0
     25222 TIP3     5102     TIP3     H2       HT       0.417000       1.00800           0
     25223 TIP3     5103     TIP3     OH2      OT      -0.834000       15.9994           0
     25224 TIP3     5103     TIP3     H1       HT       0.417000       1.00800           0
     25225 TIP3     5103     TIP3     H2       HT       0.417000       1.00800           0
     25226 TIP3     5104     TIP3     OH2      OT      -0.834000       15.9994           0
     25227 TIP3     5104     TIP3     H1       HT       0.417000       1.00800           0
     25228 TIP3     5104     TIP3     H2       HT       0.417000       1.00800           0
     25229 TIP3     5105     TIP3     OH2      OT      -0.834000       15.9994           0
     25230 TIP3     5105     TIP3     H1       HT       0.417000       1.00800           0
     25231 TIP3     5105     TIP3     H2       HT       0.417000       1.00800           0
     25232 TIP3     5106     TIP3     OH2      OT      -0.834000       15.9994           0
     25233 TIP3     5106     TIP3     H1       HT       0.417000       1.00800           0
     25234 TIP3     5106     TIP3     H2       HT       0.417000       1.00800           0
     25235 TIP3     5107     TIP3     OH2      OT      -0.834000       15.9994           0
     25236 TIP3     5107     TIP3     H1       HT       0.417000       1.00800           0
     25237 TIP3     5107     TIP3     H2       HT       0.417000       1.00800           0
     25238 TIP3     5108     TIP3     OH2      OT      -0.834000       15.9994           0
     25239 TIP3     5108     TIP3     H1       HT       0.417000       1.00800           0
     25240 TIP3     5108     TIP3     H2       HT       0.417000       1.00800           0
     25241 TIP3     5109     TIP3     OH2      OT      -0.834000       15.9994           0
     25242 TIP3     5109     TIP3     H1       HT       0.417000       1.00800           0
     25243 TIP3     5109     TIP3     H2       HT       0.417000       1.00800           0
     25244 TIP3     5110     TIP3     OH2      OT      -0.834000       15.9994           0
     25245 TIP3     5110     TIP3     H1       HT       0.417000       1.00800           0
     25246 TIP3     5110     TIP3     H2       HT       0.417000       1.00800           0
     25247 TIP3     5111     TIP3     OH2      OT      -0.834000       15.9994           0
     25248 TIP3     5111     TIP3     H1       HT       0.417000       1.00800           0
     25249 TIP3     5111     TIP3     H2       HT       0.417000       1.00800           0
     25250 TIP3     5112     TIP3     OH2      OT      -0.834000       15.9994           0
     25251 TIP3     5112     TIP3     H1       HT       0.417000       1.00800           0
     25252 TIP3     5112     TIP3     H2       HT       0.417000       1.00800           0
     25253 TIP3     5113     TIP3     OH2      OT      -0.834000       15.9994           0
     25254 TIP3     5113     TIP3     H1       HT       0.417000       1.00800           0
     25255 TIP3     5113     TIP3     H2       HT       0.417000       1.00800           0
     25256 TIP3     5114     TIP3     OH2      OT      -0.834000       15.9994           0
     25257 TIP3     5114     TIP3     H1       HT       0.417000       1.00800           0
     25258 TIP3     5114     TIP3     H2       HT       0.417000       1.00800           0
     25259 TIP3     5115     TIP3     OH2      OT      -0.834000       15.9994           0
     25260 TIP3     5115     TIP3     H1       HT       0.417000       1.00800           0
     25261 TIP3     5115     TIP3     H2       HT       0.417000       1.00800           0
     25262 TIP3     5116     TIP3     OH2      OT      -0.834000       15.9994           0
     25263 TIP3     5116     TIP3     H1       HT       0.417000       1.00800           0
     25264 TIP3     5116     TIP3     H2       HT       0.417000       1.00800           0
     25265 TIP3     5117     TIP3     OH2      OT      -0.834000       15.9994           0
     25266 TIP3     5117     TIP3     H1       HT       0.417000       1.00800           0
     25267 TIP3     5117     TIP3     H2       HT       0.417000       1.00800           0
     25268 TIP3     5118     TIP3     OH2      OT      -0.834000       15.9994           0
     25269 TIP3     5118     TIP3     H1       HT       0.417000       1.00800           0
     25270 TIP3     5118     TIP3     H2       HT       0.417000       1.00800           0
     25271 TIP3     5119     TIP3     OH2      OT      -0.834000       15.9994           0
     25272 TIP3     5119     TIP3     H1       HT       0.417000       1.00800           0
     25273 TIP3     5119     TIP3     H2       HT       0.417000       1.00800           0
     25274 TIP3     5120     TIP3     OH2      OT      -0.834000       15.9994           0
     25275 TIP3     5120     TIP3     H1       HT       0.417000       1.00800           0
     25276 TIP3     5120     TIP3     H2       HT       0.417000       1.00800           0
     25277 TIP3     5121     TIP3     OH2      OT      -0.834000       15.9994           0
     25278 TIP3     5121     TIP3     H1       HT       0.417000       1.00800           0
     25279 TIP3     5121     TIP3     H2       HT       0.417000       1.00800           0
     25280 TIP3     5122     TIP3     OH2      OT      -0.834000       15.9994           0
     25281 TIP3     5122     TIP3     H1       HT       0.417000       1.00800           0
     25282 TIP3     5122     TIP3     H2       HT       0.417000       1.00800           0
     25283 TIP3     5123     TIP3     OH2      OT      -0.834000       15.9994           0
     25284 TIP3     5123     TIP3     H1       HT       0.417000       1.00800           0
     25285 TIP3     5123     TIP3     H2       HT       0.417000       1.00800           0
     25286 TIP3     5124     TIP3     OH2      OT      -0.834000       15.9994           0
     25287 TIP3     5124     TIP3     H1       HT       0.417000       1.00800           0
     25288 TIP3     5124     TIP3     H2       HT       0.417000       1.00800           0
     25289 TIP3     5125     TIP3     OH2      OT      -0.834000       15.9994           0
     25290 TIP3     5125     TIP3     H1       HT       0.417000       1.00800           0
     25291 TIP3     5125     TIP3     H2       HT       0.417000       1.00800           0
     25292 TIP3     5126     TIP3     OH2      OT      -0.834000       15.9994           0
     25293 TIP3     5126     TIP3     H1       HT       0.417000       1.00800           0
     25294 TIP3     5126     TIP3     H2       HT       0.417000       1.00800           0
     25295 TIP3     5127     TIP3     OH2      OT      -0.834000       15.9994           0
     25296 TIP3     5127     TIP3     H1       HT       0.417000       1.00800           0
     25297 TIP3     5127     TIP3     H2       HT       0.417000       1.00800           0
     25298 TIP3     5128     TIP3     OH2      OT      -0.834000       15.9994           0
     25299 TIP3     5128     TIP3     H1       HT       0.417000       1.00800           0
     25300 TIP3     5128     TIP3     H2       HT       0.417000       1.00800           0
     25301 TIP3     5129     TIP3     OH2      OT      -0.834000       15.9994           0
     25302 TIP3     5129     TIP3     H1       HT       0.417000       1.00800           0
     25303 TIP3     5129     TIP3     H2       HT       0.417000       1.00800           0
     25304 TIP3     5130     TIP3     OH2      OT      -0.834000       15.9994           0
     25305 TIP3     5130     TIP3     H1       HT       0.417000       1.00800           0
     25306 TIP3     5130     TIP3     H2       HT       0.417000       1.00800           0
     25307 TIP3     5131     TIP3     OH2      OT      -0.834000       15.9994           0
     25308 TIP3     5131     TIP3     H1       HT       0.417000       1.00800           0
     25309 TIP3     5131     TIP3     H2       HT       0.417000       1.00800           0
     25310 TIP3     5132     TIP3     OH2      OT      -0.834000       15.9994           0
     25311 TIP3     5132     TIP3     H1       HT       0.417000       1.00800           0
     25312 TIP3     5132     TIP3     H2       HT       0.417000       1.00800           0
     25313 TIP3     5133     TIP3     OH2      OT      -0.834000       15.9994           0
     25314 TIP3     5133     TIP3     H1       HT       0.417000       1.00800           0
     25315 TIP3     5133     TIP3     H2       HT       0.417000       1.00800           0
     25316 TIP3     5134     TIP3     OH2      OT      -0.834000       15.9994           0
     25317 TIP3     5134     TIP3     H1       HT       0.417000       1.00800           0
     25318 TIP3     5134     TIP3     H2       HT       0.417000       1.00800           0
     25319 TIP3     5135     TIP3     OH2      OT      -0.834000       15.9994           0
     25320 TIP3     5135     TIP3     H1       HT       0.417000       1.00800           0
     25321 TIP3     5135     TIP3     H2       HT       0.417000       1.00800           0
     25322 TIP3     5136     TIP3     OH2      OT      -0.834000       15.9994           0
     25323 TIP3     5136     TIP3     H1       HT       0.417000       1.00800           0
     25324 TIP3     5136     TIP3     H2       HT       0.417000       1.00800           0
     25325 TIP3     5137     TIP3     OH2      OT      -0.834000       15.9994           0
     25326 TIP3     5137     TIP3     H1       HT       0.417000       1.00800           0
     25327 TIP3     5137     TIP3     H2       HT       0.417000       1.00800           0
     25328 TIP3     5138     TIP3     OH2      OT      -0.834000       15.9994           0
     25329 TIP3     5138     TIP3     H1       HT       0.417000       1.00800           0
     25330 TIP3     5138     TIP3     H2       HT       0.417000       1.00800           0
     25331 TIP3     5139     TIP3     OH2      OT      -0.834000       15.9994           0
     25332 TIP3     5139     TIP3     H1       HT       0.417000       1.00800           0
     25333 TIP3     5139     TIP3     H2       HT       0.417000       1.00800           0
     25334 TIP3     5140     TIP3     OH2      OT      -0.834000       15.9994           0
     25335 TIP3     5140     TIP3     H1       HT       0.417000       1.00800           0
     25336 TIP3     5140     TIP3     H2       HT       0.417000       1.00800           0
     25337 TIP3     5141     TIP3     OH2      OT      -0.834000       15.9994           0
     25338 TIP3     5141     TIP3     H1       HT       0.417000       1.00800           0
     25339 TIP3     5141     TIP3     H2       HT       0.417000       1.00800           0
     25340 TIP3     5142     TIP3     OH2      OT      -0.834000       15.9994           0
     25341 TIP3     5142     TIP3     H1       HT       0.417000       1.00800           0
     25342 TIP3     5142     TIP3     H2       HT       0.417000       1.00800           0
     25343 TIP3     5143     TIP3     OH2      OT      -0.834000       15.9994           0
     25344 TIP3     5143     TIP3     H1       HT       0.417000       1.00800           0
     25345 TIP3     5143     TIP3     H2       HT       0.417000       1.00800           0
     25346 TIP3     5144     TIP3     OH2      OT      -0.834000       15.9994           0
     25347 TIP3     5144     TIP3     H1       HT       0.417000       1.00800           0
     25348 TIP3     5144     TIP3     H2       HT       0.417000       1.00800           0
     25349 TIP3     5145     TIP3     OH2      OT      -0.834000       15.9994           0
     25350 TIP3     5145     TIP3     H1       HT       0.417000       1.00800           0
     25351 TIP3     5145     TIP3     H2       HT       0.417000       1.00800           0
     25352 TIP3     5146     TIP3     OH2      OT      -0.834000       15.9994           0
     25353 TIP3     5146     TIP3     H1       HT       0.417000       1.00800           0
     25354 TIP3     5146     TIP3     H2       HT       0.417000       1.00800           0
     25355 TIP3     5147     TIP3     OH2      OT      -0.834000       15.9994           0
     25356 TIP3     5147     TIP3     H1       HT       0.417000       1.00800           0
     25357 TIP3     5147     TIP3     H2       HT       0.417000       1.00800           0
     25358 TIP3     5148     TIP3     OH2      OT      -0.834000       15.9994           0
     25359 TIP3     5148     TIP3     H1       HT       0.417000       1.00800           0
     25360 TIP3     5148     TIP3     H2       HT       0.417000       1.00800           0
     25361 TIP3     5149     TIP3     OH2      OT      -0.834000       15.9994           0
     25362 TIP3     5149     TIP3     H1       HT       0.417000       1.00800           0
     25363 TIP3     5149     TIP3     H2       HT       0.417000       1.00800           0
     25364 TIP3     5150     TIP3     OH2      OT      -0.834000       15.9994           0
     25365 TIP3     5150     TIP3     H1       HT       0.417000       1.00800           0
     25366 TIP3     5150     TIP3     H2       HT       0.417000       1.00800           0
     25367 TIP3     5151     TIP3     OH2      OT      -0.834000       15.9994           0
     25368 TIP3     5151     TIP3     H1       HT       0.417000       1.00800           0
     25369 TIP3     5151     TIP3     H2       HT       0.417000       1.00800           0
     25370 TIP3     5152     TIP3     OH2      OT      -0.834000       15.9994           0
     25371 TIP3     5152     TIP3     H1       HT       0.417000       1.00800           0
     25372 TIP3     5152     TIP3     H2       HT       0.417000       1.00800           0
     25373 TIP3     5153     TIP3     OH2      OT      -0.834000       15.9994           0
     25374 TIP3     5153     TIP3     H1       HT       0.417000       1.00800           0
     25375 TIP3     5153     TIP3     H2       HT       0.417000       1.00800           0
     25376 TIP3     5154     TIP3     OH2      OT      -0.834000       15.9994           0
     25377 TIP3     5154     TIP3     H1       HT       0.417000       1.00800           0
     25378 TIP3     5154     TIP3     H2       HT       0.417000       1.00800           0
     25379 TIP3     5155     TIP3     OH2      OT      -0.834000       15.9994           0
     25380 TIP3     5155     TIP3     H1       HT       0.417000       1.00800           0
     25381 TIP3     5155     TIP3     H2       HT       0.417000       1.00800           0
     25382 TIP3     5156     TIP3     OH2      OT      -0.834000       15.9994           0
     25383 TIP3     5156     TIP3     H1       HT       0.417000       1.00800           0
     25384 TIP3     5156     TIP3     H2       HT       0.417000       1.00800           0
     25385 TIP3     5157     TIP3     OH2      OT      -0.834000       15.9994           0
     25386 TIP3     5157     TIP3     H1       HT       0.417000       1.00800           0
     25387 TIP3     5157     TIP3     H2       HT       0.417000       1.00800           0
     25388 TIP3     5158     TIP3     OH2      OT      -0.834000       15.9994           0
     25389 TIP3     5158     TIP3     H1       HT       0.417000       1.00800           0
     25390 TIP3     5158     TIP3     H2       HT       0.417000       1.00800           0
     25391 TIP3     5159     TIP3     OH2      OT      -0.834000       15.9994           0
     25392 TIP3     5159     TIP3     H1       HT       0.417000       1.00800           0
     25393 TIP3     5159     TIP3     H2       HT       0.417000       1.00800           0
     25394 TIP3     5160     TIP3     OH2      OT      -0.834000       15.9994           0
     25395 TIP3     5160     TIP3     H1       HT       0.417000       1.00800           0
     25396 TIP3     5160     TIP3     H2       HT       0.417000       1.00800           0
     25397 TIP3     5161     TIP3     OH2      OT      -0.834000       15.9994           0
     25398 TIP3     5161     TIP3     H1       HT       0.417000       1.00800           0
     25399 TIP3     5161     TIP3     H2       HT       0.417000       1.00800           0
     25400 TIP3     5162     TIP3     OH2      OT      -0.834000       15.9994           0
     25401 TIP3     5162     TIP3     H1       HT       0.417000       1.00800           0
     25402 TIP3     5162     TIP3     H2       HT       0.417000       1.00800           0
     25403 TIP3     5163     TIP3     OH2      OT      -0.834000       15.9994           0
     25404 TIP3     5163     TIP3     H1       HT       0.417000       1.00800           0
     25405 TIP3     5163     TIP3     H2       HT       0.417000       1.00800           0
     25406 TIP3     5164     TIP3     OH2      OT      -0.834000       15.9994           0
     25407 TIP3     5164     TIP3     H1       HT       0.417000       1.00800           0
     25408 TIP3     5164     TIP3     H2       HT       0.417000       1.00800           0
     25409 TIP3     5165     TIP3     OH2      OT      -0.834000       15.9994           0
     25410 TIP3     5165     TIP3     H1       HT       0.417000       1.00800           0
     25411 TIP3     5165     TIP3     H2       HT       0.417000       1.00800           0
     25412 TIP3     5166     TIP3     OH2      OT      -0.834000       15.9994           0
     25413 TIP3     5166     TIP3     H1       HT       0.417000       1.00800           0
     25414 TIP3     5166     TIP3     H2       HT       0.417000       1.00800           0
     25415 TIP3     5167     TIP3     OH2      OT      -0.834000       15.9994           0
     25416 TIP3     5167     TIP3     H1       HT       0.417000       1.00800           0
     25417 TIP3     5167     TIP3     H2       HT       0.417000       1.00800           0
     25418 TIP3     5168     TIP3     OH2      OT      -0.834000       15.9994           0
     25419 TIP3     5168     TIP3     H1       HT       0.417000       1.00800           0
     25420 TIP3     5168     TIP3     H2       HT       0.417000       1.00800           0
     25421 TIP3     5169     TIP3     OH2      OT      -0.834000       15.9994           0
     25422 TIP3     5169     TIP3     H1       HT       0.417000       1.00800           0
     25423 TIP3     5169     TIP3     H2       HT       0.417000       1.00800           0
     25424 TIP3     5170     TIP3     OH2      OT      -0.834000       15.9994           0
     25425 TIP3     5170     TIP3     H1       HT       0.417000       1.00800           0
     25426 TIP3     5170     TIP3     H2       HT       0.417000       1.00800           0
     25427 TIP3     5171     TIP3     OH2      OT      -0.834000       15.9994           0
     25428 TIP3     5171     TIP3     H1       HT       0.417000       1.00800           0
     25429 TIP3     5171     TIP3     H2       HT       0.417000       1.00800           0
     25430 TIP3     5172     TIP3     OH2      OT      -0.834000       15.9994           0
     25431 TIP3     5172     TIP3     H1       HT       0.417000       1.00800           0
     25432 TIP3     5172     TIP3     H2       HT       0.417000       1.00800           0
     25433 TIP3     5173     TIP3     OH2      OT      -0.834000       15.9994           0
     25434 TIP3     5173     TIP3     H1       HT       0.417000       1.00800           0
     25435 TIP3     5173     TIP3     H2       HT       0.417000       1.00800           0
     25436 TIP3     5174     TIP3     OH2      OT      -0.834000       15.9994           0
     25437 TIP3     5174     TIP3     H1       HT       0.417000       1.00800           0
     25438 TIP3     5174     TIP3     H2       HT       0.417000       1.00800           0
     25439 TIP3     5175     TIP3     OH2      OT      -0.834000       15.9994           0
     25440 TIP3     5175     TIP3     H1       HT       0.417000       1.00800           0
     25441 TIP3     5175     TIP3     H2       HT       0.417000       1.00800           0
     25442 TIP3     5176     TIP3     OH2      OT      -0.834000       15.9994           0
     25443 TIP3     5176     TIP3     H1       HT       0.417000       1.00800           0
     25444 TIP3     5176     TIP3     H2       HT       0.417000       1.00800           0
     25445 TIP3     5177     TIP3     OH2      OT      -0.834000       15.9994           0
     25446 TIP3     5177     TIP3     H1       HT       0.417000       1.00800           0
     25447 TIP3     5177     TIP3     H2       HT       0.417000       1.00800           0
     25448 TIP3     5178     TIP3     OH2      OT      -0.834000       15.9994           0
     25449 TIP3     5178     TIP3     H1       HT       0.417000       1.00800           0
     25450 TIP3     5178     TIP3     H2       HT       0.417000       1.00800           0
     25451 TIP3     5179     TIP3     OH2      OT      -0.834000       15.9994           0
     25452 TIP3     5179     TIP3     H1       HT       0.417000       1.00800           0
     25453 TIP3     5179     TIP3     H2       HT       0.417000       1.00800           0
     25454 TIP3     5180     TIP3     OH2      OT      -0.834000       15.9994           0
     25455 TIP3     5180     TIP3     H1       HT       0.417000       1.00800           0
     25456 TIP3     5180     TIP3     H2       HT       0.417000       1.00800           0
     25457 TIP3     5181     TIP3     OH2      OT      -0.834000       15.9994           0
     25458 TIP3     5181     TIP3     H1       HT       0.417000       1.00800           0
     25459 TIP3     5181     TIP3     H2       HT       0.417000       1.00800           0
     25460 TIP3     5182     TIP3     OH2      OT      -0.834000       15.9994           0
     25461 TIP3     5182     TIP3     H1       HT       0.417000       1.00800           0
     25462 TIP3     5182     TIP3     H2       HT       0.417000       1.00800           0
     25463 TIP3     5183     TIP3     OH2      OT      -0.834000       15.9994           0
     25464 TIP3     5183     TIP3     H1       HT       0.417000       1.00800           0
     25465 TIP3     5183     TIP3     H2       HT       0.417000       1.00800           0
     25466 TIP3     5184     TIP3     OH2      OT      -0.834000       15.9994           0
     25467 TIP3     5184     TIP3     H1       HT       0.417000       1.00800           0
     25468 TIP3     5184     TIP3     H2       HT       0.417000       1.00800           0
     25469 TIP3     5185     TIP3     OH2      OT      -0.834000       15.9994           0
     25470 TIP3     5185     TIP3     H1       HT       0.417000       1.00800           0
     25471 TIP3     5185     TIP3     H2       HT       0.417000       1.00800           0
     25472 TIP3     5186     TIP3     OH2      OT      -0.834000       15.9994           0
     25473 TIP3     5186     TIP3     H1       HT       0.417000       1.00800           0
     25474 TIP3     5186     TIP3     H2       HT       0.417000       1.00800           0
     25475 TIP3     5187     TIP3     OH2      OT      -0.834000       15.9994           0
     25476 TIP3     5187     TIP3     H1       HT       0.417000       1.00800           0
     25477 TIP3     5187     TIP3     H2       HT       0.417000       1.00800           0
     25478 TIP3     5188     TIP3     OH2      OT      -0.834000       15.9994           0
     25479 TIP3     5188     TIP3     H1       HT       0.417000       1.00800           0
     25480 TIP3     5188     TIP3     H2       HT       0.417000       1.00800           0
     25481 TIP3     5189     TIP3     OH2      OT      -0.834000       15.9994           0
     25482 TIP3     5189     TIP3     H1       HT       0.417000       1.00800           0
     25483 TIP3     5189     TIP3     H2       HT       0.417000       1.00800           0
     25484 TIP3     5190     TIP3     OH2      OT      -0.834000       15.9994           0
     25485 TIP3     5190     TIP3     H1       HT       0.417000       1.00800           0
     25486 TIP3     5190     TIP3     H2       HT       0.417000       1.00800           0
     25487 TIP3     5191     TIP3     OH2      OT      -0.834000       15.9994           0
     25488 TIP3     5191     TIP3     H1       HT       0.417000       1.00800           0
     25489 TIP3     5191     TIP3     H2       HT       0.417000       1.00800           0
     25490 TIP3     5192     TIP3     OH2      OT      -0.834000       15.9994           0
     25491 TIP3     5192     TIP3     H1       HT       0.417000       1.00800           0
     25492 TIP3     5192     TIP3     H2       HT       0.417000       1.00800           0
     25493 TIP3     5193     TIP3     OH2      OT      -0.834000       15.9994           0
     25494 TIP3     5193     TIP3     H1       HT       0.417000       1.00800           0
     25495 TIP3     5193     TIP3     H2       HT       0.417000       1.00800           0
     25496 TIP3     5194     TIP3     OH2      OT      -0.834000       15.9994           0
     25497 TIP3     5194     TIP3     H1       HT       0.417000       1.00800           0
     25498 TIP3     5194     TIP3     H2       HT       0.417000       1.00800           0
     25499 TIP3     5195     TIP3     OH2      OT      -0.834000       15.9994           0
     25500 TIP3     5195     TIP3     H1       HT       0.417000       1.00800           0
     25501 TIP3     5195     TIP3     H2       HT       0.417000       1.00800           0
     25502 TIP3     5196     TIP3     OH2      OT      -0.834000       15.9994           0
     25503 TIP3     5196     TIP3     H1       HT       0.417000       1.00800           0
     25504 TIP3     5196     TIP3     H2       HT       0.417000       1.00800           0
     25505 TIP3     5197     TIP3     OH2      OT      -0.834000       15.9994           0
     25506 TIP3     5197     TIP3     H1       HT       0.417000       1.00800           0
     25507 TIP3     5197     TIP3     H2       HT       0.417000       1.00800           0
     25508 TIP3     5198     TIP3     OH2      OT      -0.834000       15.9994           0
     25509 TIP3     5198     TIP3     H1       HT       0.417000       1.00800           0
     25510 TIP3     5198     TIP3     H2       HT       0.417000       1.00800           0
     25511 TIP3     5199     TIP3     OH2      OT      -0.834000       15.9994           0
     25512 TIP3     5199     TIP3     H1       HT       0.417000       1.00800           0
     25513 TIP3     5199     TIP3     H2       HT       0.417000       1.00800           0
     25514 TIP3     5200     TIP3     OH2      OT      -0.834000       15.9994           0
     25515 TIP3     5200     TIP3     H1       HT       0.417000       1.00800           0
     25516 TIP3     5200     TIP3     H2       HT       0.417000       1.00800           0
     25517 TIP3     5201     TIP3     OH2      OT      -0.834000       15.9994           0
     25518 TIP3     5201     TIP3     H1       HT       0.417000       1.00800           0
     25519 TIP3     5201     TIP3     H2       HT       0.417000       1.00800           0
     25520 TIP3     5202     TIP3     OH2      OT      -0.834000       15.9994           0
     25521 TIP3     5202     TIP3     H1       HT       0.417000       1.00800           0
     25522 TIP3     5202     TIP3     H2       HT       0.417000       1.00800           0
     25523 TIP3     5203     TIP3     OH2      OT      -0.834000       15.9994           0
     25524 TIP3     5203     TIP3     H1       HT       0.417000       1.00800           0
     25525 TIP3     5203     TIP3     H2       HT       0.417000       1.00800           0
     25526 TIP3     5204     TIP3     OH2      OT      -0.834000       15.9994           0
     25527 TIP3     5204     TIP3     H1       HT       0.417000       1.00800           0
     25528 TIP3     5204     TIP3     H2       HT       0.417000       1.00800           0
     25529 TIP3     5205     TIP3     OH2      OT      -0.834000       15.9994           0
     25530 TIP3     5205     TIP3     H1       HT       0.417000       1.00800           0
     25531 TIP3     5205     TIP3     H2       HT       0.417000       1.00800           0
     25532 TIP3     5206     TIP3     OH2      OT      -0.834000       15.9994           0
     25533 TIP3     5206     TIP3     H1       HT       0.417000       1.00800           0
     25534 TIP3     5206     TIP3     H2       HT       0.417000       1.00800           0
     25535 TIP3     5207     TIP3     OH2      OT      -0.834000       15.9994           0
     25536 TIP3     5207     TIP3     H1       HT       0.417000       1.00800           0
     25537 TIP3     5207     TIP3     H2       HT       0.417000       1.00800           0
     25538 TIP3     5208     TIP3     OH2      OT      -0.834000       15.9994           0
     25539 TIP3     5208     TIP3     H1       HT       0.417000       1.00800           0
     25540 TIP3     5208     TIP3     H2       HT       0.417000       1.00800           0
     25541 TIP3     5209     TIP3     OH2      OT      -0.834000       15.9994           0
     25542 TIP3     5209     TIP3     H1       HT       0.417000       1.00800           0
     25543 TIP3     5209     TIP3     H2       HT       0.417000       1.00800           0
     25544 TIP3     5210     TIP3     OH2      OT      -0.834000       15.9994           0
     25545 TIP3     5210     TIP3     H1       HT       0.417000       1.00800           0
     25546 TIP3     5210     TIP3     H2       HT       0.417000       1.00800           0
     25547 TIP3     5211     TIP3     OH2      OT      -0.834000       15.9994           0
     25548 TIP3     5211     TIP3     H1       HT       0.417000       1.00800           0
     25549 TIP3     5211     TIP3     H2       HT       0.417000       1.00800           0
     25550 TIP3     5212     TIP3     OH2      OT      -0.834000       15.9994           0
     25551 TIP3     5212     TIP3     H1       HT       0.417000       1.00800           0
     25552 TIP3     5212     TIP3     H2       HT       0.417000       1.00800           0
     25553 TIP3     5213     TIP3     OH2      OT      -0.834000       15.9994           0
     25554 TIP3     5213     TIP3     H1       HT       0.417000       1.00800           0
     25555 TIP3     5213     TIP3     H2       HT       0.417000       1.00800           0
     25556 TIP3     5214     TIP3     OH2      OT      -0.834000       15.9994           0
     25557 TIP3     5214     TIP3     H1       HT       0.417000       1.00800           0
     25558 TIP3     5214     TIP3     H2       HT       0.417000       1.00800           0
     25559 TIP3     5215     TIP3     OH2      OT      -0.834000       15.9994           0
     25560 TIP3     5215     TIP3     H1       HT       0.417000       1.00800           0
     25561 TIP3     5215     TIP3     H2       HT       0.417000       1.00800           0
     25562 TIP3     5216     TIP3     OH2      OT      -0.834000       15.9994           0
     25563 TIP3     5216     TIP3     H1       HT       0.417000       1.00800           0
     25564 TIP3     5216     TIP3     H2       HT       0.417000       1.00800           0
     25565 TIP3     5217     TIP3     OH2      OT      -0.834000       15.9994           0
     25566 TIP3     5217     TIP3     H1       HT       0.417000       1.00800           0
     25567 TIP3     5217     TIP3     H2       HT       0.417000       1.00800           0
     25568 TIP3     5218     TIP3     OH2      OT      -0.834000       15.9994           0
     25569 TIP3     5218     TIP3     H1       HT       0.417000       1.00800           0
     25570 TIP3     5218     TIP3     H2       HT       0.417000       1.00800           0
     25571 TIP3     5219     TIP3     OH2      OT      -0.834000       15.9994           0
     25572 TIP3     5219     TIP3     H1       HT       0.417000       1.00800           0
     25573 TIP3     5219     TIP3     H2       HT       0.417000       1.00800           0
     25574 TIP3     5220     TIP3     OH2      OT      -0.834000       15.9994           0
     25575 TIP3     5220     TIP3     H1       HT       0.417000       1.00800           0
     25576 TIP3     5220     TIP3     H2       HT       0.417000       1.00800           0
     25577 TIP3     5221     TIP3     OH2      OT      -0.834000       15.9994           0
     25578 TIP3     5221     TIP3     H1       HT       0.417000       1.00800           0
     25579 TIP3     5221     TIP3     H2       HT       0.417000       1.00800           0
     25580 TIP3     5222     TIP3     OH2      OT      -0.834000       15.9994           0
     25581 TIP3     5222     TIP3     H1       HT       0.417000       1.00800           0
     25582 TIP3     5222     TIP3     H2       HT       0.417000       1.00800           0
     25583 TIP3     5223     TIP3     OH2      OT      -0.834000       15.9994           0
     25584 TIP3     5223     TIP3     H1       HT       0.417000       1.00800           0
     25585 TIP3     5223     TIP3     H2       HT       0.417000       1.00800           0
     25586 TIP3     5224     TIP3     OH2      OT      -0.834000       15.9994           0
     25587 TIP3     5224     TIP3     H1       HT       0.417000       1.00800           0
     25588 TIP3     5224     TIP3     H2       HT       0.417000       1.00800           0
     25589 TIP3     5225     TIP3     OH2      OT      -0.834000       15.9994           0
     25590 TIP3     5225     TIP3     H1       HT       0.417000       1.00800           0
     25591 TIP3     5225     TIP3     H2       HT       0.417000       1.00800           0
     25592 TIP3     5226     TIP3     OH2      OT      -0.834000       15.9994           0
     25593 TIP3     5226     TIP3     H1       HT       0.417000       1.00800           0
     25594 TIP3     5226     TIP3     H2       HT       0.417000       1.00800           0
     25595 TIP3     5227     TIP3     OH2      OT      -0.834000       15.9994           0
     25596 TIP3     5227     TIP3     H1       HT       0.417000       1.00800           0
     25597 TIP3     5227     TIP3     H2       HT       0.417000       1.00800           0
     25598 TIP3     5228     TIP3     OH2      OT      -0.834000       15.9994           0
     25599 TIP3     5228     TIP3     H1       HT       0.417000       1.00800           0
     25600 TIP3     5228     TIP3     H2       HT       0.417000       1.00800           0
     25601 TIP3     5229     TIP3     OH2      OT      -0.834000       15.9994           0
     25602 TIP3     5229     TIP3     H1       HT       0.417000       1.00800           0
     25603 TIP3     5229     TIP3     H2       HT       0.417000       1.00800           0
     25604 TIP3     5230     TIP3     OH2      OT      -0.834000       15.9994           0
     25605 TIP3     5230     TIP3     H1       HT       0.417000       1.00800           0
     25606 TIP3     5230     TIP3     H2       HT       0.417000       1.00800           0
     25607 TIP3     5231     TIP3     OH2      OT      -0.834000       15.9994           0
     25608 TIP3     5231     TIP3     H1       HT       0.417000       1.00800           0
     25609 TIP3     5231     TIP3     H2       HT       0.417000       1.00800           0
     25610 TIP3     5232     TIP3     OH2      OT      -0.834000       15.9994           0
     25611 TIP3     5232     TIP3     H1       HT       0.417000       1.00800           0
     25612 TIP3     5232     TIP3     H2       HT       0.417000       1.00800           0
     25613 TIP3     5233     TIP3     OH2      OT      -0.834000       15.9994           0
     25614 TIP3     5233     TIP3     H1       HT       0.417000       1.00800           0
     25615 TIP3     5233     TIP3     H2       HT       0.417000       1.00800           0
     25616 TIP3     5234     TIP3     OH2      OT      -0.834000       15.9994           0
     25617 TIP3     5234     TIP3     H1       HT       0.417000       1.00800           0
     25618 TIP3     5234     TIP3     H2       HT       0.417000       1.00800           0
     25619 TIP3     5235     TIP3     OH2      OT      -0.834000       15.9994           0
     25620 TIP3     5235     TIP3     H1       HT       0.417000       1.00800           0
     25621 TIP3     5235     TIP3     H2       HT       0.417000       1.00800           0
     25622 TIP3     5236     TIP3     OH2      OT      -0.834000       15.9994           0
     25623 TIP3     5236     TIP3     H1       HT       0.417000       1.00800           0
     25624 TIP3     5236     TIP3     H2       HT       0.417000       1.00800           0
     25625 TIP3     5237     TIP3     OH2      OT      -0.834000       15.9994           0
     25626 TIP3     5237     TIP3     H1       HT       0.417000       1.00800           0
     25627 TIP3     5237     TIP3     H2       HT       0.417000       1.00800           0
     25628 TIP3     5238     TIP3     OH2      OT      -0.834000       15.9994           0
     25629 TIP3     5238     TIP3     H1       HT       0.417000       1.00800           0
     25630 TIP3     5238     TIP3     H2       HT       0.417000       1.00800           0
     25631 TIP3     5239     TIP3     OH2      OT      -0.834000       15.9994           0
     25632 TIP3     5239     TIP3     H1       HT       0.417000       1.00800           0
     25633 TIP3     5239     TIP3     H2       HT       0.417000       1.00800           0
     25634 TIP3     5240     TIP3     OH2      OT      -0.834000       15.9994           0
     25635 TIP3     5240     TIP3     H1       HT       0.417000       1.00800           0
     25636 TIP3     5240     TIP3     H2       HT       0.417000       1.00800           0
     25637 TIP3     5241     TIP3     OH2      OT      -0.834000       15.9994           0
     25638 TIP3     5241     TIP3     H1       HT       0.417000       1.00800           0
     25639 TIP3     5241     TIP3     H2       HT       0.417000       1.00800           0
     25640 TIP3     5242     TIP3     OH2      OT      -0.834000       15.9994           0
     25641 TIP3     5242     TIP3     H1       HT       0.417000       1.00800           0
     25642 TIP3     5242     TIP3     H2       HT       0.417000       1.00800           0
     25643 TIP3     5243     TIP3     OH2      OT      -0.834000       15.9994           0
     25644 TIP3     5243     TIP3     H1       HT       0.417000       1.00800           0
     25645 TIP3     5243     TIP3     H2       HT       0.417000       1.00800           0
     25646 TIP3     5244     TIP3     OH2      OT      -0.834000       15.9994           0
     25647 TIP3     5244     TIP3     H1       HT       0.417000       1.00800           0
     25648 TIP3     5244     TIP3     H2       HT       0.417000       1.00800           0
     25649 TIP3     5245     TIP3     OH2      OT      -0.834000       15.9994           0
     25650 TIP3     5245     TIP3     H1       HT       0.417000       1.00800           0
     25651 TIP3     5245     TIP3     H2       HT       0.417000       1.00800           0
     25652 TIP3     5246     TIP3     OH2      OT      -0.834000       15.9994           0
     25653 TIP3     5246     TIP3     H1       HT       0.417000       1.00800           0
     25654 TIP3     5246     TIP3     H2       HT       0.417000       1.00800           0
     25655 TIP3     5247     TIP3     OH2      OT      -0.834000       15.9994           0
     25656 TIP3     5247     TIP3     H1       HT       0.417000       1.00800           0
     25657 TIP3     5247     TIP3     H2       HT       0.417000       1.00800           0
     25658 TIP3     5248     TIP3     OH2      OT      -0.834000       15.9994           0
     25659 TIP3     5248     TIP3     H1       HT       0.417000       1.00800           0
     25660 TIP3     5248     TIP3     H2       HT       0.417000       1.00800           0
     25661 TIP3     5249     TIP3     OH2      OT      -0.834000       15.9994           0
     25662 TIP3     5249     TIP3     H1       HT       0.417000       1.00800           0
     25663 TIP3     5249     TIP3     H2       HT       0.417000       1.00800           0
     25664 TIP3     5250     TIP3     OH2      OT      -0.834000       15.9994           0
     25665 TIP3     5250     TIP3     H1       HT       0.417000       1.00800           0
     25666 TIP3     5250     TIP3     H2       HT       0.417000       1.00800           0
     25667 TIP3     5251     TIP3     OH2      OT      -0.834000       15.9994           0
     25668 TIP3     5251     TIP3     H1       HT       0.417000       1.00800           0
     25669 TIP3     5251     TIP3     H2       HT       0.417000       1.00800           0
     25670 TIP3     5252     TIP3     OH2      OT      -0.834000       15.9994           0
     25671 TIP3     5252     TIP3     H1       HT       0.417000       1.00800           0
     25672 TIP3     5252     TIP3     H2       HT       0.417000       1.00800           0
     25673 TIP3     5253     TIP3     OH2      OT      -0.834000       15.9994           0
     25674 TIP3     5253     TIP3     H1       HT       0.417000       1.00800           0
     25675 TIP3     5253     TIP3     H2       HT       0.417000       1.00800           0
     25676 TIP3     5254     TIP3     OH2      OT      -0.834000       15.9994           0
     25677 TIP3     5254     TIP3     H1       HT       0.417000       1.00800           0
     25678 TIP3     5254     TIP3     H2       HT       0.417000       1.00800           0
     25679 TIP3     5255     TIP3     OH2      OT      -0.834000       15.9994           0
     25680 TIP3     5255     TIP3     H1       HT       0.417000       1.00800           0
     25681 TIP3     5255     TIP3     H2       HT       0.417000       1.00800           0
     25682 TIP3     5256     TIP3     OH2      OT      -0.834000       15.9994           0
     25683 TIP3     5256     TIP3     H1       HT       0.417000       1.00800           0
     25684 TIP3     5256     TIP3     H2       HT       0.417000       1.00800           0
     25685 TIP3     5257     TIP3     OH2      OT      -0.834000       15.9994           0
     25686 TIP3     5257     TIP3     H1       HT       0.417000       1.00800           0
     25687 TIP3     5257     TIP3     H2       HT       0.417000       1.00800           0
     25688 TIP3     5258     TIP3     OH2      OT      -0.834000       15.9994           0
     25689 TIP3     5258     TIP3     H1       HT       0.417000       1.00800           0
     25690 TIP3     5258     TIP3     H2       HT       0.417000       1.00800           0
     25691 TIP3     5259     TIP3     OH2      OT      -0.834000       15.9994           0
     25692 TIP3     5259     TIP3     H1       HT       0.417000       1.00800           0
     25693 TIP3     5259     TIP3     H2       HT       0.417000       1.00800           0
     25694 TIP3     5260     TIP3     OH2      OT      -0.834000       15.9994           0
     25695 TIP3     5260     TIP3     H1       HT       0.417000       1.00800           0
     25696 TIP3     5260     TIP3     H2       HT       0.417000       1.00800           0
     25697 TIP3     5261     TIP3     OH2      OT      -0.834000       15.9994           0
     25698 TIP3     5261     TIP3     H1       HT       0.417000       1.00800           0
     25699 TIP3     5261     TIP3     H2       HT       0.417000       1.00800           0
     25700 TIP3     5262     TIP3     OH2      OT      -0.834000       15.9994           0
     25701 TIP3     5262     TIP3     H1       HT       0.417000       1.00800           0
     25702 TIP3     5262     TIP3     H2       HT       0.417000       1.00800           0
     25703 TIP3     5263     TIP3     OH2      OT      -0.834000       15.9994           0
     25704 TIP3     5263     TIP3     H1       HT       0.417000       1.00800           0
     25705 TIP3     5263     TIP3     H2       HT       0.417000       1.00800           0
     25706 TIP3     5264     TIP3     OH2      OT      -0.834000       15.9994           0
     25707 TIP3     5264     TIP3     H1       HT       0.417000       1.00800           0
     25708 TIP3     5264     TIP3     H2       HT       0.417000       1.00800           0
     25709 TIP3     5265     TIP3     OH2      OT      -0.834000       15.9994           0
     25710 TIP3     5265     TIP3     H1       HT       0.417000       1.00800           0
     25711 TIP3     5265     TIP3     H2       HT       0.417000       1.00800           0
     25712 TIP3     5266     TIP3     OH2      OT      -0.834000       15.9994           0
     25713 TIP3     5266     TIP3     H1       HT       0.417000       1.00800           0
     25714 TIP3     5266     TIP3     H2       HT       0.417000       1.00800           0
     25715 TIP3     5267     TIP3     OH2      OT      -0.834000       15.9994           0
     25716 TIP3     5267     TIP3     H1       HT       0.417000       1.00800           0
     25717 TIP3     5267     TIP3     H2       HT       0.417000       1.00800           0
     25718 TIP3     5268     TIP3     OH2      OT      -0.834000       15.9994           0
     25719 TIP3     5268     TIP3     H1       HT       0.417000       1.00800           0
     25720 TIP3     5268     TIP3     H2       HT       0.417000       1.00800           0
     25721 TIP3     5269     TIP3     OH2      OT      -0.834000       15.9994           0
     25722 TIP3     5269     TIP3     H1       HT       0.417000       1.00800           0
     25723 TIP3     5269     TIP3     H2       HT       0.417000       1.00800           0
     25724 TIP3     5270     TIP3     OH2      OT      -0.834000       15.9994           0
     25725 TIP3     5270     TIP3     H1       HT       0.417000       1.00800           0
     25726 TIP3     5270     TIP3     H2       HT       0.417000       1.00800           0
     25727 TIP3     5271     TIP3     OH2      OT      -0.834000       15.9994           0
     25728 TIP3     5271     TIP3     H1       HT       0.417000       1.00800           0
     25729 TIP3     5271     TIP3     H2       HT       0.417000       1.00800           0
     25730 TIP3     5272     TIP3     OH2      OT      -0.834000       15.9994           0
     25731 TIP3     5272     TIP3     H1       HT       0.417000       1.00800           0
     25732 TIP3     5272     TIP3     H2       HT       0.417000       1.00800           0
     25733 TIP3     5273     TIP3     OH2      OT      -0.834000       15.9994           0
     25734 TIP3     5273     TIP3     H1       HT       0.417000       1.00800           0
     25735 TIP3     5273     TIP3     H2       HT       0.417000       1.00800           0
     25736 TIP3     5274     TIP3     OH2      OT      -0.834000       15.9994           0
     25737 TIP3     5274     TIP3     H1       HT       0.417000       1.00800           0
     25738 TIP3     5274     TIP3     H2       HT       0.417000       1.00800           0
     25739 TIP3     5275     TIP3     OH2      OT      -0.834000       15.9994           0
     25740 TIP3     5275     TIP3     H1       HT       0.417000       1.00800           0
     25741 TIP3     5275     TIP3     H2       HT       0.417000       1.00800           0
     25742 TIP3     5276     TIP3     OH2      OT      -0.834000       15.9994           0
     25743 TIP3     5276     TIP3     H1       HT       0.417000       1.00800           0
     25744 TIP3     5276     TIP3     H2       HT       0.417000       1.00800           0
     25745 TIP3     5277     TIP3     OH2      OT      -0.834000       15.9994           0
     25746 TIP3     5277     TIP3     H1       HT       0.417000       1.00800           0
     25747 TIP3     5277     TIP3     H2       HT       0.417000       1.00800           0
     25748 TIP3     5278     TIP3     OH2      OT      -0.834000       15.9994           0
     25749 TIP3     5278     TIP3     H1       HT       0.417000       1.00800           0
     25750 TIP3     5278     TIP3     H2       HT       0.417000       1.00800           0
     25751 TIP3     5279     TIP3     OH2      OT      -0.834000       15.9994           0
     25752 TIP3     5279     TIP3     H1       HT       0.417000       1.00800           0
     25753 TIP3     5279     TIP3     H2       HT       0.417000       1.00800           0
     25754 TIP3     5280     TIP3     OH2      OT      -0.834000       15.9994           0
     25755 TIP3     5280     TIP3     H1       HT       0.417000       1.00800           0
     25756 TIP3     5280     TIP3     H2       HT       0.417000       1.00800           0
     25757 TIP3     5281     TIP3     OH2      OT      -0.834000       15.9994           0
     25758 TIP3     5281     TIP3     H1       HT       0.417000       1.00800           0
     25759 TIP3     5281     TIP3     H2       HT       0.417000       1.00800           0
     25760 TIP3     5282     TIP3     OH2      OT      -0.834000       15.9994           0
     25761 TIP3     5282     TIP3     H1       HT       0.417000       1.00800           0
     25762 TIP3     5282     TIP3     H2       HT       0.417000       1.00800           0
     25763 TIP3     5283     TIP3     OH2      OT      -0.834000       15.9994           0
     25764 TIP3     5283     TIP3     H1       HT       0.417000       1.00800           0
     25765 TIP3     5283     TIP3     H2       HT       0.417000       1.00800           0
     25766 TIP3     5284     TIP3     OH2      OT      -0.834000       15.9994           0
     25767 TIP3     5284     TIP3     H1       HT       0.417000       1.00800           0
     25768 TIP3     5284     TIP3     H2       HT       0.417000       1.00800           0
     25769 TIP3     5285     TIP3     OH2      OT      -0.834000       15.9994           0
     25770 TIP3     5285     TIP3     H1       HT       0.417000       1.00800           0
     25771 TIP3     5285     TIP3     H2       HT       0.417000       1.00800           0
     25772 TIP3     5286     TIP3     OH2      OT      -0.834000       15.9994           0
     25773 TIP3     5286     TIP3     H1       HT       0.417000       1.00800           0
     25774 TIP3     5286     TIP3     H2       HT       0.417000       1.00800           0
     25775 TIP3     5287     TIP3     OH2      OT      -0.834000       15.9994           0
     25776 TIP3     5287     TIP3     H1       HT       0.417000       1.00800           0
     25777 TIP3     5287     TIP3     H2       HT       0.417000       1.00800           0
     25778 TIP3     5288     TIP3     OH2      OT      -0.834000       15.9994           0
     25779 TIP3     5288     TIP3     H1       HT       0.417000       1.00800           0
     25780 TIP3     5288     TIP3     H2       HT       0.417000       1.00800           0
     25781 TIP3     5289     TIP3     OH2      OT      -0.834000       15.9994           0
     25782 TIP3     5289     TIP3     H1       HT       0.417000       1.00800           0
     25783 TIP3     5289     TIP3     H2       HT       0.417000       1.00800           0
     25784 TIP3     5290     TIP3     OH2      OT      -0.834000       15.9994           0
     25785 TIP3     5290     TIP3     H1       HT       0.417000       1.00800           0
     25786 TIP3     5290     TIP3     H2       HT       0.417000       1.00800           0
     25787 TIP3     5291     TIP3     OH2      OT      -0.834000       15.9994           0
     25788 TIP3     5291     TIP3     H1       HT       0.417000       1.00800           0
     25789 TIP3     5291     TIP3     H2       HT       0.417000       1.00800           0
     25790 TIP3     5292     TIP3     OH2      OT      -0.834000       15.9994           0
     25791 TIP3     5292     TIP3     H1       HT       0.417000       1.00800           0
     25792 TIP3     5292     TIP3     H2       HT       0.417000       1.00800           0
     25793 TIP3     5293     TIP3     OH2      OT      -0.834000       15.9994           0
     25794 TIP3     5293     TIP3     H1       HT       0.417000       1.00800           0
     25795 TIP3     5293     TIP3     H2       HT       0.417000       1.00800           0
     25796 TIP3     5294     TIP3     OH2      OT      -0.834000       15.9994           0
     25797 TIP3     5294     TIP3     H1       HT       0.417000       1.00800           0
     25798 TIP3     5294     TIP3     H2       HT       0.417000       1.00800           0
     25799 TIP3     5295     TIP3     OH2      OT      -0.834000       15.9994           0
     25800 TIP3     5295     TIP3     H1       HT       0.417000       1.00800           0
     25801 TIP3     5295     TIP3     H2       HT       0.417000       1.00800           0
     25802 TIP3     5296     TIP3     OH2      OT      -0.834000       15.9994           0
     25803 TIP3     5296     TIP3     H1       HT       0.417000       1.00800           0
     25804 TIP3     5296     TIP3     H2       HT       0.417000       1.00800           0
     25805 TIP3     5297     TIP3     OH2      OT      -0.834000       15.9994           0
     25806 TIP3     5297     TIP3     H1       HT       0.417000       1.00800           0
     25807 TIP3     5297     TIP3     H2       HT       0.417000       1.00800           0
     25808 TIP3     5298     TIP3     OH2      OT      -0.834000       15.9994           0
     25809 TIP3     5298     TIP3     H1       HT       0.417000       1.00800           0
     25810 TIP3     5298     TIP3     H2       HT       0.417000       1.00800           0
     25811 TIP3     5299     TIP3     OH2      OT      -0.834000       15.9994           0
     25812 TIP3     5299     TIP3     H1       HT       0.417000       1.00800           0
     25813 TIP3     5299     TIP3     H2       HT       0.417000       1.00800           0
     25814 TIP3     5300     TIP3     OH2      OT      -0.834000       15.9994           0
     25815 TIP3     5300     TIP3     H1       HT       0.417000       1.00800           0
     25816 TIP3     5300     TIP3     H2       HT       0.417000       1.00800           0
     25817 TIP3     5301     TIP3     OH2      OT      -0.834000       15.9994           0
     25818 TIP3     5301     TIP3     H1       HT       0.417000       1.00800           0
     25819 TIP3     5301     TIP3     H2       HT       0.417000       1.00800           0
     25820 TIP3     5302     TIP3     OH2      OT      -0.834000       15.9994           0
     25821 TIP3     5302     TIP3     H1       HT       0.417000       1.00800           0
     25822 TIP3     5302     TIP3     H2       HT       0.417000       1.00800           0
     25823 TIP3     5303     TIP3     OH2      OT      -0.834000       15.9994           0
     25824 TIP3     5303     TIP3     H1       HT       0.417000       1.00800           0
     25825 TIP3     5303     TIP3     H2       HT       0.417000       1.00800           0
     25826 TIP3     5304     TIP3     OH2      OT      -0.834000       15.9994           0
     25827 TIP3     5304     TIP3     H1       HT       0.417000       1.00800           0
     25828 TIP3     5304     TIP3     H2       HT       0.417000       1.00800           0
     25829 TIP3     5305     TIP3     OH2      OT      -0.834000       15.9994           0
     25830 TIP3     5305     TIP3     H1       HT       0.417000       1.00800           0
     25831 TIP3     5305     TIP3     H2       HT       0.417000       1.00800           0
     25832 TIP3     5306     TIP3     OH2      OT      -0.834000       15.9994           0
     25833 TIP3     5306     TIP3     H1       HT       0.417000       1.00800           0
     25834 TIP3     5306     TIP3     H2       HT       0.417000       1.00800           0
     25835 TIP3     5307     TIP3     OH2      OT      -0.834000       15.9994           0
     25836 TIP3     5307     TIP3     H1       HT       0.417000       1.00800           0
     25837 TIP3     5307     TIP3     H2       HT       0.417000       1.00800           0
     25838 TIP3     5308     TIP3     OH2      OT      -0.834000       15.9994           0
     25839 TIP3     5308     TIP3     H1       HT       0.417000       1.00800           0
     25840 TIP3     5308     TIP3     H2       HT       0.417000       1.00800           0
     25841 TIP3     5309     TIP3     OH2      OT      -0.834000       15.9994           0
     25842 TIP3     5309     TIP3     H1       HT       0.417000       1.00800           0
     25843 TIP3     5309     TIP3     H2       HT       0.417000       1.00800           0
     25844 TIP3     5310     TIP3     OH2      OT      -0.834000       15.9994           0
     25845 TIP3     5310     TIP3     H1       HT       0.417000       1.00800           0
     25846 TIP3     5310     TIP3     H2       HT       0.417000       1.00800           0
     25847 TIP3     5311     TIP3     OH2      OT      -0.834000       15.9994           0
     25848 TIP3     5311     TIP3     H1       HT       0.417000       1.00800           0
     25849 TIP3     5311     TIP3     H2       HT       0.417000       1.00800           0
     25850 TIP3     5312     TIP3     OH2      OT      -0.834000       15.9994           0
     25851 TIP3     5312     TIP3     H1       HT       0.417000       1.00800           0
     25852 TIP3     5312     TIP3     H2       HT       0.417000       1.00800           0
     25853 TIP3     5313     TIP3     OH2      OT      -0.834000       15.9994           0
     25854 TIP3     5313     TIP3     H1       HT       0.417000       1.00800           0
     25855 TIP3     5313     TIP3     H2       HT       0.417000       1.00800           0
     25856 TIP3     5314     TIP3     OH2      OT      -0.834000       15.9994           0
     25857 TIP3     5314     TIP3     H1       HT       0.417000       1.00800           0
     25858 TIP3     5314     TIP3     H2       HT       0.417000       1.00800           0
     25859 TIP3     5315     TIP3     OH2      OT      -0.834000       15.9994           0
     25860 TIP3     5315     TIP3     H1       HT       0.417000       1.00800           0
     25861 TIP3     5315     TIP3     H2       HT       0.417000       1.00800           0
     25862 TIP3     5316     TIP3     OH2      OT      -0.834000       15.9994           0
     25863 TIP3     5316     TIP3     H1       HT       0.417000       1.00800           0
     25864 TIP3     5316     TIP3     H2       HT       0.417000       1.00800           0
     25865 TIP3     5317     TIP3     OH2      OT      -0.834000       15.9994           0
     25866 TIP3     5317     TIP3     H1       HT       0.417000       1.00800           0
     25867 TIP3     5317     TIP3     H2       HT       0.417000       1.00800           0
     25868 TIP3     5318     TIP3     OH2      OT      -0.834000       15.9994           0
     25869 TIP3     5318     TIP3     H1       HT       0.417000       1.00800           0
     25870 TIP3     5318     TIP3     H2       HT       0.417000       1.00800           0
     25871 TIP3     5319     TIP3     OH2      OT      -0.834000       15.9994           0
     25872 TIP3     5319     TIP3     H1       HT       0.417000       1.00800           0
     25873 TIP3     5319     TIP3     H2       HT       0.417000       1.00800           0
     25874 TIP3     5320     TIP3     OH2      OT      -0.834000       15.9994           0
     25875 TIP3     5320     TIP3     H1       HT       0.417000       1.00800           0
     25876 TIP3     5320     TIP3     H2       HT       0.417000       1.00800           0
     25877 TIP3     5321     TIP3     OH2      OT      -0.834000       15.9994           0
     25878 TIP3     5321     TIP3     H1       HT       0.417000       1.00800           0
     25879 TIP3     5321     TIP3     H2       HT       0.417000       1.00800           0
     25880 TIP3     5322     TIP3     OH2      OT      -0.834000       15.9994           0
     25881 TIP3     5322     TIP3     H1       HT       0.417000       1.00800           0
     25882 TIP3     5322     TIP3     H2       HT       0.417000       1.00800           0
     25883 TIP3     5323     TIP3     OH2      OT      -0.834000       15.9994           0
     25884 TIP3     5323     TIP3     H1       HT       0.417000       1.00800           0
     25885 TIP3     5323     TIP3     H2       HT       0.417000       1.00800           0
     25886 TIP3     5324     TIP3     OH2      OT      -0.834000       15.9994           0
     25887 TIP3     5324     TIP3     H1       HT       0.417000       1.00800           0
     25888 TIP3     5324     TIP3     H2       HT       0.417000       1.00800           0
     25889 TIP3     5325     TIP3     OH2      OT      -0.834000       15.9994           0
     25890 TIP3     5325     TIP3     H1       HT       0.417000       1.00800           0
     25891 TIP3     5325     TIP3     H2       HT       0.417000       1.00800           0
     25892 TIP3     5326     TIP3     OH2      OT      -0.834000       15.9994           0
     25893 TIP3     5326     TIP3     H1       HT       0.417000       1.00800           0
     25894 TIP3     5326     TIP3     H2       HT       0.417000       1.00800           0
     25895 TIP3     5327     TIP3     OH2      OT      -0.834000       15.9994           0
     25896 TIP3     5327     TIP3     H1       HT       0.417000       1.00800           0
     25897 TIP3     5327     TIP3     H2       HT       0.417000       1.00800           0
     25898 TIP3     5328     TIP3     OH2      OT      -0.834000       15.9994           0
     25899 TIP3     5328     TIP3     H1       HT       0.417000       1.00800           0
     25900 TIP3     5328     TIP3     H2       HT       0.417000       1.00800           0
     25901 TIP3     5329     TIP3     OH2      OT      -0.834000       15.9994           0
     25902 TIP3     5329     TIP3     H1       HT       0.417000       1.00800           0
     25903 TIP3     5329     TIP3     H2       HT       0.417000       1.00800           0
     25904 TIP3     5330     TIP3     OH2      OT      -0.834000       15.9994           0
     25905 TIP3     5330     TIP3     H1       HT       0.417000       1.00800           0
     25906 TIP3     5330     TIP3     H2       HT       0.417000       1.00800           0
     25907 TIP3     5331     TIP3     OH2      OT      -0.834000       15.9994           0
     25908 TIP3     5331     TIP3     H1       HT       0.417000       1.00800           0
     25909 TIP3     5331     TIP3     H2       HT       0.417000       1.00800           0
     25910 TIP3     5332     TIP3     OH2      OT      -0.834000       15.9994           0
     25911 TIP3     5332     TIP3     H1       HT       0.417000       1.00800           0
     25912 TIP3     5332     TIP3     H2       HT       0.417000       1.00800           0
     25913 TIP3     5333     TIP3     OH2      OT      -0.834000       15.9994           0
     25914 TIP3     5333     TIP3     H1       HT       0.417000       1.00800           0
     25915 TIP3     5333     TIP3     H2       HT       0.417000       1.00800           0
     25916 TIP3     5334     TIP3     OH2      OT      -0.834000       15.9994           0
     25917 TIP3     5334     TIP3     H1       HT       0.417000       1.00800           0
     25918 TIP3     5334     TIP3     H2       HT       0.417000       1.00800           0
     25919 TIP3     5335     TIP3     OH2      OT      -0.834000       15.9994           0
     25920 TIP3     5335     TIP3     H1       HT       0.417000       1.00800           0
     25921 TIP3     5335     TIP3     H2       HT       0.417000       1.00800           0
     25922 TIP3     5336     TIP3     OH2      OT      -0.834000       15.9994           0
     25923 TIP3     5336     TIP3     H1       HT       0.417000       1.00800           0
     25924 TIP3     5336     TIP3     H2       HT       0.417000       1.00800           0
     25925 TIP3     5337     TIP3     OH2      OT      -0.834000       15.9994           0
     25926 TIP3     5337     TIP3     H1       HT       0.417000       1.00800           0
     25927 TIP3     5337     TIP3     H2       HT       0.417000       1.00800           0
     25928 TIP3     5338     TIP3     OH2      OT      -0.834000       15.9994           0
     25929 TIP3     5338     TIP3     H1       HT       0.417000       1.00800           0
     25930 TIP3     5338     TIP3     H2       HT       0.417000       1.00800           0
     25931 TIP3     5339     TIP3     OH2      OT      -0.834000       15.9994           0
     25932 TIP3     5339     TIP3     H1       HT       0.417000       1.00800           0
     25933 TIP3     5339     TIP3     H2       HT       0.417000       1.00800           0
     25934 TIP3     5340     TIP3     OH2      OT      -0.834000       15.9994           0
     25935 TIP3     5340     TIP3     H1       HT       0.417000       1.00800           0
     25936 TIP3     5340     TIP3     H2       HT       0.417000       1.00800           0
     25937 TIP3     5341     TIP3     OH2      OT      -0.834000       15.9994           0
     25938 TIP3     5341     TIP3     H1       HT       0.417000       1.00800           0
     25939 TIP3     5341     TIP3     H2       HT       0.417000       1.00800           0
     25940 TIP3     5342     TIP3     OH2      OT      -0.834000       15.9994           0
     25941 TIP3     5342     TIP3     H1       HT       0.417000       1.00800           0
     25942 TIP3     5342     TIP3     H2       HT       0.417000       1.00800           0
     25943 TIP3     5343     TIP3     OH2      OT      -0.834000       15.9994           0
     25944 TIP3     5343     TIP3     H1       HT       0.417000       1.00800           0
     25945 TIP3     5343     TIP3     H2       HT       0.417000       1.00800           0
     25946 TIP3     5344     TIP3     OH2      OT      -0.834000       15.9994           0
     25947 TIP3     5344     TIP3     H1       HT       0.417000       1.00800           0
     25948 TIP3     5344     TIP3     H2       HT       0.417000       1.00800           0
     25949 TIP3     5345     TIP3     OH2      OT      -0.834000       15.9994           0
     25950 TIP3     5345     TIP3     H1       HT       0.417000       1.00800           0
     25951 TIP3     5345     TIP3     H2       HT       0.417000       1.00800           0
     25952 TIP3     5346     TIP3     OH2      OT      -0.834000       15.9994           0
     25953 TIP3     5346     TIP3     H1       HT       0.417000       1.00800           0
     25954 TIP3     5346     TIP3     H2       HT       0.417000       1.00800           0
     25955 TIP3     5347     TIP3     OH2      OT      -0.834000       15.9994           0
     25956 TIP3     5347     TIP3     H1       HT       0.417000       1.00800           0
     25957 TIP3     5347     TIP3     H2       HT       0.417000       1.00800           0
     25958 TIP3     5348     TIP3     OH2      OT      -0.834000       15.9994           0
     25959 TIP3     5348     TIP3     H1       HT       0.417000       1.00800           0
     25960 TIP3     5348     TIP3     H2       HT       0.417000       1.00800           0
     25961 TIP3     5349     TIP3     OH2      OT      -0.834000       15.9994           0
     25962 TIP3     5349     TIP3     H1       HT       0.417000       1.00800           0
     25963 TIP3     5349     TIP3     H2       HT       0.417000       1.00800           0
     25964 TIP3     5350     TIP3     OH2      OT      -0.834000       15.9994           0
     25965 TIP3     5350     TIP3     H1       HT       0.417000       1.00800           0
     25966 TIP3     5350     TIP3     H2       HT       0.417000       1.00800           0
     25967 TIP3     5351     TIP3     OH2      OT      -0.834000       15.9994           0
     25968 TIP3     5351     TIP3     H1       HT       0.417000       1.00800           0
     25969 TIP3     5351     TIP3     H2       HT       0.417000       1.00800           0
     25970 TIP3     5352     TIP3     OH2      OT      -0.834000       15.9994           0
     25971 TIP3     5352     TIP3     H1       HT       0.417000       1.00800           0
     25972 TIP3     5352     TIP3     H2       HT       0.417000       1.00800           0
     25973 TIP3     5353     TIP3     OH2      OT      -0.834000       15.9994           0
     25974 TIP3     5353     TIP3     H1       HT       0.417000       1.00800           0
     25975 TIP3     5353     TIP3     H2       HT       0.417000       1.00800           0
     25976 TIP3     5354     TIP3     OH2      OT      -0.834000       15.9994           0
     25977 TIP3     5354     TIP3     H1       HT       0.417000       1.00800           0
     25978 TIP3     5354     TIP3     H2       HT       0.417000       1.00800           0
     25979 TIP3     5355     TIP3     OH2      OT      -0.834000       15.9994           0
     25980 TIP3     5355     TIP3     H1       HT       0.417000       1.00800           0
     25981 TIP3     5355     TIP3     H2       HT       0.417000       1.00800           0
     25982 TIP3     5356     TIP3     OH2      OT      -0.834000       15.9994           0
     25983 TIP3     5356     TIP3     H1       HT       0.417000       1.00800           0
     25984 TIP3     5356     TIP3     H2       HT       0.417000       1.00800           0
     25985 TIP3     5357     TIP3     OH2      OT      -0.834000       15.9994           0
     25986 TIP3     5357     TIP3     H1       HT       0.417000       1.00800           0
     25987 TIP3     5357     TIP3     H2       HT       0.417000       1.00800           0
     25988 TIP3     5358     TIP3     OH2      OT      -0.834000       15.9994           0
     25989 TIP3     5358     TIP3     H1       HT       0.417000       1.00800           0
     25990 TIP3     5358     TIP3     H2       HT       0.417000       1.00800           0
     25991 TIP3     5359     TIP3     OH2      OT      -0.834000       15.9994           0
     25992 TIP3     5359     TIP3     H1       HT       0.417000       1.00800           0
     25993 TIP3     5359     TIP3     H2       HT       0.417000       1.00800           0
     25994 TIP3     5360     TIP3     OH2      OT      -0.834000       15.9994           0
     25995 TIP3     5360     TIP3     H1       HT       0.417000       1.00800           0
     25996 TIP3     5360     TIP3     H2       HT       0.417000       1.00800           0
     25997 TIP3     5361     TIP3     OH2      OT      -0.834000       15.9994           0
     25998 TIP3     5361     TIP3     H1       HT       0.417000       1.00800           0
     25999 TIP3     5361     TIP3     H2       HT       0.417000       1.00800           0
     26000 TIP3     5362     TIP3     OH2      OT      -0.834000       15.9994           0
     26001 TIP3     5362     TIP3     H1       HT       0.417000       1.00800           0
     26002 TIP3     5362     TIP3     H2       HT       0.417000       1.00800           0
     26003 TIP3     5363     TIP3     OH2      OT      -0.834000       15.9994           0
     26004 TIP3     5363     TIP3     H1       HT       0.417000       1.00800           0
     26005 TIP3     5363     TIP3     H2       HT       0.417000       1.00800           0
     26006 TIP3     5364     TIP3     OH2      OT      -0.834000       15.9994           0
     26007 TIP3     5364     TIP3     H1       HT       0.417000       1.00800           0
     26008 TIP3     5364     TIP3     H2       HT       0.417000       1.00800           0
     26009 TIP3     5365     TIP3     OH2      OT      -0.834000       15.9994           0
     26010 TIP3     5365     TIP3     H1       HT       0.417000       1.00800           0
     26011 TIP3     5365     TIP3     H2       HT       0.417000       1.00800           0
     26012 TIP3     5366     TIP3     OH2      OT      -0.834000       15.9994           0
     26013 TIP3     5366     TIP3     H1       HT       0.417000       1.00800           0
     26014 TIP3     5366     TIP3     H2       HT       0.417000       1.00800           0
     26015 TIP3     5367     TIP3     OH2      OT      -0.834000       15.9994           0
     26016 TIP3     5367     TIP3     H1       HT       0.417000       1.00800           0
     26017 TIP3     5367     TIP3     H2       HT       0.417000       1.00800           0
     26018 TIP3     5368     TIP3     OH2      OT      -0.834000       15.9994           0
     26019 TIP3     5368     TIP3     H1       HT       0.417000       1.00800           0
     26020 TIP3     5368     TIP3     H2       HT       0.417000       1.00800           0
     26021 TIP3     5369     TIP3     OH2      OT      -0.834000       15.9994           0
     26022 TIP3     5369     TIP3     H1       HT       0.417000       1.00800           0
     26023 TIP3     5369     TIP3     H2       HT       0.417000       1.00800           0
     26024 TIP3     5370     TIP3     OH2      OT      -0.834000       15.9994           0
     26025 TIP3     5370     TIP3     H1       HT       0.417000       1.00800           0
     26026 TIP3     5370     TIP3     H2       HT       0.417000       1.00800           0
     26027 TIP3     5371     TIP3     OH2      OT      -0.834000       15.9994           0
     26028 TIP3     5371     TIP3     H1       HT       0.417000       1.00800           0
     26029 TIP3     5371     TIP3     H2       HT       0.417000       1.00800           0
     26030 TIP3     5372     TIP3     OH2      OT      -0.834000       15.9994           0
     26031 TIP3     5372     TIP3     H1       HT       0.417000       1.00800           0
     26032 TIP3     5372     TIP3     H2       HT       0.417000       1.00800           0
     26033 TIP3     5373     TIP3     OH2      OT      -0.834000       15.9994           0
     26034 TIP3     5373     TIP3     H1       HT       0.417000       1.00800           0
     26035 TIP3     5373     TIP3     H2       HT       0.417000       1.00800           0
     26036 TIP3     5374     TIP3     OH2      OT      -0.834000       15.9994           0
     26037 TIP3     5374     TIP3     H1       HT       0.417000       1.00800           0
     26038 TIP3     5374     TIP3     H2       HT       0.417000       1.00800           0
     26039 TIP3     5375     TIP3     OH2      OT      -0.834000       15.9994           0
     26040 TIP3     5375     TIP3     H1       HT       0.417000       1.00800           0
     26041 TIP3     5375     TIP3     H2       HT       0.417000       1.00800           0
     26042 TIP3     5376     TIP3     OH2      OT      -0.834000       15.9994           0
     26043 TIP3     5376     TIP3     H1       HT       0.417000       1.00800           0
     26044 TIP3     5376     TIP3     H2       HT       0.417000       1.00800           0
     26045 TIP3     5377     TIP3     OH2      OT      -0.834000       15.9994           0
     26046 TIP3     5377     TIP3     H1       HT       0.417000       1.00800           0
     26047 TIP3     5377     TIP3     H2       HT       0.417000       1.00800           0
     26048 TIP3     5378     TIP3     OH2      OT      -0.834000       15.9994           0
     26049 TIP3     5378     TIP3     H1       HT       0.417000       1.00800           0
     26050 TIP3     5378     TIP3     H2       HT       0.417000       1.00800           0
     26051 TIP3     5379     TIP3     OH2      OT      -0.834000       15.9994           0
     26052 TIP3     5379     TIP3     H1       HT       0.417000       1.00800           0
     26053 TIP3     5379     TIP3     H2       HT       0.417000       1.00800           0
     26054 TIP3     5380     TIP3     OH2      OT      -0.834000       15.9994           0
     26055 TIP3     5380     TIP3     H1       HT       0.417000       1.00800           0
     26056 TIP3     5380     TIP3     H2       HT       0.417000       1.00800           0
     26057 TIP3     5381     TIP3     OH2      OT      -0.834000       15.9994           0
     26058 TIP3     5381     TIP3     H1       HT       0.417000       1.00800           0
     26059 TIP3     5381     TIP3     H2       HT       0.417000       1.00800           0
     26060 TIP3     5382     TIP3     OH2      OT      -0.834000       15.9994           0
     26061 TIP3     5382     TIP3     H1       HT       0.417000       1.00800           0
     26062 TIP3     5382     TIP3     H2       HT       0.417000       1.00800           0
     26063 TIP3     5383     TIP3     OH2      OT      -0.834000       15.9994           0
     26064 TIP3     5383     TIP3     H1       HT       0.417000       1.00800           0
     26065 TIP3     5383     TIP3     H2       HT       0.417000       1.00800           0
     26066 TIP3     5384     TIP3     OH2      OT      -0.834000       15.9994           0
     26067 TIP3     5384     TIP3     H1       HT       0.417000       1.00800           0
     26068 TIP3     5384     TIP3     H2       HT       0.417000       1.00800           0
     26069 TIP3     5385     TIP3     OH2      OT      -0.834000       15.9994           0
     26070 TIP3     5385     TIP3     H1       HT       0.417000       1.00800           0
     26071 TIP3     5385     TIP3     H2       HT       0.417000       1.00800           0
     26072 TIP3     5386     TIP3     OH2      OT      -0.834000       15.9994           0
     26073 TIP3     5386     TIP3     H1       HT       0.417000       1.00800           0
     26074 TIP3     5386     TIP3     H2       HT       0.417000       1.00800           0
     26075 TIP3     5387     TIP3     OH2      OT      -0.834000       15.9994           0
     26076 TIP3     5387     TIP3     H1       HT       0.417000       1.00800           0
     26077 TIP3     5387     TIP3     H2       HT       0.417000       1.00800           0
     26078 TIP3     5388     TIP3     OH2      OT      -0.834000       15.9994           0
     26079 TIP3     5388     TIP3     H1       HT       0.417000       1.00800           0
     26080 TIP3     5388     TIP3     H2       HT       0.417000       1.00800           0
     26081 TIP3     5389     TIP3     OH2      OT      -0.834000       15.9994           0
     26082 TIP3     5389     TIP3     H1       HT       0.417000       1.00800           0
     26083 TIP3     5389     TIP3     H2       HT       0.417000       1.00800           0
     26084 TIP3     5390     TIP3     OH2      OT      -0.834000       15.9994           0
     26085 TIP3     5390     TIP3     H1       HT       0.417000       1.00800           0
     26086 TIP3     5390     TIP3     H2       HT       0.417000       1.00800           0
     26087 TIP3     5391     TIP3     OH2      OT      -0.834000       15.9994           0
     26088 TIP3     5391     TIP3     H1       HT       0.417000       1.00800           0
     26089 TIP3     5391     TIP3     H2       HT       0.417000       1.00800           0
     26090 TIP3     5392     TIP3     OH2      OT      -0.834000       15.9994           0
     26091 TIP3     5392     TIP3     H1       HT       0.417000       1.00800           0
     26092 TIP3     5392     TIP3     H2       HT       0.417000       1.00800           0
     26093 TIP3     5393     TIP3     OH2      OT      -0.834000       15.9994           0
     26094 TIP3     5393     TIP3     H1       HT       0.417000       1.00800           0
     26095 TIP3     5393     TIP3     H2       HT       0.417000       1.00800           0
     26096 TIP3     5394     TIP3     OH2      OT      -0.834000       15.9994           0
     26097 TIP3     5394     TIP3     H1       HT       0.417000       1.00800           0
     26098 TIP3     5394     TIP3     H2       HT       0.417000       1.00800           0
     26099 TIP3     5395     TIP3     OH2      OT      -0.834000       15.9994           0
     26100 TIP3     5395     TIP3     H1       HT       0.417000       1.00800           0
     26101 TIP3     5395     TIP3     H2       HT       0.417000       1.00800           0
     26102 TIP3     5396     TIP3     OH2      OT      -0.834000       15.9994           0
     26103 TIP3     5396     TIP3     H1       HT       0.417000       1.00800           0
     26104 TIP3     5396     TIP3     H2       HT       0.417000       1.00800           0
     26105 TIP3     5397     TIP3     OH2      OT      -0.834000       15.9994           0
     26106 TIP3     5397     TIP3     H1       HT       0.417000       1.00800           0
     26107 TIP3     5397     TIP3     H2       HT       0.417000       1.00800           0
     26108 TIP3     5398     TIP3     OH2      OT      -0.834000       15.9994           0
     26109 TIP3     5398     TIP3     H1       HT       0.417000       1.00800           0
     26110 TIP3     5398     TIP3     H2       HT       0.417000       1.00800           0
     26111 TIP3     5399     TIP3     OH2      OT      -0.834000       15.9994           0
     26112 TIP3     5399     TIP3     H1       HT       0.417000       1.00800           0
     26113 TIP3     5399     TIP3     H2       HT       0.417000       1.00800           0
     26114 TIP3     5400     TIP3     OH2      OT      -0.834000       15.9994           0
     26115 TIP3     5400     TIP3     H1       HT       0.417000       1.00800           0
     26116 TIP3     5400     TIP3     H2       HT       0.417000       1.00800           0
     26117 TIP3     5401     TIP3     OH2      OT      -0.834000       15.9994           0
     26118 TIP3     5401     TIP3     H1       HT       0.417000       1.00800           0
     26119 TIP3     5401     TIP3     H2       HT       0.417000       1.00800           0
     26120 TIP3     5402     TIP3     OH2      OT      -0.834000       15.9994           0
     26121 TIP3     5402     TIP3     H1       HT       0.417000       1.00800           0
     26122 TIP3     5402     TIP3     H2       HT       0.417000       1.00800           0
     26123 TIP3     5403     TIP3     OH2      OT      -0.834000       15.9994           0
     26124 TIP3     5403     TIP3     H1       HT       0.417000       1.00800           0
     26125 TIP3     5403     TIP3     H2       HT       0.417000       1.00800           0
     26126 TIP3     5404     TIP3     OH2      OT      -0.834000       15.9994           0
     26127 TIP3     5404     TIP3     H1       HT       0.417000       1.00800           0
     26128 TIP3     5404     TIP3     H2       HT       0.417000       1.00800           0
     26129 TIP3     5405     TIP3     OH2      OT      -0.834000       15.9994           0
     26130 TIP3     5405     TIP3     H1       HT       0.417000       1.00800           0
     26131 TIP3     5405     TIP3     H2       HT       0.417000       1.00800           0
     26132 TIP3     5406     TIP3     OH2      OT      -0.834000       15.9994           0
     26133 TIP3     5406     TIP3     H1       HT       0.417000       1.00800           0
     26134 TIP3     5406     TIP3     H2       HT       0.417000       1.00800           0
     26135 TIP3     5407     TIP3     OH2      OT      -0.834000       15.9994           0
     26136 TIP3     5407     TIP3     H1       HT       0.417000       1.00800           0
     26137 TIP3     5407     TIP3     H2       HT       0.417000       1.00800           0
     26138 TIP3     5408     TIP3     OH2      OT      -0.834000       15.9994           0
     26139 TIP3     5408     TIP3     H1       HT       0.417000       1.00800           0
     26140 TIP3     5408     TIP3     H2       HT       0.417000       1.00800           0
     26141 TIP3     5409     TIP3     OH2      OT      -0.834000       15.9994           0
     26142 TIP3     5409     TIP3     H1       HT       0.417000       1.00800           0
     26143 TIP3     5409     TIP3     H2       HT       0.417000       1.00800           0
     26144 TIP3     5410     TIP3     OH2      OT      -0.834000       15.9994           0
     26145 TIP3     5410     TIP3     H1       HT       0.417000       1.00800           0
     26146 TIP3     5410     TIP3     H2       HT       0.417000       1.00800           0
     26147 TIP3     5411     TIP3     OH2      OT      -0.834000       15.9994           0
     26148 TIP3     5411     TIP3     H1       HT       0.417000       1.00800           0
     26149 TIP3     5411     TIP3     H2       HT       0.417000       1.00800           0
     26150 TIP3     5412     TIP3     OH2      OT      -0.834000       15.9994           0
     26151 TIP3     5412     TIP3     H1       HT       0.417000       1.00800           0
     26152 TIP3     5412     TIP3     H2       HT       0.417000       1.00800           0
     26153 TIP3     5413     TIP3     OH2      OT      -0.834000       15.9994           0
     26154 TIP3     5413     TIP3     H1       HT       0.417000       1.00800           0
     26155 TIP3     5413     TIP3     H2       HT       0.417000       1.00800           0
     26156 TIP3     5414     TIP3     OH2      OT      -0.834000       15.9994           0
     26157 TIP3     5414     TIP3     H1       HT       0.417000       1.00800           0
     26158 TIP3     5414     TIP3     H2       HT       0.417000       1.00800           0
     26159 TIP3     5415     TIP3     OH2      OT      -0.834000       15.9994           0
     26160 TIP3     5415     TIP3     H1       HT       0.417000       1.00800           0
     26161 TIP3     5415     TIP3     H2       HT       0.417000       1.00800           0
     26162 TIP3     5416     TIP3     OH2      OT      -0.834000       15.9994           0
     26163 TIP3     5416     TIP3     H1       HT       0.417000       1.00800           0
     26164 TIP3     5416     TIP3     H2       HT       0.417000       1.00800           0
     26165 TIP3     5417     TIP3     OH2      OT      -0.834000       15.9994           0
     26166 TIP3     5417     TIP3     H1       HT       0.417000       1.00800           0
     26167 TIP3     5417     TIP3     H2       HT       0.417000       1.00800           0
     26168 TIP3     5418     TIP3     OH2      OT      -0.834000       15.9994           0
     26169 TIP3     5418     TIP3     H1       HT       0.417000       1.00800           0
     26170 TIP3     5418     TIP3     H2       HT       0.417000       1.00800           0
     26171 TIP3     5419     TIP3     OH2      OT      -0.834000       15.9994           0
     26172 TIP3     5419     TIP3     H1       HT       0.417000       1.00800           0
     26173 TIP3     5419     TIP3     H2       HT       0.417000       1.00800           0
     26174 TIP3     5420     TIP3     OH2      OT      -0.834000       15.9994           0
     26175 TIP3     5420     TIP3     H1       HT       0.417000       1.00800           0
     26176 TIP3     5420     TIP3     H2       HT       0.417000       1.00800           0
     26177 TIP3     5421     TIP3     OH2      OT      -0.834000       15.9994           0
     26178 TIP3     5421     TIP3     H1       HT       0.417000       1.00800           0
     26179 TIP3     5421     TIP3     H2       HT       0.417000       1.00800           0
     26180 TIP3     5422     TIP3     OH2      OT      -0.834000       15.9994           0
     26181 TIP3     5422     TIP3     H1       HT       0.417000       1.00800           0
     26182 TIP3     5422     TIP3     H2       HT       0.417000       1.00800           0
     26183 TIP3     5423     TIP3     OH2      OT      -0.834000       15.9994           0
     26184 TIP3     5423     TIP3     H1       HT       0.417000       1.00800           0
     26185 TIP3     5423     TIP3     H2       HT       0.417000       1.00800           0
     26186 TIP3     5424     TIP3     OH2      OT      -0.834000       15.9994           0
     26187 TIP3     5424     TIP3     H1       HT       0.417000       1.00800           0
     26188 TIP3     5424     TIP3     H2       HT       0.417000       1.00800           0
     26189 TIP3     5425     TIP3     OH2      OT      -0.834000       15.9994           0
     26190 TIP3     5425     TIP3     H1       HT       0.417000       1.00800           0
     26191 TIP3     5425     TIP3     H2       HT       0.417000       1.00800           0
     26192 TIP3     5426     TIP3     OH2      OT      -0.834000       15.9994           0
     26193 TIP3     5426     TIP3     H1       HT       0.417000       1.00800           0
     26194 TIP3     5426     TIP3     H2       HT       0.417000       1.00800           0
     26195 TIP3     5427     TIP3     OH2      OT      -0.834000       15.9994           0
     26196 TIP3     5427     TIP3     H1       HT       0.417000       1.00800           0
     26197 TIP3     5427     TIP3     H2       HT       0.417000       1.00800           0
     26198 TIP3     5428     TIP3     OH2      OT      -0.834000       15.9994           0
     26199 TIP3     5428     TIP3     H1       HT       0.417000       1.00800           0
     26200 TIP3     5428     TIP3     H2       HT       0.417000       1.00800           0
     26201 TIP3     5429     TIP3     OH2      OT      -0.834000       15.9994           0
     26202 TIP3     5429     TIP3     H1       HT       0.417000       1.00800           0
     26203 TIP3     5429     TIP3     H2       HT       0.417000       1.00800           0
     26204 TIP3     5430     TIP3     OH2      OT      -0.834000       15.9994           0
     26205 TIP3     5430     TIP3     H1       HT       0.417000       1.00800           0
     26206 TIP3     5430     TIP3     H2       HT       0.417000       1.00800           0
     26207 TIP3     5431     TIP3     OH2      OT      -0.834000       15.9994           0
     26208 TIP3     5431     TIP3     H1       HT       0.417000       1.00800           0
     26209 TIP3     5431     TIP3     H2       HT       0.417000       1.00800           0
     26210 TIP3     5432     TIP3     OH2      OT      -0.834000       15.9994           0
     26211 TIP3     5432     TIP3     H1       HT       0.417000       1.00800           0
     26212 TIP3     5432     TIP3     H2       HT       0.417000       1.00800           0
     26213 TIP3     5433     TIP3     OH2      OT      -0.834000       15.9994           0
     26214 TIP3     5433     TIP3     H1       HT       0.417000       1.00800           0
     26215 TIP3     5433     TIP3     H2       HT       0.417000       1.00800           0
     26216 TIP3     5434     TIP3     OH2      OT      -0.834000       15.9994           0
     26217 TIP3     5434     TIP3     H1       HT       0.417000       1.00800           0
     26218 TIP3     5434     TIP3     H2       HT       0.417000       1.00800           0
     26219 TIP3     5435     TIP3     OH2      OT      -0.834000       15.9994           0
     26220 TIP3     5435     TIP3     H1       HT       0.417000       1.00800           0
     26221 TIP3     5435     TIP3     H2       HT       0.417000       1.00800           0
     26222 TIP3     5436     TIP3     OH2      OT      -0.834000       15.9994           0
     26223 TIP3     5436     TIP3     H1       HT       0.417000       1.00800           0
     26224 TIP3     5436     TIP3     H2       HT       0.417000       1.00800           0
     26225 TIP3     5437     TIP3     OH2      OT      -0.834000       15.9994           0
     26226 TIP3     5437     TIP3     H1       HT       0.417000       1.00800           0
     26227 TIP3     5437     TIP3     H2       HT       0.417000       1.00800           0
     26228 TIP3     5438     TIP3     OH2      OT      -0.834000       15.9994           0
     26229 TIP3     5438     TIP3     H1       HT       0.417000       1.00800           0
     26230 TIP3     5438     TIP3     H2       HT       0.417000       1.00800           0
     26231 TIP3     5439     TIP3     OH2      OT      -0.834000       15.9994           0
     26232 TIP3     5439     TIP3     H1       HT       0.417000       1.00800           0
     26233 TIP3     5439     TIP3     H2       HT       0.417000       1.00800           0
     26234 TIP3     5440     TIP3     OH2      OT      -0.834000       15.9994           0
     26235 TIP3     5440     TIP3     H1       HT       0.417000       1.00800           0
     26236 TIP3     5440     TIP3     H2       HT       0.417000       1.00800           0
     26237 TIP3     5441     TIP3     OH2      OT      -0.834000       15.9994           0
     26238 TIP3     5441     TIP3     H1       HT       0.417000       1.00800           0
     26239 TIP3     5441     TIP3     H2       HT       0.417000       1.00800           0
     26240 TIP3     5442     TIP3     OH2      OT      -0.834000       15.9994           0
     26241 TIP3     5442     TIP3     H1       HT       0.417000       1.00800           0
     26242 TIP3     5442     TIP3     H2       HT       0.417000       1.00800           0
     26243 TIP3     5443     TIP3     OH2      OT      -0.834000       15.9994           0
     26244 TIP3     5443     TIP3     H1       HT       0.417000       1.00800           0
     26245 TIP3     5443     TIP3     H2       HT       0.417000       1.00800           0
     26246 TIP3     5444     TIP3     OH2      OT      -0.834000       15.9994           0
     26247 TIP3     5444     TIP3     H1       HT       0.417000       1.00800           0
     26248 TIP3     5444     TIP3     H2       HT       0.417000       1.00800           0
     26249 TIP3     5445     TIP3     OH2      OT      -0.834000       15.9994           0
     26250 TIP3     5445     TIP3     H1       HT       0.417000       1.00800           0
     26251 TIP3     5445     TIP3     H2       HT       0.417000       1.00800           0
     26252 TIP3     5446     TIP3     OH2      OT      -0.834000       15.9994           0
     26253 TIP3     5446     TIP3     H1       HT       0.417000       1.00800           0
     26254 TIP3     5446     TIP3     H2       HT       0.417000       1.00800           0
     26255 TIP3     5447     TIP3     OH2      OT      -0.834000       15.9994           0
     26256 TIP3     5447     TIP3     H1       HT       0.417000       1.00800           0
     26257 TIP3     5447     TIP3     H2       HT       0.417000       1.00800           0
     26258 TIP3     5448     TIP3     OH2      OT      -0.834000       15.9994           0
     26259 TIP3     5448     TIP3     H1       HT       0.417000       1.00800           0
     26260 TIP3     5448     TIP3     H2       HT       0.417000       1.00800           0
     26261 TIP3     5449     TIP3     OH2      OT      -0.834000       15.9994           0
     26262 TIP3     5449     TIP3     H1       HT       0.417000       1.00800           0
     26263 TIP3     5449     TIP3     H2       HT       0.417000       1.00800           0
     26264 TIP3     5450     TIP3     OH2      OT      -0.834000       15.9994           0
     26265 TIP3     5450     TIP3     H1       HT       0.417000       1.00800           0
     26266 TIP3     5450     TIP3     H2       HT       0.417000       1.00800           0
     26267 TIP3     5451     TIP3     OH2      OT      -0.834000       15.9994           0
     26268 TIP3     5451     TIP3     H1       HT       0.417000       1.00800           0
     26269 TIP3     5451     TIP3     H2       HT       0.417000       1.00800           0
     26270 TIP3     5452     TIP3     OH2      OT      -0.834000       15.9994           0
     26271 TIP3     5452     TIP3     H1       HT       0.417000       1.00800           0
     26272 TIP3     5452     TIP3     H2       HT       0.417000       1.00800           0
     26273 TIP3     5453     TIP3     OH2      OT      -0.834000       15.9994           0
     26274 TIP3     5453     TIP3     H1       HT       0.417000       1.00800           0
     26275 TIP3     5453     TIP3     H2       HT       0.417000       1.00800           0
     26276 TIP3     5454     TIP3     OH2      OT      -0.834000       15.9994           0
     26277 TIP3     5454     TIP3     H1       HT       0.417000       1.00800           0
     26278 TIP3     5454     TIP3     H2       HT       0.417000       1.00800           0
     26279 TIP3     5455     TIP3     OH2      OT      -0.834000       15.9994           0
     26280 TIP3     5455     TIP3     H1       HT       0.417000       1.00800           0
     26281 TIP3     5455     TIP3     H2       HT       0.417000       1.00800           0
     26282 TIP3     5456     TIP3     OH2      OT      -0.834000       15.9994           0
     26283 TIP3     5456     TIP3     H1       HT       0.417000       1.00800           0
     26284 TIP3     5456     TIP3     H2       HT       0.417000       1.00800           0
     26285 TIP3     5457     TIP3     OH2      OT      -0.834000       15.9994           0
     26286 TIP3     5457     TIP3     H1       HT       0.417000       1.00800           0
     26287 TIP3     5457     TIP3     H2       HT       0.417000       1.00800           0
     26288 TIP3     5458     TIP3     OH2      OT      -0.834000       15.9994           0
     26289 TIP3     5458     TIP3     H1       HT       0.417000       1.00800           0
     26290 TIP3     5458     TIP3     H2       HT       0.417000       1.00800           0
     26291 TIP3     5459     TIP3     OH2      OT      -0.834000       15.9994           0
     26292 TIP3     5459     TIP3     H1       HT       0.417000       1.00800           0
     26293 TIP3     5459     TIP3     H2       HT       0.417000       1.00800           0
     26294 TIP3     5460     TIP3     OH2      OT      -0.834000       15.9994           0
     26295 TIP3     5460     TIP3     H1       HT       0.417000       1.00800           0
     26296 TIP3     5460     TIP3     H2       HT       0.417000       1.00800           0
     26297 TIP3     5461     TIP3     OH2      OT      -0.834000       15.9994           0
     26298 TIP3     5461     TIP3     H1       HT       0.417000       1.00800           0
     26299 TIP3     5461     TIP3     H2       HT       0.417000       1.00800           0
     26300 TIP3     5462     TIP3     OH2      OT      -0.834000       15.9994           0
     26301 TIP3     5462     TIP3     H1       HT       0.417000       1.00800           0
     26302 TIP3     5462     TIP3     H2       HT       0.417000       1.00800           0
     26303 TIP3     5463     TIP3     OH2      OT      -0.834000       15.9994           0
     26304 TIP3     5463     TIP3     H1       HT       0.417000       1.00800           0
     26305 TIP3     5463     TIP3     H2       HT       0.417000       1.00800           0
     26306 TIP3     5464     TIP3     OH2      OT      -0.834000       15.9994           0
     26307 TIP3     5464     TIP3     H1       HT       0.417000       1.00800           0
     26308 TIP3     5464     TIP3     H2       HT       0.417000       1.00800           0
     26309 TIP3     5465     TIP3     OH2      OT      -0.834000       15.9994           0
     26310 TIP3     5465     TIP3     H1       HT       0.417000       1.00800           0
     26311 TIP3     5465     TIP3     H2       HT       0.417000       1.00800           0
     26312 TIP3     5466     TIP3     OH2      OT      -0.834000       15.9994           0
     26313 TIP3     5466     TIP3     H1       HT       0.417000       1.00800           0
     26314 TIP3     5466     TIP3     H2       HT       0.417000       1.00800           0
     26315 TIP3     5467     TIP3     OH2      OT      -0.834000       15.9994           0
     26316 TIP3     5467     TIP3     H1       HT       0.417000       1.00800           0
     26317 TIP3     5467     TIP3     H2       HT       0.417000       1.00800           0
     26318 TIP3     5468     TIP3     OH2      OT      -0.834000       15.9994           0
     26319 TIP3     5468     TIP3     H1       HT       0.417000       1.00800           0
     26320 TIP3     5468     TIP3     H2       HT       0.417000       1.00800           0
     26321 TIP3     5469     TIP3     OH2      OT      -0.834000       15.9994           0
     26322 TIP3     5469     TIP3     H1       HT       0.417000       1.00800           0
     26323 TIP3     5469     TIP3     H2       HT       0.417000       1.00800           0
     26324 TIP3     5470     TIP3     OH2      OT      -0.834000       15.9994           0
     26325 TIP3     5470     TIP3     H1       HT       0.417000       1.00800           0
     26326 TIP3     5470     TIP3     H2       HT       0.417000       1.00800           0
     26327 TIP3     5471     TIP3     OH2      OT      -0.834000       15.9994           0
     26328 TIP3     5471     TIP3     H1       HT       0.417000       1.00800           0
     26329 TIP3     5471     TIP3     H2       HT       0.417000       1.00800           0
     26330 TIP3     5472     TIP3     OH2      OT      -0.834000       15.9994           0
     26331 TIP3     5472     TIP3     H1       HT       0.417000       1.00800           0
     26332 TIP3     5472     TIP3     H2       HT       0.417000       1.00800           0
     26333 TIP3     5473     TIP3     OH2      OT      -0.834000       15.9994           0
     26334 TIP3     5473     TIP3     H1       HT       0.417000       1.00800           0
     26335 TIP3     5473     TIP3     H2       HT       0.417000       1.00800           0
     26336 TIP3     5474     TIP3     OH2      OT      -0.834000       15.9994           0
     26337 TIP3     5474     TIP3     H1       HT       0.417000       1.00800           0
     26338 TIP3     5474     TIP3     H2       HT       0.417000       1.00800           0
     26339 TIP3     5475     TIP3     OH2      OT      -0.834000       15.9994           0
     26340 TIP3     5475     TIP3     H1       HT       0.417000       1.00800           0
     26341 TIP3     5475     TIP3     H2       HT       0.417000       1.00800           0
     26342 TIP3     5476     TIP3     OH2      OT      -0.834000       15.9994           0
     26343 TIP3     5476     TIP3     H1       HT       0.417000       1.00800           0
     26344 TIP3     5476     TIP3     H2       HT       0.417000       1.00800           0
     26345 TIP3     5477     TIP3     OH2      OT      -0.834000       15.9994           0
     26346 TIP3     5477     TIP3     H1       HT       0.417000       1.00800           0
     26347 TIP3     5477     TIP3     H2       HT       0.417000       1.00800           0
     26348 TIP3     5478     TIP3     OH2      OT      -0.834000       15.9994           0
     26349 TIP3     5478     TIP3     H1       HT       0.417000       1.00800           0
     26350 TIP3     5478     TIP3     H2       HT       0.417000       1.00800           0
     26351 TIP3     5479     TIP3     OH2      OT      -0.834000       15.9994           0
     26352 TIP3     5479     TIP3     H1       HT       0.417000       1.00800           0
     26353 TIP3     5479     TIP3     H2       HT       0.417000       1.00800           0
     26354 TIP3     5480     TIP3     OH2      OT      -0.834000       15.9994           0
     26355 TIP3     5480     TIP3     H1       HT       0.417000       1.00800           0
     26356 TIP3     5480     TIP3     H2       HT       0.417000       1.00800           0
     26357 TIP3     5481     TIP3     OH2      OT      -0.834000       15.9994           0
     26358 TIP3     5481     TIP3     H1       HT       0.417000       1.00800           0
     26359 TIP3     5481     TIP3     H2       HT       0.417000       1.00800           0
     26360 TIP3     5482     TIP3     OH2      OT      -0.834000       15.9994           0
     26361 TIP3     5482     TIP3     H1       HT       0.417000       1.00800           0
     26362 TIP3     5482     TIP3     H2       HT       0.417000       1.00800           0
     26363 TIP3     5483     TIP3     OH2      OT      -0.834000       15.9994           0
     26364 TIP3     5483     TIP3     H1       HT       0.417000       1.00800           0
     26365 TIP3     5483     TIP3     H2       HT       0.417000       1.00800           0
     26366 TIP3     5484     TIP3     OH2      OT      -0.834000       15.9994           0
     26367 TIP3     5484     TIP3     H1       HT       0.417000       1.00800           0
     26368 TIP3     5484     TIP3     H2       HT       0.417000       1.00800           0
     26369 TIP3     5485     TIP3     OH2      OT      -0.834000       15.9994           0
     26370 TIP3     5485     TIP3     H1       HT       0.417000       1.00800           0
     26371 TIP3     5485     TIP3     H2       HT       0.417000       1.00800           0
     26372 TIP3     5486     TIP3     OH2      OT      -0.834000       15.9994           0
     26373 TIP3     5486     TIP3     H1       HT       0.417000       1.00800           0
     26374 TIP3     5486     TIP3     H2       HT       0.417000       1.00800           0
     26375 TIP3     5487     TIP3     OH2      OT      -0.834000       15.9994           0
     26376 TIP3     5487     TIP3     H1       HT       0.417000       1.00800           0
     26377 TIP3     5487     TIP3     H2       HT       0.417000       1.00800           0
     26378 TIP3     5488     TIP3     OH2      OT      -0.834000       15.9994           0
     26379 TIP3     5488     TIP3     H1       HT       0.417000       1.00800           0
     26380 TIP3     5488     TIP3     H2       HT       0.417000       1.00800           0
     26381 TIP3     5489     TIP3     OH2      OT      -0.834000       15.9994           0
     26382 TIP3     5489     TIP3     H1       HT       0.417000       1.00800           0
     26383 TIP3     5489     TIP3     H2       HT       0.417000       1.00800           0
     26384 TIP3     5490     TIP3     OH2      OT      -0.834000       15.9994           0
     26385 TIP3     5490     TIP3     H1       HT       0.417000       1.00800           0
     26386 TIP3     5490     TIP3     H2       HT       0.417000       1.00800           0
     26387 TIP3     5491     TIP3     OH2      OT      -0.834000       15.9994           0
     26388 TIP3     5491     TIP3     H1       HT       0.417000       1.00800           0
     26389 TIP3     5491     TIP3     H2       HT       0.417000       1.00800           0
     26390 TIP3     5492     TIP3     OH2      OT      -0.834000       15.9994           0
     26391 TIP3     5492     TIP3     H1       HT       0.417000       1.00800           0
     26392 TIP3     5492     TIP3     H2       HT       0.417000       1.00800           0
     26393 TIP3     5493     TIP3     OH2      OT      -0.834000       15.9994           0
     26394 TIP3     5493     TIP3     H1       HT       0.417000       1.00800           0
     26395 TIP3     5493     TIP3     H2       HT       0.417000       1.00800           0
     26396 TIP3     5494     TIP3     OH2      OT      -0.834000       15.9994           0
     26397 TIP3     5494     TIP3     H1       HT       0.417000       1.00800           0
     26398 TIP3     5494     TIP3     H2       HT       0.417000       1.00800           0
     26399 TIP3     5495     TIP3     OH2      OT      -0.834000       15.9994           0
     26400 TIP3     5495     TIP3     H1       HT       0.417000       1.00800           0
     26401 TIP3     5495     TIP3     H2       HT       0.417000       1.00800           0
     26402 TIP3     5496     TIP3     OH2      OT      -0.834000       15.9994           0
     26403 TIP3     5496     TIP3     H1       HT       0.417000       1.00800           0
     26404 TIP3     5496     TIP3     H2       HT       0.417000       1.00800           0
     26405 TIP3     5497     TIP3     OH2      OT      -0.834000       15.9994           0
     26406 TIP3     5497     TIP3     H1       HT       0.417000       1.00800           0
     26407 TIP3     5497     TIP3     H2       HT       0.417000       1.00800           0
     26408 TIP3     5498     TIP3     OH2      OT      -0.834000       15.9994           0
     26409 TIP3     5498     TIP3     H1       HT       0.417000       1.00800           0
     26410 TIP3     5498     TIP3     H2       HT       0.417000       1.00800           0
     26411 TIP3     5499     TIP3     OH2      OT      -0.834000       15.9994           0
     26412 TIP3     5499     TIP3     H1       HT       0.417000       1.00800           0
     26413 TIP3     5499     TIP3     H2       HT       0.417000       1.00800           0
     26414 TIP3     5500     TIP3     OH2      OT      -0.834000       15.9994           0
     26415 TIP3     5500     TIP3     H1       HT       0.417000       1.00800           0
     26416 TIP3     5500     TIP3     H2       HT       0.417000       1.00800           0
     26417 TIP3     5501     TIP3     OH2      OT      -0.834000       15.9994           0
     26418 TIP3     5501     TIP3     H1       HT       0.417000       1.00800           0
     26419 TIP3     5501     TIP3     H2       HT       0.417000       1.00800           0
     26420 TIP3     5502     TIP3     OH2      OT      -0.834000       15.9994           0
     26421 TIP3     5502     TIP3     H1       HT       0.417000       1.00800           0
     26422 TIP3     5502     TIP3     H2       HT       0.417000       1.00800           0
     26423 TIP3     5503     TIP3     OH2      OT      -0.834000       15.9994           0
     26424 TIP3     5503     TIP3     H1       HT       0.417000       1.00800           0
     26425 TIP3     5503     TIP3     H2       HT       0.417000       1.00800           0
     26426 TIP3     5504     TIP3     OH2      OT      -0.834000       15.9994           0
     26427 TIP3     5504     TIP3     H1       HT       0.417000       1.00800           0
     26428 TIP3     5504     TIP3     H2       HT       0.417000       1.00800           0
     26429 TIP3     5505     TIP3     OH2      OT      -0.834000       15.9994           0
     26430 TIP3     5505     TIP3     H1       HT       0.417000       1.00800           0
     26431 TIP3     5505     TIP3     H2       HT       0.417000       1.00800           0
     26432 TIP3     5506     TIP3     OH2      OT      -0.834000       15.9994           0
     26433 TIP3     5506     TIP3     H1       HT       0.417000       1.00800           0
     26434 TIP3     5506     TIP3     H2       HT       0.417000       1.00800           0
     26435 TIP3     5507     TIP3     OH2      OT      -0.834000       15.9994           0
     26436 TIP3     5507     TIP3     H1       HT       0.417000       1.00800           0
     26437 TIP3     5507     TIP3     H2       HT       0.417000       1.00800           0
     26438 TIP3     5508     TIP3     OH2      OT      -0.834000       15.9994           0
     26439 TIP3     5508     TIP3     H1       HT       0.417000       1.00800           0
     26440 TIP3     5508     TIP3     H2       HT       0.417000       1.00800           0
     26441 TIP3     5509     TIP3     OH2      OT      -0.834000       15.9994           0
     26442 TIP3     5509     TIP3     H1       HT       0.417000       1.00800           0
     26443 TIP3     5509     TIP3     H2       HT       0.417000       1.00800           0
     26444 TIP3     5510     TIP3     OH2      OT      -0.834000       15.9994           0
     26445 TIP3     5510     TIP3     H1       HT       0.417000       1.00800           0
     26446 TIP3     5510     TIP3     H2       HT       0.417000       1.00800           0
     26447 TIP3     5511     TIP3     OH2      OT      -0.834000       15.9994           0
     26448 TIP3     5511     TIP3     H1       HT       0.417000       1.00800           0
     26449 TIP3     5511     TIP3     H2       HT       0.417000       1.00800           0
     26450 TIP3     5512     TIP3     OH2      OT      -0.834000       15.9994           0
     26451 TIP3     5512     TIP3     H1       HT       0.417000       1.00800           0
     26452 TIP3     5512     TIP3     H2       HT       0.417000       1.00800           0
     26453 TIP3     5513     TIP3     OH2      OT      -0.834000       15.9994           0
     26454 TIP3     5513     TIP3     H1       HT       0.417000       1.00800           0
     26455 TIP3     5513     TIP3     H2       HT       0.417000       1.00800           0
     26456 TIP3     5514     TIP3     OH2      OT      -0.834000       15.9994           0
     26457 TIP3     5514     TIP3     H1       HT       0.417000       1.00800           0
     26458 TIP3     5514     TIP3     H2       HT       0.417000       1.00800           0
     26459 TIP3     5515     TIP3     OH2      OT      -0.834000       15.9994           0
     26460 TIP3     5515     TIP3     H1       HT       0.417000       1.00800           0
     26461 TIP3     5515     TIP3     H2       HT       0.417000       1.00800           0
     26462 TIP3     5516     TIP3     OH2      OT      -0.834000       15.9994           0
     26463 TIP3     5516     TIP3     H1       HT       0.417000       1.00800           0
     26464 TIP3     5516     TIP3     H2       HT       0.417000       1.00800           0
     26465 TIP3     5517     TIP3     OH2      OT      -0.834000       15.9994           0
     26466 TIP3     5517     TIP3     H1       HT       0.417000       1.00800           0
     26467 TIP3     5517     TIP3     H2       HT       0.417000       1.00800           0
     26468 TIP3     5518     TIP3     OH2      OT      -0.834000       15.9994           0
     26469 TIP3     5518     TIP3     H1       HT       0.417000       1.00800           0
     26470 TIP3     5518     TIP3     H2       HT       0.417000       1.00800           0
     26471 TIP3     5519     TIP3     OH2      OT      -0.834000       15.9994           0
     26472 TIP3     5519     TIP3     H1       HT       0.417000       1.00800           0
     26473 TIP3     5519     TIP3     H2       HT       0.417000       1.00800           0
     26474 TIP3     5520     TIP3     OH2      OT      -0.834000       15.9994           0
     26475 TIP3     5520     TIP3     H1       HT       0.417000       1.00800           0
     26476 TIP3     5520     TIP3     H2       HT       0.417000       1.00800           0
     26477 TIP3     5521     TIP3     OH2      OT      -0.834000       15.9994           0
     26478 TIP3     5521     TIP3     H1       HT       0.417000       1.00800           0
     26479 TIP3     5521     TIP3     H2       HT       0.417000       1.00800           0
     26480 TIP3     5522     TIP3     OH2      OT      -0.834000       15.9994           0
     26481 TIP3     5522     TIP3     H1       HT       0.417000       1.00800           0
     26482 TIP3     5522     TIP3     H2       HT       0.417000       1.00800           0
     26483 TIP3     5523     TIP3     OH2      OT      -0.834000       15.9994           0
     26484 TIP3     5523     TIP3     H1       HT       0.417000       1.00800           0
     26485 TIP3     5523     TIP3     H2       HT       0.417000       1.00800           0
     26486 TIP3     5524     TIP3     OH2      OT      -0.834000       15.9994           0
     26487 TIP3     5524     TIP3     H1       HT       0.417000       1.00800           0
     26488 TIP3     5524     TIP3     H2       HT       0.417000       1.00800           0
     26489 TIP3     5525     TIP3     OH2      OT      -0.834000       15.9994           0
     26490 TIP3     5525     TIP3     H1       HT       0.417000       1.00800           0
     26491 TIP3     5525     TIP3     H2       HT       0.417000       1.00800           0
     26492 TIP3     5526     TIP3     OH2      OT      -0.834000       15.9994           0
     26493 TIP3     5526     TIP3     H1       HT       0.417000       1.00800           0
     26494 TIP3     5526     TIP3     H2       HT       0.417000       1.00800           0
     26495 TIP3     5527     TIP3     OH2      OT      -0.834000       15.9994           0
     26496 TIP3     5527     TIP3     H1       HT       0.417000       1.00800           0
     26497 TIP3     5527     TIP3     H2       HT       0.417000       1.00800           0
     26498 TIP3     5528     TIP3     OH2      OT      -0.834000       15.9994           0
     26499 TIP3     5528     TIP3     H1       HT       0.417000       1.00800           0
     26500 TIP3     5528     TIP3     H2       HT       0.417000       1.00800           0
     26501 TIP3     5529     TIP3     OH2      OT      -0.834000       15.9994           0
     26502 TIP3     5529     TIP3     H1       HT       0.417000       1.00800           0
     26503 TIP3     5529     TIP3     H2       HT       0.417000       1.00800           0
     26504 TIP3     5530     TIP3     OH2      OT      -0.834000       15.9994           0
     26505 TIP3     5530     TIP3     H1       HT       0.417000       1.00800           0
     26506 TIP3     5530     TIP3     H2       HT       0.417000       1.00800           0
     26507 TIP3     5531     TIP3     OH2      OT      -0.834000       15.9994           0
     26508 TIP3     5531     TIP3     H1       HT       0.417000       1.00800           0
     26509 TIP3     5531     TIP3     H2       HT       0.417000       1.00800           0
     26510 TIP3     5532     TIP3     OH2      OT      -0.834000       15.9994           0
     26511 TIP3     5532     TIP3     H1       HT       0.417000       1.00800           0
     26512 TIP3     5532     TIP3     H2       HT       0.417000       1.00800           0
     26513 TIP3     5533     TIP3     OH2      OT      -0.834000       15.9994           0
     26514 TIP3     5533     TIP3     H1       HT       0.417000       1.00800           0
     26515 TIP3     5533     TIP3     H2       HT       0.417000       1.00800           0
     26516 TIP3     5534     TIP3     OH2      OT      -0.834000       15.9994           0
     26517 TIP3     5534     TIP3     H1       HT       0.417000       1.00800           0
     26518 TIP3     5534     TIP3     H2       HT       0.417000       1.00800           0
     26519 TIP3     5535     TIP3     OH2      OT      -0.834000       15.9994           0
     26520 TIP3     5535     TIP3     H1       HT       0.417000       1.00800           0
     26521 TIP3     5535     TIP3     H2       HT       0.417000       1.00800           0
     26522 TIP3     5536     TIP3     OH2      OT      -0.834000       15.9994           0
     26523 TIP3     5536     TIP3     H1       HT       0.417000       1.00800           0
     26524 TIP3     5536     TIP3     H2       HT       0.417000       1.00800           0
     26525 TIP3     5537     TIP3     OH2      OT      -0.834000       15.9994           0
     26526 TIP3     5537     TIP3     H1       HT       0.417000       1.00800           0
     26527 TIP3     5537     TIP3     H2       HT       0.417000       1.00800           0
     26528 TIP3     5538     TIP3     OH2      OT      -0.834000       15.9994           0
     26529 TIP3     5538     TIP3     H1       HT       0.417000       1.00800           0
     26530 TIP3     5538     TIP3     H2       HT       0.417000       1.00800           0
     26531 TIP3     5539     TIP3     OH2      OT      -0.834000       15.9994           0
     26532 TIP3     5539     TIP3     H1       HT       0.417000       1.00800           0
     26533 TIP3     5539     TIP3     H2       HT       0.417000       1.00800           0
     26534 TIP3     5540     TIP3     OH2      OT      -0.834000       15.9994           0
     26535 TIP3     5540     TIP3     H1       HT       0.417000       1.00800           0
     26536 TIP3     5540     TIP3     H2       HT       0.417000       1.00800           0
     26537 TIP3     5541     TIP3     OH2      OT      -0.834000       15.9994           0
     26538 TIP3     5541     TIP3     H1       HT       0.417000       1.00800           0
     26539 TIP3     5541     TIP3     H2       HT       0.417000       1.00800           0
     26540 TIP3     5542     TIP3     OH2      OT      -0.834000       15.9994           0
     26541 TIP3     5542     TIP3     H1       HT       0.417000       1.00800           0
     26542 TIP3     5542     TIP3     H2       HT       0.417000       1.00800           0
     26543 TIP3     5543     TIP3     OH2      OT      -0.834000       15.9994           0
     26544 TIP3     5543     TIP3     H1       HT       0.417000       1.00800           0
     26545 TIP3     5543     TIP3     H2       HT       0.417000       1.00800           0
     26546 TIP3     5544     TIP3     OH2      OT      -0.834000       15.9994           0
     26547 TIP3     5544     TIP3     H1       HT       0.417000       1.00800           0
     26548 TIP3     5544     TIP3     H2       HT       0.417000       1.00800           0
     26549 TIP3     5545     TIP3     OH2      OT      -0.834000       15.9994           0
     26550 TIP3     5545     TIP3     H1       HT       0.417000       1.00800           0
     26551 TIP3     5545     TIP3     H2       HT       0.417000       1.00800           0
     26552 TIP3     5546     TIP3     OH2      OT      -0.834000       15.9994           0
     26553 TIP3     5546     TIP3     H1       HT       0.417000       1.00800           0
     26554 TIP3     5546     TIP3     H2       HT       0.417000       1.00800           0
     26555 TIP3     5547     TIP3     OH2      OT      -0.834000       15.9994           0
     26556 TIP3     5547     TIP3     H1       HT       0.417000       1.00800           0
     26557 TIP3     5547     TIP3     H2       HT       0.417000       1.00800           0
     26558 TIP3     5548     TIP3     OH2      OT      -0.834000       15.9994           0
     26559 TIP3     5548     TIP3     H1       HT       0.417000       1.00800           0
     26560 TIP3     5548     TIP3     H2       HT       0.417000       1.00800           0
     26561 TIP3     5549     TIP3     OH2      OT      -0.834000       15.9994           0
     26562 TIP3     5549     TIP3     H1       HT       0.417000       1.00800           0
     26563 TIP3     5549     TIP3     H2       HT       0.417000       1.00800           0
     26564 TIP3     5550     TIP3     OH2      OT      -0.834000       15.9994           0
     26565 TIP3     5550     TIP3     H1       HT       0.417000       1.00800           0
     26566 TIP3     5550     TIP3     H2       HT       0.417000       1.00800           0
     26567 TIP3     5551     TIP3     OH2      OT      -0.834000       15.9994           0
     26568 TIP3     5551     TIP3     H1       HT       0.417000       1.00800           0
     26569 TIP3     5551     TIP3     H2       HT       0.417000       1.00800           0
     26570 TIP3     5552     TIP3     OH2      OT      -0.834000       15.9994           0
     26571 TIP3     5552     TIP3     H1       HT       0.417000       1.00800           0
     26572 TIP3     5552     TIP3     H2       HT       0.417000       1.00800           0
     26573 TIP3     5553     TIP3     OH2      OT      -0.834000       15.9994           0
     26574 TIP3     5553     TIP3     H1       HT       0.417000       1.00800           0
     26575 TIP3     5553     TIP3     H2       HT       0.417000       1.00800           0
     26576 TIP3     5554     TIP3     OH2      OT      -0.834000       15.9994           0
     26577 TIP3     5554     TIP3     H1       HT       0.417000       1.00800           0
     26578 TIP3     5554     TIP3     H2       HT       0.417000       1.00800           0
     26579 TIP3     5555     TIP3     OH2      OT      -0.834000       15.9994           0
     26580 TIP3     5555     TIP3     H1       HT       0.417000       1.00800           0
     26581 TIP3     5555     TIP3     H2       HT       0.417000       1.00800           0
     26582 TIP3     5556     TIP3     OH2      OT      -0.834000       15.9994           0
     26583 TIP3     5556     TIP3     H1       HT       0.417000       1.00800           0
     26584 TIP3     5556     TIP3     H2       HT       0.417000       1.00800           0
     26585 TIP3     5557     TIP3     OH2      OT      -0.834000       15.9994           0
     26586 TIP3     5557     TIP3     H1       HT       0.417000       1.00800           0
     26587 TIP3     5557     TIP3     H2       HT       0.417000       1.00800           0
     26588 TIP3     5558     TIP3     OH2      OT      -0.834000       15.9994           0
     26589 TIP3     5558     TIP3     H1       HT       0.417000       1.00800           0
     26590 TIP3     5558     TIP3     H2       HT       0.417000       1.00800           0
     26591 TIP3     5559     TIP3     OH2      OT      -0.834000       15.9994           0
     26592 TIP3     5559     TIP3     H1       HT       0.417000       1.00800           0
     26593 TIP3     5559     TIP3     H2       HT       0.417000       1.00800           0
     26594 TIP3     5560     TIP3     OH2      OT      -0.834000       15.9994           0
     26595 TIP3     5560     TIP3     H1       HT       0.417000       1.00800           0
     26596 TIP3     5560     TIP3     H2       HT       0.417000       1.00800           0
     26597 TIP3     5561     TIP3     OH2      OT      -0.834000       15.9994           0
     26598 TIP3     5561     TIP3     H1       HT       0.417000       1.00800           0
     26599 TIP3     5561     TIP3     H2       HT       0.417000       1.00800           0
     26600 TIP3     5562     TIP3     OH2      OT      -0.834000       15.9994           0
     26601 TIP3     5562     TIP3     H1       HT       0.417000       1.00800           0
     26602 TIP3     5562     TIP3     H2       HT       0.417000       1.00800           0
     26603 TIP3     5563     TIP3     OH2      OT      -0.834000       15.9994           0
     26604 TIP3     5563     TIP3     H1       HT       0.417000       1.00800           0
     26605 TIP3     5563     TIP3     H2       HT       0.417000       1.00800           0
     26606 TIP3     5564     TIP3     OH2      OT      -0.834000       15.9994           0
     26607 TIP3     5564     TIP3     H1       HT       0.417000       1.00800           0
     26608 TIP3     5564     TIP3     H2       HT       0.417000       1.00800           0
     26609 TIP3     5565     TIP3     OH2      OT      -0.834000       15.9994           0
     26610 TIP3     5565     TIP3     H1       HT       0.417000       1.00800           0
     26611 TIP3     5565     TIP3     H2       HT       0.417000       1.00800           0
     26612 TIP3     5566     TIP3     OH2      OT      -0.834000       15.9994           0
     26613 TIP3     5566     TIP3     H1       HT       0.417000       1.00800           0
     26614 TIP3     5566     TIP3     H2       HT       0.417000       1.00800           0
     26615 TIP3     5567     TIP3     OH2      OT      -0.834000       15.9994           0
     26616 TIP3     5567     TIP3     H1       HT       0.417000       1.00800           0
     26617 TIP3     5567     TIP3     H2       HT       0.417000       1.00800           0
     26618 TIP3     5568     TIP3     OH2      OT      -0.834000       15.9994           0
     26619 TIP3     5568     TIP3     H1       HT       0.417000       1.00800           0
     26620 TIP3     5568     TIP3     H2       HT       0.417000       1.00800           0
     26621 TIP3     5569     TIP3     OH2      OT      -0.834000       15.9994           0
     26622 TIP3     5569     TIP3     H1       HT       0.417000       1.00800           0
     26623 TIP3     5569     TIP3     H2       HT       0.417000       1.00800           0
     26624 TIP3     5570     TIP3     OH2      OT      -0.834000       15.9994           0
     26625 TIP3     5570     TIP3     H1       HT       0.417000       1.00800           0
     26626 TIP3     5570     TIP3     H2       HT       0.417000       1.00800           0
     26627 TIP3     5571     TIP3     OH2      OT      -0.834000       15.9994           0
     26628 TIP3     5571     TIP3     H1       HT       0.417000       1.00800           0
     26629 TIP3     5571     TIP3     H2       HT       0.417000       1.00800           0
     26630 TIP3     5572     TIP3     OH2      OT      -0.834000       15.9994           0
     26631 TIP3     5572     TIP3     H1       HT       0.417000       1.00800           0
     26632 TIP3     5572     TIP3     H2       HT       0.417000       1.00800           0
     26633 TIP3     5573     TIP3     OH2      OT      -0.834000       15.9994           0
     26634 TIP3     5573     TIP3     H1       HT       0.417000       1.00800           0
     26635 TIP3     5573     TIP3     H2       HT       0.417000       1.00800           0
     26636 TIP3     5574     TIP3     OH2      OT      -0.834000       15.9994           0
     26637 TIP3     5574     TIP3     H1       HT       0.417000       1.00800           0
     26638 TIP3     5574     TIP3     H2       HT       0.417000       1.00800           0
     26639 TIP3     5575     TIP3     OH2      OT      -0.834000       15.9994           0
     26640 TIP3     5575     TIP3     H1       HT       0.417000       1.00800           0
     26641 TIP3     5575     TIP3     H2       HT       0.417000       1.00800           0
     26642 TIP3     5576     TIP3     OH2      OT      -0.834000       15.9994           0
     26643 TIP3     5576     TIP3     H1       HT       0.417000       1.00800           0
     26644 TIP3     5576     TIP3     H2       HT       0.417000       1.00800           0
     26645 TIP3     5577     TIP3     OH2      OT      -0.834000       15.9994           0
     26646 TIP3     5577     TIP3     H1       HT       0.417000       1.00800           0
     26647 TIP3     5577     TIP3     H2       HT       0.417000       1.00800           0
     26648 TIP3     5578     TIP3     OH2      OT      -0.834000       15.9994           0
     26649 TIP3     5578     TIP3     H1       HT       0.417000       1.00800           0
     26650 TIP3     5578     TIP3     H2       HT       0.417000       1.00800           0
     26651 TIP3     5579     TIP3     OH2      OT      -0.834000       15.9994           0
     26652 TIP3     5579     TIP3     H1       HT       0.417000       1.00800           0
     26653 TIP3     5579     TIP3     H2       HT       0.417000       1.00800           0
     26654 TIP3     5580     TIP3     OH2      OT      -0.834000       15.9994           0
     26655 TIP3     5580     TIP3     H1       HT       0.417000       1.00800           0
     26656 TIP3     5580     TIP3     H2       HT       0.417000       1.00800           0
     26657 TIP3     5581     TIP3     OH2      OT      -0.834000       15.9994           0
     26658 TIP3     5581     TIP3     H1       HT       0.417000       1.00800           0
     26659 TIP3     5581     TIP3     H2       HT       0.417000       1.00800           0
     26660 TIP3     5582     TIP3     OH2      OT      -0.834000       15.9994           0
     26661 TIP3     5582     TIP3     H1       HT       0.417000       1.00800           0
     26662 TIP3     5582     TIP3     H2       HT       0.417000       1.00800           0
     26663 TIP3     5583     TIP3     OH2      OT      -0.834000       15.9994           0
     26664 TIP3     5583     TIP3     H1       HT       0.417000       1.00800           0
     26665 TIP3     5583     TIP3     H2       HT       0.417000       1.00800           0
     26666 TIP3     5584     TIP3     OH2      OT      -0.834000       15.9994           0
     26667 TIP3     5584     TIP3     H1       HT       0.417000       1.00800           0
     26668 TIP3     5584     TIP3     H2       HT       0.417000       1.00800           0
     26669 TIP3     5585     TIP3     OH2      OT      -0.834000       15.9994           0
     26670 TIP3     5585     TIP3     H1       HT       0.417000       1.00800           0
     26671 TIP3     5585     TIP3     H2       HT       0.417000       1.00800           0
     26672 TIP3     5586     TIP3     OH2      OT      -0.834000       15.9994           0
     26673 TIP3     5586     TIP3     H1       HT       0.417000       1.00800           0
     26674 TIP3     5586     TIP3     H2       HT       0.417000       1.00800           0
     26675 TIP3     5587     TIP3     OH2      OT      -0.834000       15.9994           0
     26676 TIP3     5587     TIP3     H1       HT       0.417000       1.00800           0
     26677 TIP3     5587     TIP3     H2       HT       0.417000       1.00800           0
     26678 TIP3     5588     TIP3     OH2      OT      -0.834000       15.9994           0
     26679 TIP3     5588     TIP3     H1       HT       0.417000       1.00800           0
     26680 TIP3     5588     TIP3     H2       HT       0.417000       1.00800           0
     26681 TIP3     5589     TIP3     OH2      OT      -0.834000       15.9994           0
     26682 TIP3     5589     TIP3     H1       HT       0.417000       1.00800           0
     26683 TIP3     5589     TIP3     H2       HT       0.417000       1.00800           0
     26684 TIP3     5590     TIP3     OH2      OT      -0.834000       15.9994           0
     26685 TIP3     5590     TIP3     H1       HT       0.417000       1.00800           0
     26686 TIP3     5590     TIP3     H2       HT       0.417000       1.00800           0
     26687 TIP3     5591     TIP3     OH2      OT      -0.834000       15.9994           0
     26688 TIP3     5591     TIP3     H1       HT       0.417000       1.00800           0
     26689 TIP3     5591     TIP3     H2       HT       0.417000       1.00800           0
     26690 TIP3     5592     TIP3     OH2      OT      -0.834000       15.9994           0
     26691 TIP3     5592     TIP3     H1       HT       0.417000       1.00800           0
     26692 TIP3     5592     TIP3     H2       HT       0.417000       1.00800           0
     26693 TIP3     5593     TIP3     OH2      OT      -0.834000       15.9994           0
     26694 TIP3     5593     TIP3     H1       HT       0.417000       1.00800           0
     26695 TIP3     5593     TIP3     H2       HT       0.417000       1.00800           0
     26696 TIP3     5594     TIP3     OH2      OT      -0.834000       15.9994           0
     26697 TIP3     5594     TIP3     H1       HT       0.417000       1.00800           0
     26698 TIP3     5594     TIP3     H2       HT       0.417000       1.00800           0
     26699 TIP3     5595     TIP3     OH2      OT      -0.834000       15.9994           0
     26700 TIP3     5595     TIP3     H1       HT       0.417000       1.00800           0
     26701 TIP3     5595     TIP3     H2       HT       0.417000       1.00800           0
     26702 TIP3     5596     TIP3     OH2      OT      -0.834000       15.9994           0
     26703 TIP3     5596     TIP3     H1       HT       0.417000       1.00800           0
     26704 TIP3     5596     TIP3     H2       HT       0.417000       1.00800           0
     26705 TIP3     5597     TIP3     OH2      OT      -0.834000       15.9994           0
     26706 TIP3     5597     TIP3     H1       HT       0.417000       1.00800           0
     26707 TIP3     5597     TIP3     H2       HT       0.417000       1.00800           0
     26708 TIP3     5598     TIP3     OH2      OT      -0.834000       15.9994           0
     26709 TIP3     5598     TIP3     H1       HT       0.417000       1.00800           0
     26710 TIP3     5598     TIP3     H2       HT       0.417000       1.00800           0
     26711 TIP3     5599     TIP3     OH2      OT      -0.834000       15.9994           0
     26712 TIP3     5599     TIP3     H1       HT       0.417000       1.00800           0
     26713 TIP3     5599     TIP3     H2       HT       0.417000       1.00800           0
     26714 TIP3     5600     TIP3     OH2      OT      -0.834000       15.9994           0
     26715 TIP3     5600     TIP3     H1       HT       0.417000       1.00800           0
     26716 TIP3     5600     TIP3     H2       HT       0.417000       1.00800           0
     26717 TIP3     5601     TIP3     OH2      OT      -0.834000       15.9994           0
     26718 TIP3     5601     TIP3     H1       HT       0.417000       1.00800           0
     26719 TIP3     5601     TIP3     H2       HT       0.417000       1.00800           0
     26720 TIP3     5602     TIP3     OH2      OT      -0.834000       15.9994           0
     26721 TIP3     5602     TIP3     H1       HT       0.417000       1.00800           0
     26722 TIP3     5602     TIP3     H2       HT       0.417000       1.00800           0
     26723 TIP3     5603     TIP3     OH2      OT      -0.834000       15.9994           0
     26724 TIP3     5603     TIP3     H1       HT       0.417000       1.00800           0
     26725 TIP3     5603     TIP3     H2       HT       0.417000       1.00800           0
     26726 TIP3     5604     TIP3     OH2      OT      -0.834000       15.9994           0
     26727 TIP3     5604     TIP3     H1       HT       0.417000       1.00800           0
     26728 TIP3     5604     TIP3     H2       HT       0.417000       1.00800           0
     26729 TIP3     5605     TIP3     OH2      OT      -0.834000       15.9994           0
     26730 TIP3     5605     TIP3     H1       HT       0.417000       1.00800           0
     26731 TIP3     5605     TIP3     H2       HT       0.417000       1.00800           0
     26732 TIP3     5606     TIP3     OH2      OT      -0.834000       15.9994           0
     26733 TIP3     5606     TIP3     H1       HT       0.417000       1.00800           0
     26734 TIP3     5606     TIP3     H2       HT       0.417000       1.00800           0
     26735 TIP3     5607     TIP3     OH2      OT      -0.834000       15.9994           0
     26736 TIP3     5607     TIP3     H1       HT       0.417000       1.00800           0
     26737 TIP3     5607     TIP3     H2       HT       0.417000       1.00800           0
     26738 TIP3     5608     TIP3     OH2      OT      -0.834000       15.9994           0
     26739 TIP3     5608     TIP3     H1       HT       0.417000       1.00800           0
     26740 TIP3     5608     TIP3     H2       HT       0.417000       1.00800           0
     26741 TIP3     5609     TIP3     OH2      OT      -0.834000       15.9994           0
     26742 TIP3     5609     TIP3     H1       HT       0.417000       1.00800           0
     26743 TIP3     5609     TIP3     H2       HT       0.417000       1.00800           0
     26744 TIP3     5610     TIP3     OH2      OT      -0.834000       15.9994           0
     26745 TIP3     5610     TIP3     H1       HT       0.417000       1.00800           0
     26746 TIP3     5610     TIP3     H2       HT       0.417000       1.00800           0
     26747 TIP3     5611     TIP3     OH2      OT      -0.834000       15.9994           0
     26748 TIP3     5611     TIP3     H1       HT       0.417000       1.00800           0
     26749 TIP3     5611     TIP3     H2       HT       0.417000       1.00800           0
     26750 TIP3     5612     TIP3     OH2      OT      -0.834000       15.9994           0
     26751 TIP3     5612     TIP3     H1       HT       0.417000       1.00800           0
     26752 TIP3     5612     TIP3     H2       HT       0.417000       1.00800           0
     26753 TIP3     5613     TIP3     OH2      OT      -0.834000       15.9994           0
     26754 TIP3     5613     TIP3     H1       HT       0.417000       1.00800           0
     26755 TIP3     5613     TIP3     H2       HT       0.417000       1.00800           0
     26756 TIP3     5614     TIP3     OH2      OT      -0.834000       15.9994           0
     26757 TIP3     5614     TIP3     H1       HT       0.417000       1.00800           0
     26758 TIP3     5614     TIP3     H2       HT       0.417000       1.00800           0
     26759 TIP3     5615     TIP3     OH2      OT      -0.834000       15.9994           0
     26760 TIP3     5615     TIP3     H1       HT       0.417000       1.00800           0
     26761 TIP3     5615     TIP3     H2       HT       0.417000       1.00800           0
     26762 TIP3     5616     TIP3     OH2      OT      -0.834000       15.9994           0
     26763 TIP3     5616     TIP3     H1       HT       0.417000       1.00800           0
     26764 TIP3     5616     TIP3     H2       HT       0.417000       1.00800           0
     26765 TIP3     5617     TIP3     OH2      OT      -0.834000       15.9994           0
     26766 TIP3     5617     TIP3     H1       HT       0.417000       1.00800           0
     26767 TIP3     5617     TIP3     H2       HT       0.417000       1.00800           0
     26768 TIP3     5618     TIP3     OH2      OT      -0.834000       15.9994           0
     26769 TIP3     5618     TIP3     H1       HT       0.417000       1.00800           0
     26770 TIP3     5618     TIP3     H2       HT       0.417000       1.00800           0
     26771 TIP3     5619     TIP3     OH2      OT      -0.834000       15.9994           0
     26772 TIP3     5619     TIP3     H1       HT       0.417000       1.00800           0
     26773 TIP3     5619     TIP3     H2       HT       0.417000       1.00800           0
     26774 TIP3     5620     TIP3     OH2      OT      -0.834000       15.9994           0
     26775 TIP3     5620     TIP3     H1       HT       0.417000       1.00800           0
     26776 TIP3     5620     TIP3     H2       HT       0.417000       1.00800           0
     26777 TIP3     5621     TIP3     OH2      OT      -0.834000       15.9994           0
     26778 TIP3     5621     TIP3     H1       HT       0.417000       1.00800           0
     26779 TIP3     5621     TIP3     H2       HT       0.417000       1.00800           0
     26780 TIP3     5622     TIP3     OH2      OT      -0.834000       15.9994           0
     26781 TIP3     5622     TIP3     H1       HT       0.417000       1.00800           0
     26782 TIP3     5622     TIP3     H2       HT       0.417000       1.00800           0
     26783 TIP3     5623     TIP3     OH2      OT      -0.834000       15.9994           0
     26784 TIP3     5623     TIP3     H1       HT       0.417000       1.00800           0
     26785 TIP3     5623     TIP3     H2       HT       0.417000       1.00800           0
     26786 TIP3     5624     TIP3     OH2      OT      -0.834000       15.9994           0
     26787 TIP3     5624     TIP3     H1       HT       0.417000       1.00800           0
     26788 TIP3     5624     TIP3     H2       HT       0.417000       1.00800           0
     26789 TIP3     5625     TIP3     OH2      OT      -0.834000       15.9994           0
     26790 TIP3     5625     TIP3     H1       HT       0.417000       1.00800           0
     26791 TIP3     5625     TIP3     H2       HT       0.417000       1.00800           0
     26792 TIP3     5626     TIP3     OH2      OT      -0.834000       15.9994           0
     26793 TIP3     5626     TIP3     H1       HT       0.417000       1.00800           0
     26794 TIP3     5626     TIP3     H2       HT       0.417000       1.00800           0
     26795 TIP3     5627     TIP3     OH2      OT      -0.834000       15.9994           0
     26796 TIP3     5627     TIP3     H1       HT       0.417000       1.00800           0
     26797 TIP3     5627     TIP3     H2       HT       0.417000       1.00800           0
     26798 TIP3     5628     TIP3     OH2      OT      -0.834000       15.9994           0
     26799 TIP3     5628     TIP3     H1       HT       0.417000       1.00800           0
     26800 TIP3     5628     TIP3     H2       HT       0.417000       1.00800           0
     26801 TIP3     5629     TIP3     OH2      OT      -0.834000       15.9994           0
     26802 TIP3     5629     TIP3     H1       HT       0.417000       1.00800           0
     26803 TIP3     5629     TIP3     H2       HT       0.417000       1.00800           0
     26804 TIP3     5630     TIP3     OH2      OT      -0.834000       15.9994           0
     26805 TIP3     5630     TIP3     H1       HT       0.417000       1.00800           0
     26806 TIP3     5630     TIP3     H2       HT       0.417000       1.00800           0
     26807 TIP3     5631     TIP3     OH2      OT      -0.834000       15.9994           0
     26808 TIP3     5631     TIP3     H1       HT       0.417000       1.00800           0
     26809 TIP3     5631     TIP3     H2       HT       0.417000       1.00800           0
     26810 TIP3     5632     TIP3     OH2      OT      -0.834000       15.9994           0
     26811 TIP3     5632     TIP3     H1       HT       0.417000       1.00800           0
     26812 TIP3     5632     TIP3     H2       HT       0.417000       1.00800           0
     26813 TIP3     5633     TIP3     OH2      OT      -0.834000       15.9994           0
     26814 TIP3     5633     TIP3     H1       HT       0.417000       1.00800           0
     26815 TIP3     5633     TIP3     H2       HT       0.417000       1.00800           0
     26816 TIP3     5634     TIP3     OH2      OT      -0.834000       15.9994           0
     26817 TIP3     5634     TIP3     H1       HT       0.417000       1.00800           0
     26818 TIP3     5634     TIP3     H2       HT       0.417000       1.00800           0
     26819 TIP3     5635     TIP3     OH2      OT      -0.834000       15.9994           0
     26820 TIP3     5635     TIP3     H1       HT       0.417000       1.00800           0
     26821 TIP3     5635     TIP3     H2       HT       0.417000       1.00800           0
     26822 TIP3     5636     TIP3     OH2      OT      -0.834000       15.9994           0
     26823 TIP3     5636     TIP3     H1       HT       0.417000       1.00800           0
     26824 TIP3     5636     TIP3     H2       HT       0.417000       1.00800           0
     26825 TIP3     5637     TIP3     OH2      OT      -0.834000       15.9994           0
     26826 TIP3     5637     TIP3     H1       HT       0.417000       1.00800           0
     26827 TIP3     5637     TIP3     H2       HT       0.417000       1.00800           0
     26828 TIP3     5638     TIP3     OH2      OT      -0.834000       15.9994           0
     26829 TIP3     5638     TIP3     H1       HT       0.417000       1.00800           0
     26830 TIP3     5638     TIP3     H2       HT       0.417000       1.00800           0
     26831 TIP3     5639     TIP3     OH2      OT      -0.834000       15.9994           0
     26832 TIP3     5639     TIP3     H1       HT       0.417000       1.00800           0
     26833 TIP3     5639     TIP3     H2       HT       0.417000       1.00800           0
     26834 TIP3     5640     TIP3     OH2      OT      -0.834000       15.9994           0
     26835 TIP3     5640     TIP3     H1       HT       0.417000       1.00800           0
     26836 TIP3     5640     TIP3     H2       HT       0.417000       1.00800           0
     26837 TIP3     5641     TIP3     OH2      OT      -0.834000       15.9994           0
     26838 TIP3     5641     TIP3     H1       HT       0.417000       1.00800           0
     26839 TIP3     5641     TIP3     H2       HT       0.417000       1.00800           0
     26840 TIP3     5642     TIP3     OH2      OT      -0.834000       15.9994           0
     26841 TIP3     5642     TIP3     H1       HT       0.417000       1.00800           0
     26842 TIP3     5642     TIP3     H2       HT       0.417000       1.00800           0
     26843 TIP3     5643     TIP3     OH2      OT      -0.834000       15.9994           0
     26844 TIP3     5643     TIP3     H1       HT       0.417000       1.00800           0
     26845 TIP3     5643     TIP3     H2       HT       0.417000       1.00800           0
     26846 TIP3     5644     TIP3     OH2      OT      -0.834000       15.9994           0
     26847 TIP3     5644     TIP3     H1       HT       0.417000       1.00800           0
     26848 TIP3     5644     TIP3     H2       HT       0.417000       1.00800           0
     26849 TIP3     5645     TIP3     OH2      OT      -0.834000       15.9994           0
     26850 TIP3     5645     TIP3     H1       HT       0.417000       1.00800           0
     26851 TIP3     5645     TIP3     H2       HT       0.417000       1.00800           0
     26852 TIP3     5646     TIP3     OH2      OT      -0.834000       15.9994           0
     26853 TIP3     5646     TIP3     H1       HT       0.417000       1.00800           0
     26854 TIP3     5646     TIP3     H2       HT       0.417000       1.00800           0
     26855 TIP3     5647     TIP3     OH2      OT      -0.834000       15.9994           0
     26856 TIP3     5647     TIP3     H1       HT       0.417000       1.00800           0
     26857 TIP3     5647     TIP3     H2       HT       0.417000       1.00800           0
     26858 TIP3     5648     TIP3     OH2      OT      -0.834000       15.9994           0
     26859 TIP3     5648     TIP3     H1       HT       0.417000       1.00800           0
     26860 TIP3     5648     TIP3     H2       HT       0.417000       1.00800           0
     26861 TIP3     5649     TIP3     OH2      OT      -0.834000       15.9994           0
     26862 TIP3     5649     TIP3     H1       HT       0.417000       1.00800           0
     26863 TIP3     5649     TIP3     H2       HT       0.417000       1.00800           0
     26864 TIP3     5650     TIP3     OH2      OT      -0.834000       15.9994           0
     26865 TIP3     5650     TIP3     H1       HT       0.417000       1.00800           0
     26866 TIP3     5650     TIP3     H2       HT       0.417000       1.00800           0
     26867 TIP3     5651     TIP3     OH2      OT      -0.834000       15.9994           0
     26868 TIP3     5651     TIP3     H1       HT       0.417000       1.00800           0
     26869 TIP3     5651     TIP3     H2       HT       0.417000       1.00800           0
     26870 TIP3     5652     TIP3     OH2      OT      -0.834000       15.9994           0
     26871 TIP3     5652     TIP3     H1       HT       0.417000       1.00800           0
     26872 TIP3     5652     TIP3     H2       HT       0.417000       1.00800           0
     26873 TIP3     5653     TIP3     OH2      OT      -0.834000       15.9994           0
     26874 TIP3     5653     TIP3     H1       HT       0.417000       1.00800           0
     26875 TIP3     5653     TIP3     H2       HT       0.417000       1.00800           0
     26876 TIP3     5654     TIP3     OH2      OT      -0.834000       15.9994           0
     26877 TIP3     5654     TIP3     H1       HT       0.417000       1.00800           0
     26878 TIP3     5654     TIP3     H2       HT       0.417000       1.00800           0
     26879 TIP3     5655     TIP3     OH2      OT      -0.834000       15.9994           0
     26880 TIP3     5655     TIP3     H1       HT       0.417000       1.00800           0
     26881 TIP3     5655     TIP3     H2       HT       0.417000       1.00800           0
     26882 TIP3     5656     TIP3     OH2      OT      -0.834000       15.9994           0
     26883 TIP3     5656     TIP3     H1       HT       0.417000       1.00800           0
     26884 TIP3     5656     TIP3     H2       HT       0.417000       1.00800           0
     26885 TIP3     5657     TIP3     OH2      OT      -0.834000       15.9994           0
     26886 TIP3     5657     TIP3     H1       HT       0.417000       1.00800           0
     26887 TIP3     5657     TIP3     H2       HT       0.417000       1.00800           0
     26888 TIP3     5658     TIP3     OH2      OT      -0.834000       15.9994           0
     26889 TIP3     5658     TIP3     H1       HT       0.417000       1.00800           0
     26890 TIP3     5658     TIP3     H2       HT       0.417000       1.00800           0
     26891 TIP3     5659     TIP3     OH2      OT      -0.834000       15.9994           0
     26892 TIP3     5659     TIP3     H1       HT       0.417000       1.00800           0
     26893 TIP3     5659     TIP3     H2       HT       0.417000       1.00800           0
     26894 TIP3     5660     TIP3     OH2      OT      -0.834000       15.9994           0
     26895 TIP3     5660     TIP3     H1       HT       0.417000       1.00800           0
     26896 TIP3     5660     TIP3     H2       HT       0.417000       1.00800           0
     26897 TIP3     5661     TIP3     OH2      OT      -0.834000       15.9994           0
     26898 TIP3     5661     TIP3     H1       HT       0.417000       1.00800           0
     26899 TIP3     5661     TIP3     H2       HT       0.417000       1.00800           0
     26900 TIP3     5662     TIP3     OH2      OT      -0.834000       15.9994           0
     26901 TIP3     5662     TIP3     H1       HT       0.417000       1.00800           0
     26902 TIP3     5662     TIP3     H2       HT       0.417000       1.00800           0
     26903 TIP3     5663     TIP3     OH2      OT      -0.834000       15.9994           0
     26904 TIP3     5663     TIP3     H1       HT       0.417000       1.00800           0
     26905 TIP3     5663     TIP3     H2       HT       0.417000       1.00800           0
     26906 TIP3     5664     TIP3     OH2      OT      -0.834000       15.9994           0
     26907 TIP3     5664     TIP3     H1       HT       0.417000       1.00800           0
     26908 TIP3     5664     TIP3     H2       HT       0.417000       1.00800           0
     26909 TIP3     5665     TIP3     OH2      OT      -0.834000       15.9994           0
     26910 TIP3     5665     TIP3     H1       HT       0.417000       1.00800           0
     26911 TIP3     5665     TIP3     H2       HT       0.417000       1.00800           0
     26912 TIP3     5666     TIP3     OH2      OT      -0.834000       15.9994           0
     26913 TIP3     5666     TIP3     H1       HT       0.417000       1.00800           0
     26914 TIP3     5666     TIP3     H2       HT       0.417000       1.00800           0
     26915 TIP3     5667     TIP3     OH2      OT      -0.834000       15.9994           0
     26916 TIP3     5667     TIP3     H1       HT       0.417000       1.00800           0
     26917 TIP3     5667     TIP3     H2       HT       0.417000       1.00800           0
     26918 TIP3     5668     TIP3     OH2      OT      -0.834000       15.9994           0
     26919 TIP3     5668     TIP3     H1       HT       0.417000       1.00800           0
     26920 TIP3     5668     TIP3     H2       HT       0.417000       1.00800           0
     26921 TIP3     5669     TIP3     OH2      OT      -0.834000       15.9994           0
     26922 TIP3     5669     TIP3     H1       HT       0.417000       1.00800           0
     26923 TIP3     5669     TIP3     H2       HT       0.417000       1.00800           0
     26924 TIP3     5670     TIP3     OH2      OT      -0.834000       15.9994           0
     26925 TIP3     5670     TIP3     H1       HT       0.417000       1.00800           0
     26926 TIP3     5670     TIP3     H2       HT       0.417000       1.00800           0
     26927 TIP3     5671     TIP3     OH2      OT      -0.834000       15.9994           0
     26928 TIP3     5671     TIP3     H1       HT       0.417000       1.00800           0
     26929 TIP3     5671     TIP3     H2       HT       0.417000       1.00800           0
     26930 TIP3     5672     TIP3     OH2      OT      -0.834000       15.9994           0
     26931 TIP3     5672     TIP3     H1       HT       0.417000       1.00800           0
     26932 TIP3     5672     TIP3     H2       HT       0.417000       1.00800           0
     26933 TIP3     5673     TIP3     OH2      OT      -0.834000       15.9994           0
     26934 TIP3     5673     TIP3     H1       HT       0.417000       1.00800           0
     26935 TIP3     5673     TIP3     H2       HT       0.417000       1.00800           0
     26936 TIP3     5674     TIP3     OH2      OT      -0.834000       15.9994           0
     26937 TIP3     5674     TIP3     H1       HT       0.417000       1.00800           0
     26938 TIP3     5674     TIP3     H2       HT       0.417000       1.00800           0
     26939 TIP3     5675     TIP3     OH2      OT      -0.834000       15.9994           0
     26940 TIP3     5675     TIP3     H1       HT       0.417000       1.00800           0
     26941 TIP3     5675     TIP3     H2       HT       0.417000       1.00800           0
     26942 TIP3     5676     TIP3     OH2      OT      -0.834000       15.9994           0
     26943 TIP3     5676     TIP3     H1       HT       0.417000       1.00800           0
     26944 TIP3     5676     TIP3     H2       HT       0.417000       1.00800           0
     26945 TIP3     5677     TIP3     OH2      OT      -0.834000       15.9994           0
     26946 TIP3     5677     TIP3     H1       HT       0.417000       1.00800           0
     26947 TIP3     5677     TIP3     H2       HT       0.417000       1.00800           0
     26948 TIP3     5678     TIP3     OH2      OT      -0.834000       15.9994           0
     26949 TIP3     5678     TIP3     H1       HT       0.417000       1.00800           0
     26950 TIP3     5678     TIP3     H2       HT       0.417000       1.00800           0
     26951 TIP3     5679     TIP3     OH2      OT      -0.834000       15.9994           0
     26952 TIP3     5679     TIP3     H1       HT       0.417000       1.00800           0
     26953 TIP3     5679     TIP3     H2       HT       0.417000       1.00800           0
     26954 TIP3     5680     TIP3     OH2      OT      -0.834000       15.9994           0
     26955 TIP3     5680     TIP3     H1       HT       0.417000       1.00800           0
     26956 TIP3     5680     TIP3     H2       HT       0.417000       1.00800           0
     26957 TIP3     5681     TIP3     OH2      OT      -0.834000       15.9994           0
     26958 TIP3     5681     TIP3     H1       HT       0.417000       1.00800           0
     26959 TIP3     5681     TIP3     H2       HT       0.417000       1.00800           0
     26960 TIP3     5682     TIP3     OH2      OT      -0.834000       15.9994           0
     26961 TIP3     5682     TIP3     H1       HT       0.417000       1.00800           0
     26962 TIP3     5682     TIP3     H2       HT       0.417000       1.00800           0
     26963 TIP3     5683     TIP3     OH2      OT      -0.834000       15.9994           0
     26964 TIP3     5683     TIP3     H1       HT       0.417000       1.00800           0
     26965 TIP3     5683     TIP3     H2       HT       0.417000       1.00800           0
     26966 TIP3     5684     TIP3     OH2      OT      -0.834000       15.9994           0
     26967 TIP3     5684     TIP3     H1       HT       0.417000       1.00800           0
     26968 TIP3     5684     TIP3     H2       HT       0.417000       1.00800           0
     26969 TIP3     5685     TIP3     OH2      OT      -0.834000       15.9994           0
     26970 TIP3     5685     TIP3     H1       HT       0.417000       1.00800           0
     26971 TIP3     5685     TIP3     H2       HT       0.417000       1.00800           0
     26972 TIP3     5686     TIP3     OH2      OT      -0.834000       15.9994           0
     26973 TIP3     5686     TIP3     H1       HT       0.417000       1.00800           0
     26974 TIP3     5686     TIP3     H2       HT       0.417000       1.00800           0
     26975 TIP3     5687     TIP3     OH2      OT      -0.834000       15.9994           0
     26976 TIP3     5687     TIP3     H1       HT       0.417000       1.00800           0
     26977 TIP3     5687     TIP3     H2       HT       0.417000       1.00800           0
     26978 TIP3     5688     TIP3     OH2      OT      -0.834000       15.9994           0
     26979 TIP3     5688     TIP3     H1       HT       0.417000       1.00800           0
     26980 TIP3     5688     TIP3     H2       HT       0.417000       1.00800           0
     26981 TIP3     5689     TIP3     OH2      OT      -0.834000       15.9994           0
     26982 TIP3     5689     TIP3     H1       HT       0.417000       1.00800           0
     26983 TIP3     5689     TIP3     H2       HT       0.417000       1.00800           0
     26984 TIP3     5690     TIP3     OH2      OT      -0.834000       15.9994           0
     26985 TIP3     5690     TIP3     H1       HT       0.417000       1.00800           0
     26986 TIP3     5690     TIP3     H2       HT       0.417000       1.00800           0
     26987 TIP3     5691     TIP3     OH2      OT      -0.834000       15.9994           0
     26988 TIP3     5691     TIP3     H1       HT       0.417000       1.00800           0
     26989 TIP3     5691     TIP3     H2       HT       0.417000       1.00800           0
     26990 TIP3     5692     TIP3     OH2      OT      -0.834000       15.9994           0
     26991 TIP3     5692     TIP3     H1       HT       0.417000       1.00800           0
     26992 TIP3     5692     TIP3     H2       HT       0.417000       1.00800           0
     26993 TIP3     5693     TIP3     OH2      OT      -0.834000       15.9994           0
     26994 TIP3     5693     TIP3     H1       HT       0.417000       1.00800           0
     26995 TIP3     5693     TIP3     H2       HT       0.417000       1.00800           0
     26996 TIP3     5694     TIP3     OH2      OT      -0.834000       15.9994           0
     26997 TIP3     5694     TIP3     H1       HT       0.417000       1.00800           0
     26998 TIP3     5694     TIP3     H2       HT       0.417000       1.00800           0
     26999 TIP3     5695     TIP3     OH2      OT      -0.834000       15.9994           0
     27000 TIP3     5695     TIP3     H1       HT       0.417000       1.00800           0
     27001 TIP3     5695     TIP3     H2       HT       0.417000       1.00800           0
     27002 TIP3     5696     TIP3     OH2      OT      -0.834000       15.9994           0
     27003 TIP3     5696     TIP3     H1       HT       0.417000       1.00800           0
     27004 TIP3     5696     TIP3     H2       HT       0.417000       1.00800           0
     27005 TIP3     5697     TIP3     OH2      OT      -0.834000       15.9994           0
     27006 TIP3     5697     TIP3     H1       HT       0.417000       1.00800           0
     27007 TIP3     5697     TIP3     H2       HT       0.417000       1.00800           0
     27008 TIP3     5698     TIP3     OH2      OT      -0.834000       15.9994           0
     27009 TIP3     5698     TIP3     H1       HT       0.417000       1.00800           0
     27010 TIP3     5698     TIP3     H2       HT       0.417000       1.00800           0
     27011 TIP3     5699     TIP3     OH2      OT      -0.834000       15.9994           0
     27012 TIP3     5699     TIP3     H1       HT       0.417000       1.00800           0
     27013 TIP3     5699     TIP3     H2       HT       0.417000       1.00800           0
     27014 TIP3     5700     TIP3     OH2      OT      -0.834000       15.9994           0
     27015 TIP3     5700     TIP3     H1       HT       0.417000       1.00800           0
     27016 TIP3     5700     TIP3     H2       HT       0.417000       1.00800           0
     27017 TIP3     5701     TIP3     OH2      OT      -0.834000       15.9994           0
     27018 TIP3     5701     TIP3     H1       HT       0.417000       1.00800           0
     27019 TIP3     5701     TIP3     H2       HT       0.417000       1.00800           0
     27020 TIP3     5702     TIP3     OH2      OT      -0.834000       15.9994           0
     27021 TIP3     5702     TIP3     H1       HT       0.417000       1.00800           0
     27022 TIP3     5702     TIP3     H2       HT       0.417000       1.00800           0
     27023 TIP3     5703     TIP3     OH2      OT      -0.834000       15.9994           0
     27024 TIP3     5703     TIP3     H1       HT       0.417000       1.00800           0
     27025 TIP3     5703     TIP3     H2       HT       0.417000       1.00800           0
     27026 TIP3     5704     TIP3     OH2      OT      -0.834000       15.9994           0
     27027 TIP3     5704     TIP3     H1       HT       0.417000       1.00800           0
     27028 TIP3     5704     TIP3     H2       HT       0.417000       1.00800           0
     27029 TIP3     5705     TIP3     OH2      OT      -0.834000       15.9994           0
     27030 TIP3     5705     TIP3     H1       HT       0.417000       1.00800           0
     27031 TIP3     5705     TIP3     H2       HT       0.417000       1.00800           0
     27032 TIP3     5706     TIP3     OH2      OT      -0.834000       15.9994           0
     27033 TIP3     5706     TIP3     H1       HT       0.417000       1.00800           0
     27034 TIP3     5706     TIP3     H2       HT       0.417000       1.00800           0
     27035 TIP3     5707     TIP3     OH2      OT      -0.834000       15.9994           0
     27036 TIP3     5707     TIP3     H1       HT       0.417000       1.00800           0
     27037 TIP3     5707     TIP3     H2       HT       0.417000       1.00800           0
     27038 TIP3     5708     TIP3     OH2      OT      -0.834000       15.9994           0
     27039 TIP3     5708     TIP3     H1       HT       0.417000       1.00800           0
     27040 TIP3     5708     TIP3     H2       HT       0.417000       1.00800           0
     27041 TIP3     5709     TIP3     OH2      OT      -0.834000       15.9994           0
     27042 TIP3     5709     TIP3     H1       HT       0.417000       1.00800           0
     27043 TIP3     5709     TIP3     H2       HT       0.417000       1.00800           0
     27044 TIP3     5710     TIP3     OH2      OT      -0.834000       15.9994           0
     27045 TIP3     5710     TIP3     H1       HT       0.417000       1.00800           0
     27046 TIP3     5710     TIP3     H2       HT       0.417000       1.00800           0
     27047 TIP3     5711     TIP3     OH2      OT      -0.834000       15.9994           0
     27048 TIP3     5711     TIP3     H1       HT       0.417000       1.00800           0
     27049 TIP3     5711     TIP3     H2       HT       0.417000       1.00800           0
     27050 TIP3     5712     TIP3     OH2      OT      -0.834000       15.9994           0
     27051 TIP3     5712     TIP3     H1       HT       0.417000       1.00800           0
     27052 TIP3     5712     TIP3     H2       HT       0.417000       1.00800           0
     27053 TIP3     5713     TIP3     OH2      OT      -0.834000       15.9994           0
     27054 TIP3     5713     TIP3     H1       HT       0.417000       1.00800           0
     27055 TIP3     5713     TIP3     H2       HT       0.417000       1.00800           0
     27056 TIP3     5714     TIP3     OH2      OT      -0.834000       15.9994           0
     27057 TIP3     5714     TIP3     H1       HT       0.417000       1.00800           0
     27058 TIP3     5714     TIP3     H2       HT       0.417000       1.00800           0
     27059 TIP3     5715     TIP3     OH2      OT      -0.834000       15.9994           0
     27060 TIP3     5715     TIP3     H1       HT       0.417000       1.00800           0
     27061 TIP3     5715     TIP3     H2       HT       0.417000       1.00800           0
     27062 TIP3     5716     TIP3     OH2      OT      -0.834000       15.9994           0
     27063 TIP3     5716     TIP3     H1       HT       0.417000       1.00800           0
     27064 TIP3     5716     TIP3     H2       HT       0.417000       1.00800           0
     27065 TIP3     5717     TIP3     OH2      OT      -0.834000       15.9994           0
     27066 TIP3     5717     TIP3     H1       HT       0.417000       1.00800           0
     27067 TIP3     5717     TIP3     H2       HT       0.417000       1.00800           0
     27068 TIP3     5718     TIP3     OH2      OT      -0.834000       15.9994           0
     27069 TIP3     5718     TIP3     H1       HT       0.417000       1.00800           0
     27070 TIP3     5718     TIP3     H2       HT       0.417000       1.00800           0
     27071 TIP3     5719     TIP3     OH2      OT      -0.834000       15.9994           0
     27072 TIP3     5719     TIP3     H1       HT       0.417000       1.00800           0
     27073 TIP3     5719     TIP3     H2       HT       0.417000       1.00800           0
     27074 TIP3     5720     TIP3     OH2      OT      -0.834000       15.9994           0
     27075 TIP3     5720     TIP3     H1       HT       0.417000       1.00800           0
     27076 TIP3     5720     TIP3     H2       HT       0.417000       1.00800           0
     27077 TIP3     5721     TIP3     OH2      OT      -0.834000       15.9994           0
     27078 TIP3     5721     TIP3     H1       HT       0.417000       1.00800           0
     27079 TIP3     5721     TIP3     H2       HT       0.417000       1.00800           0
     27080 TIP3     5722     TIP3     OH2      OT      -0.834000       15.9994           0
     27081 TIP3     5722     TIP3     H1       HT       0.417000       1.00800           0
     27082 TIP3     5722     TIP3     H2       HT       0.417000       1.00800           0
     27083 TIP3     5723     TIP3     OH2      OT      -0.834000       15.9994           0
     27084 TIP3     5723     TIP3     H1       HT       0.417000       1.00800           0
     27085 TIP3     5723     TIP3     H2       HT       0.417000       1.00800           0
     27086 TIP3     5724     TIP3     OH2      OT      -0.834000       15.9994           0
     27087 TIP3     5724     TIP3     H1       HT       0.417000       1.00800           0
     27088 TIP3     5724     TIP3     H2       HT       0.417000       1.00800           0
     27089 TIP3     5725     TIP3     OH2      OT      -0.834000       15.9994           0
     27090 TIP3     5725     TIP3     H1       HT       0.417000       1.00800           0
     27091 TIP3     5725     TIP3     H2       HT       0.417000       1.00800           0
     27092 TIP3     5726     TIP3     OH2      OT      -0.834000       15.9994           0
     27093 TIP3     5726     TIP3     H1       HT       0.417000       1.00800           0
     27094 TIP3     5726     TIP3     H2       HT       0.417000       1.00800           0
     27095 TIP3     5727     TIP3     OH2      OT      -0.834000       15.9994           0
     27096 TIP3     5727     TIP3     H1       HT       0.417000       1.00800           0
     27097 TIP3     5727     TIP3     H2       HT       0.417000       1.00800           0
     27098 TIP3     5728     TIP3     OH2      OT      -0.834000       15.9994           0
     27099 TIP3     5728     TIP3     H1       HT       0.417000       1.00800           0
     27100 TIP3     5728     TIP3     H2       HT       0.417000       1.00800           0
     27101 TIP3     5729     TIP3     OH2      OT      -0.834000       15.9994           0
     27102 TIP3     5729     TIP3     H1       HT       0.417000       1.00800           0
     27103 TIP3     5729     TIP3     H2       HT       0.417000       1.00800           0
     27104 TIP3     5730     TIP3     OH2      OT      -0.834000       15.9994           0
     27105 TIP3     5730     TIP3     H1       HT       0.417000       1.00800           0
     27106 TIP3     5730     TIP3     H2       HT       0.417000       1.00800           0
     27107 TIP3     5731     TIP3     OH2      OT      -0.834000       15.9994           0
     27108 TIP3     5731     TIP3     H1       HT       0.417000       1.00800           0
     27109 TIP3     5731     TIP3     H2       HT       0.417000       1.00800           0
     27110 TIP3     5732     TIP3     OH2      OT      -0.834000       15.9994           0
     27111 TIP3     5732     TIP3     H1       HT       0.417000       1.00800           0
     27112 TIP3     5732     TIP3     H2       HT       0.417000       1.00800           0
     27113 TIP3     5733     TIP3     OH2      OT      -0.834000       15.9994           0
     27114 TIP3     5733     TIP3     H1       HT       0.417000       1.00800           0
     27115 TIP3     5733     TIP3     H2       HT       0.417000       1.00800           0
     27116 TIP3     5734     TIP3     OH2      OT      -0.834000       15.9994           0
     27117 TIP3     5734     TIP3     H1       HT       0.417000       1.00800           0
     27118 TIP3     5734     TIP3     H2       HT       0.417000       1.00800           0
     27119 TIP3     5735     TIP3     OH2      OT      -0.834000       15.9994           0
     27120 TIP3     5735     TIP3     H1       HT       0.417000       1.00800           0
     27121 TIP3     5735     TIP3     H2       HT       0.417000       1.00800           0
     27122 TIP3     5736     TIP3     OH2      OT      -0.834000       15.9994           0
     27123 TIP3     5736     TIP3     H1       HT       0.417000       1.00800           0
     27124 TIP3     5736     TIP3     H2       HT       0.417000       1.00800           0
     27125 TIP3     5737     TIP3     OH2      OT      -0.834000       15.9994           0
     27126 TIP3     5737     TIP3     H1       HT       0.417000       1.00800           0
     27127 TIP3     5737     TIP3     H2       HT       0.417000       1.00800           0
     27128 TIP3     5738     TIP3     OH2      OT      -0.834000       15.9994           0
     27129 TIP3     5738     TIP3     H1       HT       0.417000       1.00800           0
     27130 TIP3     5738     TIP3     H2       HT       0.417000       1.00800           0
     27131 TIP3     5739     TIP3     OH2      OT      -0.834000       15.9994           0
     27132 TIP3     5739     TIP3     H1       HT       0.417000       1.00800           0
     27133 TIP3     5739     TIP3     H2       HT       0.417000       1.00800           0
     27134 TIP3     5740     TIP3     OH2      OT      -0.834000       15.9994           0
     27135 TIP3     5740     TIP3     H1       HT       0.417000       1.00800           0
     27136 TIP3     5740     TIP3     H2       HT       0.417000       1.00800           0
     27137 TIP3     5741     TIP3     OH2      OT      -0.834000       15.9994           0
     27138 TIP3     5741     TIP3     H1       HT       0.417000       1.00800           0
     27139 TIP3     5741     TIP3     H2       HT       0.417000       1.00800           0
     27140 TIP3     5742     TIP3     OH2      OT      -0.834000       15.9994           0
     27141 TIP3     5742     TIP3     H1       HT       0.417000       1.00800           0
     27142 TIP3     5742     TIP3     H2       HT       0.417000       1.00800           0
     27143 TIP3     5743     TIP3     OH2      OT      -0.834000       15.9994           0
     27144 TIP3     5743     TIP3     H1       HT       0.417000       1.00800           0
     27145 TIP3     5743     TIP3     H2       HT       0.417000       1.00800           0
     27146 TIP3     5744     TIP3     OH2      OT      -0.834000       15.9994           0
     27147 TIP3     5744     TIP3     H1       HT       0.417000       1.00800           0
     27148 TIP3     5744     TIP3     H2       HT       0.417000       1.00800           0
     27149 TIP3     5745     TIP3     OH2      OT      -0.834000       15.9994           0
     27150 TIP3     5745     TIP3     H1       HT       0.417000       1.00800           0
     27151 TIP3     5745     TIP3     H2       HT       0.417000       1.00800           0
     27152 TIP3     5746     TIP3     OH2      OT      -0.834000       15.9994           0
     27153 TIP3     5746     TIP3     H1       HT       0.417000       1.00800           0
     27154 TIP3     5746     TIP3     H2       HT       0.417000       1.00800           0
     27155 TIP3     5747     TIP3     OH2      OT      -0.834000       15.9994           0
     27156 TIP3     5747     TIP3     H1       HT       0.417000       1.00800           0
     27157 TIP3     5747     TIP3     H2       HT       0.417000       1.00800           0
     27158 TIP3     5748     TIP3     OH2      OT      -0.834000       15.9994           0
     27159 TIP3     5748     TIP3     H1       HT       0.417000       1.00800           0
     27160 TIP3     5748     TIP3     H2       HT       0.417000       1.00800           0
     27161 TIP3     5749     TIP3     OH2      OT      -0.834000       15.9994           0
     27162 TIP3     5749     TIP3     H1       HT       0.417000       1.00800           0
     27163 TIP3     5749     TIP3     H2       HT       0.417000       1.00800           0
     27164 TIP3     5750     TIP3     OH2      OT      -0.834000       15.9994           0
     27165 TIP3     5750     TIP3     H1       HT       0.417000       1.00800           0
     27166 TIP3     5750     TIP3     H2       HT       0.417000       1.00800           0
     27167 TIP3     5751     TIP3     OH2      OT      -0.834000       15.9994           0
     27168 TIP3     5751     TIP3     H1       HT       0.417000       1.00800           0
     27169 TIP3     5751     TIP3     H2       HT       0.417000       1.00800           0
     27170 TIP3     5752     TIP3     OH2      OT      -0.834000       15.9994           0
     27171 TIP3     5752     TIP3     H1       HT       0.417000       1.00800           0
     27172 TIP3     5752     TIP3     H2       HT       0.417000       1.00800           0
     27173 TIP3     5753     TIP3     OH2      OT      -0.834000       15.9994           0
     27174 TIP3     5753     TIP3     H1       HT       0.417000       1.00800           0
     27175 TIP3     5753     TIP3     H2       HT       0.417000       1.00800           0
     27176 TIP3     5754     TIP3     OH2      OT      -0.834000       15.9994           0
     27177 TIP3     5754     TIP3     H1       HT       0.417000       1.00800           0
     27178 TIP3     5754     TIP3     H2       HT       0.417000       1.00800           0
     27179 TIP3     5755     TIP3     OH2      OT      -0.834000       15.9994           0
     27180 TIP3     5755     TIP3     H1       HT       0.417000       1.00800           0
     27181 TIP3     5755     TIP3     H2       HT       0.417000       1.00800           0
     27182 TIP3     5756     TIP3     OH2      OT      -0.834000       15.9994           0
     27183 TIP3     5756     TIP3     H1       HT       0.417000       1.00800           0
     27184 TIP3     5756     TIP3     H2       HT       0.417000       1.00800           0
     27185 TIP3     5757     TIP3     OH2      OT      -0.834000       15.9994           0
     27186 TIP3     5757     TIP3     H1       HT       0.417000       1.00800           0
     27187 TIP3     5757     TIP3     H2       HT       0.417000       1.00800           0
     27188 TIP3     5758     TIP3     OH2      OT      -0.834000       15.9994           0
     27189 TIP3     5758     TIP3     H1       HT       0.417000       1.00800           0
     27190 TIP3     5758     TIP3     H2       HT       0.417000       1.00800           0
     27191 TIP3     5759     TIP3     OH2      OT      -0.834000       15.9994           0
     27192 TIP3     5759     TIP3     H1       HT       0.417000       1.00800           0
     27193 TIP3     5759     TIP3     H2       HT       0.417000       1.00800           0
     27194 TIP3     5760     TIP3     OH2      OT      -0.834000       15.9994           0
     27195 TIP3     5760     TIP3     H1       HT       0.417000       1.00800           0
     27196 TIP3     5760     TIP3     H2       HT       0.417000       1.00800           0
     27197 TIP3     5761     TIP3     OH2      OT      -0.834000       15.9994           0
     27198 TIP3     5761     TIP3     H1       HT       0.417000       1.00800           0
     27199 TIP3     5761     TIP3     H2       HT       0.417000       1.00800           0
     27200 TIP3     5762     TIP3     OH2      OT      -0.834000       15.9994           0
     27201 TIP3     5762     TIP3     H1       HT       0.417000       1.00800           0
     27202 TIP3     5762     TIP3     H2       HT       0.417000       1.00800           0
     27203 TIP3     5763     TIP3     OH2      OT      -0.834000       15.9994           0
     27204 TIP3     5763     TIP3     H1       HT       0.417000       1.00800           0
     27205 TIP3     5763     TIP3     H2       HT       0.417000       1.00800           0
     27206 TIP3     5764     TIP3     OH2      OT      -0.834000       15.9994           0
     27207 TIP3     5764     TIP3     H1       HT       0.417000       1.00800           0
     27208 TIP3     5764     TIP3     H2       HT       0.417000       1.00800           0
     27209 TIP3     5765     TIP3     OH2      OT      -0.834000       15.9994           0
     27210 TIP3     5765     TIP3     H1       HT       0.417000       1.00800           0
     27211 TIP3     5765     TIP3     H2       HT       0.417000       1.00800           0
     27212 TIP3     5766     TIP3     OH2      OT      -0.834000       15.9994           0
     27213 TIP3     5766     TIP3     H1       HT       0.417000       1.00800           0
     27214 TIP3     5766     TIP3     H2       HT       0.417000       1.00800           0
     27215 TIP3     5767     TIP3     OH2      OT      -0.834000       15.9994           0
     27216 TIP3     5767     TIP3     H1       HT       0.417000       1.00800           0
     27217 TIP3     5767     TIP3     H2       HT       0.417000       1.00800           0
     27218 TIP3     5768     TIP3     OH2      OT      -0.834000       15.9994           0
     27219 TIP3     5768     TIP3     H1       HT       0.417000       1.00800           0
     27220 TIP3     5768     TIP3     H2       HT       0.417000       1.00800           0
     27221 TIP3     5769     TIP3     OH2      OT      -0.834000       15.9994           0
     27222 TIP3     5769     TIP3     H1       HT       0.417000       1.00800           0
     27223 TIP3     5769     TIP3     H2       HT       0.417000       1.00800           0
     27224 TIP3     5770     TIP3     OH2      OT      -0.834000       15.9994           0
     27225 TIP3     5770     TIP3     H1       HT       0.417000       1.00800           0
     27226 TIP3     5770     TIP3     H2       HT       0.417000       1.00800           0
     27227 TIP3     5771     TIP3     OH2      OT      -0.834000       15.9994           0
     27228 TIP3     5771     TIP3     H1       HT       0.417000       1.00800           0
     27229 TIP3     5771     TIP3     H2       HT       0.417000       1.00800           0
     27230 TIP3     5772     TIP3     OH2      OT      -0.834000       15.9994           0
     27231 TIP3     5772     TIP3     H1       HT       0.417000       1.00800           0
     27232 TIP3     5772     TIP3     H2       HT       0.417000       1.00800           0
     27233 TIP3     5773     TIP3     OH2      OT      -0.834000       15.9994           0
     27234 TIP3     5773     TIP3     H1       HT       0.417000       1.00800           0
     27235 TIP3     5773     TIP3     H2       HT       0.417000       1.00800           0
     27236 TIP3     5774     TIP3     OH2      OT      -0.834000       15.9994           0
     27237 TIP3     5774     TIP3     H1       HT       0.417000       1.00800           0
     27238 TIP3     5774     TIP3     H2       HT       0.417000       1.00800           0
     27239 TIP3     5775     TIP3     OH2      OT      -0.834000       15.9994           0
     27240 TIP3     5775     TIP3     H1       HT       0.417000       1.00800           0
     27241 TIP3     5775     TIP3     H2       HT       0.417000       1.00800           0
     27242 TIP3     5776     TIP3     OH2      OT      -0.834000       15.9994           0
     27243 TIP3     5776     TIP3     H1       HT       0.417000       1.00800           0
     27244 TIP3     5776     TIP3     H2       HT       0.417000       1.00800           0
     27245 TIP3     5777     TIP3     OH2      OT      -0.834000       15.9994           0
     27246 TIP3     5777     TIP3     H1       HT       0.417000       1.00800           0
     27247 TIP3     5777     TIP3     H2       HT       0.417000       1.00800           0
     27248 TIP3     5778     TIP3     OH2      OT      -0.834000       15.9994           0
     27249 TIP3     5778     TIP3     H1       HT       0.417000       1.00800           0
     27250 TIP3     5778     TIP3     H2       HT       0.417000       1.00800           0
     27251 TIP3     5779     TIP3     OH2      OT      -0.834000       15.9994           0
     27252 TIP3     5779     TIP3     H1       HT       0.417000       1.00800           0
     27253 TIP3     5779     TIP3     H2       HT       0.417000       1.00800           0
     27254 TIP3     5780     TIP3     OH2      OT      -0.834000       15.9994           0
     27255 TIP3     5780     TIP3     H1       HT       0.417000       1.00800           0
     27256 TIP3     5780     TIP3     H2       HT       0.417000       1.00800           0
     27257 TIP3     5781     TIP3     OH2      OT      -0.834000       15.9994           0
     27258 TIP3     5781     TIP3     H1       HT       0.417000       1.00800           0
     27259 TIP3     5781     TIP3     H2       HT       0.417000       1.00800           0
     27260 TIP3     5782     TIP3     OH2      OT      -0.834000       15.9994           0
     27261 TIP3     5782     TIP3     H1       HT       0.417000       1.00800           0
     27262 TIP3     5782     TIP3     H2       HT       0.417000       1.00800           0
     27263 TIP3     5783     TIP3     OH2      OT      -0.834000       15.9994           0
     27264 TIP3     5783     TIP3     H1       HT       0.417000       1.00800           0
     27265 TIP3     5783     TIP3     H2       HT       0.417000       1.00800           0
     27266 TIP3     5784     TIP3     OH2      OT      -0.834000       15.9994           0
     27267 TIP3     5784     TIP3     H1       HT       0.417000       1.00800           0
     27268 TIP3     5784     TIP3     H2       HT       0.417000       1.00800           0
     27269 TIP3     5785     TIP3     OH2      OT      -0.834000       15.9994           0
     27270 TIP3     5785     TIP3     H1       HT       0.417000       1.00800           0
     27271 TIP3     5785     TIP3     H2       HT       0.417000       1.00800           0
     27272 TIP3     5786     TIP3     OH2      OT      -0.834000       15.9994           0
     27273 TIP3     5786     TIP3     H1       HT       0.417000       1.00800           0
     27274 TIP3     5786     TIP3     H2       HT       0.417000       1.00800           0
     27275 TIP3     5787     TIP3     OH2      OT      -0.834000       15.9994           0
     27276 TIP3     5787     TIP3     H1       HT       0.417000       1.00800           0
     27277 TIP3     5787     TIP3     H2       HT       0.417000       1.00800           0
     27278 TIP3     5788     TIP3     OH2      OT      -0.834000       15.9994           0
     27279 TIP3     5788     TIP3     H1       HT       0.417000       1.00800           0
     27280 TIP3     5788     TIP3     H2       HT       0.417000       1.00800           0
     27281 TIP3     5789     TIP3     OH2      OT      -0.834000       15.9994           0
     27282 TIP3     5789     TIP3     H1       HT       0.417000       1.00800           0
     27283 TIP3     5789     TIP3     H2       HT       0.417000       1.00800           0
     27284 TIP3     5790     TIP3     OH2      OT      -0.834000       15.9994           0
     27285 TIP3     5790     TIP3     H1       HT       0.417000       1.00800           0
     27286 TIP3     5790     TIP3     H2       HT       0.417000       1.00800           0
     27287 TIP3     5791     TIP3     OH2      OT      -0.834000       15.9994           0
     27288 TIP3     5791     TIP3     H1       HT       0.417000       1.00800           0
     27289 TIP3     5791     TIP3     H2       HT       0.417000       1.00800           0
     27290 TIP3     5792     TIP3     OH2      OT      -0.834000       15.9994           0
     27291 TIP3     5792     TIP3     H1       HT       0.417000       1.00800           0
     27292 TIP3     5792     TIP3     H2       HT       0.417000       1.00800           0
     27293 TIP3     5793     TIP3     OH2      OT      -0.834000       15.9994           0
     27294 TIP3     5793     TIP3     H1       HT       0.417000       1.00800           0
     27295 TIP3     5793     TIP3     H2       HT       0.417000       1.00800           0
     27296 TIP3     5794     TIP3     OH2      OT      -0.834000       15.9994           0
     27297 TIP3     5794     TIP3     H1       HT       0.417000       1.00800           0
     27298 TIP3     5794     TIP3     H2       HT       0.417000       1.00800           0
     27299 TIP3     5795     TIP3     OH2      OT      -0.834000       15.9994           0
     27300 TIP3     5795     TIP3     H1       HT       0.417000       1.00800           0
     27301 TIP3     5795     TIP3     H2       HT       0.417000       1.00800           0
     27302 TIP3     5796     TIP3     OH2      OT      -0.834000       15.9994           0
     27303 TIP3     5796     TIP3     H1       HT       0.417000       1.00800           0
     27304 TIP3     5796     TIP3     H2       HT       0.417000       1.00800           0
     27305 TIP3     5797     TIP3     OH2      OT      -0.834000       15.9994           0
     27306 TIP3     5797     TIP3     H1       HT       0.417000       1.00800           0
     27307 TIP3     5797     TIP3     H2       HT       0.417000       1.00800           0
     27308 TIP3     5798     TIP3     OH2      OT      -0.834000       15.9994           0
     27309 TIP3     5798     TIP3     H1       HT       0.417000       1.00800           0
     27310 TIP3     5798     TIP3     H2       HT       0.417000       1.00800           0
     27311 TIP3     5799     TIP3     OH2      OT      -0.834000       15.9994           0
     27312 TIP3     5799     TIP3     H1       HT       0.417000       1.00800           0
     27313 TIP3     5799     TIP3     H2       HT       0.417000       1.00800           0
     27314 TIP3     5800     TIP3     OH2      OT      -0.834000       15.9994           0
     27315 TIP3     5800     TIP3     H1       HT       0.417000       1.00800           0
     27316 TIP3     5800     TIP3     H2       HT       0.417000       1.00800           0
     27317 TIP3     5801     TIP3     OH2      OT      -0.834000       15.9994           0
     27318 TIP3     5801     TIP3     H1       HT       0.417000       1.00800           0
     27319 TIP3     5801     TIP3     H2       HT       0.417000       1.00800           0
     27320 TIP3     5802     TIP3     OH2      OT      -0.834000       15.9994           0
     27321 TIP3     5802     TIP3     H1       HT       0.417000       1.00800           0
     27322 TIP3     5802     TIP3     H2       HT       0.417000       1.00800           0
     27323 TIP3     5803     TIP3     OH2      OT      -0.834000       15.9994           0
     27324 TIP3     5803     TIP3     H1       HT       0.417000       1.00800           0
     27325 TIP3     5803     TIP3     H2       HT       0.417000       1.00800           0
     27326 TIP3     5804     TIP3     OH2      OT      -0.834000       15.9994           0
     27327 TIP3     5804     TIP3     H1       HT       0.417000       1.00800           0
     27328 TIP3     5804     TIP3     H2       HT       0.417000       1.00800           0
     27329 TIP3     5805     TIP3     OH2      OT      -0.834000       15.9994           0
     27330 TIP3     5805     TIP3     H1       HT       0.417000       1.00800           0
     27331 TIP3     5805     TIP3     H2       HT       0.417000       1.00800           0
     27332 TIP3     5806     TIP3     OH2      OT      -0.834000       15.9994           0
     27333 TIP3     5806     TIP3     H1       HT       0.417000       1.00800           0
     27334 TIP3     5806     TIP3     H2       HT       0.417000       1.00800           0
     27335 TIP3     5807     TIP3     OH2      OT      -0.834000       15.9994           0
     27336 TIP3     5807     TIP3     H1       HT       0.417000       1.00800           0
     27337 TIP3     5807     TIP3     H2       HT       0.417000       1.00800           0
     27338 TIP3     5808     TIP3     OH2      OT      -0.834000       15.9994           0
     27339 TIP3     5808     TIP3     H1       HT       0.417000       1.00800           0
     27340 TIP3     5808     TIP3     H2       HT       0.417000       1.00800           0
     27341 TIP3     5809     TIP3     OH2      OT      -0.834000       15.9994           0
     27342 TIP3     5809     TIP3     H1       HT       0.417000       1.00800           0
     27343 TIP3     5809     TIP3     H2       HT       0.417000       1.00800           0
     27344 TIP3     5810     TIP3     OH2      OT      -0.834000       15.9994           0
     27345 TIP3     5810     TIP3     H1       HT       0.417000       1.00800           0
     27346 TIP3     5810     TIP3     H2       HT       0.417000       1.00800           0
     27347 TIP3     5811     TIP3     OH2      OT      -0.834000       15.9994           0
     27348 TIP3     5811     TIP3     H1       HT       0.417000       1.00800           0
     27349 TIP3     5811     TIP3     H2       HT       0.417000       1.00800           0
     27350 TIP3     5812     TIP3     OH2      OT      -0.834000       15.9994           0
     27351 TIP3     5812     TIP3     H1       HT       0.417000       1.00800           0
     27352 TIP3     5812     TIP3     H2       HT       0.417000       1.00800           0
     27353 TIP3     5813     TIP3     OH2      OT      -0.834000       15.9994           0
     27354 TIP3     5813     TIP3     H1       HT       0.417000       1.00800           0
     27355 TIP3     5813     TIP3     H2       HT       0.417000       1.00800           0
     27356 TIP3     5814     TIP3     OH2      OT      -0.834000       15.9994           0
     27357 TIP3     5814     TIP3     H1       HT       0.417000       1.00800           0
     27358 TIP3     5814     TIP3     H2       HT       0.417000       1.00800           0
     27359 TIP3     5815     TIP3     OH2      OT      -0.834000       15.9994           0
     27360 TIP3     5815     TIP3     H1       HT       0.417000       1.00800           0
     27361 TIP3     5815     TIP3     H2       HT       0.417000       1.00800           0
     27362 TIP3     5816     TIP3     OH2      OT      -0.834000       15.9994           0
     27363 TIP3     5816     TIP3     H1       HT       0.417000       1.00800           0
     27364 TIP3     5816     TIP3     H2       HT       0.417000       1.00800           0
     27365 TIP3     5817     TIP3     OH2      OT      -0.834000       15.9994           0
     27366 TIP3     5817     TIP3     H1       HT       0.417000       1.00800           0
     27367 TIP3     5817     TIP3     H2       HT       0.417000       1.00800           0
     27368 TIP3     5818     TIP3     OH2      OT      -0.834000       15.9994           0
     27369 TIP3     5818     TIP3     H1       HT       0.417000       1.00800           0
     27370 TIP3     5818     TIP3     H2       HT       0.417000       1.00800           0
     27371 TIP3     5819     TIP3     OH2      OT      -0.834000       15.9994           0
     27372 TIP3     5819     TIP3     H1       HT       0.417000       1.00800           0
     27373 TIP3     5819     TIP3     H2       HT       0.417000       1.00800           0
     27374 TIP3     5820     TIP3     OH2      OT      -0.834000       15.9994           0
     27375 TIP3     5820     TIP3     H1       HT       0.417000       1.00800           0
     27376 TIP3     5820     TIP3     H2       HT       0.417000       1.00800           0
     27377 TIP3     5821     TIP3     OH2      OT      -0.834000       15.9994           0
     27378 TIP3     5821     TIP3     H1       HT       0.417000       1.00800           0
     27379 TIP3     5821     TIP3     H2       HT       0.417000       1.00800           0
     27380 TIP3     5822     TIP3     OH2      OT      -0.834000       15.9994           0
     27381 TIP3     5822     TIP3     H1       HT       0.417000       1.00800           0
     27382 TIP3     5822     TIP3     H2       HT       0.417000       1.00800           0
     27383 TIP3     5823     TIP3     OH2      OT      -0.834000       15.9994           0
     27384 TIP3     5823     TIP3     H1       HT       0.417000       1.00800           0
     27385 TIP3     5823     TIP3     H2       HT       0.417000       1.00800           0
     27386 TIP3     5824     TIP3     OH2      OT      -0.834000       15.9994           0
     27387 TIP3     5824     TIP3     H1       HT       0.417000       1.00800           0
     27388 TIP3     5824     TIP3     H2       HT       0.417000       1.00800           0
     27389 TIP3     5825     TIP3     OH2      OT      -0.834000       15.9994           0
     27390 TIP3     5825     TIP3     H1       HT       0.417000       1.00800           0
     27391 TIP3     5825     TIP3     H2       HT       0.417000       1.00800           0
     27392 TIP3     5826     TIP3     OH2      OT      -0.834000       15.9994           0
     27393 TIP3     5826     TIP3     H1       HT       0.417000       1.00800           0
     27394 TIP3     5826     TIP3     H2       HT       0.417000       1.00800           0
     27395 TIP3     5827     TIP3     OH2      OT      -0.834000       15.9994           0
     27396 TIP3     5827     TIP3     H1       HT       0.417000       1.00800           0
     27397 TIP3     5827     TIP3     H2       HT       0.417000       1.00800           0
     27398 TIP3     5828     TIP3     OH2      OT      -0.834000       15.9994           0
     27399 TIP3     5828     TIP3     H1       HT       0.417000       1.00800           0
     27400 TIP3     5828     TIP3     H2       HT       0.417000       1.00800           0
     27401 TIP3     5829     TIP3     OH2      OT      -0.834000       15.9994           0
     27402 TIP3     5829     TIP3     H1       HT       0.417000       1.00800           0
     27403 TIP3     5829     TIP3     H2       HT       0.417000       1.00800           0
     27404 TIP3     5830     TIP3     OH2      OT      -0.834000       15.9994           0
     27405 TIP3     5830     TIP3     H1       HT       0.417000       1.00800           0
     27406 TIP3     5830     TIP3     H2       HT       0.417000       1.00800           0
     27407 TIP3     5831     TIP3     OH2      OT      -0.834000       15.9994           0
     27408 TIP3     5831     TIP3     H1       HT       0.417000       1.00800           0
     27409 TIP3     5831     TIP3     H2       HT       0.417000       1.00800           0
     27410 TIP3     5832     TIP3     OH2      OT      -0.834000       15.9994           0
     27411 TIP3     5832     TIP3     H1       HT       0.417000       1.00800           0
     27412 TIP3     5832     TIP3     H2       HT       0.417000       1.00800           0
     27413 TIP3     5833     TIP3     OH2      OT      -0.834000       15.9994           0
     27414 TIP3     5833     TIP3     H1       HT       0.417000       1.00800           0
     27415 TIP3     5833     TIP3     H2       HT       0.417000       1.00800           0
     27416 TIP3     5834     TIP3     OH2      OT      -0.834000       15.9994           0
     27417 TIP3     5834     TIP3     H1       HT       0.417000       1.00800           0
     27418 TIP3     5834     TIP3     H2       HT       0.417000       1.00800           0
     27419 TIP3     5835     TIP3     OH2      OT      -0.834000       15.9994           0
     27420 TIP3     5835     TIP3     H1       HT       0.417000       1.00800           0
     27421 TIP3     5835     TIP3     H2       HT       0.417000       1.00800           0
     27422 TIP3     5836     TIP3     OH2      OT      -0.834000       15.9994           0
     27423 TIP3     5836     TIP3     H1       HT       0.417000       1.00800           0
     27424 TIP3     5836     TIP3     H2       HT       0.417000       1.00800           0
     27425 TIP3     5837     TIP3     OH2      OT      -0.834000       15.9994           0
     27426 TIP3     5837     TIP3     H1       HT       0.417000       1.00800           0
     27427 TIP3     5837     TIP3     H2       HT       0.417000       1.00800           0
     27428 TIP3     5838     TIP3     OH2      OT      -0.834000       15.9994           0
     27429 TIP3     5838     TIP3     H1       HT       0.417000       1.00800           0
     27430 TIP3     5838     TIP3     H2       HT       0.417000       1.00800           0
     27431 TIP3     5839     TIP3     OH2      OT      -0.834000       15.9994           0
     27432 TIP3     5839     TIP3     H1       HT       0.417000       1.00800           0
     27433 TIP3     5839     TIP3     H2       HT       0.417000       1.00800           0
     27434 TIP3     5840     TIP3     OH2      OT      -0.834000       15.9994           0
     27435 TIP3     5840     TIP3     H1       HT       0.417000       1.00800           0
     27436 TIP3     5840     TIP3     H2       HT       0.417000       1.00800           0
     27437 TIP3     5841     TIP3     OH2      OT      -0.834000       15.9994           0
     27438 TIP3     5841     TIP3     H1       HT       0.417000       1.00800           0
     27439 TIP3     5841     TIP3     H2       HT       0.417000       1.00800           0
     27440 TIP3     5842     TIP3     OH2      OT      -0.834000       15.9994           0
     27441 TIP3     5842     TIP3     H1       HT       0.417000       1.00800           0
     27442 TIP3     5842     TIP3     H2       HT       0.417000       1.00800           0
     27443 TIP3     5843     TIP3     OH2      OT      -0.834000       15.9994           0
     27444 TIP3     5843     TIP3     H1       HT       0.417000       1.00800           0
     27445 TIP3     5843     TIP3     H2       HT       0.417000       1.00800           0
     27446 TIP3     5844     TIP3     OH2      OT      -0.834000       15.9994           0
     27447 TIP3     5844     TIP3     H1       HT       0.417000       1.00800           0
     27448 TIP3     5844     TIP3     H2       HT       0.417000       1.00800           0
     27449 TIP3     5845     TIP3     OH2      OT      -0.834000       15.9994           0
     27450 TIP3     5845     TIP3     H1       HT       0.417000       1.00800           0
     27451 TIP3     5845     TIP3     H2       HT       0.417000       1.00800           0
     27452 TIP3     5846     TIP3     OH2      OT      -0.834000       15.9994           0
     27453 TIP3     5846     TIP3     H1       HT       0.417000       1.00800           0
     27454 TIP3     5846     TIP3     H2       HT       0.417000       1.00800           0
     27455 TIP3     5847     TIP3     OH2      OT      -0.834000       15.9994           0
     27456 TIP3     5847     TIP3     H1       HT       0.417000       1.00800           0
     27457 TIP3     5847     TIP3     H2       HT       0.417000       1.00800           0
     27458 TIP3     5848     TIP3     OH2      OT      -0.834000       15.9994           0
     27459 TIP3     5848     TIP3     H1       HT       0.417000       1.00800           0
     27460 TIP3     5848     TIP3     H2       HT       0.417000       1.00800           0
     27461 TIP3     5849     TIP3     OH2      OT      -0.834000       15.9994           0
     27462 TIP3     5849     TIP3     H1       HT       0.417000       1.00800           0
     27463 TIP3     5849     TIP3     H2       HT       0.417000       1.00800           0
     27464 TIP3     5850     TIP3     OH2      OT      -0.834000       15.9994           0
     27465 TIP3     5850     TIP3     H1       HT       0.417000       1.00800           0
     27466 TIP3     5850     TIP3     H2       HT       0.417000       1.00800           0
     27467 TIP3     5851     TIP3     OH2      OT      -0.834000       15.9994           0
     27468 TIP3     5851     TIP3     H1       HT       0.417000       1.00800           0
     27469 TIP3     5851     TIP3     H2       HT       0.417000       1.00800           0
     27470 TIP3     5852     TIP3     OH2      OT      -0.834000       15.9994           0
     27471 TIP3     5852     TIP3     H1       HT       0.417000       1.00800           0
     27472 TIP3     5852     TIP3     H2       HT       0.417000       1.00800           0
     27473 TIP3     5853     TIP3     OH2      OT      -0.834000       15.9994           0
     27474 TIP3     5853     TIP3     H1       HT       0.417000       1.00800           0
     27475 TIP3     5853     TIP3     H2       HT       0.417000       1.00800           0
     27476 TIP3     5854     TIP3     OH2      OT      -0.834000       15.9994           0
     27477 TIP3     5854     TIP3     H1       HT       0.417000       1.00800           0
     27478 TIP3     5854     TIP3     H2       HT       0.417000       1.00800           0
     27479 TIP3     5855     TIP3     OH2      OT      -0.834000       15.9994           0
     27480 TIP3     5855     TIP3     H1       HT       0.417000       1.00800           0
     27481 TIP3     5855     TIP3     H2       HT       0.417000       1.00800           0
     27482 TIP3     5856     TIP3     OH2      OT      -0.834000       15.9994           0
     27483 TIP3     5856     TIP3     H1       HT       0.417000       1.00800           0
     27484 TIP3     5856     TIP3     H2       HT       0.417000       1.00800           0
     27485 TIP3     5857     TIP3     OH2      OT      -0.834000       15.9994           0
     27486 TIP3     5857     TIP3     H1       HT       0.417000       1.00800           0
     27487 TIP3     5857     TIP3     H2       HT       0.417000       1.00800           0
     27488 TIP3     5858     TIP3     OH2      OT      -0.834000       15.9994           0
     27489 TIP3     5858     TIP3     H1       HT       0.417000       1.00800           0
     27490 TIP3     5858     TIP3     H2       HT       0.417000       1.00800           0
     27491 TIP3     5859     TIP3     OH2      OT      -0.834000       15.9994           0
     27492 TIP3     5859     TIP3     H1       HT       0.417000       1.00800           0
     27493 TIP3     5859     TIP3     H2       HT       0.417000       1.00800           0
     27494 TIP3     5860     TIP3     OH2      OT      -0.834000       15.9994           0
     27495 TIP3     5860     TIP3     H1       HT       0.417000       1.00800           0
     27496 TIP3     5860     TIP3     H2       HT       0.417000       1.00800           0
     27497 TIP3     5861     TIP3     OH2      OT      -0.834000       15.9994           0
     27498 TIP3     5861     TIP3     H1       HT       0.417000       1.00800           0
     27499 TIP3     5861     TIP3     H2       HT       0.417000       1.00800           0
     27500 TIP3     5862     TIP3     OH2      OT      -0.834000       15.9994           0
     27501 TIP3     5862     TIP3     H1       HT       0.417000       1.00800           0
     27502 TIP3     5862     TIP3     H2       HT       0.417000       1.00800           0
     27503 TIP3     5863     TIP3     OH2      OT      -0.834000       15.9994           0
     27504 TIP3     5863     TIP3     H1       HT       0.417000       1.00800           0
     27505 TIP3     5863     TIP3     H2       HT       0.417000       1.00800           0
     27506 TIP3     5864     TIP3     OH2      OT      -0.834000       15.9994           0
     27507 TIP3     5864     TIP3     H1       HT       0.417000       1.00800           0
     27508 TIP3     5864     TIP3     H2       HT       0.417000       1.00800           0
     27509 TIP3     5865     TIP3     OH2      OT      -0.834000       15.9994           0
     27510 TIP3     5865     TIP3     H1       HT       0.417000       1.00800           0
     27511 TIP3     5865     TIP3     H2       HT       0.417000       1.00800           0
     27512 TIP3     5866     TIP3     OH2      OT      -0.834000       15.9994           0
     27513 TIP3     5866     TIP3     H1       HT       0.417000       1.00800           0
     27514 TIP3     5866     TIP3     H2       HT       0.417000       1.00800           0
     27515 TIP3     5867     TIP3     OH2      OT      -0.834000       15.9994           0
     27516 TIP3     5867     TIP3     H1       HT       0.417000       1.00800           0
     27517 TIP3     5867     TIP3     H2       HT       0.417000       1.00800           0
     27518 TIP3     5868     TIP3     OH2      OT      -0.834000       15.9994           0
     27519 TIP3     5868     TIP3     H1       HT       0.417000       1.00800           0
     27520 TIP3     5868     TIP3     H2       HT       0.417000       1.00800           0
     27521 TIP3     5869     TIP3     OH2      OT      -0.834000       15.9994           0
     27522 TIP3     5869     TIP3     H1       HT       0.417000       1.00800           0
     27523 TIP3     5869     TIP3     H2       HT       0.417000       1.00800           0
     27524 TIP3     5870     TIP3     OH2      OT      -0.834000       15.9994           0
     27525 TIP3     5870     TIP3     H1       HT       0.417000       1.00800           0
     27526 TIP3     5870     TIP3     H2       HT       0.417000       1.00800           0
     27527 TIP3     5871     TIP3     OH2      OT      -0.834000       15.9994           0
     27528 TIP3     5871     TIP3     H1       HT       0.417000       1.00800           0
     27529 TIP3     5871     TIP3     H2       HT       0.417000       1.00800           0
     27530 TIP3     5872     TIP3     OH2      OT      -0.834000       15.9994           0
     27531 TIP3     5872     TIP3     H1       HT       0.417000       1.00800           0
     27532 TIP3     5872     TIP3     H2       HT       0.417000       1.00800           0
     27533 TIP3     5873     TIP3     OH2      OT      -0.834000       15.9994           0
     27534 TIP3     5873     TIP3     H1       HT       0.417000       1.00800           0
     27535 TIP3     5873     TIP3     H2       HT       0.417000       1.00800           0
     27536 TIP3     5874     TIP3     OH2      OT      -0.834000       15.9994           0
     27537 TIP3     5874     TIP3     H1       HT       0.417000       1.00800           0
     27538 TIP3     5874     TIP3     H2       HT       0.417000       1.00800           0
     27539 TIP3     5875     TIP3     OH2      OT      -0.834000       15.9994           0
     27540 TIP3     5875     TIP3     H1       HT       0.417000       1.00800           0
     27541 TIP3     5875     TIP3     H2       HT       0.417000       1.00800           0
     27542 TIP3     5876     TIP3     OH2      OT      -0.834000       15.9994           0
     27543 TIP3     5876     TIP3     H1       HT       0.417000       1.00800           0
     27544 TIP3     5876     TIP3     H2       HT       0.417000       1.00800           0
     27545 TIP3     5877     TIP3     OH2      OT      -0.834000       15.9994           0
     27546 TIP3     5877     TIP3     H1       HT       0.417000       1.00800           0
     27547 TIP3     5877     TIP3     H2       HT       0.417000       1.00800           0
     27548 TIP3     5878     TIP3     OH2      OT      -0.834000       15.9994           0
     27549 TIP3     5878     TIP3     H1       HT       0.417000       1.00800           0
     27550 TIP3     5878     TIP3     H2       HT       0.417000       1.00800           0
     27551 TIP3     5879     TIP3     OH2      OT      -0.834000       15.9994           0
     27552 TIP3     5879     TIP3     H1       HT       0.417000       1.00800           0
     27553 TIP3     5879     TIP3     H2       HT       0.417000       1.00800           0
     27554 TIP3     5880     TIP3     OH2      OT      -0.834000       15.9994           0
     27555 TIP3     5880     TIP3     H1       HT       0.417000       1.00800           0
     27556 TIP3     5880     TIP3     H2       HT       0.417000       1.00800           0
     27557 TIP3     5881     TIP3     OH2      OT      -0.834000       15.9994           0
     27558 TIP3     5881     TIP3     H1       HT       0.417000       1.00800           0
     27559 TIP3     5881     TIP3     H2       HT       0.417000       1.00800           0
     27560 TIP3     5882     TIP3     OH2      OT      -0.834000       15.9994           0
     27561 TIP3     5882     TIP3     H1       HT       0.417000       1.00800           0
     27562 TIP3     5882     TIP3     H2       HT       0.417000       1.00800           0
     27563 TIP3     5883     TIP3     OH2      OT      -0.834000       15.9994           0
     27564 TIP3     5883     TIP3     H1       HT       0.417000       1.00800           0
     27565 TIP3     5883     TIP3     H2       HT       0.417000       1.00800           0
     27566 TIP3     5884     TIP3     OH2      OT      -0.834000       15.9994           0
     27567 TIP3     5884     TIP3     H1       HT       0.417000       1.00800           0
     27568 TIP3     5884     TIP3     H2       HT       0.417000       1.00800           0
     27569 TIP3     5885     TIP3     OH2      OT      -0.834000       15.9994           0
     27570 TIP3     5885     TIP3     H1       HT       0.417000       1.00800           0
     27571 TIP3     5885     TIP3     H2       HT       0.417000       1.00800           0
     27572 TIP3     5886     TIP3     OH2      OT      -0.834000       15.9994           0
     27573 TIP3     5886     TIP3     H1       HT       0.417000       1.00800           0
     27574 TIP3     5886     TIP3     H2       HT       0.417000       1.00800           0
     27575 TIP3     5887     TIP3     OH2      OT      -0.834000       15.9994           0
     27576 TIP3     5887     TIP3     H1       HT       0.417000       1.00800           0
     27577 TIP3     5887     TIP3     H2       HT       0.417000       1.00800           0
     27578 TIP3     5888     TIP3     OH2      OT      -0.834000       15.9994           0
     27579 TIP3     5888     TIP3     H1       HT       0.417000       1.00800           0
     27580 TIP3     5888     TIP3     H2       HT       0.417000       1.00800           0
     27581 TIP3     5889     TIP3     OH2      OT      -0.834000       15.9994           0
     27582 TIP3     5889     TIP3     H1       HT       0.417000       1.00800           0
     27583 TIP3     5889     TIP3     H2       HT       0.417000       1.00800           0
     27584 TIP3     5890     TIP3     OH2      OT      -0.834000       15.9994           0
     27585 TIP3     5890     TIP3     H1       HT       0.417000       1.00800           0
     27586 TIP3     5890     TIP3     H2       HT       0.417000       1.00800           0
     27587 TIP3     5891     TIP3     OH2      OT      -0.834000       15.9994           0
     27588 TIP3     5891     TIP3     H1       HT       0.417000       1.00800           0
     27589 TIP3     5891     TIP3     H2       HT       0.417000       1.00800           0
     27590 TIP3     5892     TIP3     OH2      OT      -0.834000       15.9994           0
     27591 TIP3     5892     TIP3     H1       HT       0.417000       1.00800           0
     27592 TIP3     5892     TIP3     H2       HT       0.417000       1.00800           0
     27593 TIP3     5893     TIP3     OH2      OT      -0.834000       15.9994           0
     27594 TIP3     5893     TIP3     H1       HT       0.417000       1.00800           0
     27595 TIP3     5893     TIP3     H2       HT       0.417000       1.00800           0
     27596 TIP3     5894     TIP3     OH2      OT      -0.834000       15.9994           0
     27597 TIP3     5894     TIP3     H1       HT       0.417000       1.00800           0
     27598 TIP3     5894     TIP3     H2       HT       0.417000       1.00800           0
     27599 TIP3     5895     TIP3     OH2      OT      -0.834000       15.9994           0
     27600 TIP3     5895     TIP3     H1       HT       0.417000       1.00800           0
     27601 TIP3     5895     TIP3     H2       HT       0.417000       1.00800           0
     27602 TIP3     5896     TIP3     OH2      OT      -0.834000       15.9994           0
     27603 TIP3     5896     TIP3     H1       HT       0.417000       1.00800           0
     27604 TIP3     5896     TIP3     H2       HT       0.417000       1.00800           0
     27605 TIP3     5897     TIP3     OH2      OT      -0.834000       15.9994           0
     27606 TIP3     5897     TIP3     H1       HT       0.417000       1.00800           0
     27607 TIP3     5897     TIP3     H2       HT       0.417000       1.00800           0
     27608 TIP3     5898     TIP3     OH2      OT      -0.834000       15.9994           0
     27609 TIP3     5898     TIP3     H1       HT       0.417000       1.00800           0
     27610 TIP3     5898     TIP3     H2       HT       0.417000       1.00800           0
     27611 TIP3     5899     TIP3     OH2      OT      -0.834000       15.9994           0
     27612 TIP3     5899     TIP3     H1       HT       0.417000       1.00800           0
     27613 TIP3     5899     TIP3     H2       HT       0.417000       1.00800           0
     27614 TIP3     5900     TIP3     OH2      OT      -0.834000       15.9994           0
     27615 TIP3     5900     TIP3     H1       HT       0.417000       1.00800           0
     27616 TIP3     5900     TIP3     H2       HT       0.417000       1.00800           0
     27617 TIP3     5901     TIP3     OH2      OT      -0.834000       15.9994           0
     27618 TIP3     5901     TIP3     H1       HT       0.417000       1.00800           0
     27619 TIP3     5901     TIP3     H2       HT       0.417000       1.00800           0
     27620 TIP3     5902     TIP3     OH2      OT      -0.834000       15.9994           0
     27621 TIP3     5902     TIP3     H1       HT       0.417000       1.00800           0
     27622 TIP3     5902     TIP3     H2       HT       0.417000       1.00800           0
     27623 TIP3     5903     TIP3     OH2      OT      -0.834000       15.9994           0
     27624 TIP3     5903     TIP3     H1       HT       0.417000       1.00800           0
     27625 TIP3     5903     TIP3     H2       HT       0.417000       1.00800           0
     27626 TIP3     5904     TIP3     OH2      OT      -0.834000       15.9994           0
     27627 TIP3     5904     TIP3     H1       HT       0.417000       1.00800           0
     27628 TIP3     5904     TIP3     H2       HT       0.417000       1.00800           0
     27629 TIP3     5905     TIP3     OH2      OT      -0.834000       15.9994           0
     27630 TIP3     5905     TIP3     H1       HT       0.417000       1.00800           0
     27631 TIP3     5905     TIP3     H2       HT       0.417000       1.00800           0
     27632 TIP3     5906     TIP3     OH2      OT      -0.834000       15.9994           0
     27633 TIP3     5906     TIP3     H1       HT       0.417000       1.00800           0
     27634 TIP3     5906     TIP3     H2       HT       0.417000       1.00800           0
     27635 TIP3     5907     TIP3     OH2      OT      -0.834000       15.9994           0
     27636 TIP3     5907     TIP3     H1       HT       0.417000       1.00800           0
     27637 TIP3     5907     TIP3     H2       HT       0.417000       1.00800           0
     27638 TIP3     5908     TIP3     OH2      OT      -0.834000       15.9994           0
     27639 TIP3     5908     TIP3     H1       HT       0.417000       1.00800           0
     27640 TIP3     5908     TIP3     H2       HT       0.417000       1.00800           0
     27641 TIP3     5909     TIP3     OH2      OT      -0.834000       15.9994           0
     27642 TIP3     5909     TIP3     H1       HT       0.417000       1.00800           0
     27643 TIP3     5909     TIP3     H2       HT       0.417000       1.00800           0
     27644 TIP3     5910     TIP3     OH2      OT      -0.834000       15.9994           0
     27645 TIP3     5910     TIP3     H1       HT       0.417000       1.00800           0
     27646 TIP3     5910     TIP3     H2       HT       0.417000       1.00800           0
     27647 TIP3     5911     TIP3     OH2      OT      -0.834000       15.9994           0
     27648 TIP3     5911     TIP3     H1       HT       0.417000       1.00800           0
     27649 TIP3     5911     TIP3     H2       HT       0.417000       1.00800           0
     27650 TIP3     5912     TIP3     OH2      OT      -0.834000       15.9994           0
     27651 TIP3     5912     TIP3     H1       HT       0.417000       1.00800           0
     27652 TIP3     5912     TIP3     H2       HT       0.417000       1.00800           0
     27653 TIP3     5913     TIP3     OH2      OT      -0.834000       15.9994           0
     27654 TIP3     5913     TIP3     H1       HT       0.417000       1.00800           0
     27655 TIP3     5913     TIP3     H2       HT       0.417000       1.00800           0
     27656 TIP3     5914     TIP3     OH2      OT      -0.834000       15.9994           0
     27657 TIP3     5914     TIP3     H1       HT       0.417000       1.00800           0
     27658 TIP3     5914     TIP3     H2       HT       0.417000       1.00800           0
     27659 TIP3     5915     TIP3     OH2      OT      -0.834000       15.9994           0
     27660 TIP3     5915     TIP3     H1       HT       0.417000       1.00800           0
     27661 TIP3     5915     TIP3     H2       HT       0.417000       1.00800           0
     27662 TIP3     5916     TIP3     OH2      OT      -0.834000       15.9994           0
     27663 TIP3     5916     TIP3     H1       HT       0.417000       1.00800           0
     27664 TIP3     5916     TIP3     H2       HT       0.417000       1.00800           0
     27665 TIP3     5917     TIP3     OH2      OT      -0.834000       15.9994           0
     27666 TIP3     5917     TIP3     H1       HT       0.417000       1.00800           0
     27667 TIP3     5917     TIP3     H2       HT       0.417000       1.00800           0
     27668 TIP3     5918     TIP3     OH2      OT      -0.834000       15.9994           0
     27669 TIP3     5918     TIP3     H1       HT       0.417000       1.00800           0
     27670 TIP3     5918     TIP3     H2       HT       0.417000       1.00800           0
     27671 TIP3     5919     TIP3     OH2      OT      -0.834000       15.9994           0
     27672 TIP3     5919     TIP3     H1       HT       0.417000       1.00800           0
     27673 TIP3     5919     TIP3     H2       HT       0.417000       1.00800           0
     27674 TIP3     5920     TIP3     OH2      OT      -0.834000       15.9994           0
     27675 TIP3     5920     TIP3     H1       HT       0.417000       1.00800           0
     27676 TIP3     5920     TIP3     H2       HT       0.417000       1.00800           0
     27677 TIP3     5921     TIP3     OH2      OT      -0.834000       15.9994           0
     27678 TIP3     5921     TIP3     H1       HT       0.417000       1.00800           0
     27679 TIP3     5921     TIP3     H2       HT       0.417000       1.00800           0
     27680 TIP3     5922     TIP3     OH2      OT      -0.834000       15.9994           0
     27681 TIP3     5922     TIP3     H1       HT       0.417000       1.00800           0
     27682 TIP3     5922     TIP3     H2       HT       0.417000       1.00800           0
     27683 TIP3     5923     TIP3     OH2      OT      -0.834000       15.9994           0
     27684 TIP3     5923     TIP3     H1       HT       0.417000       1.00800           0
     27685 TIP3     5923     TIP3     H2       HT       0.417000       1.00800           0
     27686 TIP3     5924     TIP3     OH2      OT      -0.834000       15.9994           0
     27687 TIP3     5924     TIP3     H1       HT       0.417000       1.00800           0
     27688 TIP3     5924     TIP3     H2       HT       0.417000       1.00800           0
     27689 TIP3     5925     TIP3     OH2      OT      -0.834000       15.9994           0
     27690 TIP3     5925     TIP3     H1       HT       0.417000       1.00800           0
     27691 TIP3     5925     TIP3     H2       HT       0.417000       1.00800           0
     27692 TIP3     5926     TIP3     OH2      OT      -0.834000       15.9994           0
     27693 TIP3     5926     TIP3     H1       HT       0.417000       1.00800           0
     27694 TIP3     5926     TIP3     H2       HT       0.417000       1.00800           0
     27695 TIP3     5927     TIP3     OH2      OT      -0.834000       15.9994           0
     27696 TIP3     5927     TIP3     H1       HT       0.417000       1.00800           0
     27697 TIP3     5927     TIP3     H2       HT       0.417000       1.00800           0
     27698 TIP3     5928     TIP3     OH2      OT      -0.834000       15.9994           0
     27699 TIP3     5928     TIP3     H1       HT       0.417000       1.00800           0
     27700 TIP3     5928     TIP3     H2       HT       0.417000       1.00800           0
     27701 TIP3     5929     TIP3     OH2      OT      -0.834000       15.9994           0
     27702 TIP3     5929     TIP3     H1       HT       0.417000       1.00800           0
     27703 TIP3     5929     TIP3     H2       HT       0.417000       1.00800           0
     27704 TIP3     5930     TIP3     OH2      OT      -0.834000       15.9994           0
     27705 TIP3     5930     TIP3     H1       HT       0.417000       1.00800           0
     27706 TIP3     5930     TIP3     H2       HT       0.417000       1.00800           0
     27707 TIP3     5931     TIP3     OH2      OT      -0.834000       15.9994           0
     27708 TIP3     5931     TIP3     H1       HT       0.417000       1.00800           0
     27709 TIP3     5931     TIP3     H2       HT       0.417000       1.00800           0
     27710 TIP3     5932     TIP3     OH2      OT      -0.834000       15.9994           0
     27711 TIP3     5932     TIP3     H1       HT       0.417000       1.00800           0
     27712 TIP3     5932     TIP3     H2       HT       0.417000       1.00800           0
     27713 TIP3     5933     TIP3     OH2      OT      -0.834000       15.9994           0
     27714 TIP3     5933     TIP3     H1       HT       0.417000       1.00800           0
     27715 TIP3     5933     TIP3     H2       HT       0.417000       1.00800           0
     27716 TIP3     5934     TIP3     OH2      OT      -0.834000       15.9994           0
     27717 TIP3     5934     TIP3     H1       HT       0.417000       1.00800           0
     27718 TIP3     5934     TIP3     H2       HT       0.417000       1.00800           0
     27719 TIP3     5935     TIP3     OH2      OT      -0.834000       15.9994           0
     27720 TIP3     5935     TIP3     H1       HT       0.417000       1.00800           0
     27721 TIP3     5935     TIP3     H2       HT       0.417000       1.00800           0
     27722 TIP3     5936     TIP3     OH2      OT      -0.834000       15.9994           0
     27723 TIP3     5936     TIP3     H1       HT       0.417000       1.00800           0
     27724 TIP3     5936     TIP3     H2       HT       0.417000       1.00800           0
     27725 TIP3     5937     TIP3     OH2      OT      -0.834000       15.9994           0
     27726 TIP3     5937     TIP3     H1       HT       0.417000       1.00800           0
     27727 TIP3     5937     TIP3     H2       HT       0.417000       1.00800           0
     27728 TIP3     5938     TIP3     OH2      OT      -0.834000       15.9994           0
     27729 TIP3     5938     TIP3     H1       HT       0.417000       1.00800           0
     27730 TIP3     5938     TIP3     H2       HT       0.417000       1.00800           0
     27731 TIP3     5939     TIP3     OH2      OT      -0.834000       15.9994           0
     27732 TIP3     5939     TIP3     H1       HT       0.417000       1.00800           0
     27733 TIP3     5939     TIP3     H2       HT       0.417000       1.00800           0
     27734 TIP3     5940     TIP3     OH2      OT      -0.834000       15.9994           0
     27735 TIP3     5940     TIP3     H1       HT       0.417000       1.00800           0
     27736 TIP3     5940     TIP3     H2       HT       0.417000       1.00800           0
     27737 TIP3     5941     TIP3     OH2      OT      -0.834000       15.9994           0
     27738 TIP3     5941     TIP3     H1       HT       0.417000       1.00800           0
     27739 TIP3     5941     TIP3     H2       HT       0.417000       1.00800           0
     27740 TIP3     5942     TIP3     OH2      OT      -0.834000       15.9994           0
     27741 TIP3     5942     TIP3     H1       HT       0.417000       1.00800           0
     27742 TIP3     5942     TIP3     H2       HT       0.417000       1.00800           0
     27743 TIP3     5943     TIP3     OH2      OT      -0.834000       15.9994           0
     27744 TIP3     5943     TIP3     H1       HT       0.417000       1.00800           0
     27745 TIP3     5943     TIP3     H2       HT       0.417000       1.00800           0
     27746 TIP3     5944     TIP3     OH2      OT      -0.834000       15.9994           0
     27747 TIP3     5944     TIP3     H1       HT       0.417000       1.00800           0
     27748 TIP3     5944     TIP3     H2       HT       0.417000       1.00800           0
     27749 TIP3     5945     TIP3     OH2      OT      -0.834000       15.9994           0
     27750 TIP3     5945     TIP3     H1       HT       0.417000       1.00800           0
     27751 TIP3     5945     TIP3     H2       HT       0.417000       1.00800           0
     27752 TIP3     5946     TIP3     OH2      OT      -0.834000       15.9994           0
     27753 TIP3     5946     TIP3     H1       HT       0.417000       1.00800           0
     27754 TIP3     5946     TIP3     H2       HT       0.417000       1.00800           0
     27755 TIP3     5947     TIP3     OH2      OT      -0.834000       15.9994           0
     27756 TIP3     5947     TIP3     H1       HT       0.417000       1.00800           0
     27757 TIP3     5947     TIP3     H2       HT       0.417000       1.00800           0
     27758 TIP3     5948     TIP3     OH2      OT      -0.834000       15.9994           0
     27759 TIP3     5948     TIP3     H1       HT       0.417000       1.00800           0
     27760 TIP3     5948     TIP3     H2       HT       0.417000       1.00800           0
     27761 TIP3     5949     TIP3     OH2      OT      -0.834000       15.9994           0
     27762 TIP3     5949     TIP3     H1       HT       0.417000       1.00800           0
     27763 TIP3     5949     TIP3     H2       HT       0.417000       1.00800           0
     27764 TIP3     5950     TIP3     OH2      OT      -0.834000       15.9994           0
     27765 TIP3     5950     TIP3     H1       HT       0.417000       1.00800           0
     27766 TIP3     5950     TIP3     H2       HT       0.417000       1.00800           0
     27767 TIP3     5951     TIP3     OH2      OT      -0.834000       15.9994           0
     27768 TIP3     5951     TIP3     H1       HT       0.417000       1.00800           0
     27769 TIP3     5951     TIP3     H2       HT       0.417000       1.00800           0
     27770 TIP3     5952     TIP3     OH2      OT      -0.834000       15.9994           0
     27771 TIP3     5952     TIP3     H1       HT       0.417000       1.00800           0
     27772 TIP3     5952     TIP3     H2       HT       0.417000       1.00800           0
     27773 TIP3     5953     TIP3     OH2      OT      -0.834000       15.9994           0
     27774 TIP3     5953     TIP3     H1       HT       0.417000       1.00800           0
     27775 TIP3     5953     TIP3     H2       HT       0.417000       1.00800           0
     27776 TIP3     5954     TIP3     OH2      OT      -0.834000       15.9994           0
     27777 TIP3     5954     TIP3     H1       HT       0.417000       1.00800           0
     27778 TIP3     5954     TIP3     H2       HT       0.417000       1.00800           0
     27779 TIP3     5955     TIP3     OH2      OT      -0.834000       15.9994           0
     27780 TIP3     5955     TIP3     H1       HT       0.417000       1.00800           0
     27781 TIP3     5955     TIP3     H2       HT       0.417000       1.00800           0
     27782 TIP3     5956     TIP3     OH2      OT      -0.834000       15.9994           0
     27783 TIP3     5956     TIP3     H1       HT       0.417000       1.00800           0
     27784 TIP3     5956     TIP3     H2       HT       0.417000       1.00800           0
     27785 TIP3     5957     TIP3     OH2      OT      -0.834000       15.9994           0
     27786 TIP3     5957     TIP3     H1       HT       0.417000       1.00800           0
     27787 TIP3     5957     TIP3     H2       HT       0.417000       1.00800           0
     27788 TIP3     5958     TIP3     OH2      OT      -0.834000       15.9994           0
     27789 TIP3     5958     TIP3     H1       HT       0.417000       1.00800           0
     27790 TIP3     5958     TIP3     H2       HT       0.417000       1.00800           0
     27791 TIP3     5959     TIP3     OH2      OT      -0.834000       15.9994           0
     27792 TIP3     5959     TIP3     H1       HT       0.417000       1.00800           0
     27793 TIP3     5959     TIP3     H2       HT       0.417000       1.00800           0
     27794 TIP3     5960     TIP3     OH2      OT      -0.834000       15.9994           0
     27795 TIP3     5960     TIP3     H1       HT       0.417000       1.00800           0
     27796 TIP3     5960     TIP3     H2       HT       0.417000       1.00800           0
     27797 TIP3     5961     TIP3     OH2      OT      -0.834000       15.9994           0
     27798 TIP3     5961     TIP3     H1       HT       0.417000       1.00800           0
     27799 TIP3     5961     TIP3     H2       HT       0.417000       1.00800           0
     27800 TIP3     5962     TIP3     OH2      OT      -0.834000       15.9994           0
     27801 TIP3     5962     TIP3     H1       HT       0.417000       1.00800           0
     27802 TIP3     5962     TIP3     H2       HT       0.417000       1.00800           0
     27803 TIP3     5963     TIP3     OH2      OT      -0.834000       15.9994           0
     27804 TIP3     5963     TIP3     H1       HT       0.417000       1.00800           0
     27805 TIP3     5963     TIP3     H2       HT       0.417000       1.00800           0
     27806 TIP3     5964     TIP3     OH2      OT      -0.834000       15.9994           0
     27807 TIP3     5964     TIP3     H1       HT       0.417000       1.00800           0
     27808 TIP3     5964     TIP3     H2       HT       0.417000       1.00800           0
     27809 TIP3     5965     TIP3     OH2      OT      -0.834000       15.9994           0
     27810 TIP3     5965     TIP3     H1       HT       0.417000       1.00800           0
     27811 TIP3     5965     TIP3     H2       HT       0.417000       1.00800           0
     27812 TIP3     5966     TIP3     OH2      OT      -0.834000       15.9994           0
     27813 TIP3     5966     TIP3     H1       HT       0.417000       1.00800           0
     27814 TIP3     5966     TIP3     H2       HT       0.417000       1.00800           0
     27815 TIP3     5967     TIP3     OH2      OT      -0.834000       15.9994           0
     27816 TIP3     5967     TIP3     H1       HT       0.417000       1.00800           0
     27817 TIP3     5967     TIP3     H2       HT       0.417000       1.00800           0
     27818 TIP3     5968     TIP3     OH2      OT      -0.834000       15.9994           0
     27819 TIP3     5968     TIP3     H1       HT       0.417000       1.00800           0
     27820 TIP3     5968     TIP3     H2       HT       0.417000       1.00800           0
     27821 TIP3     5969     TIP3     OH2      OT      -0.834000       15.9994           0
     27822 TIP3     5969     TIP3     H1       HT       0.417000       1.00800           0
     27823 TIP3     5969     TIP3     H2       HT       0.417000       1.00800           0
     27824 TIP3     5970     TIP3     OH2      OT      -0.834000       15.9994           0
     27825 TIP3     5970     TIP3     H1       HT       0.417000       1.00800           0
     27826 TIP3     5970     TIP3     H2       HT       0.417000       1.00800           0
     27827 TIP3     5971     TIP3     OH2      OT      -0.834000       15.9994           0
     27828 TIP3     5971     TIP3     H1       HT       0.417000       1.00800           0
     27829 TIP3     5971     TIP3     H2       HT       0.417000       1.00800           0
     27830 TIP3     5972     TIP3     OH2      OT      -0.834000       15.9994           0
     27831 TIP3     5972     TIP3     H1       HT       0.417000       1.00800           0
     27832 TIP3     5972     TIP3     H2       HT       0.417000       1.00800           0
     27833 TIP3     5973     TIP3     OH2      OT      -0.834000       15.9994           0
     27834 TIP3     5973     TIP3     H1       HT       0.417000       1.00800           0
     27835 TIP3     5973     TIP3     H2       HT       0.417000       1.00800           0
     27836 TIP3     5974     TIP3     OH2      OT      -0.834000       15.9994           0
     27837 TIP3     5974     TIP3     H1       HT       0.417000       1.00800           0
     27838 TIP3     5974     TIP3     H2       HT       0.417000       1.00800           0
     27839 TIP3     5975     TIP3     OH2      OT      -0.834000       15.9994           0
     27840 TIP3     5975     TIP3     H1       HT       0.417000       1.00800           0
     27841 TIP3     5975     TIP3     H2       HT       0.417000       1.00800           0
     27842 TIP3     5976     TIP3     OH2      OT      -0.834000       15.9994           0
     27843 TIP3     5976     TIP3     H1       HT       0.417000       1.00800           0
     27844 TIP3     5976     TIP3     H2       HT       0.417000       1.00800           0
     27845 TIP3     5977     TIP3     OH2      OT      -0.834000       15.9994           0
     27846 TIP3     5977     TIP3     H1       HT       0.417000       1.00800           0
     27847 TIP3     5977     TIP3     H2       HT       0.417000       1.00800           0
     27848 TIP3     5978     TIP3     OH2      OT      -0.834000       15.9994           0
     27849 TIP3     5978     TIP3     H1       HT       0.417000       1.00800           0
     27850 TIP3     5978     TIP3     H2       HT       0.417000       1.00800           0
     27851 TIP3     5979     TIP3     OH2      OT      -0.834000       15.9994           0
     27852 TIP3     5979     TIP3     H1       HT       0.417000       1.00800           0
     27853 TIP3     5979     TIP3     H2       HT       0.417000       1.00800           0
     27854 TIP3     5980     TIP3     OH2      OT      -0.834000       15.9994           0
     27855 TIP3     5980     TIP3     H1       HT       0.417000       1.00800           0
     27856 TIP3     5980     TIP3     H2       HT       0.417000       1.00800           0
     27857 TIP3     5981     TIP3     OH2      OT      -0.834000       15.9994           0
     27858 TIP3     5981     TIP3     H1       HT       0.417000       1.00800           0
     27859 TIP3     5981     TIP3     H2       HT       0.417000       1.00800           0
     27860 TIP3     5982     TIP3     OH2      OT      -0.834000       15.9994           0
     27861 TIP3     5982     TIP3     H1       HT       0.417000       1.00800           0
     27862 TIP3     5982     TIP3     H2       HT       0.417000       1.00800           0
     27863 TIP3     5983     TIP3     OH2      OT      -0.834000       15.9994           0
     27864 TIP3     5983     TIP3     H1       HT       0.417000       1.00800           0
     27865 TIP3     5983     TIP3     H2       HT       0.417000       1.00800           0
     27866 TIP3     5984     TIP3     OH2      OT      -0.834000       15.9994           0
     27867 TIP3     5984     TIP3     H1       HT       0.417000       1.00800           0
     27868 TIP3     5984     TIP3     H2       HT       0.417000       1.00800           0
     27869 TIP3     5985     TIP3     OH2      OT      -0.834000       15.9994           0
     27870 TIP3     5985     TIP3     H1       HT       0.417000       1.00800           0
     27871 TIP3     5985     TIP3     H2       HT       0.417000       1.00800           0
     27872 TIP3     5986     TIP3     OH2      OT      -0.834000       15.9994           0
     27873 TIP3     5986     TIP3     H1       HT       0.417000       1.00800           0
     27874 TIP3     5986     TIP3     H2       HT       0.417000       1.00800           0
     27875 TIP3     5987     TIP3     OH2      OT      -0.834000       15.9994           0
     27876 TIP3     5987     TIP3     H1       HT       0.417000       1.00800           0
     27877 TIP3     5987     TIP3     H2       HT       0.417000       1.00800           0
     27878 TIP3     5988     TIP3     OH2      OT      -0.834000       15.9994           0
     27879 TIP3     5988     TIP3     H1       HT       0.417000       1.00800           0
     27880 TIP3     5988     TIP3     H2       HT       0.417000       1.00800           0
     27881 TIP3     5989     TIP3     OH2      OT      -0.834000       15.9994           0
     27882 TIP3     5989     TIP3     H1       HT       0.417000       1.00800           0
     27883 TIP3     5989     TIP3     H2       HT       0.417000       1.00800           0
     27884 TIP3     5990     TIP3     OH2      OT      -0.834000       15.9994           0
     27885 TIP3     5990     TIP3     H1       HT       0.417000       1.00800           0
     27886 TIP3     5990     TIP3     H2       HT       0.417000       1.00800           0
     27887 TIP3     5991     TIP3     OH2      OT      -0.834000       15.9994           0
     27888 TIP3     5991     TIP3     H1       HT       0.417000       1.00800           0
     27889 TIP3     5991     TIP3     H2       HT       0.417000       1.00800           0
     27890 TIP3     5992     TIP3     OH2      OT      -0.834000       15.9994           0
     27891 TIP3     5992     TIP3     H1       HT       0.417000       1.00800           0
     27892 TIP3     5992     TIP3     H2       HT       0.417000       1.00800           0
     27893 TIP3     5993     TIP3     OH2      OT      -0.834000       15.9994           0
     27894 TIP3     5993     TIP3     H1       HT       0.417000       1.00800           0
     27895 TIP3     5993     TIP3     H2       HT       0.417000       1.00800           0
     27896 TIP3     5994     TIP3     OH2      OT      -0.834000       15.9994           0
     27897 TIP3     5994     TIP3     H1       HT       0.417000       1.00800           0
     27898 TIP3     5994     TIP3     H2       HT       0.417000       1.00800           0
     27899 TIP3     5995     TIP3     OH2      OT      -0.834000       15.9994           0
     27900 TIP3     5995     TIP3     H1       HT       0.417000       1.00800           0
     27901 TIP3     5995     TIP3     H2       HT       0.417000       1.00800           0
     27902 TIP3     5996     TIP3     OH2      OT      -0.834000       15.9994           0
     27903 TIP3     5996     TIP3     H1       HT       0.417000       1.00800           0
     27904 TIP3     5996     TIP3     H2       HT       0.417000       1.00800           0
     27905 TIP3     5997     TIP3     OH2      OT      -0.834000       15.9994           0
     27906 TIP3     5997     TIP3     H1       HT       0.417000       1.00800           0
     27907 TIP3     5997     TIP3     H2       HT       0.417000       1.00800           0
     27908 TIP3     5998     TIP3     OH2      OT      -0.834000       15.9994           0
     27909 TIP3     5998     TIP3     H1       HT       0.417000       1.00800           0
     27910 TIP3     5998     TIP3     H2       HT       0.417000       1.00800           0
     27911 TIP3     5999     TIP3     OH2      OT      -0.834000       15.9994           0
     27912 TIP3     5999     TIP3     H1       HT       0.417000       1.00800           0
     27913 TIP3     5999     TIP3     H2       HT       0.417000       1.00800           0
     27914 TIP3     6000     TIP3     OH2      OT      -0.834000       15.9994           0
     27915 TIP3     6000     TIP3     H1       HT       0.417000       1.00800           0
     27916 TIP3     6000     TIP3     H2       HT       0.417000       1.00800           0
     27917 TIP3     6001     TIP3     OH2      OT      -0.834000       15.9994           0
     27918 TIP3     6001     TIP3     H1       HT       0.417000       1.00800           0
     27919 TIP3     6001     TIP3     H2       HT       0.417000       1.00800           0
     27920 TIP3     6002     TIP3     OH2      OT      -0.834000       15.9994           0
     27921 TIP3     6002     TIP3     H1       HT       0.417000       1.00800           0
     27922 TIP3     6002     TIP3     H2       HT       0.417000       1.00800           0
     27923 TIP3     6003     TIP3     OH2      OT      -0.834000       15.9994           0
     27924 TIP3     6003     TIP3     H1       HT       0.417000       1.00800           0
     27925 TIP3     6003     TIP3     H2       HT       0.417000       1.00800           0
     27926 TIP3     6004     TIP3     OH2      OT      -0.834000       15.9994           0
     27927 TIP3     6004     TIP3     H1       HT       0.417000       1.00800           0
     27928 TIP3     6004     TIP3     H2       HT       0.417000       1.00800           0
     27929 TIP3     6005     TIP3     OH2      OT      -0.834000       15.9994           0
     27930 TIP3     6005     TIP3     H1       HT       0.417000       1.00800           0
     27931 TIP3     6005     TIP3     H2       HT       0.417000       1.00800           0
     27932 TIP3     6006     TIP3     OH2      OT      -0.834000       15.9994           0
     27933 TIP3     6006     TIP3     H1       HT       0.417000       1.00800           0
     27934 TIP3     6006     TIP3     H2       HT       0.417000       1.00800           0
     27935 TIP3     6007     TIP3     OH2      OT      -0.834000       15.9994           0
     27936 TIP3     6007     TIP3     H1       HT       0.417000       1.00800           0
     27937 TIP3     6007     TIP3     H2       HT       0.417000       1.00800           0
     27938 TIP3     6008     TIP3     OH2      OT      -0.834000       15.9994           0
     27939 TIP3     6008     TIP3     H1       HT       0.417000       1.00800           0
     27940 TIP3     6008     TIP3     H2       HT       0.417000       1.00800           0
     27941 TIP3     6009     TIP3     OH2      OT      -0.834000       15.9994           0
     27942 TIP3     6009     TIP3     H1       HT       0.417000       1.00800           0
     27943 TIP3     6009     TIP3     H2       HT       0.417000       1.00800           0
     27944 TIP3     6010     TIP3     OH2      OT      -0.834000       15.9994           0
     27945 TIP3     6010     TIP3     H1       HT       0.417000       1.00800           0
     27946 TIP3     6010     TIP3     H2       HT       0.417000       1.00800           0
     27947 TIP3     6011     TIP3     OH2      OT      -0.834000       15.9994           0
     27948 TIP3     6011     TIP3     H1       HT       0.417000       1.00800           0
     27949 TIP3     6011     TIP3     H2       HT       0.417000       1.00800           0
     27950 TIP3     6012     TIP3     OH2      OT      -0.834000       15.9994           0
     27951 TIP3     6012     TIP3     H1       HT       0.417000       1.00800           0
     27952 TIP3     6012     TIP3     H2       HT       0.417000       1.00800           0
     27953 TIP3     6013     TIP3     OH2      OT      -0.834000       15.9994           0
     27954 TIP3     6013     TIP3     H1       HT       0.417000       1.00800           0
     27955 TIP3     6013     TIP3     H2       HT       0.417000       1.00800           0
     27956 TIP3     6014     TIP3     OH2      OT      -0.834000       15.9994           0
     27957 TIP3     6014     TIP3     H1       HT       0.417000       1.00800           0
     27958 TIP3     6014     TIP3     H2       HT       0.417000       1.00800           0
     27959 TIP3     6015     TIP3     OH2      OT      -0.834000       15.9994           0
     27960 TIP3     6015     TIP3     H1       HT       0.417000       1.00800           0
     27961 TIP3     6015     TIP3     H2       HT       0.417000       1.00800           0
     27962 TIP3     6016     TIP3     OH2      OT      -0.834000       15.9994           0
     27963 TIP3     6016     TIP3     H1       HT       0.417000       1.00800           0
     27964 TIP3     6016     TIP3     H2       HT       0.417000       1.00800           0
     27965 TIP3     6017     TIP3     OH2      OT      -0.834000       15.9994           0
     27966 TIP3     6017     TIP3     H1       HT       0.417000       1.00800           0
     27967 TIP3     6017     TIP3     H2       HT       0.417000       1.00800           0
     27968 TIP3     6018     TIP3     OH2      OT      -0.834000       15.9994           0
     27969 TIP3     6018     TIP3     H1       HT       0.417000       1.00800           0
     27970 TIP3     6018     TIP3     H2       HT       0.417000       1.00800           0
     27971 TIP3     6019     TIP3     OH2      OT      -0.834000       15.9994           0
     27972 TIP3     6019     TIP3     H1       HT       0.417000       1.00800           0
     27973 TIP3     6019     TIP3     H2       HT       0.417000       1.00800           0
     27974 TIP3     6020     TIP3     OH2      OT      -0.834000       15.9994           0
     27975 TIP3     6020     TIP3     H1       HT       0.417000       1.00800           0
     27976 TIP3     6020     TIP3     H2       HT       0.417000       1.00800           0
     27977 TIP3     6021     TIP3     OH2      OT      -0.834000       15.9994           0
     27978 TIP3     6021     TIP3     H1       HT       0.417000       1.00800           0
     27979 TIP3     6021     TIP3     H2       HT       0.417000       1.00800           0
     27980 TIP3     6022     TIP3     OH2      OT      -0.834000       15.9994           0
     27981 TIP3     6022     TIP3     H1       HT       0.417000       1.00800           0
     27982 TIP3     6022     TIP3     H2       HT       0.417000       1.00800           0
     27983 TIP3     6023     TIP3     OH2      OT      -0.834000       15.9994           0
     27984 TIP3     6023     TIP3     H1       HT       0.417000       1.00800           0
     27985 TIP3     6023     TIP3     H2       HT       0.417000       1.00800           0
     27986 TIP3     6024     TIP3     OH2      OT      -0.834000       15.9994           0
     27987 TIP3     6024     TIP3     H1       HT       0.417000       1.00800           0
     27988 TIP3     6024     TIP3     H2       HT       0.417000       1.00800           0
     27989 TIP3     6025     TIP3     OH2      OT      -0.834000       15.9994           0
     27990 TIP3     6025     TIP3     H1       HT       0.417000       1.00800           0
     27991 TIP3     6025     TIP3     H2       HT       0.417000       1.00800           0
     27992 TIP3     6026     TIP3     OH2      OT      -0.834000       15.9994           0
     27993 TIP3     6026     TIP3     H1       HT       0.417000       1.00800           0
     27994 TIP3     6026     TIP3     H2       HT       0.417000       1.00800           0
     27995 TIP3     6027     TIP3     OH2      OT      -0.834000       15.9994           0
     27996 TIP3     6027     TIP3     H1       HT       0.417000       1.00800           0
     27997 TIP3     6027     TIP3     H2       HT       0.417000       1.00800           0
     27998 TIP3     6028     TIP3     OH2      OT      -0.834000       15.9994           0
     27999 TIP3     6028     TIP3     H1       HT       0.417000       1.00800           0
     28000 TIP3     6028     TIP3     H2       HT       0.417000       1.00800           0
     28001 TIP3     6029     TIP3     OH2      OT      -0.834000       15.9994           0
     28002 TIP3     6029     TIP3     H1       HT       0.417000       1.00800           0
     28003 TIP3     6029     TIP3     H2       HT       0.417000       1.00800           0
     28004 TIP3     6030     TIP3     OH2      OT      -0.834000       15.9994           0
     28005 TIP3     6030     TIP3     H1       HT       0.417000       1.00800           0
     28006 TIP3     6030     TIP3     H2       HT       0.417000       1.00800           0
     28007 TIP3     6031     TIP3     OH2      OT      -0.834000       15.9994           0
     28008 TIP3     6031     TIP3     H1       HT       0.417000       1.00800           0
     28009 TIP3     6031     TIP3     H2       HT       0.417000       1.00800           0
     28010 TIP3     6032     TIP3     OH2      OT      -0.834000       15.9994           0
     28011 TIP3     6032     TIP3     H1       HT       0.417000       1.00800           0
     28012 TIP3     6032     TIP3     H2       HT       0.417000       1.00800           0
     28013 TIP3     6033     TIP3     OH2      OT      -0.834000       15.9994           0
     28014 TIP3     6033     TIP3     H1       HT       0.417000       1.00800           0
     28015 TIP3     6033     TIP3     H2       HT       0.417000       1.00800           0
     28016 TIP3     6034     TIP3     OH2      OT      -0.834000       15.9994           0
     28017 TIP3     6034     TIP3     H1       HT       0.417000       1.00800           0
     28018 TIP3     6034     TIP3     H2       HT       0.417000       1.00800           0
     28019 TIP3     6035     TIP3     OH2      OT      -0.834000       15.9994           0
     28020 TIP3     6035     TIP3     H1       HT       0.417000       1.00800           0
     28021 TIP3     6035     TIP3     H2       HT       0.417000       1.00800           0
     28022 TIP3     6036     TIP3     OH2      OT      -0.834000       15.9994           0
     28023 TIP3     6036     TIP3     H1       HT       0.417000       1.00800           0
     28024 TIP3     6036     TIP3     H2       HT       0.417000       1.00800           0
     28025 TIP3     6037     TIP3     OH2      OT      -0.834000       15.9994           0
     28026 TIP3     6037     TIP3     H1       HT       0.417000       1.00800           0
     28027 TIP3     6037     TIP3     H2       HT       0.417000       1.00800           0
     28028 TIP3     6038     TIP3     OH2      OT      -0.834000       15.9994           0
     28029 TIP3     6038     TIP3     H1       HT       0.417000       1.00800           0
     28030 TIP3     6038     TIP3     H2       HT       0.417000       1.00800           0
     28031 TIP3     6039     TIP3     OH2      OT      -0.834000       15.9994           0
     28032 TIP3     6039     TIP3     H1       HT       0.417000       1.00800           0
     28033 TIP3     6039     TIP3     H2       HT       0.417000       1.00800           0
     28034 TIP3     6040     TIP3     OH2      OT      -0.834000       15.9994           0
     28035 TIP3     6040     TIP3     H1       HT       0.417000       1.00800           0
     28036 TIP3     6040     TIP3     H2       HT       0.417000       1.00800           0
     28037 TIP3     6041     TIP3     OH2      OT      -0.834000       15.9994           0
     28038 TIP3     6041     TIP3     H1       HT       0.417000       1.00800           0
     28039 TIP3     6041     TIP3     H2       HT       0.417000       1.00800           0
     28040 TIP3     6042     TIP3     OH2      OT      -0.834000       15.9994           0
     28041 TIP3     6042     TIP3     H1       HT       0.417000       1.00800           0
     28042 TIP3     6042     TIP3     H2       HT       0.417000       1.00800           0
     28043 TIP3     6043     TIP3     OH2      OT      -0.834000       15.9994           0
     28044 TIP3     6043     TIP3     H1       HT       0.417000       1.00800           0
     28045 TIP3     6043     TIP3     H2       HT       0.417000       1.00800           0
     28046 TIP3     6044     TIP3     OH2      OT      -0.834000       15.9994           0
     28047 TIP3     6044     TIP3     H1       HT       0.417000       1.00800           0
     28048 TIP3     6044     TIP3     H2       HT       0.417000       1.00800           0
     28049 TIP3     6045     TIP3     OH2      OT      -0.834000       15.9994           0
     28050 TIP3     6045     TIP3     H1       HT       0.417000       1.00800           0
     28051 TIP3     6045     TIP3     H2       HT       0.417000       1.00800           0
     28052 TIP3     6046     TIP3     OH2      OT      -0.834000       15.9994           0
     28053 TIP3     6046     TIP3     H1       HT       0.417000       1.00800           0
     28054 TIP3     6046     TIP3     H2       HT       0.417000       1.00800           0
     28055 TIP3     6047     TIP3     OH2      OT      -0.834000       15.9994           0
     28056 TIP3     6047     TIP3     H1       HT       0.417000       1.00800           0
     28057 TIP3     6047     TIP3     H2       HT       0.417000       1.00800           0
     28058 TIP3     6048     TIP3     OH2      OT      -0.834000       15.9994           0
     28059 TIP3     6048     TIP3     H1       HT       0.417000       1.00800           0
     28060 TIP3     6048     TIP3     H2       HT       0.417000       1.00800           0
     28061 TIP3     6049     TIP3     OH2      OT      -0.834000       15.9994           0
     28062 TIP3     6049     TIP3     H1       HT       0.417000       1.00800           0
     28063 TIP3     6049     TIP3     H2       HT       0.417000       1.00800           0
     28064 TIP3     6050     TIP3     OH2      OT      -0.834000       15.9994           0
     28065 TIP3     6050     TIP3     H1       HT       0.417000       1.00800           0
     28066 TIP3     6050     TIP3     H2       HT       0.417000       1.00800           0
     28067 TIP3     6051     TIP3     OH2      OT      -0.834000       15.9994           0
     28068 TIP3     6051     TIP3     H1       HT       0.417000       1.00800           0
     28069 TIP3     6051     TIP3     H2       HT       0.417000       1.00800           0
     28070 TIP3     6052     TIP3     OH2      OT      -0.834000       15.9994           0
     28071 TIP3     6052     TIP3     H1       HT       0.417000       1.00800           0
     28072 TIP3     6052     TIP3     H2       HT       0.417000       1.00800           0
     28073 TIP3     6053     TIP3     OH2      OT      -0.834000       15.9994           0
     28074 TIP3     6053     TIP3     H1       HT       0.417000       1.00800           0
     28075 TIP3     6053     TIP3     H2       HT       0.417000       1.00800           0
     28076 TIP3     6054     TIP3     OH2      OT      -0.834000       15.9994           0
     28077 TIP3     6054     TIP3     H1       HT       0.417000       1.00800           0
     28078 TIP3     6054     TIP3     H2       HT       0.417000       1.00800           0
     28079 TIP3     6055     TIP3     OH2      OT      -0.834000       15.9994           0
     28080 TIP3     6055     TIP3     H1       HT       0.417000       1.00800           0
     28081 TIP3     6055     TIP3     H2       HT       0.417000       1.00800           0
     28082 TIP3     6056     TIP3     OH2      OT      -0.834000       15.9994           0
     28083 TIP3     6056     TIP3     H1       HT       0.417000       1.00800           0
     28084 TIP3     6056     TIP3     H2       HT       0.417000       1.00800           0
     28085 TIP3     6057     TIP3     OH2      OT      -0.834000       15.9994           0
     28086 TIP3     6057     TIP3     H1       HT       0.417000       1.00800           0
     28087 TIP3     6057     TIP3     H2       HT       0.417000       1.00800           0
     28088 TIP3     6058     TIP3     OH2      OT      -0.834000       15.9994           0
     28089 TIP3     6058     TIP3     H1       HT       0.417000       1.00800           0
     28090 TIP3     6058     TIP3     H2       HT       0.417000       1.00800           0
     28091 TIP3     6059     TIP3     OH2      OT      -0.834000       15.9994           0
     28092 TIP3     6059     TIP3     H1       HT       0.417000       1.00800           0
     28093 TIP3     6059     TIP3     H2       HT       0.417000       1.00800           0
     28094 TIP3     6060     TIP3     OH2      OT      -0.834000       15.9994           0
     28095 TIP3     6060     TIP3     H1       HT       0.417000       1.00800           0
     28096 TIP3     6060     TIP3     H2       HT       0.417000       1.00800           0
     28097 TIP3     6061     TIP3     OH2      OT      -0.834000       15.9994           0
     28098 TIP3     6061     TIP3     H1       HT       0.417000       1.00800           0
     28099 TIP3     6061     TIP3     H2       HT       0.417000       1.00800           0
     28100 TIP3     6062     TIP3     OH2      OT      -0.834000       15.9994           0
     28101 TIP3     6062     TIP3     H1       HT       0.417000       1.00800           0
     28102 TIP3     6062     TIP3     H2       HT       0.417000       1.00800           0
     28103 TIP3     6063     TIP3     OH2      OT      -0.834000       15.9994           0
     28104 TIP3     6063     TIP3     H1       HT       0.417000       1.00800           0
     28105 TIP3     6063     TIP3     H2       HT       0.417000       1.00800           0
     28106 TIP3     6064     TIP3     OH2      OT      -0.834000       15.9994           0
     28107 TIP3     6064     TIP3     H1       HT       0.417000       1.00800           0
     28108 TIP3     6064     TIP3     H2       HT       0.417000       1.00800           0
     28109 TIP3     6065     TIP3     OH2      OT      -0.834000       15.9994           0
     28110 TIP3     6065     TIP3     H1       HT       0.417000       1.00800           0
     28111 TIP3     6065     TIP3     H2       HT       0.417000       1.00800           0
     28112 TIP3     6066     TIP3     OH2      OT      -0.834000       15.9994           0
     28113 TIP3     6066     TIP3     H1       HT       0.417000       1.00800           0
     28114 TIP3     6066     TIP3     H2       HT       0.417000       1.00800           0
     28115 TIP3     6067     TIP3     OH2      OT      -0.834000       15.9994           0
     28116 TIP3     6067     TIP3     H1       HT       0.417000       1.00800           0
     28117 TIP3     6067     TIP3     H2       HT       0.417000       1.00800           0
     28118 TIP3     6068     TIP3     OH2      OT      -0.834000       15.9994           0
     28119 TIP3     6068     TIP3     H1       HT       0.417000       1.00800           0
     28120 TIP3     6068     TIP3     H2       HT       0.417000       1.00800           0
     28121 TIP3     6069     TIP3     OH2      OT      -0.834000       15.9994           0
     28122 TIP3     6069     TIP3     H1       HT       0.417000       1.00800           0
     28123 TIP3     6069     TIP3     H2       HT       0.417000       1.00800           0
     28124 TIP3     6070     TIP3     OH2      OT      -0.834000       15.9994           0
     28125 TIP3     6070     TIP3     H1       HT       0.417000       1.00800           0
     28126 TIP3     6070     TIP3     H2       HT       0.417000       1.00800           0
     28127 TIP3     6071     TIP3     OH2      OT      -0.834000       15.9994           0
     28128 TIP3     6071     TIP3     H1       HT       0.417000       1.00800           0
     28129 TIP3     6071     TIP3     H2       HT       0.417000       1.00800           0
     28130 TIP3     6072     TIP3     OH2      OT      -0.834000       15.9994           0
     28131 TIP3     6072     TIP3     H1       HT       0.417000       1.00800           0
     28132 TIP3     6072     TIP3     H2       HT       0.417000       1.00800           0
     28133 TIP3     6073     TIP3     OH2      OT      -0.834000       15.9994           0
     28134 TIP3     6073     TIP3     H1       HT       0.417000       1.00800           0
     28135 TIP3     6073     TIP3     H2       HT       0.417000       1.00800           0
     28136 TIP3     6074     TIP3     OH2      OT      -0.834000       15.9994           0
     28137 TIP3     6074     TIP3     H1       HT       0.417000       1.00800           0
     28138 TIP3     6074     TIP3     H2       HT       0.417000       1.00800           0
     28139 TIP3     6075     TIP3     OH2      OT      -0.834000       15.9994           0
     28140 TIP3     6075     TIP3     H1       HT       0.417000       1.00800           0
     28141 TIP3     6075     TIP3     H2       HT       0.417000       1.00800           0
     28142 TIP3     6076     TIP3     OH2      OT      -0.834000       15.9994           0
     28143 TIP3     6076     TIP3     H1       HT       0.417000       1.00800           0
     28144 TIP3     6076     TIP3     H2       HT       0.417000       1.00800           0
     28145 TIP3     6077     TIP3     OH2      OT      -0.834000       15.9994           0
     28146 TIP3     6077     TIP3     H1       HT       0.417000       1.00800           0
     28147 TIP3     6077     TIP3     H2       HT       0.417000       1.00800           0
     28148 TIP3     6078     TIP3     OH2      OT      -0.834000       15.9994           0
     28149 TIP3     6078     TIP3     H1       HT       0.417000       1.00800           0
     28150 TIP3     6078     TIP3     H2       HT       0.417000       1.00800           0
     28151 TIP3     6079     TIP3     OH2      OT      -0.834000       15.9994           0
     28152 TIP3     6079     TIP3     H1       HT       0.417000       1.00800           0
     28153 TIP3     6079     TIP3     H2       HT       0.417000       1.00800           0
     28154 TIP3     6080     TIP3     OH2      OT      -0.834000       15.9994           0
     28155 TIP3     6080     TIP3     H1       HT       0.417000       1.00800           0
     28156 TIP3     6080     TIP3     H2       HT       0.417000       1.00800           0
     28157 TIP3     6081     TIP3     OH2      OT      -0.834000       15.9994           0
     28158 TIP3     6081     TIP3     H1       HT       0.417000       1.00800           0
     28159 TIP3     6081     TIP3     H2       HT       0.417000       1.00800           0
     28160 TIP3     6082     TIP3     OH2      OT      -0.834000       15.9994           0
     28161 TIP3     6082     TIP3     H1       HT       0.417000       1.00800           0
     28162 TIP3     6082     TIP3     H2       HT       0.417000       1.00800           0
     28163 TIP3     6083     TIP3     OH2      OT      -0.834000       15.9994           0
     28164 TIP3     6083     TIP3     H1       HT       0.417000       1.00800           0
     28165 TIP3     6083     TIP3     H2       HT       0.417000       1.00800           0
     28166 TIP3     6084     TIP3     OH2      OT      -0.834000       15.9994           0
     28167 TIP3     6084     TIP3     H1       HT       0.417000       1.00800           0
     28168 TIP3     6084     TIP3     H2       HT       0.417000       1.00800           0
     28169 TIP3     6085     TIP3     OH2      OT      -0.834000       15.9994           0
     28170 TIP3     6085     TIP3     H1       HT       0.417000       1.00800           0
     28171 TIP3     6085     TIP3     H2       HT       0.417000       1.00800           0
     28172 TIP3     6086     TIP3     OH2      OT      -0.834000       15.9994           0
     28173 TIP3     6086     TIP3     H1       HT       0.417000       1.00800           0
     28174 TIP3     6086     TIP3     H2       HT       0.417000       1.00800           0
     28175 TIP3     6087     TIP3     OH2      OT      -0.834000       15.9994           0
     28176 TIP3     6087     TIP3     H1       HT       0.417000       1.00800           0
     28177 TIP3     6087     TIP3     H2       HT       0.417000       1.00800           0
     28178 TIP3     6088     TIP3     OH2      OT      -0.834000       15.9994           0
     28179 TIP3     6088     TIP3     H1       HT       0.417000       1.00800           0
     28180 TIP3     6088     TIP3     H2       HT       0.417000       1.00800           0
     28181 TIP3     6089     TIP3     OH2      OT      -0.834000       15.9994           0
     28182 TIP3     6089     TIP3     H1       HT       0.417000       1.00800           0
     28183 TIP3     6089     TIP3     H2       HT       0.417000       1.00800           0
     28184 TIP3     6090     TIP3     OH2      OT      -0.834000       15.9994           0
     28185 TIP3     6090     TIP3     H1       HT       0.417000       1.00800           0
     28186 TIP3     6090     TIP3     H2       HT       0.417000       1.00800           0
     28187 TIP3     6091     TIP3     OH2      OT      -0.834000       15.9994           0
     28188 TIP3     6091     TIP3     H1       HT       0.417000       1.00800           0
     28189 TIP3     6091     TIP3     H2       HT       0.417000       1.00800           0
     28190 TIP3     6092     TIP3     OH2      OT      -0.834000       15.9994           0
     28191 TIP3     6092     TIP3     H1       HT       0.417000       1.00800           0
     28192 TIP3     6092     TIP3     H2       HT       0.417000       1.00800           0
     28193 TIP3     6093     TIP3     OH2      OT      -0.834000       15.9994           0
     28194 TIP3     6093     TIP3     H1       HT       0.417000       1.00800           0
     28195 TIP3     6093     TIP3     H2       HT       0.417000       1.00800           0
     28196 TIP3     6094     TIP3     OH2      OT      -0.834000       15.9994           0
     28197 TIP3     6094     TIP3     H1       HT       0.417000       1.00800           0
     28198 TIP3     6094     TIP3     H2       HT       0.417000       1.00800           0
     28199 TIP3     6095     TIP3     OH2      OT      -0.834000       15.9994           0
     28200 TIP3     6095     TIP3     H1       HT       0.417000       1.00800           0
     28201 TIP3     6095     TIP3     H2       HT       0.417000       1.00800           0
     28202 TIP3     6096     TIP3     OH2      OT      -0.834000       15.9994           0
     28203 TIP3     6096     TIP3     H1       HT       0.417000       1.00800           0
     28204 TIP3     6096     TIP3     H2       HT       0.417000       1.00800           0
     28205 TIP3     6097     TIP3     OH2      OT      -0.834000       15.9994           0
     28206 TIP3     6097     TIP3     H1       HT       0.417000       1.00800           0
     28207 TIP3     6097     TIP3     H2       HT       0.417000       1.00800           0
     28208 TIP3     6098     TIP3     OH2      OT      -0.834000       15.9994           0
     28209 TIP3     6098     TIP3     H1       HT       0.417000       1.00800           0
     28210 TIP3     6098     TIP3     H2       HT       0.417000       1.00800           0
     28211 TIP3     6099     TIP3     OH2      OT      -0.834000       15.9994           0
     28212 TIP3     6099     TIP3     H1       HT       0.417000       1.00800           0
     28213 TIP3     6099     TIP3     H2       HT       0.417000       1.00800           0
     28214 TIP3     6100     TIP3     OH2      OT      -0.834000       15.9994           0
     28215 TIP3     6100     TIP3     H1       HT       0.417000       1.00800           0
     28216 TIP3     6100     TIP3     H2       HT       0.417000       1.00800           0
     28217 TIP3     6101     TIP3     OH2      OT      -0.834000       15.9994           0
     28218 TIP3     6101     TIP3     H1       HT       0.417000       1.00800           0
     28219 TIP3     6101     TIP3     H2       HT       0.417000       1.00800           0
     28220 TIP3     6102     TIP3     OH2      OT      -0.834000       15.9994           0
     28221 TIP3     6102     TIP3     H1       HT       0.417000       1.00800           0
     28222 TIP3     6102     TIP3     H2       HT       0.417000       1.00800           0
     28223 TIP3     6103     TIP3     OH2      OT      -0.834000       15.9994           0
     28224 TIP3     6103     TIP3     H1       HT       0.417000       1.00800           0
     28225 TIP3     6103     TIP3     H2       HT       0.417000       1.00800           0
     28226 TIP3     6104     TIP3     OH2      OT      -0.834000       15.9994           0
     28227 TIP3     6104     TIP3     H1       HT       0.417000       1.00800           0
     28228 TIP3     6104     TIP3     H2       HT       0.417000       1.00800           0
     28229 TIP3     6105     TIP3     OH2      OT      -0.834000       15.9994           0
     28230 TIP3     6105     TIP3     H1       HT       0.417000       1.00800           0
     28231 TIP3     6105     TIP3     H2       HT       0.417000       1.00800           0
     28232 TIP3     6106     TIP3     OH2      OT      -0.834000       15.9994           0
     28233 TIP3     6106     TIP3     H1       HT       0.417000       1.00800           0
     28234 TIP3     6106     TIP3     H2       HT       0.417000       1.00800           0
     28235 TIP3     6107     TIP3     OH2      OT      -0.834000       15.9994           0
     28236 TIP3     6107     TIP3     H1       HT       0.417000       1.00800           0
     28237 TIP3     6107     TIP3     H2       HT       0.417000       1.00800           0
     28238 TIP3     6108     TIP3     OH2      OT      -0.834000       15.9994           0
     28239 TIP3     6108     TIP3     H1       HT       0.417000       1.00800           0
     28240 TIP3     6108     TIP3     H2       HT       0.417000       1.00800           0
     28241 TIP3     6109     TIP3     OH2      OT      -0.834000       15.9994           0
     28242 TIP3     6109     TIP3     H1       HT       0.417000       1.00800           0
     28243 TIP3     6109     TIP3     H2       HT       0.417000       1.00800           0
     28244 TIP3     6110     TIP3     OH2      OT      -0.834000       15.9994           0
     28245 TIP3     6110     TIP3     H1       HT       0.417000       1.00800           0
     28246 TIP3     6110     TIP3     H2       HT       0.417000       1.00800           0
     28247 TIP3     6111     TIP3     OH2      OT      -0.834000       15.9994           0
     28248 TIP3     6111     TIP3     H1       HT       0.417000       1.00800           0
     28249 TIP3     6111     TIP3     H2       HT       0.417000       1.00800           0
     28250 TIP3     6112     TIP3     OH2      OT      -0.834000       15.9994           0
     28251 TIP3     6112     TIP3     H1       HT       0.417000       1.00800           0
     28252 TIP3     6112     TIP3     H2       HT       0.417000       1.00800           0
     28253 TIP3     6113     TIP3     OH2      OT      -0.834000       15.9994           0
     28254 TIP3     6113     TIP3     H1       HT       0.417000       1.00800           0
     28255 TIP3     6113     TIP3     H2       HT       0.417000       1.00800           0
     28256 TIP3     6114     TIP3     OH2      OT      -0.834000       15.9994           0
     28257 TIP3     6114     TIP3     H1       HT       0.417000       1.00800           0
     28258 TIP3     6114     TIP3     H2       HT       0.417000       1.00800           0
     28259 TIP3     6115     TIP3     OH2      OT      -0.834000       15.9994           0
     28260 TIP3     6115     TIP3     H1       HT       0.417000       1.00800           0
     28261 TIP3     6115     TIP3     H2       HT       0.417000       1.00800           0
     28262 TIP3     6116     TIP3     OH2      OT      -0.834000       15.9994           0
     28263 TIP3     6116     TIP3     H1       HT       0.417000       1.00800           0
     28264 TIP3     6116     TIP3     H2       HT       0.417000       1.00800           0
     28265 TIP3     6117     TIP3     OH2      OT      -0.834000       15.9994           0
     28266 TIP3     6117     TIP3     H1       HT       0.417000       1.00800           0
     28267 TIP3     6117     TIP3     H2       HT       0.417000       1.00800           0
     28268 TIP3     6118     TIP3     OH2      OT      -0.834000       15.9994           0
     28269 TIP3     6118     TIP3     H1       HT       0.417000       1.00800           0
     28270 TIP3     6118     TIP3     H2       HT       0.417000       1.00800           0
     28271 TIP3     6119     TIP3     OH2      OT      -0.834000       15.9994           0
     28272 TIP3     6119     TIP3     H1       HT       0.417000       1.00800           0
     28273 TIP3     6119     TIP3     H2       HT       0.417000       1.00800           0
     28274 TIP3     6120     TIP3     OH2      OT      -0.834000       15.9994           0
     28275 TIP3     6120     TIP3     H1       HT       0.417000       1.00800           0
     28276 TIP3     6120     TIP3     H2       HT       0.417000       1.00800           0
     28277 TIP3     6121     TIP3     OH2      OT      -0.834000       15.9994           0
     28278 TIP3     6121     TIP3     H1       HT       0.417000       1.00800           0
     28279 TIP3     6121     TIP3     H2       HT       0.417000       1.00800           0
     28280 TIP3     6122     TIP3     OH2      OT      -0.834000       15.9994           0
     28281 TIP3     6122     TIP3     H1       HT       0.417000       1.00800           0
     28282 TIP3     6122     TIP3     H2       HT       0.417000       1.00800           0
     28283 TIP3     6123     TIP3     OH2      OT      -0.834000       15.9994           0
     28284 TIP3     6123     TIP3     H1       HT       0.417000       1.00800           0
     28285 TIP3     6123     TIP3     H2       HT       0.417000       1.00800           0
     28286 TIP3     6124     TIP3     OH2      OT      -0.834000       15.9994           0
     28287 TIP3     6124     TIP3     H1       HT       0.417000       1.00800           0
     28288 TIP3     6124     TIP3     H2       HT       0.417000       1.00800           0
     28289 TIP3     6125     TIP3     OH2      OT      -0.834000       15.9994           0
     28290 TIP3     6125     TIP3     H1       HT       0.417000       1.00800           0
     28291 TIP3     6125     TIP3     H2       HT       0.417000       1.00800           0
     28292 TIP3     6126     TIP3     OH2      OT      -0.834000       15.9994           0
     28293 TIP3     6126     TIP3     H1       HT       0.417000       1.00800           0
     28294 TIP3     6126     TIP3     H2       HT       0.417000       1.00800           0
     28295 TIP3     6127     TIP3     OH2      OT      -0.834000       15.9994           0
     28296 TIP3     6127     TIP3     H1       HT       0.417000       1.00800           0
     28297 TIP3     6127     TIP3     H2       HT       0.417000       1.00800           0
     28298 TIP3     6128     TIP3     OH2      OT      -0.834000       15.9994           0
     28299 TIP3     6128     TIP3     H1       HT       0.417000       1.00800           0
     28300 TIP3     6128     TIP3     H2       HT       0.417000       1.00800           0
     28301 TIP3     6129     TIP3     OH2      OT      -0.834000       15.9994           0
     28302 TIP3     6129     TIP3     H1       HT       0.417000       1.00800           0
     28303 TIP3     6129     TIP3     H2       HT       0.417000       1.00800           0
     28304 TIP3     6130     TIP3     OH2      OT      -0.834000       15.9994           0
     28305 TIP3     6130     TIP3     H1       HT       0.417000       1.00800           0
     28306 TIP3     6130     TIP3     H2       HT       0.417000       1.00800           0
     28307 TIP3     6131     TIP3     OH2      OT      -0.834000       15.9994           0
     28308 TIP3     6131     TIP3     H1       HT       0.417000       1.00800           0
     28309 TIP3     6131     TIP3     H2       HT       0.417000       1.00800           0
     28310 TIP3     6132     TIP3     OH2      OT      -0.834000       15.9994           0
     28311 TIP3     6132     TIP3     H1       HT       0.417000       1.00800           0
     28312 TIP3     6132     TIP3     H2       HT       0.417000       1.00800           0
     28313 TIP3     6133     TIP3     OH2      OT      -0.834000       15.9994           0
     28314 TIP3     6133     TIP3     H1       HT       0.417000       1.00800           0
     28315 TIP3     6133     TIP3     H2       HT       0.417000       1.00800           0
     28316 TIP3     6134     TIP3     OH2      OT      -0.834000       15.9994           0
     28317 TIP3     6134     TIP3     H1       HT       0.417000       1.00800           0
     28318 TIP3     6134     TIP3     H2       HT       0.417000       1.00800           0
     28319 TIP3     6135     TIP3     OH2      OT      -0.834000       15.9994           0
     28320 TIP3     6135     TIP3     H1       HT       0.417000       1.00800           0
     28321 TIP3     6135     TIP3     H2       HT       0.417000       1.00800           0
     28322 TIP3     6136     TIP3     OH2      OT      -0.834000       15.9994           0
     28323 TIP3     6136     TIP3     H1       HT       0.417000       1.00800           0
     28324 TIP3     6136     TIP3     H2       HT       0.417000       1.00800           0
     28325 TIP3     6137     TIP3     OH2      OT      -0.834000       15.9994           0
     28326 TIP3     6137     TIP3     H1       HT       0.417000       1.00800           0
     28327 TIP3     6137     TIP3     H2       HT       0.417000       1.00800           0
     28328 TIP3     6138     TIP3     OH2      OT      -0.834000       15.9994           0
     28329 TIP3     6138     TIP3     H1       HT       0.417000       1.00800           0
     28330 TIP3     6138     TIP3     H2       HT       0.417000       1.00800           0
     28331 TIP3     6139     TIP3     OH2      OT      -0.834000       15.9994           0
     28332 TIP3     6139     TIP3     H1       HT       0.417000       1.00800           0
     28333 TIP3     6139     TIP3     H2       HT       0.417000       1.00800           0
     28334 TIP3     6140     TIP3     OH2      OT      -0.834000       15.9994           0
     28335 TIP3     6140     TIP3     H1       HT       0.417000       1.00800           0
     28336 TIP3     6140     TIP3     H2       HT       0.417000       1.00800           0
     28337 TIP3     6141     TIP3     OH2      OT      -0.834000       15.9994           0
     28338 TIP3     6141     TIP3     H1       HT       0.417000       1.00800           0
     28339 TIP3     6141     TIP3     H2       HT       0.417000       1.00800           0
     28340 TIP3     6142     TIP3     OH2      OT      -0.834000       15.9994           0
     28341 TIP3     6142     TIP3     H1       HT       0.417000       1.00800           0
     28342 TIP3     6142     TIP3     H2       HT       0.417000       1.00800           0
     28343 TIP3     6143     TIP3     OH2      OT      -0.834000       15.9994           0
     28344 TIP3     6143     TIP3     H1       HT       0.417000       1.00800           0
     28345 TIP3     6143     TIP3     H2       HT       0.417000       1.00800           0
     28346 TIP3     6144     TIP3     OH2      OT      -0.834000       15.9994           0
     28347 TIP3     6144     TIP3     H1       HT       0.417000       1.00800           0
     28348 TIP3     6144     TIP3     H2       HT       0.417000       1.00800           0
     28349 TIP3     6145     TIP3     OH2      OT      -0.834000       15.9994           0
     28350 TIP3     6145     TIP3     H1       HT       0.417000       1.00800           0
     28351 TIP3     6145     TIP3     H2       HT       0.417000       1.00800           0
     28352 TIP3     6146     TIP3     OH2      OT      -0.834000       15.9994           0
     28353 TIP3     6146     TIP3     H1       HT       0.417000       1.00800           0
     28354 TIP3     6146     TIP3     H2       HT       0.417000       1.00800           0
     28355 TIP3     6147     TIP3     OH2      OT      -0.834000       15.9994           0
     28356 TIP3     6147     TIP3     H1       HT       0.417000       1.00800           0
     28357 TIP3     6147     TIP3     H2       HT       0.417000       1.00800           0
     28358 TIP3     6148     TIP3     OH2      OT      -0.834000       15.9994           0
     28359 TIP3     6148     TIP3     H1       HT       0.417000       1.00800           0
     28360 TIP3     6148     TIP3     H2       HT       0.417000       1.00800           0
     28361 TIP3     6149     TIP3     OH2      OT      -0.834000       15.9994           0
     28362 TIP3     6149     TIP3     H1       HT       0.417000       1.00800           0
     28363 TIP3     6149     TIP3     H2       HT       0.417000       1.00800           0
     28364 TIP3     6150     TIP3     OH2      OT      -0.834000       15.9994           0
     28365 TIP3     6150     TIP3     H1       HT       0.417000       1.00800           0
     28366 TIP3     6150     TIP3     H2       HT       0.417000       1.00800           0
     28367 TIP3     6151     TIP3     OH2      OT      -0.834000       15.9994           0
     28368 TIP3     6151     TIP3     H1       HT       0.417000       1.00800           0
     28369 TIP3     6151     TIP3     H2       HT       0.417000       1.00800           0
     28370 TIP3     6152     TIP3     OH2      OT      -0.834000       15.9994           0
     28371 TIP3     6152     TIP3     H1       HT       0.417000       1.00800           0
     28372 TIP3     6152     TIP3     H2       HT       0.417000       1.00800           0
     28373 TIP3     6153     TIP3     OH2      OT      -0.834000       15.9994           0
     28374 TIP3     6153     TIP3     H1       HT       0.417000       1.00800           0
     28375 TIP3     6153     TIP3     H2       HT       0.417000       1.00800           0
     28376 TIP3     6154     TIP3     OH2      OT      -0.834000       15.9994           0
     28377 TIP3     6154     TIP3     H1       HT       0.417000       1.00800           0
     28378 TIP3     6154     TIP3     H2       HT       0.417000       1.00800           0
     28379 TIP3     6155     TIP3     OH2      OT      -0.834000       15.9994           0
     28380 TIP3     6155     TIP3     H1       HT       0.417000       1.00800           0
     28381 TIP3     6155     TIP3     H2       HT       0.417000       1.00800           0
     28382 TIP3     6156     TIP3     OH2      OT      -0.834000       15.9994           0
     28383 TIP3     6156     TIP3     H1       HT       0.417000       1.00800           0
     28384 TIP3     6156     TIP3     H2       HT       0.417000       1.00800           0
     28385 TIP3     6157     TIP3     OH2      OT      -0.834000       15.9994           0
     28386 TIP3     6157     TIP3     H1       HT       0.417000       1.00800           0
     28387 TIP3     6157     TIP3     H2       HT       0.417000       1.00800           0
     28388 TIP3     6158     TIP3     OH2      OT      -0.834000       15.9994           0
     28389 TIP3     6158     TIP3     H1       HT       0.417000       1.00800           0
     28390 TIP3     6158     TIP3     H2       HT       0.417000       1.00800           0
     28391 TIP3     6159     TIP3     OH2      OT      -0.834000       15.9994           0
     28392 TIP3     6159     TIP3     H1       HT       0.417000       1.00800           0
     28393 TIP3     6159     TIP3     H2       HT       0.417000       1.00800           0
     28394 TIP3     6160     TIP3     OH2      OT      -0.834000       15.9994           0
     28395 TIP3     6160     TIP3     H1       HT       0.417000       1.00800           0
     28396 TIP3     6160     TIP3     H2       HT       0.417000       1.00800           0
     28397 TIP3     6161     TIP3     OH2      OT      -0.834000       15.9994           0
     28398 TIP3     6161     TIP3     H1       HT       0.417000       1.00800           0
     28399 TIP3     6161     TIP3     H2       HT       0.417000       1.00800           0
     28400 TIP3     6162     TIP3     OH2      OT      -0.834000       15.9994           0
     28401 TIP3     6162     TIP3     H1       HT       0.417000       1.00800           0
     28402 TIP3     6162     TIP3     H2       HT       0.417000       1.00800           0
     28403 TIP3     6163     TIP3     OH2      OT      -0.834000       15.9994           0
     28404 TIP3     6163     TIP3     H1       HT       0.417000       1.00800           0
     28405 TIP3     6163     TIP3     H2       HT       0.417000       1.00800           0
     28406 TIP3     6164     TIP3     OH2      OT      -0.834000       15.9994           0
     28407 TIP3     6164     TIP3     H1       HT       0.417000       1.00800           0
     28408 TIP3     6164     TIP3     H2       HT       0.417000       1.00800           0
     28409 TIP3     6165     TIP3     OH2      OT      -0.834000       15.9994           0
     28410 TIP3     6165     TIP3     H1       HT       0.417000       1.00800           0
     28411 TIP3     6165     TIP3     H2       HT       0.417000       1.00800           0
     28412 TIP3     6166     TIP3     OH2      OT      -0.834000       15.9994           0
     28413 TIP3     6166     TIP3     H1       HT       0.417000       1.00800           0
     28414 TIP3     6166     TIP3     H2       HT       0.417000       1.00800           0
     28415 TIP3     6167     TIP3     OH2      OT      -0.834000       15.9994           0
     28416 TIP3     6167     TIP3     H1       HT       0.417000       1.00800           0
     28417 TIP3     6167     TIP3     H2       HT       0.417000       1.00800           0
     28418 TIP3     6168     TIP3     OH2      OT      -0.834000       15.9994           0
     28419 TIP3     6168     TIP3     H1       HT       0.417000       1.00800           0
     28420 TIP3     6168     TIP3     H2       HT       0.417000       1.00800           0
     28421 TIP3     6169     TIP3     OH2      OT      -0.834000       15.9994           0
     28422 TIP3     6169     TIP3     H1       HT       0.417000       1.00800           0
     28423 TIP3     6169     TIP3     H2       HT       0.417000       1.00800           0
     28424 TIP3     6170     TIP3     OH2      OT      -0.834000       15.9994           0
     28425 TIP3     6170     TIP3     H1       HT       0.417000       1.00800           0
     28426 TIP3     6170     TIP3     H2       HT       0.417000       1.00800           0
     28427 TIP3     6171     TIP3     OH2      OT      -0.834000       15.9994           0
     28428 TIP3     6171     TIP3     H1       HT       0.417000       1.00800           0
     28429 TIP3     6171     TIP3     H2       HT       0.417000       1.00800           0
     28430 TIP3     6172     TIP3     OH2      OT      -0.834000       15.9994           0
     28431 TIP3     6172     TIP3     H1       HT       0.417000       1.00800           0
     28432 TIP3     6172     TIP3     H2       HT       0.417000       1.00800           0
     28433 TIP3     6173     TIP3     OH2      OT      -0.834000       15.9994           0
     28434 TIP3     6173     TIP3     H1       HT       0.417000       1.00800           0
     28435 TIP3     6173     TIP3     H2       HT       0.417000       1.00800           0
     28436 TIP3     6174     TIP3     OH2      OT      -0.834000       15.9994           0
     28437 TIP3     6174     TIP3     H1       HT       0.417000       1.00800           0
     28438 TIP3     6174     TIP3     H2       HT       0.417000       1.00800           0
     28439 TIP3     6175     TIP3     OH2      OT      -0.834000       15.9994           0
     28440 TIP3     6175     TIP3     H1       HT       0.417000       1.00800           0
     28441 TIP3     6175     TIP3     H2       HT       0.417000       1.00800           0
     28442 TIP3     6176     TIP3     OH2      OT      -0.834000       15.9994           0
     28443 TIP3     6176     TIP3     H1       HT       0.417000       1.00800           0
     28444 TIP3     6176     TIP3     H2       HT       0.417000       1.00800           0
     28445 TIP3     6177     TIP3     OH2      OT      -0.834000       15.9994           0
     28446 TIP3     6177     TIP3     H1       HT       0.417000       1.00800           0
     28447 TIP3     6177     TIP3     H2       HT       0.417000       1.00800           0
     28448 TIP3     6178     TIP3     OH2      OT      -0.834000       15.9994           0
     28449 TIP3     6178     TIP3     H1       HT       0.417000       1.00800           0
     28450 TIP3     6178     TIP3     H2       HT       0.417000       1.00800           0
     28451 TIP3     6179     TIP3     OH2      OT      -0.834000       15.9994           0
     28452 TIP3     6179     TIP3     H1       HT       0.417000       1.00800           0
     28453 TIP3     6179     TIP3     H2       HT       0.417000       1.00800           0
     28454 TIP3     6180     TIP3     OH2      OT      -0.834000       15.9994           0
     28455 TIP3     6180     TIP3     H1       HT       0.417000       1.00800           0
     28456 TIP3     6180     TIP3     H2       HT       0.417000       1.00800           0
     28457 TIP3     6181     TIP3     OH2      OT      -0.834000       15.9994           0
     28458 TIP3     6181     TIP3     H1       HT       0.417000       1.00800           0
     28459 TIP3     6181     TIP3     H2       HT       0.417000       1.00800           0
     28460 TIP3     6182     TIP3     OH2      OT      -0.834000       15.9994           0
     28461 TIP3     6182     TIP3     H1       HT       0.417000       1.00800           0
     28462 TIP3     6182     TIP3     H2       HT       0.417000       1.00800           0
     28463 TIP3     6183     TIP3     OH2      OT      -0.834000       15.9994           0
     28464 TIP3     6183     TIP3     H1       HT       0.417000       1.00800           0
     28465 TIP3     6183     TIP3     H2       HT       0.417000       1.00800           0
     28466 TIP3     6184     TIP3     OH2      OT      -0.834000       15.9994           0
     28467 TIP3     6184     TIP3     H1       HT       0.417000       1.00800           0
     28468 TIP3     6184     TIP3     H2       HT       0.417000       1.00800           0
     28469 TIP3     6185     TIP3     OH2      OT      -0.834000       15.9994           0
     28470 TIP3     6185     TIP3     H1       HT       0.417000       1.00800           0
     28471 TIP3     6185     TIP3     H2       HT       0.417000       1.00800           0
     28472 TIP3     6186     TIP3     OH2      OT      -0.834000       15.9994           0
     28473 TIP3     6186     TIP3     H1       HT       0.417000       1.00800           0
     28474 TIP3     6186     TIP3     H2       HT       0.417000       1.00800           0
     28475 TIP3     6187     TIP3     OH2      OT      -0.834000       15.9994           0
     28476 TIP3     6187     TIP3     H1       HT       0.417000       1.00800           0
     28477 TIP3     6187     TIP3     H2       HT       0.417000       1.00800           0
     28478 TIP3     6188     TIP3     OH2      OT      -0.834000       15.9994           0
     28479 TIP3     6188     TIP3     H1       HT       0.417000       1.00800           0
     28480 TIP3     6188     TIP3     H2       HT       0.417000       1.00800           0
     28481 TIP3     6189     TIP3     OH2      OT      -0.834000       15.9994           0
     28482 TIP3     6189     TIP3     H1       HT       0.417000       1.00800           0
     28483 TIP3     6189     TIP3     H2       HT       0.417000       1.00800           0
     28484 TIP3     6190     TIP3     OH2      OT      -0.834000       15.9994           0
     28485 TIP3     6190     TIP3     H1       HT       0.417000       1.00800           0
     28486 TIP3     6190     TIP3     H2       HT       0.417000       1.00800           0
     28487 TIP3     6191     TIP3     OH2      OT      -0.834000       15.9994           0
     28488 TIP3     6191     TIP3     H1       HT       0.417000       1.00800           0
     28489 TIP3     6191     TIP3     H2       HT       0.417000       1.00800           0
     28490 TIP3     6192     TIP3     OH2      OT      -0.834000       15.9994           0
     28491 TIP3     6192     TIP3     H1       HT       0.417000       1.00800           0
     28492 TIP3     6192     TIP3     H2       HT       0.417000       1.00800           0
     28493 TIP3     6193     TIP3     OH2      OT      -0.834000       15.9994           0
     28494 TIP3     6193     TIP3     H1       HT       0.417000       1.00800           0
     28495 TIP3     6193     TIP3     H2       HT       0.417000       1.00800           0
     28496 TIP3     6194     TIP3     OH2      OT      -0.834000       15.9994           0
     28497 TIP3     6194     TIP3     H1       HT       0.417000       1.00800           0
     28498 TIP3     6194     TIP3     H2       HT       0.417000       1.00800           0
     28499 TIP3     6195     TIP3     OH2      OT      -0.834000       15.9994           0
     28500 TIP3     6195     TIP3     H1       HT       0.417000       1.00800           0
     28501 TIP3     6195     TIP3     H2       HT       0.417000       1.00800           0
     28502 TIP3     6196     TIP3     OH2      OT      -0.834000       15.9994           0
     28503 TIP3     6196     TIP3     H1       HT       0.417000       1.00800           0
     28504 TIP3     6196     TIP3     H2       HT       0.417000       1.00800           0
     28505 TIP3     6197     TIP3     OH2      OT      -0.834000       15.9994           0
     28506 TIP3     6197     TIP3     H1       HT       0.417000       1.00800           0
     28507 TIP3     6197     TIP3     H2       HT       0.417000       1.00800           0
     28508 TIP3     6198     TIP3     OH2      OT      -0.834000       15.9994           0
     28509 TIP3     6198     TIP3     H1       HT       0.417000       1.00800           0
     28510 TIP3     6198     TIP3     H2       HT       0.417000       1.00800           0
     28511 TIP3     6199     TIP3     OH2      OT      -0.834000       15.9994           0
     28512 TIP3     6199     TIP3     H1       HT       0.417000       1.00800           0
     28513 TIP3     6199     TIP3     H2       HT       0.417000       1.00800           0
     28514 TIP3     6200     TIP3     OH2      OT      -0.834000       15.9994           0
     28515 TIP3     6200     TIP3     H1       HT       0.417000       1.00800           0
     28516 TIP3     6200     TIP3     H2       HT       0.417000       1.00800           0
     28517 TIP3     6201     TIP3     OH2      OT      -0.834000       15.9994           0
     28518 TIP3     6201     TIP3     H1       HT       0.417000       1.00800           0
     28519 TIP3     6201     TIP3     H2       HT       0.417000       1.00800           0
     28520 TIP3     6202     TIP3     OH2      OT      -0.834000       15.9994           0
     28521 TIP3     6202     TIP3     H1       HT       0.417000       1.00800           0
     28522 TIP3     6202     TIP3     H2       HT       0.417000       1.00800           0
     28523 TIP3     6203     TIP3     OH2      OT      -0.834000       15.9994           0
     28524 TIP3     6203     TIP3     H1       HT       0.417000       1.00800           0
     28525 TIP3     6203     TIP3     H2       HT       0.417000       1.00800           0
     28526 TIP3     6204     TIP3     OH2      OT      -0.834000       15.9994           0
     28527 TIP3     6204     TIP3     H1       HT       0.417000       1.00800           0
     28528 TIP3     6204     TIP3     H2       HT       0.417000       1.00800           0
     28529 TIP3     6205     TIP3     OH2      OT      -0.834000       15.9994           0
     28530 TIP3     6205     TIP3     H1       HT       0.417000       1.00800           0
     28531 TIP3     6205     TIP3     H2       HT       0.417000       1.00800           0
     28532 TIP3     6206     TIP3     OH2      OT      -0.834000       15.9994           0
     28533 TIP3     6206     TIP3     H1       HT       0.417000       1.00800           0
     28534 TIP3     6206     TIP3     H2       HT       0.417000       1.00800           0
     28535 TIP3     6207     TIP3     OH2      OT      -0.834000       15.9994           0
     28536 TIP3     6207     TIP3     H1       HT       0.417000       1.00800           0
     28537 TIP3     6207     TIP3     H2       HT       0.417000       1.00800           0
     28538 TIP3     6208     TIP3     OH2      OT      -0.834000       15.9994           0
     28539 TIP3     6208     TIP3     H1       HT       0.417000       1.00800           0
     28540 TIP3     6208     TIP3     H2       HT       0.417000       1.00800           0
     28541 TIP3     6209     TIP3     OH2      OT      -0.834000       15.9994           0
     28542 TIP3     6209     TIP3     H1       HT       0.417000       1.00800           0
     28543 TIP3     6209     TIP3     H2       HT       0.417000       1.00800           0
     28544 TIP3     6210     TIP3     OH2      OT      -0.834000       15.9994           0
     28545 TIP3     6210     TIP3     H1       HT       0.417000       1.00800           0
     28546 TIP3     6210     TIP3     H2       HT       0.417000       1.00800           0
     28547 TIP3     6211     TIP3     OH2      OT      -0.834000       15.9994           0
     28548 TIP3     6211     TIP3     H1       HT       0.417000       1.00800           0
     28549 TIP3     6211     TIP3     H2       HT       0.417000       1.00800           0
     28550 TIP3     6212     TIP3     OH2      OT      -0.834000       15.9994           0
     28551 TIP3     6212     TIP3     H1       HT       0.417000       1.00800           0
     28552 TIP3     6212     TIP3     H2       HT       0.417000       1.00800           0
     28553 TIP3     6213     TIP3     OH2      OT      -0.834000       15.9994           0
     28554 TIP3     6213     TIP3     H1       HT       0.417000       1.00800           0
     28555 TIP3     6213     TIP3     H2       HT       0.417000       1.00800           0
     28556 TIP3     6214     TIP3     OH2      OT      -0.834000       15.9994           0
     28557 TIP3     6214     TIP3     H1       HT       0.417000       1.00800           0
     28558 TIP3     6214     TIP3     H2       HT       0.417000       1.00800           0
     28559 TIP3     6215     TIP3     OH2      OT      -0.834000       15.9994           0
     28560 TIP3     6215     TIP3     H1       HT       0.417000       1.00800           0
     28561 TIP3     6215     TIP3     H2       HT       0.417000       1.00800           0
     28562 TIP3     6216     TIP3     OH2      OT      -0.834000       15.9994           0
     28563 TIP3     6216     TIP3     H1       HT       0.417000       1.00800           0
     28564 TIP3     6216     TIP3     H2       HT       0.417000       1.00800           0
     28565 TIP3     6217     TIP3     OH2      OT      -0.834000       15.9994           0
     28566 TIP3     6217     TIP3     H1       HT       0.417000       1.00800           0
     28567 TIP3     6217     TIP3     H2       HT       0.417000       1.00800           0
     28568 TIP3     6218     TIP3     OH2      OT      -0.834000       15.9994           0
     28569 TIP3     6218     TIP3     H1       HT       0.417000       1.00800           0
     28570 TIP3     6218     TIP3     H2       HT       0.417000       1.00800           0
     28571 TIP3     6219     TIP3     OH2      OT      -0.834000       15.9994           0
     28572 TIP3     6219     TIP3     H1       HT       0.417000       1.00800           0
     28573 TIP3     6219     TIP3     H2       HT       0.417000       1.00800           0
     28574 TIP3     6220     TIP3     OH2      OT      -0.834000       15.9994           0
     28575 TIP3     6220     TIP3     H1       HT       0.417000       1.00800           0
     28576 TIP3     6220     TIP3     H2       HT       0.417000       1.00800           0
     28577 TIP3     6221     TIP3     OH2      OT      -0.834000       15.9994           0
     28578 TIP3     6221     TIP3     H1       HT       0.417000       1.00800           0
     28579 TIP3     6221     TIP3     H2       HT       0.417000       1.00800           0
     28580 TIP3     6222     TIP3     OH2      OT      -0.834000       15.9994           0
     28581 TIP3     6222     TIP3     H1       HT       0.417000       1.00800           0
     28582 TIP3     6222     TIP3     H2       HT       0.417000       1.00800           0
     28583 TIP3     6223     TIP3     OH2      OT      -0.834000       15.9994           0
     28584 TIP3     6223     TIP3     H1       HT       0.417000       1.00800           0
     28585 TIP3     6223     TIP3     H2       HT       0.417000       1.00800           0
     28586 TIP3     6224     TIP3     OH2      OT      -0.834000       15.9994           0
     28587 TIP3     6224     TIP3     H1       HT       0.417000       1.00800           0
     28588 TIP3     6224     TIP3     H2       HT       0.417000       1.00800           0
     28589 TIP3     6225     TIP3     OH2      OT      -0.834000       15.9994           0
     28590 TIP3     6225     TIP3     H1       HT       0.417000       1.00800           0
     28591 TIP3     6225     TIP3     H2       HT       0.417000       1.00800           0
     28592 TIP3     6226     TIP3     OH2      OT      -0.834000       15.9994           0
     28593 TIP3     6226     TIP3     H1       HT       0.417000       1.00800           0
     28594 TIP3     6226     TIP3     H2       HT       0.417000       1.00800           0
     28595 TIP3     6227     TIP3     OH2      OT      -0.834000       15.9994           0
     28596 TIP3     6227     TIP3     H1       HT       0.417000       1.00800           0
     28597 TIP3     6227     TIP3     H2       HT       0.417000       1.00800           0
     28598 TIP3     6228     TIP3     OH2      OT      -0.834000       15.9994           0
     28599 TIP3     6228     TIP3     H1       HT       0.417000       1.00800           0
     28600 TIP3     6228     TIP3     H2       HT       0.417000       1.00800           0
     28601 TIP3     6229     TIP3     OH2      OT      -0.834000       15.9994           0
     28602 TIP3     6229     TIP3     H1       HT       0.417000       1.00800           0
     28603 TIP3     6229     TIP3     H2       HT       0.417000       1.00800           0
     28604 TIP3     6230     TIP3     OH2      OT      -0.834000       15.9994           0
     28605 TIP3     6230     TIP3     H1       HT       0.417000       1.00800           0
     28606 TIP3     6230     TIP3     H2       HT       0.417000       1.00800           0
     28607 TIP3     6231     TIP3     OH2      OT      -0.834000       15.9994           0
     28608 TIP3     6231     TIP3     H1       HT       0.417000       1.00800           0
     28609 TIP3     6231     TIP3     H2       HT       0.417000       1.00800           0
     28610 TIP3     6232     TIP3     OH2      OT      -0.834000       15.9994           0
     28611 TIP3     6232     TIP3     H1       HT       0.417000       1.00800           0
     28612 TIP3     6232     TIP3     H2       HT       0.417000       1.00800           0
     28613 TIP3     6233     TIP3     OH2      OT      -0.834000       15.9994           0
     28614 TIP3     6233     TIP3     H1       HT       0.417000       1.00800           0
     28615 TIP3     6233     TIP3     H2       HT       0.417000       1.00800           0
     28616 TIP3     6234     TIP3     OH2      OT      -0.834000       15.9994           0
     28617 TIP3     6234     TIP3     H1       HT       0.417000       1.00800           0
     28618 TIP3     6234     TIP3     H2       HT       0.417000       1.00800           0
     28619 TIP3     6235     TIP3     OH2      OT      -0.834000       15.9994           0
     28620 TIP3     6235     TIP3     H1       HT       0.417000       1.00800           0
     28621 TIP3     6235     TIP3     H2       HT       0.417000       1.00800           0
     28622 TIP3     6236     TIP3     OH2      OT      -0.834000       15.9994           0
     28623 TIP3     6236     TIP3     H1       HT       0.417000       1.00800           0
     28624 TIP3     6236     TIP3     H2       HT       0.417000       1.00800           0
     28625 TIP3     6237     TIP3     OH2      OT      -0.834000       15.9994           0
     28626 TIP3     6237     TIP3     H1       HT       0.417000       1.00800           0
     28627 TIP3     6237     TIP3     H2       HT       0.417000       1.00800           0
     28628 TIP3     6238     TIP3     OH2      OT      -0.834000       15.9994           0
     28629 TIP3     6238     TIP3     H1       HT       0.417000       1.00800           0
     28630 TIP3     6238     TIP3     H2       HT       0.417000       1.00800           0
     28631 TIP3     6239     TIP3     OH2      OT      -0.834000       15.9994           0
     28632 TIP3     6239     TIP3     H1       HT       0.417000       1.00800           0
     28633 TIP3     6239     TIP3     H2       HT       0.417000       1.00800           0
     28634 TIP3     6240     TIP3     OH2      OT      -0.834000       15.9994           0
     28635 TIP3     6240     TIP3     H1       HT       0.417000       1.00800           0
     28636 TIP3     6240     TIP3     H2       HT       0.417000       1.00800           0
     28637 TIP3     6241     TIP3     OH2      OT      -0.834000       15.9994           0
     28638 TIP3     6241     TIP3     H1       HT       0.417000       1.00800           0
     28639 TIP3     6241     TIP3     H2       HT       0.417000       1.00800           0
     28640 TIP3     6242     TIP3     OH2      OT      -0.834000       15.9994           0
     28641 TIP3     6242     TIP3     H1       HT       0.417000       1.00800           0
     28642 TIP3     6242     TIP3     H2       HT       0.417000       1.00800           0
     28643 TIP3     6243     TIP3     OH2      OT      -0.834000       15.9994           0
     28644 TIP3     6243     TIP3     H1       HT       0.417000       1.00800           0
     28645 TIP3     6243     TIP3     H2       HT       0.417000       1.00800           0
     28646 TIP3     6244     TIP3     OH2      OT      -0.834000       15.9994           0
     28647 TIP3     6244     TIP3     H1       HT       0.417000       1.00800           0
     28648 TIP3     6244     TIP3     H2       HT       0.417000       1.00800           0
     28649 TIP3     6245     TIP3     OH2      OT      -0.834000       15.9994           0
     28650 TIP3     6245     TIP3     H1       HT       0.417000       1.00800           0
     28651 TIP3     6245     TIP3     H2       HT       0.417000       1.00800           0
     28652 TIP3     6246     TIP3     OH2      OT      -0.834000       15.9994           0
     28653 TIP3     6246     TIP3     H1       HT       0.417000       1.00800           0
     28654 TIP3     6246     TIP3     H2       HT       0.417000       1.00800           0
     28655 TIP3     6247     TIP3     OH2      OT      -0.834000       15.9994           0
     28656 TIP3     6247     TIP3     H1       HT       0.417000       1.00800           0
     28657 TIP3     6247     TIP3     H2       HT       0.417000       1.00800           0
     28658 TIP3     6248     TIP3     OH2      OT      -0.834000       15.9994           0
     28659 TIP3     6248     TIP3     H1       HT       0.417000       1.00800           0
     28660 TIP3     6248     TIP3     H2       HT       0.417000       1.00800           0
     28661 TIP3     6249     TIP3     OH2      OT      -0.834000       15.9994           0
     28662 TIP3     6249     TIP3     H1       HT       0.417000       1.00800           0
     28663 TIP3     6249     TIP3     H2       HT       0.417000       1.00800           0
     28664 TIP3     6250     TIP3     OH2      OT      -0.834000       15.9994           0
     28665 TIP3     6250     TIP3     H1       HT       0.417000       1.00800           0
     28666 TIP3     6250     TIP3     H2       HT       0.417000       1.00800           0
     28667 TIP3     6251     TIP3     OH2      OT      -0.834000       15.9994           0
     28668 TIP3     6251     TIP3     H1       HT       0.417000       1.00800           0
     28669 TIP3     6251     TIP3     H2       HT       0.417000       1.00800           0
     28670 TIP3     6252     TIP3     OH2      OT      -0.834000       15.9994           0
     28671 TIP3     6252     TIP3     H1       HT       0.417000       1.00800           0
     28672 TIP3     6252     TIP3     H2       HT       0.417000       1.00800           0
     28673 TIP3     6253     TIP3     OH2      OT      -0.834000       15.9994           0
     28674 TIP3     6253     TIP3     H1       HT       0.417000       1.00800           0
     28675 TIP3     6253     TIP3     H2       HT       0.417000       1.00800           0
     28676 TIP3     6254     TIP3     OH2      OT      -0.834000       15.9994           0
     28677 TIP3     6254     TIP3     H1       HT       0.417000       1.00800           0
     28678 TIP3     6254     TIP3     H2       HT       0.417000       1.00800           0
     28679 TIP3     6255     TIP3     OH2      OT      -0.834000       15.9994           0
     28680 TIP3     6255     TIP3     H1       HT       0.417000       1.00800           0
     28681 TIP3     6255     TIP3     H2       HT       0.417000       1.00800           0
     28682 TIP3     6256     TIP3     OH2      OT      -0.834000       15.9994           0
     28683 TIP3     6256     TIP3     H1       HT       0.417000       1.00800           0
     28684 TIP3     6256     TIP3     H2       HT       0.417000       1.00800           0
     28685 TIP3     6257     TIP3     OH2      OT      -0.834000       15.9994           0
     28686 TIP3     6257     TIP3     H1       HT       0.417000       1.00800           0
     28687 TIP3     6257     TIP3     H2       HT       0.417000       1.00800           0
     28688 TIP3     6258     TIP3     OH2      OT      -0.834000       15.9994           0
     28689 TIP3     6258     TIP3     H1       HT       0.417000       1.00800           0
     28690 TIP3     6258     TIP3     H2       HT       0.417000       1.00800           0
     28691 TIP3     6259     TIP3     OH2      OT      -0.834000       15.9994           0
     28692 TIP3     6259     TIP3     H1       HT       0.417000       1.00800           0
     28693 TIP3     6259     TIP3     H2       HT       0.417000       1.00800           0
     28694 TIP3     6260     TIP3     OH2      OT      -0.834000       15.9994           0
     28695 TIP3     6260     TIP3     H1       HT       0.417000       1.00800           0
     28696 TIP3     6260     TIP3     H2       HT       0.417000       1.00800           0
     28697 TIP3     6261     TIP3     OH2      OT      -0.834000       15.9994           0
     28698 TIP3     6261     TIP3     H1       HT       0.417000       1.00800           0
     28699 TIP3     6261     TIP3     H2       HT       0.417000       1.00800           0
     28700 TIP3     6262     TIP3     OH2      OT      -0.834000       15.9994           0
     28701 TIP3     6262     TIP3     H1       HT       0.417000       1.00800           0
     28702 TIP3     6262     TIP3     H2       HT       0.417000       1.00800           0
     28703 TIP3     6263     TIP3     OH2      OT      -0.834000       15.9994           0
     28704 TIP3     6263     TIP3     H1       HT       0.417000       1.00800           0
     28705 TIP3     6263     TIP3     H2       HT       0.417000       1.00800           0
     28706 TIP3     6264     TIP3     OH2      OT      -0.834000       15.9994           0
     28707 TIP3     6264     TIP3     H1       HT       0.417000       1.00800           0
     28708 TIP3     6264     TIP3     H2       HT       0.417000       1.00800           0
     28709 TIP3     6265     TIP3     OH2      OT      -0.834000       15.9994           0
     28710 TIP3     6265     TIP3     H1       HT       0.417000       1.00800           0
     28711 TIP3     6265     TIP3     H2       HT       0.417000       1.00800           0
     28712 TIP3     6266     TIP3     OH2      OT      -0.834000       15.9994           0
     28713 TIP3     6266     TIP3     H1       HT       0.417000       1.00800           0
     28714 TIP3     6266     TIP3     H2       HT       0.417000       1.00800           0
     28715 TIP3     6267     TIP3     OH2      OT      -0.834000       15.9994           0
     28716 TIP3     6267     TIP3     H1       HT       0.417000       1.00800           0
     28717 TIP3     6267     TIP3     H2       HT       0.417000       1.00800           0
     28718 TIP3     6268     TIP3     OH2      OT      -0.834000       15.9994           0
     28719 TIP3     6268     TIP3     H1       HT       0.417000       1.00800           0
     28720 TIP3     6268     TIP3     H2       HT       0.417000       1.00800           0
     28721 TIP3     6269     TIP3     OH2      OT      -0.834000       15.9994           0
     28722 TIP3     6269     TIP3     H1       HT       0.417000       1.00800           0
     28723 TIP3     6269     TIP3     H2       HT       0.417000       1.00800           0
     28724 TIP3     6270     TIP3     OH2      OT      -0.834000       15.9994           0
     28725 TIP3     6270     TIP3     H1       HT       0.417000       1.00800           0
     28726 TIP3     6270     TIP3     H2       HT       0.417000       1.00800           0
     28727 TIP3     6271     TIP3     OH2      OT      -0.834000       15.9994           0
     28728 TIP3     6271     TIP3     H1       HT       0.417000       1.00800           0
     28729 TIP3     6271     TIP3     H2       HT       0.417000       1.00800           0
     28730 TIP3     6272     TIP3     OH2      OT      -0.834000       15.9994           0
     28731 TIP3     6272     TIP3     H1       HT       0.417000       1.00800           0
     28732 TIP3     6272     TIP3     H2       HT       0.417000       1.00800           0
     28733 TIP3     6273     TIP3     OH2      OT      -0.834000       15.9994           0
     28734 TIP3     6273     TIP3     H1       HT       0.417000       1.00800           0
     28735 TIP3     6273     TIP3     H2       HT       0.417000       1.00800           0
     28736 TIP3     6274     TIP3     OH2      OT      -0.834000       15.9994           0
     28737 TIP3     6274     TIP3     H1       HT       0.417000       1.00800           0
     28738 TIP3     6274     TIP3     H2       HT       0.417000       1.00800           0
     28739 TIP3     6275     TIP3     OH2      OT      -0.834000       15.9994           0
     28740 TIP3     6275     TIP3     H1       HT       0.417000       1.00800           0
     28741 TIP3     6275     TIP3     H2       HT       0.417000       1.00800           0
     28742 TIP3     6276     TIP3     OH2      OT      -0.834000       15.9994           0
     28743 TIP3     6276     TIP3     H1       HT       0.417000       1.00800           0
     28744 TIP3     6276     TIP3     H2       HT       0.417000       1.00800           0
     28745 TIP3     6277     TIP3     OH2      OT      -0.834000       15.9994           0
     28746 TIP3     6277     TIP3     H1       HT       0.417000       1.00800           0
     28747 TIP3     6277     TIP3     H2       HT       0.417000       1.00800           0
     28748 TIP3     6278     TIP3     OH2      OT      -0.834000       15.9994           0
     28749 TIP3     6278     TIP3     H1       HT       0.417000       1.00800           0
     28750 TIP3     6278     TIP3     H2       HT       0.417000       1.00800           0
     28751 TIP3     6279     TIP3     OH2      OT      -0.834000       15.9994           0
     28752 TIP3     6279     TIP3     H1       HT       0.417000       1.00800           0
     28753 TIP3     6279     TIP3     H2       HT       0.417000       1.00800           0
     28754 TIP3     6280     TIP3     OH2      OT      -0.834000       15.9994           0
     28755 TIP3     6280     TIP3     H1       HT       0.417000       1.00800           0
     28756 TIP3     6280     TIP3     H2       HT       0.417000       1.00800           0
     28757 TIP3     6281     TIP3     OH2      OT      -0.834000       15.9994           0
     28758 TIP3     6281     TIP3     H1       HT       0.417000       1.00800           0
     28759 TIP3     6281     TIP3     H2       HT       0.417000       1.00800           0
     28760 TIP3     6282     TIP3     OH2      OT      -0.834000       15.9994           0
     28761 TIP3     6282     TIP3     H1       HT       0.417000       1.00800           0
     28762 TIP3     6282     TIP3     H2       HT       0.417000       1.00800           0
     28763 TIP3     6283     TIP3     OH2      OT      -0.834000       15.9994           0
     28764 TIP3     6283     TIP3     H1       HT       0.417000       1.00800           0
     28765 TIP3     6283     TIP3     H2       HT       0.417000       1.00800           0
     28766 TIP3     6284     TIP3     OH2      OT      -0.834000       15.9994           0
     28767 TIP3     6284     TIP3     H1       HT       0.417000       1.00800           0
     28768 TIP3     6284     TIP3     H2       HT       0.417000       1.00800           0
     28769 TIP3     6285     TIP3     OH2      OT      -0.834000       15.9994           0
     28770 TIP3     6285     TIP3     H1       HT       0.417000       1.00800           0
     28771 TIP3     6285     TIP3     H2       HT       0.417000       1.00800           0
     28772 TIP3     6286     TIP3     OH2      OT      -0.834000       15.9994           0
     28773 TIP3     6286     TIP3     H1       HT       0.417000       1.00800           0
     28774 TIP3     6286     TIP3     H2       HT       0.417000       1.00800           0
     28775 TIP3     6287     TIP3     OH2      OT      -0.834000       15.9994           0
     28776 TIP3     6287     TIP3     H1       HT       0.417000       1.00800           0
     28777 TIP3     6287     TIP3     H2       HT       0.417000       1.00800           0
     28778 TIP3     6288     TIP3     OH2      OT      -0.834000       15.9994           0
     28779 TIP3     6288     TIP3     H1       HT       0.417000       1.00800           0
     28780 TIP3     6288     TIP3     H2       HT       0.417000       1.00800           0
     28781 TIP3     6289     TIP3     OH2      OT      -0.834000       15.9994           0
     28782 TIP3     6289     TIP3     H1       HT       0.417000       1.00800           0
     28783 TIP3     6289     TIP3     H2       HT       0.417000       1.00800           0
     28784 TIP3     6290     TIP3     OH2      OT      -0.834000       15.9994           0
     28785 TIP3     6290     TIP3     H1       HT       0.417000       1.00800           0
     28786 TIP3     6290     TIP3     H2       HT       0.417000       1.00800           0
     28787 TIP3     6291     TIP3     OH2      OT      -0.834000       15.9994           0
     28788 TIP3     6291     TIP3     H1       HT       0.417000       1.00800           0
     28789 TIP3     6291     TIP3     H2       HT       0.417000       1.00800           0
     28790 TIP3     6292     TIP3     OH2      OT      -0.834000       15.9994           0
     28791 TIP3     6292     TIP3     H1       HT       0.417000       1.00800           0
     28792 TIP3     6292     TIP3     H2       HT       0.417000       1.00800           0
     28793 TIP3     6293     TIP3     OH2      OT      -0.834000       15.9994           0
     28794 TIP3     6293     TIP3     H1       HT       0.417000       1.00800           0
     28795 TIP3     6293     TIP3     H2       HT       0.417000       1.00800           0
     28796 TIP3     6294     TIP3     OH2      OT      -0.834000       15.9994           0
     28797 TIP3     6294     TIP3     H1       HT       0.417000       1.00800           0
     28798 TIP3     6294     TIP3     H2       HT       0.417000       1.00800           0
     28799 TIP3     6295     TIP3     OH2      OT      -0.834000       15.9994           0
     28800 TIP3     6295     TIP3     H1       HT       0.417000       1.00800           0
     28801 TIP3     6295     TIP3     H2       HT       0.417000       1.00800           0
     28802 TIP3     6296     TIP3     OH2      OT      -0.834000       15.9994           0
     28803 TIP3     6296     TIP3     H1       HT       0.417000       1.00800           0
     28804 TIP3     6296     TIP3     H2       HT       0.417000       1.00800           0
     28805 TIP3     6297     TIP3     OH2      OT      -0.834000       15.9994           0
     28806 TIP3     6297     TIP3     H1       HT       0.417000       1.00800           0
     28807 TIP3     6297     TIP3     H2       HT       0.417000       1.00800           0
     28808 TIP3     6298     TIP3     OH2      OT      -0.834000       15.9994           0
     28809 TIP3     6298     TIP3     H1       HT       0.417000       1.00800           0
     28810 TIP3     6298     TIP3     H2       HT       0.417000       1.00800           0
     28811 TIP3     6299     TIP3     OH2      OT      -0.834000       15.9994           0
     28812 TIP3     6299     TIP3     H1       HT       0.417000       1.00800           0
     28813 TIP3     6299     TIP3     H2       HT       0.417000       1.00800           0
     28814 TIP3     6300     TIP3     OH2      OT      -0.834000       15.9994           0
     28815 TIP3     6300     TIP3     H1       HT       0.417000       1.00800           0
     28816 TIP3     6300     TIP3     H2       HT       0.417000       1.00800           0
     28817 TIP3     6301     TIP3     OH2      OT      -0.834000       15.9994           0
     28818 TIP3     6301     TIP3     H1       HT       0.417000       1.00800           0
     28819 TIP3     6301     TIP3     H2       HT       0.417000       1.00800           0
     28820 TIP3     6302     TIP3     OH2      OT      -0.834000       15.9994           0
     28821 TIP3     6302     TIP3     H1       HT       0.417000       1.00800           0
     28822 TIP3     6302     TIP3     H2       HT       0.417000       1.00800           0
     28823 TIP3     6303     TIP3     OH2      OT      -0.834000       15.9994           0
     28824 TIP3     6303     TIP3     H1       HT       0.417000       1.00800           0
     28825 TIP3     6303     TIP3     H2       HT       0.417000       1.00800           0
     28826 TIP3     6304     TIP3     OH2      OT      -0.834000       15.9994           0
     28827 TIP3     6304     TIP3     H1       HT       0.417000       1.00800           0
     28828 TIP3     6304     TIP3     H2       HT       0.417000       1.00800           0
     28829 TIP3     6305     TIP3     OH2      OT      -0.834000       15.9994           0
     28830 TIP3     6305     TIP3     H1       HT       0.417000       1.00800           0
     28831 TIP3     6305     TIP3     H2       HT       0.417000       1.00800           0
     28832 TIP3     6306     TIP3     OH2      OT      -0.834000       15.9994           0
     28833 TIP3     6306     TIP3     H1       HT       0.417000       1.00800           0
     28834 TIP3     6306     TIP3     H2       HT       0.417000       1.00800           0
     28835 TIP3     6307     TIP3     OH2      OT      -0.834000       15.9994           0
     28836 TIP3     6307     TIP3     H1       HT       0.417000       1.00800           0
     28837 TIP3     6307     TIP3     H2       HT       0.417000       1.00800           0
     28838 TIP3     6308     TIP3     OH2      OT      -0.834000       15.9994           0
     28839 TIP3     6308     TIP3     H1       HT       0.417000       1.00800           0
     28840 TIP3     6308     TIP3     H2       HT       0.417000       1.00800           0
     28841 TIP3     6309     TIP3     OH2      OT      -0.834000       15.9994           0
     28842 TIP3     6309     TIP3     H1       HT       0.417000       1.00800           0
     28843 TIP3     6309     TIP3     H2       HT       0.417000       1.00800           0
     28844 TIP3     6310     TIP3     OH2      OT      -0.834000       15.9994           0
     28845 TIP3     6310     TIP3     H1       HT       0.417000       1.00800           0
     28846 TIP3     6310     TIP3     H2       HT       0.417000       1.00800           0
     28847 TIP3     6311     TIP3     OH2      OT      -0.834000       15.9994           0
     28848 TIP3     6311     TIP3     H1       HT       0.417000       1.00800           0
     28849 TIP3     6311     TIP3     H2       HT       0.417000       1.00800           0
     28850 TIP3     6312     TIP3     OH2      OT      -0.834000       15.9994           0
     28851 TIP3     6312     TIP3     H1       HT       0.417000       1.00800           0
     28852 TIP3     6312     TIP3     H2       HT       0.417000       1.00800           0
     28853 TIP3     6313     TIP3     OH2      OT      -0.834000       15.9994           0
     28854 TIP3     6313     TIP3     H1       HT       0.417000       1.00800           0
     28855 TIP3     6313     TIP3     H2       HT       0.417000       1.00800           0
     28856 TIP3     6314     TIP3     OH2      OT      -0.834000       15.9994           0
     28857 TIP3     6314     TIP3     H1       HT       0.417000       1.00800           0
     28858 TIP3     6314     TIP3     H2       HT       0.417000       1.00800           0
     28859 TIP3     6315     TIP3     OH2      OT      -0.834000       15.9994           0
     28860 TIP3     6315     TIP3     H1       HT       0.417000       1.00800           0
     28861 TIP3     6315     TIP3     H2       HT       0.417000       1.00800           0
     28862 TIP3     6316     TIP3     OH2      OT      -0.834000       15.9994           0
     28863 TIP3     6316     TIP3     H1       HT       0.417000       1.00800           0
     28864 TIP3     6316     TIP3     H2       HT       0.417000       1.00800           0
     28865 TIP3     6317     TIP3     OH2      OT      -0.834000       15.9994           0
     28866 TIP3     6317     TIP3     H1       HT       0.417000       1.00800           0
     28867 TIP3     6317     TIP3     H2       HT       0.417000       1.00800           0
     28868 TIP3     6318     TIP3     OH2      OT      -0.834000       15.9994           0
     28869 TIP3     6318     TIP3     H1       HT       0.417000       1.00800           0
     28870 TIP3     6318     TIP3     H2       HT       0.417000       1.00800           0
     28871 TIP3     6319     TIP3     OH2      OT      -0.834000       15.9994           0
     28872 TIP3     6319     TIP3     H1       HT       0.417000       1.00800           0
     28873 TIP3     6319     TIP3     H2       HT       0.417000       1.00800           0
     28874 TIP3     6320     TIP3     OH2      OT      -0.834000       15.9994           0
     28875 TIP3     6320     TIP3     H1       HT       0.417000       1.00800           0
     28876 TIP3     6320     TIP3     H2       HT       0.417000       1.00800           0
     28877 TIP3     6321     TIP3     OH2      OT      -0.834000       15.9994           0
     28878 TIP3     6321     TIP3     H1       HT       0.417000       1.00800           0
     28879 TIP3     6321     TIP3     H2       HT       0.417000       1.00800           0
     28880 TIP3     6322     TIP3     OH2      OT      -0.834000       15.9994           0
     28881 TIP3     6322     TIP3     H1       HT       0.417000       1.00800           0
     28882 TIP3     6322     TIP3     H2       HT       0.417000       1.00800           0
     28883 TIP3     6323     TIP3     OH2      OT      -0.834000       15.9994           0
     28884 TIP3     6323     TIP3     H1       HT       0.417000       1.00800           0
     28885 TIP3     6323     TIP3     H2       HT       0.417000       1.00800           0
     28886 TIP3     6324     TIP3     OH2      OT      -0.834000       15.9994           0
     28887 TIP3     6324     TIP3     H1       HT       0.417000       1.00800           0
     28888 TIP3     6324     TIP3     H2       HT       0.417000       1.00800           0
     28889 TIP3     6325     TIP3     OH2      OT      -0.834000       15.9994           0
     28890 TIP3     6325     TIP3     H1       HT       0.417000       1.00800           0
     28891 TIP3     6325     TIP3     H2       HT       0.417000       1.00800           0
     28892 TIP3     6326     TIP3     OH2      OT      -0.834000       15.9994           0
     28893 TIP3     6326     TIP3     H1       HT       0.417000       1.00800           0
     28894 TIP3     6326     TIP3     H2       HT       0.417000       1.00800           0
     28895 TIP3     6327     TIP3     OH2      OT      -0.834000       15.9994           0
     28896 TIP3     6327     TIP3     H1       HT       0.417000       1.00800           0
     28897 TIP3     6327     TIP3     H2       HT       0.417000       1.00800           0
     28898 TIP3     6328     TIP3     OH2      OT      -0.834000       15.9994           0
     28899 TIP3     6328     TIP3     H1       HT       0.417000       1.00800           0
     28900 TIP3     6328     TIP3     H2       HT       0.417000       1.00800           0
     28901 TIP3     6329     TIP3     OH2      OT      -0.834000       15.9994           0
     28902 TIP3     6329     TIP3     H1       HT       0.417000       1.00800           0
     28903 TIP3     6329     TIP3     H2       HT       0.417000       1.00800           0
     28904 TIP3     6330     TIP3     OH2      OT      -0.834000       15.9994           0
     28905 TIP3     6330     TIP3     H1       HT       0.417000       1.00800           0
     28906 TIP3     6330     TIP3     H2       HT       0.417000       1.00800           0
     28907 TIP3     6331     TIP3     OH2      OT      -0.834000       15.9994           0
     28908 TIP3     6331     TIP3     H1       HT       0.417000       1.00800           0
     28909 TIP3     6331     TIP3     H2       HT       0.417000       1.00800           0
     28910 TIP3     6332     TIP3     OH2      OT      -0.834000       15.9994           0
     28911 TIP3     6332     TIP3     H1       HT       0.417000       1.00800           0
     28912 TIP3     6332     TIP3     H2       HT       0.417000       1.00800           0
     28913 TIP3     6333     TIP3     OH2      OT      -0.834000       15.9994           0
     28914 TIP3     6333     TIP3     H1       HT       0.417000       1.00800           0
     28915 TIP3     6333     TIP3     H2       HT       0.417000       1.00800           0
     28916 TIP3     6334     TIP3     OH2      OT      -0.834000       15.9994           0
     28917 TIP3     6334     TIP3     H1       HT       0.417000       1.00800           0
     28918 TIP3     6334     TIP3     H2       HT       0.417000       1.00800           0
     28919 TIP3     6335     TIP3     OH2      OT      -0.834000       15.9994           0
     28920 TIP3     6335     TIP3     H1       HT       0.417000       1.00800           0
     28921 TIP3     6335     TIP3     H2       HT       0.417000       1.00800           0
     28922 TIP3     6336     TIP3     OH2      OT      -0.834000       15.9994           0
     28923 TIP3     6336     TIP3     H1       HT       0.417000       1.00800           0
     28924 TIP3     6336     TIP3     H2       HT       0.417000       1.00800           0
     28925 TIP3     6337     TIP3     OH2      OT      -0.834000       15.9994           0
     28926 TIP3     6337     TIP3     H1       HT       0.417000       1.00800           0
     28927 TIP3     6337     TIP3     H2       HT       0.417000       1.00800           0
     28928 TIP3     6338     TIP3     OH2      OT      -0.834000       15.9994           0
     28929 TIP3     6338     TIP3     H1       HT       0.417000       1.00800           0
     28930 TIP3     6338     TIP3     H2       HT       0.417000       1.00800           0
     28931 TIP3     6339     TIP3     OH2      OT      -0.834000       15.9994           0
     28932 TIP3     6339     TIP3     H1       HT       0.417000       1.00800           0
     28933 TIP3     6339     TIP3     H2       HT       0.417000       1.00800           0
     28934 TIP3     6340     TIP3     OH2      OT      -0.834000       15.9994           0
     28935 TIP3     6340     TIP3     H1       HT       0.417000       1.00800           0
     28936 TIP3     6340     TIP3     H2       HT       0.417000       1.00800           0
     28937 TIP3     6341     TIP3     OH2      OT      -0.834000       15.9994           0
     28938 TIP3     6341     TIP3     H1       HT       0.417000       1.00800           0
     28939 TIP3     6341     TIP3     H2       HT       0.417000       1.00800           0
     28940 TIP3     6342     TIP3     OH2      OT      -0.834000       15.9994           0
     28941 TIP3     6342     TIP3     H1       HT       0.417000       1.00800           0
     28942 TIP3     6342     TIP3     H2       HT       0.417000       1.00800           0
     28943 TIP3     6343     TIP3     OH2      OT      -0.834000       15.9994           0
     28944 TIP3     6343     TIP3     H1       HT       0.417000       1.00800           0
     28945 TIP3     6343     TIP3     H2       HT       0.417000       1.00800           0
     28946 TIP3     6344     TIP3     OH2      OT      -0.834000       15.9994           0
     28947 TIP3     6344     TIP3     H1       HT       0.417000       1.00800           0
     28948 TIP3     6344     TIP3     H2       HT       0.417000       1.00800           0
     28949 TIP3     6345     TIP3     OH2      OT      -0.834000       15.9994           0
     28950 TIP3     6345     TIP3     H1       HT       0.417000       1.00800           0
     28951 TIP3     6345     TIP3     H2       HT       0.417000       1.00800           0
     28952 TIP3     6346     TIP3     OH2      OT      -0.834000       15.9994           0
     28953 TIP3     6346     TIP3     H1       HT       0.417000       1.00800           0
     28954 TIP3     6346     TIP3     H2       HT       0.417000       1.00800           0
     28955 TIP3     6347     TIP3     OH2      OT      -0.834000       15.9994           0
     28956 TIP3     6347     TIP3     H1       HT       0.417000       1.00800           0
     28957 TIP3     6347     TIP3     H2       HT       0.417000       1.00800           0
     28958 TIP3     6348     TIP3     OH2      OT      -0.834000       15.9994           0
     28959 TIP3     6348     TIP3     H1       HT       0.417000       1.00800           0
     28960 TIP3     6348     TIP3     H2       HT       0.417000       1.00800           0
     28961 TIP3     6349     TIP3     OH2      OT      -0.834000       15.9994           0
     28962 TIP3     6349     TIP3     H1       HT       0.417000       1.00800           0
     28963 TIP3     6349     TIP3     H2       HT       0.417000       1.00800           0
     28964 TIP3     6350     TIP3     OH2      OT      -0.834000       15.9994           0
     28965 TIP3     6350     TIP3     H1       HT       0.417000       1.00800           0
     28966 TIP3     6350     TIP3     H2       HT       0.417000       1.00800           0
     28967 TIP3     6351     TIP3     OH2      OT      -0.834000       15.9994           0
     28968 TIP3     6351     TIP3     H1       HT       0.417000       1.00800           0
     28969 TIP3     6351     TIP3     H2       HT       0.417000       1.00800           0
     28970 TIP3     6352     TIP3     OH2      OT      -0.834000       15.9994           0
     28971 TIP3     6352     TIP3     H1       HT       0.417000       1.00800           0
     28972 TIP3     6352     TIP3     H2       HT       0.417000       1.00800           0
     28973 TIP3     6353     TIP3     OH2      OT      -0.834000       15.9994           0
     28974 TIP3     6353     TIP3     H1       HT       0.417000       1.00800           0
     28975 TIP3     6353     TIP3     H2       HT       0.417000       1.00800           0
     28976 TIP3     6354     TIP3     OH2      OT      -0.834000       15.9994           0
     28977 TIP3     6354     TIP3     H1       HT       0.417000       1.00800           0
     28978 TIP3     6354     TIP3     H2       HT       0.417000       1.00800           0
     28979 TIP3     6355     TIP3     OH2      OT      -0.834000       15.9994           0
     28980 TIP3     6355     TIP3     H1       HT       0.417000       1.00800           0
     28981 TIP3     6355     TIP3     H2       HT       0.417000       1.00800           0
     28982 TIP3     6356     TIP3     OH2      OT      -0.834000       15.9994           0
     28983 TIP3     6356     TIP3     H1       HT       0.417000       1.00800           0
     28984 TIP3     6356     TIP3     H2       HT       0.417000       1.00800           0
     28985 TIP3     6357     TIP3     OH2      OT      -0.834000       15.9994           0
     28986 TIP3     6357     TIP3     H1       HT       0.417000       1.00800           0
     28987 TIP3     6357     TIP3     H2       HT       0.417000       1.00800           0
     28988 TIP3     6358     TIP3     OH2      OT      -0.834000       15.9994           0
     28989 TIP3     6358     TIP3     H1       HT       0.417000       1.00800           0
     28990 TIP3     6358     TIP3     H2       HT       0.417000       1.00800           0
     28991 TIP3     6359     TIP3     OH2      OT      -0.834000       15.9994           0
     28992 TIP3     6359     TIP3     H1       HT       0.417000       1.00800           0
     28993 TIP3     6359     TIP3     H2       HT       0.417000       1.00800           0
     28994 TIP3     6360     TIP3     OH2      OT      -0.834000       15.9994           0
     28995 TIP3     6360     TIP3     H1       HT       0.417000       1.00800           0
     28996 TIP3     6360     TIP3     H2       HT       0.417000       1.00800           0
     28997 TIP3     6361     TIP3     OH2      OT      -0.834000       15.9994           0
     28998 TIP3     6361     TIP3     H1       HT       0.417000       1.00800           0
     28999 TIP3     6361     TIP3     H2       HT       0.417000       1.00800           0
     29000 TIP3     6362     TIP3     OH2      OT      -0.834000       15.9994           0
     29001 TIP3     6362     TIP3     H1       HT       0.417000       1.00800           0
     29002 TIP3     6362     TIP3     H2       HT       0.417000       1.00800           0
     29003 TIP3     6363     TIP3     OH2      OT      -0.834000       15.9994           0
     29004 TIP3     6363     TIP3     H1       HT       0.417000       1.00800           0
     29005 TIP3     6363     TIP3     H2       HT       0.417000       1.00800           0
     29006 TIP3     6364     TIP3     OH2      OT      -0.834000       15.9994           0
     29007 TIP3     6364     TIP3     H1       HT       0.417000       1.00800           0
     29008 TIP3     6364     TIP3     H2       HT       0.417000       1.00800           0
     29009 TIP3     6365     TIP3     OH2      OT      -0.834000       15.9994           0
     29010 TIP3     6365     TIP3     H1       HT       0.417000       1.00800           0
     29011 TIP3     6365     TIP3     H2       HT       0.417000       1.00800           0
     29012 TIP3     6366     TIP3     OH2      OT      -0.834000       15.9994           0
     29013 TIP3     6366     TIP3     H1       HT       0.417000       1.00800           0
     29014 TIP3     6366     TIP3     H2       HT       0.417000       1.00800           0
     29015 TIP3     6367     TIP3     OH2      OT      -0.834000       15.9994           0
     29016 TIP3     6367     TIP3     H1       HT       0.417000       1.00800           0
     29017 TIP3     6367     TIP3     H2       HT       0.417000       1.00800           0
     29018 TIP3     6368     TIP3     OH2      OT      -0.834000       15.9994           0
     29019 TIP3     6368     TIP3     H1       HT       0.417000       1.00800           0
     29020 TIP3     6368     TIP3     H2       HT       0.417000       1.00800           0
     29021 TIP3     6369     TIP3     OH2      OT      -0.834000       15.9994           0
     29022 TIP3     6369     TIP3     H1       HT       0.417000       1.00800           0
     29023 TIP3     6369     TIP3     H2       HT       0.417000       1.00800           0
     29024 TIP3     6370     TIP3     OH2      OT      -0.834000       15.9994           0
     29025 TIP3     6370     TIP3     H1       HT       0.417000       1.00800           0
     29026 TIP3     6370     TIP3     H2       HT       0.417000       1.00800           0
     29027 TIP3     6371     TIP3     OH2      OT      -0.834000       15.9994           0
     29028 TIP3     6371     TIP3     H1       HT       0.417000       1.00800           0
     29029 TIP3     6371     TIP3     H2       HT       0.417000       1.00800           0
     29030 TIP3     6372     TIP3     OH2      OT      -0.834000       15.9994           0
     29031 TIP3     6372     TIP3     H1       HT       0.417000       1.00800           0
     29032 TIP3     6372     TIP3     H2       HT       0.417000       1.00800           0
     29033 TIP3     6373     TIP3     OH2      OT      -0.834000       15.9994           0
     29034 TIP3     6373     TIP3     H1       HT       0.417000       1.00800           0
     29035 TIP3     6373     TIP3     H2       HT       0.417000       1.00800           0
     29036 TIP3     6374     TIP3     OH2      OT      -0.834000       15.9994           0
     29037 TIP3     6374     TIP3     H1       HT       0.417000       1.00800           0
     29038 TIP3     6374     TIP3     H2       HT       0.417000       1.00800           0
     29039 TIP3     6375     TIP3     OH2      OT      -0.834000       15.9994           0
     29040 TIP3     6375     TIP3     H1       HT       0.417000       1.00800           0
     29041 TIP3     6375     TIP3     H2       HT       0.417000       1.00800           0
     29042 TIP3     6376     TIP3     OH2      OT      -0.834000       15.9994           0
     29043 TIP3     6376     TIP3     H1       HT       0.417000       1.00800           0
     29044 TIP3     6376     TIP3     H2       HT       0.417000       1.00800           0
     29045 TIP3     6377     TIP3     OH2      OT      -0.834000       15.9994           0
     29046 TIP3     6377     TIP3     H1       HT       0.417000       1.00800           0
     29047 TIP3     6377     TIP3     H2       HT       0.417000       1.00800           0
     29048 TIP3     6378     TIP3     OH2      OT      -0.834000       15.9994           0
     29049 TIP3     6378     TIP3     H1       HT       0.417000       1.00800           0
     29050 TIP3     6378     TIP3     H2       HT       0.417000       1.00800           0
     29051 TIP3     6379     TIP3     OH2      OT      -0.834000       15.9994           0
     29052 TIP3     6379     TIP3     H1       HT       0.417000       1.00800           0
     29053 TIP3     6379     TIP3     H2       HT       0.417000       1.00800           0
     29054 TIP3     6380     TIP3     OH2      OT      -0.834000       15.9994           0
     29055 TIP3     6380     TIP3     H1       HT       0.417000       1.00800           0
     29056 TIP3     6380     TIP3     H2       HT       0.417000       1.00800           0
     29057 TIP3     6381     TIP3     OH2      OT      -0.834000       15.9994           0
     29058 TIP3     6381     TIP3     H1       HT       0.417000       1.00800           0
     29059 TIP3     6381     TIP3     H2       HT       0.417000       1.00800           0
     29060 TIP3     6382     TIP3     OH2      OT      -0.834000       15.9994           0
     29061 TIP3     6382     TIP3     H1       HT       0.417000       1.00800           0
     29062 TIP3     6382     TIP3     H2       HT       0.417000       1.00800           0
     29063 TIP3     6383     TIP3     OH2      OT      -0.834000       15.9994           0
     29064 TIP3     6383     TIP3     H1       HT       0.417000       1.00800           0
     29065 TIP3     6383     TIP3     H2       HT       0.417000       1.00800           0
     29066 TIP3     6384     TIP3     OH2      OT      -0.834000       15.9994           0
     29067 TIP3     6384     TIP3     H1       HT       0.417000       1.00800           0
     29068 TIP3     6384     TIP3     H2       HT       0.417000       1.00800           0
     29069 TIP3     6385     TIP3     OH2      OT      -0.834000       15.9994           0
     29070 TIP3     6385     TIP3     H1       HT       0.417000       1.00800           0
     29071 TIP3     6385     TIP3     H2       HT       0.417000       1.00800           0
     29072 TIP3     6386     TIP3     OH2      OT      -0.834000       15.9994           0
     29073 TIP3     6386     TIP3     H1       HT       0.417000       1.00800           0
     29074 TIP3     6386     TIP3     H2       HT       0.417000       1.00800           0
     29075 TIP3     6387     TIP3     OH2      OT      -0.834000       15.9994           0
     29076 TIP3     6387     TIP3     H1       HT       0.417000       1.00800           0
     29077 TIP3     6387     TIP3     H2       HT       0.417000       1.00800           0
     29078 TIP3     6388     TIP3     OH2      OT      -0.834000       15.9994           0
     29079 TIP3     6388     TIP3     H1       HT       0.417000       1.00800           0
     29080 TIP3     6388     TIP3     H2       HT       0.417000       1.00800           0
     29081 TIP3     6389     TIP3     OH2      OT      -0.834000       15.9994           0
     29082 TIP3     6389     TIP3     H1       HT       0.417000       1.00800           0
     29083 TIP3     6389     TIP3     H2       HT       0.417000       1.00800           0
     29084 TIP3     6390     TIP3     OH2      OT      -0.834000       15.9994           0
     29085 TIP3     6390     TIP3     H1       HT       0.417000       1.00800           0
     29086 TIP3     6390     TIP3     H2       HT       0.417000       1.00800           0
     29087 TIP3     6391     TIP3     OH2      OT      -0.834000       15.9994           0
     29088 TIP3     6391     TIP3     H1       HT       0.417000       1.00800           0
     29089 TIP3     6391     TIP3     H2       HT       0.417000       1.00800           0
     29090 TIP3     6392     TIP3     OH2      OT      -0.834000       15.9994           0
     29091 TIP3     6392     TIP3     H1       HT       0.417000       1.00800           0
     29092 TIP3     6392     TIP3     H2       HT       0.417000       1.00800           0
     29093 TIP3     6393     TIP3     OH2      OT      -0.834000       15.9994           0
     29094 TIP3     6393     TIP3     H1       HT       0.417000       1.00800           0
     29095 TIP3     6393     TIP3     H2       HT       0.417000       1.00800           0
     29096 TIP3     6394     TIP3     OH2      OT      -0.834000       15.9994           0
     29097 TIP3     6394     TIP3     H1       HT       0.417000       1.00800           0
     29098 TIP3     6394     TIP3     H2       HT       0.417000       1.00800           0
     29099 TIP3     6395     TIP3     OH2      OT      -0.834000       15.9994           0
     29100 TIP3     6395     TIP3     H1       HT       0.417000       1.00800           0
     29101 TIP3     6395     TIP3     H2       HT       0.417000       1.00800           0
     29102 TIP3     6396     TIP3     OH2      OT      -0.834000       15.9994           0
     29103 TIP3     6396     TIP3     H1       HT       0.417000       1.00800           0
     29104 TIP3     6396     TIP3     H2       HT       0.417000       1.00800           0
     29105 TIP3     6397     TIP3     OH2      OT      -0.834000       15.9994           0
     29106 TIP3     6397     TIP3     H1       HT       0.417000       1.00800           0
     29107 TIP3     6397     TIP3     H2       HT       0.417000       1.00800           0
     29108 TIP3     6398     TIP3     OH2      OT      -0.834000       15.9994           0
     29109 TIP3     6398     TIP3     H1       HT       0.417000       1.00800           0
     29110 TIP3     6398     TIP3     H2       HT       0.417000       1.00800           0
     29111 TIP3     6399     TIP3     OH2      OT      -0.834000       15.9994           0
     29112 TIP3     6399     TIP3     H1       HT       0.417000       1.00800           0
     29113 TIP3     6399     TIP3     H2       HT       0.417000       1.00800           0
     29114 TIP3     6400     TIP3     OH2      OT      -0.834000       15.9994           0
     29115 TIP3     6400     TIP3     H1       HT       0.417000       1.00800           0
     29116 TIP3     6400     TIP3     H2       HT       0.417000       1.00800           0
     29117 TIP3     6401     TIP3     OH2      OT      -0.834000       15.9994           0
     29118 TIP3     6401     TIP3     H1       HT       0.417000       1.00800           0
     29119 TIP3     6401     TIP3     H2       HT       0.417000       1.00800           0
     29120 TIP3     6402     TIP3     OH2      OT      -0.834000       15.9994           0
     29121 TIP3     6402     TIP3     H1       HT       0.417000       1.00800           0
     29122 TIP3     6402     TIP3     H2       HT       0.417000       1.00800           0
     29123 TIP3     6403     TIP3     OH2      OT      -0.834000       15.9994           0
     29124 TIP3     6403     TIP3     H1       HT       0.417000       1.00800           0
     29125 TIP3     6403     TIP3     H2       HT       0.417000       1.00800           0
     29126 TIP3     6404     TIP3     OH2      OT      -0.834000       15.9994           0
     29127 TIP3     6404     TIP3     H1       HT       0.417000       1.00800           0
     29128 TIP3     6404     TIP3     H2       HT       0.417000       1.00800           0
     29129 TIP3     6405     TIP3     OH2      OT      -0.834000       15.9994           0
     29130 TIP3     6405     TIP3     H1       HT       0.417000       1.00800           0
     29131 TIP3     6405     TIP3     H2       HT       0.417000       1.00800           0
     29132 TIP3     6406     TIP3     OH2      OT      -0.834000       15.9994           0
     29133 TIP3     6406     TIP3     H1       HT       0.417000       1.00800           0
     29134 TIP3     6406     TIP3     H2       HT       0.417000       1.00800           0
     29135 TIP3     6407     TIP3     OH2      OT      -0.834000       15.9994           0
     29136 TIP3     6407     TIP3     H1       HT       0.417000       1.00800           0
     29137 TIP3     6407     TIP3     H2       HT       0.417000       1.00800           0
     29138 TIP3     6408     TIP3     OH2      OT      -0.834000       15.9994           0
     29139 TIP3     6408     TIP3     H1       HT       0.417000       1.00800           0
     29140 TIP3     6408     TIP3     H2       HT       0.417000       1.00800           0
     29141 TIP3     6409     TIP3     OH2      OT      -0.834000       15.9994           0
     29142 TIP3     6409     TIP3     H1       HT       0.417000       1.00800           0
     29143 TIP3     6409     TIP3     H2       HT       0.417000       1.00800           0
     29144 TIP3     6410     TIP3     OH2      OT      -0.834000       15.9994           0
     29145 TIP3     6410     TIP3     H1       HT       0.417000       1.00800           0
     29146 TIP3     6410     TIP3     H2       HT       0.417000       1.00800           0
     29147 TIP3     6411     TIP3     OH2      OT      -0.834000       15.9994           0
     29148 TIP3     6411     TIP3     H1       HT       0.417000       1.00800           0
     29149 TIP3     6411     TIP3     H2       HT       0.417000       1.00800           0
     29150 TIP3     6412     TIP3     OH2      OT      -0.834000       15.9994           0
     29151 TIP3     6412     TIP3     H1       HT       0.417000       1.00800           0
     29152 TIP3     6412     TIP3     H2       HT       0.417000       1.00800           0
     29153 TIP3     6413     TIP3     OH2      OT      -0.834000       15.9994           0
     29154 TIP3     6413     TIP3     H1       HT       0.417000       1.00800           0
     29155 TIP3     6413     TIP3     H2       HT       0.417000       1.00800           0
     29156 TIP3     6414     TIP3     OH2      OT      -0.834000       15.9994           0
     29157 TIP3     6414     TIP3     H1       HT       0.417000       1.00800           0
     29158 TIP3     6414     TIP3     H2       HT       0.417000       1.00800           0
     29159 TIP3     6415     TIP3     OH2      OT      -0.834000       15.9994           0
     29160 TIP3     6415     TIP3     H1       HT       0.417000       1.00800           0
     29161 TIP3     6415     TIP3     H2       HT       0.417000       1.00800           0
     29162 TIP3     6416     TIP3     OH2      OT      -0.834000       15.9994           0
     29163 TIP3     6416     TIP3     H1       HT       0.417000       1.00800           0
     29164 TIP3     6416     TIP3     H2       HT       0.417000       1.00800           0
     29165 TIP3     6417     TIP3     OH2      OT      -0.834000       15.9994           0
     29166 TIP3     6417     TIP3     H1       HT       0.417000       1.00800           0
     29167 TIP3     6417     TIP3     H2       HT       0.417000       1.00800           0
     29168 TIP3     6418     TIP3     OH2      OT      -0.834000       15.9994           0
     29169 TIP3     6418     TIP3     H1       HT       0.417000       1.00800           0
     29170 TIP3     6418     TIP3     H2       HT       0.417000       1.00800           0
     29171 TIP3     6419     TIP3     OH2      OT      -0.834000       15.9994           0
     29172 TIP3     6419     TIP3     H1       HT       0.417000       1.00800           0
     29173 TIP3     6419     TIP3     H2       HT       0.417000       1.00800           0
     29174 TIP3     6420     TIP3     OH2      OT      -0.834000       15.9994           0
     29175 TIP3     6420     TIP3     H1       HT       0.417000       1.00800           0
     29176 TIP3     6420     TIP3     H2       HT       0.417000       1.00800           0
     29177 TIP3     6421     TIP3     OH2      OT      -0.834000       15.9994           0
     29178 TIP3     6421     TIP3     H1       HT       0.417000       1.00800           0
     29179 TIP3     6421     TIP3     H2       HT       0.417000       1.00800           0
     29180 TIP3     6422     TIP3     OH2      OT      -0.834000       15.9994           0
     29181 TIP3     6422     TIP3     H1       HT       0.417000       1.00800           0
     29182 TIP3     6422     TIP3     H2       HT       0.417000       1.00800           0
     29183 TIP3     6423     TIP3     OH2      OT      -0.834000       15.9994           0
     29184 TIP3     6423     TIP3     H1       HT       0.417000       1.00800           0
     29185 TIP3     6423     TIP3     H2       HT       0.417000       1.00800           0
     29186 TIP3     6424     TIP3     OH2      OT      -0.834000       15.9994           0
     29187 TIP3     6424     TIP3     H1       HT       0.417000       1.00800           0
     29188 TIP3     6424     TIP3     H2       HT       0.417000       1.00800           0
     29189 TIP3     6425     TIP3     OH2      OT      -0.834000       15.9994           0
     29190 TIP3     6425     TIP3     H1       HT       0.417000       1.00800           0
     29191 TIP3     6425     TIP3     H2       HT       0.417000       1.00800           0
     29192 TIP3     6426     TIP3     OH2      OT      -0.834000       15.9994           0
     29193 TIP3     6426     TIP3     H1       HT       0.417000       1.00800           0
     29194 TIP3     6426     TIP3     H2       HT       0.417000       1.00800           0
     29195 TIP3     6427     TIP3     OH2      OT      -0.834000       15.9994           0
     29196 TIP3     6427     TIP3     H1       HT       0.417000       1.00800           0
     29197 TIP3     6427     TIP3     H2       HT       0.417000       1.00800           0
     29198 TIP3     6428     TIP3     OH2      OT      -0.834000       15.9994           0
     29199 TIP3     6428     TIP3     H1       HT       0.417000       1.00800           0
     29200 TIP3     6428     TIP3     H2       HT       0.417000       1.00800           0
     29201 TIP3     6429     TIP3     OH2      OT      -0.834000       15.9994           0
     29202 TIP3     6429     TIP3     H1       HT       0.417000       1.00800           0
     29203 TIP3     6429     TIP3     H2       HT       0.417000       1.00800           0
     29204 TIP3     6430     TIP3     OH2      OT      -0.834000       15.9994           0
     29205 TIP3     6430     TIP3     H1       HT       0.417000       1.00800           0
     29206 TIP3     6430     TIP3     H2       HT       0.417000       1.00800           0
     29207 TIP3     6431     TIP3     OH2      OT      -0.834000       15.9994           0
     29208 TIP3     6431     TIP3     H1       HT       0.417000       1.00800           0
     29209 TIP3     6431     TIP3     H2       HT       0.417000       1.00800           0
     29210 TIP3     6432     TIP3     OH2      OT      -0.834000       15.9994           0
     29211 TIP3     6432     TIP3     H1       HT       0.417000       1.00800           0
     29212 TIP3     6432     TIP3     H2       HT       0.417000       1.00800           0
     29213 TIP3     6433     TIP3     OH2      OT      -0.834000       15.9994           0
     29214 TIP3     6433     TIP3     H1       HT       0.417000       1.00800           0
     29215 TIP3     6433     TIP3     H2       HT       0.417000       1.00800           0
     29216 TIP3     6434     TIP3     OH2      OT      -0.834000       15.9994           0
     29217 TIP3     6434     TIP3     H1       HT       0.417000       1.00800           0
     29218 TIP3     6434     TIP3     H2       HT       0.417000       1.00800           0
     29219 TIP3     6435     TIP3     OH2      OT      -0.834000       15.9994           0
     29220 TIP3     6435     TIP3     H1       HT       0.417000       1.00800           0
     29221 TIP3     6435     TIP3     H2       HT       0.417000       1.00800           0
     29222 TIP3     6436     TIP3     OH2      OT      -0.834000       15.9994           0
     29223 TIP3     6436     TIP3     H1       HT       0.417000       1.00800           0
     29224 TIP3     6436     TIP3     H2       HT       0.417000       1.00800           0
     29225 TIP3     6437     TIP3     OH2      OT      -0.834000       15.9994           0
     29226 TIP3     6437     TIP3     H1       HT       0.417000       1.00800           0
     29227 TIP3     6437     TIP3     H2       HT       0.417000       1.00800           0
     29228 TIP3     6438     TIP3     OH2      OT      -0.834000       15.9994           0
     29229 TIP3     6438     TIP3     H1       HT       0.417000       1.00800           0
     29230 TIP3     6438     TIP3     H2       HT       0.417000       1.00800           0
     29231 TIP3     6439     TIP3     OH2      OT      -0.834000       15.9994           0
     29232 TIP3     6439     TIP3     H1       HT       0.417000       1.00800           0
     29233 TIP3     6439     TIP3     H2       HT       0.417000       1.00800           0
     29234 TIP3     6440     TIP3     OH2      OT      -0.834000       15.9994           0
     29235 TIP3     6440     TIP3     H1       HT       0.417000       1.00800           0
     29236 TIP3     6440     TIP3     H2       HT       0.417000       1.00800           0
     29237 TIP3     6441     TIP3     OH2      OT      -0.834000       15.9994           0
     29238 TIP3     6441     TIP3     H1       HT       0.417000       1.00800           0
     29239 TIP3     6441     TIP3     H2       HT       0.417000       1.00800           0
     29240 TIP3     6442     TIP3     OH2      OT      -0.834000       15.9994           0
     29241 TIP3     6442     TIP3     H1       HT       0.417000       1.00800           0
     29242 TIP3     6442     TIP3     H2       HT       0.417000       1.00800           0
     29243 TIP3     6443     TIP3     OH2      OT      -0.834000       15.9994           0
     29244 TIP3     6443     TIP3     H1       HT       0.417000       1.00800           0
     29245 TIP3     6443     TIP3     H2       HT       0.417000       1.00800           0
     29246 TIP3     6444     TIP3     OH2      OT      -0.834000       15.9994           0
     29247 TIP3     6444     TIP3     H1       HT       0.417000       1.00800           0
     29248 TIP3     6444     TIP3     H2       HT       0.417000       1.00800           0
     29249 TIP3     6445     TIP3     OH2      OT      -0.834000       15.9994           0
     29250 TIP3     6445     TIP3     H1       HT       0.417000       1.00800           0
     29251 TIP3     6445     TIP3     H2       HT       0.417000       1.00800           0
     29252 TIP3     6446     TIP3     OH2      OT      -0.834000       15.9994           0
     29253 TIP3     6446     TIP3     H1       HT       0.417000       1.00800           0
     29254 TIP3     6446     TIP3     H2       HT       0.417000       1.00800           0
     29255 TIP3     6447     TIP3     OH2      OT      -0.834000       15.9994           0
     29256 TIP3     6447     TIP3     H1       HT       0.417000       1.00800           0
     29257 TIP3     6447     TIP3     H2       HT       0.417000       1.00800           0
     29258 TIP3     6448     TIP3     OH2      OT      -0.834000       15.9994           0
     29259 TIP3     6448     TIP3     H1       HT       0.417000       1.00800           0
     29260 TIP3     6448     TIP3     H2       HT       0.417000       1.00800           0
     29261 TIP3     6449     TIP3     OH2      OT      -0.834000       15.9994           0
     29262 TIP3     6449     TIP3     H1       HT       0.417000       1.00800           0
     29263 TIP3     6449     TIP3     H2       HT       0.417000       1.00800           0
     29264 TIP3     6450     TIP3     OH2      OT      -0.834000       15.9994           0
     29265 TIP3     6450     TIP3     H1       HT       0.417000       1.00800           0
     29266 TIP3     6450     TIP3     H2       HT       0.417000       1.00800           0
     29267 TIP3     6451     TIP3     OH2      OT      -0.834000       15.9994           0
     29268 TIP3     6451     TIP3     H1       HT       0.417000       1.00800           0
     29269 TIP3     6451     TIP3     H2       HT       0.417000       1.00800           0
     29270 TIP3     6452     TIP3     OH2      OT      -0.834000       15.9994           0
     29271 TIP3     6452     TIP3     H1       HT       0.417000       1.00800           0
     29272 TIP3     6452     TIP3     H2       HT       0.417000       1.00800           0
     29273 TIP3     6453     TIP3     OH2      OT      -0.834000       15.9994           0
     29274 TIP3     6453     TIP3     H1       HT       0.417000       1.00800           0
     29275 TIP3     6453     TIP3     H2       HT       0.417000       1.00800           0
     29276 TIP3     6454     TIP3     OH2      OT      -0.834000       15.9994           0
     29277 TIP3     6454     TIP3     H1       HT       0.417000       1.00800           0
     29278 TIP3     6454     TIP3     H2       HT       0.417000       1.00800           0
     29279 TIP3     6455     TIP3     OH2      OT      -0.834000       15.9994           0
     29280 TIP3     6455     TIP3     H1       HT       0.417000       1.00800           0
     29281 TIP3     6455     TIP3     H2       HT       0.417000       1.00800           0
     29282 TIP3     6456     TIP3     OH2      OT      -0.834000       15.9994           0
     29283 TIP3     6456     TIP3     H1       HT       0.417000       1.00800           0
     29284 TIP3     6456     TIP3     H2       HT       0.417000       1.00800           0
     29285 TIP3     6457     TIP3     OH2      OT      -0.834000       15.9994           0
     29286 TIP3     6457     TIP3     H1       HT       0.417000       1.00800           0
     29287 TIP3     6457     TIP3     H2       HT       0.417000       1.00800           0
     29288 TIP3     6458     TIP3     OH2      OT      -0.834000       15.9994           0
     29289 TIP3     6458     TIP3     H1       HT       0.417000       1.00800           0
     29290 TIP3     6458     TIP3     H2       HT       0.417000       1.00800           0
     29291 TIP3     6459     TIP3     OH2      OT      -0.834000       15.9994           0
     29292 TIP3     6459     TIP3     H1       HT       0.417000       1.00800           0
     29293 TIP3     6459     TIP3     H2       HT       0.417000       1.00800           0
     29294 TIP3     6460     TIP3     OH2      OT      -0.834000       15.9994           0
     29295 TIP3     6460     TIP3     H1       HT       0.417000       1.00800           0
     29296 TIP3     6460     TIP3     H2       HT       0.417000       1.00800           0
     29297 TIP3     6461     TIP3     OH2      OT      -0.834000       15.9994           0
     29298 TIP3     6461     TIP3     H1       HT       0.417000       1.00800           0
     29299 TIP3     6461     TIP3     H2       HT       0.417000       1.00800           0
     29300 TIP3     6462     TIP3     OH2      OT      -0.834000       15.9994           0
     29301 TIP3     6462     TIP3     H1       HT       0.417000       1.00800           0
     29302 TIP3     6462     TIP3     H2       HT       0.417000       1.00800           0
     29303 TIP3     6463     TIP3     OH2      OT      -0.834000       15.9994           0
     29304 TIP3     6463     TIP3     H1       HT       0.417000       1.00800           0
     29305 TIP3     6463     TIP3     H2       HT       0.417000       1.00800           0
     29306 TIP3     6464     TIP3     OH2      OT      -0.834000       15.9994           0
     29307 TIP3     6464     TIP3     H1       HT       0.417000       1.00800           0
     29308 TIP3     6464     TIP3     H2       HT       0.417000       1.00800           0
     29309 TIP3     6465     TIP3     OH2      OT      -0.834000       15.9994           0
     29310 TIP3     6465     TIP3     H1       HT       0.417000       1.00800           0
     29311 TIP3     6465     TIP3     H2       HT       0.417000       1.00800           0
     29312 TIP3     6466     TIP3     OH2      OT      -0.834000       15.9994           0
     29313 TIP3     6466     TIP3     H1       HT       0.417000       1.00800           0
     29314 TIP3     6466     TIP3     H2       HT       0.417000       1.00800           0
     29315 TIP3     6467     TIP3     OH2      OT      -0.834000       15.9994           0
     29316 TIP3     6467     TIP3     H1       HT       0.417000       1.00800           0
     29317 TIP3     6467     TIP3     H2       HT       0.417000       1.00800           0
     29318 TIP3     6468     TIP3     OH2      OT      -0.834000       15.9994           0
     29319 TIP3     6468     TIP3     H1       HT       0.417000       1.00800           0
     29320 TIP3     6468     TIP3     H2       HT       0.417000       1.00800           0
     29321 TIP3     6469     TIP3     OH2      OT      -0.834000       15.9994           0
     29322 TIP3     6469     TIP3     H1       HT       0.417000       1.00800           0
     29323 TIP3     6469     TIP3     H2       HT       0.417000       1.00800           0
     29324 TIP3     6470     TIP3     OH2      OT      -0.834000       15.9994           0
     29325 TIP3     6470     TIP3     H1       HT       0.417000       1.00800           0
     29326 TIP3     6470     TIP3     H2       HT       0.417000       1.00800           0
     29327 TIP3     6471     TIP3     OH2      OT      -0.834000       15.9994           0
     29328 TIP3     6471     TIP3     H1       HT       0.417000       1.00800           0
     29329 TIP3     6471     TIP3     H2       HT       0.417000       1.00800           0
     29330 TIP3     6472     TIP3     OH2      OT      -0.834000       15.9994           0
     29331 TIP3     6472     TIP3     H1       HT       0.417000       1.00800           0
     29332 TIP3     6472     TIP3     H2       HT       0.417000       1.00800           0
     29333 TIP3     6473     TIP3     OH2      OT      -0.834000       15.9994           0
     29334 TIP3     6473     TIP3     H1       HT       0.417000       1.00800           0
     29335 TIP3     6473     TIP3     H2       HT       0.417000       1.00800           0
     29336 TIP3     6474     TIP3     OH2      OT      -0.834000       15.9994           0
     29337 TIP3     6474     TIP3     H1       HT       0.417000       1.00800           0
     29338 TIP3     6474     TIP3     H2       HT       0.417000       1.00800           0
     29339 TIP3     6475     TIP3     OH2      OT      -0.834000       15.9994           0
     29340 TIP3     6475     TIP3     H1       HT       0.417000       1.00800           0
     29341 TIP3     6475     TIP3     H2       HT       0.417000       1.00800           0
     29342 TIP3     6476     TIP3     OH2      OT      -0.834000       15.9994           0
     29343 TIP3     6476     TIP3     H1       HT       0.417000       1.00800           0
     29344 TIP3     6476     TIP3     H2       HT       0.417000       1.00800           0
     29345 TIP3     6477     TIP3     OH2      OT      -0.834000       15.9994           0
     29346 TIP3     6477     TIP3     H1       HT       0.417000       1.00800           0
     29347 TIP3     6477     TIP3     H2       HT       0.417000       1.00800           0
     29348 TIP3     6478     TIP3     OH2      OT      -0.834000       15.9994           0
     29349 TIP3     6478     TIP3     H1       HT       0.417000       1.00800           0
     29350 TIP3     6478     TIP3     H2       HT       0.417000       1.00800           0
     29351 TIP3     6479     TIP3     OH2      OT      -0.834000       15.9994           0
     29352 TIP3     6479     TIP3     H1       HT       0.417000       1.00800           0
     29353 TIP3     6479     TIP3     H2       HT       0.417000       1.00800           0
     29354 TIP3     6480     TIP3     OH2      OT      -0.834000       15.9994           0
     29355 TIP3     6480     TIP3     H1       HT       0.417000       1.00800           0
     29356 TIP3     6480     TIP3     H2       HT       0.417000       1.00800           0
     29357 TIP3     6481     TIP3     OH2      OT      -0.834000       15.9994           0
     29358 TIP3     6481     TIP3     H1       HT       0.417000       1.00800           0
     29359 TIP3     6481     TIP3     H2       HT       0.417000       1.00800           0
     29360 TIP3     6482     TIP3     OH2      OT      -0.834000       15.9994           0
     29361 TIP3     6482     TIP3     H1       HT       0.417000       1.00800           0
     29362 TIP3     6482     TIP3     H2       HT       0.417000       1.00800           0
     29363 TIP3     6483     TIP3     OH2      OT      -0.834000       15.9994           0
     29364 TIP3     6483     TIP3     H1       HT       0.417000       1.00800           0
     29365 TIP3     6483     TIP3     H2       HT       0.417000       1.00800           0
     29366 TIP3     6484     TIP3     OH2      OT      -0.834000       15.9994           0
     29367 TIP3     6484     TIP3     H1       HT       0.417000       1.00800           0
     29368 TIP3     6484     TIP3     H2       HT       0.417000       1.00800           0
     29369 TIP3     6485     TIP3     OH2      OT      -0.834000       15.9994           0
     29370 TIP3     6485     TIP3     H1       HT       0.417000       1.00800           0
     29371 TIP3     6485     TIP3     H2       HT       0.417000       1.00800           0
     29372 TIP3     6486     TIP3     OH2      OT      -0.834000       15.9994           0
     29373 TIP3     6486     TIP3     H1       HT       0.417000       1.00800           0
     29374 TIP3     6486     TIP3     H2       HT       0.417000       1.00800           0
     29375 TIP3     6487     TIP3     OH2      OT      -0.834000       15.9994           0
     29376 TIP3     6487     TIP3     H1       HT       0.417000       1.00800           0
     29377 TIP3     6487     TIP3     H2       HT       0.417000       1.00800           0
     29378 TIP3     6488     TIP3     OH2      OT      -0.834000       15.9994           0
     29379 TIP3     6488     TIP3     H1       HT       0.417000       1.00800           0
     29380 TIP3     6488     TIP3     H2       HT       0.417000       1.00800           0
     29381 TIP3     6489     TIP3     OH2      OT      -0.834000       15.9994           0
     29382 TIP3     6489     TIP3     H1       HT       0.417000       1.00800           0
     29383 TIP3     6489     TIP3     H2       HT       0.417000       1.00800           0
     29384 TIP3     6490     TIP3     OH2      OT      -0.834000       15.9994           0
     29385 TIP3     6490     TIP3     H1       HT       0.417000       1.00800           0
     29386 TIP3     6490     TIP3     H2       HT       0.417000       1.00800           0
     29387 TIP3     6491     TIP3     OH2      OT      -0.834000       15.9994           0
     29388 TIP3     6491     TIP3     H1       HT       0.417000       1.00800           0
     29389 TIP3     6491     TIP3     H2       HT       0.417000       1.00800           0
     29390 TIP3     6492     TIP3     OH2      OT      -0.834000       15.9994           0
     29391 TIP3     6492     TIP3     H1       HT       0.417000       1.00800           0
     29392 TIP3     6492     TIP3     H2       HT       0.417000       1.00800           0
     29393 TIP3     6493     TIP3     OH2      OT      -0.834000       15.9994           0
     29394 TIP3     6493     TIP3     H1       HT       0.417000       1.00800           0
     29395 TIP3     6493     TIP3     H2       HT       0.417000       1.00800           0
     29396 TIP3     6494     TIP3     OH2      OT      -0.834000       15.9994           0
     29397 TIP3     6494     TIP3     H1       HT       0.417000       1.00800           0
     29398 TIP3     6494     TIP3     H2       HT       0.417000       1.00800           0
     29399 TIP3     6495     TIP3     OH2      OT      -0.834000       15.9994           0
     29400 TIP3     6495     TIP3     H1       HT       0.417000       1.00800           0
     29401 TIP3     6495     TIP3     H2       HT       0.417000       1.00800           0
     29402 TIP3     6496     TIP3     OH2      OT      -0.834000       15.9994           0
     29403 TIP3     6496     TIP3     H1       HT       0.417000       1.00800           0
     29404 TIP3     6496     TIP3     H2       HT       0.417000       1.00800           0
     29405 TIP3     6497     TIP3     OH2      OT      -0.834000       15.9994           0
     29406 TIP3     6497     TIP3     H1       HT       0.417000       1.00800           0
     29407 TIP3     6497     TIP3     H2       HT       0.417000       1.00800           0
     29408 TIP3     6498     TIP3     OH2      OT      -0.834000       15.9994           0
     29409 TIP3     6498     TIP3     H1       HT       0.417000       1.00800           0
     29410 TIP3     6498     TIP3     H2       HT       0.417000       1.00800           0
     29411 TIP3     6499     TIP3     OH2      OT      -0.834000       15.9994           0
     29412 TIP3     6499     TIP3     H1       HT       0.417000       1.00800           0
     29413 TIP3     6499     TIP3     H2       HT       0.417000       1.00800           0
     29414 TIP3     6500     TIP3     OH2      OT      -0.834000       15.9994           0
     29415 TIP3     6500     TIP3     H1       HT       0.417000       1.00800           0
     29416 TIP3     6500     TIP3     H2       HT       0.417000       1.00800           0
     29417 TIP3     6501     TIP3     OH2      OT      -0.834000       15.9994           0
     29418 TIP3     6501     TIP3     H1       HT       0.417000       1.00800           0
     29419 TIP3     6501     TIP3     H2       HT       0.417000       1.00800           0
     29420 TIP3     6502     TIP3     OH2      OT      -0.834000       15.9994           0
     29421 TIP3     6502     TIP3     H1       HT       0.417000       1.00800           0
     29422 TIP3     6502     TIP3     H2       HT       0.417000       1.00800           0
     29423 TIP3     6503     TIP3     OH2      OT      -0.834000       15.9994           0
     29424 TIP3     6503     TIP3     H1       HT       0.417000       1.00800           0
     29425 TIP3     6503     TIP3     H2       HT       0.417000       1.00800           0
     29426 TIP3     6504     TIP3     OH2      OT      -0.834000       15.9994           0
     29427 TIP3     6504     TIP3     H1       HT       0.417000       1.00800           0
     29428 TIP3     6504     TIP3     H2       HT       0.417000       1.00800           0
     29429 TIP3     6505     TIP3     OH2      OT      -0.834000       15.9994           0
     29430 TIP3     6505     TIP3     H1       HT       0.417000       1.00800           0
     29431 TIP3     6505     TIP3     H2       HT       0.417000       1.00800           0
     29432 TIP3     6506     TIP3     OH2      OT      -0.834000       15.9994           0
     29433 TIP3     6506     TIP3     H1       HT       0.417000       1.00800           0
     29434 TIP3     6506     TIP3     H2       HT       0.417000       1.00800           0
     29435 TIP3     6507     TIP3     OH2      OT      -0.834000       15.9994           0
     29436 TIP3     6507     TIP3     H1       HT       0.417000       1.00800           0
     29437 TIP3     6507     TIP3     H2       HT       0.417000       1.00800           0
     29438 TIP3     6508     TIP3     OH2      OT      -0.834000       15.9994           0
     29439 TIP3     6508     TIP3     H1       HT       0.417000       1.00800           0
     29440 TIP3     6508     TIP3     H2       HT       0.417000       1.00800           0
     29441 TIP3     6509     TIP3     OH2      OT      -0.834000       15.9994           0
     29442 TIP3     6509     TIP3     H1       HT       0.417000       1.00800           0
     29443 TIP3     6509     TIP3     H2       HT       0.417000       1.00800           0
     29444 TIP3     6510     TIP3     OH2      OT      -0.834000       15.9994           0
     29445 TIP3     6510     TIP3     H1       HT       0.417000       1.00800           0
     29446 TIP3     6510     TIP3     H2       HT       0.417000       1.00800           0
     29447 TIP3     6511     TIP3     OH2      OT      -0.834000       15.9994           0
     29448 TIP3     6511     TIP3     H1       HT       0.417000       1.00800           0
     29449 TIP3     6511     TIP3     H2       HT       0.417000       1.00800           0
     29450 TIP3     6512     TIP3     OH2      OT      -0.834000       15.9994           0
     29451 TIP3     6512     TIP3     H1       HT       0.417000       1.00800           0
     29452 TIP3     6512     TIP3     H2       HT       0.417000       1.00800           0
     29453 TIP3     6513     TIP3     OH2      OT      -0.834000       15.9994           0
     29454 TIP3     6513     TIP3     H1       HT       0.417000       1.00800           0
     29455 TIP3     6513     TIP3     H2       HT       0.417000       1.00800           0
     29456 TIP3     6514     TIP3     OH2      OT      -0.834000       15.9994           0
     29457 TIP3     6514     TIP3     H1       HT       0.417000       1.00800           0
     29458 TIP3     6514     TIP3     H2       HT       0.417000       1.00800           0
     29459 TIP3     6515     TIP3     OH2      OT      -0.834000       15.9994           0
     29460 TIP3     6515     TIP3     H1       HT       0.417000       1.00800           0
     29461 TIP3     6515     TIP3     H2       HT       0.417000       1.00800           0
     29462 TIP3     6516     TIP3     OH2      OT      -0.834000       15.9994           0
     29463 TIP3     6516     TIP3     H1       HT       0.417000       1.00800           0
     29464 TIP3     6516     TIP3     H2       HT       0.417000       1.00800           0
     29465 TIP3     6517     TIP3     OH2      OT      -0.834000       15.9994           0
     29466 TIP3     6517     TIP3     H1       HT       0.417000       1.00800           0
     29467 TIP3     6517     TIP3     H2       HT       0.417000       1.00800           0
     29468 TIP3     6518     TIP3     OH2      OT      -0.834000       15.9994           0
     29469 TIP3     6518     TIP3     H1       HT       0.417000       1.00800           0
     29470 TIP3     6518     TIP3     H2       HT       0.417000       1.00800           0
     29471 TIP3     6519     TIP3     OH2      OT      -0.834000       15.9994           0
     29472 TIP3     6519     TIP3     H1       HT       0.417000       1.00800           0
     29473 TIP3     6519     TIP3     H2       HT       0.417000       1.00800           0
     29474 TIP3     6520     TIP3     OH2      OT      -0.834000       15.9994           0
     29475 TIP3     6520     TIP3     H1       HT       0.417000       1.00800           0
     29476 TIP3     6520     TIP3     H2       HT       0.417000       1.00800           0
     29477 TIP3     6521     TIP3     OH2      OT      -0.834000       15.9994           0
     29478 TIP3     6521     TIP3     H1       HT       0.417000       1.00800           0
     29479 TIP3     6521     TIP3     H2       HT       0.417000       1.00800           0
     29480 TIP3     6522     TIP3     OH2      OT      -0.834000       15.9994           0
     29481 TIP3     6522     TIP3     H1       HT       0.417000       1.00800           0
     29482 TIP3     6522     TIP3     H2       HT       0.417000       1.00800           0
     29483 TIP3     6523     TIP3     OH2      OT      -0.834000       15.9994           0
     29484 TIP3     6523     TIP3     H1       HT       0.417000       1.00800           0
     29485 TIP3     6523     TIP3     H2       HT       0.417000       1.00800           0
     29486 TIP3     6524     TIP3     OH2      OT      -0.834000       15.9994           0
     29487 TIP3     6524     TIP3     H1       HT       0.417000       1.00800           0
     29488 TIP3     6524     TIP3     H2       HT       0.417000       1.00800           0
     29489 TIP3     6525     TIP3     OH2      OT      -0.834000       15.9994           0
     29490 TIP3     6525     TIP3     H1       HT       0.417000       1.00800           0
     29491 TIP3     6525     TIP3     H2       HT       0.417000       1.00800           0
     29492 TIP3     6526     TIP3     OH2      OT      -0.834000       15.9994           0
     29493 TIP3     6526     TIP3     H1       HT       0.417000       1.00800           0
     29494 TIP3     6526     TIP3     H2       HT       0.417000       1.00800           0
     29495 TIP3     6527     TIP3     OH2      OT      -0.834000       15.9994           0
     29496 TIP3     6527     TIP3     H1       HT       0.417000       1.00800           0
     29497 TIP3     6527     TIP3     H2       HT       0.417000       1.00800           0
     29498 TIP3     6528     TIP3     OH2      OT      -0.834000       15.9994           0
     29499 TIP3     6528     TIP3     H1       HT       0.417000       1.00800           0
     29500 TIP3     6528     TIP3     H2       HT       0.417000       1.00800           0
     29501 TIP3     6529     TIP3     OH2      OT      -0.834000       15.9994           0
     29502 TIP3     6529     TIP3     H1       HT       0.417000       1.00800           0
     29503 TIP3     6529     TIP3     H2       HT       0.417000       1.00800           0
     29504 TIP3     6530     TIP3     OH2      OT      -0.834000       15.9994           0
     29505 TIP3     6530     TIP3     H1       HT       0.417000       1.00800           0
     29506 TIP3     6530     TIP3     H2       HT       0.417000       1.00800           0
     29507 TIP3     6531     TIP3     OH2      OT      -0.834000       15.9994           0
     29508 TIP3     6531     TIP3     H1       HT       0.417000       1.00800           0
     29509 TIP3     6531     TIP3     H2       HT       0.417000       1.00800           0
     29510 TIP3     6532     TIP3     OH2      OT      -0.834000       15.9994           0
     29511 TIP3     6532     TIP3     H1       HT       0.417000       1.00800           0
     29512 TIP3     6532     TIP3     H2       HT       0.417000       1.00800           0
     29513 TIP3     6533     TIP3     OH2      OT      -0.834000       15.9994           0
     29514 TIP3     6533     TIP3     H1       HT       0.417000       1.00800           0
     29515 TIP3     6533     TIP3     H2       HT       0.417000       1.00800           0
     29516 TIP3     6534     TIP3     OH2      OT      -0.834000       15.9994           0
     29517 TIP3     6534     TIP3     H1       HT       0.417000       1.00800           0
     29518 TIP3     6534     TIP3     H2       HT       0.417000       1.00800           0
     29519 TIP3     6535     TIP3     OH2      OT      -0.834000       15.9994           0
     29520 TIP3     6535     TIP3     H1       HT       0.417000       1.00800           0
     29521 TIP3     6535     TIP3     H2       HT       0.417000       1.00800           0
     29522 TIP3     6536     TIP3     OH2      OT      -0.834000       15.9994           0
     29523 TIP3     6536     TIP3     H1       HT       0.417000       1.00800           0
     29524 TIP3     6536     TIP3     H2       HT       0.417000       1.00800           0
     29525 TIP3     6537     TIP3     OH2      OT      -0.834000       15.9994           0
     29526 TIP3     6537     TIP3     H1       HT       0.417000       1.00800           0
     29527 TIP3     6537     TIP3     H2       HT       0.417000       1.00800           0
     29528 TIP3     6538     TIP3     OH2      OT      -0.834000       15.9994           0
     29529 TIP3     6538     TIP3     H1       HT       0.417000       1.00800           0
     29530 TIP3     6538     TIP3     H2       HT       0.417000       1.00800           0
     29531 TIP3     6539     TIP3     OH2      OT      -0.834000       15.9994           0
     29532 TIP3     6539     TIP3     H1       HT       0.417000       1.00800           0
     29533 TIP3     6539     TIP3     H2       HT       0.417000       1.00800           0
     29534 TIP3     6540     TIP3     OH2      OT      -0.834000       15.9994           0
     29535 TIP3     6540     TIP3     H1       HT       0.417000       1.00800           0
     29536 TIP3     6540     TIP3     H2       HT       0.417000       1.00800           0
     29537 TIP3     6541     TIP3     OH2      OT      -0.834000       15.9994           0
     29538 TIP3     6541     TIP3     H1       HT       0.417000       1.00800           0
     29539 TIP3     6541     TIP3     H2       HT       0.417000       1.00800           0
     29540 TIP3     6542     TIP3     OH2      OT      -0.834000       15.9994           0
     29541 TIP3     6542     TIP3     H1       HT       0.417000       1.00800           0
     29542 TIP3     6542     TIP3     H2       HT       0.417000       1.00800           0
     29543 TIP3     6543     TIP3     OH2      OT      -0.834000       15.9994           0
     29544 TIP3     6543     TIP3     H1       HT       0.417000       1.00800           0
     29545 TIP3     6543     TIP3     H2       HT       0.417000       1.00800           0
     29546 TIP3     6544     TIP3     OH2      OT      -0.834000       15.9994           0
     29547 TIP3     6544     TIP3     H1       HT       0.417000       1.00800           0
     29548 TIP3     6544     TIP3     H2       HT       0.417000       1.00800           0
     29549 TIP3     6545     TIP3     OH2      OT      -0.834000       15.9994           0
     29550 TIP3     6545     TIP3     H1       HT       0.417000       1.00800           0
     29551 TIP3     6545     TIP3     H2       HT       0.417000       1.00800           0
     29552 TIP3     6546     TIP3     OH2      OT      -0.834000       15.9994           0
     29553 TIP3     6546     TIP3     H1       HT       0.417000       1.00800           0
     29554 TIP3     6546     TIP3     H2       HT       0.417000       1.00800           0
     29555 TIP3     6547     TIP3     OH2      OT      -0.834000       15.9994           0
     29556 TIP3     6547     TIP3     H1       HT       0.417000       1.00800           0
     29557 TIP3     6547     TIP3     H2       HT       0.417000       1.00800           0
     29558 TIP3     6548     TIP3     OH2      OT      -0.834000       15.9994           0
     29559 TIP3     6548     TIP3     H1       HT       0.417000       1.00800           0
     29560 TIP3     6548     TIP3     H2       HT       0.417000       1.00800           0
     29561 TIP3     6549     TIP3     OH2      OT      -0.834000       15.9994           0
     29562 TIP3     6549     TIP3     H1       HT       0.417000       1.00800           0
     29563 TIP3     6549     TIP3     H2       HT       0.417000       1.00800           0
     29564 TIP3     6550     TIP3     OH2      OT      -0.834000       15.9994           0
     29565 TIP3     6550     TIP3     H1       HT       0.417000       1.00800           0
     29566 TIP3     6550     TIP3     H2       HT       0.417000       1.00800           0
     29567 TIP3     6551     TIP3     OH2      OT      -0.834000       15.9994           0
     29568 TIP3     6551     TIP3     H1       HT       0.417000       1.00800           0
     29569 TIP3     6551     TIP3     H2       HT       0.417000       1.00800           0
     29570 TIP3     6552     TIP3     OH2      OT      -0.834000       15.9994           0
     29571 TIP3     6552     TIP3     H1       HT       0.417000       1.00800           0
     29572 TIP3     6552     TIP3     H2       HT       0.417000       1.00800           0
     29573 TIP3     6553     TIP3     OH2      OT      -0.834000       15.9994           0
     29574 TIP3     6553     TIP3     H1       HT       0.417000       1.00800           0
     29575 TIP3     6553     TIP3     H2       HT       0.417000       1.00800           0
     29576 TIP3     6554     TIP3     OH2      OT      -0.834000       15.9994           0
     29577 TIP3     6554     TIP3     H1       HT       0.417000       1.00800           0
     29578 TIP3     6554     TIP3     H2       HT       0.417000       1.00800           0
     29579 TIP3     6555     TIP3     OH2      OT      -0.834000       15.9994           0
     29580 TIP3     6555     TIP3     H1       HT       0.417000       1.00800           0
     29581 TIP3     6555     TIP3     H2       HT       0.417000       1.00800           0
     29582 TIP3     6556     TIP3     OH2      OT      -0.834000       15.9994           0
     29583 TIP3     6556     TIP3     H1       HT       0.417000       1.00800           0
     29584 TIP3     6556     TIP3     H2       HT       0.417000       1.00800           0
     29585 TIP3     6557     TIP3     OH2      OT      -0.834000       15.9994           0
     29586 TIP3     6557     TIP3     H1       HT       0.417000       1.00800           0
     29587 TIP3     6557     TIP3     H2       HT       0.417000       1.00800           0
     29588 TIP3     6558     TIP3     OH2      OT      -0.834000       15.9994           0
     29589 TIP3     6558     TIP3     H1       HT       0.417000       1.00800           0
     29590 TIP3     6558     TIP3     H2       HT       0.417000       1.00800           0
     29591 TIP3     6559     TIP3     OH2      OT      -0.834000       15.9994           0
     29592 TIP3     6559     TIP3     H1       HT       0.417000       1.00800           0
     29593 TIP3     6559     TIP3     H2       HT       0.417000       1.00800           0
     29594 TIP3     6560     TIP3     OH2      OT      -0.834000       15.9994           0
     29595 TIP3     6560     TIP3     H1       HT       0.417000       1.00800           0
     29596 TIP3     6560     TIP3     H2       HT       0.417000       1.00800           0
     29597 TIP3     6561     TIP3     OH2      OT      -0.834000       15.9994           0
     29598 TIP3     6561     TIP3     H1       HT       0.417000       1.00800           0
     29599 TIP3     6561     TIP3     H2       HT       0.417000       1.00800           0
     29600 TIP3     6562     TIP3     OH2      OT      -0.834000       15.9994           0
     29601 TIP3     6562     TIP3     H1       HT       0.417000       1.00800           0
     29602 TIP3     6562     TIP3     H2       HT       0.417000       1.00800           0
     29603 TIP3     6563     TIP3     OH2      OT      -0.834000       15.9994           0
     29604 TIP3     6563     TIP3     H1       HT       0.417000       1.00800           0
     29605 TIP3     6563     TIP3     H2       HT       0.417000       1.00800           0
     29606 TIP3     6564     TIP3     OH2      OT      -0.834000       15.9994           0
     29607 TIP3     6564     TIP3     H1       HT       0.417000       1.00800           0
     29608 TIP3     6564     TIP3     H2       HT       0.417000       1.00800           0
     29609 TIP3     6565     TIP3     OH2      OT      -0.834000       15.9994           0
     29610 TIP3     6565     TIP3     H1       HT       0.417000       1.00800           0
     29611 TIP3     6565     TIP3     H2       HT       0.417000       1.00800           0
     29612 TIP3     6566     TIP3     OH2      OT      -0.834000       15.9994           0
     29613 TIP3     6566     TIP3     H1       HT       0.417000       1.00800           0
     29614 TIP3     6566     TIP3     H2       HT       0.417000       1.00800           0
     29615 TIP3     6567     TIP3     OH2      OT      -0.834000       15.9994           0
     29616 TIP3     6567     TIP3     H1       HT       0.417000       1.00800           0
     29617 TIP3     6567     TIP3     H2       HT       0.417000       1.00800           0
     29618 TIP3     6568     TIP3     OH2      OT      -0.834000       15.9994           0
     29619 TIP3     6568     TIP3     H1       HT       0.417000       1.00800           0
     29620 TIP3     6568     TIP3     H2       HT       0.417000       1.00800           0
     29621 TIP3     6569     TIP3     OH2      OT      -0.834000       15.9994           0
     29622 TIP3     6569     TIP3     H1       HT       0.417000       1.00800           0
     29623 TIP3     6569     TIP3     H2       HT       0.417000       1.00800           0
     29624 TIP3     6570     TIP3     OH2      OT      -0.834000       15.9994           0
     29625 TIP3     6570     TIP3     H1       HT       0.417000       1.00800           0
     29626 TIP3     6570     TIP3     H2       HT       0.417000       1.00800           0
     29627 TIP3     6571     TIP3     OH2      OT      -0.834000       15.9994           0
     29628 TIP3     6571     TIP3     H1       HT       0.417000       1.00800           0
     29629 TIP3     6571     TIP3     H2       HT       0.417000       1.00800           0
     29630 TIP3     6572     TIP3     OH2      OT      -0.834000       15.9994           0
     29631 TIP3     6572     TIP3     H1       HT       0.417000       1.00800           0
     29632 TIP3     6572     TIP3     H2       HT       0.417000       1.00800           0
     29633 TIP3     6573     TIP3     OH2      OT      -0.834000       15.9994           0
     29634 TIP3     6573     TIP3     H1       HT       0.417000       1.00800           0
     29635 TIP3     6573     TIP3     H2       HT       0.417000       1.00800           0
     29636 TIP3     6574     TIP3     OH2      OT      -0.834000       15.9994           0
     29637 TIP3     6574     TIP3     H1       HT       0.417000       1.00800           0
     29638 TIP3     6574     TIP3     H2       HT       0.417000       1.00800           0
     29639 TIP3     6575     TIP3     OH2      OT      -0.834000       15.9994           0
     29640 TIP3     6575     TIP3     H1       HT       0.417000       1.00800           0
     29641 TIP3     6575     TIP3     H2       HT       0.417000       1.00800           0
     29642 TIP3     6576     TIP3     OH2      OT      -0.834000       15.9994           0
     29643 TIP3     6576     TIP3     H1       HT       0.417000       1.00800           0
     29644 TIP3     6576     TIP3     H2       HT       0.417000       1.00800           0
     29645 TIP3     6577     TIP3     OH2      OT      -0.834000       15.9994           0
     29646 TIP3     6577     TIP3     H1       HT       0.417000       1.00800           0
     29647 TIP3     6577     TIP3     H2       HT       0.417000       1.00800           0
     29648 TIP3     6578     TIP3     OH2      OT      -0.834000       15.9994           0
     29649 TIP3     6578     TIP3     H1       HT       0.417000       1.00800           0
     29650 TIP3     6578     TIP3     H2       HT       0.417000       1.00800           0
     29651 TIP3     6579     TIP3     OH2      OT      -0.834000       15.9994           0
     29652 TIP3     6579     TIP3     H1       HT       0.417000       1.00800           0
     29653 TIP3     6579     TIP3     H2       HT       0.417000       1.00800           0
     29654 TIP3     6580     TIP3     OH2      OT      -0.834000       15.9994           0
     29655 TIP3     6580     TIP3     H1       HT       0.417000       1.00800           0
     29656 TIP3     6580     TIP3     H2       HT       0.417000       1.00800           0
     29657 TIP3     6581     TIP3     OH2      OT      -0.834000       15.9994           0
     29658 TIP3     6581     TIP3     H1       HT       0.417000       1.00800           0
     29659 TIP3     6581     TIP3     H2       HT       0.417000       1.00800           0
     29660 TIP3     6582     TIP3     OH2      OT      -0.834000       15.9994           0
     29661 TIP3     6582     TIP3     H1       HT       0.417000       1.00800           0
     29662 TIP3     6582     TIP3     H2       HT       0.417000       1.00800           0
     29663 TIP3     6583     TIP3     OH2      OT      -0.834000       15.9994           0
     29664 TIP3     6583     TIP3     H1       HT       0.417000       1.00800           0
     29665 TIP3     6583     TIP3     H2       HT       0.417000       1.00800           0
     29666 TIP3     6584     TIP3     OH2      OT      -0.834000       15.9994           0
     29667 TIP3     6584     TIP3     H1       HT       0.417000       1.00800           0
     29668 TIP3     6584     TIP3     H2       HT       0.417000       1.00800           0
     29669 TIP3     6585     TIP3     OH2      OT      -0.834000       15.9994           0
     29670 TIP3     6585     TIP3     H1       HT       0.417000       1.00800           0
     29671 TIP3     6585     TIP3     H2       HT       0.417000       1.00800           0
     29672 TIP3     6586     TIP3     OH2      OT      -0.834000       15.9994           0
     29673 TIP3     6586     TIP3     H1       HT       0.417000       1.00800           0
     29674 TIP3     6586     TIP3     H2       HT       0.417000       1.00800           0
     29675 TIP3     6587     TIP3     OH2      OT      -0.834000       15.9994           0
     29676 TIP3     6587     TIP3     H1       HT       0.417000       1.00800           0
     29677 TIP3     6587     TIP3     H2       HT       0.417000       1.00800           0
     29678 TIP3     6588     TIP3     OH2      OT      -0.834000       15.9994           0
     29679 TIP3     6588     TIP3     H1       HT       0.417000       1.00800           0
     29680 TIP3     6588     TIP3     H2       HT       0.417000       1.00800           0
     29681 TIP3     6589     TIP3     OH2      OT      -0.834000       15.9994           0
     29682 TIP3     6589     TIP3     H1       HT       0.417000       1.00800           0
     29683 TIP3     6589     TIP3     H2       HT       0.417000       1.00800           0
     29684 TIP3     6590     TIP3     OH2      OT      -0.834000       15.9994           0
     29685 TIP3     6590     TIP3     H1       HT       0.417000       1.00800           0
     29686 TIP3     6590     TIP3     H2       HT       0.417000       1.00800           0
     29687 TIP3     6591     TIP3     OH2      OT      -0.834000       15.9994           0
     29688 TIP3     6591     TIP3     H1       HT       0.417000       1.00800           0
     29689 TIP3     6591     TIP3     H2       HT       0.417000       1.00800           0
     29690 TIP3     6592     TIP3     OH2      OT      -0.834000       15.9994           0
     29691 TIP3     6592     TIP3     H1       HT       0.417000       1.00800           0
     29692 TIP3     6592     TIP3     H2       HT       0.417000       1.00800           0
     29693 TIP3     6593     TIP3     OH2      OT      -0.834000       15.9994           0
     29694 TIP3     6593     TIP3     H1       HT       0.417000       1.00800           0
     29695 TIP3     6593     TIP3     H2       HT       0.417000       1.00800           0
     29696 TIP3     6594     TIP3     OH2      OT      -0.834000       15.9994           0
     29697 TIP3     6594     TIP3     H1       HT       0.417000       1.00800           0
     29698 TIP3     6594     TIP3     H2       HT       0.417000       1.00800           0
     29699 TIP3     6595     TIP3     OH2      OT      -0.834000       15.9994           0
     29700 TIP3     6595     TIP3     H1       HT       0.417000       1.00800           0
     29701 TIP3     6595     TIP3     H2       HT       0.417000       1.00800           0
     29702 TIP3     6596     TIP3     OH2      OT      -0.834000       15.9994           0
     29703 TIP3     6596     TIP3     H1       HT       0.417000       1.00800           0
     29704 TIP3     6596     TIP3     H2       HT       0.417000       1.00800           0
     29705 TIP3     6597     TIP3     OH2      OT      -0.834000       15.9994           0
     29706 TIP3     6597     TIP3     H1       HT       0.417000       1.00800           0
     29707 TIP3     6597     TIP3     H2       HT       0.417000       1.00800           0
     29708 TIP3     6598     TIP3     OH2      OT      -0.834000       15.9994           0
     29709 TIP3     6598     TIP3     H1       HT       0.417000       1.00800           0
     29710 TIP3     6598     TIP3     H2       HT       0.417000       1.00800           0
     29711 TIP3     6599     TIP3     OH2      OT      -0.834000       15.9994           0
     29712 TIP3     6599     TIP3     H1       HT       0.417000       1.00800           0
     29713 TIP3     6599     TIP3     H2       HT       0.417000       1.00800           0
     29714 TIP3     6600     TIP3     OH2      OT      -0.834000       15.9994           0
     29715 TIP3     6600     TIP3     H1       HT       0.417000       1.00800           0
     29716 TIP3     6600     TIP3     H2       HT       0.417000       1.00800           0
     29717 TIP3     6601     TIP3     OH2      OT      -0.834000       15.9994           0
     29718 TIP3     6601     TIP3     H1       HT       0.417000       1.00800           0
     29719 TIP3     6601     TIP3     H2       HT       0.417000       1.00800           0
     29720 TIP3     6602     TIP3     OH2      OT      -0.834000       15.9994           0
     29721 TIP3     6602     TIP3     H1       HT       0.417000       1.00800           0
     29722 TIP3     6602     TIP3     H2       HT       0.417000       1.00800           0
     29723 TIP3     6603     TIP3     OH2      OT      -0.834000       15.9994           0
     29724 TIP3     6603     TIP3     H1       HT       0.417000       1.00800           0
     29725 TIP3     6603     TIP3     H2       HT       0.417000       1.00800           0
     29726 TIP3     6604     TIP3     OH2      OT      -0.834000       15.9994           0
     29727 TIP3     6604     TIP3     H1       HT       0.417000       1.00800           0
     29728 TIP3     6604     TIP3     H2       HT       0.417000       1.00800           0
     29729 TIP3     6605     TIP3     OH2      OT      -0.834000       15.9994           0
     29730 TIP3     6605     TIP3     H1       HT       0.417000       1.00800           0
     29731 TIP3     6605     TIP3     H2       HT       0.417000       1.00800           0
     29732 TIP3     6606     TIP3     OH2      OT      -0.834000       15.9994           0
     29733 TIP3     6606     TIP3     H1       HT       0.417000       1.00800           0
     29734 TIP3     6606     TIP3     H2       HT       0.417000       1.00800           0
     29735 TIP3     6607     TIP3     OH2      OT      -0.834000       15.9994           0
     29736 TIP3     6607     TIP3     H1       HT       0.417000       1.00800           0
     29737 TIP3     6607     TIP3     H2       HT       0.417000       1.00800           0
     29738 TIP3     6608     TIP3     OH2      OT      -0.834000       15.9994           0
     29739 TIP3     6608     TIP3     H1       HT       0.417000       1.00800           0
     29740 TIP3     6608     TIP3     H2       HT       0.417000       1.00800           0
     29741 TIP3     6609     TIP3     OH2      OT      -0.834000       15.9994           0
     29742 TIP3     6609     TIP3     H1       HT       0.417000       1.00800           0
     29743 TIP3     6609     TIP3     H2       HT       0.417000       1.00800           0
     29744 TIP3     6610     TIP3     OH2      OT      -0.834000       15.9994           0
     29745 TIP3     6610     TIP3     H1       HT       0.417000       1.00800           0
     29746 TIP3     6610     TIP3     H2       HT       0.417000       1.00800           0
     29747 TIP3     6611     TIP3     OH2      OT      -0.834000       15.9994           0
     29748 TIP3     6611     TIP3     H1       HT       0.417000       1.00800           0
     29749 TIP3     6611     TIP3     H2       HT       0.417000       1.00800           0
     29750 TIP3     6612     TIP3     OH2      OT      -0.834000       15.9994           0
     29751 TIP3     6612     TIP3     H1       HT       0.417000       1.00800           0
     29752 TIP3     6612     TIP3     H2       HT       0.417000       1.00800           0
     29753 TIP3     6613     TIP3     OH2      OT      -0.834000       15.9994           0
     29754 TIP3     6613     TIP3     H1       HT       0.417000       1.00800           0
     29755 TIP3     6613     TIP3     H2       HT       0.417000       1.00800           0
     29756 TIP3     6614     TIP3     OH2      OT      -0.834000       15.9994           0
     29757 TIP3     6614     TIP3     H1       HT       0.417000       1.00800           0
     29758 TIP3     6614     TIP3     H2       HT       0.417000       1.00800           0
     29759 TIP3     6615     TIP3     OH2      OT      -0.834000       15.9994           0
     29760 TIP3     6615     TIP3     H1       HT       0.417000       1.00800           0
     29761 TIP3     6615     TIP3     H2       HT       0.417000       1.00800           0
     29762 TIP3     6616     TIP3     OH2      OT      -0.834000       15.9994           0
     29763 TIP3     6616     TIP3     H1       HT       0.417000       1.00800           0
     29764 TIP3     6616     TIP3     H2       HT       0.417000       1.00800           0
     29765 TIP3     6617     TIP3     OH2      OT      -0.834000       15.9994           0
     29766 TIP3     6617     TIP3     H1       HT       0.417000       1.00800           0
     29767 TIP3     6617     TIP3     H2       HT       0.417000       1.00800           0
     29768 TIP3     6618     TIP3     OH2      OT      -0.834000       15.9994           0
     29769 TIP3     6618     TIP3     H1       HT       0.417000       1.00800           0
     29770 TIP3     6618     TIP3     H2       HT       0.417000       1.00800           0
     29771 TIP3     6619     TIP3     OH2      OT      -0.834000       15.9994           0
     29772 TIP3     6619     TIP3     H1       HT       0.417000       1.00800           0
     29773 TIP3     6619     TIP3     H2       HT       0.417000       1.00800           0
     29774 TIP3     6620     TIP3     OH2      OT      -0.834000       15.9994           0
     29775 TIP3     6620     TIP3     H1       HT       0.417000       1.00800           0
     29776 TIP3     6620     TIP3     H2       HT       0.417000       1.00800           0
     29777 TIP3     6621     TIP3     OH2      OT      -0.834000       15.9994           0
     29778 TIP3     6621     TIP3     H1       HT       0.417000       1.00800           0
     29779 TIP3     6621     TIP3     H2       HT       0.417000       1.00800           0
     29780 TIP3     6622     TIP3     OH2      OT      -0.834000       15.9994           0
     29781 TIP3     6622     TIP3     H1       HT       0.417000       1.00800           0
     29782 TIP3     6622     TIP3     H2       HT       0.417000       1.00800           0
     29783 TIP3     6623     TIP3     OH2      OT      -0.834000       15.9994           0
     29784 TIP3     6623     TIP3     H1       HT       0.417000       1.00800           0
     29785 TIP3     6623     TIP3     H2       HT       0.417000       1.00800           0
     29786 TIP3     6624     TIP3     OH2      OT      -0.834000       15.9994           0
     29787 TIP3     6624     TIP3     H1       HT       0.417000       1.00800           0
     29788 TIP3     6624     TIP3     H2       HT       0.417000       1.00800           0
     29789 TIP3     6625     TIP3     OH2      OT      -0.834000       15.9994           0
     29790 TIP3     6625     TIP3     H1       HT       0.417000       1.00800           0
     29791 TIP3     6625     TIP3     H2       HT       0.417000       1.00800           0
     29792 TIP3     6626     TIP3     OH2      OT      -0.834000       15.9994           0
     29793 TIP3     6626     TIP3     H1       HT       0.417000       1.00800           0
     29794 TIP3     6626     TIP3     H2       HT       0.417000       1.00800           0
     29795 TIP3     6627     TIP3     OH2      OT      -0.834000       15.9994           0
     29796 TIP3     6627     TIP3     H1       HT       0.417000       1.00800           0
     29797 TIP3     6627     TIP3     H2       HT       0.417000       1.00800           0
     29798 TIP3     6628     TIP3     OH2      OT      -0.834000       15.9994           0
     29799 TIP3     6628     TIP3     H1       HT       0.417000       1.00800           0
     29800 TIP3     6628     TIP3     H2       HT       0.417000       1.00800           0
     29801 TIP3     6629     TIP3     OH2      OT      -0.834000       15.9994           0
     29802 TIP3     6629     TIP3     H1       HT       0.417000       1.00800           0
     29803 TIP3     6629     TIP3     H2       HT       0.417000       1.00800           0
     29804 TIP3     6630     TIP3     OH2      OT      -0.834000       15.9994           0
     29805 TIP3     6630     TIP3     H1       HT       0.417000       1.00800           0
     29806 TIP3     6630     TIP3     H2       HT       0.417000       1.00800           0
     29807 TIP3     6631     TIP3     OH2      OT      -0.834000       15.9994           0
     29808 TIP3     6631     TIP3     H1       HT       0.417000       1.00800           0
     29809 TIP3     6631     TIP3     H2       HT       0.417000       1.00800           0
     29810 TIP3     6632     TIP3     OH2      OT      -0.834000       15.9994           0
     29811 TIP3     6632     TIP3     H1       HT       0.417000       1.00800           0
     29812 TIP3     6632     TIP3     H2       HT       0.417000       1.00800           0
     29813 TIP3     6633     TIP3     OH2      OT      -0.834000       15.9994           0
     29814 TIP3     6633     TIP3     H1       HT       0.417000       1.00800           0
     29815 TIP3     6633     TIP3     H2       HT       0.417000       1.00800           0
     29816 TIP3     6634     TIP3     OH2      OT      -0.834000       15.9994           0
     29817 TIP3     6634     TIP3     H1       HT       0.417000       1.00800           0
     29818 TIP3     6634     TIP3     H2       HT       0.417000       1.00800           0
     29819 TIP3     6635     TIP3     OH2      OT      -0.834000       15.9994           0
     29820 TIP3     6635     TIP3     H1       HT       0.417000       1.00800           0
     29821 TIP3     6635     TIP3     H2       HT       0.417000       1.00800           0
     29822 TIP3     6636     TIP3     OH2      OT      -0.834000       15.9994           0
     29823 TIP3     6636     TIP3     H1       HT       0.417000       1.00800           0
     29824 TIP3     6636     TIP3     H2       HT       0.417000       1.00800           0
     29825 TIP3     6637     TIP3     OH2      OT      -0.834000       15.9994           0
     29826 TIP3     6637     TIP3     H1       HT       0.417000       1.00800           0
     29827 TIP3     6637     TIP3     H2       HT       0.417000       1.00800           0
     29828 TIP3     6638     TIP3     OH2      OT      -0.834000       15.9994           0
     29829 TIP3     6638     TIP3     H1       HT       0.417000       1.00800           0
     29830 TIP3     6638     TIP3     H2       HT       0.417000       1.00800           0
     29831 TIP3     6639     TIP3     OH2      OT      -0.834000       15.9994           0
     29832 TIP3     6639     TIP3     H1       HT       0.417000       1.00800           0
     29833 TIP3     6639     TIP3     H2       HT       0.417000       1.00800           0
     29834 TIP3     6640     TIP3     OH2      OT      -0.834000       15.9994           0
     29835 TIP3     6640     TIP3     H1       HT       0.417000       1.00800           0
     29836 TIP3     6640     TIP3     H2       HT       0.417000       1.00800           0
     29837 TIP3     6641     TIP3     OH2      OT      -0.834000       15.9994           0
     29838 TIP3     6641     TIP3     H1       HT       0.417000       1.00800           0
     29839 TIP3     6641     TIP3     H2       HT       0.417000       1.00800           0
     29840 TIP3     6642     TIP3     OH2      OT      -0.834000       15.9994           0
     29841 TIP3     6642     TIP3     H1       HT       0.417000       1.00800           0
     29842 TIP3     6642     TIP3     H2       HT       0.417000       1.00800           0
     29843 TIP3     6643     TIP3     OH2      OT      -0.834000       15.9994           0
     29844 TIP3     6643     TIP3     H1       HT       0.417000       1.00800           0
     29845 TIP3     6643     TIP3     H2       HT       0.417000       1.00800           0
     29846 TIP3     6644     TIP3     OH2      OT      -0.834000       15.9994           0
     29847 TIP3     6644     TIP3     H1       HT       0.417000       1.00800           0
     29848 TIP3     6644     TIP3     H2       HT       0.417000       1.00800           0
     29849 TIP3     6645     TIP3     OH2      OT      -0.834000       15.9994           0
     29850 TIP3     6645     TIP3     H1       HT       0.417000       1.00800           0
     29851 TIP3     6645     TIP3     H2       HT       0.417000       1.00800           0
     29852 TIP3     6646     TIP3     OH2      OT      -0.834000       15.9994           0
     29853 TIP3     6646     TIP3     H1       HT       0.417000       1.00800           0
     29854 TIP3     6646     TIP3     H2       HT       0.417000       1.00800           0
     29855 TIP3     6647     TIP3     OH2      OT      -0.834000       15.9994           0
     29856 TIP3     6647     TIP3     H1       HT       0.417000       1.00800           0
     29857 TIP3     6647     TIP3     H2       HT       0.417000       1.00800           0
     29858 TIP3     6648     TIP3     OH2      OT      -0.834000       15.9994           0
     29859 TIP3     6648     TIP3     H1       HT       0.417000       1.00800           0
     29860 TIP3     6648     TIP3     H2       HT       0.417000       1.00800           0
     29861 TIP3     6649     TIP3     OH2      OT      -0.834000       15.9994           0
     29862 TIP3     6649     TIP3     H1       HT       0.417000       1.00800           0
     29863 TIP3     6649     TIP3     H2       HT       0.417000       1.00800           0
     29864 TIP3     6650     TIP3     OH2      OT      -0.834000       15.9994           0
     29865 TIP3     6650     TIP3     H1       HT       0.417000       1.00800           0
     29866 TIP3     6650     TIP3     H2       HT       0.417000       1.00800           0
     29867 TIP3     6651     TIP3     OH2      OT      -0.834000       15.9994           0
     29868 TIP3     6651     TIP3     H1       HT       0.417000       1.00800           0
     29869 TIP3     6651     TIP3     H2       HT       0.417000       1.00800           0
     29870 TIP3     6652     TIP3     OH2      OT      -0.834000       15.9994           0
     29871 TIP3     6652     TIP3     H1       HT       0.417000       1.00800           0
     29872 TIP3     6652     TIP3     H2       HT       0.417000       1.00800           0
     29873 TIP3     6653     TIP3     OH2      OT      -0.834000       15.9994           0
     29874 TIP3     6653     TIP3     H1       HT       0.417000       1.00800           0
     29875 TIP3     6653     TIP3     H2       HT       0.417000       1.00800           0
     29876 TIP3     6654     TIP3     OH2      OT      -0.834000       15.9994           0
     29877 TIP3     6654     TIP3     H1       HT       0.417000       1.00800           0
     29878 TIP3     6654     TIP3     H2       HT       0.417000       1.00800           0
     29879 TIP3     6655     TIP3     OH2      OT      -0.834000       15.9994           0
     29880 TIP3     6655     TIP3     H1       HT       0.417000       1.00800           0
     29881 TIP3     6655     TIP3     H2       HT       0.417000       1.00800           0
     29882 TIP3     6656     TIP3     OH2      OT      -0.834000       15.9994           0
     29883 TIP3     6656     TIP3     H1       HT       0.417000       1.00800           0
     29884 TIP3     6656     TIP3     H2       HT       0.417000       1.00800           0
     29885 TIP3     6657     TIP3     OH2      OT      -0.834000       15.9994           0
     29886 TIP3     6657     TIP3     H1       HT       0.417000       1.00800           0
     29887 TIP3     6657     TIP3     H2       HT       0.417000       1.00800           0
     29888 TIP3     6658     TIP3     OH2      OT      -0.834000       15.9994           0
     29889 TIP3     6658     TIP3     H1       HT       0.417000       1.00800           0
     29890 TIP3     6658     TIP3     H2       HT       0.417000       1.00800           0
     29891 TIP3     6659     TIP3     OH2      OT      -0.834000       15.9994           0
     29892 TIP3     6659     TIP3     H1       HT       0.417000       1.00800           0
     29893 TIP3     6659     TIP3     H2       HT       0.417000       1.00800           0
     29894 TIP3     6660     TIP3     OH2      OT      -0.834000       15.9994           0
     29895 TIP3     6660     TIP3     H1       HT       0.417000       1.00800           0
     29896 TIP3     6660     TIP3     H2       HT       0.417000       1.00800           0
     29897 TIP3     6661     TIP3     OH2      OT      -0.834000       15.9994           0
     29898 TIP3     6661     TIP3     H1       HT       0.417000       1.00800           0
     29899 TIP3     6661     TIP3     H2       HT       0.417000       1.00800           0
     29900 TIP3     6662     TIP3     OH2      OT      -0.834000       15.9994           0
     29901 TIP3     6662     TIP3     H1       HT       0.417000       1.00800           0
     29902 TIP3     6662     TIP3     H2       HT       0.417000       1.00800           0
     29903 TIP3     6663     TIP3     OH2      OT      -0.834000       15.9994           0
     29904 TIP3     6663     TIP3     H1       HT       0.417000       1.00800           0
     29905 TIP3     6663     TIP3     H2       HT       0.417000       1.00800           0
     29906 TIP3     6664     TIP3     OH2      OT      -0.834000       15.9994           0
     29907 TIP3     6664     TIP3     H1       HT       0.417000       1.00800           0
     29908 TIP3     6664     TIP3     H2       HT       0.417000       1.00800           0
     29909 TIP3     6665     TIP3     OH2      OT      -0.834000       15.9994           0
     29910 TIP3     6665     TIP3     H1       HT       0.417000       1.00800           0
     29911 TIP3     6665     TIP3     H2       HT       0.417000       1.00800           0
     29912 TIP3     6666     TIP3     OH2      OT      -0.834000       15.9994           0
     29913 TIP3     6666     TIP3     H1       HT       0.417000       1.00800           0
     29914 TIP3     6666     TIP3     H2       HT       0.417000       1.00800           0
     29915 TIP3     6667     TIP3     OH2      OT      -0.834000       15.9994           0
     29916 TIP3     6667     TIP3     H1       HT       0.417000       1.00800           0
     29917 TIP3     6667     TIP3     H2       HT       0.417000       1.00800           0
     29918 TIP3     6668     TIP3     OH2      OT      -0.834000       15.9994           0
     29919 TIP3     6668     TIP3     H1       HT       0.417000       1.00800           0
     29920 TIP3     6668     TIP3     H2       HT       0.417000       1.00800           0
     29921 TIP3     6669     TIP3     OH2      OT      -0.834000       15.9994           0
     29922 TIP3     6669     TIP3     H1       HT       0.417000       1.00800           0
     29923 TIP3     6669     TIP3     H2       HT       0.417000       1.00800           0
     29924 TIP3     6670     TIP3     OH2      OT      -0.834000       15.9994           0
     29925 TIP3     6670     TIP3     H1       HT       0.417000       1.00800           0
     29926 TIP3     6670     TIP3     H2       HT       0.417000       1.00800           0
     29927 TIP3     6671     TIP3     OH2      OT      -0.834000       15.9994           0
     29928 TIP3     6671     TIP3     H1       HT       0.417000       1.00800           0
     29929 TIP3     6671     TIP3     H2       HT       0.417000       1.00800           0
     29930 TIP3     6672     TIP3     OH2      OT      -0.834000       15.9994           0
     29931 TIP3     6672     TIP3     H1       HT       0.417000       1.00800           0
     29932 TIP3     6672     TIP3     H2       HT       0.417000       1.00800           0
     29933 TIP3     6673     TIP3     OH2      OT      -0.834000       15.9994           0
     29934 TIP3     6673     TIP3     H1       HT       0.417000       1.00800           0
     29935 TIP3     6673     TIP3     H2       HT       0.417000       1.00800           0
     29936 TIP3     6674     TIP3     OH2      OT      -0.834000       15.9994           0
     29937 TIP3     6674     TIP3     H1       HT       0.417000       1.00800           0
     29938 TIP3     6674     TIP3     H2       HT       0.417000       1.00800           0
     29939 TIP3     6675     TIP3     OH2      OT      -0.834000       15.9994           0
     29940 TIP3     6675     TIP3     H1       HT       0.417000       1.00800           0
     29941 TIP3     6675     TIP3     H2       HT       0.417000       1.00800           0
     29942 TIP3     6676     TIP3     OH2      OT      -0.834000       15.9994           0
     29943 TIP3     6676     TIP3     H1       HT       0.417000       1.00800           0
     29944 TIP3     6676     TIP3     H2       HT       0.417000       1.00800           0
     29945 TIP3     6677     TIP3     OH2      OT      -0.834000       15.9994           0
     29946 TIP3     6677     TIP3     H1       HT       0.417000       1.00800           0
     29947 TIP3     6677     TIP3     H2       HT       0.417000       1.00800           0
     29948 TIP3     6678     TIP3     OH2      OT      -0.834000       15.9994           0
     29949 TIP3     6678     TIP3     H1       HT       0.417000       1.00800           0
     29950 TIP3     6678     TIP3     H2       HT       0.417000       1.00800           0
     29951 TIP3     6679     TIP3     OH2      OT      -0.834000       15.9994           0
     29952 TIP3     6679     TIP3     H1       HT       0.417000       1.00800           0
     29953 TIP3     6679     TIP3     H2       HT       0.417000       1.00800           0
     29954 TIP3     6680     TIP3     OH2      OT      -0.834000       15.9994           0
     29955 TIP3     6680     TIP3     H1       HT       0.417000       1.00800           0
     29956 TIP3     6680     TIP3     H2       HT       0.417000       1.00800           0
     29957 TIP3     6681     TIP3     OH2      OT      -0.834000       15.9994           0
     29958 TIP3     6681     TIP3     H1       HT       0.417000       1.00800           0
     29959 TIP3     6681     TIP3     H2       HT       0.417000       1.00800           0
     29960 TIP3     6682     TIP3     OH2      OT      -0.834000       15.9994           0
     29961 TIP3     6682     TIP3     H1       HT       0.417000       1.00800           0
     29962 TIP3     6682     TIP3     H2       HT       0.417000       1.00800           0
     29963 TIP3     6683     TIP3     OH2      OT      -0.834000       15.9994           0
     29964 TIP3     6683     TIP3     H1       HT       0.417000       1.00800           0
     29965 TIP3     6683     TIP3     H2       HT       0.417000       1.00800           0
     29966 TIP3     6684     TIP3     OH2      OT      -0.834000       15.9994           0
     29967 TIP3     6684     TIP3     H1       HT       0.417000       1.00800           0
     29968 TIP3     6684     TIP3     H2       HT       0.417000       1.00800           0
     29969 TIP3     6685     TIP3     OH2      OT      -0.834000       15.9994           0
     29970 TIP3     6685     TIP3     H1       HT       0.417000       1.00800           0
     29971 TIP3     6685     TIP3     H2       HT       0.417000       1.00800           0
     29972 TIP3     6686     TIP3     OH2      OT      -0.834000       15.9994           0
     29973 TIP3     6686     TIP3     H1       HT       0.417000       1.00800           0
     29974 TIP3     6686     TIP3     H2       HT       0.417000       1.00800           0
     29975 TIP3     6687     TIP3     OH2      OT      -0.834000       15.9994           0
     29976 TIP3     6687     TIP3     H1       HT       0.417000       1.00800           0
     29977 TIP3     6687     TIP3     H2       HT       0.417000       1.00800           0
     29978 TIP3     6688     TIP3     OH2      OT      -0.834000       15.9994           0
     29979 TIP3     6688     TIP3     H1       HT       0.417000       1.00800           0
     29980 TIP3     6688     TIP3     H2       HT       0.417000       1.00800           0
     29981 TIP3     6689     TIP3     OH2      OT      -0.834000       15.9994           0
     29982 TIP3     6689     TIP3     H1       HT       0.417000       1.00800           0
     29983 TIP3     6689     TIP3     H2       HT       0.417000       1.00800           0
     29984 TIP3     6690     TIP3     OH2      OT      -0.834000       15.9994           0
     29985 TIP3     6690     TIP3     H1       HT       0.417000       1.00800           0
     29986 TIP3     6690     TIP3     H2       HT       0.417000       1.00800           0
     29987 TIP3     6691     TIP3     OH2      OT      -0.834000       15.9994           0
     29988 TIP3     6691     TIP3     H1       HT       0.417000       1.00800           0
     29989 TIP3     6691     TIP3     H2       HT       0.417000       1.00800           0
     29990 TIP3     6692     TIP3     OH2      OT      -0.834000       15.9994           0
     29991 TIP3     6692     TIP3     H1       HT       0.417000       1.00800           0
     29992 TIP3     6692     TIP3     H2       HT       0.417000       1.00800           0
     29993 TIP3     6693     TIP3     OH2      OT      -0.834000       15.9994           0
     29994 TIP3     6693     TIP3     H1       HT       0.417000       1.00800           0
     29995 TIP3     6693     TIP3     H2       HT       0.417000       1.00800           0
     29996 TIP3     6694     TIP3     OH2      OT      -0.834000       15.9994           0
     29997 TIP3     6694     TIP3     H1       HT       0.417000       1.00800           0
     29998 TIP3     6694     TIP3     H2       HT       0.417000       1.00800           0
     29999 TIP3     6695     TIP3     OH2      OT      -0.834000       15.9994           0
     30000 TIP3     6695     TIP3     H1       HT       0.417000       1.00800           0
     30001 TIP3     6695     TIP3     H2       HT       0.417000       1.00800           0
     30002 TIP3     6696     TIP3     OH2      OT      -0.834000       15.9994           0
     30003 TIP3     6696     TIP3     H1       HT       0.417000       1.00800           0
     30004 TIP3     6696     TIP3     H2       HT       0.417000       1.00800           0
     30005 TIP3     6697     TIP3     OH2      OT      -0.834000       15.9994           0
     30006 TIP3     6697     TIP3     H1       HT       0.417000       1.00800           0
     30007 TIP3     6697     TIP3     H2       HT       0.417000       1.00800           0
     30008 TIP3     6698     TIP3     OH2      OT      -0.834000       15.9994           0
     30009 TIP3     6698     TIP3     H1       HT       0.417000       1.00800           0
     30010 TIP3     6698     TIP3     H2       HT       0.417000       1.00800           0
     30011 TIP3     6699     TIP3     OH2      OT      -0.834000       15.9994           0
     30012 TIP3     6699     TIP3     H1       HT       0.417000       1.00800           0
     30013 TIP3     6699     TIP3     H2       HT       0.417000       1.00800           0
     30014 TIP3     6700     TIP3     OH2      OT      -0.834000       15.9994           0
     30015 TIP3     6700     TIP3     H1       HT       0.417000       1.00800           0
     30016 TIP3     6700     TIP3     H2       HT       0.417000       1.00800           0
     30017 TIP3     6701     TIP3     OH2      OT      -0.834000       15.9994           0
     30018 TIP3     6701     TIP3     H1       HT       0.417000       1.00800           0
     30019 TIP3     6701     TIP3     H2       HT       0.417000       1.00800           0
     30020 TIP3     6702     TIP3     OH2      OT      -0.834000       15.9994           0
     30021 TIP3     6702     TIP3     H1       HT       0.417000       1.00800           0
     30022 TIP3     6702     TIP3     H2       HT       0.417000       1.00800           0
     30023 TIP3     6703     TIP3     OH2      OT      -0.834000       15.9994           0
     30024 TIP3     6703     TIP3     H1       HT       0.417000       1.00800           0
     30025 TIP3     6703     TIP3     H2       HT       0.417000       1.00800           0
     30026 TIP3     6704     TIP3     OH2      OT      -0.834000       15.9994           0
     30027 TIP3     6704     TIP3     H1       HT       0.417000       1.00800           0
     30028 TIP3     6704     TIP3     H2       HT       0.417000       1.00800           0
     30029 TIP3     6705     TIP3     OH2      OT      -0.834000       15.9994           0
     30030 TIP3     6705     TIP3     H1       HT       0.417000       1.00800           0
     30031 TIP3     6705     TIP3     H2       HT       0.417000       1.00800           0
     30032 TIP3     6706     TIP3     OH2      OT      -0.834000       15.9994           0
     30033 TIP3     6706     TIP3     H1       HT       0.417000       1.00800           0
     30034 TIP3     6706     TIP3     H2       HT       0.417000       1.00800           0
     30035 TIP3     6707     TIP3     OH2      OT      -0.834000       15.9994           0
     30036 TIP3     6707     TIP3     H1       HT       0.417000       1.00800           0
     30037 TIP3     6707     TIP3     H2       HT       0.417000       1.00800           0
     30038 TIP3     6708     TIP3     OH2      OT      -0.834000       15.9994           0
     30039 TIP3     6708     TIP3     H1       HT       0.417000       1.00800           0
     30040 TIP3     6708     TIP3     H2       HT       0.417000       1.00800           0
     30041 TIP3     6709     TIP3     OH2      OT      -0.834000       15.9994           0
     30042 TIP3     6709     TIP3     H1       HT       0.417000       1.00800           0
     30043 TIP3     6709     TIP3     H2       HT       0.417000       1.00800           0
     30044 TIP3     6710     TIP3     OH2      OT      -0.834000       15.9994           0
     30045 TIP3     6710     TIP3     H1       HT       0.417000       1.00800           0
     30046 TIP3     6710     TIP3     H2       HT       0.417000       1.00800           0
     30047 TIP3     6711     TIP3     OH2      OT      -0.834000       15.9994           0
     30048 TIP3     6711     TIP3     H1       HT       0.417000       1.00800           0
     30049 TIP3     6711     TIP3     H2       HT       0.417000       1.00800           0
     30050 TIP3     6712     TIP3     OH2      OT      -0.834000       15.9994           0
     30051 TIP3     6712     TIP3     H1       HT       0.417000       1.00800           0
     30052 TIP3     6712     TIP3     H2       HT       0.417000       1.00800           0
     30053 TIP3     6713     TIP3     OH2      OT      -0.834000       15.9994           0
     30054 TIP3     6713     TIP3     H1       HT       0.417000       1.00800           0
     30055 TIP3     6713     TIP3     H2       HT       0.417000       1.00800           0
     30056 TIP3     6714     TIP3     OH2      OT      -0.834000       15.9994           0
     30057 TIP3     6714     TIP3     H1       HT       0.417000       1.00800           0
     30058 TIP3     6714     TIP3     H2       HT       0.417000       1.00800           0
     30059 TIP3     6715     TIP3     OH2      OT      -0.834000       15.9994           0
     30060 TIP3     6715     TIP3     H1       HT       0.417000       1.00800           0
     30061 TIP3     6715     TIP3     H2       HT       0.417000       1.00800           0
     30062 TIP3     6716     TIP3     OH2      OT      -0.834000       15.9994           0
     30063 TIP3     6716     TIP3     H1       HT       0.417000       1.00800           0
     30064 TIP3     6716     TIP3     H2       HT       0.417000       1.00800           0
     30065 TIP3     6717     TIP3     OH2      OT      -0.834000       15.9994           0
     30066 TIP3     6717     TIP3     H1       HT       0.417000       1.00800           0
     30067 TIP3     6717     TIP3     H2       HT       0.417000       1.00800           0
     30068 TIP3     6718     TIP3     OH2      OT      -0.834000       15.9994           0
     30069 TIP3     6718     TIP3     H1       HT       0.417000       1.00800           0
     30070 TIP3     6718     TIP3     H2       HT       0.417000       1.00800           0
     30071 TIP3     6719     TIP3     OH2      OT      -0.834000       15.9994           0
     30072 TIP3     6719     TIP3     H1       HT       0.417000       1.00800           0
     30073 TIP3     6719     TIP3     H2       HT       0.417000       1.00800           0
     30074 TIP3     6720     TIP3     OH2      OT      -0.834000       15.9994           0
     30075 TIP3     6720     TIP3     H1       HT       0.417000       1.00800           0
     30076 TIP3     6720     TIP3     H2       HT       0.417000       1.00800           0
     30077 TIP3     6721     TIP3     OH2      OT      -0.834000       15.9994           0
     30078 TIP3     6721     TIP3     H1       HT       0.417000       1.00800           0
     30079 TIP3     6721     TIP3     H2       HT       0.417000       1.00800           0
     30080 TIP3     6722     TIP3     OH2      OT      -0.834000       15.9994           0
     30081 TIP3     6722     TIP3     H1       HT       0.417000       1.00800           0
     30082 TIP3     6722     TIP3     H2       HT       0.417000       1.00800           0
     30083 TIP3     6723     TIP3     OH2      OT      -0.834000       15.9994           0
     30084 TIP3     6723     TIP3     H1       HT       0.417000       1.00800           0
     30085 TIP3     6723     TIP3     H2       HT       0.417000       1.00800           0
     30086 TIP3     6724     TIP3     OH2      OT      -0.834000       15.9994           0
     30087 TIP3     6724     TIP3     H1       HT       0.417000       1.00800           0
     30088 TIP3     6724     TIP3     H2       HT       0.417000       1.00800           0
     30089 TIP3     6725     TIP3     OH2      OT      -0.834000       15.9994           0
     30090 TIP3     6725     TIP3     H1       HT       0.417000       1.00800           0
     30091 TIP3     6725     TIP3     H2       HT       0.417000       1.00800           0
     30092 TIP3     6726     TIP3     OH2      OT      -0.834000       15.9994           0
     30093 TIP3     6726     TIP3     H1       HT       0.417000       1.00800           0
     30094 TIP3     6726     TIP3     H2       HT       0.417000       1.00800           0
     30095 TIP3     6727     TIP3     OH2      OT      -0.834000       15.9994           0
     30096 TIP3     6727     TIP3     H1       HT       0.417000       1.00800           0
     30097 TIP3     6727     TIP3     H2       HT       0.417000       1.00800           0
     30098 TIP3     6728     TIP3     OH2      OT      -0.834000       15.9994           0
     30099 TIP3     6728     TIP3     H1       HT       0.417000       1.00800           0
     30100 TIP3     6728     TIP3     H2       HT       0.417000       1.00800           0
     30101 TIP3     6729     TIP3     OH2      OT      -0.834000       15.9994           0
     30102 TIP3     6729     TIP3     H1       HT       0.417000       1.00800           0
     30103 TIP3     6729     TIP3     H2       HT       0.417000       1.00800           0
     30104 TIP3     6730     TIP3     OH2      OT      -0.834000       15.9994           0
     30105 TIP3     6730     TIP3     H1       HT       0.417000       1.00800           0
     30106 TIP3     6730     TIP3     H2       HT       0.417000       1.00800           0
     30107 TIP3     6731     TIP3     OH2      OT      -0.834000       15.9994           0
     30108 TIP3     6731     TIP3     H1       HT       0.417000       1.00800           0
     30109 TIP3     6731     TIP3     H2       HT       0.417000       1.00800           0
     30110 TIP3     6732     TIP3     OH2      OT      -0.834000       15.9994           0
     30111 TIP3     6732     TIP3     H1       HT       0.417000       1.00800           0
     30112 TIP3     6732     TIP3     H2       HT       0.417000       1.00800           0
     30113 TIP3     6733     TIP3     OH2      OT      -0.834000       15.9994           0
     30114 TIP3     6733     TIP3     H1       HT       0.417000       1.00800           0
     30115 TIP3     6733     TIP3     H2       HT       0.417000       1.00800           0
     30116 TIP3     6734     TIP3     OH2      OT      -0.834000       15.9994           0
     30117 TIP3     6734     TIP3     H1       HT       0.417000       1.00800           0
     30118 TIP3     6734     TIP3     H2       HT       0.417000       1.00800           0
     30119 TIP3     6735     TIP3     OH2      OT      -0.834000       15.9994           0
     30120 TIP3     6735     TIP3     H1       HT       0.417000       1.00800           0
     30121 TIP3     6735     TIP3     H2       HT       0.417000       1.00800           0
     30122 TIP3     6736     TIP3     OH2      OT      -0.834000       15.9994           0
     30123 TIP3     6736     TIP3     H1       HT       0.417000       1.00800           0
     30124 TIP3     6736     TIP3     H2       HT       0.417000       1.00800           0
     30125 TIP3     6737     TIP3     OH2      OT      -0.834000       15.9994           0
     30126 TIP3     6737     TIP3     H1       HT       0.417000       1.00800           0
     30127 TIP3     6737     TIP3     H2       HT       0.417000       1.00800           0
     30128 TIP3     6738     TIP3     OH2      OT      -0.834000       15.9994           0
     30129 TIP3     6738     TIP3     H1       HT       0.417000       1.00800           0
     30130 TIP3     6738     TIP3     H2       HT       0.417000       1.00800           0
     30131 TIP3     6739     TIP3     OH2      OT      -0.834000       15.9994           0
     30132 TIP3     6739     TIP3     H1       HT       0.417000       1.00800           0
     30133 TIP3     6739     TIP3     H2       HT       0.417000       1.00800           0
     30134 TIP3     6740     TIP3     OH2      OT      -0.834000       15.9994           0
     30135 TIP3     6740     TIP3     H1       HT       0.417000       1.00800           0
     30136 TIP3     6740     TIP3     H2       HT       0.417000       1.00800           0
     30137 TIP3     6741     TIP3     OH2      OT      -0.834000       15.9994           0
     30138 TIP3     6741     TIP3     H1       HT       0.417000       1.00800           0
     30139 TIP3     6741     TIP3     H2       HT       0.417000       1.00800           0
     30140 TIP3     6742     TIP3     OH2      OT      -0.834000       15.9994           0
     30141 TIP3     6742     TIP3     H1       HT       0.417000       1.00800           0
     30142 TIP3     6742     TIP3     H2       HT       0.417000       1.00800           0
     30143 TIP3     6743     TIP3     OH2      OT      -0.834000       15.9994           0
     30144 TIP3     6743     TIP3     H1       HT       0.417000       1.00800           0
     30145 TIP3     6743     TIP3     H2       HT       0.417000       1.00800           0
     30146 TIP3     6744     TIP3     OH2      OT      -0.834000       15.9994           0
     30147 TIP3     6744     TIP3     H1       HT       0.417000       1.00800           0
     30148 TIP3     6744     TIP3     H2       HT       0.417000       1.00800           0
     30149 TIP3     6745     TIP3     OH2      OT      -0.834000       15.9994           0
     30150 TIP3     6745     TIP3     H1       HT       0.417000       1.00800           0
     30151 TIP3     6745     TIP3     H2       HT       0.417000       1.00800           0
     30152 TIP3     6746     TIP3     OH2      OT      -0.834000       15.9994           0
     30153 TIP3     6746     TIP3     H1       HT       0.417000       1.00800           0
     30154 TIP3     6746     TIP3     H2       HT       0.417000       1.00800           0
     30155 TIP3     6747     TIP3     OH2      OT      -0.834000       15.9994           0
     30156 TIP3     6747     TIP3     H1       HT       0.417000       1.00800           0
     30157 TIP3     6747     TIP3     H2       HT       0.417000       1.00800           0
     30158 TIP3     6748     TIP3     OH2      OT      -0.834000       15.9994           0
     30159 TIP3     6748     TIP3     H1       HT       0.417000       1.00800           0
     30160 TIP3     6748     TIP3     H2       HT       0.417000       1.00800           0
     30161 TIP3     6749     TIP3     OH2      OT      -0.834000       15.9994           0
     30162 TIP3     6749     TIP3     H1       HT       0.417000       1.00800           0
     30163 TIP3     6749     TIP3     H2       HT       0.417000       1.00800           0
     30164 TIP3     6750     TIP3     OH2      OT      -0.834000       15.9994           0
     30165 TIP3     6750     TIP3     H1       HT       0.417000       1.00800           0
     30166 TIP3     6750     TIP3     H2       HT       0.417000       1.00800           0
     30167 TIP3     6751     TIP3     OH2      OT      -0.834000       15.9994           0
     30168 TIP3     6751     TIP3     H1       HT       0.417000       1.00800           0
     30169 TIP3     6751     TIP3     H2       HT       0.417000       1.00800           0
     30170 TIP3     6752     TIP3     OH2      OT      -0.834000       15.9994           0
     30171 TIP3     6752     TIP3     H1       HT       0.417000       1.00800           0
     30172 TIP3     6752     TIP3     H2       HT       0.417000       1.00800           0
     30173 TIP3     6753     TIP3     OH2      OT      -0.834000       15.9994           0
     30174 TIP3     6753     TIP3     H1       HT       0.417000       1.00800           0
     30175 TIP3     6753     TIP3     H2       HT       0.417000       1.00800           0
     30176 TIP3     6754     TIP3     OH2      OT      -0.834000       15.9994           0
     30177 TIP3     6754     TIP3     H1       HT       0.417000       1.00800           0
     30178 TIP3     6754     TIP3     H2       HT       0.417000       1.00800           0
     30179 TIP3     6755     TIP3     OH2      OT      -0.834000       15.9994           0
     30180 TIP3     6755     TIP3     H1       HT       0.417000       1.00800           0
     30181 TIP3     6755     TIP3     H2       HT       0.417000       1.00800           0
     30182 TIP3     6756     TIP3     OH2      OT      -0.834000       15.9994           0
     30183 TIP3     6756     TIP3     H1       HT       0.417000       1.00800           0
     30184 TIP3     6756     TIP3     H2       HT       0.417000       1.00800           0
     30185 TIP3     6757     TIP3     OH2      OT      -0.834000       15.9994           0
     30186 TIP3     6757     TIP3     H1       HT       0.417000       1.00800           0
     30187 TIP3     6757     TIP3     H2       HT       0.417000       1.00800           0
     30188 TIP3     6758     TIP3     OH2      OT      -0.834000       15.9994           0
     30189 TIP3     6758     TIP3     H1       HT       0.417000       1.00800           0
     30190 TIP3     6758     TIP3     H2       HT       0.417000       1.00800           0
     30191 TIP3     6759     TIP3     OH2      OT      -0.834000       15.9994           0
     30192 TIP3     6759     TIP3     H1       HT       0.417000       1.00800           0
     30193 TIP3     6759     TIP3     H2       HT       0.417000       1.00800           0
     30194 TIP3     6760     TIP3     OH2      OT      -0.834000       15.9994           0
     30195 TIP3     6760     TIP3     H1       HT       0.417000       1.00800           0
     30196 TIP3     6760     TIP3     H2       HT       0.417000       1.00800           0
     30197 TIP3     6761     TIP3     OH2      OT      -0.834000       15.9994           0
     30198 TIP3     6761     TIP3     H1       HT       0.417000       1.00800           0
     30199 TIP3     6761     TIP3     H2       HT       0.417000       1.00800           0
     30200 TIP3     6762     TIP3     OH2      OT      -0.834000       15.9994           0
     30201 TIP3     6762     TIP3     H1       HT       0.417000       1.00800           0
     30202 TIP3     6762     TIP3     H2       HT       0.417000       1.00800           0
     30203 TIP3     6763     TIP3     OH2      OT      -0.834000       15.9994           0
     30204 TIP3     6763     TIP3     H1       HT       0.417000       1.00800           0
     30205 TIP3     6763     TIP3     H2       HT       0.417000       1.00800           0
     30206 TIP3     6764     TIP3     OH2      OT      -0.834000       15.9994           0
     30207 TIP3     6764     TIP3     H1       HT       0.417000       1.00800           0
     30208 TIP3     6764     TIP3     H2       HT       0.417000       1.00800           0
     30209 TIP3     6765     TIP3     OH2      OT      -0.834000       15.9994           0
     30210 TIP3     6765     TIP3     H1       HT       0.417000       1.00800           0
     30211 TIP3     6765     TIP3     H2       HT       0.417000       1.00800           0
     30212 TIP3     6766     TIP3     OH2      OT      -0.834000       15.9994           0
     30213 TIP3     6766     TIP3     H1       HT       0.417000       1.00800           0
     30214 TIP3     6766     TIP3     H2       HT       0.417000       1.00800           0
     30215 TIP3     6767     TIP3     OH2      OT      -0.834000       15.9994           0
     30216 TIP3     6767     TIP3     H1       HT       0.417000       1.00800           0
     30217 TIP3     6767     TIP3     H2       HT       0.417000       1.00800           0
     30218 TIP3     6768     TIP3     OH2      OT      -0.834000       15.9994           0
     30219 TIP3     6768     TIP3     H1       HT       0.417000       1.00800           0
     30220 TIP3     6768     TIP3     H2       HT       0.417000       1.00800           0
     30221 TIP3     6769     TIP3     OH2      OT      -0.834000       15.9994           0
     30222 TIP3     6769     TIP3     H1       HT       0.417000       1.00800           0
     30223 TIP3     6769     TIP3     H2       HT       0.417000       1.00800           0
     30224 TIP3     6770     TIP3     OH2      OT      -0.834000       15.9994           0
     30225 TIP3     6770     TIP3     H1       HT       0.417000       1.00800           0
     30226 TIP3     6770     TIP3     H2       HT       0.417000       1.00800           0
     30227 TIP3     6771     TIP3     OH2      OT      -0.834000       15.9994           0
     30228 TIP3     6771     TIP3     H1       HT       0.417000       1.00800           0
     30229 TIP3     6771     TIP3     H2       HT       0.417000       1.00800           0
     30230 TIP3     6772     TIP3     OH2      OT      -0.834000       15.9994           0
     30231 TIP3     6772     TIP3     H1       HT       0.417000       1.00800           0
     30232 TIP3     6772     TIP3     H2       HT       0.417000       1.00800           0
     30233 TIP3     6773     TIP3     OH2      OT      -0.834000       15.9994           0
     30234 TIP3     6773     TIP3     H1       HT       0.417000       1.00800           0
     30235 TIP3     6773     TIP3     H2       HT       0.417000       1.00800           0
     30236 TIP3     6774     TIP3     OH2      OT      -0.834000       15.9994           0
     30237 TIP3     6774     TIP3     H1       HT       0.417000       1.00800           0
     30238 TIP3     6774     TIP3     H2       HT       0.417000       1.00800           0
     30239 TIP3     6775     TIP3     OH2      OT      -0.834000       15.9994           0
     30240 TIP3     6775     TIP3     H1       HT       0.417000       1.00800           0
     30241 TIP3     6775     TIP3     H2       HT       0.417000       1.00800           0
     30242 TIP3     6776     TIP3     OH2      OT      -0.834000       15.9994           0
     30243 TIP3     6776     TIP3     H1       HT       0.417000       1.00800           0
     30244 TIP3     6776     TIP3     H2       HT       0.417000       1.00800           0
     30245 TIP3     6777     TIP3     OH2      OT      -0.834000       15.9994           0
     30246 TIP3     6777     TIP3     H1       HT       0.417000       1.00800           0
     30247 TIP3     6777     TIP3     H2       HT       0.417000       1.00800           0
     30248 TIP3     6778     TIP3     OH2      OT      -0.834000       15.9994           0
     30249 TIP3     6778     TIP3     H1       HT       0.417000       1.00800           0
     30250 TIP3     6778     TIP3     H2       HT       0.417000       1.00800           0
     30251 TIP3     6779     TIP3     OH2      OT      -0.834000       15.9994           0
     30252 TIP3     6779     TIP3     H1       HT       0.417000       1.00800           0
     30253 TIP3     6779     TIP3     H2       HT       0.417000       1.00800           0
     30254 TIP3     6780     TIP3     OH2      OT      -0.834000       15.9994           0
     30255 TIP3     6780     TIP3     H1       HT       0.417000       1.00800           0
     30256 TIP3     6780     TIP3     H2       HT       0.417000       1.00800           0
     30257 TIP3     6781     TIP3     OH2      OT      -0.834000       15.9994           0
     30258 TIP3     6781     TIP3     H1       HT       0.417000       1.00800           0
     30259 TIP3     6781     TIP3     H2       HT       0.417000       1.00800           0
     30260 TIP3     6782     TIP3     OH2      OT      -0.834000       15.9994           0
     30261 TIP3     6782     TIP3     H1       HT       0.417000       1.00800           0
     30262 TIP3     6782     TIP3     H2       HT       0.417000       1.00800           0
     30263 TIP3     6783     TIP3     OH2      OT      -0.834000       15.9994           0
     30264 TIP3     6783     TIP3     H1       HT       0.417000       1.00800           0
     30265 TIP3     6783     TIP3     H2       HT       0.417000       1.00800           0
     30266 TIP3     6784     TIP3     OH2      OT      -0.834000       15.9994           0
     30267 TIP3     6784     TIP3     H1       HT       0.417000       1.00800           0
     30268 TIP3     6784     TIP3     H2       HT       0.417000       1.00800           0
     30269 TIP3     6785     TIP3     OH2      OT      -0.834000       15.9994           0
     30270 TIP3     6785     TIP3     H1       HT       0.417000       1.00800           0
     30271 TIP3     6785     TIP3     H2       HT       0.417000       1.00800           0
     30272 TIP3     6786     TIP3     OH2      OT      -0.834000       15.9994           0
     30273 TIP3     6786     TIP3     H1       HT       0.417000       1.00800           0
     30274 TIP3     6786     TIP3     H2       HT       0.417000       1.00800           0
     30275 TIP3     6787     TIP3     OH2      OT      -0.834000       15.9994           0
     30276 TIP3     6787     TIP3     H1       HT       0.417000       1.00800           0
     30277 TIP3     6787     TIP3     H2       HT       0.417000       1.00800           0
     30278 TIP3     6788     TIP3     OH2      OT      -0.834000       15.9994           0
     30279 TIP3     6788     TIP3     H1       HT       0.417000       1.00800           0
     30280 TIP3     6788     TIP3     H2       HT       0.417000       1.00800           0
     30281 TIP3     6789     TIP3     OH2      OT      -0.834000       15.9994           0
     30282 TIP3     6789     TIP3     H1       HT       0.417000       1.00800           0
     30283 TIP3     6789     TIP3     H2       HT       0.417000       1.00800           0
     30284 TIP3     6790     TIP3     OH2      OT      -0.834000       15.9994           0
     30285 TIP3     6790     TIP3     H1       HT       0.417000       1.00800           0
     30286 TIP3     6790     TIP3     H2       HT       0.417000       1.00800           0
     30287 TIP3     6791     TIP3     OH2      OT      -0.834000       15.9994           0
     30288 TIP3     6791     TIP3     H1       HT       0.417000       1.00800           0
     30289 TIP3     6791     TIP3     H2       HT       0.417000       1.00800           0
     30290 TIP3     6792     TIP3     OH2      OT      -0.834000       15.9994           0
     30291 TIP3     6792     TIP3     H1       HT       0.417000       1.00800           0
     30292 TIP3     6792     TIP3     H2       HT       0.417000       1.00800           0
     30293 TIP3     6793     TIP3     OH2      OT      -0.834000       15.9994           0
     30294 TIP3     6793     TIP3     H1       HT       0.417000       1.00800           0
     30295 TIP3     6793     TIP3     H2       HT       0.417000       1.00800           0
     30296 TIP3     6794     TIP3     OH2      OT      -0.834000       15.9994           0
     30297 TIP3     6794     TIP3     H1       HT       0.417000       1.00800           0
     30298 TIP3     6794     TIP3     H2       HT       0.417000       1.00800           0
     30299 TIP3     6795     TIP3     OH2      OT      -0.834000       15.9994           0
     30300 TIP3     6795     TIP3     H1       HT       0.417000       1.00800           0
     30301 TIP3     6795     TIP3     H2       HT       0.417000       1.00800           0
     30302 TIP3     6796     TIP3     OH2      OT      -0.834000       15.9994           0
     30303 TIP3     6796     TIP3     H1       HT       0.417000       1.00800           0
     30304 TIP3     6796     TIP3     H2       HT       0.417000       1.00800           0
     30305 TIP3     6797     TIP3     OH2      OT      -0.834000       15.9994           0
     30306 TIP3     6797     TIP3     H1       HT       0.417000       1.00800           0
     30307 TIP3     6797     TIP3     H2       HT       0.417000       1.00800           0
     30308 TIP3     6798     TIP3     OH2      OT      -0.834000       15.9994           0
     30309 TIP3     6798     TIP3     H1       HT       0.417000       1.00800           0
     30310 TIP3     6798     TIP3     H2       HT       0.417000       1.00800           0
     30311 TIP3     6799     TIP3     OH2      OT      -0.834000       15.9994           0
     30312 TIP3     6799     TIP3     H1       HT       0.417000       1.00800           0
     30313 TIP3     6799     TIP3     H2       HT       0.417000       1.00800           0
     30314 TIP3     6800     TIP3     OH2      OT      -0.834000       15.9994           0
     30315 TIP3     6800     TIP3     H1       HT       0.417000       1.00800           0
     30316 TIP3     6800     TIP3     H2       HT       0.417000       1.00800           0
     30317 TIP3     6801     TIP3     OH2      OT      -0.834000       15.9994           0
     30318 TIP3     6801     TIP3     H1       HT       0.417000       1.00800           0
     30319 TIP3     6801     TIP3     H2       HT       0.417000       1.00800           0
     30320 TIP3     6802     TIP3     OH2      OT      -0.834000       15.9994           0
     30321 TIP3     6802     TIP3     H1       HT       0.417000       1.00800           0
     30322 TIP3     6802     TIP3     H2       HT       0.417000       1.00800           0
     30323 TIP3     6803     TIP3     OH2      OT      -0.834000       15.9994           0
     30324 TIP3     6803     TIP3     H1       HT       0.417000       1.00800           0
     30325 TIP3     6803     TIP3     H2       HT       0.417000       1.00800           0
     30326 TIP3     6804     TIP3     OH2      OT      -0.834000       15.9994           0
     30327 TIP3     6804     TIP3     H1       HT       0.417000       1.00800           0
     30328 TIP3     6804     TIP3     H2       HT       0.417000       1.00800           0
     30329 TIP3     6805     TIP3     OH2      OT      -0.834000       15.9994           0
     30330 TIP3     6805     TIP3     H1       HT       0.417000       1.00800           0
     30331 TIP3     6805     TIP3     H2       HT       0.417000       1.00800           0
     30332 TIP3     6806     TIP3     OH2      OT      -0.834000       15.9994           0
     30333 TIP3     6806     TIP3     H1       HT       0.417000       1.00800           0
     30334 TIP3     6806     TIP3     H2       HT       0.417000       1.00800           0
     30335 TIP3     6807     TIP3     OH2      OT      -0.834000       15.9994           0
     30336 TIP3     6807     TIP3     H1       HT       0.417000       1.00800           0
     30337 TIP3     6807     TIP3     H2       HT       0.417000       1.00800           0
     30338 TIP3     6808     TIP3     OH2      OT      -0.834000       15.9994           0
     30339 TIP3     6808     TIP3     H1       HT       0.417000       1.00800           0
     30340 TIP3     6808     TIP3     H2       HT       0.417000       1.00800           0
     30341 TIP3     6809     TIP3     OH2      OT      -0.834000       15.9994           0
     30342 TIP3     6809     TIP3     H1       HT       0.417000       1.00800           0
     30343 TIP3     6809     TIP3     H2       HT       0.417000       1.00800           0
     30344 TIP3     6810     TIP3     OH2      OT      -0.834000       15.9994           0
     30345 TIP3     6810     TIP3     H1       HT       0.417000       1.00800           0
     30346 TIP3     6810     TIP3     H2       HT       0.417000       1.00800           0
     30347 TIP3     6811     TIP3     OH2      OT      -0.834000       15.9994           0
     30348 TIP3     6811     TIP3     H1       HT       0.417000       1.00800           0
     30349 TIP3     6811     TIP3     H2       HT       0.417000       1.00800           0
     30350 TIP3     6812     TIP3     OH2      OT      -0.834000       15.9994           0
     30351 TIP3     6812     TIP3     H1       HT       0.417000       1.00800           0
     30352 TIP3     6812     TIP3     H2       HT       0.417000       1.00800           0
     30353 TIP3     6813     TIP3     OH2      OT      -0.834000       15.9994           0
     30354 TIP3     6813     TIP3     H1       HT       0.417000       1.00800           0
     30355 TIP3     6813     TIP3     H2       HT       0.417000       1.00800           0
     30356 TIP3     6814     TIP3     OH2      OT      -0.834000       15.9994           0
     30357 TIP3     6814     TIP3     H1       HT       0.417000       1.00800           0
     30358 TIP3     6814     TIP3     H2       HT       0.417000       1.00800           0
     30359 TIP3     6815     TIP3     OH2      OT      -0.834000       15.9994           0
     30360 TIP3     6815     TIP3     H1       HT       0.417000       1.00800           0
     30361 TIP3     6815     TIP3     H2       HT       0.417000       1.00800           0
     30362 TIP3     6816     TIP3     OH2      OT      -0.834000       15.9994           0
     30363 TIP3     6816     TIP3     H1       HT       0.417000       1.00800           0
     30364 TIP3     6816     TIP3     H2       HT       0.417000       1.00800           0
     30365 TIP3     6817     TIP3     OH2      OT      -0.834000       15.9994           0
     30366 TIP3     6817     TIP3     H1       HT       0.417000       1.00800           0
     30367 TIP3     6817     TIP3     H2       HT       0.417000       1.00800           0
     30368 TIP3     6818     TIP3     OH2      OT      -0.834000       15.9994           0
     30369 TIP3     6818     TIP3     H1       HT       0.417000       1.00800           0
     30370 TIP3     6818     TIP3     H2       HT       0.417000       1.00800           0
     30371 TIP3     6819     TIP3     OH2      OT      -0.834000       15.9994           0
     30372 TIP3     6819     TIP3     H1       HT       0.417000       1.00800           0
     30373 TIP3     6819     TIP3     H2       HT       0.417000       1.00800           0
     30374 TIP3     6820     TIP3     OH2      OT      -0.834000       15.9994           0
     30375 TIP3     6820     TIP3     H1       HT       0.417000       1.00800           0
     30376 TIP3     6820     TIP3     H2       HT       0.417000       1.00800           0
     30377 TIP3     6821     TIP3     OH2      OT      -0.834000       15.9994           0
     30378 TIP3     6821     TIP3     H1       HT       0.417000       1.00800           0
     30379 TIP3     6821     TIP3     H2       HT       0.417000       1.00800           0
     30380 TIP3     6822     TIP3     OH2      OT      -0.834000       15.9994           0
     30381 TIP3     6822     TIP3     H1       HT       0.417000       1.00800           0
     30382 TIP3     6822     TIP3     H2       HT       0.417000       1.00800           0
     30383 TIP3     6823     TIP3     OH2      OT      -0.834000       15.9994           0
     30384 TIP3     6823     TIP3     H1       HT       0.417000       1.00800           0
     30385 TIP3     6823     TIP3     H2       HT       0.417000       1.00800           0
     30386 TIP3     6824     TIP3     OH2      OT      -0.834000       15.9994           0
     30387 TIP3     6824     TIP3     H1       HT       0.417000       1.00800           0
     30388 TIP3     6824     TIP3     H2       HT       0.417000       1.00800           0
     30389 TIP3     6825     TIP3     OH2      OT      -0.834000       15.9994           0
     30390 TIP3     6825     TIP3     H1       HT       0.417000       1.00800           0
     30391 TIP3     6825     TIP3     H2       HT       0.417000       1.00800           0
     30392 TIP3     6826     TIP3     OH2      OT      -0.834000       15.9994           0
     30393 TIP3     6826     TIP3     H1       HT       0.417000       1.00800           0
     30394 TIP3     6826     TIP3     H2       HT       0.417000       1.00800           0
     30395 TIP3     6827     TIP3     OH2      OT      -0.834000       15.9994           0
     30396 TIP3     6827     TIP3     H1       HT       0.417000       1.00800           0
     30397 TIP3     6827     TIP3     H2       HT       0.417000       1.00800           0
     30398 TIP3     6828     TIP3     OH2      OT      -0.834000       15.9994           0
     30399 TIP3     6828     TIP3     H1       HT       0.417000       1.00800           0
     30400 TIP3     6828     TIP3     H2       HT       0.417000       1.00800           0
     30401 TIP3     6829     TIP3     OH2      OT      -0.834000       15.9994           0
     30402 TIP3     6829     TIP3     H1       HT       0.417000       1.00800           0
     30403 TIP3     6829     TIP3     H2       HT       0.417000       1.00800           0
     30404 TIP3     6830     TIP3     OH2      OT      -0.834000       15.9994           0
     30405 TIP3     6830     TIP3     H1       HT       0.417000       1.00800           0
     30406 TIP3     6830     TIP3     H2       HT       0.417000       1.00800           0
     30407 TIP3     6831     TIP3     OH2      OT      -0.834000       15.9994           0
     30408 TIP3     6831     TIP3     H1       HT       0.417000       1.00800           0
     30409 TIP3     6831     TIP3     H2       HT       0.417000       1.00800           0
     30410 TIP3     6832     TIP3     OH2      OT      -0.834000       15.9994           0
     30411 TIP3     6832     TIP3     H1       HT       0.417000       1.00800           0
     30412 TIP3     6832     TIP3     H2       HT       0.417000       1.00800           0
     30413 TIP3     6833     TIP3     OH2      OT      -0.834000       15.9994           0
     30414 TIP3     6833     TIP3     H1       HT       0.417000       1.00800           0
     30415 TIP3     6833     TIP3     H2       HT       0.417000       1.00800           0
     30416 TIP3     6834     TIP3     OH2      OT      -0.834000       15.9994           0
     30417 TIP3     6834     TIP3     H1       HT       0.417000       1.00800           0
     30418 TIP3     6834     TIP3     H2       HT       0.417000       1.00800           0
     30419 TIP3     6835     TIP3     OH2      OT      -0.834000       15.9994           0
     30420 TIP3     6835     TIP3     H1       HT       0.417000       1.00800           0
     30421 TIP3     6835     TIP3     H2       HT       0.417000       1.00800           0
     30422 TIP3     6836     TIP3     OH2      OT      -0.834000       15.9994           0
     30423 TIP3     6836     TIP3     H1       HT       0.417000       1.00800           0
     30424 TIP3     6836     TIP3     H2       HT       0.417000       1.00800           0
     30425 TIP3     6837     TIP3     OH2      OT      -0.834000       15.9994           0
     30426 TIP3     6837     TIP3     H1       HT       0.417000       1.00800           0
     30427 TIP3     6837     TIP3     H2       HT       0.417000       1.00800           0
     30428 TIP3     6838     TIP3     OH2      OT      -0.834000       15.9994           0
     30429 TIP3     6838     TIP3     H1       HT       0.417000       1.00800           0
     30430 TIP3     6838     TIP3     H2       HT       0.417000       1.00800           0
     30431 TIP3     6839     TIP3     OH2      OT      -0.834000       15.9994           0
     30432 TIP3     6839     TIP3     H1       HT       0.417000       1.00800           0
     30433 TIP3     6839     TIP3     H2       HT       0.417000       1.00800           0
     30434 TIP3     6840     TIP3     OH2      OT      -0.834000       15.9994           0
     30435 TIP3     6840     TIP3     H1       HT       0.417000       1.00800           0
     30436 TIP3     6840     TIP3     H2       HT       0.417000       1.00800           0
     30437 TIP3     6841     TIP3     OH2      OT      -0.834000       15.9994           0
     30438 TIP3     6841     TIP3     H1       HT       0.417000       1.00800           0
     30439 TIP3     6841     TIP3     H2       HT       0.417000       1.00800           0
     30440 TIP3     6842     TIP3     OH2      OT      -0.834000       15.9994           0
     30441 TIP3     6842     TIP3     H1       HT       0.417000       1.00800           0
     30442 TIP3     6842     TIP3     H2       HT       0.417000       1.00800           0
     30443 TIP3     6843     TIP3     OH2      OT      -0.834000       15.9994           0
     30444 TIP3     6843     TIP3     H1       HT       0.417000       1.00800           0
     30445 TIP3     6843     TIP3     H2       HT       0.417000       1.00800           0
     30446 TIP3     6844     TIP3     OH2      OT      -0.834000       15.9994           0
     30447 TIP3     6844     TIP3     H1       HT       0.417000       1.00800           0
     30448 TIP3     6844     TIP3     H2       HT       0.417000       1.00800           0
     30449 TIP3     6845     TIP3     OH2      OT      -0.834000       15.9994           0
     30450 TIP3     6845     TIP3     H1       HT       0.417000       1.00800           0
     30451 TIP3     6845     TIP3     H2       HT       0.417000       1.00800           0
     30452 TIP3     6846     TIP3     OH2      OT      -0.834000       15.9994           0
     30453 TIP3     6846     TIP3     H1       HT       0.417000       1.00800           0
     30454 TIP3     6846     TIP3     H2       HT       0.417000       1.00800           0
     30455 TIP3     6847     TIP3     OH2      OT      -0.834000       15.9994           0
     30456 TIP3     6847     TIP3     H1       HT       0.417000       1.00800           0
     30457 TIP3     6847     TIP3     H2       HT       0.417000       1.00800           0
     30458 TIP3     6848     TIP3     OH2      OT      -0.834000       15.9994           0
     30459 TIP3     6848     TIP3     H1       HT       0.417000       1.00800           0
     30460 TIP3     6848     TIP3     H2       HT       0.417000       1.00800           0
     30461 TIP3     6849     TIP3     OH2      OT      -0.834000       15.9994           0
     30462 TIP3     6849     TIP3     H1       HT       0.417000       1.00800           0
     30463 TIP3     6849     TIP3     H2       HT       0.417000       1.00800           0
     30464 TIP3     6850     TIP3     OH2      OT      -0.834000       15.9994           0
     30465 TIP3     6850     TIP3     H1       HT       0.417000       1.00800           0
     30466 TIP3     6850     TIP3     H2       HT       0.417000       1.00800           0
     30467 TIP3     6851     TIP3     OH2      OT      -0.834000       15.9994           0
     30468 TIP3     6851     TIP3     H1       HT       0.417000       1.00800           0
     30469 TIP3     6851     TIP3     H2       HT       0.417000       1.00800           0
     30470 TIP3     6852     TIP3     OH2      OT      -0.834000       15.9994           0
     30471 TIP3     6852     TIP3     H1       HT       0.417000       1.00800           0
     30472 TIP3     6852     TIP3     H2       HT       0.417000       1.00800           0
     30473 TIP3     6853     TIP3     OH2      OT      -0.834000       15.9994           0
     30474 TIP3     6853     TIP3     H1       HT       0.417000       1.00800           0
     30475 TIP3     6853     TIP3     H2       HT       0.417000       1.00800           0
     30476 TIP3     6854     TIP3     OH2      OT      -0.834000       15.9994           0
     30477 TIP3     6854     TIP3     H1       HT       0.417000       1.00800           0
     30478 TIP3     6854     TIP3     H2       HT       0.417000       1.00800           0
     30479 TIP3     6855     TIP3     OH2      OT      -0.834000       15.9994           0
     30480 TIP3     6855     TIP3     H1       HT       0.417000       1.00800           0
     30481 TIP3     6855     TIP3     H2       HT       0.417000       1.00800           0
     30482 TIP3     6856     TIP3     OH2      OT      -0.834000       15.9994           0
     30483 TIP3     6856     TIP3     H1       HT       0.417000       1.00800           0
     30484 TIP3     6856     TIP3     H2       HT       0.417000       1.00800           0
     30485 TIP3     6857     TIP3     OH2      OT      -0.834000       15.9994           0
     30486 TIP3     6857     TIP3     H1       HT       0.417000       1.00800           0
     30487 TIP3     6857     TIP3     H2       HT       0.417000       1.00800           0
     30488 TIP3     6858     TIP3     OH2      OT      -0.834000       15.9994           0
     30489 TIP3     6858     TIP3     H1       HT       0.417000       1.00800           0
     30490 TIP3     6858     TIP3     H2       HT       0.417000       1.00800           0
     30491 TIP3     6859     TIP3     OH2      OT      -0.834000       15.9994           0
     30492 TIP3     6859     TIP3     H1       HT       0.417000       1.00800           0
     30493 TIP3     6859     TIP3     H2       HT       0.417000       1.00800           0
     30494 TIP3     6860     TIP3     OH2      OT      -0.834000       15.9994           0
     30495 TIP3     6860     TIP3     H1       HT       0.417000       1.00800           0
     30496 TIP3     6860     TIP3     H2       HT       0.417000       1.00800           0
     30497 TIP3     6861     TIP3     OH2      OT      -0.834000       15.9994           0
     30498 TIP3     6861     TIP3     H1       HT       0.417000       1.00800           0
     30499 TIP3     6861     TIP3     H2       HT       0.417000       1.00800           0
     30500 TIP3     6862     TIP3     OH2      OT      -0.834000       15.9994           0
     30501 TIP3     6862     TIP3     H1       HT       0.417000       1.00800           0
     30502 TIP3     6862     TIP3     H2       HT       0.417000       1.00800           0
     30503 TIP3     6863     TIP3     OH2      OT      -0.834000       15.9994           0
     30504 TIP3     6863     TIP3     H1       HT       0.417000       1.00800           0
     30505 TIP3     6863     TIP3     H2       HT       0.417000       1.00800           0
     30506 TIP3     6864     TIP3     OH2      OT      -0.834000       15.9994           0
     30507 TIP3     6864     TIP3     H1       HT       0.417000       1.00800           0
     30508 TIP3     6864     TIP3     H2       HT       0.417000       1.00800           0
     30509 TIP3     6865     TIP3     OH2      OT      -0.834000       15.9994           0
     30510 TIP3     6865     TIP3     H1       HT       0.417000       1.00800           0
     30511 TIP3     6865     TIP3     H2       HT       0.417000       1.00800           0
     30512 TIP3     6866     TIP3     OH2      OT      -0.834000       15.9994           0
     30513 TIP3     6866     TIP3     H1       HT       0.417000       1.00800           0
     30514 TIP3     6866     TIP3     H2       HT       0.417000       1.00800           0
     30515 TIP3     6867     TIP3     OH2      OT      -0.834000       15.9994           0
     30516 TIP3     6867     TIP3     H1       HT       0.417000       1.00800           0
     30517 TIP3     6867     TIP3     H2       HT       0.417000       1.00800           0
     30518 TIP3     6868     TIP3     OH2      OT      -0.834000       15.9994           0
     30519 TIP3     6868     TIP3     H1       HT       0.417000       1.00800           0
     30520 TIP3     6868     TIP3     H2       HT       0.417000       1.00800           0
     30521 TIP3     6869     TIP3     OH2      OT      -0.834000       15.9994           0
     30522 TIP3     6869     TIP3     H1       HT       0.417000       1.00800           0
     30523 TIP3     6869     TIP3     H2       HT       0.417000       1.00800           0
     30524 TIP3     6870     TIP3     OH2      OT      -0.834000       15.9994           0
     30525 TIP3     6870     TIP3     H1       HT       0.417000       1.00800           0
     30526 TIP3     6870     TIP3     H2       HT       0.417000       1.00800           0
     30527 TIP3     6871     TIP3     OH2      OT      -0.834000       15.9994           0
     30528 TIP3     6871     TIP3     H1       HT       0.417000       1.00800           0
     30529 TIP3     6871     TIP3     H2       HT       0.417000       1.00800           0
     30530 TIP3     6872     TIP3     OH2      OT      -0.834000       15.9994           0
     30531 TIP3     6872     TIP3     H1       HT       0.417000       1.00800           0
     30532 TIP3     6872     TIP3     H2       HT       0.417000       1.00800           0
     30533 TIP3     6873     TIP3     OH2      OT      -0.834000       15.9994           0
     30534 TIP3     6873     TIP3     H1       HT       0.417000       1.00800           0
     30535 TIP3     6873     TIP3     H2       HT       0.417000       1.00800           0
     30536 TIP3     6874     TIP3     OH2      OT      -0.834000       15.9994           0
     30537 TIP3     6874     TIP3     H1       HT       0.417000       1.00800           0
     30538 TIP3     6874     TIP3     H2       HT       0.417000       1.00800           0
     30539 TIP3     6875     TIP3     OH2      OT      -0.834000       15.9994           0
     30540 TIP3     6875     TIP3     H1       HT       0.417000       1.00800           0
     30541 TIP3     6875     TIP3     H2       HT       0.417000       1.00800           0
     30542 TIP3     6876     TIP3     OH2      OT      -0.834000       15.9994           0
     30543 TIP3     6876     TIP3     H1       HT       0.417000       1.00800           0
     30544 TIP3     6876     TIP3     H2       HT       0.417000       1.00800           0
     30545 TIP3     6877     TIP3     OH2      OT      -0.834000       15.9994           0
     30546 TIP3     6877     TIP3     H1       HT       0.417000       1.00800           0
     30547 TIP3     6877     TIP3     H2       HT       0.417000       1.00800           0
     30548 TIP3     6878     TIP3     OH2      OT      -0.834000       15.9994           0
     30549 TIP3     6878     TIP3     H1       HT       0.417000       1.00800           0
     30550 TIP3     6878     TIP3     H2       HT       0.417000       1.00800           0
     30551 TIP3     6879     TIP3     OH2      OT      -0.834000       15.9994           0
     30552 TIP3     6879     TIP3     H1       HT       0.417000       1.00800           0
     30553 TIP3     6879     TIP3     H2       HT       0.417000       1.00800           0
     30554 TIP3     6880     TIP3     OH2      OT      -0.834000       15.9994           0
     30555 TIP3     6880     TIP3     H1       HT       0.417000       1.00800           0
     30556 TIP3     6880     TIP3     H2       HT       0.417000       1.00800           0
     30557 TIP3     6881     TIP3     OH2      OT      -0.834000       15.9994           0
     30558 TIP3     6881     TIP3     H1       HT       0.417000       1.00800           0
     30559 TIP3     6881     TIP3     H2       HT       0.417000       1.00800           0
     30560 TIP3     6882     TIP3     OH2      OT      -0.834000       15.9994           0
     30561 TIP3     6882     TIP3     H1       HT       0.417000       1.00800           0
     30562 TIP3     6882     TIP3     H2       HT       0.417000       1.00800           0
     30563 TIP3     6883     TIP3     OH2      OT      -0.834000       15.9994           0
     30564 TIP3     6883     TIP3     H1       HT       0.417000       1.00800           0
     30565 TIP3     6883     TIP3     H2       HT       0.417000       1.00800           0
     30566 TIP3     6884     TIP3     OH2      OT      -0.834000       15.9994           0
     30567 TIP3     6884     TIP3     H1       HT       0.417000       1.00800           0
     30568 TIP3     6884     TIP3     H2       HT       0.417000       1.00800           0
     30569 TIP3     6885     TIP3     OH2      OT      -0.834000       15.9994           0
     30570 TIP3     6885     TIP3     H1       HT       0.417000       1.00800           0
     30571 TIP3     6885     TIP3     H2       HT       0.417000       1.00800           0
     30572 TIP3     6886     TIP3     OH2      OT      -0.834000       15.9994           0
     30573 TIP3     6886     TIP3     H1       HT       0.417000       1.00800           0
     30574 TIP3     6886     TIP3     H2       HT       0.417000       1.00800           0
     30575 TIP3     6887     TIP3     OH2      OT      -0.834000       15.9994           0
     30576 TIP3     6887     TIP3     H1       HT       0.417000       1.00800           0
     30577 TIP3     6887     TIP3     H2       HT       0.417000       1.00800           0
     30578 TIP3     6888     TIP3     OH2      OT      -0.834000       15.9994           0
     30579 TIP3     6888     TIP3     H1       HT       0.417000       1.00800           0
     30580 TIP3     6888     TIP3     H2       HT       0.417000       1.00800           0
     30581 TIP3     6889     TIP3     OH2      OT      -0.834000       15.9994           0
     30582 TIP3     6889     TIP3     H1       HT       0.417000       1.00800           0
     30583 TIP3     6889     TIP3     H2       HT       0.417000       1.00800           0
     30584 TIP3     6890     TIP3     OH2      OT      -0.834000       15.9994           0
     30585 TIP3     6890     TIP3     H1       HT       0.417000       1.00800           0
     30586 TIP3     6890     TIP3     H2       HT       0.417000       1.00800           0
     30587 TIP3     6891     TIP3     OH2      OT      -0.834000       15.9994           0
     30588 TIP3     6891     TIP3     H1       HT       0.417000       1.00800           0
     30589 TIP3     6891     TIP3     H2       HT       0.417000       1.00800           0
     30590 TIP3     6892     TIP3     OH2      OT      -0.834000       15.9994           0
     30591 TIP3     6892     TIP3     H1       HT       0.417000       1.00800           0
     30592 TIP3     6892     TIP3     H2       HT       0.417000       1.00800           0
     30593 TIP3     6893     TIP3     OH2      OT      -0.834000       15.9994           0
     30594 TIP3     6893     TIP3     H1       HT       0.417000       1.00800           0
     30595 TIP3     6893     TIP3     H2       HT       0.417000       1.00800           0
     30596 TIP3     6894     TIP3     OH2      OT      -0.834000       15.9994           0
     30597 TIP3     6894     TIP3     H1       HT       0.417000       1.00800           0
     30598 TIP3     6894     TIP3     H2       HT       0.417000       1.00800           0
     30599 TIP3     6895     TIP3     OH2      OT      -0.834000       15.9994           0
     30600 TIP3     6895     TIP3     H1       HT       0.417000       1.00800           0
     30601 TIP3     6895     TIP3     H2       HT       0.417000       1.00800           0
     30602 TIP3     6896     TIP3     OH2      OT      -0.834000       15.9994           0
     30603 TIP3     6896     TIP3     H1       HT       0.417000       1.00800           0
     30604 TIP3     6896     TIP3     H2       HT       0.417000       1.00800           0
     30605 TIP3     6897     TIP3     OH2      OT      -0.834000       15.9994           0
     30606 TIP3     6897     TIP3     H1       HT       0.417000       1.00800           0
     30607 TIP3     6897     TIP3     H2       HT       0.417000       1.00800           0
     30608 TIP3     6898     TIP3     OH2      OT      -0.834000       15.9994           0
     30609 TIP3     6898     TIP3     H1       HT       0.417000       1.00800           0
     30610 TIP3     6898     TIP3     H2       HT       0.417000       1.00800           0
     30611 TIP3     6899     TIP3     OH2      OT      -0.834000       15.9994           0
     30612 TIP3     6899     TIP3     H1       HT       0.417000       1.00800           0
     30613 TIP3     6899     TIP3     H2       HT       0.417000       1.00800           0
     30614 TIP3     6900     TIP3     OH2      OT      -0.834000       15.9994           0
     30615 TIP3     6900     TIP3     H1       HT       0.417000       1.00800           0
     30616 TIP3     6900     TIP3     H2       HT       0.417000       1.00800           0
     30617 TIP3     6901     TIP3     OH2      OT      -0.834000       15.9994           0
     30618 TIP3     6901     TIP3     H1       HT       0.417000       1.00800           0
     30619 TIP3     6901     TIP3     H2       HT       0.417000       1.00800           0
     30620 TIP3     6902     TIP3     OH2      OT      -0.834000       15.9994           0
     30621 TIP3     6902     TIP3     H1       HT       0.417000       1.00800           0
     30622 TIP3     6902     TIP3     H2       HT       0.417000       1.00800           0
     30623 TIP3     6903     TIP3     OH2      OT      -0.834000       15.9994           0
     30624 TIP3     6903     TIP3     H1       HT       0.417000       1.00800           0
     30625 TIP3     6903     TIP3     H2       HT       0.417000       1.00800           0
     30626 TIP3     6904     TIP3     OH2      OT      -0.834000       15.9994           0
     30627 TIP3     6904     TIP3     H1       HT       0.417000       1.00800           0
     30628 TIP3     6904     TIP3     H2       HT       0.417000       1.00800           0
     30629 TIP3     6905     TIP3     OH2      OT      -0.834000       15.9994           0
     30630 TIP3     6905     TIP3     H1       HT       0.417000       1.00800           0
     30631 TIP3     6905     TIP3     H2       HT       0.417000       1.00800           0
     30632 TIP3     6906     TIP3     OH2      OT      -0.834000       15.9994           0
     30633 TIP3     6906     TIP3     H1       HT       0.417000       1.00800           0
     30634 TIP3     6906     TIP3     H2       HT       0.417000       1.00800           0
     30635 TIP3     6907     TIP3     OH2      OT      -0.834000       15.9994           0
     30636 TIP3     6907     TIP3     H1       HT       0.417000       1.00800           0
     30637 TIP3     6907     TIP3     H2       HT       0.417000       1.00800           0
     30638 TIP3     6908     TIP3     OH2      OT      -0.834000       15.9994           0
     30639 TIP3     6908     TIP3     H1       HT       0.417000       1.00800           0
     30640 TIP3     6908     TIP3     H2       HT       0.417000       1.00800           0
     30641 TIP3     6909     TIP3     OH2      OT      -0.834000       15.9994           0
     30642 TIP3     6909     TIP3     H1       HT       0.417000       1.00800           0
     30643 TIP3     6909     TIP3     H2       HT       0.417000       1.00800           0
     30644 TIP3     6910     TIP3     OH2      OT      -0.834000       15.9994           0
     30645 TIP3     6910     TIP3     H1       HT       0.417000       1.00800           0
     30646 TIP3     6910     TIP3     H2       HT       0.417000       1.00800           0
     30647 TIP3     6911     TIP3     OH2      OT      -0.834000       15.9994           0
     30648 TIP3     6911     TIP3     H1       HT       0.417000       1.00800           0
     30649 TIP3     6911     TIP3     H2       HT       0.417000       1.00800           0
     30650 TIP3     6912     TIP3     OH2      OT      -0.834000       15.9994           0
     30651 TIP3     6912     TIP3     H1       HT       0.417000       1.00800           0
     30652 TIP3     6912     TIP3     H2       HT       0.417000       1.00800           0
     30653 TIP3     6913     TIP3     OH2      OT      -0.834000       15.9994           0
     30654 TIP3     6913     TIP3     H1       HT       0.417000       1.00800           0
     30655 TIP3     6913     TIP3     H2       HT       0.417000       1.00800           0
     30656 TIP3     6914     TIP3     OH2      OT      -0.834000       15.9994           0
     30657 TIP3     6914     TIP3     H1       HT       0.417000       1.00800           0
     30658 TIP3     6914     TIP3     H2       HT       0.417000       1.00800           0
     30659 TIP3     6915     TIP3     OH2      OT      -0.834000       15.9994           0
     30660 TIP3     6915     TIP3     H1       HT       0.417000       1.00800           0
     30661 TIP3     6915     TIP3     H2       HT       0.417000       1.00800           0
     30662 TIP3     6916     TIP3     OH2      OT      -0.834000       15.9994           0
     30663 TIP3     6916     TIP3     H1       HT       0.417000       1.00800           0
     30664 TIP3     6916     TIP3     H2       HT       0.417000       1.00800           0
     30665 TIP3     6917     TIP3     OH2      OT      -0.834000       15.9994           0
     30666 TIP3     6917     TIP3     H1       HT       0.417000       1.00800           0
     30667 TIP3     6917     TIP3     H2       HT       0.417000       1.00800           0
     30668 TIP3     6918     TIP3     OH2      OT      -0.834000       15.9994           0
     30669 TIP3     6918     TIP3     H1       HT       0.417000       1.00800           0
     30670 TIP3     6918     TIP3     H2       HT       0.417000       1.00800           0
     30671 TIP3     6919     TIP3     OH2      OT      -0.834000       15.9994           0
     30672 TIP3     6919     TIP3     H1       HT       0.417000       1.00800           0
     30673 TIP3     6919     TIP3     H2       HT       0.417000       1.00800           0
     30674 TIP3     6920     TIP3     OH2      OT      -0.834000       15.9994           0
     30675 TIP3     6920     TIP3     H1       HT       0.417000       1.00800           0
     30676 TIP3     6920     TIP3     H2       HT       0.417000       1.00800           0
     30677 TIP3     6921     TIP3     OH2      OT      -0.834000       15.9994           0
     30678 TIP3     6921     TIP3     H1       HT       0.417000       1.00800           0
     30679 TIP3     6921     TIP3     H2       HT       0.417000       1.00800           0
     30680 TIP3     6922     TIP3     OH2      OT      -0.834000       15.9994           0
     30681 TIP3     6922     TIP3     H1       HT       0.417000       1.00800           0
     30682 TIP3     6922     TIP3     H2       HT       0.417000       1.00800           0
     30683 TIP3     6923     TIP3     OH2      OT      -0.834000       15.9994           0
     30684 TIP3     6923     TIP3     H1       HT       0.417000       1.00800           0
     30685 TIP3     6923     TIP3     H2       HT       0.417000       1.00800           0
     30686 TIP3     6924     TIP3     OH2      OT      -0.834000       15.9994           0
     30687 TIP3     6924     TIP3     H1       HT       0.417000       1.00800           0
     30688 TIP3     6924     TIP3     H2       HT       0.417000       1.00800           0
     30689 TIP3     6925     TIP3     OH2      OT      -0.834000       15.9994           0
     30690 TIP3     6925     TIP3     H1       HT       0.417000       1.00800           0
     30691 TIP3     6925     TIP3     H2       HT       0.417000       1.00800           0
     30692 TIP3     6926     TIP3     OH2      OT      -0.834000       15.9994           0
     30693 TIP3     6926     TIP3     H1       HT       0.417000       1.00800           0
     30694 TIP3     6926     TIP3     H2       HT       0.417000       1.00800           0
     30695 TIP3     6927     TIP3     OH2      OT      -0.834000       15.9994           0
     30696 TIP3     6927     TIP3     H1       HT       0.417000       1.00800           0
     30697 TIP3     6927     TIP3     H2       HT       0.417000       1.00800           0
     30698 TIP3     6928     TIP3     OH2      OT      -0.834000       15.9994           0
     30699 TIP3     6928     TIP3     H1       HT       0.417000       1.00800           0
     30700 TIP3     6928     TIP3     H2       HT       0.417000       1.00800           0
     30701 TIP3     6929     TIP3     OH2      OT      -0.834000       15.9994           0
     30702 TIP3     6929     TIP3     H1       HT       0.417000       1.00800           0
     30703 TIP3     6929     TIP3     H2       HT       0.417000       1.00800           0
     30704 TIP3     6930     TIP3     OH2      OT      -0.834000       15.9994           0
     30705 TIP3     6930     TIP3     H1       HT       0.417000       1.00800           0
     30706 TIP3     6930     TIP3     H2       HT       0.417000       1.00800           0
     30707 TIP3     6931     TIP3     OH2      OT      -0.834000       15.9994           0
     30708 TIP3     6931     TIP3     H1       HT       0.417000       1.00800           0
     30709 TIP3     6931     TIP3     H2       HT       0.417000       1.00800           0
     30710 TIP3     6932     TIP3     OH2      OT      -0.834000       15.9994           0
     30711 TIP3     6932     TIP3     H1       HT       0.417000       1.00800           0
     30712 TIP3     6932     TIP3     H2       HT       0.417000       1.00800           0
     30713 TIP3     6933     TIP3     OH2      OT      -0.834000       15.9994           0
     30714 TIP3     6933     TIP3     H1       HT       0.417000       1.00800           0
     30715 TIP3     6933     TIP3     H2       HT       0.417000       1.00800           0
     30716 TIP3     6934     TIP3     OH2      OT      -0.834000       15.9994           0
     30717 TIP3     6934     TIP3     H1       HT       0.417000       1.00800           0
     30718 TIP3     6934     TIP3     H2       HT       0.417000       1.00800           0
     30719 TIP3     6935     TIP3     OH2      OT      -0.834000       15.9994           0
     30720 TIP3     6935     TIP3     H1       HT       0.417000       1.00800           0
     30721 TIP3     6935     TIP3     H2       HT       0.417000       1.00800           0
     30722 TIP3     6936     TIP3     OH2      OT      -0.834000       15.9994           0
     30723 TIP3     6936     TIP3     H1       HT       0.417000       1.00800           0
     30724 TIP3     6936     TIP3     H2       HT       0.417000       1.00800           0
     30725 TIP3     6937     TIP3     OH2      OT      -0.834000       15.9994           0
     30726 TIP3     6937     TIP3     H1       HT       0.417000       1.00800           0
     30727 TIP3     6937     TIP3     H2       HT       0.417000       1.00800           0
     30728 TIP3     6938     TIP3     OH2      OT      -0.834000       15.9994           0
     30729 TIP3     6938     TIP3     H1       HT       0.417000       1.00800           0
     30730 TIP3     6938     TIP3     H2       HT       0.417000       1.00800           0
     30731 TIP3     6939     TIP3     OH2      OT      -0.834000       15.9994           0
     30732 TIP3     6939     TIP3     H1       HT       0.417000       1.00800           0
     30733 TIP3     6939     TIP3     H2       HT       0.417000       1.00800           0
     30734 TIP3     6940     TIP3     OH2      OT      -0.834000       15.9994           0
     30735 TIP3     6940     TIP3     H1       HT       0.417000       1.00800           0
     30736 TIP3     6940     TIP3     H2       HT       0.417000       1.00800           0
     30737 TIP3     6941     TIP3     OH2      OT      -0.834000       15.9994           0
     30738 TIP3     6941     TIP3     H1       HT       0.417000       1.00800           0
     30739 TIP3     6941     TIP3     H2       HT       0.417000       1.00800           0
     30740 TIP3     6942     TIP3     OH2      OT      -0.834000       15.9994           0
     30741 TIP3     6942     TIP3     H1       HT       0.417000       1.00800           0
     30742 TIP3     6942     TIP3     H2       HT       0.417000       1.00800           0
     30743 TIP3     6943     TIP3     OH2      OT      -0.834000       15.9994           0
     30744 TIP3     6943     TIP3     H1       HT       0.417000       1.00800           0
     30745 TIP3     6943     TIP3     H2       HT       0.417000       1.00800           0
     30746 TIP3     6944     TIP3     OH2      OT      -0.834000       15.9994           0
     30747 TIP3     6944     TIP3     H1       HT       0.417000       1.00800           0
     30748 TIP3     6944     TIP3     H2       HT       0.417000       1.00800           0
     30749 TIP3     6945     TIP3     OH2      OT      -0.834000       15.9994           0
     30750 TIP3     6945     TIP3     H1       HT       0.417000       1.00800           0
     30751 TIP3     6945     TIP3     H2       HT       0.417000       1.00800           0
     30752 TIP3     6946     TIP3     OH2      OT      -0.834000       15.9994           0
     30753 TIP3     6946     TIP3     H1       HT       0.417000       1.00800           0
     30754 TIP3     6946     TIP3     H2       HT       0.417000       1.00800           0
     30755 TIP3     6947     TIP3     OH2      OT      -0.834000       15.9994           0
     30756 TIP3     6947     TIP3     H1       HT       0.417000       1.00800           0
     30757 TIP3     6947     TIP3     H2       HT       0.417000       1.00800           0
     30758 TIP3     6948     TIP3     OH2      OT      -0.834000       15.9994           0
     30759 TIP3     6948     TIP3     H1       HT       0.417000       1.00800           0
     30760 TIP3     6948     TIP3     H2       HT       0.417000       1.00800           0
     30761 TIP3     6949     TIP3     OH2      OT      -0.834000       15.9994           0
     30762 TIP3     6949     TIP3     H1       HT       0.417000       1.00800           0
     30763 TIP3     6949     TIP3     H2       HT       0.417000       1.00800           0
     30764 TIP3     6950     TIP3     OH2      OT      -0.834000       15.9994           0
     30765 TIP3     6950     TIP3     H1       HT       0.417000       1.00800           0
     30766 TIP3     6950     TIP3     H2       HT       0.417000       1.00800           0
     30767 TIP3     6951     TIP3     OH2      OT      -0.834000       15.9994           0
     30768 TIP3     6951     TIP3     H1       HT       0.417000       1.00800           0
     30769 TIP3     6951     TIP3     H2       HT       0.417000       1.00800           0
     30770 TIP3     6952     TIP3     OH2      OT      -0.834000       15.9994           0
     30771 TIP3     6952     TIP3     H1       HT       0.417000       1.00800           0
     30772 TIP3     6952     TIP3     H2       HT       0.417000       1.00800           0
     30773 TIP3     6953     TIP3     OH2      OT      -0.834000       15.9994           0
     30774 TIP3     6953     TIP3     H1       HT       0.417000       1.00800           0
     30775 TIP3     6953     TIP3     H2       HT       0.417000       1.00800           0
     30776 TIP3     6954     TIP3     OH2      OT      -0.834000       15.9994           0
     30777 TIP3     6954     TIP3     H1       HT       0.417000       1.00800           0
     30778 TIP3     6954     TIP3     H2       HT       0.417000       1.00800           0
     30779 TIP3     6955     TIP3     OH2      OT      -0.834000       15.9994           0
     30780 TIP3     6955     TIP3     H1       HT       0.417000       1.00800           0
     30781 TIP3     6955     TIP3     H2       HT       0.417000       1.00800           0
     30782 TIP3     6956     TIP3     OH2      OT      -0.834000       15.9994           0
     30783 TIP3     6956     TIP3     H1       HT       0.417000       1.00800           0
     30784 TIP3     6956     TIP3     H2       HT       0.417000       1.00800           0
     30785 TIP3     6957     TIP3     OH2      OT      -0.834000       15.9994           0
     30786 TIP3     6957     TIP3     H1       HT       0.417000       1.00800           0
     30787 TIP3     6957     TIP3     H2       HT       0.417000       1.00800           0
     30788 TIP3     6958     TIP3     OH2      OT      -0.834000       15.9994           0
     30789 TIP3     6958     TIP3     H1       HT       0.417000       1.00800           0
     30790 TIP3     6958     TIP3     H2       HT       0.417000       1.00800           0
     30791 TIP3     6959     TIP3     OH2      OT      -0.834000       15.9994           0
     30792 TIP3     6959     TIP3     H1       HT       0.417000       1.00800           0
     30793 TIP3     6959     TIP3     H2       HT       0.417000       1.00800           0
     30794 TIP3     6960     TIP3     OH2      OT      -0.834000       15.9994           0
     30795 TIP3     6960     TIP3     H1       HT       0.417000       1.00800           0
     30796 TIP3     6960     TIP3     H2       HT       0.417000       1.00800           0
     30797 TIP3     6961     TIP3     OH2      OT      -0.834000       15.9994           0
     30798 TIP3     6961     TIP3     H1       HT       0.417000       1.00800           0
     30799 TIP3     6961     TIP3     H2       HT       0.417000       1.00800           0
     30800 TIP3     6962     TIP3     OH2      OT      -0.834000       15.9994           0
     30801 TIP3     6962     TIP3     H1       HT       0.417000       1.00800           0
     30802 TIP3     6962     TIP3     H2       HT       0.417000       1.00800           0
     30803 TIP3     6963     TIP3     OH2      OT      -0.834000       15.9994           0
     30804 TIP3     6963     TIP3     H1       HT       0.417000       1.00800           0
     30805 TIP3     6963     TIP3     H2       HT       0.417000       1.00800           0
     30806 TIP3     6964     TIP3     OH2      OT      -0.834000       15.9994           0
     30807 TIP3     6964     TIP3     H1       HT       0.417000       1.00800           0
     30808 TIP3     6964     TIP3     H2       HT       0.417000       1.00800           0
     30809 TIP3     6965     TIP3     OH2      OT      -0.834000       15.9994           0
     30810 TIP3     6965     TIP3     H1       HT       0.417000       1.00800           0
     30811 TIP3     6965     TIP3     H2       HT       0.417000       1.00800           0
     30812 TIP3     6966     TIP3     OH2      OT      -0.834000       15.9994           0
     30813 TIP3     6966     TIP3     H1       HT       0.417000       1.00800           0
     30814 TIP3     6966     TIP3     H2       HT       0.417000       1.00800           0
     30815 TIP3     6967     TIP3     OH2      OT      -0.834000       15.9994           0
     30816 TIP3     6967     TIP3     H1       HT       0.417000       1.00800           0
     30817 TIP3     6967     TIP3     H2       HT       0.417000       1.00800           0
     30818 TIP3     6968     TIP3     OH2      OT      -0.834000       15.9994           0
     30819 TIP3     6968     TIP3     H1       HT       0.417000       1.00800           0
     30820 TIP3     6968     TIP3     H2       HT       0.417000       1.00800           0
     30821 TIP3     6969     TIP3     OH2      OT      -0.834000       15.9994           0
     30822 TIP3     6969     TIP3     H1       HT       0.417000       1.00800           0
     30823 TIP3     6969     TIP3     H2       HT       0.417000       1.00800           0
     30824 TIP3     6970     TIP3     OH2      OT      -0.834000       15.9994           0
     30825 TIP3     6970     TIP3     H1       HT       0.417000       1.00800           0
     30826 TIP3     6970     TIP3     H2       HT       0.417000       1.00800           0
     30827 TIP3     6971     TIP3     OH2      OT      -0.834000       15.9994           0
     30828 TIP3     6971     TIP3     H1       HT       0.417000       1.00800           0
     30829 TIP3     6971     TIP3     H2       HT       0.417000       1.00800           0
     30830 TIP3     6972     TIP3     OH2      OT      -0.834000       15.9994           0
     30831 TIP3     6972     TIP3     H1       HT       0.417000       1.00800           0
     30832 TIP3     6972     TIP3     H2       HT       0.417000       1.00800           0
     30833 TIP3     6973     TIP3     OH2      OT      -0.834000       15.9994           0
     30834 TIP3     6973     TIP3     H1       HT       0.417000       1.00800           0
     30835 TIP3     6973     TIP3     H2       HT       0.417000       1.00800           0
     30836 TIP3     6974     TIP3     OH2      OT      -0.834000       15.9994           0
     30837 TIP3     6974     TIP3     H1       HT       0.417000       1.00800           0
     30838 TIP3     6974     TIP3     H2       HT       0.417000       1.00800           0
     30839 TIP3     6975     TIP3     OH2      OT      -0.834000       15.9994           0
     30840 TIP3     6975     TIP3     H1       HT       0.417000       1.00800           0
     30841 TIP3     6975     TIP3     H2       HT       0.417000       1.00800           0
     30842 TIP3     6976     TIP3     OH2      OT      -0.834000       15.9994           0
     30843 TIP3     6976     TIP3     H1       HT       0.417000       1.00800           0
     30844 TIP3     6976     TIP3     H2       HT       0.417000       1.00800           0
     30845 TIP3     6977     TIP3     OH2      OT      -0.834000       15.9994           0
     30846 TIP3     6977     TIP3     H1       HT       0.417000       1.00800           0
     30847 TIP3     6977     TIP3     H2       HT       0.417000       1.00800           0
     30848 TIP3     6978     TIP3     OH2      OT      -0.834000       15.9994           0
     30849 TIP3     6978     TIP3     H1       HT       0.417000       1.00800           0
     30850 TIP3     6978     TIP3     H2       HT       0.417000       1.00800           0
     30851 TIP3     6979     TIP3     OH2      OT      -0.834000       15.9994           0
     30852 TIP3     6979     TIP3     H1       HT       0.417000       1.00800           0
     30853 TIP3     6979     TIP3     H2       HT       0.417000       1.00800           0
     30854 TIP3     6980     TIP3     OH2      OT      -0.834000       15.9994           0
     30855 TIP3     6980     TIP3     H1       HT       0.417000       1.00800           0
     30856 TIP3     6980     TIP3     H2       HT       0.417000       1.00800           0
     30857 TIP3     6981     TIP3     OH2      OT      -0.834000       15.9994           0
     30858 TIP3     6981     TIP3     H1       HT       0.417000       1.00800           0
     30859 TIP3     6981     TIP3     H2       HT       0.417000       1.00800           0
     30860 TIP3     6982     TIP3     OH2      OT      -0.834000       15.9994           0
     30861 TIP3     6982     TIP3     H1       HT       0.417000       1.00800           0
     30862 TIP3     6982     TIP3     H2       HT       0.417000       1.00800           0
     30863 TIP3     6983     TIP3     OH2      OT      -0.834000       15.9994           0
     30864 TIP3     6983     TIP3     H1       HT       0.417000       1.00800           0
     30865 TIP3     6983     TIP3     H2       HT       0.417000       1.00800           0
     30866 TIP3     6984     TIP3     OH2      OT      -0.834000       15.9994           0
     30867 TIP3     6984     TIP3     H1       HT       0.417000       1.00800           0
     30868 TIP3     6984     TIP3     H2       HT       0.417000       1.00800           0
     30869 TIP3     6985     TIP3     OH2      OT      -0.834000       15.9994           0
     30870 TIP3     6985     TIP3     H1       HT       0.417000       1.00800           0
     30871 TIP3     6985     TIP3     H2       HT       0.417000       1.00800           0
     30872 TIP3     6986     TIP3     OH2      OT      -0.834000       15.9994           0
     30873 TIP3     6986     TIP3     H1       HT       0.417000       1.00800           0
     30874 TIP3     6986     TIP3     H2       HT       0.417000       1.00800           0
     30875 TIP3     6987     TIP3     OH2      OT      -0.834000       15.9994           0
     30876 TIP3     6987     TIP3     H1       HT       0.417000       1.00800           0
     30877 TIP3     6987     TIP3     H2       HT       0.417000       1.00800           0
     30878 TIP3     6988     TIP3     OH2      OT      -0.834000       15.9994           0
     30879 TIP3     6988     TIP3     H1       HT       0.417000       1.00800           0
     30880 TIP3     6988     TIP3     H2       HT       0.417000       1.00800           0
     30881 TIP3     6989     TIP3     OH2      OT      -0.834000       15.9994           0
     30882 TIP3     6989     TIP3     H1       HT       0.417000       1.00800           0
     30883 TIP3     6989     TIP3     H2       HT       0.417000       1.00800           0
     30884 TIP3     6990     TIP3     OH2      OT      -0.834000       15.9994           0
     30885 TIP3     6990     TIP3     H1       HT       0.417000       1.00800           0
     30886 TIP3     6990     TIP3     H2       HT       0.417000       1.00800           0
     30887 TIP3     6991     TIP3     OH2      OT      -0.834000       15.9994           0
     30888 TIP3     6991     TIP3     H1       HT       0.417000       1.00800           0
     30889 TIP3     6991     TIP3     H2       HT       0.417000       1.00800           0
     30890 TIP3     6992     TIP3     OH2      OT      -0.834000       15.9994           0
     30891 TIP3     6992     TIP3     H1       HT       0.417000       1.00800           0
     30892 TIP3     6992     TIP3     H2       HT       0.417000       1.00800           0
     30893 TIP3     6993     TIP3     OH2      OT      -0.834000       15.9994           0
     30894 TIP3     6993     TIP3     H1       HT       0.417000       1.00800           0
     30895 TIP3     6993     TIP3     H2       HT       0.417000       1.00800           0
     30896 TIP3     6994     TIP3     OH2      OT      -0.834000       15.9994           0
     30897 TIP3     6994     TIP3     H1       HT       0.417000       1.00800           0
     30898 TIP3     6994     TIP3     H2       HT       0.417000       1.00800           0
     30899 TIP3     6995     TIP3     OH2      OT      -0.834000       15.9994           0
     30900 TIP3     6995     TIP3     H1       HT       0.417000       1.00800           0
     30901 TIP3     6995     TIP3     H2       HT       0.417000       1.00800           0
     30902 TIP3     6996     TIP3     OH2      OT      -0.834000       15.9994           0
     30903 TIP3     6996     TIP3     H1       HT       0.417000       1.00800           0
     30904 TIP3     6996     TIP3     H2       HT       0.417000       1.00800           0
     30905 TIP3     6997     TIP3     OH2      OT      -0.834000       15.9994           0
     30906 TIP3     6997     TIP3     H1       HT       0.417000       1.00800           0
     30907 TIP3     6997     TIP3     H2       HT       0.417000       1.00800           0
     30908 TIP3     6998     TIP3     OH2      OT      -0.834000       15.9994           0
     30909 TIP3     6998     TIP3     H1       HT       0.417000       1.00800           0
     30910 TIP3     6998     TIP3     H2       HT       0.417000       1.00800           0
     30911 TIP3     6999     TIP3     OH2      OT      -0.834000       15.9994           0
     30912 TIP3     6999     TIP3     H1       HT       0.417000       1.00800           0
     30913 TIP3     6999     TIP3     H2       HT       0.417000       1.00800           0
     30914 TIP3     7000     TIP3     OH2      OT      -0.834000       15.9994           0
     30915 TIP3     7000     TIP3     H1       HT       0.417000       1.00800           0
     30916 TIP3     7000     TIP3     H2       HT       0.417000       1.00800           0
     30917 TIP3     7001     TIP3     OH2      OT      -0.834000       15.9994           0
     30918 TIP3     7001     TIP3     H1       HT       0.417000       1.00800           0
     30919 TIP3     7001     TIP3     H2       HT       0.417000       1.00800           0
     30920 TIP3     7002     TIP3     OH2      OT      -0.834000       15.9994           0
     30921 TIP3     7002     TIP3     H1       HT       0.417000       1.00800           0
     30922 TIP3     7002     TIP3     H2       HT       0.417000       1.00800           0
     30923 TIP3     7003     TIP3     OH2      OT      -0.834000       15.9994           0
     30924 TIP3     7003     TIP3     H1       HT       0.417000       1.00800           0
     30925 TIP3     7003     TIP3     H2       HT       0.417000       1.00800           0
     30926 TIP3     7004     TIP3     OH2      OT      -0.834000       15.9994           0
     30927 TIP3     7004     TIP3     H1       HT       0.417000       1.00800           0
     30928 TIP3     7004     TIP3     H2       HT       0.417000       1.00800           0
     30929 TIP3     7005     TIP3     OH2      OT      -0.834000       15.9994           0
     30930 TIP3     7005     TIP3     H1       HT       0.417000       1.00800           0
     30931 TIP3     7005     TIP3     H2       HT       0.417000       1.00800           0
     30932 TIP3     7006     TIP3     OH2      OT      -0.834000       15.9994           0
     30933 TIP3     7006     TIP3     H1       HT       0.417000       1.00800           0
     30934 TIP3     7006     TIP3     H2       HT       0.417000       1.00800           0
     30935 TIP3     7007     TIP3     OH2      OT      -0.834000       15.9994           0
     30936 TIP3     7007     TIP3     H1       HT       0.417000       1.00800           0
     30937 TIP3     7007     TIP3     H2       HT       0.417000       1.00800           0
     30938 TIP3     7008     TIP3     OH2      OT      -0.834000       15.9994           0
     30939 TIP3     7008     TIP3     H1       HT       0.417000       1.00800           0
     30940 TIP3     7008     TIP3     H2       HT       0.417000       1.00800           0
     30941 TIP3     7009     TIP3     OH2      OT      -0.834000       15.9994           0
     30942 TIP3     7009     TIP3     H1       HT       0.417000       1.00800           0
     30943 TIP3     7009     TIP3     H2       HT       0.417000       1.00800           0
     30944 TIP3     7010     TIP3     OH2      OT      -0.834000       15.9994           0
     30945 TIP3     7010     TIP3     H1       HT       0.417000       1.00800           0
     30946 TIP3     7010     TIP3     H2       HT       0.417000       1.00800           0
     30947 TIP3     7011     TIP3     OH2      OT      -0.834000       15.9994           0
     30948 TIP3     7011     TIP3     H1       HT       0.417000       1.00800           0
     30949 TIP3     7011     TIP3     H2       HT       0.417000       1.00800           0
     30950 TIP3     7012     TIP3     OH2      OT      -0.834000       15.9994           0
     30951 TIP3     7012     TIP3     H1       HT       0.417000       1.00800           0
     30952 TIP3     7012     TIP3     H2       HT       0.417000       1.00800           0
     30953 TIP3     7013     TIP3     OH2      OT      -0.834000       15.9994           0
     30954 TIP3     7013     TIP3     H1       HT       0.417000       1.00800           0
     30955 TIP3     7013     TIP3     H2       HT       0.417000       1.00800           0
     30956 TIP3     7014     TIP3     OH2      OT      -0.834000       15.9994           0
     30957 TIP3     7014     TIP3     H1       HT       0.417000       1.00800           0
     30958 TIP3     7014     TIP3     H2       HT       0.417000       1.00800           0
     30959 TIP3     7015     TIP3     OH2      OT      -0.834000       15.9994           0
     30960 TIP3     7015     TIP3     H1       HT       0.417000       1.00800           0
     30961 TIP3     7015     TIP3     H2       HT       0.417000       1.00800           0
     30962 TIP3     7016     TIP3     OH2      OT      -0.834000       15.9994           0
     30963 TIP3     7016     TIP3     H1       HT       0.417000       1.00800           0
     30964 TIP3     7016     TIP3     H2       HT       0.417000       1.00800           0
     30965 TIP3     7017     TIP3     OH2      OT      -0.834000       15.9994           0
     30966 TIP3     7017     TIP3     H1       HT       0.417000       1.00800           0
     30967 TIP3     7017     TIP3     H2       HT       0.417000       1.00800           0
     30968 TIP3     7018     TIP3     OH2      OT      -0.834000       15.9994           0
     30969 TIP3     7018     TIP3     H1       HT       0.417000       1.00800           0
     30970 TIP3     7018     TIP3     H2       HT       0.417000       1.00800           0
     30971 TIP3     7019     TIP3     OH2      OT      -0.834000       15.9994           0
     30972 TIP3     7019     TIP3     H1       HT       0.417000       1.00800           0
     30973 TIP3     7019     TIP3     H2       HT       0.417000       1.00800           0
     30974 TIP3     7020     TIP3     OH2      OT      -0.834000       15.9994           0
     30975 TIP3     7020     TIP3     H1       HT       0.417000       1.00800           0
     30976 TIP3     7020     TIP3     H2       HT       0.417000       1.00800           0
     30977 TIP3     7021     TIP3     OH2      OT      -0.834000       15.9994           0
     30978 TIP3     7021     TIP3     H1       HT       0.417000       1.00800           0
     30979 TIP3     7021     TIP3     H2       HT       0.417000       1.00800           0
     30980 TIP3     7022     TIP3     OH2      OT      -0.834000       15.9994           0
     30981 TIP3     7022     TIP3     H1       HT       0.417000       1.00800           0
     30982 TIP3     7022     TIP3     H2       HT       0.417000       1.00800           0
     30983 TIP3     7023     TIP3     OH2      OT      -0.834000       15.9994           0
     30984 TIP3     7023     TIP3     H1       HT       0.417000       1.00800           0
     30985 TIP3     7023     TIP3     H2       HT       0.417000       1.00800           0
     30986 TIP3     7024     TIP3     OH2      OT      -0.834000       15.9994           0
     30987 TIP3     7024     TIP3     H1       HT       0.417000       1.00800           0
     30988 TIP3     7024     TIP3     H2       HT       0.417000       1.00800           0
     30989 TIP3     7025     TIP3     OH2      OT      -0.834000       15.9994           0
     30990 TIP3     7025     TIP3     H1       HT       0.417000       1.00800           0
     30991 TIP3     7025     TIP3     H2       HT       0.417000       1.00800           0
     30992 TIP3     7026     TIP3     OH2      OT      -0.834000       15.9994           0
     30993 TIP3     7026     TIP3     H1       HT       0.417000       1.00800           0
     30994 TIP3     7026     TIP3     H2       HT       0.417000       1.00800           0
     30995 TIP3     7027     TIP3     OH2      OT      -0.834000       15.9994           0
     30996 TIP3     7027     TIP3     H1       HT       0.417000       1.00800           0
     30997 TIP3     7027     TIP3     H2       HT       0.417000       1.00800           0
     30998 TIP3     7028     TIP3     OH2      OT      -0.834000       15.9994           0
     30999 TIP3     7028     TIP3     H1       HT       0.417000       1.00800           0
     31000 TIP3     7028     TIP3     H2       HT       0.417000       1.00800           0
     31001 TIP3     7029     TIP3     OH2      OT      -0.834000       15.9994           0
     31002 TIP3     7029     TIP3     H1       HT       0.417000       1.00800           0
     31003 TIP3     7029     TIP3     H2       HT       0.417000       1.00800           0
     31004 TIP3     7030     TIP3     OH2      OT      -0.834000       15.9994           0
     31005 TIP3     7030     TIP3     H1       HT       0.417000       1.00800           0
     31006 TIP3     7030     TIP3     H2       HT       0.417000       1.00800           0
     31007 TIP3     7031     TIP3     OH2      OT      -0.834000       15.9994           0
     31008 TIP3     7031     TIP3     H1       HT       0.417000       1.00800           0
     31009 TIP3     7031     TIP3     H2       HT       0.417000       1.00800           0
     31010 TIP3     7032     TIP3     OH2      OT      -0.834000       15.9994           0
     31011 TIP3     7032     TIP3     H1       HT       0.417000       1.00800           0
     31012 TIP3     7032     TIP3     H2       HT       0.417000       1.00800           0
     31013 TIP3     7033     TIP3     OH2      OT      -0.834000       15.9994           0
     31014 TIP3     7033     TIP3     H1       HT       0.417000       1.00800           0
     31015 TIP3     7033     TIP3     H2       HT       0.417000       1.00800           0
     31016 TIP3     7034     TIP3     OH2      OT      -0.834000       15.9994           0
     31017 TIP3     7034     TIP3     H1       HT       0.417000       1.00800           0
     31018 TIP3     7034     TIP3     H2       HT       0.417000       1.00800           0
     31019 TIP3     7035     TIP3     OH2      OT      -0.834000       15.9994           0
     31020 TIP3     7035     TIP3     H1       HT       0.417000       1.00800           0
     31021 TIP3     7035     TIP3     H2       HT       0.417000       1.00800           0
     31022 TIP3     7036     TIP3     OH2      OT      -0.834000       15.9994           0
     31023 TIP3     7036     TIP3     H1       HT       0.417000       1.00800           0
     31024 TIP3     7036     TIP3     H2       HT       0.417000       1.00800           0
     31025 TIP3     7037     TIP3     OH2      OT      -0.834000       15.9994           0
     31026 TIP3     7037     TIP3     H1       HT       0.417000       1.00800           0
     31027 TIP3     7037     TIP3     H2       HT       0.417000       1.00800           0
     31028 TIP3     7038     TIP3     OH2      OT      -0.834000       15.9994           0
     31029 TIP3     7038     TIP3     H1       HT       0.417000       1.00800           0
     31030 TIP3     7038     TIP3     H2       HT       0.417000       1.00800           0
     31031 TIP3     7039     TIP3     OH2      OT      -0.834000       15.9994           0
     31032 TIP3     7039     TIP3     H1       HT       0.417000       1.00800           0
     31033 TIP3     7039     TIP3     H2       HT       0.417000       1.00800           0
     31034 TIP3     7040     TIP3     OH2      OT      -0.834000       15.9994           0
     31035 TIP3     7040     TIP3     H1       HT       0.417000       1.00800           0
     31036 TIP3     7040     TIP3     H2       HT       0.417000       1.00800           0
     31037 TIP3     7041     TIP3     OH2      OT      -0.834000       15.9994           0
     31038 TIP3     7041     TIP3     H1       HT       0.417000       1.00800           0
     31039 TIP3     7041     TIP3     H2       HT       0.417000       1.00800           0
     31040 TIP3     7042     TIP3     OH2      OT      -0.834000       15.9994           0
     31041 TIP3     7042     TIP3     H1       HT       0.417000       1.00800           0
     31042 TIP3     7042     TIP3     H2       HT       0.417000       1.00800           0
     31043 TIP3     7043     TIP3     OH2      OT      -0.834000       15.9994           0
     31044 TIP3     7043     TIP3     H1       HT       0.417000       1.00800           0
     31045 TIP3     7043     TIP3     H2       HT       0.417000       1.00800           0
     31046 TIP3     7044     TIP3     OH2      OT      -0.834000       15.9994           0
     31047 TIP3     7044     TIP3     H1       HT       0.417000       1.00800           0
     31048 TIP3     7044     TIP3     H2       HT       0.417000       1.00800           0
     31049 TIP3     7045     TIP3     OH2      OT      -0.834000       15.9994           0
     31050 TIP3     7045     TIP3     H1       HT       0.417000       1.00800           0
     31051 TIP3     7045     TIP3     H2       HT       0.417000       1.00800           0
     31052 TIP3     7046     TIP3     OH2      OT      -0.834000       15.9994           0
     31053 TIP3     7046     TIP3     H1       HT       0.417000       1.00800           0
     31054 TIP3     7046     TIP3     H2       HT       0.417000       1.00800           0
     31055 TIP3     7047     TIP3     OH2      OT      -0.834000       15.9994           0
     31056 TIP3     7047     TIP3     H1       HT       0.417000       1.00800           0
     31057 TIP3     7047     TIP3     H2       HT       0.417000       1.00800           0
     31058 TIP3     7048     TIP3     OH2      OT      -0.834000       15.9994           0
     31059 TIP3     7048     TIP3     H1       HT       0.417000       1.00800           0
     31060 TIP3     7048     TIP3     H2       HT       0.417000       1.00800           0
     31061 TIP3     7049     TIP3     OH2      OT      -0.834000       15.9994           0
     31062 TIP3     7049     TIP3     H1       HT       0.417000       1.00800           0
     31063 TIP3     7049     TIP3     H2       HT       0.417000       1.00800           0
     31064 TIP3     7050     TIP3     OH2      OT      -0.834000       15.9994           0
     31065 TIP3     7050     TIP3     H1       HT       0.417000       1.00800           0
     31066 TIP3     7050     TIP3     H2       HT       0.417000       1.00800           0
     31067 TIP3     7051     TIP3     OH2      OT      -0.834000       15.9994           0
     31068 TIP3     7051     TIP3     H1       HT       0.417000       1.00800           0
     31069 TIP3     7051     TIP3     H2       HT       0.417000       1.00800           0
     31070 TIP3     7052     TIP3     OH2      OT      -0.834000       15.9994           0
     31071 TIP3     7052     TIP3     H1       HT       0.417000       1.00800           0
     31072 TIP3     7052     TIP3     H2       HT       0.417000       1.00800           0
     31073 TIP3     7053     TIP3     OH2      OT      -0.834000       15.9994           0
     31074 TIP3     7053     TIP3     H1       HT       0.417000       1.00800           0
     31075 TIP3     7053     TIP3     H2       HT       0.417000       1.00800           0
     31076 TIP3     7054     TIP3     OH2      OT      -0.834000       15.9994           0
     31077 TIP3     7054     TIP3     H1       HT       0.417000       1.00800           0
     31078 TIP3     7054     TIP3     H2       HT       0.417000       1.00800           0
     31079 TIP3     7055     TIP3     OH2      OT      -0.834000       15.9994           0
     31080 TIP3     7055     TIP3     H1       HT       0.417000       1.00800           0
     31081 TIP3     7055     TIP3     H2       HT       0.417000       1.00800           0
     31082 TIP3     7056     TIP3     OH2      OT      -0.834000       15.9994           0
     31083 TIP3     7056     TIP3     H1       HT       0.417000       1.00800           0
     31084 TIP3     7056     TIP3     H2       HT       0.417000       1.00800           0
     31085 TIP3     7057     TIP3     OH2      OT      -0.834000       15.9994           0
     31086 TIP3     7057     TIP3     H1       HT       0.417000       1.00800           0
     31087 TIP3     7057     TIP3     H2       HT       0.417000       1.00800           0
     31088 TIP3     7058     TIP3     OH2      OT      -0.834000       15.9994           0
     31089 TIP3     7058     TIP3     H1       HT       0.417000       1.00800           0
     31090 TIP3     7058     TIP3     H2       HT       0.417000       1.00800           0
     31091 TIP3     7059     TIP3     OH2      OT      -0.834000       15.9994           0
     31092 TIP3     7059     TIP3     H1       HT       0.417000       1.00800           0
     31093 TIP3     7059     TIP3     H2       HT       0.417000       1.00800           0
     31094 TIP3     7060     TIP3     OH2      OT      -0.834000       15.9994           0
     31095 TIP3     7060     TIP3     H1       HT       0.417000       1.00800           0
     31096 TIP3     7060     TIP3     H2       HT       0.417000       1.00800           0
     31097 TIP3     7061     TIP3     OH2      OT      -0.834000       15.9994           0
     31098 TIP3     7061     TIP3     H1       HT       0.417000       1.00800           0
     31099 TIP3     7061     TIP3     H2       HT       0.417000       1.00800           0
     31100 TIP3     7062     TIP3     OH2      OT      -0.834000       15.9994           0
     31101 TIP3     7062     TIP3     H1       HT       0.417000       1.00800           0
     31102 TIP3     7062     TIP3     H2       HT       0.417000       1.00800           0
     31103 TIP3     7063     TIP3     OH2      OT      -0.834000       15.9994           0
     31104 TIP3     7063     TIP3     H1       HT       0.417000       1.00800           0
     31105 TIP3     7063     TIP3     H2       HT       0.417000       1.00800           0
     31106 TIP3     7064     TIP3     OH2      OT      -0.834000       15.9994           0
     31107 TIP3     7064     TIP3     H1       HT       0.417000       1.00800           0
     31108 TIP3     7064     TIP3     H2       HT       0.417000       1.00800           0
     31109 TIP3     7065     TIP3     OH2      OT      -0.834000       15.9994           0
     31110 TIP3     7065     TIP3     H1       HT       0.417000       1.00800           0
     31111 TIP3     7065     TIP3     H2       HT       0.417000       1.00800           0
     31112 TIP3     7066     TIP3     OH2      OT      -0.834000       15.9994           0
     31113 TIP3     7066     TIP3     H1       HT       0.417000       1.00800           0
     31114 TIP3     7066     TIP3     H2       HT       0.417000       1.00800           0
     31115 TIP3     7067     TIP3     OH2      OT      -0.834000       15.9994           0
     31116 TIP3     7067     TIP3     H1       HT       0.417000       1.00800           0
     31117 TIP3     7067     TIP3     H2       HT       0.417000       1.00800           0
     31118 TIP3     7068     TIP3     OH2      OT      -0.834000       15.9994           0
     31119 TIP3     7068     TIP3     H1       HT       0.417000       1.00800           0
     31120 TIP3     7068     TIP3     H2       HT       0.417000       1.00800           0
     31121 TIP3     7069     TIP3     OH2      OT      -0.834000       15.9994           0
     31122 TIP3     7069     TIP3     H1       HT       0.417000       1.00800           0
     31123 TIP3     7069     TIP3     H2       HT       0.417000       1.00800           0
     31124 TIP3     7070     TIP3     OH2      OT      -0.834000       15.9994           0
     31125 TIP3     7070     TIP3     H1       HT       0.417000       1.00800           0
     31126 TIP3     7070     TIP3     H2       HT       0.417000       1.00800           0
     31127 TIP3     7071     TIP3     OH2      OT      -0.834000       15.9994           0
     31128 TIP3     7071     TIP3     H1       HT       0.417000       1.00800           0
     31129 TIP3     7071     TIP3     H2       HT       0.417000       1.00800           0
     31130 TIP3     7072     TIP3     OH2      OT      -0.834000       15.9994           0
     31131 TIP3     7072     TIP3     H1       HT       0.417000       1.00800           0
     31132 TIP3     7072     TIP3     H2       HT       0.417000       1.00800           0
     31133 TIP3     7073     TIP3     OH2      OT      -0.834000       15.9994           0
     31134 TIP3     7073     TIP3     H1       HT       0.417000       1.00800           0
     31135 TIP3     7073     TIP3     H2       HT       0.417000       1.00800           0
     31136 TIP3     7074     TIP3     OH2      OT      -0.834000       15.9994           0
     31137 TIP3     7074     TIP3     H1       HT       0.417000       1.00800           0
     31138 TIP3     7074     TIP3     H2       HT       0.417000       1.00800           0
     31139 TIP3     7075     TIP3     OH2      OT      -0.834000       15.9994           0
     31140 TIP3     7075     TIP3     H1       HT       0.417000       1.00800           0
     31141 TIP3     7075     TIP3     H2       HT       0.417000       1.00800           0
     31142 TIP3     7076     TIP3     OH2      OT      -0.834000       15.9994           0
     31143 TIP3     7076     TIP3     H1       HT       0.417000       1.00800           0
     31144 TIP3     7076     TIP3     H2       HT       0.417000       1.00800           0
     31145 TIP3     7077     TIP3     OH2      OT      -0.834000       15.9994           0
     31146 TIP3     7077     TIP3     H1       HT       0.417000       1.00800           0
     31147 TIP3     7077     TIP3     H2       HT       0.417000       1.00800           0
     31148 TIP3     7078     TIP3     OH2      OT      -0.834000       15.9994           0
     31149 TIP3     7078     TIP3     H1       HT       0.417000       1.00800           0
     31150 TIP3     7078     TIP3     H2       HT       0.417000       1.00800           0
     31151 TIP3     7079     TIP3     OH2      OT      -0.834000       15.9994           0
     31152 TIP3     7079     TIP3     H1       HT       0.417000       1.00800           0
     31153 TIP3     7079     TIP3     H2       HT       0.417000       1.00800           0
     31154 TIP3     7080     TIP3     OH2      OT      -0.834000       15.9994           0
     31155 TIP3     7080     TIP3     H1       HT       0.417000       1.00800           0
     31156 TIP3     7080     TIP3     H2       HT       0.417000       1.00800           0
     31157 TIP3     7081     TIP3     OH2      OT      -0.834000       15.9994           0
     31158 TIP3     7081     TIP3     H1       HT       0.417000       1.00800           0
     31159 TIP3     7081     TIP3     H2       HT       0.417000       1.00800           0
     31160 TIP3     7082     TIP3     OH2      OT      -0.834000       15.9994           0
     31161 TIP3     7082     TIP3     H1       HT       0.417000       1.00800           0
     31162 TIP3     7082     TIP3     H2       HT       0.417000       1.00800           0
     31163 TIP3     7083     TIP3     OH2      OT      -0.834000       15.9994           0
     31164 TIP3     7083     TIP3     H1       HT       0.417000       1.00800           0
     31165 TIP3     7083     TIP3     H2       HT       0.417000       1.00800           0
     31166 TIP3     7084     TIP3     OH2      OT      -0.834000       15.9994           0
     31167 TIP3     7084     TIP3     H1       HT       0.417000       1.00800           0
     31168 TIP3     7084     TIP3     H2       HT       0.417000       1.00800           0
     31169 TIP3     7085     TIP3     OH2      OT      -0.834000       15.9994           0
     31170 TIP3     7085     TIP3     H1       HT       0.417000       1.00800           0
     31171 TIP3     7085     TIP3     H2       HT       0.417000       1.00800           0
     31172 TIP3     7086     TIP3     OH2      OT      -0.834000       15.9994           0
     31173 TIP3     7086     TIP3     H1       HT       0.417000       1.00800           0
     31174 TIP3     7086     TIP3     H2       HT       0.417000       1.00800           0
     31175 TIP3     7087     TIP3     OH2      OT      -0.834000       15.9994           0
     31176 TIP3     7087     TIP3     H1       HT       0.417000       1.00800           0
     31177 TIP3     7087     TIP3     H2       HT       0.417000       1.00800           0
     31178 TIP3     7088     TIP3     OH2      OT      -0.834000       15.9994           0
     31179 TIP3     7088     TIP3     H1       HT       0.417000       1.00800           0
     31180 TIP3     7088     TIP3     H2       HT       0.417000       1.00800           0
     31181 TIP3     7089     TIP3     OH2      OT      -0.834000       15.9994           0
     31182 TIP3     7089     TIP3     H1       HT       0.417000       1.00800           0
     31183 TIP3     7089     TIP3     H2       HT       0.417000       1.00800           0
     31184 TIP3     7090     TIP3     OH2      OT      -0.834000       15.9994           0
     31185 TIP3     7090     TIP3     H1       HT       0.417000       1.00800           0
     31186 TIP3     7090     TIP3     H2       HT       0.417000       1.00800           0
     31187 TIP3     7091     TIP3     OH2      OT      -0.834000       15.9994           0
     31188 TIP3     7091     TIP3     H1       HT       0.417000       1.00800           0
     31189 TIP3     7091     TIP3     H2       HT       0.417000       1.00800           0
     31190 TIP3     7092     TIP3     OH2      OT      -0.834000       15.9994           0
     31191 TIP3     7092     TIP3     H1       HT       0.417000       1.00800           0
     31192 TIP3     7092     TIP3     H2       HT       0.417000       1.00800           0
     31193 TIP3     7093     TIP3     OH2      OT      -0.834000       15.9994           0
     31194 TIP3     7093     TIP3     H1       HT       0.417000       1.00800           0
     31195 TIP3     7093     TIP3     H2       HT       0.417000       1.00800           0
     31196 TIP3     7094     TIP3     OH2      OT      -0.834000       15.9994           0
     31197 TIP3     7094     TIP3     H1       HT       0.417000       1.00800           0
     31198 TIP3     7094     TIP3     H2       HT       0.417000       1.00800           0
     31199 TIP3     7095     TIP3     OH2      OT      -0.834000       15.9994           0
     31200 TIP3     7095     TIP3     H1       HT       0.417000       1.00800           0
     31201 TIP3     7095     TIP3     H2       HT       0.417000       1.00800           0
     31202 TIP3     7096     TIP3     OH2      OT      -0.834000       15.9994           0
     31203 TIP3     7096     TIP3     H1       HT       0.417000       1.00800           0
     31204 TIP3     7096     TIP3     H2       HT       0.417000       1.00800           0
     31205 TIP3     7097     TIP3     OH2      OT      -0.834000       15.9994           0
     31206 TIP3     7097     TIP3     H1       HT       0.417000       1.00800           0
     31207 TIP3     7097     TIP3     H2       HT       0.417000       1.00800           0
     31208 TIP3     7098     TIP3     OH2      OT      -0.834000       15.9994           0
     31209 TIP3     7098     TIP3     H1       HT       0.417000       1.00800           0
     31210 TIP3     7098     TIP3     H2       HT       0.417000       1.00800           0
     31211 TIP3     7099     TIP3     OH2      OT      -0.834000       15.9994           0
     31212 TIP3     7099     TIP3     H1       HT       0.417000       1.00800           0
     31213 TIP3     7099     TIP3     H2       HT       0.417000       1.00800           0
     31214 TIP3     7100     TIP3     OH2      OT      -0.834000       15.9994           0
     31215 TIP3     7100     TIP3     H1       HT       0.417000       1.00800           0
     31216 TIP3     7100     TIP3     H2       HT       0.417000       1.00800           0
     31217 TIP3     7101     TIP3     OH2      OT      -0.834000       15.9994           0
     31218 TIP3     7101     TIP3     H1       HT       0.417000       1.00800           0
     31219 TIP3     7101     TIP3     H2       HT       0.417000       1.00800           0
     31220 TIP3     7102     TIP3     OH2      OT      -0.834000       15.9994           0
     31221 TIP3     7102     TIP3     H1       HT       0.417000       1.00800           0
     31222 TIP3     7102     TIP3     H2       HT       0.417000       1.00800           0
     31223 TIP3     7103     TIP3     OH2      OT      -0.834000       15.9994           0
     31224 TIP3     7103     TIP3     H1       HT       0.417000       1.00800           0
     31225 TIP3     7103     TIP3     H2       HT       0.417000       1.00800           0
     31226 TIP3     7104     TIP3     OH2      OT      -0.834000       15.9994           0
     31227 TIP3     7104     TIP3     H1       HT       0.417000       1.00800           0
     31228 TIP3     7104     TIP3     H2       HT       0.417000       1.00800           0
     31229 TIP3     7105     TIP3     OH2      OT      -0.834000       15.9994           0
     31230 TIP3     7105     TIP3     H1       HT       0.417000       1.00800           0
     31231 TIP3     7105     TIP3     H2       HT       0.417000       1.00800           0
     31232 TIP3     7106     TIP3     OH2      OT      -0.834000       15.9994           0
     31233 TIP3     7106     TIP3     H1       HT       0.417000       1.00800           0
     31234 TIP3     7106     TIP3     H2       HT       0.417000       1.00800           0
     31235 TIP3     7107     TIP3     OH2      OT      -0.834000       15.9994           0
     31236 TIP3     7107     TIP3     H1       HT       0.417000       1.00800           0
     31237 TIP3     7107     TIP3     H2       HT       0.417000       1.00800           0
     31238 TIP3     7108     TIP3     OH2      OT      -0.834000       15.9994           0
     31239 TIP3     7108     TIP3     H1       HT       0.417000       1.00800           0
     31240 TIP3     7108     TIP3     H2       HT       0.417000       1.00800           0
     31241 TIP3     7109     TIP3     OH2      OT      -0.834000       15.9994           0
     31242 TIP3     7109     TIP3     H1       HT       0.417000       1.00800           0
     31243 TIP3     7109     TIP3     H2       HT       0.417000       1.00800           0
     31244 TIP3     7110     TIP3     OH2      OT      -0.834000       15.9994           0
     31245 TIP3     7110     TIP3     H1       HT       0.417000       1.00800           0
     31246 TIP3     7110     TIP3     H2       HT       0.417000       1.00800           0
     31247 TIP3     7111     TIP3     OH2      OT      -0.834000       15.9994           0
     31248 TIP3     7111     TIP3     H1       HT       0.417000       1.00800           0
     31249 TIP3     7111     TIP3     H2       HT       0.417000       1.00800           0
     31250 TIP3     7112     TIP3     OH2      OT      -0.834000       15.9994           0
     31251 TIP3     7112     TIP3     H1       HT       0.417000       1.00800           0
     31252 TIP3     7112     TIP3     H2       HT       0.417000       1.00800           0
     31253 TIP3     7113     TIP3     OH2      OT      -0.834000       15.9994           0
     31254 TIP3     7113     TIP3     H1       HT       0.417000       1.00800           0
     31255 TIP3     7113     TIP3     H2       HT       0.417000       1.00800           0
     31256 TIP3     7114     TIP3     OH2      OT      -0.834000       15.9994           0
     31257 TIP3     7114     TIP3     H1       HT       0.417000       1.00800           0
     31258 TIP3     7114     TIP3     H2       HT       0.417000       1.00800           0
     31259 TIP3     7115     TIP3     OH2      OT      -0.834000       15.9994           0
     31260 TIP3     7115     TIP3     H1       HT       0.417000       1.00800           0
     31261 TIP3     7115     TIP3     H2       HT       0.417000       1.00800           0
     31262 TIP3     7116     TIP3     OH2      OT      -0.834000       15.9994           0
     31263 TIP3     7116     TIP3     H1       HT       0.417000       1.00800           0
     31264 TIP3     7116     TIP3     H2       HT       0.417000       1.00800           0
     31265 TIP3     7117     TIP3     OH2      OT      -0.834000       15.9994           0
     31266 TIP3     7117     TIP3     H1       HT       0.417000       1.00800           0
     31267 TIP3     7117     TIP3     H2       HT       0.417000       1.00800           0
     31268 TIP3     7118     TIP3     OH2      OT      -0.834000       15.9994           0
     31269 TIP3     7118     TIP3     H1       HT       0.417000       1.00800           0
     31270 TIP3     7118     TIP3     H2       HT       0.417000       1.00800           0
     31271 TIP3     7119     TIP3     OH2      OT      -0.834000       15.9994           0
     31272 TIP3     7119     TIP3     H1       HT       0.417000       1.00800           0
     31273 TIP3     7119     TIP3     H2       HT       0.417000       1.00800           0
     31274 TIP3     7120     TIP3     OH2      OT      -0.834000       15.9994           0
     31275 TIP3     7120     TIP3     H1       HT       0.417000       1.00800           0
     31276 TIP3     7120     TIP3     H2       HT       0.417000       1.00800           0
     31277 TIP3     7121     TIP3     OH2      OT      -0.834000       15.9994           0
     31278 TIP3     7121     TIP3     H1       HT       0.417000       1.00800           0
     31279 TIP3     7121     TIP3     H2       HT       0.417000       1.00800           0
     31280 TIP3     7122     TIP3     OH2      OT      -0.834000       15.9994           0
     31281 TIP3     7122     TIP3     H1       HT       0.417000       1.00800           0
     31282 TIP3     7122     TIP3     H2       HT       0.417000       1.00800           0
     31283 TIP3     7123     TIP3     OH2      OT      -0.834000       15.9994           0
     31284 TIP3     7123     TIP3     H1       HT       0.417000       1.00800           0
     31285 TIP3     7123     TIP3     H2       HT       0.417000       1.00800           0
     31286 TIP3     7124     TIP3     OH2      OT      -0.834000       15.9994           0
     31287 TIP3     7124     TIP3     H1       HT       0.417000       1.00800           0
     31288 TIP3     7124     TIP3     H2       HT       0.417000       1.00800           0
     31289 TIP3     7125     TIP3     OH2      OT      -0.834000       15.9994           0
     31290 TIP3     7125     TIP3     H1       HT       0.417000       1.00800           0
     31291 TIP3     7125     TIP3     H2       HT       0.417000       1.00800           0
     31292 TIP3     7126     TIP3     OH2      OT      -0.834000       15.9994           0
     31293 TIP3     7126     TIP3     H1       HT       0.417000       1.00800           0
     31294 TIP3     7126     TIP3     H2       HT       0.417000       1.00800           0
     31295 TIP3     7127     TIP3     OH2      OT      -0.834000       15.9994           0
     31296 TIP3     7127     TIP3     H1       HT       0.417000       1.00800           0
     31297 TIP3     7127     TIP3     H2       HT       0.417000       1.00800           0
     31298 TIP3     7128     TIP3     OH2      OT      -0.834000       15.9994           0
     31299 TIP3     7128     TIP3     H1       HT       0.417000       1.00800           0
     31300 TIP3     7128     TIP3     H2       HT       0.417000       1.00800           0
     31301 TIP3     7129     TIP3     OH2      OT      -0.834000       15.9994           0
     31302 TIP3     7129     TIP3     H1       HT       0.417000       1.00800           0
     31303 TIP3     7129     TIP3     H2       HT       0.417000       1.00800           0
     31304 TIP3     7130     TIP3     OH2      OT      -0.834000       15.9994           0
     31305 TIP3     7130     TIP3     H1       HT       0.417000       1.00800           0
     31306 TIP3     7130     TIP3     H2       HT       0.417000       1.00800           0
     31307 TIP3     7131     TIP3     OH2      OT      -0.834000       15.9994           0
     31308 TIP3     7131     TIP3     H1       HT       0.417000       1.00800           0
     31309 TIP3     7131     TIP3     H2       HT       0.417000       1.00800           0
     31310 TIP3     7132     TIP3     OH2      OT      -0.834000       15.9994           0
     31311 TIP3     7132     TIP3     H1       HT       0.417000       1.00800           0
     31312 TIP3     7132     TIP3     H2       HT       0.417000       1.00800           0
     31313 TIP3     7133     TIP3     OH2      OT      -0.834000       15.9994           0
     31314 TIP3     7133     TIP3     H1       HT       0.417000       1.00800           0
     31315 TIP3     7133     TIP3     H2       HT       0.417000       1.00800           0
     31316 TIP3     7134     TIP3     OH2      OT      -0.834000       15.9994           0
     31317 TIP3     7134     TIP3     H1       HT       0.417000       1.00800           0
     31318 TIP3     7134     TIP3     H2       HT       0.417000       1.00800           0
     31319 TIP3     7135     TIP3     OH2      OT      -0.834000       15.9994           0
     31320 TIP3     7135     TIP3     H1       HT       0.417000       1.00800           0
     31321 TIP3     7135     TIP3     H2       HT       0.417000       1.00800           0
     31322 TIP3     7136     TIP3     OH2      OT      -0.834000       15.9994           0
     31323 TIP3     7136     TIP3     H1       HT       0.417000       1.00800           0
     31324 TIP3     7136     TIP3     H2       HT       0.417000       1.00800           0
     31325 TIP3     7137     TIP3     OH2      OT      -0.834000       15.9994           0
     31326 TIP3     7137     TIP3     H1       HT       0.417000       1.00800           0
     31327 TIP3     7137     TIP3     H2       HT       0.417000       1.00800           0
     31328 TIP3     7138     TIP3     OH2      OT      -0.834000       15.9994           0
     31329 TIP3     7138     TIP3     H1       HT       0.417000       1.00800           0
     31330 TIP3     7138     TIP3     H2       HT       0.417000       1.00800           0
     31331 TIP3     7139     TIP3     OH2      OT      -0.834000       15.9994           0
     31332 TIP3     7139     TIP3     H1       HT       0.417000       1.00800           0
     31333 TIP3     7139     TIP3     H2       HT       0.417000       1.00800           0
     31334 TIP3     7140     TIP3     OH2      OT      -0.834000       15.9994           0
     31335 TIP3     7140     TIP3     H1       HT       0.417000       1.00800           0
     31336 TIP3     7140     TIP3     H2       HT       0.417000       1.00800           0
     31337 TIP3     7141     TIP3     OH2      OT      -0.834000       15.9994           0
     31338 TIP3     7141     TIP3     H1       HT       0.417000       1.00800           0
     31339 TIP3     7141     TIP3     H2       HT       0.417000       1.00800           0
     31340 TIP3     7142     TIP3     OH2      OT      -0.834000       15.9994           0
     31341 TIP3     7142     TIP3     H1       HT       0.417000       1.00800           0
     31342 TIP3     7142     TIP3     H2       HT       0.417000       1.00800           0
     31343 TIP3     7143     TIP3     OH2      OT      -0.834000       15.9994           0
     31344 TIP3     7143     TIP3     H1       HT       0.417000       1.00800           0
     31345 TIP3     7143     TIP3     H2       HT       0.417000       1.00800           0
     31346 TIP3     7144     TIP3     OH2      OT      -0.834000       15.9994           0
     31347 TIP3     7144     TIP3     H1       HT       0.417000       1.00800           0
     31348 TIP3     7144     TIP3     H2       HT       0.417000       1.00800           0
     31349 TIP3     7145     TIP3     OH2      OT      -0.834000       15.9994           0
     31350 TIP3     7145     TIP3     H1       HT       0.417000       1.00800           0
     31351 TIP3     7145     TIP3     H2       HT       0.417000       1.00800           0
     31352 TIP3     7146     TIP3     OH2      OT      -0.834000       15.9994           0
     31353 TIP3     7146     TIP3     H1       HT       0.417000       1.00800           0
     31354 TIP3     7146     TIP3     H2       HT       0.417000       1.00800           0
     31355 TIP3     7147     TIP3     OH2      OT      -0.834000       15.9994           0
     31356 TIP3     7147     TIP3     H1       HT       0.417000       1.00800           0
     31357 TIP3     7147     TIP3     H2       HT       0.417000       1.00800           0
     31358 TIP3     7148     TIP3     OH2      OT      -0.834000       15.9994           0
     31359 TIP3     7148     TIP3     H1       HT       0.417000       1.00800           0
     31360 TIP3     7148     TIP3     H2       HT       0.417000       1.00800           0
     31361 TIP3     7149     TIP3     OH2      OT      -0.834000       15.9994           0
     31362 TIP3     7149     TIP3     H1       HT       0.417000       1.00800           0
     31363 TIP3     7149     TIP3     H2       HT       0.417000       1.00800           0
     31364 TIP3     7150     TIP3     OH2      OT      -0.834000       15.9994           0
     31365 TIP3     7150     TIP3     H1       HT       0.417000       1.00800           0
     31366 TIP3     7150     TIP3     H2       HT       0.417000       1.00800           0
     31367 TIP3     7151     TIP3     OH2      OT      -0.834000       15.9994           0
     31368 TIP3     7151     TIP3     H1       HT       0.417000       1.00800           0
     31369 TIP3     7151     TIP3     H2       HT       0.417000       1.00800           0
     31370 TIP3     7152     TIP3     OH2      OT      -0.834000       15.9994           0
     31371 TIP3     7152     TIP3     H1       HT       0.417000       1.00800           0
     31372 TIP3     7152     TIP3     H2       HT       0.417000       1.00800           0
     31373 TIP3     7153     TIP3     OH2      OT      -0.834000       15.9994           0
     31374 TIP3     7153     TIP3     H1       HT       0.417000       1.00800           0
     31375 TIP3     7153     TIP3     H2       HT       0.417000       1.00800           0
     31376 TIP3     7154     TIP3     OH2      OT      -0.834000       15.9994           0
     31377 TIP3     7154     TIP3     H1       HT       0.417000       1.00800           0
     31378 TIP3     7154     TIP3     H2       HT       0.417000       1.00800           0
     31379 TIP3     7155     TIP3     OH2      OT      -0.834000       15.9994           0
     31380 TIP3     7155     TIP3     H1       HT       0.417000       1.00800           0
     31381 TIP3     7155     TIP3     H2       HT       0.417000       1.00800           0
     31382 TIP3     7156     TIP3     OH2      OT      -0.834000       15.9994           0
     31383 TIP3     7156     TIP3     H1       HT       0.417000       1.00800           0
     31384 TIP3     7156     TIP3     H2       HT       0.417000       1.00800           0
     31385 TIP3     7157     TIP3     OH2      OT      -0.834000       15.9994           0
     31386 TIP3     7157     TIP3     H1       HT       0.417000       1.00800           0
     31387 TIP3     7157     TIP3     H2       HT       0.417000       1.00800           0
     31388 TIP3     7158     TIP3     OH2      OT      -0.834000       15.9994           0
     31389 TIP3     7158     TIP3     H1       HT       0.417000       1.00800           0
     31390 TIP3     7158     TIP3     H2       HT       0.417000       1.00800           0
     31391 TIP3     7159     TIP3     OH2      OT      -0.834000       15.9994           0
     31392 TIP3     7159     TIP3     H1       HT       0.417000       1.00800           0
     31393 TIP3     7159     TIP3     H2       HT       0.417000       1.00800           0
     31394 TIP3     7160     TIP3     OH2      OT      -0.834000       15.9994           0
     31395 TIP3     7160     TIP3     H1       HT       0.417000       1.00800           0
     31396 TIP3     7160     TIP3     H2       HT       0.417000       1.00800           0
     31397 TIP3     7161     TIP3     OH2      OT      -0.834000       15.9994           0
     31398 TIP3     7161     TIP3     H1       HT       0.417000       1.00800           0
     31399 TIP3     7161     TIP3     H2       HT       0.417000       1.00800           0
     31400 TIP3     7162     TIP3     OH2      OT      -0.834000       15.9994           0
     31401 TIP3     7162     TIP3     H1       HT       0.417000       1.00800           0
     31402 TIP3     7162     TIP3     H2       HT       0.417000       1.00800           0
     31403 TIP3     7163     TIP3     OH2      OT      -0.834000       15.9994           0
     31404 TIP3     7163     TIP3     H1       HT       0.417000       1.00800           0
     31405 TIP3     7163     TIP3     H2       HT       0.417000       1.00800           0
     31406 TIP3     7164     TIP3     OH2      OT      -0.834000       15.9994           0
     31407 TIP3     7164     TIP3     H1       HT       0.417000       1.00800           0
     31408 TIP3     7164     TIP3     H2       HT       0.417000       1.00800           0
     31409 TIP3     7165     TIP3     OH2      OT      -0.834000       15.9994           0
     31410 TIP3     7165     TIP3     H1       HT       0.417000       1.00800           0
     31411 TIP3     7165     TIP3     H2       HT       0.417000       1.00800           0
     31412 TIP3     7166     TIP3     OH2      OT      -0.834000       15.9994           0
     31413 TIP3     7166     TIP3     H1       HT       0.417000       1.00800           0
     31414 TIP3     7166     TIP3     H2       HT       0.417000       1.00800           0
     31415 TIP3     7167     TIP3     OH2      OT      -0.834000       15.9994           0
     31416 TIP3     7167     TIP3     H1       HT       0.417000       1.00800           0
     31417 TIP3     7167     TIP3     H2       HT       0.417000       1.00800           0
     31418 TIP3     7168     TIP3     OH2      OT      -0.834000       15.9994           0
     31419 TIP3     7168     TIP3     H1       HT       0.417000       1.00800           0
     31420 TIP3     7168     TIP3     H2       HT       0.417000       1.00800           0
     31421 TIP3     7169     TIP3     OH2      OT      -0.834000       15.9994           0
     31422 TIP3     7169     TIP3     H1       HT       0.417000       1.00800           0
     31423 TIP3     7169     TIP3     H2       HT       0.417000       1.00800           0
     31424 TIP3     7170     TIP3     OH2      OT      -0.834000       15.9994           0
     31425 TIP3     7170     TIP3     H1       HT       0.417000       1.00800           0
     31426 TIP3     7170     TIP3     H2       HT       0.417000       1.00800           0
     31427 TIP3     7171     TIP3     OH2      OT      -0.834000       15.9994           0
     31428 TIP3     7171     TIP3     H1       HT       0.417000       1.00800           0
     31429 TIP3     7171     TIP3     H2       HT       0.417000       1.00800           0
     31430 TIP3     7172     TIP3     OH2      OT      -0.834000       15.9994           0
     31431 TIP3     7172     TIP3     H1       HT       0.417000       1.00800           0
     31432 TIP3     7172     TIP3     H2       HT       0.417000       1.00800           0
     31433 TIP3     7173     TIP3     OH2      OT      -0.834000       15.9994           0
     31434 TIP3     7173     TIP3     H1       HT       0.417000       1.00800           0
     31435 TIP3     7173     TIP3     H2       HT       0.417000       1.00800           0
     31436 TIP3     7174     TIP3     OH2      OT      -0.834000       15.9994           0
     31437 TIP3     7174     TIP3     H1       HT       0.417000       1.00800           0
     31438 TIP3     7174     TIP3     H2       HT       0.417000       1.00800           0
     31439 TIP3     7175     TIP3     OH2      OT      -0.834000       15.9994           0
     31440 TIP3     7175     TIP3     H1       HT       0.417000       1.00800           0
     31441 TIP3     7175     TIP3     H2       HT       0.417000       1.00800           0
     31442 TIP3     7176     TIP3     OH2      OT      -0.834000       15.9994           0
     31443 TIP3     7176     TIP3     H1       HT       0.417000       1.00800           0
     31444 TIP3     7176     TIP3     H2       HT       0.417000       1.00800           0
     31445 TIP3     7177     TIP3     OH2      OT      -0.834000       15.9994           0
     31446 TIP3     7177     TIP3     H1       HT       0.417000       1.00800           0
     31447 TIP3     7177     TIP3     H2       HT       0.417000       1.00800           0
     31448 TIP3     7178     TIP3     OH2      OT      -0.834000       15.9994           0
     31449 TIP3     7178     TIP3     H1       HT       0.417000       1.00800           0
     31450 TIP3     7178     TIP3     H2       HT       0.417000       1.00800           0
     31451 TIP3     7179     TIP3     OH2      OT      -0.834000       15.9994           0
     31452 TIP3     7179     TIP3     H1       HT       0.417000       1.00800           0
     31453 TIP3     7179     TIP3     H2       HT       0.417000       1.00800           0
     31454 TIP3     7180     TIP3     OH2      OT      -0.834000       15.9994           0
     31455 TIP3     7180     TIP3     H1       HT       0.417000       1.00800           0
     31456 TIP3     7180     TIP3     H2       HT       0.417000       1.00800           0
     31457 TIP3     7181     TIP3     OH2      OT      -0.834000       15.9994           0
     31458 TIP3     7181     TIP3     H1       HT       0.417000       1.00800           0
     31459 TIP3     7181     TIP3     H2       HT       0.417000       1.00800           0
     31460 TIP3     7182     TIP3     OH2      OT      -0.834000       15.9994           0
     31461 TIP3     7182     TIP3     H1       HT       0.417000       1.00800           0
     31462 TIP3     7182     TIP3     H2       HT       0.417000       1.00800           0
     31463 TIP3     7183     TIP3     OH2      OT      -0.834000       15.9994           0
     31464 TIP3     7183     TIP3     H1       HT       0.417000       1.00800           0
     31465 TIP3     7183     TIP3     H2       HT       0.417000       1.00800           0
     31466 TIP3     7184     TIP3     OH2      OT      -0.834000       15.9994           0
     31467 TIP3     7184     TIP3     H1       HT       0.417000       1.00800           0
     31468 TIP3     7184     TIP3     H2       HT       0.417000       1.00800           0
     31469 TIP3     7185     TIP3     OH2      OT      -0.834000       15.9994           0
     31470 TIP3     7185     TIP3     H1       HT       0.417000       1.00800           0
     31471 TIP3     7185     TIP3     H2       HT       0.417000       1.00800           0
     31472 TIP3     7186     TIP3     OH2      OT      -0.834000       15.9994           0
     31473 TIP3     7186     TIP3     H1       HT       0.417000       1.00800           0
     31474 TIP3     7186     TIP3     H2       HT       0.417000       1.00800           0
     31475 TIP3     7187     TIP3     OH2      OT      -0.834000       15.9994           0
     31476 TIP3     7187     TIP3     H1       HT       0.417000       1.00800           0
     31477 TIP3     7187     TIP3     H2       HT       0.417000       1.00800           0
     31478 TIP3     7188     TIP3     OH2      OT      -0.834000       15.9994           0
     31479 TIP3     7188     TIP3     H1       HT       0.417000       1.00800           0
     31480 TIP3     7188     TIP3     H2       HT       0.417000       1.00800           0
     31481 TIP3     7189     TIP3     OH2      OT      -0.834000       15.9994           0
     31482 TIP3     7189     TIP3     H1       HT       0.417000       1.00800           0
     31483 TIP3     7189     TIP3     H2       HT       0.417000       1.00800           0
     31484 TIP3     7190     TIP3     OH2      OT      -0.834000       15.9994           0
     31485 TIP3     7190     TIP3     H1       HT       0.417000       1.00800           0
     31486 TIP3     7190     TIP3     H2       HT       0.417000       1.00800           0
     31487 TIP3     7191     TIP3     OH2      OT      -0.834000       15.9994           0
     31488 TIP3     7191     TIP3     H1       HT       0.417000       1.00800           0
     31489 TIP3     7191     TIP3     H2       HT       0.417000       1.00800           0
     31490 TIP3     7192     TIP3     OH2      OT      -0.834000       15.9994           0
     31491 TIP3     7192     TIP3     H1       HT       0.417000       1.00800           0
     31492 TIP3     7192     TIP3     H2       HT       0.417000       1.00800           0
     31493 TIP3     7193     TIP3     OH2      OT      -0.834000       15.9994           0
     31494 TIP3     7193     TIP3     H1       HT       0.417000       1.00800           0
     31495 TIP3     7193     TIP3     H2       HT       0.417000       1.00800           0
     31496 TIP3     7194     TIP3     OH2      OT      -0.834000       15.9994           0
     31497 TIP3     7194     TIP3     H1       HT       0.417000       1.00800           0
     31498 TIP3     7194     TIP3     H2       HT       0.417000       1.00800           0
     31499 TIP3     7195     TIP3     OH2      OT      -0.834000       15.9994           0
     31500 TIP3     7195     TIP3     H1       HT       0.417000       1.00800           0
     31501 TIP3     7195     TIP3     H2       HT       0.417000       1.00800           0
     31502 TIP3     7196     TIP3     OH2      OT      -0.834000       15.9994           0
     31503 TIP3     7196     TIP3     H1       HT       0.417000       1.00800           0
     31504 TIP3     7196     TIP3     H2       HT       0.417000       1.00800           0
     31505 TIP3     7197     TIP3     OH2      OT      -0.834000       15.9994           0
     31506 TIP3     7197     TIP3     H1       HT       0.417000       1.00800           0
     31507 TIP3     7197     TIP3     H2       HT       0.417000       1.00800           0
     31508 TIP3     7198     TIP3     OH2      OT      -0.834000       15.9994           0
     31509 TIP3     7198     TIP3     H1       HT       0.417000       1.00800           0
     31510 TIP3     7198     TIP3     H2       HT       0.417000       1.00800           0
     31511 TIP3     7199     TIP3     OH2      OT      -0.834000       15.9994           0
     31512 TIP3     7199     TIP3     H1       HT       0.417000       1.00800           0
     31513 TIP3     7199     TIP3     H2       HT       0.417000       1.00800           0
     31514 TIP3     7200     TIP3     OH2      OT      -0.834000       15.9994           0
     31515 TIP3     7200     TIP3     H1       HT       0.417000       1.00800           0
     31516 TIP3     7200     TIP3     H2       HT       0.417000       1.00800           0
     31517 TIP3     7201     TIP3     OH2      OT      -0.834000       15.9994           0
     31518 TIP3     7201     TIP3     H1       HT       0.417000       1.00800           0
     31519 TIP3     7201     TIP3     H2       HT       0.417000       1.00800           0
     31520 TIP3     7202     TIP3     OH2      OT      -0.834000       15.9994           0
     31521 TIP3     7202     TIP3     H1       HT       0.417000       1.00800           0
     31522 TIP3     7202     TIP3     H2       HT       0.417000       1.00800           0
     31523 TIP3     7203     TIP3     OH2      OT      -0.834000       15.9994           0
     31524 TIP3     7203     TIP3     H1       HT       0.417000       1.00800           0
     31525 TIP3     7203     TIP3     H2       HT       0.417000       1.00800           0
     31526 TIP3     7204     TIP3     OH2      OT      -0.834000       15.9994           0
     31527 TIP3     7204     TIP3     H1       HT       0.417000       1.00800           0
     31528 TIP3     7204     TIP3     H2       HT       0.417000       1.00800           0
     31529 TIP3     7205     TIP3     OH2      OT      -0.834000       15.9994           0
     31530 TIP3     7205     TIP3     H1       HT       0.417000       1.00800           0
     31531 TIP3     7205     TIP3     H2       HT       0.417000       1.00800           0
     31532 TIP3     7206     TIP3     OH2      OT      -0.834000       15.9994           0
     31533 TIP3     7206     TIP3     H1       HT       0.417000       1.00800           0
     31534 TIP3     7206     TIP3     H2       HT       0.417000       1.00800           0
     31535 TIP3     7207     TIP3     OH2      OT      -0.834000       15.9994           0
     31536 TIP3     7207     TIP3     H1       HT       0.417000       1.00800           0
     31537 TIP3     7207     TIP3     H2       HT       0.417000       1.00800           0
     31538 TIP3     7208     TIP3     OH2      OT      -0.834000       15.9994           0
     31539 TIP3     7208     TIP3     H1       HT       0.417000       1.00800           0
     31540 TIP3     7208     TIP3     H2       HT       0.417000       1.00800           0
     31541 TIP3     7209     TIP3     OH2      OT      -0.834000       15.9994           0
     31542 TIP3     7209     TIP3     H1       HT       0.417000       1.00800           0
     31543 TIP3     7209     TIP3     H2       HT       0.417000       1.00800           0
     31544 TIP3     7210     TIP3     OH2      OT      -0.834000       15.9994           0
     31545 TIP3     7210     TIP3     H1       HT       0.417000       1.00800           0
     31546 TIP3     7210     TIP3     H2       HT       0.417000       1.00800           0
     31547 TIP3     7211     TIP3     OH2      OT      -0.834000       15.9994           0
     31548 TIP3     7211     TIP3     H1       HT       0.417000       1.00800           0
     31549 TIP3     7211     TIP3     H2       HT       0.417000       1.00800           0
     31550 TIP3     7212     TIP3     OH2      OT      -0.834000       15.9994           0
     31551 TIP3     7212     TIP3     H1       HT       0.417000       1.00800           0
     31552 TIP3     7212     TIP3     H2       HT       0.417000       1.00800           0
     31553 TIP3     7213     TIP3     OH2      OT      -0.834000       15.9994           0
     31554 TIP3     7213     TIP3     H1       HT       0.417000       1.00800           0
     31555 TIP3     7213     TIP3     H2       HT       0.417000       1.00800           0
     31556 TIP3     7214     TIP3     OH2      OT      -0.834000       15.9994           0
     31557 TIP3     7214     TIP3     H1       HT       0.417000       1.00800           0
     31558 TIP3     7214     TIP3     H2       HT       0.417000       1.00800           0
     31559 TIP3     7215     TIP3     OH2      OT      -0.834000       15.9994           0
     31560 TIP3     7215     TIP3     H1       HT       0.417000       1.00800           0
     31561 TIP3     7215     TIP3     H2       HT       0.417000       1.00800           0
     31562 TIP3     7216     TIP3     OH2      OT      -0.834000       15.9994           0
     31563 TIP3     7216     TIP3     H1       HT       0.417000       1.00800           0
     31564 TIP3     7216     TIP3     H2       HT       0.417000       1.00800           0
     31565 TIP3     7217     TIP3     OH2      OT      -0.834000       15.9994           0
     31566 TIP3     7217     TIP3     H1       HT       0.417000       1.00800           0
     31567 TIP3     7217     TIP3     H2       HT       0.417000       1.00800           0
     31568 TIP3     7218     TIP3     OH2      OT      -0.834000       15.9994           0
     31569 TIP3     7218     TIP3     H1       HT       0.417000       1.00800           0
     31570 TIP3     7218     TIP3     H2       HT       0.417000       1.00800           0
     31571 TIP3     7219     TIP3     OH2      OT      -0.834000       15.9994           0
     31572 TIP3     7219     TIP3     H1       HT       0.417000       1.00800           0
     31573 TIP3     7219     TIP3     H2       HT       0.417000       1.00800           0
     31574 TIP3     7220     TIP3     OH2      OT      -0.834000       15.9994           0
     31575 TIP3     7220     TIP3     H1       HT       0.417000       1.00800           0
     31576 TIP3     7220     TIP3     H2       HT       0.417000       1.00800           0
     31577 TIP3     7221     TIP3     OH2      OT      -0.834000       15.9994           0
     31578 TIP3     7221     TIP3     H1       HT       0.417000       1.00800           0
     31579 TIP3     7221     TIP3     H2       HT       0.417000       1.00800           0
     31580 TIP3     7222     TIP3     OH2      OT      -0.834000       15.9994           0
     31581 TIP3     7222     TIP3     H1       HT       0.417000       1.00800           0
     31582 TIP3     7222     TIP3     H2       HT       0.417000       1.00800           0
     31583 TIP3     7223     TIP3     OH2      OT      -0.834000       15.9994           0
     31584 TIP3     7223     TIP3     H1       HT       0.417000       1.00800           0
     31585 TIP3     7223     TIP3     H2       HT       0.417000       1.00800           0
     31586 TIP3     7224     TIP3     OH2      OT      -0.834000       15.9994           0
     31587 TIP3     7224     TIP3     H1       HT       0.417000       1.00800           0
     31588 TIP3     7224     TIP3     H2       HT       0.417000       1.00800           0
     31589 TIP3     7225     TIP3     OH2      OT      -0.834000       15.9994           0
     31590 TIP3     7225     TIP3     H1       HT       0.417000       1.00800           0
     31591 TIP3     7225     TIP3     H2       HT       0.417000       1.00800           0
     31592 TIP3     7226     TIP3     OH2      OT      -0.834000       15.9994           0
     31593 TIP3     7226     TIP3     H1       HT       0.417000       1.00800           0
     31594 TIP3     7226     TIP3     H2       HT       0.417000       1.00800           0
     31595 TIP3     7227     TIP3     OH2      OT      -0.834000       15.9994           0
     31596 TIP3     7227     TIP3     H1       HT       0.417000       1.00800           0
     31597 TIP3     7227     TIP3     H2       HT       0.417000       1.00800           0
     31598 TIP3     7228     TIP3     OH2      OT      -0.834000       15.9994           0
     31599 TIP3     7228     TIP3     H1       HT       0.417000       1.00800           0
     31600 TIP3     7228     TIP3     H2       HT       0.417000       1.00800           0
     31601 TIP3     7229     TIP3     OH2      OT      -0.834000       15.9994           0
     31602 TIP3     7229     TIP3     H1       HT       0.417000       1.00800           0
     31603 TIP3     7229     TIP3     H2       HT       0.417000       1.00800           0
     31604 TIP3     7230     TIP3     OH2      OT      -0.834000       15.9994           0
     31605 TIP3     7230     TIP3     H1       HT       0.417000       1.00800           0
     31606 TIP3     7230     TIP3     H2       HT       0.417000       1.00800           0
     31607 TIP3     7231     TIP3     OH2      OT      -0.834000       15.9994           0
     31608 TIP3     7231     TIP3     H1       HT       0.417000       1.00800           0
     31609 TIP3     7231     TIP3     H2       HT       0.417000       1.00800           0
     31610 TIP3     7232     TIP3     OH2      OT      -0.834000       15.9994           0
     31611 TIP3     7232     TIP3     H1       HT       0.417000       1.00800           0
     31612 TIP3     7232     TIP3     H2       HT       0.417000       1.00800           0
     31613 TIP3     7233     TIP3     OH2      OT      -0.834000       15.9994           0
     31614 TIP3     7233     TIP3     H1       HT       0.417000       1.00800           0
     31615 TIP3     7233     TIP3     H2       HT       0.417000       1.00800           0
     31616 TIP3     7234     TIP3     OH2      OT      -0.834000       15.9994           0
     31617 TIP3     7234     TIP3     H1       HT       0.417000       1.00800           0
     31618 TIP3     7234     TIP3     H2       HT       0.417000       1.00800           0
     31619 TIP3     7235     TIP3     OH2      OT      -0.834000       15.9994           0
     31620 TIP3     7235     TIP3     H1       HT       0.417000       1.00800           0
     31621 TIP3     7235     TIP3     H2       HT       0.417000       1.00800           0
     31622 TIP3     7236     TIP3     OH2      OT      -0.834000       15.9994           0
     31623 TIP3     7236     TIP3     H1       HT       0.417000       1.00800           0
     31624 TIP3     7236     TIP3     H2       HT       0.417000       1.00800           0
     31625 TIP3     7237     TIP3     OH2      OT      -0.834000       15.9994           0
     31626 TIP3     7237     TIP3     H1       HT       0.417000       1.00800           0
     31627 TIP3     7237     TIP3     H2       HT       0.417000       1.00800           0
     31628 TIP3     7238     TIP3     OH2      OT      -0.834000       15.9994           0
     31629 TIP3     7238     TIP3     H1       HT       0.417000       1.00800           0
     31630 TIP3     7238     TIP3     H2       HT       0.417000       1.00800           0
     31631 TIP3     7239     TIP3     OH2      OT      -0.834000       15.9994           0
     31632 TIP3     7239     TIP3     H1       HT       0.417000       1.00800           0
     31633 TIP3     7239     TIP3     H2       HT       0.417000       1.00800           0
     31634 TIP3     7240     TIP3     OH2      OT      -0.834000       15.9994           0
     31635 TIP3     7240     TIP3     H1       HT       0.417000       1.00800           0
     31636 TIP3     7240     TIP3     H2       HT       0.417000       1.00800           0
     31637 TIP3     7241     TIP3     OH2      OT      -0.834000       15.9994           0
     31638 TIP3     7241     TIP3     H1       HT       0.417000       1.00800           0
     31639 TIP3     7241     TIP3     H2       HT       0.417000       1.00800           0
     31640 TIP3     7242     TIP3     OH2      OT      -0.834000       15.9994           0
     31641 TIP3     7242     TIP3     H1       HT       0.417000       1.00800           0
     31642 TIP3     7242     TIP3     H2       HT       0.417000       1.00800           0
     31643 TIP3     7243     TIP3     OH2      OT      -0.834000       15.9994           0
     31644 TIP3     7243     TIP3     H1       HT       0.417000       1.00800           0
     31645 TIP3     7243     TIP3     H2       HT       0.417000       1.00800           0
     31646 TIP3     7244     TIP3     OH2      OT      -0.834000       15.9994           0
     31647 TIP3     7244     TIP3     H1       HT       0.417000       1.00800           0
     31648 TIP3     7244     TIP3     H2       HT       0.417000       1.00800           0
     31649 TIP3     7245     TIP3     OH2      OT      -0.834000       15.9994           0
     31650 TIP3     7245     TIP3     H1       HT       0.417000       1.00800           0
     31651 TIP3     7245     TIP3     H2       HT       0.417000       1.00800           0
     31652 TIP3     7246     TIP3     OH2      OT      -0.834000       15.9994           0
     31653 TIP3     7246     TIP3     H1       HT       0.417000       1.00800           0
     31654 TIP3     7246     TIP3     H2       HT       0.417000       1.00800           0
     31655 TIP3     7247     TIP3     OH2      OT      -0.834000       15.9994           0
     31656 TIP3     7247     TIP3     H1       HT       0.417000       1.00800           0
     31657 TIP3     7247     TIP3     H2       HT       0.417000       1.00800           0
     31658 TIP3     7248     TIP3     OH2      OT      -0.834000       15.9994           0
     31659 TIP3     7248     TIP3     H1       HT       0.417000       1.00800           0
     31660 TIP3     7248     TIP3     H2       HT       0.417000       1.00800           0
     31661 TIP3     7249     TIP3     OH2      OT      -0.834000       15.9994           0
     31662 TIP3     7249     TIP3     H1       HT       0.417000       1.00800           0
     31663 TIP3     7249     TIP3     H2       HT       0.417000       1.00800           0
     31664 TIP3     7250     TIP3     OH2      OT      -0.834000       15.9994           0
     31665 TIP3     7250     TIP3     H1       HT       0.417000       1.00800           0
     31666 TIP3     7250     TIP3     H2       HT       0.417000       1.00800           0
     31667 TIP3     7251     TIP3     OH2      OT      -0.834000       15.9994           0
     31668 TIP3     7251     TIP3     H1       HT       0.417000       1.00800           0
     31669 TIP3     7251     TIP3     H2       HT       0.417000       1.00800           0
     31670 TIP3     7252     TIP3     OH2      OT      -0.834000       15.9994           0
     31671 TIP3     7252     TIP3     H1       HT       0.417000       1.00800           0
     31672 TIP3     7252     TIP3     H2       HT       0.417000       1.00800           0
     31673 TIP3     7253     TIP3     OH2      OT      -0.834000       15.9994           0
     31674 TIP3     7253     TIP3     H1       HT       0.417000       1.00800           0
     31675 TIP3     7253     TIP3     H2       HT       0.417000       1.00800           0
     31676 TIP3     7254     TIP3     OH2      OT      -0.834000       15.9994           0
     31677 TIP3     7254     TIP3     H1       HT       0.417000       1.00800           0
     31678 TIP3     7254     TIP3     H2       HT       0.417000       1.00800           0
     31679 TIP3     7255     TIP3     OH2      OT      -0.834000       15.9994           0
     31680 TIP3     7255     TIP3     H1       HT       0.417000       1.00800           0
     31681 TIP3     7255     TIP3     H2       HT       0.417000       1.00800           0
     31682 TIP3     7256     TIP3     OH2      OT      -0.834000       15.9994           0
     31683 TIP3     7256     TIP3     H1       HT       0.417000       1.00800           0
     31684 TIP3     7256     TIP3     H2       HT       0.417000       1.00800           0
     31685 TIP3     7257     TIP3     OH2      OT      -0.834000       15.9994           0
     31686 TIP3     7257     TIP3     H1       HT       0.417000       1.00800           0
     31687 TIP3     7257     TIP3     H2       HT       0.417000       1.00800           0
     31688 TIP3     7258     TIP3     OH2      OT      -0.834000       15.9994           0
     31689 TIP3     7258     TIP3     H1       HT       0.417000       1.00800           0
     31690 TIP3     7258     TIP3     H2       HT       0.417000       1.00800           0
     31691 TIP3     7259     TIP3     OH2      OT      -0.834000       15.9994           0
     31692 TIP3     7259     TIP3     H1       HT       0.417000       1.00800           0
     31693 TIP3     7259     TIP3     H2       HT       0.417000       1.00800           0
     31694 TIP3     7260     TIP3     OH2      OT      -0.834000       15.9994           0
     31695 TIP3     7260     TIP3     H1       HT       0.417000       1.00800           0
     31696 TIP3     7260     TIP3     H2       HT       0.417000       1.00800           0
     31697 TIP3     7261     TIP3     OH2      OT      -0.834000       15.9994           0
     31698 TIP3     7261     TIP3     H1       HT       0.417000       1.00800           0
     31699 TIP3     7261     TIP3     H2       HT       0.417000       1.00800           0
     31700 TIP3     7262     TIP3     OH2      OT      -0.834000       15.9994           0
     31701 TIP3     7262     TIP3     H1       HT       0.417000       1.00800           0
     31702 TIP3     7262     TIP3     H2       HT       0.417000       1.00800           0
     31703 TIP3     7263     TIP3     OH2      OT      -0.834000       15.9994           0
     31704 TIP3     7263     TIP3     H1       HT       0.417000       1.00800           0
     31705 TIP3     7263     TIP3     H2       HT       0.417000       1.00800           0
     31706 TIP3     7264     TIP3     OH2      OT      -0.834000       15.9994           0
     31707 TIP3     7264     TIP3     H1       HT       0.417000       1.00800           0
     31708 TIP3     7264     TIP3     H2       HT       0.417000       1.00800           0
     31709 TIP3     7265     TIP3     OH2      OT      -0.834000       15.9994           0
     31710 TIP3     7265     TIP3     H1       HT       0.417000       1.00800           0
     31711 TIP3     7265     TIP3     H2       HT       0.417000       1.00800           0
     31712 TIP3     7266     TIP3     OH2      OT      -0.834000       15.9994           0
     31713 TIP3     7266     TIP3     H1       HT       0.417000       1.00800           0
     31714 TIP3     7266     TIP3     H2       HT       0.417000       1.00800           0
     31715 TIP3     7267     TIP3     OH2      OT      -0.834000       15.9994           0
     31716 TIP3     7267     TIP3     H1       HT       0.417000       1.00800           0
     31717 TIP3     7267     TIP3     H2       HT       0.417000       1.00800           0
     31718 TIP3     7268     TIP3     OH2      OT      -0.834000       15.9994           0
     31719 TIP3     7268     TIP3     H1       HT       0.417000       1.00800           0
     31720 TIP3     7268     TIP3     H2       HT       0.417000       1.00800           0
     31721 TIP3     7269     TIP3     OH2      OT      -0.834000       15.9994           0
     31722 TIP3     7269     TIP3     H1       HT       0.417000       1.00800           0
     31723 TIP3     7269     TIP3     H2       HT       0.417000       1.00800           0
     31724 TIP3     7270     TIP3     OH2      OT      -0.834000       15.9994           0
     31725 TIP3     7270     TIP3     H1       HT       0.417000       1.00800           0
     31726 TIP3     7270     TIP3     H2       HT       0.417000       1.00800           0
     31727 TIP3     7271     TIP3     OH2      OT      -0.834000       15.9994           0
     31728 TIP3     7271     TIP3     H1       HT       0.417000       1.00800           0
     31729 TIP3     7271     TIP3     H2       HT       0.417000       1.00800           0
     31730 TIP3     7272     TIP3     OH2      OT      -0.834000       15.9994           0
     31731 TIP3     7272     TIP3     H1       HT       0.417000       1.00800           0
     31732 TIP3     7272     TIP3     H2       HT       0.417000       1.00800           0
     31733 TIP3     7273     TIP3     OH2      OT      -0.834000       15.9994           0
     31734 TIP3     7273     TIP3     H1       HT       0.417000       1.00800           0
     31735 TIP3     7273     TIP3     H2       HT       0.417000       1.00800           0
     31736 TIP3     7274     TIP3     OH2      OT      -0.834000       15.9994           0
     31737 TIP3     7274     TIP3     H1       HT       0.417000       1.00800           0
     31738 TIP3     7274     TIP3     H2       HT       0.417000       1.00800           0
     31739 TIP3     7275     TIP3     OH2      OT      -0.834000       15.9994           0
     31740 TIP3     7275     TIP3     H1       HT       0.417000       1.00800           0
     31741 TIP3     7275     TIP3     H2       HT       0.417000       1.00800           0
     31742 TIP3     7276     TIP3     OH2      OT      -0.834000       15.9994           0
     31743 TIP3     7276     TIP3     H1       HT       0.417000       1.00800           0
     31744 TIP3     7276     TIP3     H2       HT       0.417000       1.00800           0
     31745 TIP3     7277     TIP3     OH2      OT      -0.834000       15.9994           0
     31746 TIP3     7277     TIP3     H1       HT       0.417000       1.00800           0
     31747 TIP3     7277     TIP3     H2       HT       0.417000       1.00800           0
     31748 TIP3     7278     TIP3     OH2      OT      -0.834000       15.9994           0
     31749 TIP3     7278     TIP3     H1       HT       0.417000       1.00800           0
     31750 TIP3     7278     TIP3     H2       HT       0.417000       1.00800           0
     31751 TIP3     7279     TIP3     OH2      OT      -0.834000       15.9994           0
     31752 TIP3     7279     TIP3     H1       HT       0.417000       1.00800           0
     31753 TIP3     7279     TIP3     H2       HT       0.417000       1.00800           0
     31754 TIP3     7280     TIP3     OH2      OT      -0.834000       15.9994           0
     31755 TIP3     7280     TIP3     H1       HT       0.417000       1.00800           0
     31756 TIP3     7280     TIP3     H2       HT       0.417000       1.00800           0
     31757 TIP3     7281     TIP3     OH2      OT      -0.834000       15.9994           0
     31758 TIP3     7281     TIP3     H1       HT       0.417000       1.00800           0
     31759 TIP3     7281     TIP3     H2       HT       0.417000       1.00800           0
     31760 TIP3     7282     TIP3     OH2      OT      -0.834000       15.9994           0
     31761 TIP3     7282     TIP3     H1       HT       0.417000       1.00800           0
     31762 TIP3     7282     TIP3     H2       HT       0.417000       1.00800           0
     31763 TIP3     7283     TIP3     OH2      OT      -0.834000       15.9994           0
     31764 TIP3     7283     TIP3     H1       HT       0.417000       1.00800           0
     31765 TIP3     7283     TIP3     H2       HT       0.417000       1.00800           0
     31766 TIP3     7284     TIP3     OH2      OT      -0.834000       15.9994           0
     31767 TIP3     7284     TIP3     H1       HT       0.417000       1.00800           0
     31768 TIP3     7284     TIP3     H2       HT       0.417000       1.00800           0
     31769 TIP3     7285     TIP3     OH2      OT      -0.834000       15.9994           0
     31770 TIP3     7285     TIP3     H1       HT       0.417000       1.00800           0
     31771 TIP3     7285     TIP3     H2       HT       0.417000       1.00800           0
     31772 TIP3     7286     TIP3     OH2      OT      -0.834000       15.9994           0
     31773 TIP3     7286     TIP3     H1       HT       0.417000       1.00800           0
     31774 TIP3     7286     TIP3     H2       HT       0.417000       1.00800           0
     31775 TIP3     7287     TIP3     OH2      OT      -0.834000       15.9994           0
     31776 TIP3     7287     TIP3     H1       HT       0.417000       1.00800           0
     31777 TIP3     7287     TIP3     H2       HT       0.417000       1.00800           0
     31778 TIP3     7288     TIP3     OH2      OT      -0.834000       15.9994           0
     31779 TIP3     7288     TIP3     H1       HT       0.417000       1.00800           0
     31780 TIP3     7288     TIP3     H2       HT       0.417000       1.00800           0
     31781 TIP3     7289     TIP3     OH2      OT      -0.834000       15.9994           0
     31782 TIP3     7289     TIP3     H1       HT       0.417000       1.00800           0
     31783 TIP3     7289     TIP3     H2       HT       0.417000       1.00800           0
     31784 TIP3     7290     TIP3     OH2      OT      -0.834000       15.9994           0
     31785 TIP3     7290     TIP3     H1       HT       0.417000       1.00800           0
     31786 TIP3     7290     TIP3     H2       HT       0.417000       1.00800           0
     31787 TIP3     7291     TIP3     OH2      OT      -0.834000       15.9994           0
     31788 TIP3     7291     TIP3     H1       HT       0.417000       1.00800           0
     31789 TIP3     7291     TIP3     H2       HT       0.417000       1.00800           0
     31790 TIP3     7292     TIP3     OH2      OT      -0.834000       15.9994           0
     31791 TIP3     7292     TIP3     H1       HT       0.417000       1.00800           0
     31792 TIP3     7292     TIP3     H2       HT       0.417000       1.00800           0
     31793 TIP3     7293     TIP3     OH2      OT      -0.834000       15.9994           0
     31794 TIP3     7293     TIP3     H1       HT       0.417000       1.00800           0
     31795 TIP3     7293     TIP3     H2       HT       0.417000       1.00800           0
     31796 TIP3     7294     TIP3     OH2      OT      -0.834000       15.9994           0
     31797 TIP3     7294     TIP3     H1       HT       0.417000       1.00800           0
     31798 TIP3     7294     TIP3     H2       HT       0.417000       1.00800           0
     31799 TIP3     7295     TIP3     OH2      OT      -0.834000       15.9994           0
     31800 TIP3     7295     TIP3     H1       HT       0.417000       1.00800           0
     31801 TIP3     7295     TIP3     H2       HT       0.417000       1.00800           0
     31802 TIP3     7296     TIP3     OH2      OT      -0.834000       15.9994           0
     31803 TIP3     7296     TIP3     H1       HT       0.417000       1.00800           0
     31804 TIP3     7296     TIP3     H2       HT       0.417000       1.00800           0
     31805 TIP3     7297     TIP3     OH2      OT      -0.834000       15.9994           0
     31806 TIP3     7297     TIP3     H1       HT       0.417000       1.00800           0
     31807 TIP3     7297     TIP3     H2       HT       0.417000       1.00800           0
     31808 TIP3     7298     TIP3     OH2      OT      -0.834000       15.9994           0
     31809 TIP3     7298     TIP3     H1       HT       0.417000       1.00800           0
     31810 TIP3     7298     TIP3     H2       HT       0.417000       1.00800           0
     31811 TIP3     7299     TIP3     OH2      OT      -0.834000       15.9994           0
     31812 TIP3     7299     TIP3     H1       HT       0.417000       1.00800           0
     31813 TIP3     7299     TIP3     H2       HT       0.417000       1.00800           0
     31814 TIP3     7300     TIP3     OH2      OT      -0.834000       15.9994           0
     31815 TIP3     7300     TIP3     H1       HT       0.417000       1.00800           0
     31816 TIP3     7300     TIP3     H2       HT       0.417000       1.00800           0
     31817 TIP3     7301     TIP3     OH2      OT      -0.834000       15.9994           0
     31818 TIP3     7301     TIP3     H1       HT       0.417000       1.00800           0
     31819 TIP3     7301     TIP3     H2       HT       0.417000       1.00800           0
     31820 TIP3     7302     TIP3     OH2      OT      -0.834000       15.9994           0
     31821 TIP3     7302     TIP3     H1       HT       0.417000       1.00800           0
     31822 TIP3     7302     TIP3     H2       HT       0.417000       1.00800           0
     31823 TIP3     7303     TIP3     OH2      OT      -0.834000       15.9994           0
     31824 TIP3     7303     TIP3     H1       HT       0.417000       1.00800           0
     31825 TIP3     7303     TIP3     H2       HT       0.417000       1.00800           0
     31826 TIP3     7304     TIP3     OH2      OT      -0.834000       15.9994           0
     31827 TIP3     7304     TIP3     H1       HT       0.417000       1.00800           0
     31828 TIP3     7304     TIP3     H2       HT       0.417000       1.00800           0
     31829 TIP3     7305     TIP3     OH2      OT      -0.834000       15.9994           0
     31830 TIP3     7305     TIP3     H1       HT       0.417000       1.00800           0
     31831 TIP3     7305     TIP3     H2       HT       0.417000       1.00800           0
     31832 TIP3     7306     TIP3     OH2      OT      -0.834000       15.9994           0
     31833 TIP3     7306     TIP3     H1       HT       0.417000       1.00800           0
     31834 TIP3     7306     TIP3     H2       HT       0.417000       1.00800           0
     31835 TIP3     7307     TIP3     OH2      OT      -0.834000       15.9994           0
     31836 TIP3     7307     TIP3     H1       HT       0.417000       1.00800           0
     31837 TIP3     7307     TIP3     H2       HT       0.417000       1.00800           0
     31838 TIP3     7308     TIP3     OH2      OT      -0.834000       15.9994           0
     31839 TIP3     7308     TIP3     H1       HT       0.417000       1.00800           0
     31840 TIP3     7308     TIP3     H2       HT       0.417000       1.00800           0
     31841 TIP3     7309     TIP3     OH2      OT      -0.834000       15.9994           0
     31842 TIP3     7309     TIP3     H1       HT       0.417000       1.00800           0
     31843 TIP3     7309     TIP3     H2       HT       0.417000       1.00800           0
     31844 TIP3     7310     TIP3     OH2      OT      -0.834000       15.9994           0
     31845 TIP3     7310     TIP3     H1       HT       0.417000       1.00800           0
     31846 TIP3     7310     TIP3     H2       HT       0.417000       1.00800           0
     31847 TIP3     7311     TIP3     OH2      OT      -0.834000       15.9994           0
     31848 TIP3     7311     TIP3     H1       HT       0.417000       1.00800           0
     31849 TIP3     7311     TIP3     H2       HT       0.417000       1.00800           0
     31850 TIP3     7312     TIP3     OH2      OT      -0.834000       15.9994           0
     31851 TIP3     7312     TIP3     H1       HT       0.417000       1.00800           0
     31852 TIP3     7312     TIP3     H2       HT       0.417000       1.00800           0
     31853 TIP3     7313     TIP3     OH2      OT      -0.834000       15.9994           0
     31854 TIP3     7313     TIP3     H1       HT       0.417000       1.00800           0
     31855 TIP3     7313     TIP3     H2       HT       0.417000       1.00800           0
     31856 TIP3     7314     TIP3     OH2      OT      -0.834000       15.9994           0
     31857 TIP3     7314     TIP3     H1       HT       0.417000       1.00800           0
     31858 TIP3     7314     TIP3     H2       HT       0.417000       1.00800           0
     31859 TIP3     7315     TIP3     OH2      OT      -0.834000       15.9994           0
     31860 TIP3     7315     TIP3     H1       HT       0.417000       1.00800           0
     31861 TIP3     7315     TIP3     H2       HT       0.417000       1.00800           0
     31862 TIP3     7316     TIP3     OH2      OT      -0.834000       15.9994           0
     31863 TIP3     7316     TIP3     H1       HT       0.417000       1.00800           0
     31864 TIP3     7316     TIP3     H2       HT       0.417000       1.00800           0
     31865 TIP3     7317     TIP3     OH2      OT      -0.834000       15.9994           0
     31866 TIP3     7317     TIP3     H1       HT       0.417000       1.00800           0
     31867 TIP3     7317     TIP3     H2       HT       0.417000       1.00800           0
     31868 TIP3     7318     TIP3     OH2      OT      -0.834000       15.9994           0
     31869 TIP3     7318     TIP3     H1       HT       0.417000       1.00800           0
     31870 TIP3     7318     TIP3     H2       HT       0.417000       1.00800           0
     31871 TIP3     7319     TIP3     OH2      OT      -0.834000       15.9994           0
     31872 TIP3     7319     TIP3     H1       HT       0.417000       1.00800           0
     31873 TIP3     7319     TIP3     H2       HT       0.417000       1.00800           0
     31874 TIP3     7320     TIP3     OH2      OT      -0.834000       15.9994           0
     31875 TIP3     7320     TIP3     H1       HT       0.417000       1.00800           0
     31876 TIP3     7320     TIP3     H2       HT       0.417000       1.00800           0
     31877 TIP3     7321     TIP3     OH2      OT      -0.834000       15.9994           0
     31878 TIP3     7321     TIP3     H1       HT       0.417000       1.00800           0
     31879 TIP3     7321     TIP3     H2       HT       0.417000       1.00800           0
     31880 TIP3     7322     TIP3     OH2      OT      -0.834000       15.9994           0
     31881 TIP3     7322     TIP3     H1       HT       0.417000       1.00800           0
     31882 TIP3     7322     TIP3     H2       HT       0.417000       1.00800           0
     31883 TIP3     7323     TIP3     OH2      OT      -0.834000       15.9994           0
     31884 TIP3     7323     TIP3     H1       HT       0.417000       1.00800           0
     31885 TIP3     7323     TIP3     H2       HT       0.417000       1.00800           0
     31886 TIP3     7324     TIP3     OH2      OT      -0.834000       15.9994           0
     31887 TIP3     7324     TIP3     H1       HT       0.417000       1.00800           0
     31888 TIP3     7324     TIP3     H2       HT       0.417000       1.00800           0
     31889 TIP3     7325     TIP3     OH2      OT      -0.834000       15.9994           0
     31890 TIP3     7325     TIP3     H1       HT       0.417000       1.00800           0
     31891 TIP3     7325     TIP3     H2       HT       0.417000       1.00800           0
     31892 TIP3     7326     TIP3     OH2      OT      -0.834000       15.9994           0
     31893 TIP3     7326     TIP3     H1       HT       0.417000       1.00800           0
     31894 TIP3     7326     TIP3     H2       HT       0.417000       1.00800           0
     31895 TIP3     7327     TIP3     OH2      OT      -0.834000       15.9994           0
     31896 TIP3     7327     TIP3     H1       HT       0.417000       1.00800           0
     31897 TIP3     7327     TIP3     H2       HT       0.417000       1.00800           0
     31898 TIP3     7328     TIP3     OH2      OT      -0.834000       15.9994           0
     31899 TIP3     7328     TIP3     H1       HT       0.417000       1.00800           0
     31900 TIP3     7328     TIP3     H2       HT       0.417000       1.00800           0
     31901 TIP3     7329     TIP3     OH2      OT      -0.834000       15.9994           0
     31902 TIP3     7329     TIP3     H1       HT       0.417000       1.00800           0
     31903 TIP3     7329     TIP3     H2       HT       0.417000       1.00800           0
     31904 TIP3     7330     TIP3     OH2      OT      -0.834000       15.9994           0
     31905 TIP3     7330     TIP3     H1       HT       0.417000       1.00800           0
     31906 TIP3     7330     TIP3     H2       HT       0.417000       1.00800           0
     31907 TIP3     7331     TIP3     OH2      OT      -0.834000       15.9994           0
     31908 TIP3     7331     TIP3     H1       HT       0.417000       1.00800           0
     31909 TIP3     7331     TIP3     H2       HT       0.417000       1.00800           0
     31910 TIP3     7332     TIP3     OH2      OT      -0.834000       15.9994           0
     31911 TIP3     7332     TIP3     H1       HT       0.417000       1.00800           0
     31912 TIP3     7332     TIP3     H2       HT       0.417000       1.00800           0
     31913 TIP3     7333     TIP3     OH2      OT      -0.834000       15.9994           0
     31914 TIP3     7333     TIP3     H1       HT       0.417000       1.00800           0
     31915 TIP3     7333     TIP3     H2       HT       0.417000       1.00800           0
     31916 TIP3     7334     TIP3     OH2      OT      -0.834000       15.9994           0
     31917 TIP3     7334     TIP3     H1       HT       0.417000       1.00800           0
     31918 TIP3     7334     TIP3     H2       HT       0.417000       1.00800           0
     31919 TIP3     7335     TIP3     OH2      OT      -0.834000       15.9994           0
     31920 TIP3     7335     TIP3     H1       HT       0.417000       1.00800           0
     31921 TIP3     7335     TIP3     H2       HT       0.417000       1.00800           0
     31922 TIP3     7336     TIP3     OH2      OT      -0.834000       15.9994           0
     31923 TIP3     7336     TIP3     H1       HT       0.417000       1.00800           0
     31924 TIP3     7336     TIP3     H2       HT       0.417000       1.00800           0
     31925 TIP3     7337     TIP3     OH2      OT      -0.834000       15.9994           0
     31926 TIP3     7337     TIP3     H1       HT       0.417000       1.00800           0
     31927 TIP3     7337     TIP3     H2       HT       0.417000       1.00800           0
     31928 TIP3     7338     TIP3     OH2      OT      -0.834000       15.9994           0
     31929 TIP3     7338     TIP3     H1       HT       0.417000       1.00800           0
     31930 TIP3     7338     TIP3     H2       HT       0.417000       1.00800           0
     31931 TIP3     7339     TIP3     OH2      OT      -0.834000       15.9994           0
     31932 TIP3     7339     TIP3     H1       HT       0.417000       1.00800           0
     31933 TIP3     7339     TIP3     H2       HT       0.417000       1.00800           0
     31934 TIP3     7340     TIP3     OH2      OT      -0.834000       15.9994           0
     31935 TIP3     7340     TIP3     H1       HT       0.417000       1.00800           0
     31936 TIP3     7340     TIP3     H2       HT       0.417000       1.00800           0
     31937 TIP3     7341     TIP3     OH2      OT      -0.834000       15.9994           0
     31938 TIP3     7341     TIP3     H1       HT       0.417000       1.00800           0
     31939 TIP3     7341     TIP3     H2       HT       0.417000       1.00800           0
     31940 TIP3     7342     TIP3     OH2      OT      -0.834000       15.9994           0
     31941 TIP3     7342     TIP3     H1       HT       0.417000       1.00800           0
     31942 TIP3     7342     TIP3     H2       HT       0.417000       1.00800           0
     31943 TIP3     7343     TIP3     OH2      OT      -0.834000       15.9994           0
     31944 TIP3     7343     TIP3     H1       HT       0.417000       1.00800           0
     31945 TIP3     7343     TIP3     H2       HT       0.417000       1.00800           0
     31946 TIP3     7344     TIP3     OH2      OT      -0.834000       15.9994           0
     31947 TIP3     7344     TIP3     H1       HT       0.417000       1.00800           0
     31948 TIP3     7344     TIP3     H2       HT       0.417000       1.00800           0
     31949 TIP3     7345     TIP3     OH2      OT      -0.834000       15.9994           0
     31950 TIP3     7345     TIP3     H1       HT       0.417000       1.00800           0
     31951 TIP3     7345     TIP3     H2       HT       0.417000       1.00800           0
     31952 TIP3     7346     TIP3     OH2      OT      -0.834000       15.9994           0
     31953 TIP3     7346     TIP3     H1       HT       0.417000       1.00800           0
     31954 TIP3     7346     TIP3     H2       HT       0.417000       1.00800           0
     31955 TIP3     7347     TIP3     OH2      OT      -0.834000       15.9994           0
     31956 TIP3     7347     TIP3     H1       HT       0.417000       1.00800           0
     31957 TIP3     7347     TIP3     H2       HT       0.417000       1.00800           0
     31958 TIP3     7348     TIP3     OH2      OT      -0.834000       15.9994           0
     31959 TIP3     7348     TIP3     H1       HT       0.417000       1.00800           0
     31960 TIP3     7348     TIP3     H2       HT       0.417000       1.00800           0
     31961 TIP3     7349     TIP3     OH2      OT      -0.834000       15.9994           0
     31962 TIP3     7349     TIP3     H1       HT       0.417000       1.00800           0
     31963 TIP3     7349     TIP3     H2       HT       0.417000       1.00800           0
     31964 TIP3     7350     TIP3     OH2      OT      -0.834000       15.9994           0
     31965 TIP3     7350     TIP3     H1       HT       0.417000       1.00800           0
     31966 TIP3     7350     TIP3     H2       HT       0.417000       1.00800           0
     31967 TIP3     7351     TIP3     OH2      OT      -0.834000       15.9994           0
     31968 TIP3     7351     TIP3     H1       HT       0.417000       1.00800           0
     31969 TIP3     7351     TIP3     H2       HT       0.417000       1.00800           0
     31970 TIP3     7352     TIP3     OH2      OT      -0.834000       15.9994           0
     31971 TIP3     7352     TIP3     H1       HT       0.417000       1.00800           0
     31972 TIP3     7352     TIP3     H2       HT       0.417000       1.00800           0
     31973 TIP3     7353     TIP3     OH2      OT      -0.834000       15.9994           0
     31974 TIP3     7353     TIP3     H1       HT       0.417000       1.00800           0
     31975 TIP3     7353     TIP3     H2       HT       0.417000       1.00800           0
     31976 TIP3     7354     TIP3     OH2      OT      -0.834000       15.9994           0
     31977 TIP3     7354     TIP3     H1       HT       0.417000       1.00800           0
     31978 TIP3     7354     TIP3     H2       HT       0.417000       1.00800           0
     31979 TIP3     7355     TIP3     OH2      OT      -0.834000       15.9994           0
     31980 TIP3     7355     TIP3     H1       HT       0.417000       1.00800           0
     31981 TIP3     7355     TIP3     H2       HT       0.417000       1.00800           0
     31982 TIP3     7356     TIP3     OH2      OT      -0.834000       15.9994           0
     31983 TIP3     7356     TIP3     H1       HT       0.417000       1.00800           0
     31984 TIP3     7356     TIP3     H2       HT       0.417000       1.00800           0
     31985 TIP3     7357     TIP3     OH2      OT      -0.834000       15.9994           0
     31986 TIP3     7357     TIP3     H1       HT       0.417000       1.00800           0
     31987 TIP3     7357     TIP3     H2       HT       0.417000       1.00800           0
     31988 TIP3     7358     TIP3     OH2      OT      -0.834000       15.9994           0
     31989 TIP3     7358     TIP3     H1       HT       0.417000       1.00800           0
     31990 TIP3     7358     TIP3     H2       HT       0.417000       1.00800           0
     31991 TIP3     7359     TIP3     OH2      OT      -0.834000       15.9994           0
     31992 TIP3     7359     TIP3     H1       HT       0.417000       1.00800           0
     31993 TIP3     7359     TIP3     H2       HT       0.417000       1.00800           0
     31994 TIP3     7360     TIP3     OH2      OT      -0.834000       15.9994           0
     31995 TIP3     7360     TIP3     H1       HT       0.417000       1.00800           0
     31996 TIP3     7360     TIP3     H2       HT       0.417000       1.00800           0
     31997 TIP3     7361     TIP3     OH2      OT      -0.834000       15.9994           0
     31998 TIP3     7361     TIP3     H1       HT       0.417000       1.00800           0
     31999 TIP3     7361     TIP3     H2       HT       0.417000       1.00800           0
     32000 TIP3     7362     TIP3     OH2      OT      -0.834000       15.9994           0
     32001 TIP3     7362     TIP3     H1       HT       0.417000       1.00800           0
     32002 TIP3     7362     TIP3     H2       HT       0.417000       1.00800           0
     32003 TIP3     7363     TIP3     OH2      OT      -0.834000       15.9994           0
     32004 TIP3     7363     TIP3     H1       HT       0.417000       1.00800           0
     32005 TIP3     7363     TIP3     H2       HT       0.417000       1.00800           0
     32006 TIP3     7364     TIP3     OH2      OT      -0.834000       15.9994           0
     32007 TIP3     7364     TIP3     H1       HT       0.417000       1.00800           0
     32008 TIP3     7364     TIP3     H2       HT       0.417000       1.00800           0
     32009 TIP3     7365     TIP3     OH2      OT      -0.834000       15.9994           0
     32010 TIP3     7365     TIP3     H1       HT       0.417000       1.00800           0
     32011 TIP3     7365     TIP3     H2       HT       0.417000       1.00800           0
     32012 TIP3     7366     TIP3     OH2      OT      -0.834000       15.9994           0
     32013 TIP3     7366     TIP3     H1       HT       0.417000       1.00800           0
     32014 TIP3     7366     TIP3     H2       HT       0.417000       1.00800           0
     32015 TIP3     7367     TIP3     OH2      OT      -0.834000       15.9994           0
     32016 TIP3     7367     TIP3     H1       HT       0.417000       1.00800           0
     32017 TIP3     7367     TIP3     H2       HT       0.417000       1.00800           0
     32018 TIP3     7368     TIP3     OH2      OT      -0.834000       15.9994           0
     32019 TIP3     7368     TIP3     H1       HT       0.417000       1.00800           0
     32020 TIP3     7368     TIP3     H2       HT       0.417000       1.00800           0
     32021 TIP3     7369     TIP3     OH2      OT      -0.834000       15.9994           0
     32022 TIP3     7369     TIP3     H1       HT       0.417000       1.00800           0
     32023 TIP3     7369     TIP3     H2       HT       0.417000       1.00800           0
     32024 TIP3     7370     TIP3     OH2      OT      -0.834000       15.9994           0
     32025 TIP3     7370     TIP3     H1       HT       0.417000       1.00800           0
     32026 TIP3     7370     TIP3     H2       HT       0.417000       1.00800           0
     32027 TIP3     7371     TIP3     OH2      OT      -0.834000       15.9994           0
     32028 TIP3     7371     TIP3     H1       HT       0.417000       1.00800           0
     32029 TIP3     7371     TIP3     H2       HT       0.417000       1.00800           0
     32030 TIP3     7372     TIP3     OH2      OT      -0.834000       15.9994           0
     32031 TIP3     7372     TIP3     H1       HT       0.417000       1.00800           0
     32032 TIP3     7372     TIP3     H2       HT       0.417000       1.00800           0
     32033 TIP3     7373     TIP3     OH2      OT      -0.834000       15.9994           0
     32034 TIP3     7373     TIP3     H1       HT       0.417000       1.00800           0
     32035 TIP3     7373     TIP3     H2       HT       0.417000       1.00800           0
     32036 TIP3     7374     TIP3     OH2      OT      -0.834000       15.9994           0
     32037 TIP3     7374     TIP3     H1       HT       0.417000       1.00800           0
     32038 TIP3     7374     TIP3     H2       HT       0.417000       1.00800           0
     32039 TIP3     7375     TIP3     OH2      OT      -0.834000       15.9994           0
     32040 TIP3     7375     TIP3     H1       HT       0.417000       1.00800           0
     32041 TIP3     7375     TIP3     H2       HT       0.417000       1.00800           0
     32042 TIP3     7376     TIP3     OH2      OT      -0.834000       15.9994           0
     32043 TIP3     7376     TIP3     H1       HT       0.417000       1.00800           0
     32044 TIP3     7376     TIP3     H2       HT       0.417000       1.00800           0
     32045 TIP3     7377     TIP3     OH2      OT      -0.834000       15.9994           0
     32046 TIP3     7377     TIP3     H1       HT       0.417000       1.00800           0
     32047 TIP3     7377     TIP3     H2       HT       0.417000       1.00800           0
     32048 TIP3     7378     TIP3     OH2      OT      -0.834000       15.9994           0
     32049 TIP3     7378     TIP3     H1       HT       0.417000       1.00800           0
     32050 TIP3     7378     TIP3     H2       HT       0.417000       1.00800           0
     32051 TIP3     7379     TIP3     OH2      OT      -0.834000       15.9994           0
     32052 TIP3     7379     TIP3     H1       HT       0.417000       1.00800           0
     32053 TIP3     7379     TIP3     H2       HT       0.417000       1.00800           0
     32054 TIP3     7380     TIP3     OH2      OT      -0.834000       15.9994           0
     32055 TIP3     7380     TIP3     H1       HT       0.417000       1.00800           0
     32056 TIP3     7380     TIP3     H2       HT       0.417000       1.00800           0
     32057 TIP3     7381     TIP3     OH2      OT      -0.834000       15.9994           0
     32058 TIP3     7381     TIP3     H1       HT       0.417000       1.00800           0
     32059 TIP3     7381     TIP3     H2       HT       0.417000       1.00800           0
     32060 TIP3     7382     TIP3     OH2      OT      -0.834000       15.9994           0
     32061 TIP3     7382     TIP3     H1       HT       0.417000       1.00800           0
     32062 TIP3     7382     TIP3     H2       HT       0.417000       1.00800           0
     32063 TIP3     7383     TIP3     OH2      OT      -0.834000       15.9994           0
     32064 TIP3     7383     TIP3     H1       HT       0.417000       1.00800           0
     32065 TIP3     7383     TIP3     H2       HT       0.417000       1.00800           0
     32066 TIP3     7384     TIP3     OH2      OT      -0.834000       15.9994           0
     32067 TIP3     7384     TIP3     H1       HT       0.417000       1.00800           0
     32068 TIP3     7384     TIP3     H2       HT       0.417000       1.00800           0
     32069 TIP3     7385     TIP3     OH2      OT      -0.834000       15.9994           0
     32070 TIP3     7385     TIP3     H1       HT       0.417000       1.00800           0
     32071 TIP3     7385     TIP3     H2       HT       0.417000       1.00800           0
     32072 TIP3     7386     TIP3     OH2      OT      -0.834000       15.9994           0
     32073 TIP3     7386     TIP3     H1       HT       0.417000       1.00800           0
     32074 TIP3     7386     TIP3     H2       HT       0.417000       1.00800           0
     32075 TIP3     7387     TIP3     OH2      OT      -0.834000       15.9994           0
     32076 TIP3     7387     TIP3     H1       HT       0.417000       1.00800           0
     32077 TIP3     7387     TIP3     H2       HT       0.417000       1.00800           0
     32078 TIP3     7388     TIP3     OH2      OT      -0.834000       15.9994           0
     32079 TIP3     7388     TIP3     H1       HT       0.417000       1.00800           0
     32080 TIP3     7388     TIP3     H2       HT       0.417000       1.00800           0
     32081 TIP3     7389     TIP3     OH2      OT      -0.834000       15.9994           0
     32082 TIP3     7389     TIP3     H1       HT       0.417000       1.00800           0
     32083 TIP3     7389     TIP3     H2       HT       0.417000       1.00800           0
     32084 TIP3     7390     TIP3     OH2      OT      -0.834000       15.9994           0
     32085 TIP3     7390     TIP3     H1       HT       0.417000       1.00800           0
     32086 TIP3     7390     TIP3     H2       HT       0.417000       1.00800           0
     32087 TIP3     7391     TIP3     OH2      OT      -0.834000       15.9994           0
     32088 TIP3     7391     TIP3     H1       HT       0.417000       1.00800           0
     32089 TIP3     7391     TIP3     H2       HT       0.417000       1.00800           0
     32090 TIP3     7392     TIP3     OH2      OT      -0.834000       15.9994           0
     32091 TIP3     7392     TIP3     H1       HT       0.417000       1.00800           0
     32092 TIP3     7392     TIP3     H2       HT       0.417000       1.00800           0
     32093 TIP3     7393     TIP3     OH2      OT      -0.834000       15.9994           0
     32094 TIP3     7393     TIP3     H1       HT       0.417000       1.00800           0
     32095 TIP3     7393     TIP3     H2       HT       0.417000       1.00800           0
     32096 TIP3     7394     TIP3     OH2      OT      -0.834000       15.9994           0
     32097 TIP3     7394     TIP3     H1       HT       0.417000       1.00800           0
     32098 TIP3     7394     TIP3     H2       HT       0.417000       1.00800           0
     32099 TIP3     7395     TIP3     OH2      OT      -0.834000       15.9994           0
     32100 TIP3     7395     TIP3     H1       HT       0.417000       1.00800           0
     32101 TIP3     7395     TIP3     H2       HT       0.417000       1.00800           0
     32102 TIP3     7396     TIP3     OH2      OT      -0.834000       15.9994           0
     32103 TIP3     7396     TIP3     H1       HT       0.417000       1.00800           0
     32104 TIP3     7396     TIP3     H2       HT       0.417000       1.00800           0
     32105 TIP3     7397     TIP3     OH2      OT      -0.834000       15.9994           0
     32106 TIP3     7397     TIP3     H1       HT       0.417000       1.00800           0
     32107 TIP3     7397     TIP3     H2       HT       0.417000       1.00800           0
     32108 TIP3     7398     TIP3     OH2      OT      -0.834000       15.9994           0
     32109 TIP3     7398     TIP3     H1       HT       0.417000       1.00800           0
     32110 TIP3     7398     TIP3     H2       HT       0.417000       1.00800           0
     32111 TIP3     7399     TIP3     OH2      OT      -0.834000       15.9994           0
     32112 TIP3     7399     TIP3     H1       HT       0.417000       1.00800           0
     32113 TIP3     7399     TIP3     H2       HT       0.417000       1.00800           0
     32114 TIP3     7400     TIP3     OH2      OT      -0.834000       15.9994           0
     32115 TIP3     7400     TIP3     H1       HT       0.417000       1.00800           0
     32116 TIP3     7400     TIP3     H2       HT       0.417000       1.00800           0
     32117 TIP3     7401     TIP3     OH2      OT      -0.834000       15.9994           0
     32118 TIP3     7401     TIP3     H1       HT       0.417000       1.00800           0
     32119 TIP3     7401     TIP3     H2       HT       0.417000       1.00800           0
     32120 TIP3     7402     TIP3     OH2      OT      -0.834000       15.9994           0
     32121 TIP3     7402     TIP3     H1       HT       0.417000       1.00800           0
     32122 TIP3     7402     TIP3     H2       HT       0.417000       1.00800           0
     32123 TIP3     7403     TIP3     OH2      OT      -0.834000       15.9994           0
     32124 TIP3     7403     TIP3     H1       HT       0.417000       1.00800           0
     32125 TIP3     7403     TIP3     H2       HT       0.417000       1.00800           0
     32126 TIP3     7404     TIP3     OH2      OT      -0.834000       15.9994           0
     32127 TIP3     7404     TIP3     H1       HT       0.417000       1.00800           0
     32128 TIP3     7404     TIP3     H2       HT       0.417000       1.00800           0
     32129 TIP3     7405     TIP3     OH2      OT      -0.834000       15.9994           0
     32130 TIP3     7405     TIP3     H1       HT       0.417000       1.00800           0
     32131 TIP3     7405     TIP3     H2       HT       0.417000       1.00800           0
     32132 TIP3     7406     TIP3     OH2      OT      -0.834000       15.9994           0
     32133 TIP3     7406     TIP3     H1       HT       0.417000       1.00800           0
     32134 TIP3     7406     TIP3     H2       HT       0.417000       1.00800           0
     32135 TIP3     7407     TIP3     OH2      OT      -0.834000       15.9994           0
     32136 TIP3     7407     TIP3     H1       HT       0.417000       1.00800           0
     32137 TIP3     7407     TIP3     H2       HT       0.417000       1.00800           0
     32138 TIP3     7408     TIP3     OH2      OT      -0.834000       15.9994           0
     32139 TIP3     7408     TIP3     H1       HT       0.417000       1.00800           0
     32140 TIP3     7408     TIP3     H2       HT       0.417000       1.00800           0
     32141 TIP3     7409     TIP3     OH2      OT      -0.834000       15.9994           0
     32142 TIP3     7409     TIP3     H1       HT       0.417000       1.00800           0
     32143 TIP3     7409     TIP3     H2       HT       0.417000       1.00800           0
     32144 TIP3     7410     TIP3     OH2      OT      -0.834000       15.9994           0
     32145 TIP3     7410     TIP3     H1       HT       0.417000       1.00800           0
     32146 TIP3     7410     TIP3     H2       HT       0.417000       1.00800           0
     32147 TIP3     7411     TIP3     OH2      OT      -0.834000       15.9994           0
     32148 TIP3     7411     TIP3     H1       HT       0.417000       1.00800           0
     32149 TIP3     7411     TIP3     H2       HT       0.417000       1.00800           0
     32150 TIP3     7412     TIP3     OH2      OT      -0.834000       15.9994           0
     32151 TIP3     7412     TIP3     H1       HT       0.417000       1.00800           0
     32152 TIP3     7412     TIP3     H2       HT       0.417000       1.00800           0
     32153 TIP3     7413     TIP3     OH2      OT      -0.834000       15.9994           0
     32154 TIP3     7413     TIP3     H1       HT       0.417000       1.00800           0
     32155 TIP3     7413     TIP3     H2       HT       0.417000       1.00800           0
     32156 TIP3     7414     TIP3     OH2      OT      -0.834000       15.9994           0
     32157 TIP3     7414     TIP3     H1       HT       0.417000       1.00800           0
     32158 TIP3     7414     TIP3     H2       HT       0.417000       1.00800           0
     32159 TIP3     7415     TIP3     OH2      OT      -0.834000       15.9994           0
     32160 TIP3     7415     TIP3     H1       HT       0.417000       1.00800           0
     32161 TIP3     7415     TIP3     H2       HT       0.417000       1.00800           0
     32162 TIP3     7416     TIP3     OH2      OT      -0.834000       15.9994           0
     32163 TIP3     7416     TIP3     H1       HT       0.417000       1.00800           0
     32164 TIP3     7416     TIP3     H2       HT       0.417000       1.00800           0
     32165 TIP3     7417     TIP3     OH2      OT      -0.834000       15.9994           0
     32166 TIP3     7417     TIP3     H1       HT       0.417000       1.00800           0
     32167 TIP3     7417     TIP3     H2       HT       0.417000       1.00800           0
     32168 TIP3     7418     TIP3     OH2      OT      -0.834000       15.9994           0
     32169 TIP3     7418     TIP3     H1       HT       0.417000       1.00800           0
     32170 TIP3     7418     TIP3     H2       HT       0.417000       1.00800           0
     32171 TIP3     7419     TIP3     OH2      OT      -0.834000       15.9994           0
     32172 TIP3     7419     TIP3     H1       HT       0.417000       1.00800           0
     32173 TIP3     7419     TIP3     H2       HT       0.417000       1.00800           0
     32174 TIP3     7420     TIP3     OH2      OT      -0.834000       15.9994           0
     32175 TIP3     7420     TIP3     H1       HT       0.417000       1.00800           0
     32176 TIP3     7420     TIP3     H2       HT       0.417000       1.00800           0
     32177 TIP3     7421     TIP3     OH2      OT      -0.834000       15.9994           0
     32178 TIP3     7421     TIP3     H1       HT       0.417000       1.00800           0
     32179 TIP3     7421     TIP3     H2       HT       0.417000       1.00800           0
     32180 TIP3     7422     TIP3     OH2      OT      -0.834000       15.9994           0
     32181 TIP3     7422     TIP3     H1       HT       0.417000       1.00800           0
     32182 TIP3     7422     TIP3     H2       HT       0.417000       1.00800           0
     32183 TIP3     7423     TIP3     OH2      OT      -0.834000       15.9994           0
     32184 TIP3     7423     TIP3     H1       HT       0.417000       1.00800           0
     32185 TIP3     7423     TIP3     H2       HT       0.417000       1.00800           0
     32186 TIP3     7424     TIP3     OH2      OT      -0.834000       15.9994           0
     32187 TIP3     7424     TIP3     H1       HT       0.417000       1.00800           0
     32188 TIP3     7424     TIP3     H2       HT       0.417000       1.00800           0
     32189 TIP3     7425     TIP3     OH2      OT      -0.834000       15.9994           0
     32190 TIP3     7425     TIP3     H1       HT       0.417000       1.00800           0
     32191 TIP3     7425     TIP3     H2       HT       0.417000       1.00800           0
     32192 TIP3     7426     TIP3     OH2      OT      -0.834000       15.9994           0
     32193 TIP3     7426     TIP3     H1       HT       0.417000       1.00800           0
     32194 TIP3     7426     TIP3     H2       HT       0.417000       1.00800           0
     32195 TIP3     7427     TIP3     OH2      OT      -0.834000       15.9994           0
     32196 TIP3     7427     TIP3     H1       HT       0.417000       1.00800           0
     32197 TIP3     7427     TIP3     H2       HT       0.417000       1.00800           0
     32198 TIP3     7428     TIP3     OH2      OT      -0.834000       15.9994           0
     32199 TIP3     7428     TIP3     H1       HT       0.417000       1.00800           0
     32200 TIP3     7428     TIP3     H2       HT       0.417000       1.00800           0
     32201 TIP3     7429     TIP3     OH2      OT      -0.834000       15.9994           0
     32202 TIP3     7429     TIP3     H1       HT       0.417000       1.00800           0
     32203 TIP3     7429     TIP3     H2       HT       0.417000       1.00800           0
     32204 TIP3     7430     TIP3     OH2      OT      -0.834000       15.9994           0
     32205 TIP3     7430     TIP3     H1       HT       0.417000       1.00800           0
     32206 TIP3     7430     TIP3     H2       HT       0.417000       1.00800           0
     32207 TIP3     7431     TIP3     OH2      OT      -0.834000       15.9994           0
     32208 TIP3     7431     TIP3     H1       HT       0.417000       1.00800           0
     32209 TIP3     7431     TIP3     H2       HT       0.417000       1.00800           0
     32210 TIP3     7432     TIP3     OH2      OT      -0.834000       15.9994           0
     32211 TIP3     7432     TIP3     H1       HT       0.417000       1.00800           0
     32212 TIP3     7432     TIP3     H2       HT       0.417000       1.00800           0
     32213 TIP3     7433     TIP3     OH2      OT      -0.834000       15.9994           0
     32214 TIP3     7433     TIP3     H1       HT       0.417000       1.00800           0
     32215 TIP3     7433     TIP3     H2       HT       0.417000       1.00800           0
     32216 TIP3     7434     TIP3     OH2      OT      -0.834000       15.9994           0
     32217 TIP3     7434     TIP3     H1       HT       0.417000       1.00800           0
     32218 TIP3     7434     TIP3     H2       HT       0.417000       1.00800           0
     32219 TIP3     7435     TIP3     OH2      OT      -0.834000       15.9994           0
     32220 TIP3     7435     TIP3     H1       HT       0.417000       1.00800           0
     32221 TIP3     7435     TIP3     H2       HT       0.417000       1.00800           0
     32222 TIP3     7436     TIP3     OH2      OT      -0.834000       15.9994           0
     32223 TIP3     7436     TIP3     H1       HT       0.417000       1.00800           0
     32224 TIP3     7436     TIP3     H2       HT       0.417000       1.00800           0
     32225 TIP3     7437     TIP3     OH2      OT      -0.834000       15.9994           0
     32226 TIP3     7437     TIP3     H1       HT       0.417000       1.00800           0
     32227 TIP3     7437     TIP3     H2       HT       0.417000       1.00800           0
     32228 TIP3     7438     TIP3     OH2      OT      -0.834000       15.9994           0
     32229 TIP3     7438     TIP3     H1       HT       0.417000       1.00800           0
     32230 TIP3     7438     TIP3     H2       HT       0.417000       1.00800           0
     32231 TIP3     7439     TIP3     OH2      OT      -0.834000       15.9994           0
     32232 TIP3     7439     TIP3     H1       HT       0.417000       1.00800           0
     32233 TIP3     7439     TIP3     H2       HT       0.417000       1.00800           0
     32234 TIP3     7440     TIP3     OH2      OT      -0.834000       15.9994           0
     32235 TIP3     7440     TIP3     H1       HT       0.417000       1.00800           0
     32236 TIP3     7440     TIP3     H2       HT       0.417000       1.00800           0
     32237 TIP3     7441     TIP3     OH2      OT      -0.834000       15.9994           0
     32238 TIP3     7441     TIP3     H1       HT       0.417000       1.00800           0
     32239 TIP3     7441     TIP3     H2       HT       0.417000       1.00800           0
     32240 TIP3     7442     TIP3     OH2      OT      -0.834000       15.9994           0
     32241 TIP3     7442     TIP3     H1       HT       0.417000       1.00800           0
     32242 TIP3     7442     TIP3     H2       HT       0.417000       1.00800           0
     32243 TIP3     7443     TIP3     OH2      OT      -0.834000       15.9994           0
     32244 TIP3     7443     TIP3     H1       HT       0.417000       1.00800           0
     32245 TIP3     7443     TIP3     H2       HT       0.417000       1.00800           0
     32246 TIP3     7444     TIP3     OH2      OT      -0.834000       15.9994           0
     32247 TIP3     7444     TIP3     H1       HT       0.417000       1.00800           0
     32248 TIP3     7444     TIP3     H2       HT       0.417000       1.00800           0
     32249 TIP3     7445     TIP3     OH2      OT      -0.834000       15.9994           0
     32250 TIP3     7445     TIP3     H1       HT       0.417000       1.00800           0
     32251 TIP3     7445     TIP3     H2       HT       0.417000       1.00800           0
     32252 TIP3     7446     TIP3     OH2      OT      -0.834000       15.9994           0
     32253 TIP3     7446     TIP3     H1       HT       0.417000       1.00800           0
     32254 TIP3     7446     TIP3     H2       HT       0.417000       1.00800           0
     32255 TIP3     7447     TIP3     OH2      OT      -0.834000       15.9994           0
     32256 TIP3     7447     TIP3     H1       HT       0.417000       1.00800           0
     32257 TIP3     7447     TIP3     H2       HT       0.417000       1.00800           0
     32258 TIP3     7448     TIP3     OH2      OT      -0.834000       15.9994           0
     32259 TIP3     7448     TIP3     H1       HT       0.417000       1.00800           0
     32260 TIP3     7448     TIP3     H2       HT       0.417000       1.00800           0
     32261 TIP3     7449     TIP3     OH2      OT      -0.834000       15.9994           0
     32262 TIP3     7449     TIP3     H1       HT       0.417000       1.00800           0
     32263 TIP3     7449     TIP3     H2       HT       0.417000       1.00800           0
     32264 TIP3     7450     TIP3     OH2      OT      -0.834000       15.9994           0
     32265 TIP3     7450     TIP3     H1       HT       0.417000       1.00800           0
     32266 TIP3     7450     TIP3     H2       HT       0.417000       1.00800           0
     32267 TIP3     7451     TIP3     OH2      OT      -0.834000       15.9994           0
     32268 TIP3     7451     TIP3     H1       HT       0.417000       1.00800           0
     32269 TIP3     7451     TIP3     H2       HT       0.417000       1.00800           0
     32270 TIP3     7452     TIP3     OH2      OT      -0.834000       15.9994           0
     32271 TIP3     7452     TIP3     H1       HT       0.417000       1.00800           0
     32272 TIP3     7452     TIP3     H2       HT       0.417000       1.00800           0
     32273 TIP3     7453     TIP3     OH2      OT      -0.834000       15.9994           0
     32274 TIP3     7453     TIP3     H1       HT       0.417000       1.00800           0
     32275 TIP3     7453     TIP3     H2       HT       0.417000       1.00800           0
     32276 TIP3     7454     TIP3     OH2      OT      -0.834000       15.9994           0
     32277 TIP3     7454     TIP3     H1       HT       0.417000       1.00800           0
     32278 TIP3     7454     TIP3     H2       HT       0.417000       1.00800           0
     32279 TIP3     7455     TIP3     OH2      OT      -0.834000       15.9994           0
     32280 TIP3     7455     TIP3     H1       HT       0.417000       1.00800           0
     32281 TIP3     7455     TIP3     H2       HT       0.417000       1.00800           0
     32282 TIP3     7456     TIP3     OH2      OT      -0.834000       15.9994           0
     32283 TIP3     7456     TIP3     H1       HT       0.417000       1.00800           0
     32284 TIP3     7456     TIP3     H2       HT       0.417000       1.00800           0
     32285 TIP3     7457     TIP3     OH2      OT      -0.834000       15.9994           0
     32286 TIP3     7457     TIP3     H1       HT       0.417000       1.00800           0
     32287 TIP3     7457     TIP3     H2       HT       0.417000       1.00800           0
     32288 TIP3     7458     TIP3     OH2      OT      -0.834000       15.9994           0
     32289 TIP3     7458     TIP3     H1       HT       0.417000       1.00800           0
     32290 TIP3     7458     TIP3     H2       HT       0.417000       1.00800           0
     32291 TIP3     7459     TIP3     OH2      OT      -0.834000       15.9994           0
     32292 TIP3     7459     TIP3     H1       HT       0.417000       1.00800           0
     32293 TIP3     7459     TIP3     H2       HT       0.417000       1.00800           0
     32294 TIP3     7460     TIP3     OH2      OT      -0.834000       15.9994           0
     32295 TIP3     7460     TIP3     H1       HT       0.417000       1.00800           0
     32296 TIP3     7460     TIP3     H2       HT       0.417000       1.00800           0
     32297 TIP3     7461     TIP3     OH2      OT      -0.834000       15.9994           0
     32298 TIP3     7461     TIP3     H1       HT       0.417000       1.00800           0
     32299 TIP3     7461     TIP3     H2       HT       0.417000       1.00800           0
     32300 TIP3     7462     TIP3     OH2      OT      -0.834000       15.9994           0
     32301 TIP3     7462     TIP3     H1       HT       0.417000       1.00800           0
     32302 TIP3     7462     TIP3     H2       HT       0.417000       1.00800           0
     32303 TIP3     7463     TIP3     OH2      OT      -0.834000       15.9994           0
     32304 TIP3     7463     TIP3     H1       HT       0.417000       1.00800           0
     32305 TIP3     7463     TIP3     H2       HT       0.417000       1.00800           0
     32306 TIP3     7464     TIP3     OH2      OT      -0.834000       15.9994           0
     32307 TIP3     7464     TIP3     H1       HT       0.417000       1.00800           0
     32308 TIP3     7464     TIP3     H2       HT       0.417000       1.00800           0
     32309 TIP3     7465     TIP3     OH2      OT      -0.834000       15.9994           0
     32310 TIP3     7465     TIP3     H1       HT       0.417000       1.00800           0
     32311 TIP3     7465     TIP3     H2       HT       0.417000       1.00800           0
     32312 TIP3     7466     TIP3     OH2      OT      -0.834000       15.9994           0
     32313 TIP3     7466     TIP3     H1       HT       0.417000       1.00800           0
     32314 TIP3     7466     TIP3     H2       HT       0.417000       1.00800           0
     32315 TIP3     7467     TIP3     OH2      OT      -0.834000       15.9994           0
     32316 TIP3     7467     TIP3     H1       HT       0.417000       1.00800           0
     32317 TIP3     7467     TIP3     H2       HT       0.417000       1.00800           0
     32318 TIP3     7468     TIP3     OH2      OT      -0.834000       15.9994           0
     32319 TIP3     7468     TIP3     H1       HT       0.417000       1.00800           0
     32320 TIP3     7468     TIP3     H2       HT       0.417000       1.00800           0
     32321 TIP3     7469     TIP3     OH2      OT      -0.834000       15.9994           0
     32322 TIP3     7469     TIP3     H1       HT       0.417000       1.00800           0
     32323 TIP3     7469     TIP3     H2       HT       0.417000       1.00800           0
     32324 TIP3     7470     TIP3     OH2      OT      -0.834000       15.9994           0
     32325 TIP3     7470     TIP3     H1       HT       0.417000       1.00800           0
     32326 TIP3     7470     TIP3     H2       HT       0.417000       1.00800           0
     32327 TIP3     7471     TIP3     OH2      OT      -0.834000       15.9994           0
     32328 TIP3     7471     TIP3     H1       HT       0.417000       1.00800           0
     32329 TIP3     7471     TIP3     H2       HT       0.417000       1.00800           0
     32330 TIP3     7472     TIP3     OH2      OT      -0.834000       15.9994           0
     32331 TIP3     7472     TIP3     H1       HT       0.417000       1.00800           0
     32332 TIP3     7472     TIP3     H2       HT       0.417000       1.00800           0
     32333 TIP3     7473     TIP3     OH2      OT      -0.834000       15.9994           0
     32334 TIP3     7473     TIP3     H1       HT       0.417000       1.00800           0
     32335 TIP3     7473     TIP3     H2       HT       0.417000       1.00800           0
     32336 TIP3     7474     TIP3     OH2      OT      -0.834000       15.9994           0
     32337 TIP3     7474     TIP3     H1       HT       0.417000       1.00800           0
     32338 TIP3     7474     TIP3     H2       HT       0.417000       1.00800           0
     32339 TIP3     7475     TIP3     OH2      OT      -0.834000       15.9994           0
     32340 TIP3     7475     TIP3     H1       HT       0.417000       1.00800           0
     32341 TIP3     7475     TIP3     H2       HT       0.417000       1.00800           0
     32342 TIP3     7476     TIP3     OH2      OT      -0.834000       15.9994           0
     32343 TIP3     7476     TIP3     H1       HT       0.417000       1.00800           0
     32344 TIP3     7476     TIP3     H2       HT       0.417000       1.00800           0
     32345 TIP3     7477     TIP3     OH2      OT      -0.834000       15.9994           0
     32346 TIP3     7477     TIP3     H1       HT       0.417000       1.00800           0
     32347 TIP3     7477     TIP3     H2       HT       0.417000       1.00800           0
     32348 TIP3     7478     TIP3     OH2      OT      -0.834000       15.9994           0
     32349 TIP3     7478     TIP3     H1       HT       0.417000       1.00800           0
     32350 TIP3     7478     TIP3     H2       HT       0.417000       1.00800           0
     32351 TIP3     7479     TIP3     OH2      OT      -0.834000       15.9994           0
     32352 TIP3     7479     TIP3     H1       HT       0.417000       1.00800           0
     32353 TIP3     7479     TIP3     H2       HT       0.417000       1.00800           0
     32354 TIP3     7480     TIP3     OH2      OT      -0.834000       15.9994           0
     32355 TIP3     7480     TIP3     H1       HT       0.417000       1.00800           0
     32356 TIP3     7480     TIP3     H2       HT       0.417000       1.00800           0
     32357 TIP3     7481     TIP3     OH2      OT      -0.834000       15.9994           0
     32358 TIP3     7481     TIP3     H1       HT       0.417000       1.00800           0
     32359 TIP3     7481     TIP3     H2       HT       0.417000       1.00800           0
     32360 TIP3     7482     TIP3     OH2      OT      -0.834000       15.9994           0
     32361 TIP3     7482     TIP3     H1       HT       0.417000       1.00800           0
     32362 TIP3     7482     TIP3     H2       HT       0.417000       1.00800           0
     32363 TIP3     7483     TIP3     OH2      OT      -0.834000       15.9994           0
     32364 TIP3     7483     TIP3     H1       HT       0.417000       1.00800           0
     32365 TIP3     7483     TIP3     H2       HT       0.417000       1.00800           0
     32366 TIP3     7484     TIP3     OH2      OT      -0.834000       15.9994           0
     32367 TIP3     7484     TIP3     H1       HT       0.417000       1.00800           0
     32368 TIP3     7484     TIP3     H2       HT       0.417000       1.00800           0
     32369 TIP3     7485     TIP3     OH2      OT      -0.834000       15.9994           0
     32370 TIP3     7485     TIP3     H1       HT       0.417000       1.00800           0
     32371 TIP3     7485     TIP3     H2       HT       0.417000       1.00800           0
     32372 TIP3     7486     TIP3     OH2      OT      -0.834000       15.9994           0
     32373 TIP3     7486     TIP3     H1       HT       0.417000       1.00800           0
     32374 TIP3     7486     TIP3     H2       HT       0.417000       1.00800           0
     32375 TIP3     7487     TIP3     OH2      OT      -0.834000       15.9994           0
     32376 TIP3     7487     TIP3     H1       HT       0.417000       1.00800           0
     32377 TIP3     7487     TIP3     H2       HT       0.417000       1.00800           0
     32378 TIP3     7488     TIP3     OH2      OT      -0.834000       15.9994           0
     32379 TIP3     7488     TIP3     H1       HT       0.417000       1.00800           0
     32380 TIP3     7488     TIP3     H2       HT       0.417000       1.00800           0
     32381 TIP3     7489     TIP3     OH2      OT      -0.834000       15.9994           0
     32382 TIP3     7489     TIP3     H1       HT       0.417000       1.00800           0
     32383 TIP3     7489     TIP3     H2       HT       0.417000       1.00800           0
     32384 TIP3     7490     TIP3     OH2      OT      -0.834000       15.9994           0
     32385 TIP3     7490     TIP3     H1       HT       0.417000       1.00800           0
     32386 TIP3     7490     TIP3     H2       HT       0.417000       1.00800           0
     32387 TIP3     7491     TIP3     OH2      OT      -0.834000       15.9994           0
     32388 TIP3     7491     TIP3     H1       HT       0.417000       1.00800           0
     32389 TIP3     7491     TIP3     H2       HT       0.417000       1.00800           0
     32390 TIP3     7492     TIP3     OH2      OT      -0.834000       15.9994           0
     32391 TIP3     7492     TIP3     H1       HT       0.417000       1.00800           0
     32392 TIP3     7492     TIP3     H2       HT       0.417000       1.00800           0
     32393 TIP3     7493     TIP3     OH2      OT      -0.834000       15.9994           0
     32394 TIP3     7493     TIP3     H1       HT       0.417000       1.00800           0
     32395 TIP3     7493     TIP3     H2       HT       0.417000       1.00800           0
     32396 TIP3     7494     TIP3     OH2      OT      -0.834000       15.9994           0
     32397 TIP3     7494     TIP3     H1       HT       0.417000       1.00800           0
     32398 TIP3     7494     TIP3     H2       HT       0.417000       1.00800           0
     32399 TIP3     7495     TIP3     OH2      OT      -0.834000       15.9994           0
     32400 TIP3     7495     TIP3     H1       HT       0.417000       1.00800           0
     32401 TIP3     7495     TIP3     H2       HT       0.417000       1.00800           0
     32402 TIP3     7496     TIP3     OH2      OT      -0.834000       15.9994           0
     32403 TIP3     7496     TIP3     H1       HT       0.417000       1.00800           0
     32404 TIP3     7496     TIP3     H2       HT       0.417000       1.00800           0
     32405 TIP3     7497     TIP3     OH2      OT      -0.834000       15.9994           0
     32406 TIP3     7497     TIP3     H1       HT       0.417000       1.00800           0
     32407 TIP3     7497     TIP3     H2       HT       0.417000       1.00800           0
     32408 TIP3     7498     TIP3     OH2      OT      -0.834000       15.9994           0
     32409 TIP3     7498     TIP3     H1       HT       0.417000       1.00800           0
     32410 TIP3     7498     TIP3     H2       HT       0.417000       1.00800           0
     32411 TIP3     7499     TIP3     OH2      OT      -0.834000       15.9994           0
     32412 TIP3     7499     TIP3     H1       HT       0.417000       1.00800           0
     32413 TIP3     7499     TIP3     H2       HT       0.417000       1.00800           0
     32414 TIP3     7500     TIP3     OH2      OT      -0.834000       15.9994           0
     32415 TIP3     7500     TIP3     H1       HT       0.417000       1.00800           0
     32416 TIP3     7500     TIP3     H2       HT       0.417000       1.00800           0
     32417 TIP3     7501     TIP3     OH2      OT      -0.834000       15.9994           0
     32418 TIP3     7501     TIP3     H1       HT       0.417000       1.00800           0
     32419 TIP3     7501     TIP3     H2       HT       0.417000       1.00800           0
     32420 TIP3     7502     TIP3     OH2      OT      -0.834000       15.9994           0
     32421 TIP3     7502     TIP3     H1       HT       0.417000       1.00800           0
     32422 TIP3     7502     TIP3     H2       HT       0.417000       1.00800           0
     32423 TIP3     7503     TIP3     OH2      OT      -0.834000       15.9994           0
     32424 TIP3     7503     TIP3     H1       HT       0.417000       1.00800           0
     32425 TIP3     7503     TIP3     H2       HT       0.417000       1.00800           0
     32426 TIP3     7504     TIP3     OH2      OT      -0.834000       15.9994           0
     32427 TIP3     7504     TIP3     H1       HT       0.417000       1.00800           0
     32428 TIP3     7504     TIP3     H2       HT       0.417000       1.00800           0
     32429 TIP3     7505     TIP3     OH2      OT      -0.834000       15.9994           0
     32430 TIP3     7505     TIP3     H1       HT       0.417000       1.00800           0
     32431 TIP3     7505     TIP3     H2       HT       0.417000       1.00800           0
     32432 TIP3     7506     TIP3     OH2      OT      -0.834000       15.9994           0
     32433 TIP3     7506     TIP3     H1       HT       0.417000       1.00800           0
     32434 TIP3     7506     TIP3     H2       HT       0.417000       1.00800           0
     32435 TIP3     7507     TIP3     OH2      OT      -0.834000       15.9994           0
     32436 TIP3     7507     TIP3     H1       HT       0.417000       1.00800           0
     32437 TIP3     7507     TIP3     H2       HT       0.417000       1.00800           0
     32438 TIP3     7508     TIP3     OH2      OT      -0.834000       15.9994           0
     32439 TIP3     7508     TIP3     H1       HT       0.417000       1.00800           0
     32440 TIP3     7508     TIP3     H2       HT       0.417000       1.00800           0
     32441 TIP3     7509     TIP3     OH2      OT      -0.834000       15.9994           0
     32442 TIP3     7509     TIP3     H1       HT       0.417000       1.00800           0
     32443 TIP3     7509     TIP3     H2       HT       0.417000       1.00800           0
     32444 TIP3     7510     TIP3     OH2      OT      -0.834000       15.9994           0
     32445 TIP3     7510     TIP3     H1       HT       0.417000       1.00800           0
     32446 TIP3     7510     TIP3     H2       HT       0.417000       1.00800           0
     32447 TIP3     7511     TIP3     OH2      OT      -0.834000       15.9994           0
     32448 TIP3     7511     TIP3     H1       HT       0.417000       1.00800           0
     32449 TIP3     7511     TIP3     H2       HT       0.417000       1.00800           0
     32450 TIP3     7512     TIP3     OH2      OT      -0.834000       15.9994           0
     32451 TIP3     7512     TIP3     H1       HT       0.417000       1.00800           0
     32452 TIP3     7512     TIP3     H2       HT       0.417000       1.00800           0
     32453 TIP3     7513     TIP3     OH2      OT      -0.834000       15.9994           0
     32454 TIP3     7513     TIP3     H1       HT       0.417000       1.00800           0
     32455 TIP3     7513     TIP3     H2       HT       0.417000       1.00800           0
     32456 TIP3     7514     TIP3     OH2      OT      -0.834000       15.9994           0
     32457 TIP3     7514     TIP3     H1       HT       0.417000       1.00800           0
     32458 TIP3     7514     TIP3     H2       HT       0.417000       1.00800           0
     32459 TIP3     7515     TIP3     OH2      OT      -0.834000       15.9994           0
     32460 TIP3     7515     TIP3     H1       HT       0.417000       1.00800           0
     32461 TIP3     7515     TIP3     H2       HT       0.417000       1.00800           0
     32462 TIP3     7516     TIP3     OH2      OT      -0.834000       15.9994           0
     32463 TIP3     7516     TIP3     H1       HT       0.417000       1.00800           0
     32464 TIP3     7516     TIP3     H2       HT       0.417000       1.00800           0
     32465 TIP3     7517     TIP3     OH2      OT      -0.834000       15.9994           0
     32466 TIP3     7517     TIP3     H1       HT       0.417000       1.00800           0
     32467 TIP3     7517     TIP3     H2       HT       0.417000       1.00800           0
     32468 TIP3     7518     TIP3     OH2      OT      -0.834000       15.9994           0
     32469 TIP3     7518     TIP3     H1       HT       0.417000       1.00800           0
     32470 TIP3     7518     TIP3     H2       HT       0.417000       1.00800           0
     32471 TIP3     7519     TIP3     OH2      OT      -0.834000       15.9994           0
     32472 TIP3     7519     TIP3     H1       HT       0.417000       1.00800           0
     32473 TIP3     7519     TIP3     H2       HT       0.417000       1.00800           0
     32474 TIP3     7520     TIP3     OH2      OT      -0.834000       15.9994           0
     32475 TIP3     7520     TIP3     H1       HT       0.417000       1.00800           0
     32476 TIP3     7520     TIP3     H2       HT       0.417000       1.00800           0
     32477 TIP3     7521     TIP3     OH2      OT      -0.834000       15.9994           0
     32478 TIP3     7521     TIP3     H1       HT       0.417000       1.00800           0
     32479 TIP3     7521     TIP3     H2       HT       0.417000       1.00800           0
     32480 TIP3     7522     TIP3     OH2      OT      -0.834000       15.9994           0
     32481 TIP3     7522     TIP3     H1       HT       0.417000       1.00800           0
     32482 TIP3     7522     TIP3     H2       HT       0.417000       1.00800           0
     32483 TIP3     7523     TIP3     OH2      OT      -0.834000       15.9994           0
     32484 TIP3     7523     TIP3     H1       HT       0.417000       1.00800           0
     32485 TIP3     7523     TIP3     H2       HT       0.417000       1.00800           0
     32486 TIP3     7524     TIP3     OH2      OT      -0.834000       15.9994           0
     32487 TIP3     7524     TIP3     H1       HT       0.417000       1.00800           0
     32488 TIP3     7524     TIP3     H2       HT       0.417000       1.00800           0
     32489 TIP3     7525     TIP3     OH2      OT      -0.834000       15.9994           0
     32490 TIP3     7525     TIP3     H1       HT       0.417000       1.00800           0
     32491 TIP3     7525     TIP3     H2       HT       0.417000       1.00800           0
     32492 TIP3     7526     TIP3     OH2      OT      -0.834000       15.9994           0
     32493 TIP3     7526     TIP3     H1       HT       0.417000       1.00800           0
     32494 TIP3     7526     TIP3     H2       HT       0.417000       1.00800           0
     32495 TIP3     7527     TIP3     OH2      OT      -0.834000       15.9994           0
     32496 TIP3     7527     TIP3     H1       HT       0.417000       1.00800           0
     32497 TIP3     7527     TIP3     H2       HT       0.417000       1.00800           0
     32498 TIP3     7528     TIP3     OH2      OT      -0.834000       15.9994           0
     32499 TIP3     7528     TIP3     H1       HT       0.417000       1.00800           0
     32500 TIP3     7528     TIP3     H2       HT       0.417000       1.00800           0
     32501 TIP3     7529     TIP3     OH2      OT      -0.834000       15.9994           0
     32502 TIP3     7529     TIP3     H1       HT       0.417000       1.00800           0
     32503 TIP3     7529     TIP3     H2       HT       0.417000       1.00800           0
     32504 TIP3     7530     TIP3     OH2      OT      -0.834000       15.9994           0
     32505 TIP3     7530     TIP3     H1       HT       0.417000       1.00800           0
     32506 TIP3     7530     TIP3     H2       HT       0.417000       1.00800           0
     32507 TIP3     7531     TIP3     OH2      OT      -0.834000       15.9994           0
     32508 TIP3     7531     TIP3     H1       HT       0.417000       1.00800           0
     32509 TIP3     7531     TIP3     H2       HT       0.417000       1.00800           0
     32510 TIP3     7532     TIP3     OH2      OT      -0.834000       15.9994           0
     32511 TIP3     7532     TIP3     H1       HT       0.417000       1.00800           0
     32512 TIP3     7532     TIP3     H2       HT       0.417000       1.00800           0
     32513 TIP3     7533     TIP3     OH2      OT      -0.834000       15.9994           0
     32514 TIP3     7533     TIP3     H1       HT       0.417000       1.00800           0
     32515 TIP3     7533     TIP3     H2       HT       0.417000       1.00800           0
     32516 TIP3     7534     TIP3     OH2      OT      -0.834000       15.9994           0
     32517 TIP3     7534     TIP3     H1       HT       0.417000       1.00800           0
     32518 TIP3     7534     TIP3     H2       HT       0.417000       1.00800           0
     32519 TIP3     7535     TIP3     OH2      OT      -0.834000       15.9994           0
     32520 TIP3     7535     TIP3     H1       HT       0.417000       1.00800           0
     32521 TIP3     7535     TIP3     H2       HT       0.417000       1.00800           0
     32522 TIP3     7536     TIP3     OH2      OT      -0.834000       15.9994           0
     32523 TIP3     7536     TIP3     H1       HT       0.417000       1.00800           0
     32524 TIP3     7536     TIP3     H2       HT       0.417000       1.00800           0
     32525 TIP3     7537     TIP3     OH2      OT      -0.834000       15.9994           0
     32526 TIP3     7537     TIP3     H1       HT       0.417000       1.00800           0
     32527 TIP3     7537     TIP3     H2       HT       0.417000       1.00800           0
     32528 TIP3     7538     TIP3     OH2      OT      -0.834000       15.9994           0
     32529 TIP3     7538     TIP3     H1       HT       0.417000       1.00800           0
     32530 TIP3     7538     TIP3     H2       HT       0.417000       1.00800           0
     32531 TIP3     7539     TIP3     OH2      OT      -0.834000       15.9994           0
     32532 TIP3     7539     TIP3     H1       HT       0.417000       1.00800           0
     32533 TIP3     7539     TIP3     H2       HT       0.417000       1.00800           0
     32534 TIP3     7540     TIP3     OH2      OT      -0.834000       15.9994           0
     32535 TIP3     7540     TIP3     H1       HT       0.417000       1.00800           0
     32536 TIP3     7540     TIP3     H2       HT       0.417000       1.00800           0
     32537 TIP3     7541     TIP3     OH2      OT      -0.834000       15.9994           0
     32538 TIP3     7541     TIP3     H1       HT       0.417000       1.00800           0
     32539 TIP3     7541     TIP3     H2       HT       0.417000       1.00800           0
     32540 TIP3     7542     TIP3     OH2      OT      -0.834000       15.9994           0
     32541 TIP3     7542     TIP3     H1       HT       0.417000       1.00800           0
     32542 TIP3     7542     TIP3     H2       HT       0.417000       1.00800           0
     32543 TIP3     7543     TIP3     OH2      OT      -0.834000       15.9994           0
     32544 TIP3     7543     TIP3     H1       HT       0.417000       1.00800           0
     32545 TIP3     7543     TIP3     H2       HT       0.417000       1.00800           0
     32546 TIP3     7544     TIP3     OH2      OT      -0.834000       15.9994           0
     32547 TIP3     7544     TIP3     H1       HT       0.417000       1.00800           0
     32548 TIP3     7544     TIP3     H2       HT       0.417000       1.00800           0
     32549 TIP3     7545     TIP3     OH2      OT      -0.834000       15.9994           0
     32550 TIP3     7545     TIP3     H1       HT       0.417000       1.00800           0
     32551 TIP3     7545     TIP3     H2       HT       0.417000       1.00800           0
     32552 TIP3     7546     TIP3     OH2      OT      -0.834000       15.9994           0
     32553 TIP3     7546     TIP3     H1       HT       0.417000       1.00800           0
     32554 TIP3     7546     TIP3     H2       HT       0.417000       1.00800           0
     32555 TIP3     7547     TIP3     OH2      OT      -0.834000       15.9994           0
     32556 TIP3     7547     TIP3     H1       HT       0.417000       1.00800           0
     32557 TIP3     7547     TIP3     H2       HT       0.417000       1.00800           0
     32558 TIP3     7548     TIP3     OH2      OT      -0.834000       15.9994           0
     32559 TIP3     7548     TIP3     H1       HT       0.417000       1.00800           0
     32560 TIP3     7548     TIP3     H2       HT       0.417000       1.00800           0
     32561 TIP3     7549     TIP3     OH2      OT      -0.834000       15.9994           0
     32562 TIP3     7549     TIP3     H1       HT       0.417000       1.00800           0
     32563 TIP3     7549     TIP3     H2       HT       0.417000       1.00800           0
     32564 TIP3     7550     TIP3     OH2      OT      -0.834000       15.9994           0
     32565 TIP3     7550     TIP3     H1       HT       0.417000       1.00800           0
     32566 TIP3     7550     TIP3     H2       HT       0.417000       1.00800           0
     32567 TIP3     7551     TIP3     OH2      OT      -0.834000       15.9994           0
     32568 TIP3     7551     TIP3     H1       HT       0.417000       1.00800           0
     32569 TIP3     7551     TIP3     H2       HT       0.417000       1.00800           0
     32570 TIP3     7552     TIP3     OH2      OT      -0.834000       15.9994           0
     32571 TIP3     7552     TIP3     H1       HT       0.417000       1.00800           0
     32572 TIP3     7552     TIP3     H2       HT       0.417000       1.00800           0
     32573 TIP3     7553     TIP3     OH2      OT      -0.834000       15.9994           0
     32574 TIP3     7553     TIP3     H1       HT       0.417000       1.00800           0
     32575 TIP3     7553     TIP3     H2       HT       0.417000       1.00800           0
     32576 TIP3     7554     TIP3     OH2      OT      -0.834000       15.9994           0
     32577 TIP3     7554     TIP3     H1       HT       0.417000       1.00800           0
     32578 TIP3     7554     TIP3     H2       HT       0.417000       1.00800           0
     32579 TIP3     7555     TIP3     OH2      OT      -0.834000       15.9994           0
     32580 TIP3     7555     TIP3     H1       HT       0.417000       1.00800           0
     32581 TIP3     7555     TIP3     H2       HT       0.417000       1.00800           0
     32582 TIP3     7556     TIP3     OH2      OT      -0.834000       15.9994           0
     32583 TIP3     7556     TIP3     H1       HT       0.417000       1.00800           0
     32584 TIP3     7556     TIP3     H2       HT       0.417000       1.00800           0
     32585 TIP3     7557     TIP3     OH2      OT      -0.834000       15.9994           0
     32586 TIP3     7557     TIP3     H1       HT       0.417000       1.00800           0
     32587 TIP3     7557     TIP3     H2       HT       0.417000       1.00800           0
     32588 TIP3     7558     TIP3     OH2      OT      -0.834000       15.9994           0
     32589 TIP3     7558     TIP3     H1       HT       0.417000       1.00800           0
     32590 TIP3     7558     TIP3     H2       HT       0.417000       1.00800           0
     32591 TIP3     7559     TIP3     OH2      OT      -0.834000       15.9994           0
     32592 TIP3     7559     TIP3     H1       HT       0.417000       1.00800           0
     32593 TIP3     7559     TIP3     H2       HT       0.417000       1.00800           0
     32594 TIP3     7560     TIP3     OH2      OT      -0.834000       15.9994           0
     32595 TIP3     7560     TIP3     H1       HT       0.417000       1.00800           0
     32596 TIP3     7560     TIP3     H2       HT       0.417000       1.00800           0
     32597 TIP3     7561     TIP3     OH2      OT      -0.834000       15.9994           0
     32598 TIP3     7561     TIP3     H1       HT       0.417000       1.00800           0
     32599 TIP3     7561     TIP3     H2       HT       0.417000       1.00800           0
     32600 TIP3     7562     TIP3     OH2      OT      -0.834000       15.9994           0
     32601 TIP3     7562     TIP3     H1       HT       0.417000       1.00800           0
     32602 TIP3     7562     TIP3     H2       HT       0.417000       1.00800           0
     32603 TIP3     7563     TIP3     OH2      OT      -0.834000       15.9994           0
     32604 TIP3     7563     TIP3     H1       HT       0.417000       1.00800           0
     32605 TIP3     7563     TIP3     H2       HT       0.417000       1.00800           0
     32606 TIP3     7564     TIP3     OH2      OT      -0.834000       15.9994           0
     32607 TIP3     7564     TIP3     H1       HT       0.417000       1.00800           0
     32608 TIP3     7564     TIP3     H2       HT       0.417000       1.00800           0
     32609 TIP3     7565     TIP3     OH2      OT      -0.834000       15.9994           0
     32610 TIP3     7565     TIP3     H1       HT       0.417000       1.00800           0
     32611 TIP3     7565     TIP3     H2       HT       0.417000       1.00800           0
     32612 TIP3     7566     TIP3     OH2      OT      -0.834000       15.9994           0
     32613 TIP3     7566     TIP3     H1       HT       0.417000       1.00800           0
     32614 TIP3     7566     TIP3     H2       HT       0.417000       1.00800           0
     32615 TIP3     7567     TIP3     OH2      OT      -0.834000       15.9994           0
     32616 TIP3     7567     TIP3     H1       HT       0.417000       1.00800           0
     32617 TIP3     7567     TIP3     H2       HT       0.417000       1.00800           0
     32618 TIP3     7568     TIP3     OH2      OT      -0.834000       15.9994           0
     32619 TIP3     7568     TIP3     H1       HT       0.417000       1.00800           0
     32620 TIP3     7568     TIP3     H2       HT       0.417000       1.00800           0
     32621 TIP3     7569     TIP3     OH2      OT      -0.834000       15.9994           0
     32622 TIP3     7569     TIP3     H1       HT       0.417000       1.00800           0
     32623 TIP3     7569     TIP3     H2       HT       0.417000       1.00800           0
     32624 TIP3     7570     TIP3     OH2      OT      -0.834000       15.9994           0
     32625 TIP3     7570     TIP3     H1       HT       0.417000       1.00800           0
     32626 TIP3     7570     TIP3     H2       HT       0.417000       1.00800           0
     32627 TIP3     7571     TIP3     OH2      OT      -0.834000       15.9994           0
     32628 TIP3     7571     TIP3     H1       HT       0.417000       1.00800           0
     32629 TIP3     7571     TIP3     H2       HT       0.417000       1.00800           0
     32630 TIP3     7572     TIP3     OH2      OT      -0.834000       15.9994           0
     32631 TIP3     7572     TIP3     H1       HT       0.417000       1.00800           0
     32632 TIP3     7572     TIP3     H2       HT       0.417000       1.00800           0
     32633 TIP3     7573     TIP3     OH2      OT      -0.834000       15.9994           0
     32634 TIP3     7573     TIP3     H1       HT       0.417000       1.00800           0
     32635 TIP3     7573     TIP3     H2       HT       0.417000       1.00800           0
     32636 TIP3     7574     TIP3     OH2      OT      -0.834000       15.9994           0
     32637 TIP3     7574     TIP3     H1       HT       0.417000       1.00800           0
     32638 TIP3     7574     TIP3     H2       HT       0.417000       1.00800           0
     32639 TIP3     7575     TIP3     OH2      OT      -0.834000       15.9994           0
     32640 TIP3     7575     TIP3     H1       HT       0.417000       1.00800           0
     32641 TIP3     7575     TIP3     H2       HT       0.417000       1.00800           0
     32642 TIP3     7576     TIP3     OH2      OT      -0.834000       15.9994           0
     32643 TIP3     7576     TIP3     H1       HT       0.417000       1.00800           0
     32644 TIP3     7576     TIP3     H2       HT       0.417000       1.00800           0
     32645 TIP3     7577     TIP3     OH2      OT      -0.834000       15.9994           0
     32646 TIP3     7577     TIP3     H1       HT       0.417000       1.00800           0
     32647 TIP3     7577     TIP3     H2       HT       0.417000       1.00800           0
     32648 TIP3     7578     TIP3     OH2      OT      -0.834000       15.9994           0
     32649 TIP3     7578     TIP3     H1       HT       0.417000       1.00800           0
     32650 TIP3     7578     TIP3     H2       HT       0.417000       1.00800           0
     32651 TIP3     7579     TIP3     OH2      OT      -0.834000       15.9994           0
     32652 TIP3     7579     TIP3     H1       HT       0.417000       1.00800           0
     32653 TIP3     7579     TIP3     H2       HT       0.417000       1.00800           0
     32654 TIP3     7580     TIP3     OH2      OT      -0.834000       15.9994           0
     32655 TIP3     7580     TIP3     H1       HT       0.417000       1.00800           0
     32656 TIP3     7580     TIP3     H2       HT       0.417000       1.00800           0
     32657 TIP3     7581     TIP3     OH2      OT      -0.834000       15.9994           0
     32658 TIP3     7581     TIP3     H1       HT       0.417000       1.00800           0
     32659 TIP3     7581     TIP3     H2       HT       0.417000       1.00800           0
     32660 TIP3     7582     TIP3     OH2      OT      -0.834000       15.9994           0
     32661 TIP3     7582     TIP3     H1       HT       0.417000       1.00800           0
     32662 TIP3     7582     TIP3     H2       HT       0.417000       1.00800           0
     32663 TIP3     7583     TIP3     OH2      OT      -0.834000       15.9994           0
     32664 TIP3     7583     TIP3     H1       HT       0.417000       1.00800           0
     32665 TIP3     7583     TIP3     H2       HT       0.417000       1.00800           0
     32666 TIP3     7584     TIP3     OH2      OT      -0.834000       15.9994           0
     32667 TIP3     7584     TIP3     H1       HT       0.417000       1.00800           0
     32668 TIP3     7584     TIP3     H2       HT       0.417000       1.00800           0
     32669 TIP3     7585     TIP3     OH2      OT      -0.834000       15.9994           0
     32670 TIP3     7585     TIP3     H1       HT       0.417000       1.00800           0
     32671 TIP3     7585     TIP3     H2       HT       0.417000       1.00800           0
     32672 TIP3     7586     TIP3     OH2      OT      -0.834000       15.9994           0
     32673 TIP3     7586     TIP3     H1       HT       0.417000       1.00800           0
     32674 TIP3     7586     TIP3     H2       HT       0.417000       1.00800           0
     32675 TIP3     7587     TIP3     OH2      OT      -0.834000       15.9994           0
     32676 TIP3     7587     TIP3     H1       HT       0.417000       1.00800           0
     32677 TIP3     7587     TIP3     H2       HT       0.417000       1.00800           0
     32678 TIP3     7588     TIP3     OH2      OT      -0.834000       15.9994           0
     32679 TIP3     7588     TIP3     H1       HT       0.417000       1.00800           0
     32680 TIP3     7588     TIP3     H2       HT       0.417000       1.00800           0
     32681 TIP3     7589     TIP3     OH2      OT      -0.834000       15.9994           0
     32682 TIP3     7589     TIP3     H1       HT       0.417000       1.00800           0
     32683 TIP3     7589     TIP3     H2       HT       0.417000       1.00800           0
     32684 TIP3     7590     TIP3     OH2      OT      -0.834000       15.9994           0
     32685 TIP3     7590     TIP3     H1       HT       0.417000       1.00800           0
     32686 TIP3     7590     TIP3     H2       HT       0.417000       1.00800           0
     32687 TIP3     7591     TIP3     OH2      OT      -0.834000       15.9994           0
     32688 TIP3     7591     TIP3     H1       HT       0.417000       1.00800           0
     32689 TIP3     7591     TIP3     H2       HT       0.417000       1.00800           0
     32690 TIP3     7592     TIP3     OH2      OT      -0.834000       15.9994           0
     32691 TIP3     7592     TIP3     H1       HT       0.417000       1.00800           0
     32692 TIP3     7592     TIP3     H2       HT       0.417000       1.00800           0
     32693 TIP3     7593     TIP3     OH2      OT      -0.834000       15.9994           0
     32694 TIP3     7593     TIP3     H1       HT       0.417000       1.00800           0
     32695 TIP3     7593     TIP3     H2       HT       0.417000       1.00800           0
     32696 TIP3     7594     TIP3     OH2      OT      -0.834000       15.9994           0
     32697 TIP3     7594     TIP3     H1       HT       0.417000       1.00800           0
     32698 TIP3     7594     TIP3     H2       HT       0.417000       1.00800           0
     32699 TIP3     7595     TIP3     OH2      OT      -0.834000       15.9994           0
     32700 TIP3     7595     TIP3     H1       HT       0.417000       1.00800           0
     32701 TIP3     7595     TIP3     H2       HT       0.417000       1.00800           0
     32702 TIP3     7596     TIP3     OH2      OT      -0.834000       15.9994           0
     32703 TIP3     7596     TIP3     H1       HT       0.417000       1.00800           0
     32704 TIP3     7596     TIP3     H2       HT       0.417000       1.00800           0
     32705 TIP3     7597     TIP3     OH2      OT      -0.834000       15.9994           0
     32706 TIP3     7597     TIP3     H1       HT       0.417000       1.00800           0
     32707 TIP3     7597     TIP3     H2       HT       0.417000       1.00800           0
     32708 TIP3     7598     TIP3     OH2      OT      -0.834000       15.9994           0
     32709 TIP3     7598     TIP3     H1       HT       0.417000       1.00800           0
     32710 TIP3     7598     TIP3     H2       HT       0.417000       1.00800           0
     32711 TIP3     7599     TIP3     OH2      OT      -0.834000       15.9994           0
     32712 TIP3     7599     TIP3     H1       HT       0.417000       1.00800           0
     32713 TIP3     7599     TIP3     H2       HT       0.417000       1.00800           0
     32714 TIP3     7600     TIP3     OH2      OT      -0.834000       15.9994           0
     32715 TIP3     7600     TIP3     H1       HT       0.417000       1.00800           0
     32716 TIP3     7600     TIP3     H2       HT       0.417000       1.00800           0
     32717 TIP3     7601     TIP3     OH2      OT      -0.834000       15.9994           0
     32718 TIP3     7601     TIP3     H1       HT       0.417000       1.00800           0
     32719 TIP3     7601     TIP3     H2       HT       0.417000       1.00800           0
     32720 TIP3     7602     TIP3     OH2      OT      -0.834000       15.9994           0
     32721 TIP3     7602     TIP3     H1       HT       0.417000       1.00800           0
     32722 TIP3     7602     TIP3     H2       HT       0.417000       1.00800           0
     32723 TIP3     7603     TIP3     OH2      OT      -0.834000       15.9994           0
     32724 TIP3     7603     TIP3     H1       HT       0.417000       1.00800           0
     32725 TIP3     7603     TIP3     H2       HT       0.417000       1.00800           0
     32726 TIP3     7604     TIP3     OH2      OT      -0.834000       15.9994           0
     32727 TIP3     7604     TIP3     H1       HT       0.417000       1.00800           0
     32728 TIP3     7604     TIP3     H2       HT       0.417000       1.00800           0
     32729 TIP3     7605     TIP3     OH2      OT      -0.834000       15.9994           0
     32730 TIP3     7605     TIP3     H1       HT       0.417000       1.00800           0
     32731 TIP3     7605     TIP3     H2       HT       0.417000       1.00800           0
     32732 TIP3     7606     TIP3     OH2      OT      -0.834000       15.9994           0
     32733 TIP3     7606     TIP3     H1       HT       0.417000       1.00800           0
     32734 TIP3     7606     TIP3     H2       HT       0.417000       1.00800           0
     32735 TIP3     7607     TIP3     OH2      OT      -0.834000       15.9994           0
     32736 TIP3     7607     TIP3     H1       HT       0.417000       1.00800           0
     32737 TIP3     7607     TIP3     H2       HT       0.417000       1.00800           0
     32738 TIP3     7608     TIP3     OH2      OT      -0.834000       15.9994           0
     32739 TIP3     7608     TIP3     H1       HT       0.417000       1.00800           0
     32740 TIP3     7608     TIP3     H2       HT       0.417000       1.00800           0
     32741 TIP3     7609     TIP3     OH2      OT      -0.834000       15.9994           0
     32742 TIP3     7609     TIP3     H1       HT       0.417000       1.00800           0
     32743 TIP3     7609     TIP3     H2       HT       0.417000       1.00800           0
     32744 TIP3     7610     TIP3     OH2      OT      -0.834000       15.9994           0
     32745 TIP3     7610     TIP3     H1       HT       0.417000       1.00800           0
     32746 TIP3     7610     TIP3     H2       HT       0.417000       1.00800           0
     32747 TIP3     7611     TIP3     OH2      OT      -0.834000       15.9994           0
     32748 TIP3     7611     TIP3     H1       HT       0.417000       1.00800           0
     32749 TIP3     7611     TIP3     H2       HT       0.417000       1.00800           0
     32750 TIP3     7612     TIP3     OH2      OT      -0.834000       15.9994           0
     32751 TIP3     7612     TIP3     H1       HT       0.417000       1.00800           0
     32752 TIP3     7612     TIP3     H2       HT       0.417000       1.00800           0
     32753 TIP3     7613     TIP3     OH2      OT      -0.834000       15.9994           0
     32754 TIP3     7613     TIP3     H1       HT       0.417000       1.00800           0
     32755 TIP3     7613     TIP3     H2       HT       0.417000       1.00800           0
     32756 TIP3     7614     TIP3     OH2      OT      -0.834000       15.9994           0
     32757 TIP3     7614     TIP3     H1       HT       0.417000       1.00800           0
     32758 TIP3     7614     TIP3     H2       HT       0.417000       1.00800           0
     32759 TIP3     7615     TIP3     OH2      OT      -0.834000       15.9994           0
     32760 TIP3     7615     TIP3     H1       HT       0.417000       1.00800           0
     32761 TIP3     7615     TIP3     H2       HT       0.417000       1.00800           0
     32762 TIP3     7616     TIP3     OH2      OT      -0.834000       15.9994           0
     32763 TIP3     7616     TIP3     H1       HT       0.417000       1.00800           0
     32764 TIP3     7616     TIP3     H2       HT       0.417000       1.00800           0
     32765 TIP3     7617     TIP3     OH2      OT      -0.834000       15.9994           0
     32766 TIP3     7617     TIP3     H1       HT       0.417000       1.00800           0
     32767 TIP3     7617     TIP3     H2       HT       0.417000       1.00800           0
     32768 TIP3     7618     TIP3     OH2      OT      -0.834000       15.9994           0
     32769 TIP3     7618     TIP3     H1       HT       0.417000       1.00800           0
     32770 TIP3     7618     TIP3     H2       HT       0.417000       1.00800           0
     32771 TIP3     7619     TIP3     OH2      OT      -0.834000       15.9994           0
     32772 TIP3     7619     TIP3     H1       HT       0.417000       1.00800           0
     32773 TIP3     7619     TIP3     H2       HT       0.417000       1.00800           0
     32774 TIP3     7620     TIP3     OH2      OT      -0.834000       15.9994           0
     32775 TIP3     7620     TIP3     H1       HT       0.417000       1.00800           0
     32776 TIP3     7620     TIP3     H2       HT       0.417000       1.00800           0
     32777 TIP3     7621     TIP3     OH2      OT      -0.834000       15.9994           0
     32778 TIP3     7621     TIP3     H1       HT       0.417000       1.00800           0
     32779 TIP3     7621     TIP3     H2       HT       0.417000       1.00800           0
     32780 TIP3     7622     TIP3     OH2      OT      -0.834000       15.9994           0
     32781 TIP3     7622     TIP3     H1       HT       0.417000       1.00800           0
     32782 TIP3     7622     TIP3     H2       HT       0.417000       1.00800           0
     32783 TIP3     7623     TIP3     OH2      OT      -0.834000       15.9994           0
     32784 TIP3     7623     TIP3     H1       HT       0.417000       1.00800           0
     32785 TIP3     7623     TIP3     H2       HT       0.417000       1.00800           0
     32786 TIP3     7624     TIP3     OH2      OT      -0.834000       15.9994           0
     32787 TIP3     7624     TIP3     H1       HT       0.417000       1.00800           0
     32788 TIP3     7624     TIP3     H2       HT       0.417000       1.00800           0
     32789 TIP3     7625     TIP3     OH2      OT      -0.834000       15.9994           0
     32790 TIP3     7625     TIP3     H1       HT       0.417000       1.00800           0
     32791 TIP3     7625     TIP3     H2       HT       0.417000       1.00800           0
     32792 TIP3     7626     TIP3     OH2      OT      -0.834000       15.9994           0
     32793 TIP3     7626     TIP3     H1       HT       0.417000       1.00800           0
     32794 TIP3     7626     TIP3     H2       HT       0.417000       1.00800           0
     32795 TIP3     7627     TIP3     OH2      OT      -0.834000       15.9994           0
     32796 TIP3     7627     TIP3     H1       HT       0.417000       1.00800           0
     32797 TIP3     7627     TIP3     H2       HT       0.417000       1.00800           0
     32798 TIP3     7628     TIP3     OH2      OT      -0.834000       15.9994           0
     32799 TIP3     7628     TIP3     H1       HT       0.417000       1.00800           0
     32800 TIP3     7628     TIP3     H2       HT       0.417000       1.00800           0
     32801 TIP3     7629     TIP3     OH2      OT      -0.834000       15.9994           0
     32802 TIP3     7629     TIP3     H1       HT       0.417000       1.00800           0
     32803 TIP3     7629     TIP3     H2       HT       0.417000       1.00800           0
     32804 TIP3     7630     TIP3     OH2      OT      -0.834000       15.9994           0
     32805 TIP3     7630     TIP3     H1       HT       0.417000       1.00800           0
     32806 TIP3     7630     TIP3     H2       HT       0.417000       1.00800           0
     32807 TIP3     7631     TIP3     OH2      OT      -0.834000       15.9994           0
     32808 TIP3     7631     TIP3     H1       HT       0.417000       1.00800           0
     32809 TIP3     7631     TIP3     H2       HT       0.417000       1.00800           0
     32810 TIP3     7632     TIP3     OH2      OT      -0.834000       15.9994           0
     32811 TIP3     7632     TIP3     H1       HT       0.417000       1.00800           0
     32812 TIP3     7632     TIP3     H2       HT       0.417000       1.00800           0
     32813 TIP3     7633     TIP3     OH2      OT      -0.834000       15.9994           0
     32814 TIP3     7633     TIP3     H1       HT       0.417000       1.00800           0
     32815 TIP3     7633     TIP3     H2       HT       0.417000       1.00800           0
     32816 TIP3     7634     TIP3     OH2      OT      -0.834000       15.9994           0
     32817 TIP3     7634     TIP3     H1       HT       0.417000       1.00800           0
     32818 TIP3     7634     TIP3     H2       HT       0.417000       1.00800           0
     32819 TIP3     7635     TIP3     OH2      OT      -0.834000       15.9994           0
     32820 TIP3     7635     TIP3     H1       HT       0.417000       1.00800           0
     32821 TIP3     7635     TIP3     H2       HT       0.417000       1.00800           0
     32822 TIP3     7636     TIP3     OH2      OT      -0.834000       15.9994           0
     32823 TIP3     7636     TIP3     H1       HT       0.417000       1.00800           0
     32824 TIP3     7636     TIP3     H2       HT       0.417000       1.00800           0
     32825 TIP3     7637     TIP3     OH2      OT      -0.834000       15.9994           0
     32826 TIP3     7637     TIP3     H1       HT       0.417000       1.00800           0
     32827 TIP3     7637     TIP3     H2       HT       0.417000       1.00800           0
     32828 TIP3     7638     TIP3     OH2      OT      -0.834000       15.9994           0
     32829 TIP3     7638     TIP3     H1       HT       0.417000       1.00800           0
     32830 TIP3     7638     TIP3     H2       HT       0.417000       1.00800           0
     32831 TIP3     7639     TIP3     OH2      OT      -0.834000       15.9994           0
     32832 TIP3     7639     TIP3     H1       HT       0.417000       1.00800           0
     32833 TIP3     7639     TIP3     H2       HT       0.417000       1.00800           0
     32834 TIP3     7640     TIP3     OH2      OT      -0.834000       15.9994           0
     32835 TIP3     7640     TIP3     H1       HT       0.417000       1.00800           0
     32836 TIP3     7640     TIP3     H2       HT       0.417000       1.00800           0
     32837 TIP3     7641     TIP3     OH2      OT      -0.834000       15.9994           0
     32838 TIP3     7641     TIP3     H1       HT       0.417000       1.00800           0
     32839 TIP3     7641     TIP3     H2       HT       0.417000       1.00800           0
     32840 TIP3     7642     TIP3     OH2      OT      -0.834000       15.9994           0
     32841 TIP3     7642     TIP3     H1       HT       0.417000       1.00800           0
     32842 TIP3     7642     TIP3     H2       HT       0.417000       1.00800           0
     32843 TIP3     7643     TIP3     OH2      OT      -0.834000       15.9994           0
     32844 TIP3     7643     TIP3     H1       HT       0.417000       1.00800           0
     32845 TIP3     7643     TIP3     H2       HT       0.417000       1.00800           0
     32846 TIP3     7644     TIP3     OH2      OT      -0.834000       15.9994           0
     32847 TIP3     7644     TIP3     H1       HT       0.417000       1.00800           0
     32848 TIP3     7644     TIP3     H2       HT       0.417000       1.00800           0
     32849 TIP3     7645     TIP3     OH2      OT      -0.834000       15.9994           0
     32850 TIP3     7645     TIP3     H1       HT       0.417000       1.00800           0
     32851 TIP3     7645     TIP3     H2       HT       0.417000       1.00800           0
     32852 TIP3     7646     TIP3     OH2      OT      -0.834000       15.9994           0
     32853 TIP3     7646     TIP3     H1       HT       0.417000       1.00800           0
     32854 TIP3     7646     TIP3     H2       HT       0.417000       1.00800           0
     32855 TIP3     7647     TIP3     OH2      OT      -0.834000       15.9994           0
     32856 TIP3     7647     TIP3     H1       HT       0.417000       1.00800           0
     32857 TIP3     7647     TIP3     H2       HT       0.417000       1.00800           0
     32858 TIP3     7648     TIP3     OH2      OT      -0.834000       15.9994           0
     32859 TIP3     7648     TIP3     H1       HT       0.417000       1.00800           0
     32860 TIP3     7648     TIP3     H2       HT       0.417000       1.00800           0
     32861 TIP3     7649     TIP3     OH2      OT      -0.834000       15.9994           0
     32862 TIP3     7649     TIP3     H1       HT       0.417000       1.00800           0
     32863 TIP3     7649     TIP3     H2       HT       0.417000       1.00800           0
     32864 TIP3     7650     TIP3     OH2      OT      -0.834000       15.9994           0
     32865 TIP3     7650     TIP3     H1       HT       0.417000       1.00800           0
     32866 TIP3     7650     TIP3     H2       HT       0.417000       1.00800           0
     32867 TIP3     7651     TIP3     OH2      OT      -0.834000       15.9994           0
     32868 TIP3     7651     TIP3     H1       HT       0.417000       1.00800           0
     32869 TIP3     7651     TIP3     H2       HT       0.417000       1.00800           0
     32870 TIP3     7652     TIP3     OH2      OT      -0.834000       15.9994           0
     32871 TIP3     7652     TIP3     H1       HT       0.417000       1.00800           0
     32872 TIP3     7652     TIP3     H2       HT       0.417000       1.00800           0
     32873 TIP3     7653     TIP3     OH2      OT      -0.834000       15.9994           0
     32874 TIP3     7653     TIP3     H1       HT       0.417000       1.00800           0
     32875 TIP3     7653     TIP3     H2       HT       0.417000       1.00800           0
     32876 TIP3     7654     TIP3     OH2      OT      -0.834000       15.9994           0
     32877 TIP3     7654     TIP3     H1       HT       0.417000       1.00800           0
     32878 TIP3     7654     TIP3     H2       HT       0.417000       1.00800           0
     32879 TIP3     7655     TIP3     OH2      OT      -0.834000       15.9994           0
     32880 TIP3     7655     TIP3     H1       HT       0.417000       1.00800           0
     32881 TIP3     7655     TIP3     H2       HT       0.417000       1.00800           0
     32882 TIP3     7656     TIP3     OH2      OT      -0.834000       15.9994           0
     32883 TIP3     7656     TIP3     H1       HT       0.417000       1.00800           0
     32884 TIP3     7656     TIP3     H2       HT       0.417000       1.00800           0
     32885 TIP3     7657     TIP3     OH2      OT      -0.834000       15.9994           0
     32886 TIP3     7657     TIP3     H1       HT       0.417000       1.00800           0
     32887 TIP3     7657     TIP3     H2       HT       0.417000       1.00800           0
     32888 TIP3     7658     TIP3     OH2      OT      -0.834000       15.9994           0
     32889 TIP3     7658     TIP3     H1       HT       0.417000       1.00800           0
     32890 TIP3     7658     TIP3     H2       HT       0.417000       1.00800           0
     32891 TIP3     7659     TIP3     OH2      OT      -0.834000       15.9994           0
     32892 TIP3     7659     TIP3     H1       HT       0.417000       1.00800           0
     32893 TIP3     7659     TIP3     H2       HT       0.417000       1.00800           0
     32894 TIP3     7660     TIP3     OH2      OT      -0.834000       15.9994           0
     32895 TIP3     7660     TIP3     H1       HT       0.417000       1.00800           0
     32896 TIP3     7660     TIP3     H2       HT       0.417000       1.00800           0
     32897 TIP3     7661     TIP3     OH2      OT      -0.834000       15.9994           0
     32898 TIP3     7661     TIP3     H1       HT       0.417000       1.00800           0
     32899 TIP3     7661     TIP3     H2       HT       0.417000       1.00800           0
     32900 TIP3     7662     TIP3     OH2      OT      -0.834000       15.9994           0
     32901 TIP3     7662     TIP3     H1       HT       0.417000       1.00800           0
     32902 TIP3     7662     TIP3     H2       HT       0.417000       1.00800           0
     32903 TIP3     7663     TIP3     OH2      OT      -0.834000       15.9994           0
     32904 TIP3     7663     TIP3     H1       HT       0.417000       1.00800           0
     32905 TIP3     7663     TIP3     H2       HT       0.417000       1.00800           0
     32906 TIP3     7664     TIP3     OH2      OT      -0.834000       15.9994           0
     32907 TIP3     7664     TIP3     H1       HT       0.417000       1.00800           0
     32908 TIP3     7664     TIP3     H2       HT       0.417000       1.00800           0
     32909 TIP3     7665     TIP3     OH2      OT      -0.834000       15.9994           0
     32910 TIP3     7665     TIP3     H1       HT       0.417000       1.00800           0
     32911 TIP3     7665     TIP3     H2       HT       0.417000       1.00800           0
     32912 TIP3     7666     TIP3     OH2      OT      -0.834000       15.9994           0
     32913 TIP3     7666     TIP3     H1       HT       0.417000       1.00800           0
     32914 TIP3     7666     TIP3     H2       HT       0.417000       1.00800           0
     32915 TIP3     7667     TIP3     OH2      OT      -0.834000       15.9994           0
     32916 TIP3     7667     TIP3     H1       HT       0.417000       1.00800           0
     32917 TIP3     7667     TIP3     H2       HT       0.417000       1.00800           0
     32918 TIP3     7668     TIP3     OH2      OT      -0.834000       15.9994           0
     32919 TIP3     7668     TIP3     H1       HT       0.417000       1.00800           0
     32920 TIP3     7668     TIP3     H2       HT       0.417000       1.00800           0
     32921 TIP3     7669     TIP3     OH2      OT      -0.834000       15.9994           0
     32922 TIP3     7669     TIP3     H1       HT       0.417000       1.00800           0
     32923 TIP3     7669     TIP3     H2       HT       0.417000       1.00800           0
     32924 TIP3     7670     TIP3     OH2      OT      -0.834000       15.9994           0
     32925 TIP3     7670     TIP3     H1       HT       0.417000       1.00800           0
     32926 TIP3     7670     TIP3     H2       HT       0.417000       1.00800           0
     32927 TIP3     7671     TIP3     OH2      OT      -0.834000       15.9994           0
     32928 TIP3     7671     TIP3     H1       HT       0.417000       1.00800           0
     32929 TIP3     7671     TIP3     H2       HT       0.417000       1.00800           0
     32930 TIP3     7672     TIP3     OH2      OT      -0.834000       15.9994           0
     32931 TIP3     7672     TIP3     H1       HT       0.417000       1.00800           0
     32932 TIP3     7672     TIP3     H2       HT       0.417000       1.00800           0
     32933 TIP3     7673     TIP3     OH2      OT      -0.834000       15.9994           0
     32934 TIP3     7673     TIP3     H1       HT       0.417000       1.00800           0
     32935 TIP3     7673     TIP3     H2       HT       0.417000       1.00800           0
     32936 TIP3     7674     TIP3     OH2      OT      -0.834000       15.9994           0
     32937 TIP3     7674     TIP3     H1       HT       0.417000       1.00800           0
     32938 TIP3     7674     TIP3     H2       HT       0.417000       1.00800           0
     32939 TIP3     7675     TIP3     OH2      OT      -0.834000       15.9994           0
     32940 TIP3     7675     TIP3     H1       HT       0.417000       1.00800           0
     32941 TIP3     7675     TIP3     H2       HT       0.417000       1.00800           0
     32942 TIP3     7676     TIP3     OH2      OT      -0.834000       15.9994           0
     32943 TIP3     7676     TIP3     H1       HT       0.417000       1.00800           0
     32944 TIP3     7676     TIP3     H2       HT       0.417000       1.00800           0
     32945 TIP3     7677     TIP3     OH2      OT      -0.834000       15.9994           0
     32946 TIP3     7677     TIP3     H1       HT       0.417000       1.00800           0
     32947 TIP3     7677     TIP3     H2       HT       0.417000       1.00800           0
     32948 TIP3     7678     TIP3     OH2      OT      -0.834000       15.9994           0
     32949 TIP3     7678     TIP3     H1       HT       0.417000       1.00800           0
     32950 TIP3     7678     TIP3     H2       HT       0.417000       1.00800           0
     32951 TIP3     7679     TIP3     OH2      OT      -0.834000       15.9994           0
     32952 TIP3     7679     TIP3     H1       HT       0.417000       1.00800           0
     32953 TIP3     7679     TIP3     H2       HT       0.417000       1.00800           0
     32954 TIP3     7680     TIP3     OH2      OT      -0.834000       15.9994           0
     32955 TIP3     7680     TIP3     H1       HT       0.417000       1.00800           0
     32956 TIP3     7680     TIP3     H2       HT       0.417000       1.00800           0
     32957 TIP3     7681     TIP3     OH2      OT      -0.834000       15.9994           0
     32958 TIP3     7681     TIP3     H1       HT       0.417000       1.00800           0
     32959 TIP3     7681     TIP3     H2       HT       0.417000       1.00800           0
     32960 TIP3     7682     TIP3     OH2      OT      -0.834000       15.9994           0
     32961 TIP3     7682     TIP3     H1       HT       0.417000       1.00800           0
     32962 TIP3     7682     TIP3     H2       HT       0.417000       1.00800           0
     32963 TIP3     7683     TIP3     OH2      OT      -0.834000       15.9994           0
     32964 TIP3     7683     TIP3     H1       HT       0.417000       1.00800           0
     32965 TIP3     7683     TIP3     H2       HT       0.417000       1.00800           0
     32966 TIP3     7684     TIP3     OH2      OT      -0.834000       15.9994           0
     32967 TIP3     7684     TIP3     H1       HT       0.417000       1.00800           0
     32968 TIP3     7684     TIP3     H2       HT       0.417000       1.00800           0
     32969 TIP3     7685     TIP3     OH2      OT      -0.834000       15.9994           0
     32970 TIP3     7685     TIP3     H1       HT       0.417000       1.00800           0
     32971 TIP3     7685     TIP3     H2       HT       0.417000       1.00800           0
     32972 TIP3     7686     TIP3     OH2      OT      -0.834000       15.9994           0
     32973 TIP3     7686     TIP3     H1       HT       0.417000       1.00800           0
     32974 TIP3     7686     TIP3     H2       HT       0.417000       1.00800           0
     32975 TIP3     7687     TIP3     OH2      OT      -0.834000       15.9994           0
     32976 TIP3     7687     TIP3     H1       HT       0.417000       1.00800           0
     32977 TIP3     7687     TIP3     H2       HT       0.417000       1.00800           0
     32978 TIP3     7688     TIP3     OH2      OT      -0.834000       15.9994           0
     32979 TIP3     7688     TIP3     H1       HT       0.417000       1.00800           0
     32980 TIP3     7688     TIP3     H2       HT       0.417000       1.00800           0
     32981 TIP3     7689     TIP3     OH2      OT      -0.834000       15.9994           0
     32982 TIP3     7689     TIP3     H1       HT       0.417000       1.00800           0
     32983 TIP3     7689     TIP3     H2       HT       0.417000       1.00800           0
     32984 TIP3     7690     TIP3     OH2      OT      -0.834000       15.9994           0
     32985 TIP3     7690     TIP3     H1       HT       0.417000       1.00800           0
     32986 TIP3     7690     TIP3     H2       HT       0.417000       1.00800           0
     32987 TIP3     7691     TIP3     OH2      OT      -0.834000       15.9994           0
     32988 TIP3     7691     TIP3     H1       HT       0.417000       1.00800           0
     32989 TIP3     7691     TIP3     H2       HT       0.417000       1.00800           0
     32990 TIP3     7692     TIP3     OH2      OT      -0.834000       15.9994           0
     32991 TIP3     7692     TIP3     H1       HT       0.417000       1.00800           0
     32992 TIP3     7692     TIP3     H2       HT       0.417000       1.00800           0
     32993 TIP3     7693     TIP3     OH2      OT      -0.834000       15.9994           0
     32994 TIP3     7693     TIP3     H1       HT       0.417000       1.00800           0
     32995 TIP3     7693     TIP3     H2       HT       0.417000       1.00800           0
     32996 TIP3     7694     TIP3     OH2      OT      -0.834000       15.9994           0
     32997 TIP3     7694     TIP3     H1       HT       0.417000       1.00800           0
     32998 TIP3     7694     TIP3     H2       HT       0.417000       1.00800           0
     32999 TIP3     7695     TIP3     OH2      OT      -0.834000       15.9994           0
     33000 TIP3     7695     TIP3     H1       HT       0.417000       1.00800           0
     33001 TIP3     7695     TIP3     H2       HT       0.417000       1.00800           0
     33002 TIP3     7696     TIP3     OH2      OT      -0.834000       15.9994           0
     33003 TIP3     7696     TIP3     H1       HT       0.417000       1.00800           0
     33004 TIP3     7696     TIP3     H2       HT       0.417000       1.00800           0
     33005 TIP3     7697     TIP3     OH2      OT      -0.834000       15.9994           0
     33006 TIP3     7697     TIP3     H1       HT       0.417000       1.00800           0
     33007 TIP3     7697     TIP3     H2       HT       0.417000       1.00800           0
     33008 TIP3     7698     TIP3     OH2      OT      -0.834000       15.9994           0
     33009 TIP3     7698     TIP3     H1       HT       0.417000       1.00800           0
     33010 TIP3     7698     TIP3     H2       HT       0.417000       1.00800           0
     33011 TIP3     7699     TIP3     OH2      OT      -0.834000       15.9994           0
     33012 TIP3     7699     TIP3     H1       HT       0.417000       1.00800           0
     33013 TIP3     7699     TIP3     H2       HT       0.417000       1.00800           0
     33014 TIP3     7700     TIP3     OH2      OT      -0.834000       15.9994           0
     33015 TIP3     7700     TIP3     H1       HT       0.417000       1.00800           0
     33016 TIP3     7700     TIP3     H2       HT       0.417000       1.00800           0
     33017 TIP3     7701     TIP3     OH2      OT      -0.834000       15.9994           0
     33018 TIP3     7701     TIP3     H1       HT       0.417000       1.00800           0
     33019 TIP3     7701     TIP3     H2       HT       0.417000       1.00800           0
     33020 TIP3     7702     TIP3     OH2      OT      -0.834000       15.9994           0
     33021 TIP3     7702     TIP3     H1       HT       0.417000       1.00800           0
     33022 TIP3     7702     TIP3     H2       HT       0.417000       1.00800           0
     33023 TIP3     7703     TIP3     OH2      OT      -0.834000       15.9994           0
     33024 TIP3     7703     TIP3     H1       HT       0.417000       1.00800           0
     33025 TIP3     7703     TIP3     H2       HT       0.417000       1.00800           0
     33026 TIP3     7704     TIP3     OH2      OT      -0.834000       15.9994           0
     33027 TIP3     7704     TIP3     H1       HT       0.417000       1.00800           0
     33028 TIP3     7704     TIP3     H2       HT       0.417000       1.00800           0
     33029 TIP3     7705     TIP3     OH2      OT      -0.834000       15.9994           0
     33030 TIP3     7705     TIP3     H1       HT       0.417000       1.00800           0
     33031 TIP3     7705     TIP3     H2       HT       0.417000       1.00800           0
     33032 TIP3     7706     TIP3     OH2      OT      -0.834000       15.9994           0
     33033 TIP3     7706     TIP3     H1       HT       0.417000       1.00800           0
     33034 TIP3     7706     TIP3     H2       HT       0.417000       1.00800           0
     33035 TIP3     7707     TIP3     OH2      OT      -0.834000       15.9994           0
     33036 TIP3     7707     TIP3     H1       HT       0.417000       1.00800           0
     33037 TIP3     7707     TIP3     H2       HT       0.417000       1.00800           0
     33038 TIP3     7708     TIP3     OH2      OT      -0.834000       15.9994           0
     33039 TIP3     7708     TIP3     H1       HT       0.417000       1.00800           0
     33040 TIP3     7708     TIP3     H2       HT       0.417000       1.00800           0
     33041 TIP3     7709     TIP3     OH2      OT      -0.834000       15.9994           0
     33042 TIP3     7709     TIP3     H1       HT       0.417000       1.00800           0
     33043 TIP3     7709     TIP3     H2       HT       0.417000       1.00800           0
     33044 TIP3     7710     TIP3     OH2      OT      -0.834000       15.9994           0
     33045 TIP3     7710     TIP3     H1       HT       0.417000       1.00800           0
     33046 TIP3     7710     TIP3     H2       HT       0.417000       1.00800           0
     33047 TIP3     7711     TIP3     OH2      OT      -0.834000       15.9994           0
     33048 TIP3     7711     TIP3     H1       HT       0.417000       1.00800           0
     33049 TIP3     7711     TIP3     H2       HT       0.417000       1.00800           0
     33050 TIP3     7712     TIP3     OH2      OT      -0.834000       15.9994           0
     33051 TIP3     7712     TIP3     H1       HT       0.417000       1.00800           0
     33052 TIP3     7712     TIP3     H2       HT       0.417000       1.00800           0
     33053 TIP3     7713     TIP3     OH2      OT      -0.834000       15.9994           0
     33054 TIP3     7713     TIP3     H1       HT       0.417000       1.00800           0
     33055 TIP3     7713     TIP3     H2       HT       0.417000       1.00800           0
     33056 TIP3     7714     TIP3     OH2      OT      -0.834000       15.9994           0
     33057 TIP3     7714     TIP3     H1       HT       0.417000       1.00800           0
     33058 TIP3     7714     TIP3     H2       HT       0.417000       1.00800           0
     33059 TIP3     7715     TIP3     OH2      OT      -0.834000       15.9994           0
     33060 TIP3     7715     TIP3     H1       HT       0.417000       1.00800           0
     33061 TIP3     7715     TIP3     H2       HT       0.417000       1.00800           0
     33062 TIP3     7716     TIP3     OH2      OT      -0.834000       15.9994           0
     33063 TIP3     7716     TIP3     H1       HT       0.417000       1.00800           0
     33064 TIP3     7716     TIP3     H2       HT       0.417000       1.00800           0
     33065 TIP3     7717     TIP3     OH2      OT      -0.834000       15.9994           0
     33066 TIP3     7717     TIP3     H1       HT       0.417000       1.00800           0
     33067 TIP3     7717     TIP3     H2       HT       0.417000       1.00800           0
     33068 TIP3     7718     TIP3     OH2      OT      -0.834000       15.9994           0
     33069 TIP3     7718     TIP3     H1       HT       0.417000       1.00800           0
     33070 TIP3     7718     TIP3     H2       HT       0.417000       1.00800           0
     33071 TIP3     7719     TIP3     OH2      OT      -0.834000       15.9994           0
     33072 TIP3     7719     TIP3     H1       HT       0.417000       1.00800           0
     33073 TIP3     7719     TIP3     H2       HT       0.417000       1.00800           0
     33074 TIP3     7720     TIP3     OH2      OT      -0.834000       15.9994           0
     33075 TIP3     7720     TIP3     H1       HT       0.417000       1.00800           0
     33076 TIP3     7720     TIP3     H2       HT       0.417000       1.00800           0
     33077 TIP3     7721     TIP3     OH2      OT      -0.834000       15.9994           0
     33078 TIP3     7721     TIP3     H1       HT       0.417000       1.00800           0
     33079 TIP3     7721     TIP3     H2       HT       0.417000       1.00800           0
     33080 TIP3     7722     TIP3     OH2      OT      -0.834000       15.9994           0
     33081 TIP3     7722     TIP3     H1       HT       0.417000       1.00800           0
     33082 TIP3     7722     TIP3     H2       HT       0.417000       1.00800           0
     33083 TIP3     7723     TIP3     OH2      OT      -0.834000       15.9994           0
     33084 TIP3     7723     TIP3     H1       HT       0.417000       1.00800           0
     33085 TIP3     7723     TIP3     H2       HT       0.417000       1.00800           0
     33086 TIP3     7724     TIP3     OH2      OT      -0.834000       15.9994           0
     33087 TIP3     7724     TIP3     H1       HT       0.417000       1.00800           0
     33088 TIP3     7724     TIP3     H2       HT       0.417000       1.00800           0
     33089 TIP3     7725     TIP3     OH2      OT      -0.834000       15.9994           0
     33090 TIP3     7725     TIP3     H1       HT       0.417000       1.00800           0
     33091 TIP3     7725     TIP3     H2       HT       0.417000       1.00800           0
     33092 TIP3     7726     TIP3     OH2      OT      -0.834000       15.9994           0
     33093 TIP3     7726     TIP3     H1       HT       0.417000       1.00800           0
     33094 TIP3     7726     TIP3     H2       HT       0.417000       1.00800           0
     33095 TIP3     7727     TIP3     OH2      OT      -0.834000       15.9994           0
     33096 TIP3     7727     TIP3     H1       HT       0.417000       1.00800           0
     33097 TIP3     7727     TIP3     H2       HT       0.417000       1.00800           0
     33098 TIP3     7728     TIP3     OH2      OT      -0.834000       15.9994           0
     33099 TIP3     7728     TIP3     H1       HT       0.417000       1.00800           0
     33100 TIP3     7728     TIP3     H2       HT       0.417000       1.00800           0
     33101 TIP3     7729     TIP3     OH2      OT      -0.834000       15.9994           0
     33102 TIP3     7729     TIP3     H1       HT       0.417000       1.00800           0
     33103 TIP3     7729     TIP3     H2       HT       0.417000       1.00800           0
     33104 TIP3     7730     TIP3     OH2      OT      -0.834000       15.9994           0
     33105 TIP3     7730     TIP3     H1       HT       0.417000       1.00800           0
     33106 TIP3     7730     TIP3     H2       HT       0.417000       1.00800           0
     33107 TIP3     7731     TIP3     OH2      OT      -0.834000       15.9994           0
     33108 TIP3     7731     TIP3     H1       HT       0.417000       1.00800           0
     33109 TIP3     7731     TIP3     H2       HT       0.417000       1.00800           0
     33110 TIP3     7732     TIP3     OH2      OT      -0.834000       15.9994           0
     33111 TIP3     7732     TIP3     H1       HT       0.417000       1.00800           0
     33112 TIP3     7732     TIP3     H2       HT       0.417000       1.00800           0
     33113 TIP3     7733     TIP3     OH2      OT      -0.834000       15.9994           0
     33114 TIP3     7733     TIP3     H1       HT       0.417000       1.00800           0
     33115 TIP3     7733     TIP3     H2       HT       0.417000       1.00800           0
     33116 TIP3     7734     TIP3     OH2      OT      -0.834000       15.9994           0
     33117 TIP3     7734     TIP3     H1       HT       0.417000       1.00800           0
     33118 TIP3     7734     TIP3     H2       HT       0.417000       1.00800           0
     33119 TIP3     7735     TIP3     OH2      OT      -0.834000       15.9994           0
     33120 TIP3     7735     TIP3     H1       HT       0.417000       1.00800           0
     33121 TIP3     7735     TIP3     H2       HT       0.417000       1.00800           0
     33122 TIP3     7736     TIP3     OH2      OT      -0.834000       15.9994           0
     33123 TIP3     7736     TIP3     H1       HT       0.417000       1.00800           0
     33124 TIP3     7736     TIP3     H2       HT       0.417000       1.00800           0
     33125 TIP3     7737     TIP3     OH2      OT      -0.834000       15.9994           0
     33126 TIP3     7737     TIP3     H1       HT       0.417000       1.00800           0
     33127 TIP3     7737     TIP3     H2       HT       0.417000       1.00800           0
     33128 TIP3     7738     TIP3     OH2      OT      -0.834000       15.9994           0
     33129 TIP3     7738     TIP3     H1       HT       0.417000       1.00800           0
     33130 TIP3     7738     TIP3     H2       HT       0.417000       1.00800           0
     33131 TIP3     7739     TIP3     OH2      OT      -0.834000       15.9994           0
     33132 TIP3     7739     TIP3     H1       HT       0.417000       1.00800           0
     33133 TIP3     7739     TIP3     H2       HT       0.417000       1.00800           0
     33134 TIP3     7740     TIP3     OH2      OT      -0.834000       15.9994           0
     33135 TIP3     7740     TIP3     H1       HT       0.417000       1.00800           0
     33136 TIP3     7740     TIP3     H2       HT       0.417000       1.00800           0
     33137 TIP3     7741     TIP3     OH2      OT      -0.834000       15.9994           0
     33138 TIP3     7741     TIP3     H1       HT       0.417000       1.00800           0
     33139 TIP3     7741     TIP3     H2       HT       0.417000       1.00800           0
     33140 TIP3     7742     TIP3     OH2      OT      -0.834000       15.9994           0
     33141 TIP3     7742     TIP3     H1       HT       0.417000       1.00800           0
     33142 TIP3     7742     TIP3     H2       HT       0.417000       1.00800           0
     33143 TIP3     7743     TIP3     OH2      OT      -0.834000       15.9994           0
     33144 TIP3     7743     TIP3     H1       HT       0.417000       1.00800           0
     33145 TIP3     7743     TIP3     H2       HT       0.417000       1.00800           0
     33146 TIP3     7744     TIP3     OH2      OT      -0.834000       15.9994           0
     33147 TIP3     7744     TIP3     H1       HT       0.417000       1.00800           0
     33148 TIP3     7744     TIP3     H2       HT       0.417000       1.00800           0
     33149 TIP3     7745     TIP3     OH2      OT      -0.834000       15.9994           0
     33150 TIP3     7745     TIP3     H1       HT       0.417000       1.00800           0
     33151 TIP3     7745     TIP3     H2       HT       0.417000       1.00800           0
     33152 TIP3     7746     TIP3     OH2      OT      -0.834000       15.9994           0
     33153 TIP3     7746     TIP3     H1       HT       0.417000       1.00800           0
     33154 TIP3     7746     TIP3     H2       HT       0.417000       1.00800           0
     33155 TIP3     7747     TIP3     OH2      OT      -0.834000       15.9994           0
     33156 TIP3     7747     TIP3     H1       HT       0.417000       1.00800           0
     33157 TIP3     7747     TIP3     H2       HT       0.417000       1.00800           0
     33158 TIP3     7748     TIP3     OH2      OT      -0.834000       15.9994           0
     33159 TIP3     7748     TIP3     H1       HT       0.417000       1.00800           0
     33160 TIP3     7748     TIP3     H2       HT       0.417000       1.00800           0
     33161 TIP3     7749     TIP3     OH2      OT      -0.834000       15.9994           0
     33162 TIP3     7749     TIP3     H1       HT       0.417000       1.00800           0
     33163 TIP3     7749     TIP3     H2       HT       0.417000       1.00800           0
     33164 TIP3     7750     TIP3     OH2      OT      -0.834000       15.9994           0
     33165 TIP3     7750     TIP3     H1       HT       0.417000       1.00800           0
     33166 TIP3     7750     TIP3     H2       HT       0.417000       1.00800           0
     33167 TIP3     7751     TIP3     OH2      OT      -0.834000       15.9994           0
     33168 TIP3     7751     TIP3     H1       HT       0.417000       1.00800           0
     33169 TIP3     7751     TIP3     H2       HT       0.417000       1.00800           0
     33170 TIP3     7752     TIP3     OH2      OT      -0.834000       15.9994           0
     33171 TIP3     7752     TIP3     H1       HT       0.417000       1.00800           0
     33172 TIP3     7752     TIP3     H2       HT       0.417000       1.00800           0
     33173 TIP3     7753     TIP3     OH2      OT      -0.834000       15.9994           0
     33174 TIP3     7753     TIP3     H1       HT       0.417000       1.00800           0
     33175 TIP3     7753     TIP3     H2       HT       0.417000       1.00800           0
     33176 TIP3     7754     TIP3     OH2      OT      -0.834000       15.9994           0
     33177 TIP3     7754     TIP3     H1       HT       0.417000       1.00800           0
     33178 TIP3     7754     TIP3     H2       HT       0.417000       1.00800           0
     33179 TIP3     7755     TIP3     OH2      OT      -0.834000       15.9994           0
     33180 TIP3     7755     TIP3     H1       HT       0.417000       1.00800           0
     33181 TIP3     7755     TIP3     H2       HT       0.417000       1.00800           0
     33182 TIP3     7756     TIP3     OH2      OT      -0.834000       15.9994           0
     33183 TIP3     7756     TIP3     H1       HT       0.417000       1.00800           0
     33184 TIP3     7756     TIP3     H2       HT       0.417000       1.00800           0
     33185 TIP3     7757     TIP3     OH2      OT      -0.834000       15.9994           0
     33186 TIP3     7757     TIP3     H1       HT       0.417000       1.00800           0
     33187 TIP3     7757     TIP3     H2       HT       0.417000       1.00800           0
     33188 TIP3     7758     TIP3     OH2      OT      -0.834000       15.9994           0
     33189 TIP3     7758     TIP3     H1       HT       0.417000       1.00800           0
     33190 TIP3     7758     TIP3     H2       HT       0.417000       1.00800           0
     33191 TIP3     7759     TIP3     OH2      OT      -0.834000       15.9994           0
     33192 TIP3     7759     TIP3     H1       HT       0.417000       1.00800           0
     33193 TIP3     7759     TIP3     H2       HT       0.417000       1.00800           0
     33194 TIP3     7760     TIP3     OH2      OT      -0.834000       15.9994           0
     33195 TIP3     7760     TIP3     H1       HT       0.417000       1.00800           0
     33196 TIP3     7760     TIP3     H2       HT       0.417000       1.00800           0
     33197 TIP3     7761     TIP3     OH2      OT      -0.834000       15.9994           0
     33198 TIP3     7761     TIP3     H1       HT       0.417000       1.00800           0
     33199 TIP3     7761     TIP3     H2       HT       0.417000       1.00800           0
     33200 TIP3     7762     TIP3     OH2      OT      -0.834000       15.9994           0
     33201 TIP3     7762     TIP3     H1       HT       0.417000       1.00800           0
     33202 TIP3     7762     TIP3     H2       HT       0.417000       1.00800           0
     33203 TIP3     7763     TIP3     OH2      OT      -0.834000       15.9994           0
     33204 TIP3     7763     TIP3     H1       HT       0.417000       1.00800           0
     33205 TIP3     7763     TIP3     H2       HT       0.417000       1.00800           0
     33206 TIP3     7764     TIP3     OH2      OT      -0.834000       15.9994           0
     33207 TIP3     7764     TIP3     H1       HT       0.417000       1.00800           0
     33208 TIP3     7764     TIP3     H2       HT       0.417000       1.00800           0
     33209 TIP3     7765     TIP3     OH2      OT      -0.834000       15.9994           0
     33210 TIP3     7765     TIP3     H1       HT       0.417000       1.00800           0
     33211 TIP3     7765     TIP3     H2       HT       0.417000       1.00800           0
     33212 TIP3     7766     TIP3     OH2      OT      -0.834000       15.9994           0
     33213 TIP3     7766     TIP3     H1       HT       0.417000       1.00800           0
     33214 TIP3     7766     TIP3     H2       HT       0.417000       1.00800           0
     33215 TIP3     7767     TIP3     OH2      OT      -0.834000       15.9994           0
     33216 TIP3     7767     TIP3     H1       HT       0.417000       1.00800           0
     33217 TIP3     7767     TIP3     H2       HT       0.417000       1.00800           0
     33218 TIP3     7768     TIP3     OH2      OT      -0.834000       15.9994           0
     33219 TIP3     7768     TIP3     H1       HT       0.417000       1.00800           0
     33220 TIP3     7768     TIP3     H2       HT       0.417000       1.00800           0
     33221 TIP3     7769     TIP3     OH2      OT      -0.834000       15.9994           0
     33222 TIP3     7769     TIP3     H1       HT       0.417000       1.00800           0
     33223 TIP3     7769     TIP3     H2       HT       0.417000       1.00800           0
     33224 TIP3     7770     TIP3     OH2      OT      -0.834000       15.9994           0
     33225 TIP3     7770     TIP3     H1       HT       0.417000       1.00800           0
     33226 TIP3     7770     TIP3     H2       HT       0.417000       1.00800           0
     33227 TIP3     7771     TIP3     OH2      OT      -0.834000       15.9994           0
     33228 TIP3     7771     TIP3     H1       HT       0.417000       1.00800           0
     33229 TIP3     7771     TIP3     H2       HT       0.417000       1.00800           0
     33230 TIP3     7772     TIP3     OH2      OT      -0.834000       15.9994           0
     33231 TIP3     7772     TIP3     H1       HT       0.417000       1.00800           0
     33232 TIP3     7772     TIP3     H2       HT       0.417000       1.00800           0
     33233 TIP3     7773     TIP3     OH2      OT      -0.834000       15.9994           0
     33234 TIP3     7773     TIP3     H1       HT       0.417000       1.00800           0
     33235 TIP3     7773     TIP3     H2       HT       0.417000       1.00800           0
     33236 TIP3     7774     TIP3     OH2      OT      -0.834000       15.9994           0
     33237 TIP3     7774     TIP3     H1       HT       0.417000       1.00800           0
     33238 TIP3     7774     TIP3     H2       HT       0.417000       1.00800           0
     33239 TIP3     7775     TIP3     OH2      OT      -0.834000       15.9994           0
     33240 TIP3     7775     TIP3     H1       HT       0.417000       1.00800           0
     33241 TIP3     7775     TIP3     H2       HT       0.417000       1.00800           0
     33242 TIP3     7776     TIP3     OH2      OT      -0.834000       15.9994           0
     33243 TIP3     7776     TIP3     H1       HT       0.417000       1.00800           0
     33244 TIP3     7776     TIP3     H2       HT       0.417000       1.00800           0
     33245 TIP3     7777     TIP3     OH2      OT      -0.834000       15.9994           0
     33246 TIP3     7777     TIP3     H1       HT       0.417000       1.00800           0
     33247 TIP3     7777     TIP3     H2       HT       0.417000       1.00800           0
     33248 TIP3     7778     TIP3     OH2      OT      -0.834000       15.9994           0
     33249 TIP3     7778     TIP3     H1       HT       0.417000       1.00800           0
     33250 TIP3     7778     TIP3     H2       HT       0.417000       1.00800           0
     33251 TIP3     7779     TIP3     OH2      OT      -0.834000       15.9994           0
     33252 TIP3     7779     TIP3     H1       HT       0.417000       1.00800           0
     33253 TIP3     7779     TIP3     H2       HT       0.417000       1.00800           0
     33254 TIP3     7780     TIP3     OH2      OT      -0.834000       15.9994           0
     33255 TIP3     7780     TIP3     H1       HT       0.417000       1.00800           0
     33256 TIP3     7780     TIP3     H2       HT       0.417000       1.00800           0
     33257 TIP3     7781     TIP3     OH2      OT      -0.834000       15.9994           0
     33258 TIP3     7781     TIP3     H1       HT       0.417000       1.00800           0
     33259 TIP3     7781     TIP3     H2       HT       0.417000       1.00800           0
     33260 TIP3     7782     TIP3     OH2      OT      -0.834000       15.9994           0
     33261 TIP3     7782     TIP3     H1       HT       0.417000       1.00800           0
     33262 TIP3     7782     TIP3     H2       HT       0.417000       1.00800           0
     33263 TIP3     7783     TIP3     OH2      OT      -0.834000       15.9994           0
     33264 TIP3     7783     TIP3     H1       HT       0.417000       1.00800           0
     33265 TIP3     7783     TIP3     H2       HT       0.417000       1.00800           0
     33266 TIP3     7784     TIP3     OH2      OT      -0.834000       15.9994           0
     33267 TIP3     7784     TIP3     H1       HT       0.417000       1.00800           0
     33268 TIP3     7784     TIP3     H2       HT       0.417000       1.00800           0
     33269 TIP3     7785     TIP3     OH2      OT      -0.834000       15.9994           0
     33270 TIP3     7785     TIP3     H1       HT       0.417000       1.00800           0
     33271 TIP3     7785     TIP3     H2       HT       0.417000       1.00800           0
     33272 TIP3     7786     TIP3     OH2      OT      -0.834000       15.9994           0
     33273 TIP3     7786     TIP3     H1       HT       0.417000       1.00800           0
     33274 TIP3     7786     TIP3     H2       HT       0.417000       1.00800           0
     33275 TIP3     7787     TIP3     OH2      OT      -0.834000       15.9994           0
     33276 TIP3     7787     TIP3     H1       HT       0.417000       1.00800           0
     33277 TIP3     7787     TIP3     H2       HT       0.417000       1.00800           0
     33278 TIP3     7788     TIP3     OH2      OT      -0.834000       15.9994           0
     33279 TIP3     7788     TIP3     H1       HT       0.417000       1.00800           0
     33280 TIP3     7788     TIP3     H2       HT       0.417000       1.00800           0
     33281 TIP3     7789     TIP3     OH2      OT      -0.834000       15.9994           0
     33282 TIP3     7789     TIP3     H1       HT       0.417000       1.00800           0
     33283 TIP3     7789     TIP3     H2       HT       0.417000       1.00800           0
     33284 TIP3     7790     TIP3     OH2      OT      -0.834000       15.9994           0
     33285 TIP3     7790     TIP3     H1       HT       0.417000       1.00800           0
     33286 TIP3     7790     TIP3     H2       HT       0.417000       1.00800           0
     33287 TIP3     7791     TIP3     OH2      OT      -0.834000       15.9994           0
     33288 TIP3     7791     TIP3     H1       HT       0.417000       1.00800           0
     33289 TIP3     7791     TIP3     H2       HT       0.417000       1.00800           0
     33290 TIP3     7792     TIP3     OH2      OT      -0.834000       15.9994           0
     33291 TIP3     7792     TIP3     H1       HT       0.417000       1.00800           0
     33292 TIP3     7792     TIP3     H2       HT       0.417000       1.00800           0
     33293 TIP3     7793     TIP3     OH2      OT      -0.834000       15.9994           0
     33294 TIP3     7793     TIP3     H1       HT       0.417000       1.00800           0
     33295 TIP3     7793     TIP3     H2       HT       0.417000       1.00800           0
     33296 TIP3     7794     TIP3     OH2      OT      -0.834000       15.9994           0
     33297 TIP3     7794     TIP3     H1       HT       0.417000       1.00800           0
     33298 TIP3     7794     TIP3     H2       HT       0.417000       1.00800           0
     33299 TIP3     7795     TIP3     OH2      OT      -0.834000       15.9994           0
     33300 TIP3     7795     TIP3     H1       HT       0.417000       1.00800           0
     33301 TIP3     7795     TIP3     H2       HT       0.417000       1.00800           0
     33302 TIP3     7796     TIP3     OH2      OT      -0.834000       15.9994           0
     33303 TIP3     7796     TIP3     H1       HT       0.417000       1.00800           0
     33304 TIP3     7796     TIP3     H2       HT       0.417000       1.00800           0
     33305 TIP3     7797     TIP3     OH2      OT      -0.834000       15.9994           0
     33306 TIP3     7797     TIP3     H1       HT       0.417000       1.00800           0
     33307 TIP3     7797     TIP3     H2       HT       0.417000       1.00800           0
     33308 TIP3     7798     TIP3     OH2      OT      -0.834000       15.9994           0
     33309 TIP3     7798     TIP3     H1       HT       0.417000       1.00800           0
     33310 TIP3     7798     TIP3     H2       HT       0.417000       1.00800           0
     33311 TIP3     7799     TIP3     OH2      OT      -0.834000       15.9994           0
     33312 TIP3     7799     TIP3     H1       HT       0.417000       1.00800           0
     33313 TIP3     7799     TIP3     H2       HT       0.417000       1.00800           0
     33314 TIP3     7800     TIP3     OH2      OT      -0.834000       15.9994           0
     33315 TIP3     7800     TIP3     H1       HT       0.417000       1.00800           0
     33316 TIP3     7800     TIP3     H2       HT       0.417000       1.00800           0
     33317 TIP3     7801     TIP3     OH2      OT      -0.834000       15.9994           0
     33318 TIP3     7801     TIP3     H1       HT       0.417000       1.00800           0
     33319 TIP3     7801     TIP3     H2       HT       0.417000       1.00800           0
     33320 TIP3     7802     TIP3     OH2      OT      -0.834000       15.9994           0
     33321 TIP3     7802     TIP3     H1       HT       0.417000       1.00800           0
     33322 TIP3     7802     TIP3     H2       HT       0.417000       1.00800           0
     33323 TIP3     7803     TIP3     OH2      OT      -0.834000       15.9994           0
     33324 TIP3     7803     TIP3     H1       HT       0.417000       1.00800           0
     33325 TIP3     7803     TIP3     H2       HT       0.417000       1.00800           0
     33326 TIP3     7804     TIP3     OH2      OT      -0.834000       15.9994           0
     33327 TIP3     7804     TIP3     H1       HT       0.417000       1.00800           0
     33328 TIP3     7804     TIP3     H2       HT       0.417000       1.00800           0
     33329 TIP3     7805     TIP3     OH2      OT      -0.834000       15.9994           0
     33330 TIP3     7805     TIP3     H1       HT       0.417000       1.00800           0
     33331 TIP3     7805     TIP3     H2       HT       0.417000       1.00800           0
     33332 TIP3     7806     TIP3     OH2      OT      -0.834000       15.9994           0
     33333 TIP3     7806     TIP3     H1       HT       0.417000       1.00800           0
     33334 TIP3     7806     TIP3     H2       HT       0.417000       1.00800           0
     33335 TIP3     7807     TIP3     OH2      OT      -0.834000       15.9994           0
     33336 TIP3     7807     TIP3     H1       HT       0.417000       1.00800           0
     33337 TIP3     7807     TIP3     H2       HT       0.417000       1.00800           0
     33338 TIP3     7808     TIP3     OH2      OT      -0.834000       15.9994           0
     33339 TIP3     7808     TIP3     H1       HT       0.417000       1.00800           0
     33340 TIP3     7808     TIP3     H2       HT       0.417000       1.00800           0
     33341 TIP3     7809     TIP3     OH2      OT      -0.834000       15.9994           0
     33342 TIP3     7809     TIP3     H1       HT       0.417000       1.00800           0
     33343 TIP3     7809     TIP3     H2       HT       0.417000       1.00800           0
     33344 TIP3     7810     TIP3     OH2      OT      -0.834000       15.9994           0
     33345 TIP3     7810     TIP3     H1       HT       0.417000       1.00800           0
     33346 TIP3     7810     TIP3     H2       HT       0.417000       1.00800           0
     33347 TIP3     7811     TIP3     OH2      OT      -0.834000       15.9994           0
     33348 TIP3     7811     TIP3     H1       HT       0.417000       1.00800           0
     33349 TIP3     7811     TIP3     H2       HT       0.417000       1.00800           0
     33350 TIP3     7812     TIP3     OH2      OT      -0.834000       15.9994           0
     33351 TIP3     7812     TIP3     H1       HT       0.417000       1.00800           0
     33352 TIP3     7812     TIP3     H2       HT       0.417000       1.00800           0
     33353 TIP3     7813     TIP3     OH2      OT      -0.834000       15.9994           0
     33354 TIP3     7813     TIP3     H1       HT       0.417000       1.00800           0
     33355 TIP3     7813     TIP3     H2       HT       0.417000       1.00800           0
     33356 TIP3     7814     TIP3     OH2      OT      -0.834000       15.9994           0
     33357 TIP3     7814     TIP3     H1       HT       0.417000       1.00800           0
     33358 TIP3     7814     TIP3     H2       HT       0.417000       1.00800           0
     33359 TIP3     7815     TIP3     OH2      OT      -0.834000       15.9994           0
     33360 TIP3     7815     TIP3     H1       HT       0.417000       1.00800           0
     33361 TIP3     7815     TIP3     H2       HT       0.417000       1.00800           0
     33362 TIP3     7816     TIP3     OH2      OT      -0.834000       15.9994           0
     33363 TIP3     7816     TIP3     H1       HT       0.417000       1.00800           0
     33364 TIP3     7816     TIP3     H2       HT       0.417000       1.00800           0
     33365 TIP3     7817     TIP3     OH2      OT      -0.834000       15.9994           0
     33366 TIP3     7817     TIP3     H1       HT       0.417000       1.00800           0
     33367 TIP3     7817     TIP3     H2       HT       0.417000       1.00800           0
     33368 TIP3     7818     TIP3     OH2      OT      -0.834000       15.9994           0
     33369 TIP3     7818     TIP3     H1       HT       0.417000       1.00800           0
     33370 TIP3     7818     TIP3     H2       HT       0.417000       1.00800           0
     33371 TIP3     7819     TIP3     OH2      OT      -0.834000       15.9994           0
     33372 TIP3     7819     TIP3     H1       HT       0.417000       1.00800           0
     33373 TIP3     7819     TIP3     H2       HT       0.417000       1.00800           0
     33374 TIP3     7820     TIP3     OH2      OT      -0.834000       15.9994           0
     33375 TIP3     7820     TIP3     H1       HT       0.417000       1.00800           0
     33376 TIP3     7820     TIP3     H2       HT       0.417000       1.00800           0
     33377 TIP3     7821     TIP3     OH2      OT      -0.834000       15.9994           0
     33378 TIP3     7821     TIP3     H1       HT       0.417000       1.00800           0
     33379 TIP3     7821     TIP3     H2       HT       0.417000       1.00800           0
     33380 TIP3     7822     TIP3     OH2      OT      -0.834000       15.9994           0
     33381 TIP3     7822     TIP3     H1       HT       0.417000       1.00800           0
     33382 TIP3     7822     TIP3     H2       HT       0.417000       1.00800           0
     33383 TIP3     7823     TIP3     OH2      OT      -0.834000       15.9994           0
     33384 TIP3     7823     TIP3     H1       HT       0.417000       1.00800           0
     33385 TIP3     7823     TIP3     H2       HT       0.417000       1.00800           0
     33386 TIP3     7824     TIP3     OH2      OT      -0.834000       15.9994           0
     33387 TIP3     7824     TIP3     H1       HT       0.417000       1.00800           0
     33388 TIP3     7824     TIP3     H2       HT       0.417000       1.00800           0
     33389 TIP3     7825     TIP3     OH2      OT      -0.834000       15.9994           0
     33390 TIP3     7825     TIP3     H1       HT       0.417000       1.00800           0
     33391 TIP3     7825     TIP3     H2       HT       0.417000       1.00800           0
     33392 TIP3     7826     TIP3     OH2      OT      -0.834000       15.9994           0
     33393 TIP3     7826     TIP3     H1       HT       0.417000       1.00800           0
     33394 TIP3     7826     TIP3     H2       HT       0.417000       1.00800           0
     33395 TIP3     7827     TIP3     OH2      OT      -0.834000       15.9994           0
     33396 TIP3     7827     TIP3     H1       HT       0.417000       1.00800           0
     33397 TIP3     7827     TIP3     H2       HT       0.417000       1.00800           0
     33398 TIP3     7828     TIP3     OH2      OT      -0.834000       15.9994           0
     33399 TIP3     7828     TIP3     H1       HT       0.417000       1.00800           0
     33400 TIP3     7828     TIP3     H2       HT       0.417000       1.00800           0
     33401 TIP3     7829     TIP3     OH2      OT      -0.834000       15.9994           0
     33402 TIP3     7829     TIP3     H1       HT       0.417000       1.00800           0
     33403 TIP3     7829     TIP3     H2       HT       0.417000       1.00800           0
     33404 TIP3     7830     TIP3     OH2      OT      -0.834000       15.9994           0
     33405 TIP3     7830     TIP3     H1       HT       0.417000       1.00800           0
     33406 TIP3     7830     TIP3     H2       HT       0.417000       1.00800           0
     33407 TIP3     7831     TIP3     OH2      OT      -0.834000       15.9994           0
     33408 TIP3     7831     TIP3     H1       HT       0.417000       1.00800           0
     33409 TIP3     7831     TIP3     H2       HT       0.417000       1.00800           0
     33410 TIP3     7832     TIP3     OH2      OT      -0.834000       15.9994           0
     33411 TIP3     7832     TIP3     H1       HT       0.417000       1.00800           0
     33412 TIP3     7832     TIP3     H2       HT       0.417000       1.00800           0
     33413 TIP3     7833     TIP3     OH2      OT      -0.834000       15.9994           0
     33414 TIP3     7833     TIP3     H1       HT       0.417000       1.00800           0
     33415 TIP3     7833     TIP3     H2       HT       0.417000       1.00800           0
     33416 TIP3     7834     TIP3     OH2      OT      -0.834000       15.9994           0
     33417 TIP3     7834     TIP3     H1       HT       0.417000       1.00800           0
     33418 TIP3     7834     TIP3     H2       HT       0.417000       1.00800           0
     33419 TIP3     7835     TIP3     OH2      OT      -0.834000       15.9994           0
     33420 TIP3     7835     TIP3     H1       HT       0.417000       1.00800           0
     33421 TIP3     7835     TIP3     H2       HT       0.417000       1.00800           0
     33422 TIP3     7836     TIP3     OH2      OT      -0.834000       15.9994           0
     33423 TIP3     7836     TIP3     H1       HT       0.417000       1.00800           0
     33424 TIP3     7836     TIP3     H2       HT       0.417000       1.00800           0
     33425 TIP3     7837     TIP3     OH2      OT      -0.834000       15.9994           0
     33426 TIP3     7837     TIP3     H1       HT       0.417000       1.00800           0
     33427 TIP3     7837     TIP3     H2       HT       0.417000       1.00800           0
     33428 TIP3     7838     TIP3     OH2      OT      -0.834000       15.9994           0
     33429 TIP3     7838     TIP3     H1       HT       0.417000       1.00800           0
     33430 TIP3     7838     TIP3     H2       HT       0.417000       1.00800           0
     33431 TIP3     7839     TIP3     OH2      OT      -0.834000       15.9994           0
     33432 TIP3     7839     TIP3     H1       HT       0.417000       1.00800           0
     33433 TIP3     7839     TIP3     H2       HT       0.417000       1.00800           0
     33434 TIP3     7840     TIP3     OH2      OT      -0.834000       15.9994           0
     33435 TIP3     7840     TIP3     H1       HT       0.417000       1.00800           0
     33436 TIP3     7840     TIP3     H2       HT       0.417000       1.00800           0
     33437 TIP3     7841     TIP3     OH2      OT      -0.834000       15.9994           0
     33438 TIP3     7841     TIP3     H1       HT       0.417000       1.00800           0
     33439 TIP3     7841     TIP3     H2       HT       0.417000       1.00800           0
     33440 TIP3     7842     TIP3     OH2      OT      -0.834000       15.9994           0
     33441 TIP3     7842     TIP3     H1       HT       0.417000       1.00800           0
     33442 TIP3     7842     TIP3     H2       HT       0.417000       1.00800           0
     33443 TIP3     7843     TIP3     OH2      OT      -0.834000       15.9994           0
     33444 TIP3     7843     TIP3     H1       HT       0.417000       1.00800           0
     33445 TIP3     7843     TIP3     H2       HT       0.417000       1.00800           0
     33446 TIP3     7844     TIP3     OH2      OT      -0.834000       15.9994           0
     33447 TIP3     7844     TIP3     H1       HT       0.417000       1.00800           0
     33448 TIP3     7844     TIP3     H2       HT       0.417000       1.00800           0
     33449 TIP3     7845     TIP3     OH2      OT      -0.834000       15.9994           0
     33450 TIP3     7845     TIP3     H1       HT       0.417000       1.00800           0
     33451 TIP3     7845     TIP3     H2       HT       0.417000       1.00800           0
     33452 TIP3     7846     TIP3     OH2      OT      -0.834000       15.9994           0
     33453 TIP3     7846     TIP3     H1       HT       0.417000       1.00800           0
     33454 TIP3     7846     TIP3     H2       HT       0.417000       1.00800           0
     33455 TIP3     7847     TIP3     OH2      OT      -0.834000       15.9994           0
     33456 TIP3     7847     TIP3     H1       HT       0.417000       1.00800           0
     33457 TIP3     7847     TIP3     H2       HT       0.417000       1.00800           0
     33458 TIP3     7848     TIP3     OH2      OT      -0.834000       15.9994           0
     33459 TIP3     7848     TIP3     H1       HT       0.417000       1.00800           0
     33460 TIP3     7848     TIP3     H2       HT       0.417000       1.00800           0
     33461 TIP3     7849     TIP3     OH2      OT      -0.834000       15.9994           0
     33462 TIP3     7849     TIP3     H1       HT       0.417000       1.00800           0
     33463 TIP3     7849     TIP3     H2       HT       0.417000       1.00800           0
     33464 TIP3     7850     TIP3     OH2      OT      -0.834000       15.9994           0
     33465 TIP3     7850     TIP3     H1       HT       0.417000       1.00800           0
     33466 TIP3     7850     TIP3     H2       HT       0.417000       1.00800           0
     33467 TIP3     7851     TIP3     OH2      OT      -0.834000       15.9994           0
     33468 TIP3     7851     TIP3     H1       HT       0.417000       1.00800           0
     33469 TIP3     7851     TIP3     H2       HT       0.417000       1.00800           0
     33470 TIP3     7852     TIP3     OH2      OT      -0.834000       15.9994           0
     33471 TIP3     7852     TIP3     H1       HT       0.417000       1.00800           0
     33472 TIP3     7852     TIP3     H2       HT       0.417000       1.00800           0
     33473 TIP3     7853     TIP3     OH2      OT      -0.834000       15.9994           0
     33474 TIP3     7853     TIP3     H1       HT       0.417000       1.00800           0
     33475 TIP3     7853     TIP3     H2       HT       0.417000       1.00800           0
     33476 TIP3     7854     TIP3     OH2      OT      -0.834000       15.9994           0
     33477 TIP3     7854     TIP3     H1       HT       0.417000       1.00800           0
     33478 TIP3     7854     TIP3     H2       HT       0.417000       1.00800           0
     33479 TIP3     7855     TIP3     OH2      OT      -0.834000       15.9994           0
     33480 TIP3     7855     TIP3     H1       HT       0.417000       1.00800           0
     33481 TIP3     7855     TIP3     H2       HT       0.417000       1.00800           0
     33482 TIP3     7856     TIP3     OH2      OT      -0.834000       15.9994           0
     33483 TIP3     7856     TIP3     H1       HT       0.417000       1.00800           0
     33484 TIP3     7856     TIP3     H2       HT       0.417000       1.00800           0
     33485 TIP3     7857     TIP3     OH2      OT      -0.834000       15.9994           0
     33486 TIP3     7857     TIP3     H1       HT       0.417000       1.00800           0
     33487 TIP3     7857     TIP3     H2       HT       0.417000       1.00800           0
     33488 TIP3     7858     TIP3     OH2      OT      -0.834000       15.9994           0
     33489 TIP3     7858     TIP3     H1       HT       0.417000       1.00800           0
     33490 TIP3     7858     TIP3     H2       HT       0.417000       1.00800           0
     33491 TIP3     7859     TIP3     OH2      OT      -0.834000       15.9994           0
     33492 TIP3     7859     TIP3     H1       HT       0.417000       1.00800           0
     33493 TIP3     7859     TIP3     H2       HT       0.417000       1.00800           0
     33494 TIP3     7860     TIP3     OH2      OT      -0.834000       15.9994           0
     33495 TIP3     7860     TIP3     H1       HT       0.417000       1.00800           0
     33496 TIP3     7860     TIP3     H2       HT       0.417000       1.00800           0
     33497 TIP3     7861     TIP3     OH2      OT      -0.834000       15.9994           0
     33498 TIP3     7861     TIP3     H1       HT       0.417000       1.00800           0
     33499 TIP3     7861     TIP3     H2       HT       0.417000       1.00800           0
     33500 TIP3     7862     TIP3     OH2      OT      -0.834000       15.9994           0
     33501 TIP3     7862     TIP3     H1       HT       0.417000       1.00800           0
     33502 TIP3     7862     TIP3     H2       HT       0.417000       1.00800           0
     33503 TIP3     7863     TIP3     OH2      OT      -0.834000       15.9994           0
     33504 TIP3     7863     TIP3     H1       HT       0.417000       1.00800           0
     33505 TIP3     7863     TIP3     H2       HT       0.417000       1.00800           0
     33506 TIP3     7864     TIP3     OH2      OT      -0.834000       15.9994           0
     33507 TIP3     7864     TIP3     H1       HT       0.417000       1.00800           0
     33508 TIP3     7864     TIP3     H2       HT       0.417000       1.00800           0
     33509 TIP3     7865     TIP3     OH2      OT      -0.834000       15.9994           0
     33510 TIP3     7865     TIP3     H1       HT       0.417000       1.00800           0
     33511 TIP3     7865     TIP3     H2       HT       0.417000       1.00800           0
     33512 TIP3     7866     TIP3     OH2      OT      -0.834000       15.9994           0
     33513 TIP3     7866     TIP3     H1       HT       0.417000       1.00800           0
     33514 TIP3     7866     TIP3     H2       HT       0.417000       1.00800           0
     33515 TIP3     7867     TIP3     OH2      OT      -0.834000       15.9994           0
     33516 TIP3     7867     TIP3     H1       HT       0.417000       1.00800           0
     33517 TIP3     7867     TIP3     H2       HT       0.417000       1.00800           0
     33518 TIP3     7868     TIP3     OH2      OT      -0.834000       15.9994           0
     33519 TIP3     7868     TIP3     H1       HT       0.417000       1.00800           0
     33520 TIP3     7868     TIP3     H2       HT       0.417000       1.00800           0
     33521 TIP3     7869     TIP3     OH2      OT      -0.834000       15.9994           0
     33522 TIP3     7869     TIP3     H1       HT       0.417000       1.00800           0
     33523 TIP3     7869     TIP3     H2       HT       0.417000       1.00800           0
     33524 TIP3     7870     TIP3     OH2      OT      -0.834000       15.9994           0
     33525 TIP3     7870     TIP3     H1       HT       0.417000       1.00800           0
     33526 TIP3     7870     TIP3     H2       HT       0.417000       1.00800           0
     33527 TIP3     7871     TIP3     OH2      OT      -0.834000       15.9994           0
     33528 TIP3     7871     TIP3     H1       HT       0.417000       1.00800           0
     33529 TIP3     7871     TIP3     H2       HT       0.417000       1.00800           0
     33530 TIP3     7872     TIP3     OH2      OT      -0.834000       15.9994           0
     33531 TIP3     7872     TIP3     H1       HT       0.417000       1.00800           0
     33532 TIP3     7872     TIP3     H2       HT       0.417000       1.00800           0
     33533 TIP3     7873     TIP3     OH2      OT      -0.834000       15.9994           0
     33534 TIP3     7873     TIP3     H1       HT       0.417000       1.00800           0
     33535 TIP3     7873     TIP3     H2       HT       0.417000       1.00800           0
     33536 TIP3     7874     TIP3     OH2      OT      -0.834000       15.9994           0
     33537 TIP3     7874     TIP3     H1       HT       0.417000       1.00800           0
     33538 TIP3     7874     TIP3     H2       HT       0.417000       1.00800           0
     33539 TIP3     7875     TIP3     OH2      OT      -0.834000       15.9994           0
     33540 TIP3     7875     TIP3     H1       HT       0.417000       1.00800           0
     33541 TIP3     7875     TIP3     H2       HT       0.417000       1.00800           0
     33542 TIP3     7876     TIP3     OH2      OT      -0.834000       15.9994           0
     33543 TIP3     7876     TIP3     H1       HT       0.417000       1.00800           0
     33544 TIP3     7876     TIP3     H2       HT       0.417000       1.00800           0
     33545 TIP3     7877     TIP3     OH2      OT      -0.834000       15.9994           0
     33546 TIP3     7877     TIP3     H1       HT       0.417000       1.00800           0
     33547 TIP3     7877     TIP3     H2       HT       0.417000       1.00800           0
     33548 TIP3     7878     TIP3     OH2      OT      -0.834000       15.9994           0
     33549 TIP3     7878     TIP3     H1       HT       0.417000       1.00800           0
     33550 TIP3     7878     TIP3     H2       HT       0.417000       1.00800           0
     33551 TIP3     7879     TIP3     OH2      OT      -0.834000       15.9994           0
     33552 TIP3     7879     TIP3     H1       HT       0.417000       1.00800           0
     33553 TIP3     7879     TIP3     H2       HT       0.417000       1.00800           0
     33554 TIP3     7880     TIP3     OH2      OT      -0.834000       15.9994           0
     33555 TIP3     7880     TIP3     H1       HT       0.417000       1.00800           0
     33556 TIP3     7880     TIP3     H2       HT       0.417000       1.00800           0
     33557 TIP3     7881     TIP3     OH2      OT      -0.834000       15.9994           0
     33558 TIP3     7881     TIP3     H1       HT       0.417000       1.00800           0
     33559 TIP3     7881     TIP3     H2       HT       0.417000       1.00800           0
     33560 TIP3     7882     TIP3     OH2      OT      -0.834000       15.9994           0
     33561 TIP3     7882     TIP3     H1       HT       0.417000       1.00800           0
     33562 TIP3     7882     TIP3     H2       HT       0.417000       1.00800           0
     33563 TIP3     7883     TIP3     OH2      OT      -0.834000       15.9994           0
     33564 TIP3     7883     TIP3     H1       HT       0.417000       1.00800           0
     33565 TIP3     7883     TIP3     H2       HT       0.417000       1.00800           0
     33566 TIP3     7884     TIP3     OH2      OT      -0.834000       15.9994           0
     33567 TIP3     7884     TIP3     H1       HT       0.417000       1.00800           0
     33568 TIP3     7884     TIP3     H2       HT       0.417000       1.00800           0
     33569 TIP3     7885     TIP3     OH2      OT      -0.834000       15.9994           0
     33570 TIP3     7885     TIP3     H1       HT       0.417000       1.00800           0
     33571 TIP3     7885     TIP3     H2       HT       0.417000       1.00800           0
     33572 TIP3     7886     TIP3     OH2      OT      -0.834000       15.9994           0
     33573 TIP3     7886     TIP3     H1       HT       0.417000       1.00800           0
     33574 TIP3     7886     TIP3     H2       HT       0.417000       1.00800           0
     33575 TIP3     7887     TIP3     OH2      OT      -0.834000       15.9994           0
     33576 TIP3     7887     TIP3     H1       HT       0.417000       1.00800           0
     33577 TIP3     7887     TIP3     H2       HT       0.417000       1.00800           0
     33578 TIP3     7888     TIP3     OH2      OT      -0.834000       15.9994           0
     33579 TIP3     7888     TIP3     H1       HT       0.417000       1.00800           0
     33580 TIP3     7888     TIP3     H2       HT       0.417000       1.00800           0
     33581 TIP3     7889     TIP3     OH2      OT      -0.834000       15.9994           0
     33582 TIP3     7889     TIP3     H1       HT       0.417000       1.00800           0
     33583 TIP3     7889     TIP3     H2       HT       0.417000       1.00800           0
     33584 TIP3     7890     TIP3     OH2      OT      -0.834000       15.9994           0
     33585 TIP3     7890     TIP3     H1       HT       0.417000       1.00800           0
     33586 TIP3     7890     TIP3     H2       HT       0.417000       1.00800           0
     33587 TIP3     7891     TIP3     OH2      OT      -0.834000       15.9994           0
     33588 TIP3     7891     TIP3     H1       HT       0.417000       1.00800           0
     33589 TIP3     7891     TIP3     H2       HT       0.417000       1.00800           0
     33590 TIP3     7892     TIP3     OH2      OT      -0.834000       15.9994           0
     33591 TIP3     7892     TIP3     H1       HT       0.417000       1.00800           0
     33592 TIP3     7892     TIP3     H2       HT       0.417000       1.00800           0
     33593 TIP3     7893     TIP3     OH2      OT      -0.834000       15.9994           0
     33594 TIP3     7893     TIP3     H1       HT       0.417000       1.00800           0
     33595 TIP3     7893     TIP3     H2       HT       0.417000       1.00800           0
     33596 TIP3     7894     TIP3     OH2      OT      -0.834000       15.9994           0
     33597 TIP3     7894     TIP3     H1       HT       0.417000       1.00800           0
     33598 TIP3     7894     TIP3     H2       HT       0.417000       1.00800           0
     33599 TIP3     7895     TIP3     OH2      OT      -0.834000       15.9994           0
     33600 TIP3     7895     TIP3     H1       HT       0.417000       1.00800           0
     33601 TIP3     7895     TIP3     H2       HT       0.417000       1.00800           0
     33602 TIP3     7896     TIP3     OH2      OT      -0.834000       15.9994           0
     33603 TIP3     7896     TIP3     H1       HT       0.417000       1.00800           0
     33604 TIP3     7896     TIP3     H2       HT       0.417000       1.00800           0
     33605 TIP3     7897     TIP3     OH2      OT      -0.834000       15.9994           0
     33606 TIP3     7897     TIP3     H1       HT       0.417000       1.00800           0
     33607 TIP3     7897     TIP3     H2       HT       0.417000       1.00800           0
     33608 TIP3     7898     TIP3     OH2      OT      -0.834000       15.9994           0
     33609 TIP3     7898     TIP3     H1       HT       0.417000       1.00800           0
     33610 TIP3     7898     TIP3     H2       HT       0.417000       1.00800           0
     33611 TIP3     7899     TIP3     OH2      OT      -0.834000       15.9994           0
     33612 TIP3     7899     TIP3     H1       HT       0.417000       1.00800           0
     33613 TIP3     7899     TIP3     H2       HT       0.417000       1.00800           0
     33614 TIP3     7900     TIP3     OH2      OT      -0.834000       15.9994           0
     33615 TIP3     7900     TIP3     H1       HT       0.417000       1.00800           0
     33616 TIP3     7900     TIP3     H2       HT       0.417000       1.00800           0
     33617 TIP3     7901     TIP3     OH2      OT      -0.834000       15.9994           0
     33618 TIP3     7901     TIP3     H1       HT       0.417000       1.00800           0
     33619 TIP3     7901     TIP3     H2       HT       0.417000       1.00800           0
     33620 TIP3     7902     TIP3     OH2      OT      -0.834000       15.9994           0
     33621 TIP3     7902     TIP3     H1       HT       0.417000       1.00800           0
     33622 TIP3     7902     TIP3     H2       HT       0.417000       1.00800           0
     33623 TIP3     7903     TIP3     OH2      OT      -0.834000       15.9994           0
     33624 TIP3     7903     TIP3     H1       HT       0.417000       1.00800           0
     33625 TIP3     7903     TIP3     H2       HT       0.417000       1.00800           0
     33626 TIP3     7904     TIP3     OH2      OT      -0.834000       15.9994           0
     33627 TIP3     7904     TIP3     H1       HT       0.417000       1.00800           0
     33628 TIP3     7904     TIP3     H2       HT       0.417000       1.00800           0
     33629 TIP3     7905     TIP3     OH2      OT      -0.834000       15.9994           0
     33630 TIP3     7905     TIP3     H1       HT       0.417000       1.00800           0
     33631 TIP3     7905     TIP3     H2       HT       0.417000       1.00800           0
     33632 TIP3     7906     TIP3     OH2      OT      -0.834000       15.9994           0
     33633 TIP3     7906     TIP3     H1       HT       0.417000       1.00800           0
     33634 TIP3     7906     TIP3     H2       HT       0.417000       1.00800           0
     33635 TIP3     7907     TIP3     OH2      OT      -0.834000       15.9994           0
     33636 TIP3     7907     TIP3     H1       HT       0.417000       1.00800           0
     33637 TIP3     7907     TIP3     H2       HT       0.417000       1.00800           0
     33638 TIP3     7908     TIP3     OH2      OT      -0.834000       15.9994           0
     33639 TIP3     7908     TIP3     H1       HT       0.417000       1.00800           0
     33640 TIP3     7908     TIP3     H2       HT       0.417000       1.00800           0
     33641 TIP3     7909     TIP3     OH2      OT      -0.834000       15.9994           0
     33642 TIP3     7909     TIP3     H1       HT       0.417000       1.00800           0
     33643 TIP3     7909     TIP3     H2       HT       0.417000       1.00800           0
     33644 TIP3     7910     TIP3     OH2      OT      -0.834000       15.9994           0
     33645 TIP3     7910     TIP3     H1       HT       0.417000       1.00800           0
     33646 TIP3     7910     TIP3     H2       HT       0.417000       1.00800           0
     33647 TIP3     7911     TIP3     OH2      OT      -0.834000       15.9994           0
     33648 TIP3     7911     TIP3     H1       HT       0.417000       1.00800           0
     33649 TIP3     7911     TIP3     H2       HT       0.417000       1.00800           0
     33650 TIP3     7912     TIP3     OH2      OT      -0.834000       15.9994           0
     33651 TIP3     7912     TIP3     H1       HT       0.417000       1.00800           0
     33652 TIP3     7912     TIP3     H2       HT       0.417000       1.00800           0
     33653 TIP3     7913     TIP3     OH2      OT      -0.834000       15.9994           0
     33654 TIP3     7913     TIP3     H1       HT       0.417000       1.00800           0
     33655 TIP3     7913     TIP3     H2       HT       0.417000       1.00800           0
     33656 TIP3     7914     TIP3     OH2      OT      -0.834000       15.9994           0
     33657 TIP3     7914     TIP3     H1       HT       0.417000       1.00800           0
     33658 TIP3     7914     TIP3     H2       HT       0.417000       1.00800           0
     33659 TIP3     7915     TIP3     OH2      OT      -0.834000       15.9994           0
     33660 TIP3     7915     TIP3     H1       HT       0.417000       1.00800           0
     33661 TIP3     7915     TIP3     H2       HT       0.417000       1.00800           0
     33662 TIP3     7916     TIP3     OH2      OT      -0.834000       15.9994           0
     33663 TIP3     7916     TIP3     H1       HT       0.417000       1.00800           0
     33664 TIP3     7916     TIP3     H2       HT       0.417000       1.00800           0
     33665 TIP3     7917     TIP3     OH2      OT      -0.834000       15.9994           0
     33666 TIP3     7917     TIP3     H1       HT       0.417000       1.00800           0
     33667 TIP3     7917     TIP3     H2       HT       0.417000       1.00800           0
     33668 TIP3     7918     TIP3     OH2      OT      -0.834000       15.9994           0
     33669 TIP3     7918     TIP3     H1       HT       0.417000       1.00800           0
     33670 TIP3     7918     TIP3     H2       HT       0.417000       1.00800           0
     33671 TIP3     7919     TIP3     OH2      OT      -0.834000       15.9994           0
     33672 TIP3     7919     TIP3     H1       HT       0.417000       1.00800           0
     33673 TIP3     7919     TIP3     H2       HT       0.417000       1.00800           0
     33674 TIP3     7920     TIP3     OH2      OT      -0.834000       15.9994           0
     33675 TIP3     7920     TIP3     H1       HT       0.417000       1.00800           0
     33676 TIP3     7920     TIP3     H2       HT       0.417000       1.00800           0
     33677 TIP3     7921     TIP3     OH2      OT      -0.834000       15.9994           0
     33678 TIP3     7921     TIP3     H1       HT       0.417000       1.00800           0
     33679 TIP3     7921     TIP3     H2       HT       0.417000       1.00800           0
     33680 TIP3     7922     TIP3     OH2      OT      -0.834000       15.9994           0
     33681 TIP3     7922     TIP3     H1       HT       0.417000       1.00800           0
     33682 TIP3     7922     TIP3     H2       HT       0.417000       1.00800           0
     33683 TIP3     7923     TIP3     OH2      OT      -0.834000       15.9994           0
     33684 TIP3     7923     TIP3     H1       HT       0.417000       1.00800           0
     33685 TIP3     7923     TIP3     H2       HT       0.417000       1.00800           0
     33686 TIP3     7924     TIP3     OH2      OT      -0.834000       15.9994           0
     33687 TIP3     7924     TIP3     H1       HT       0.417000       1.00800           0
     33688 TIP3     7924     TIP3     H2       HT       0.417000       1.00800           0
     33689 TIP3     7925     TIP3     OH2      OT      -0.834000       15.9994           0
     33690 TIP3     7925     TIP3     H1       HT       0.417000       1.00800           0
     33691 TIP3     7925     TIP3     H2       HT       0.417000       1.00800           0
     33692 TIP3     7926     TIP3     OH2      OT      -0.834000       15.9994           0
     33693 TIP3     7926     TIP3     H1       HT       0.417000       1.00800           0
     33694 TIP3     7926     TIP3     H2       HT       0.417000       1.00800           0
     33695 TIP3     7927     TIP3     OH2      OT      -0.834000       15.9994           0
     33696 TIP3     7927     TIP3     H1       HT       0.417000       1.00800           0
     33697 TIP3     7927     TIP3     H2       HT       0.417000       1.00800           0
     33698 TIP3     7928     TIP3     OH2      OT      -0.834000       15.9994           0
     33699 TIP3     7928     TIP3     H1       HT       0.417000       1.00800           0
     33700 TIP3     7928     TIP3     H2       HT       0.417000       1.00800           0
     33701 TIP3     7929     TIP3     OH2      OT      -0.834000       15.9994           0
     33702 TIP3     7929     TIP3     H1       HT       0.417000       1.00800           0
     33703 TIP3     7929     TIP3     H2       HT       0.417000       1.00800           0
     33704 TIP3     7930     TIP3     OH2      OT      -0.834000       15.9994           0
     33705 TIP3     7930     TIP3     H1       HT       0.417000       1.00800           0
     33706 TIP3     7930     TIP3     H2       HT       0.417000       1.00800           0
     33707 TIP3     7931     TIP3     OH2      OT      -0.834000       15.9994           0
     33708 TIP3     7931     TIP3     H1       HT       0.417000       1.00800           0
     33709 TIP3     7931     TIP3     H2       HT       0.417000       1.00800           0
     33710 TIP3     7932     TIP3     OH2      OT      -0.834000       15.9994           0
     33711 TIP3     7932     TIP3     H1       HT       0.417000       1.00800           0
     33712 TIP3     7932     TIP3     H2       HT       0.417000       1.00800           0
     33713 TIP3     7933     TIP3     OH2      OT      -0.834000       15.9994           0
     33714 TIP3     7933     TIP3     H1       HT       0.417000       1.00800           0
     33715 TIP3     7933     TIP3     H2       HT       0.417000       1.00800           0
     33716 TIP3     7934     TIP3     OH2      OT      -0.834000       15.9994           0
     33717 TIP3     7934     TIP3     H1       HT       0.417000       1.00800           0
     33718 TIP3     7934     TIP3     H2       HT       0.417000       1.00800           0
     33719 TIP3     7935     TIP3     OH2      OT      -0.834000       15.9994           0
     33720 TIP3     7935     TIP3     H1       HT       0.417000       1.00800           0
     33721 TIP3     7935     TIP3     H2       HT       0.417000       1.00800           0
     33722 TIP3     7936     TIP3     OH2      OT      -0.834000       15.9994           0
     33723 TIP3     7936     TIP3     H1       HT       0.417000       1.00800           0
     33724 TIP3     7936     TIP3     H2       HT       0.417000       1.00800           0
     33725 TIP3     7937     TIP3     OH2      OT      -0.834000       15.9994           0
     33726 TIP3     7937     TIP3     H1       HT       0.417000       1.00800           0
     33727 TIP3     7937     TIP3     H2       HT       0.417000       1.00800           0
     33728 TIP3     7938     TIP3     OH2      OT      -0.834000       15.9994           0
     33729 TIP3     7938     TIP3     H1       HT       0.417000       1.00800           0
     33730 TIP3     7938     TIP3     H2       HT       0.417000       1.00800           0
     33731 TIP3     7939     TIP3     OH2      OT      -0.834000       15.9994           0
     33732 TIP3     7939     TIP3     H1       HT       0.417000       1.00800           0
     33733 TIP3     7939     TIP3     H2       HT       0.417000       1.00800           0
     33734 TIP3     7940     TIP3     OH2      OT      -0.834000       15.9994           0
     33735 TIP3     7940     TIP3     H1       HT       0.417000       1.00800           0
     33736 TIP3     7940     TIP3     H2       HT       0.417000       1.00800           0
     33737 TIP3     7941     TIP3     OH2      OT      -0.834000       15.9994           0
     33738 TIP3     7941     TIP3     H1       HT       0.417000       1.00800           0
     33739 TIP3     7941     TIP3     H2       HT       0.417000       1.00800           0
     33740 TIP3     7942     TIP3     OH2      OT      -0.834000       15.9994           0
     33741 TIP3     7942     TIP3     H1       HT       0.417000       1.00800           0
     33742 TIP3     7942     TIP3     H2       HT       0.417000       1.00800           0
     33743 TIP3     7943     TIP3     OH2      OT      -0.834000       15.9994           0
     33744 TIP3     7943     TIP3     H1       HT       0.417000       1.00800           0
     33745 TIP3     7943     TIP3     H2       HT       0.417000       1.00800           0
     33746 TIP3     7944     TIP3     OH2      OT      -0.834000       15.9994           0
     33747 TIP3     7944     TIP3     H1       HT       0.417000       1.00800           0
     33748 TIP3     7944     TIP3     H2       HT       0.417000       1.00800           0
     33749 TIP3     7945     TIP3     OH2      OT      -0.834000       15.9994           0
     33750 TIP3     7945     TIP3     H1       HT       0.417000       1.00800           0
     33751 TIP3     7945     TIP3     H2       HT       0.417000       1.00800           0
     33752 TIP3     7946     TIP3     OH2      OT      -0.834000       15.9994           0
     33753 TIP3     7946     TIP3     H1       HT       0.417000       1.00800           0
     33754 TIP3     7946     TIP3     H2       HT       0.417000       1.00800           0
     33755 TIP3     7947     TIP3     OH2      OT      -0.834000       15.9994           0
     33756 TIP3     7947     TIP3     H1       HT       0.417000       1.00800           0
     33757 TIP3     7947     TIP3     H2       HT       0.417000       1.00800           0
     33758 TIP3     7948     TIP3     OH2      OT      -0.834000       15.9994           0
     33759 TIP3     7948     TIP3     H1       HT       0.417000       1.00800           0
     33760 TIP3     7948     TIP3     H2       HT       0.417000       1.00800           0
     33761 TIP3     7949     TIP3     OH2      OT      -0.834000       15.9994           0
     33762 TIP3     7949     TIP3     H1       HT       0.417000       1.00800           0
     33763 TIP3     7949     TIP3     H2       HT       0.417000       1.00800           0
     33764 TIP3     7950     TIP3     OH2      OT      -0.834000       15.9994           0
     33765 TIP3     7950     TIP3     H1       HT       0.417000       1.00800           0
     33766 TIP3     7950     TIP3     H2       HT       0.417000       1.00800           0
     33767 TIP3     7951     TIP3     OH2      OT      -0.834000       15.9994           0
     33768 TIP3     7951     TIP3     H1       HT       0.417000       1.00800           0
     33769 TIP3     7951     TIP3     H2       HT       0.417000       1.00800           0
     33770 TIP3     7952     TIP3     OH2      OT      -0.834000       15.9994           0
     33771 TIP3     7952     TIP3     H1       HT       0.417000       1.00800           0
     33772 TIP3     7952     TIP3     H2       HT       0.417000       1.00800           0
     33773 TIP3     7953     TIP3     OH2      OT      -0.834000       15.9994           0
     33774 TIP3     7953     TIP3     H1       HT       0.417000       1.00800           0
     33775 TIP3     7953     TIP3     H2       HT       0.417000       1.00800           0
     33776 TIP3     7954     TIP3     OH2      OT      -0.834000       15.9994           0
     33777 TIP3     7954     TIP3     H1       HT       0.417000       1.00800           0
     33778 TIP3     7954     TIP3     H2       HT       0.417000       1.00800           0
     33779 TIP3     7955     TIP3     OH2      OT      -0.834000       15.9994           0
     33780 TIP3     7955     TIP3     H1       HT       0.417000       1.00800           0
     33781 TIP3     7955     TIP3     H2       HT       0.417000       1.00800           0
     33782 TIP3     7956     TIP3     OH2      OT      -0.834000       15.9994           0
     33783 TIP3     7956     TIP3     H1       HT       0.417000       1.00800           0
     33784 TIP3     7956     TIP3     H2       HT       0.417000       1.00800           0
     33785 TIP3     7957     TIP3     OH2      OT      -0.834000       15.9994           0
     33786 TIP3     7957     TIP3     H1       HT       0.417000       1.00800           0
     33787 TIP3     7957     TIP3     H2       HT       0.417000       1.00800           0
     33788 TIP3     7958     TIP3     OH2      OT      -0.834000       15.9994           0
     33789 TIP3     7958     TIP3     H1       HT       0.417000       1.00800           0
     33790 TIP3     7958     TIP3     H2       HT       0.417000       1.00800           0
     33791 TIP3     7959     TIP3     OH2      OT      -0.834000       15.9994           0
     33792 TIP3     7959     TIP3     H1       HT       0.417000       1.00800           0
     33793 TIP3     7959     TIP3     H2       HT       0.417000       1.00800           0
     33794 TIP3     7960     TIP3     OH2      OT      -0.834000       15.9994           0
     33795 TIP3     7960     TIP3     H1       HT       0.417000       1.00800           0
     33796 TIP3     7960     TIP3     H2       HT       0.417000       1.00800           0
     33797 TIP3     7961     TIP3     OH2      OT      -0.834000       15.9994           0
     33798 TIP3     7961     TIP3     H1       HT       0.417000       1.00800           0
     33799 TIP3     7961     TIP3     H2       HT       0.417000       1.00800           0
     33800 TIP3     7962     TIP3     OH2      OT      -0.834000       15.9994           0
     33801 TIP3     7962     TIP3     H1       HT       0.417000       1.00800           0
     33802 TIP3     7962     TIP3     H2       HT       0.417000       1.00800           0
     33803 TIP3     7963     TIP3     OH2      OT      -0.834000       15.9994           0
     33804 TIP3     7963     TIP3     H1       HT       0.417000       1.00800           0
     33805 TIP3     7963     TIP3     H2       HT       0.417000       1.00800           0
     33806 TIP3     7964     TIP3     OH2      OT      -0.834000       15.9994           0
     33807 TIP3     7964     TIP3     H1       HT       0.417000       1.00800           0
     33808 TIP3     7964     TIP3     H2       HT       0.417000       1.00800           0
     33809 TIP3     7965     TIP3     OH2      OT      -0.834000       15.9994           0
     33810 TIP3     7965     TIP3     H1       HT       0.417000       1.00800           0
     33811 TIP3     7965     TIP3     H2       HT       0.417000       1.00800           0
     33812 TIP3     7966     TIP3     OH2      OT      -0.834000       15.9994           0
     33813 TIP3     7966     TIP3     H1       HT       0.417000       1.00800           0
     33814 TIP3     7966     TIP3     H2       HT       0.417000       1.00800           0
     33815 TIP3     7967     TIP3     OH2      OT      -0.834000       15.9994           0
     33816 TIP3     7967     TIP3     H1       HT       0.417000       1.00800           0
     33817 TIP3     7967     TIP3     H2       HT       0.417000       1.00800           0
     33818 TIP3     7968     TIP3     OH2      OT      -0.834000       15.9994           0
     33819 TIP3     7968     TIP3     H1       HT       0.417000       1.00800           0
     33820 TIP3     7968     TIP3     H2       HT       0.417000       1.00800           0
     33821 TIP3     7969     TIP3     OH2      OT      -0.834000       15.9994           0
     33822 TIP3     7969     TIP3     H1       HT       0.417000       1.00800           0
     33823 TIP3     7969     TIP3     H2       HT       0.417000       1.00800           0
     33824 TIP3     7970     TIP3     OH2      OT      -0.834000       15.9994           0
     33825 TIP3     7970     TIP3     H1       HT       0.417000       1.00800           0
     33826 TIP3     7970     TIP3     H2       HT       0.417000       1.00800           0
     33827 TIP3     7971     TIP3     OH2      OT      -0.834000       15.9994           0
     33828 TIP3     7971     TIP3     H1       HT       0.417000       1.00800           0
     33829 TIP3     7971     TIP3     H2       HT       0.417000       1.00800           0
     33830 TIP3     7972     TIP3     OH2      OT      -0.834000       15.9994           0
     33831 TIP3     7972     TIP3     H1       HT       0.417000       1.00800           0
     33832 TIP3     7972     TIP3     H2       HT       0.417000       1.00800           0
     33833 TIP3     7973     TIP3     OH2      OT      -0.834000       15.9994           0
     33834 TIP3     7973     TIP3     H1       HT       0.417000       1.00800           0
     33835 TIP3     7973     TIP3     H2       HT       0.417000       1.00800           0
     33836 TIP3     7974     TIP3     OH2      OT      -0.834000       15.9994           0
     33837 TIP3     7974     TIP3     H1       HT       0.417000       1.00800           0
     33838 TIP3     7974     TIP3     H2       HT       0.417000       1.00800           0
     33839 TIP3     7975     TIP3     OH2      OT      -0.834000       15.9994           0
     33840 TIP3     7975     TIP3     H1       HT       0.417000       1.00800           0
     33841 TIP3     7975     TIP3     H2       HT       0.417000       1.00800           0
     33842 TIP3     7976     TIP3     OH2      OT      -0.834000       15.9994           0
     33843 TIP3     7976     TIP3     H1       HT       0.417000       1.00800           0
     33844 TIP3     7976     TIP3     H2       HT       0.417000       1.00800           0
     33845 TIP3     7977     TIP3     OH2      OT      -0.834000       15.9994           0
     33846 TIP3     7977     TIP3     H1       HT       0.417000       1.00800           0
     33847 TIP3     7977     TIP3     H2       HT       0.417000       1.00800           0
     33848 TIP3     7978     TIP3     OH2      OT      -0.834000       15.9994           0
     33849 TIP3     7978     TIP3     H1       HT       0.417000       1.00800           0
     33850 TIP3     7978     TIP3     H2       HT       0.417000       1.00800           0
     33851 TIP3     7979     TIP3     OH2      OT      -0.834000       15.9994           0
     33852 TIP3     7979     TIP3     H1       HT       0.417000       1.00800           0
     33853 TIP3     7979     TIP3     H2       HT       0.417000       1.00800           0
     33854 TIP3     7980     TIP3     OH2      OT      -0.834000       15.9994           0
     33855 TIP3     7980     TIP3     H1       HT       0.417000       1.00800           0
     33856 TIP3     7980     TIP3     H2       HT       0.417000       1.00800           0
     33857 TIP3     7981     TIP3     OH2      OT      -0.834000       15.9994           0
     33858 TIP3     7981     TIP3     H1       HT       0.417000       1.00800           0
     33859 TIP3     7981     TIP3     H2       HT       0.417000       1.00800           0
     33860 TIP3     7982     TIP3     OH2      OT      -0.834000       15.9994           0
     33861 TIP3     7982     TIP3     H1       HT       0.417000       1.00800           0
     33862 TIP3     7982     TIP3     H2       HT       0.417000       1.00800           0
     33863 TIP3     7983     TIP3     OH2      OT      -0.834000       15.9994           0
     33864 TIP3     7983     TIP3     H1       HT       0.417000       1.00800           0
     33865 TIP3     7983     TIP3     H2       HT       0.417000       1.00800           0
     33866 TIP3     7984     TIP3     OH2      OT      -0.834000       15.9994           0
     33867 TIP3     7984     TIP3     H1       HT       0.417000       1.00800           0
     33868 TIP3     7984     TIP3     H2       HT       0.417000       1.00800           0
     33869 TIP3     7985     TIP3     OH2      OT      -0.834000       15.9994           0
     33870 TIP3     7985     TIP3     H1       HT       0.417000       1.00800           0
     33871 TIP3     7985     TIP3     H2       HT       0.417000       1.00800           0
     33872 TIP3     7986     TIP3     OH2      OT      -0.834000       15.9994           0
     33873 TIP3     7986     TIP3     H1       HT       0.417000       1.00800           0
     33874 TIP3     7986     TIP3     H2       HT       0.417000       1.00800           0
     33875 TIP3     7987     TIP3     OH2      OT      -0.834000       15.9994           0
     33876 TIP3     7987     TIP3     H1       HT       0.417000       1.00800           0
     33877 TIP3     7987     TIP3     H2       HT       0.417000       1.00800           0
     33878 TIP3     7988     TIP3     OH2      OT      -0.834000       15.9994           0
     33879 TIP3     7988     TIP3     H1       HT       0.417000       1.00800           0
     33880 TIP3     7988     TIP3     H2       HT       0.417000       1.00800           0
     33881 TIP3     7989     TIP3     OH2      OT      -0.834000       15.9994           0
     33882 TIP3     7989     TIP3     H1       HT       0.417000       1.00800           0
     33883 TIP3     7989     TIP3     H2       HT       0.417000       1.00800           0
     33884 TIP3     7990     TIP3     OH2      OT      -0.834000       15.9994           0
     33885 TIP3     7990     TIP3     H1       HT       0.417000       1.00800           0
     33886 TIP3     7990     TIP3     H2       HT       0.417000       1.00800           0
     33887 TIP3     7991     TIP3     OH2      OT      -0.834000       15.9994           0
     33888 TIP3     7991     TIP3     H1       HT       0.417000       1.00800           0
     33889 TIP3     7991     TIP3     H2       HT       0.417000       1.00800           0
     33890 TIP3     7992     TIP3     OH2      OT      -0.834000       15.9994           0
     33891 TIP3     7992     TIP3     H1       HT       0.417000       1.00800           0
     33892 TIP3     7992     TIP3     H2       HT       0.417000       1.00800           0
     33893 TIP3     7993     TIP3     OH2      OT      -0.834000       15.9994           0
     33894 TIP3     7993     TIP3     H1       HT       0.417000       1.00800           0
     33895 TIP3     7993     TIP3     H2       HT       0.417000       1.00800           0
     33896 TIP3     7994     TIP3     OH2      OT      -0.834000       15.9994           0
     33897 TIP3     7994     TIP3     H1       HT       0.417000       1.00800           0
     33898 TIP3     7994     TIP3     H2       HT       0.417000       1.00800           0
     33899 TIP3     7995     TIP3     OH2      OT      -0.834000       15.9994           0
     33900 TIP3     7995     TIP3     H1       HT       0.417000       1.00800           0
     33901 TIP3     7995     TIP3     H2       HT       0.417000       1.00800           0
     33902 TIP3     7996     TIP3     OH2      OT      -0.834000       15.9994           0
     33903 TIP3     7996     TIP3     H1       HT       0.417000       1.00800           0
     33904 TIP3     7996     TIP3     H2       HT       0.417000       1.00800           0
     33905 TIP3     7997     TIP3     OH2      OT      -0.834000       15.9994           0
     33906 TIP3     7997     TIP3     H1       HT       0.417000       1.00800           0
     33907 TIP3     7997     TIP3     H2       HT       0.417000       1.00800           0
     33908 TIP3     7998     TIP3     OH2      OT      -0.834000       15.9994           0
     33909 TIP3     7998     TIP3     H1       HT       0.417000       1.00800           0
     33910 TIP3     7998     TIP3     H2       HT       0.417000       1.00800           0
     33911 TIP3     7999     TIP3     OH2      OT      -0.834000       15.9994           0
     33912 TIP3     7999     TIP3     H1       HT       0.417000       1.00800           0
     33913 TIP3     7999     TIP3     H2       HT       0.417000       1.00800           0
     33914 TIP3     8000     TIP3     OH2      OT      -0.834000       15.9994           0
     33915 TIP3     8000     TIP3     H1       HT       0.417000       1.00800           0
     33916 TIP3     8000     TIP3     H2       HT       0.417000       1.00800           0
     33917 TIP3     8001     TIP3     OH2      OT      -0.834000       15.9994           0
     33918 TIP3     8001     TIP3     H1       HT       0.417000       1.00800           0
     33919 TIP3     8001     TIP3     H2       HT       0.417000       1.00800           0
     33920 TIP3     8002     TIP3     OH2      OT      -0.834000       15.9994           0
     33921 TIP3     8002     TIP3     H1       HT       0.417000       1.00800           0
     33922 TIP3     8002     TIP3     H2       HT       0.417000       1.00800           0
     33923 TIP3     8003     TIP3     OH2      OT      -0.834000       15.9994           0
     33924 TIP3     8003     TIP3     H1       HT       0.417000       1.00800           0
     33925 TIP3     8003     TIP3     H2       HT       0.417000       1.00800           0
     33926 TIP3     8004     TIP3     OH2      OT      -0.834000       15.9994           0
     33927 TIP3     8004     TIP3     H1       HT       0.417000       1.00800           0
     33928 TIP3     8004     TIP3     H2       HT       0.417000       1.00800           0
     33929 TIP3     8005     TIP3     OH2      OT      -0.834000       15.9994           0
     33930 TIP3     8005     TIP3     H1       HT       0.417000       1.00800           0
     33931 TIP3     8005     TIP3     H2       HT       0.417000       1.00800           0
     33932 TIP3     8006     TIP3     OH2      OT      -0.834000       15.9994           0
     33933 TIP3     8006     TIP3     H1       HT       0.417000       1.00800           0
     33934 TIP3     8006     TIP3     H2       HT       0.417000       1.00800           0
     33935 TIP3     8007     TIP3     OH2      OT      -0.834000       15.9994           0
     33936 TIP3     8007     TIP3     H1       HT       0.417000       1.00800           0
     33937 TIP3     8007     TIP3     H2       HT       0.417000       1.00800           0
     33938 TIP3     8008     TIP3     OH2      OT      -0.834000       15.9994           0
     33939 TIP3     8008     TIP3     H1       HT       0.417000       1.00800           0
     33940 TIP3     8008     TIP3     H2       HT       0.417000       1.00800           0
     33941 TIP3     8009     TIP3     OH2      OT      -0.834000       15.9994           0
     33942 TIP3     8009     TIP3     H1       HT       0.417000       1.00800           0
     33943 TIP3     8009     TIP3     H2       HT       0.417000       1.00800           0
     33944 TIP3     8010     TIP3     OH2      OT      -0.834000       15.9994           0
     33945 TIP3     8010     TIP3     H1       HT       0.417000       1.00800           0
     33946 TIP3     8010     TIP3     H2       HT       0.417000       1.00800           0
     33947 TIP3     8011     TIP3     OH2      OT      -0.834000       15.9994           0
     33948 TIP3     8011     TIP3     H1       HT       0.417000       1.00800           0
     33949 TIP3     8011     TIP3     H2       HT       0.417000       1.00800           0
     33950 TIP3     8012     TIP3     OH2      OT      -0.834000       15.9994           0
     33951 TIP3     8012     TIP3     H1       HT       0.417000       1.00800           0
     33952 TIP3     8012     TIP3     H2       HT       0.417000       1.00800           0
     33953 TIP3     8013     TIP3     OH2      OT      -0.834000       15.9994           0
     33954 TIP3     8013     TIP3     H1       HT       0.417000       1.00800           0
     33955 TIP3     8013     TIP3     H2       HT       0.417000       1.00800           0
     33956 TIP3     8014     TIP3     OH2      OT      -0.834000       15.9994           0
     33957 TIP3     8014     TIP3     H1       HT       0.417000       1.00800           0
     33958 TIP3     8014     TIP3     H2       HT       0.417000       1.00800           0
     33959 TIP3     8015     TIP3     OH2      OT      -0.834000       15.9994           0
     33960 TIP3     8015     TIP3     H1       HT       0.417000       1.00800           0
     33961 TIP3     8015     TIP3     H2       HT       0.417000       1.00800           0
     33962 TIP3     8016     TIP3     OH2      OT      -0.834000       15.9994           0
     33963 TIP3     8016     TIP3     H1       HT       0.417000       1.00800           0
     33964 TIP3     8016     TIP3     H2       HT       0.417000       1.00800           0
     33965 TIP3     8017     TIP3     OH2      OT      -0.834000       15.9994           0
     33966 TIP3     8017     TIP3     H1       HT       0.417000       1.00800           0
     33967 TIP3     8017     TIP3     H2       HT       0.417000       1.00800           0
     33968 TIP3     8018     TIP3     OH2      OT      -0.834000       15.9994           0
     33969 TIP3     8018     TIP3     H1       HT       0.417000       1.00800           0
     33970 TIP3     8018     TIP3     H2       HT       0.417000       1.00800           0
     33971 TIP3     8019     TIP3     OH2      OT      -0.834000       15.9994           0
     33972 TIP3     8019     TIP3     H1       HT       0.417000       1.00800           0
     33973 TIP3     8019     TIP3     H2       HT       0.417000       1.00800           0
     33974 TIP3     8020     TIP3     OH2      OT      -0.834000       15.9994           0
     33975 TIP3     8020     TIP3     H1       HT       0.417000       1.00800           0
     33976 TIP3     8020     TIP3     H2       HT       0.417000       1.00800           0
     33977 TIP3     8021     TIP3     OH2      OT      -0.834000       15.9994           0
     33978 TIP3     8021     TIP3     H1       HT       0.417000       1.00800           0
     33979 TIP3     8021     TIP3     H2       HT       0.417000       1.00800           0
     33980 TIP3     8022     TIP3     OH2      OT      -0.834000       15.9994           0
     33981 TIP3     8022     TIP3     H1       HT       0.417000       1.00800           0
     33982 TIP3     8022     TIP3     H2       HT       0.417000       1.00800           0
     33983 TIP3     8023     TIP3     OH2      OT      -0.834000       15.9994           0
     33984 TIP3     8023     TIP3     H1       HT       0.417000       1.00800           0
     33985 TIP3     8023     TIP3     H2       HT       0.417000       1.00800           0
     33986 TIP3     8024     TIP3     OH2      OT      -0.834000       15.9994           0
     33987 TIP3     8024     TIP3     H1       HT       0.417000       1.00800           0
     33988 TIP3     8024     TIP3     H2       HT       0.417000       1.00800           0
     33989 TIP3     8025     TIP3     OH2      OT      -0.834000       15.9994           0
     33990 TIP3     8025     TIP3     H1       HT       0.417000       1.00800           0
     33991 TIP3     8025     TIP3     H2       HT       0.417000       1.00800           0
     33992 TIP3     8026     TIP3     OH2      OT      -0.834000       15.9994           0
     33993 TIP3     8026     TIP3     H1       HT       0.417000       1.00800           0
     33994 TIP3     8026     TIP3     H2       HT       0.417000       1.00800           0
     33995 TIP3     8027     TIP3     OH2      OT      -0.834000       15.9994           0
     33996 TIP3     8027     TIP3     H1       HT       0.417000       1.00800           0
     33997 TIP3     8027     TIP3     H2       HT       0.417000       1.00800           0
     33998 TIP3     8028     TIP3     OH2      OT      -0.834000       15.9994           0
     33999 TIP3     8028     TIP3     H1       HT       0.417000       1.00800           0
     34000 TIP3     8028     TIP3     H2       HT       0.417000       1.00800           0
     34001 TIP3     8029     TIP3     OH2      OT      -0.834000       15.9994           0
     34002 TIP3     8029     TIP3     H1       HT       0.417000       1.00800           0
     34003 TIP3     8029     TIP3     H2       HT       0.417000       1.00800           0
     34004 TIP3     8030     TIP3     OH2      OT      -0.834000       15.9994           0
     34005 TIP3     8030     TIP3     H1       HT       0.417000       1.00800           0
     34006 TIP3     8030     TIP3     H2       HT       0.417000       1.00800           0
     34007 TIP3     8031     TIP3     OH2      OT      -0.834000       15.9994           0
     34008 TIP3     8031     TIP3     H1       HT       0.417000       1.00800           0
     34009 TIP3     8031     TIP3     H2       HT       0.417000       1.00800           0
     34010 TIP3     8032     TIP3     OH2      OT      -0.834000       15.9994           0
     34011 TIP3     8032     TIP3     H1       HT       0.417000       1.00800           0
     34012 TIP3     8032     TIP3     H2       HT       0.417000       1.00800           0
     34013 TIP3     8033     TIP3     OH2      OT      -0.834000       15.9994           0
     34014 TIP3     8033     TIP3     H1       HT       0.417000       1.00800           0
     34015 TIP3     8033     TIP3     H2       HT       0.417000       1.00800           0
     34016 TIP3     8034     TIP3     OH2      OT      -0.834000       15.9994           0
     34017 TIP3     8034     TIP3     H1       HT       0.417000       1.00800           0
     34018 TIP3     8034     TIP3     H2       HT       0.417000       1.00800           0
     34019 TIP3     8035     TIP3     OH2      OT      -0.834000       15.9994           0
     34020 TIP3     8035     TIP3     H1       HT       0.417000       1.00800           0
     34021 TIP3     8035     TIP3     H2       HT       0.417000       1.00800           0
     34022 TIP3     8036     TIP3     OH2      OT      -0.834000       15.9994           0
     34023 TIP3     8036     TIP3     H1       HT       0.417000       1.00800           0
     34024 TIP3     8036     TIP3     H2       HT       0.417000       1.00800           0
     34025 TIP3     8037     TIP3     OH2      OT      -0.834000       15.9994           0
     34026 TIP3     8037     TIP3     H1       HT       0.417000       1.00800           0
     34027 TIP3     8037     TIP3     H2       HT       0.417000       1.00800           0
     34028 TIP3     8038     TIP3     OH2      OT      -0.834000       15.9994           0
     34029 TIP3     8038     TIP3     H1       HT       0.417000       1.00800           0
     34030 TIP3     8038     TIP3     H2       HT       0.417000       1.00800           0
     34031 TIP3     8039     TIP3     OH2      OT      -0.834000       15.9994           0
     34032 TIP3     8039     TIP3     H1       HT       0.417000       1.00800           0
     34033 TIP3     8039     TIP3     H2       HT       0.417000       1.00800           0
     34034 TIP3     8040     TIP3     OH2      OT      -0.834000       15.9994           0
     34035 TIP3     8040     TIP3     H1       HT       0.417000       1.00800           0
     34036 TIP3     8040     TIP3     H2       HT       0.417000       1.00800           0
     34037 TIP3     8041     TIP3     OH2      OT      -0.834000       15.9994           0
     34038 TIP3     8041     TIP3     H1       HT       0.417000       1.00800           0
     34039 TIP3     8041     TIP3     H2       HT       0.417000       1.00800           0
     34040 TIP3     8042     TIP3     OH2      OT      -0.834000       15.9994           0
     34041 TIP3     8042     TIP3     H1       HT       0.417000       1.00800           0
     34042 TIP3     8042     TIP3     H2       HT       0.417000       1.00800           0
     34043 TIP3     8043     TIP3     OH2      OT      -0.834000       15.9994           0
     34044 TIP3     8043     TIP3     H1       HT       0.417000       1.00800           0
     34045 TIP3     8043     TIP3     H2       HT       0.417000       1.00800           0
     34046 TIP3     8044     TIP3     OH2      OT      -0.834000       15.9994           0
     34047 TIP3     8044     TIP3     H1       HT       0.417000       1.00800           0
     34048 TIP3     8044     TIP3     H2       HT       0.417000       1.00800           0
     34049 TIP3     8045     TIP3     OH2      OT      -0.834000       15.9994           0
     34050 TIP3     8045     TIP3     H1       HT       0.417000       1.00800           0
     34051 TIP3     8045     TIP3     H2       HT       0.417000       1.00800           0
     34052 TIP3     8046     TIP3     OH2      OT      -0.834000       15.9994           0
     34053 TIP3     8046     TIP3     H1       HT       0.417000       1.00800           0
     34054 TIP3     8046     TIP3     H2       HT       0.417000       1.00800           0
     34055 TIP3     8047     TIP3     OH2      OT      -0.834000       15.9994           0
     34056 TIP3     8047     TIP3     H1       HT       0.417000       1.00800           0
     34057 TIP3     8047     TIP3     H2       HT       0.417000       1.00800           0
     34058 TIP3     8048     TIP3     OH2      OT      -0.834000       15.9994           0
     34059 TIP3     8048     TIP3     H1       HT       0.417000       1.00800           0
     34060 TIP3     8048     TIP3     H2       HT       0.417000       1.00800           0
     34061 TIP3     8049     TIP3     OH2      OT      -0.834000       15.9994           0
     34062 TIP3     8049     TIP3     H1       HT       0.417000       1.00800           0
     34063 TIP3     8049     TIP3     H2       HT       0.417000       1.00800           0
     34064 TIP3     8050     TIP3     OH2      OT      -0.834000       15.9994           0
     34065 TIP3     8050     TIP3     H1       HT       0.417000       1.00800           0
     34066 TIP3     8050     TIP3     H2       HT       0.417000       1.00800           0
     34067 TIP3     8051     TIP3     OH2      OT      -0.834000       15.9994           0
     34068 TIP3     8051     TIP3     H1       HT       0.417000       1.00800           0
     34069 TIP3     8051     TIP3     H2       HT       0.417000       1.00800           0
     34070 TIP3     8052     TIP3     OH2      OT      -0.834000       15.9994           0
     34071 TIP3     8052     TIP3     H1       HT       0.417000       1.00800           0
     34072 TIP3     8052     TIP3     H2       HT       0.417000       1.00800           0
     34073 TIP3     8053     TIP3     OH2      OT      -0.834000       15.9994           0
     34074 TIP3     8053     TIP3     H1       HT       0.417000       1.00800           0
     34075 TIP3     8053     TIP3     H2       HT       0.417000       1.00800           0
     34076 TIP3     8054     TIP3     OH2      OT      -0.834000       15.9994           0
     34077 TIP3     8054     TIP3     H1       HT       0.417000       1.00800           0
     34078 TIP3     8054     TIP3     H2       HT       0.417000       1.00800           0
     34079 TIP3     8055     TIP3     OH2      OT      -0.834000       15.9994           0
     34080 TIP3     8055     TIP3     H1       HT       0.417000       1.00800           0
     34081 TIP3     8055     TIP3     H2       HT       0.417000       1.00800           0
     34082 TIP3     8056     TIP3     OH2      OT      -0.834000       15.9994           0
     34083 TIP3     8056     TIP3     H1       HT       0.417000       1.00800           0
     34084 TIP3     8056     TIP3     H2       HT       0.417000       1.00800           0
     34085 TIP3     8057     TIP3     OH2      OT      -0.834000       15.9994           0
     34086 TIP3     8057     TIP3     H1       HT       0.417000       1.00800           0
     34087 TIP3     8057     TIP3     H2       HT       0.417000       1.00800           0
     34088 TIP3     8058     TIP3     OH2      OT      -0.834000       15.9994           0
     34089 TIP3     8058     TIP3     H1       HT       0.417000       1.00800           0
     34090 TIP3     8058     TIP3     H2       HT       0.417000       1.00800           0
     34091 TIP3     8059     TIP3     OH2      OT      -0.834000       15.9994           0
     34092 TIP3     8059     TIP3     H1       HT       0.417000       1.00800           0
     34093 TIP3     8059     TIP3     H2       HT       0.417000       1.00800           0
     34094 TIP3     8060     TIP3     OH2      OT      -0.834000       15.9994           0
     34095 TIP3     8060     TIP3     H1       HT       0.417000       1.00800           0
     34096 TIP3     8060     TIP3     H2       HT       0.417000       1.00800           0
     34097 TIP3     8061     TIP3     OH2      OT      -0.834000       15.9994           0
     34098 TIP3     8061     TIP3     H1       HT       0.417000       1.00800           0
     34099 TIP3     8061     TIP3     H2       HT       0.417000       1.00800           0
     34100 TIP3     8062     TIP3     OH2      OT      -0.834000       15.9994           0
     34101 TIP3     8062     TIP3     H1       HT       0.417000       1.00800           0
     34102 TIP3     8062     TIP3     H2       HT       0.417000       1.00800           0
     34103 TIP3     8063     TIP3     OH2      OT      -0.834000       15.9994           0
     34104 TIP3     8063     TIP3     H1       HT       0.417000       1.00800           0
     34105 TIP3     8063     TIP3     H2       HT       0.417000       1.00800           0
     34106 TIP3     8064     TIP3     OH2      OT      -0.834000       15.9994           0
     34107 TIP3     8064     TIP3     H1       HT       0.417000       1.00800           0
     34108 TIP3     8064     TIP3     H2       HT       0.417000       1.00800           0
     34109 TIP3     8065     TIP3     OH2      OT      -0.834000       15.9994           0
     34110 TIP3     8065     TIP3     H1       HT       0.417000       1.00800           0
     34111 TIP3     8065     TIP3     H2       HT       0.417000       1.00800           0
     34112 TIP3     8066     TIP3     OH2      OT      -0.834000       15.9994           0
     34113 TIP3     8066     TIP3     H1       HT       0.417000       1.00800           0
     34114 TIP3     8066     TIP3     H2       HT       0.417000       1.00800           0
     34115 TIP3     8067     TIP3     OH2      OT      -0.834000       15.9994           0
     34116 TIP3     8067     TIP3     H1       HT       0.417000       1.00800           0
     34117 TIP3     8067     TIP3     H2       HT       0.417000       1.00800           0
     34118 TIP3     8068     TIP3     OH2      OT      -0.834000       15.9994           0
     34119 TIP3     8068     TIP3     H1       HT       0.417000       1.00800           0
     34120 TIP3     8068     TIP3     H2       HT       0.417000       1.00800           0
     34121 TIP3     8069     TIP3     OH2      OT      -0.834000       15.9994           0
     34122 TIP3     8069     TIP3     H1       HT       0.417000       1.00800           0
     34123 TIP3     8069     TIP3     H2       HT       0.417000       1.00800           0
     34124 TIP3     8070     TIP3     OH2      OT      -0.834000       15.9994           0
     34125 TIP3     8070     TIP3     H1       HT       0.417000       1.00800           0
     34126 TIP3     8070     TIP3     H2       HT       0.417000       1.00800           0
     34127 TIP3     8071     TIP3     OH2      OT      -0.834000       15.9994           0
     34128 TIP3     8071     TIP3     H1       HT       0.417000       1.00800           0
     34129 TIP3     8071     TIP3     H2       HT       0.417000       1.00800           0
     34130 TIP3     8072     TIP3     OH2      OT      -0.834000       15.9994           0
     34131 TIP3     8072     TIP3     H1       HT       0.417000       1.00800           0
     34132 TIP3     8072     TIP3     H2       HT       0.417000       1.00800           0
     34133 TIP3     8073     TIP3     OH2      OT      -0.834000       15.9994           0
     34134 TIP3     8073     TIP3     H1       HT       0.417000       1.00800           0
     34135 TIP3     8073     TIP3     H2       HT       0.417000       1.00800           0
     34136 TIP3     8074     TIP3     OH2      OT      -0.834000       15.9994           0
     34137 TIP3     8074     TIP3     H1       HT       0.417000       1.00800           0
     34138 TIP3     8074     TIP3     H2       HT       0.417000       1.00800           0
     34139 TIP3     8075     TIP3     OH2      OT      -0.834000       15.9994           0
     34140 TIP3     8075     TIP3     H1       HT       0.417000       1.00800           0
     34141 TIP3     8075     TIP3     H2       HT       0.417000       1.00800           0
     34142 TIP3     8076     TIP3     OH2      OT      -0.834000       15.9994           0
     34143 TIP3     8076     TIP3     H1       HT       0.417000       1.00800           0
     34144 TIP3     8076     TIP3     H2       HT       0.417000       1.00800           0
     34145 TIP3     8077     TIP3     OH2      OT      -0.834000       15.9994           0
     34146 TIP3     8077     TIP3     H1       HT       0.417000       1.00800           0
     34147 TIP3     8077     TIP3     H2       HT       0.417000       1.00800           0
     34148 TIP3     8078     TIP3     OH2      OT      -0.834000       15.9994           0
     34149 TIP3     8078     TIP3     H1       HT       0.417000       1.00800           0
     34150 TIP3     8078     TIP3     H2       HT       0.417000       1.00800           0
     34151 TIP3     8079     TIP3     OH2      OT      -0.834000       15.9994           0
     34152 TIP3     8079     TIP3     H1       HT       0.417000       1.00800           0
     34153 TIP3     8079     TIP3     H2       HT       0.417000       1.00800           0
     34154 TIP3     8080     TIP3     OH2      OT      -0.834000       15.9994           0
     34155 TIP3     8080     TIP3     H1       HT       0.417000       1.00800           0
     34156 TIP3     8080     TIP3     H2       HT       0.417000       1.00800           0
     34157 TIP3     8081     TIP3     OH2      OT      -0.834000       15.9994           0
     34158 TIP3     8081     TIP3     H1       HT       0.417000       1.00800           0
     34159 TIP3     8081     TIP3     H2       HT       0.417000       1.00800           0
     34160 TIP3     8082     TIP3     OH2      OT      -0.834000       15.9994           0
     34161 TIP3     8082     TIP3     H1       HT       0.417000       1.00800           0
     34162 TIP3     8082     TIP3     H2       HT       0.417000       1.00800           0
     34163 TIP3     8083     TIP3     OH2      OT      -0.834000       15.9994           0
     34164 TIP3     8083     TIP3     H1       HT       0.417000       1.00800           0
     34165 TIP3     8083     TIP3     H2       HT       0.417000       1.00800           0
     34166 TIP3     8084     TIP3     OH2      OT      -0.834000       15.9994           0
     34167 TIP3     8084     TIP3     H1       HT       0.417000       1.00800           0
     34168 TIP3     8084     TIP3     H2       HT       0.417000       1.00800           0
     34169 TIP3     8085     TIP3     OH2      OT      -0.834000       15.9994           0
     34170 TIP3     8085     TIP3     H1       HT       0.417000       1.00800           0
     34171 TIP3     8085     TIP3     H2       HT       0.417000       1.00800           0
     34172 TIP3     8086     TIP3     OH2      OT      -0.834000       15.9994           0
     34173 TIP3     8086     TIP3     H1       HT       0.417000       1.00800           0
     34174 TIP3     8086     TIP3     H2       HT       0.417000       1.00800           0
     34175 TIP3     8087     TIP3     OH2      OT      -0.834000       15.9994           0
     34176 TIP3     8087     TIP3     H1       HT       0.417000       1.00800           0
     34177 TIP3     8087     TIP3     H2       HT       0.417000       1.00800           0
     34178 TIP3     8088     TIP3     OH2      OT      -0.834000       15.9994           0
     34179 TIP3     8088     TIP3     H1       HT       0.417000       1.00800           0
     34180 TIP3     8088     TIP3     H2       HT       0.417000       1.00800           0
     34181 TIP3     8089     TIP3     OH2      OT      -0.834000       15.9994           0
     34182 TIP3     8089     TIP3     H1       HT       0.417000       1.00800           0
     34183 TIP3     8089     TIP3     H2       HT       0.417000       1.00800           0
     34184 TIP3     8090     TIP3     OH2      OT      -0.834000       15.9994           0
     34185 TIP3     8090     TIP3     H1       HT       0.417000       1.00800           0
     34186 TIP3     8090     TIP3     H2       HT       0.417000       1.00800           0
     34187 TIP3     8091     TIP3     OH2      OT      -0.834000       15.9994           0
     34188 TIP3     8091     TIP3     H1       HT       0.417000       1.00800           0
     34189 TIP3     8091     TIP3     H2       HT       0.417000       1.00800           0
     34190 TIP3     8092     TIP3     OH2      OT      -0.834000       15.9994           0
     34191 TIP3     8092     TIP3     H1       HT       0.417000       1.00800           0
     34192 TIP3     8092     TIP3     H2       HT       0.417000       1.00800           0
     34193 TIP3     8093     TIP3     OH2      OT      -0.834000       15.9994           0
     34194 TIP3     8093     TIP3     H1       HT       0.417000       1.00800           0
     34195 TIP3     8093     TIP3     H2       HT       0.417000       1.00800           0
     34196 TIP3     8094     TIP3     OH2      OT      -0.834000       15.9994           0
     34197 TIP3     8094     TIP3     H1       HT       0.417000       1.00800           0
     34198 TIP3     8094     TIP3     H2       HT       0.417000       1.00800           0
     34199 TIP3     8095     TIP3     OH2      OT      -0.834000       15.9994           0
     34200 TIP3     8095     TIP3     H1       HT       0.417000       1.00800           0
     34201 TIP3     8095     TIP3     H2       HT       0.417000       1.00800           0
     34202 TIP3     8096     TIP3     OH2      OT      -0.834000       15.9994           0
     34203 TIP3     8096     TIP3     H1       HT       0.417000       1.00800           0
     34204 TIP3     8096     TIP3     H2       HT       0.417000       1.00800           0
     34205 TIP3     8097     TIP3     OH2      OT      -0.834000       15.9994           0
     34206 TIP3     8097     TIP3     H1       HT       0.417000       1.00800           0
     34207 TIP3     8097     TIP3     H2       HT       0.417000       1.00800           0
     34208 TIP3     8098     TIP3     OH2      OT      -0.834000       15.9994           0
     34209 TIP3     8098     TIP3     H1       HT       0.417000       1.00800           0
     34210 TIP3     8098     TIP3     H2       HT       0.417000       1.00800           0
     34211 TIP3     8099     TIP3     OH2      OT      -0.834000       15.9994           0
     34212 TIP3     8099     TIP3     H1       HT       0.417000       1.00800           0
     34213 TIP3     8099     TIP3     H2       HT       0.417000       1.00800           0
     34214 TIP3     8100     TIP3     OH2      OT      -0.834000       15.9994           0
     34215 TIP3     8100     TIP3     H1       HT       0.417000       1.00800           0
     34216 TIP3     8100     TIP3     H2       HT       0.417000       1.00800           0
     34217 TIP3     8101     TIP3     OH2      OT      -0.834000       15.9994           0
     34218 TIP3     8101     TIP3     H1       HT       0.417000       1.00800           0
     34219 TIP3     8101     TIP3     H2       HT       0.417000       1.00800           0
     34220 TIP3     8102     TIP3     OH2      OT      -0.834000       15.9994           0
     34221 TIP3     8102     TIP3     H1       HT       0.417000       1.00800           0
     34222 TIP3     8102     TIP3     H2       HT       0.417000       1.00800           0
     34223 TIP3     8103     TIP3     OH2      OT      -0.834000       15.9994           0
     34224 TIP3     8103     TIP3     H1       HT       0.417000       1.00800           0
     34225 TIP3     8103     TIP3     H2       HT       0.417000       1.00800           0
     34226 TIP3     8104     TIP3     OH2      OT      -0.834000       15.9994           0
     34227 TIP3     8104     TIP3     H1       HT       0.417000       1.00800           0
     34228 TIP3     8104     TIP3     H2       HT       0.417000       1.00800           0
     34229 TIP3     8105     TIP3     OH2      OT      -0.834000       15.9994           0
     34230 TIP3     8105     TIP3     H1       HT       0.417000       1.00800           0
     34231 TIP3     8105     TIP3     H2       HT       0.417000       1.00800           0
     34232 TIP3     8106     TIP3     OH2      OT      -0.834000       15.9994           0
     34233 TIP3     8106     TIP3     H1       HT       0.417000       1.00800           0
     34234 TIP3     8106     TIP3     H2       HT       0.417000       1.00800           0
     34235 TIP3     8107     TIP3     OH2      OT      -0.834000       15.9994           0
     34236 TIP3     8107     TIP3     H1       HT       0.417000       1.00800           0
     34237 TIP3     8107     TIP3     H2       HT       0.417000       1.00800           0
     34238 TIP3     8108     TIP3     OH2      OT      -0.834000       15.9994           0
     34239 TIP3     8108     TIP3     H1       HT       0.417000       1.00800           0
     34240 TIP3     8108     TIP3     H2       HT       0.417000       1.00800           0
     34241 TIP3     8109     TIP3     OH2      OT      -0.834000       15.9994           0
     34242 TIP3     8109     TIP3     H1       HT       0.417000       1.00800           0
     34243 TIP3     8109     TIP3     H2       HT       0.417000       1.00800           0
     34244 TIP3     8110     TIP3     OH2      OT      -0.834000       15.9994           0
     34245 TIP3     8110     TIP3     H1       HT       0.417000       1.00800           0
     34246 TIP3     8110     TIP3     H2       HT       0.417000       1.00800           0
     34247 TIP3     8111     TIP3     OH2      OT      -0.834000       15.9994           0
     34248 TIP3     8111     TIP3     H1       HT       0.417000       1.00800           0
     34249 TIP3     8111     TIP3     H2       HT       0.417000       1.00800           0
     34250 TIP3     8112     TIP3     OH2      OT      -0.834000       15.9994           0
     34251 TIP3     8112     TIP3     H1       HT       0.417000       1.00800           0
     34252 TIP3     8112     TIP3     H2       HT       0.417000       1.00800           0
     34253 TIP3     8113     TIP3     OH2      OT      -0.834000       15.9994           0
     34254 TIP3     8113     TIP3     H1       HT       0.417000       1.00800           0
     34255 TIP3     8113     TIP3     H2       HT       0.417000       1.00800           0
     34256 TIP3     8114     TIP3     OH2      OT      -0.834000       15.9994           0
     34257 TIP3     8114     TIP3     H1       HT       0.417000       1.00800           0
     34258 TIP3     8114     TIP3     H2       HT       0.417000       1.00800           0
     34259 TIP3     8115     TIP3     OH2      OT      -0.834000       15.9994           0
     34260 TIP3     8115     TIP3     H1       HT       0.417000       1.00800           0
     34261 TIP3     8115     TIP3     H2       HT       0.417000       1.00800           0
     34262 TIP3     8116     TIP3     OH2      OT      -0.834000       15.9994           0
     34263 TIP3     8116     TIP3     H1       HT       0.417000       1.00800           0
     34264 TIP3     8116     TIP3     H2       HT       0.417000       1.00800           0
     34265 TIP3     8117     TIP3     OH2      OT      -0.834000       15.9994           0
     34266 TIP3     8117     TIP3     H1       HT       0.417000       1.00800           0
     34267 TIP3     8117     TIP3     H2       HT       0.417000       1.00800           0
     34268 TIP3     8118     TIP3     OH2      OT      -0.834000       15.9994           0
     34269 TIP3     8118     TIP3     H1       HT       0.417000       1.00800           0
     34270 TIP3     8118     TIP3     H2       HT       0.417000       1.00800           0
     34271 TIP3     8119     TIP3     OH2      OT      -0.834000       15.9994           0
     34272 TIP3     8119     TIP3     H1       HT       0.417000       1.00800           0
     34273 TIP3     8119     TIP3     H2       HT       0.417000       1.00800           0
     34274 TIP3     8120     TIP3     OH2      OT      -0.834000       15.9994           0
     34275 TIP3     8120     TIP3     H1       HT       0.417000       1.00800           0
     34276 TIP3     8120     TIP3     H2       HT       0.417000       1.00800           0
     34277 TIP3     8121     TIP3     OH2      OT      -0.834000       15.9994           0
     34278 TIP3     8121     TIP3     H1       HT       0.417000       1.00800           0
     34279 TIP3     8121     TIP3     H2       HT       0.417000       1.00800           0
     34280 TIP3     8122     TIP3     OH2      OT      -0.834000       15.9994           0
     34281 TIP3     8122     TIP3     H1       HT       0.417000       1.00800           0
     34282 TIP3     8122     TIP3     H2       HT       0.417000       1.00800           0
     34283 TIP3     8123     TIP3     OH2      OT      -0.834000       15.9994           0
     34284 TIP3     8123     TIP3     H1       HT       0.417000       1.00800           0
     34285 TIP3     8123     TIP3     H2       HT       0.417000       1.00800           0
     34286 TIP3     8124     TIP3     OH2      OT      -0.834000       15.9994           0
     34287 TIP3     8124     TIP3     H1       HT       0.417000       1.00800           0
     34288 TIP3     8124     TIP3     H2       HT       0.417000       1.00800           0
     34289 TIP3     8125     TIP3     OH2      OT      -0.834000       15.9994           0
     34290 TIP3     8125     TIP3     H1       HT       0.417000       1.00800           0
     34291 TIP3     8125     TIP3     H2       HT       0.417000       1.00800           0
     34292 TIP3     8126     TIP3     OH2      OT      -0.834000       15.9994           0
     34293 TIP3     8126     TIP3     H1       HT       0.417000       1.00800           0
     34294 TIP3     8126     TIP3     H2       HT       0.417000       1.00800           0
     34295 TIP3     8127     TIP3     OH2      OT      -0.834000       15.9994           0
     34296 TIP3     8127     TIP3     H1       HT       0.417000       1.00800           0
     34297 TIP3     8127     TIP3     H2       HT       0.417000       1.00800           0
     34298 TIP3     8128     TIP3     OH2      OT      -0.834000       15.9994           0
     34299 TIP3     8128     TIP3     H1       HT       0.417000       1.00800           0
     34300 TIP3     8128     TIP3     H2       HT       0.417000       1.00800           0
     34301 TIP3     8129     TIP3     OH2      OT      -0.834000       15.9994           0
     34302 TIP3     8129     TIP3     H1       HT       0.417000       1.00800           0
     34303 TIP3     8129     TIP3     H2       HT       0.417000       1.00800           0
     34304 TIP3     8130     TIP3     OH2      OT      -0.834000       15.9994           0
     34305 TIP3     8130     TIP3     H1       HT       0.417000       1.00800           0
     34306 TIP3     8130     TIP3     H2       HT       0.417000       1.00800           0
     34307 TIP3     8131     TIP3     OH2      OT      -0.834000       15.9994           0
     34308 TIP3     8131     TIP3     H1       HT       0.417000       1.00800           0
     34309 TIP3     8131     TIP3     H2       HT       0.417000       1.00800           0
     34310 TIP3     8132     TIP3     OH2      OT      -0.834000       15.9994           0
     34311 TIP3     8132     TIP3     H1       HT       0.417000       1.00800           0
     34312 TIP3     8132     TIP3     H2       HT       0.417000       1.00800           0
     34313 TIP3     8133     TIP3     OH2      OT      -0.834000       15.9994           0
     34314 TIP3     8133     TIP3     H1       HT       0.417000       1.00800           0
     34315 TIP3     8133     TIP3     H2       HT       0.417000       1.00800           0
     34316 TIP3     8134     TIP3     OH2      OT      -0.834000       15.9994           0
     34317 TIP3     8134     TIP3     H1       HT       0.417000       1.00800           0
     34318 TIP3     8134     TIP3     H2       HT       0.417000       1.00800           0
     34319 TIP3     8135     TIP3     OH2      OT      -0.834000       15.9994           0
     34320 TIP3     8135     TIP3     H1       HT       0.417000       1.00800           0
     34321 TIP3     8135     TIP3     H2       HT       0.417000       1.00800           0
     34322 TIP3     8136     TIP3     OH2      OT      -0.834000       15.9994           0
     34323 TIP3     8136     TIP3     H1       HT       0.417000       1.00800           0
     34324 TIP3     8136     TIP3     H2       HT       0.417000       1.00800           0
     34325 TIP3     8137     TIP3     OH2      OT      -0.834000       15.9994           0
     34326 TIP3     8137     TIP3     H1       HT       0.417000       1.00800           0
     34327 TIP3     8137     TIP3     H2       HT       0.417000       1.00800           0
     34328 TIP3     8138     TIP3     OH2      OT      -0.834000       15.9994           0
     34329 TIP3     8138     TIP3     H1       HT       0.417000       1.00800           0
     34330 TIP3     8138     TIP3     H2       HT       0.417000       1.00800           0
     34331 TIP3     8139     TIP3     OH2      OT      -0.834000       15.9994           0
     34332 TIP3     8139     TIP3     H1       HT       0.417000       1.00800           0
     34333 TIP3     8139     TIP3     H2       HT       0.417000       1.00800           0
     34334 TIP3     8140     TIP3     OH2      OT      -0.834000       15.9994           0
     34335 TIP3     8140     TIP3     H1       HT       0.417000       1.00800           0
     34336 TIP3     8140     TIP3     H2       HT       0.417000       1.00800           0
     34337 TIP3     8141     TIP3     OH2      OT      -0.834000       15.9994           0
     34338 TIP3     8141     TIP3     H1       HT       0.417000       1.00800           0
     34339 TIP3     8141     TIP3     H2       HT       0.417000       1.00800           0
     34340 TIP3     8142     TIP3     OH2      OT      -0.834000       15.9994           0
     34341 TIP3     8142     TIP3     H1       HT       0.417000       1.00800           0
     34342 TIP3     8142     TIP3     H2       HT       0.417000       1.00800           0
     34343 TIP3     8143     TIP3     OH2      OT      -0.834000       15.9994           0
     34344 TIP3     8143     TIP3     H1       HT       0.417000       1.00800           0
     34345 TIP3     8143     TIP3     H2       HT       0.417000       1.00800           0
     34346 TIP3     8144     TIP3     OH2      OT      -0.834000       15.9994           0
     34347 TIP3     8144     TIP3     H1       HT       0.417000       1.00800           0
     34348 TIP3     8144     TIP3     H2       HT       0.417000       1.00800           0
     34349 TIP3     8145     TIP3     OH2      OT      -0.834000       15.9994           0
     34350 TIP3     8145     TIP3     H1       HT       0.417000       1.00800           0
     34351 TIP3     8145     TIP3     H2       HT       0.417000       1.00800           0
     34352 TIP3     8146     TIP3     OH2      OT      -0.834000       15.9994           0
     34353 TIP3     8146     TIP3     H1       HT       0.417000       1.00800           0
     34354 TIP3     8146     TIP3     H2       HT       0.417000       1.00800           0
     34355 TIP3     8147     TIP3     OH2      OT      -0.834000       15.9994           0
     34356 TIP3     8147     TIP3     H1       HT       0.417000       1.00800           0
     34357 TIP3     8147     TIP3     H2       HT       0.417000       1.00800           0
     34358 TIP3     8148     TIP3     OH2      OT      -0.834000       15.9994           0
     34359 TIP3     8148     TIP3     H1       HT       0.417000       1.00800           0
     34360 TIP3     8148     TIP3     H2       HT       0.417000       1.00800           0
     34361 TIP3     8149     TIP3     OH2      OT      -0.834000       15.9994           0
     34362 TIP3     8149     TIP3     H1       HT       0.417000       1.00800           0
     34363 TIP3     8149     TIP3     H2       HT       0.417000       1.00800           0
     34364 TIP3     8150     TIP3     OH2      OT      -0.834000       15.9994           0
     34365 TIP3     8150     TIP3     H1       HT       0.417000       1.00800           0
     34366 TIP3     8150     TIP3     H2       HT       0.417000       1.00800           0
     34367 TIP3     8151     TIP3     OH2      OT      -0.834000       15.9994           0
     34368 TIP3     8151     TIP3     H1       HT       0.417000       1.00800           0
     34369 TIP3     8151     TIP3     H2       HT       0.417000       1.00800           0
     34370 TIP3     8152     TIP3     OH2      OT      -0.834000       15.9994           0
     34371 TIP3     8152     TIP3     H1       HT       0.417000       1.00800           0
     34372 TIP3     8152     TIP3     H2       HT       0.417000       1.00800           0
     34373 TIP3     8153     TIP3     OH2      OT      -0.834000       15.9994           0
     34374 TIP3     8153     TIP3     H1       HT       0.417000       1.00800           0
     34375 TIP3     8153     TIP3     H2       HT       0.417000       1.00800           0
     34376 TIP3     8154     TIP3     OH2      OT      -0.834000       15.9994           0
     34377 TIP3     8154     TIP3     H1       HT       0.417000       1.00800           0
     34378 TIP3     8154     TIP3     H2       HT       0.417000       1.00800           0
     34379 TIP3     8155     TIP3     OH2      OT      -0.834000       15.9994           0
     34380 TIP3     8155     TIP3     H1       HT       0.417000       1.00800           0
     34381 TIP3     8155     TIP3     H2       HT       0.417000       1.00800           0
     34382 TIP3     8156     TIP3     OH2      OT      -0.834000       15.9994           0
     34383 TIP3     8156     TIP3     H1       HT       0.417000       1.00800           0
     34384 TIP3     8156     TIP3     H2       HT       0.417000       1.00800           0
     34385 TIP3     8157     TIP3     OH2      OT      -0.834000       15.9994           0
     34386 TIP3     8157     TIP3     H1       HT       0.417000       1.00800           0
     34387 TIP3     8157     TIP3     H2       HT       0.417000       1.00800           0
     34388 TIP3     8158     TIP3     OH2      OT      -0.834000       15.9994           0
     34389 TIP3     8158     TIP3     H1       HT       0.417000       1.00800           0
     34390 TIP3     8158     TIP3     H2       HT       0.417000       1.00800           0
     34391 TIP3     8159     TIP3     OH2      OT      -0.834000       15.9994           0
     34392 TIP3     8159     TIP3     H1       HT       0.417000       1.00800           0
     34393 TIP3     8159     TIP3     H2       HT       0.417000       1.00800           0
     34394 TIP3     8160     TIP3     OH2      OT      -0.834000       15.9994           0
     34395 TIP3     8160     TIP3     H1       HT       0.417000       1.00800           0
     34396 TIP3     8160     TIP3     H2       HT       0.417000       1.00800           0
     34397 TIP3     8161     TIP3     OH2      OT      -0.834000       15.9994           0
     34398 TIP3     8161     TIP3     H1       HT       0.417000       1.00800           0
     34399 TIP3     8161     TIP3     H2       HT       0.417000       1.00800           0
     34400 TIP3     8162     TIP3     OH2      OT      -0.834000       15.9994           0
     34401 TIP3     8162     TIP3     H1       HT       0.417000       1.00800           0
     34402 TIP3     8162     TIP3     H2       HT       0.417000       1.00800           0
     34403 TIP3     8163     TIP3     OH2      OT      -0.834000       15.9994           0
     34404 TIP3     8163     TIP3     H1       HT       0.417000       1.00800           0
     34405 TIP3     8163     TIP3     H2       HT       0.417000       1.00800           0
     34406 TIP3     8164     TIP3     OH2      OT      -0.834000       15.9994           0
     34407 TIP3     8164     TIP3     H1       HT       0.417000       1.00800           0
     34408 TIP3     8164     TIP3     H2       HT       0.417000       1.00800           0
     34409 TIP3     8165     TIP3     OH2      OT      -0.834000       15.9994           0
     34410 TIP3     8165     TIP3     H1       HT       0.417000       1.00800           0
     34411 TIP3     8165     TIP3     H2       HT       0.417000       1.00800           0
     34412 TIP3     8166     TIP3     OH2      OT      -0.834000       15.9994           0
     34413 TIP3     8166     TIP3     H1       HT       0.417000       1.00800           0
     34414 TIP3     8166     TIP3     H2       HT       0.417000       1.00800           0
     34415 TIP3     8167     TIP3     OH2      OT      -0.834000       15.9994           0
     34416 TIP3     8167     TIP3     H1       HT       0.417000       1.00800           0
     34417 TIP3     8167     TIP3     H2       HT       0.417000       1.00800           0
     34418 TIP3     8168     TIP3     OH2      OT      -0.834000       15.9994           0
     34419 TIP3     8168     TIP3     H1       HT       0.417000       1.00800           0
     34420 TIP3     8168     TIP3     H2       HT       0.417000       1.00800           0
     34421 TIP3     8169     TIP3     OH2      OT      -0.834000       15.9994           0
     34422 TIP3     8169     TIP3     H1       HT       0.417000       1.00800           0
     34423 TIP3     8169     TIP3     H2       HT       0.417000       1.00800           0
     34424 TIP3     8170     TIP3     OH2      OT      -0.834000       15.9994           0
     34425 TIP3     8170     TIP3     H1       HT       0.417000       1.00800           0
     34426 TIP3     8170     TIP3     H2       HT       0.417000       1.00800           0
     34427 TIP3     8171     TIP3     OH2      OT      -0.834000       15.9994           0
     34428 TIP3     8171     TIP3     H1       HT       0.417000       1.00800           0
     34429 TIP3     8171     TIP3     H2       HT       0.417000       1.00800           0
     34430 TIP3     8172     TIP3     OH2      OT      -0.834000       15.9994           0
     34431 TIP3     8172     TIP3     H1       HT       0.417000       1.00800           0
     34432 TIP3     8172     TIP3     H2       HT       0.417000       1.00800           0
     34433 TIP3     8173     TIP3     OH2      OT      -0.834000       15.9994           0
     34434 TIP3     8173     TIP3     H1       HT       0.417000       1.00800           0
     34435 TIP3     8173     TIP3     H2       HT       0.417000       1.00800           0
     34436 TIP3     8174     TIP3     OH2      OT      -0.834000       15.9994           0
     34437 TIP3     8174     TIP3     H1       HT       0.417000       1.00800           0
     34438 TIP3     8174     TIP3     H2       HT       0.417000       1.00800           0
     34439 TIP3     8175     TIP3     OH2      OT      -0.834000       15.9994           0
     34440 TIP3     8175     TIP3     H1       HT       0.417000       1.00800           0
     34441 TIP3     8175     TIP3     H2       HT       0.417000       1.00800           0
     34442 TIP3     8176     TIP3     OH2      OT      -0.834000       15.9994           0
     34443 TIP3     8176     TIP3     H1       HT       0.417000       1.00800           0
     34444 TIP3     8176     TIP3     H2       HT       0.417000       1.00800           0
     34445 TIP3     8177     TIP3     OH2      OT      -0.834000       15.9994           0
     34446 TIP3     8177     TIP3     H1       HT       0.417000       1.00800           0
     34447 TIP3     8177     TIP3     H2       HT       0.417000       1.00800           0
     34448 TIP3     8178     TIP3     OH2      OT      -0.834000       15.9994           0
     34449 TIP3     8178     TIP3     H1       HT       0.417000       1.00800           0
     34450 TIP3     8178     TIP3     H2       HT       0.417000       1.00800           0
     34451 TIP3     8179     TIP3     OH2      OT      -0.834000       15.9994           0
     34452 TIP3     8179     TIP3     H1       HT       0.417000       1.00800           0
     34453 TIP3     8179     TIP3     H2       HT       0.417000       1.00800           0
     34454 TIP3     8180     TIP3     OH2      OT      -0.834000       15.9994           0
     34455 TIP3     8180     TIP3     H1       HT       0.417000       1.00800           0
     34456 TIP3     8180     TIP3     H2       HT       0.417000       1.00800           0
     34457 TIP3     8181     TIP3     OH2      OT      -0.834000       15.9994           0
     34458 TIP3     8181     TIP3     H1       HT       0.417000       1.00800           0
     34459 TIP3     8181     TIP3     H2       HT       0.417000       1.00800           0
     34460 TIP3     8182     TIP3     OH2      OT      -0.834000       15.9994           0
     34461 TIP3     8182     TIP3     H1       HT       0.417000       1.00800           0
     34462 TIP3     8182     TIP3     H2       HT       0.417000       1.00800           0
     34463 TIP3     8183     TIP3     OH2      OT      -0.834000       15.9994           0
     34464 TIP3     8183     TIP3     H1       HT       0.417000       1.00800           0
     34465 TIP3     8183     TIP3     H2       HT       0.417000       1.00800           0
     34466 TIP3     8184     TIP3     OH2      OT      -0.834000       15.9994           0
     34467 TIP3     8184     TIP3     H1       HT       0.417000       1.00800           0
     34468 TIP3     8184     TIP3     H2       HT       0.417000       1.00800           0
     34469 TIP3     8185     TIP3     OH2      OT      -0.834000       15.9994           0
     34470 TIP3     8185     TIP3     H1       HT       0.417000       1.00800           0
     34471 TIP3     8185     TIP3     H2       HT       0.417000       1.00800           0
     34472 TIP3     8186     TIP3     OH2      OT      -0.834000       15.9994           0
     34473 TIP3     8186     TIP3     H1       HT       0.417000       1.00800           0
     34474 TIP3     8186     TIP3     H2       HT       0.417000       1.00800           0
     34475 TIP3     8187     TIP3     OH2      OT      -0.834000       15.9994           0
     34476 TIP3     8187     TIP3     H1       HT       0.417000       1.00800           0
     34477 TIP3     8187     TIP3     H2       HT       0.417000       1.00800           0
     34478 TIP3     8188     TIP3     OH2      OT      -0.834000       15.9994           0
     34479 TIP3     8188     TIP3     H1       HT       0.417000       1.00800           0
     34480 TIP3     8188     TIP3     H2       HT       0.417000       1.00800           0
     34481 TIP3     8189     TIP3     OH2      OT      -0.834000       15.9994           0
     34482 TIP3     8189     TIP3     H1       HT       0.417000       1.00800           0
     34483 TIP3     8189     TIP3     H2       HT       0.417000       1.00800           0
     34484 TIP3     8190     TIP3     OH2      OT      -0.834000       15.9994           0
     34485 TIP3     8190     TIP3     H1       HT       0.417000       1.00800           0
     34486 TIP3     8190     TIP3     H2       HT       0.417000       1.00800           0
     34487 TIP3     8191     TIP3     OH2      OT      -0.834000       15.9994           0
     34488 TIP3     8191     TIP3     H1       HT       0.417000       1.00800           0
     34489 TIP3     8191     TIP3     H2       HT       0.417000       1.00800           0
     34490 TIP3     8192     TIP3     OH2      OT      -0.834000       15.9994           0
     34491 TIP3     8192     TIP3     H1       HT       0.417000       1.00800           0
     34492 TIP3     8192     TIP3     H2       HT       0.417000       1.00800           0
     34493 TIP3     8193     TIP3     OH2      OT      -0.834000       15.9994           0
     34494 TIP3     8193     TIP3     H1       HT       0.417000       1.00800           0
     34495 TIP3     8193     TIP3     H2       HT       0.417000       1.00800           0
     34496 TIP3     8194     TIP3     OH2      OT      -0.834000       15.9994           0
     34497 TIP3     8194     TIP3     H1       HT       0.417000       1.00800           0
     34498 TIP3     8194     TIP3     H2       HT       0.417000       1.00800           0
     34499 TIP3     8195     TIP3     OH2      OT      -0.834000       15.9994           0
     34500 TIP3     8195     TIP3     H1       HT       0.417000       1.00800           0
     34501 TIP3     8195     TIP3     H2       HT       0.417000       1.00800           0
     34502 TIP3     8196     TIP3     OH2      OT      -0.834000       15.9994           0
     34503 TIP3     8196     TIP3     H1       HT       0.417000       1.00800           0
     34504 TIP3     8196     TIP3     H2       HT       0.417000       1.00800           0
     34505 TIP3     8197     TIP3     OH2      OT      -0.834000       15.9994           0
     34506 TIP3     8197     TIP3     H1       HT       0.417000       1.00800           0
     34507 TIP3     8197     TIP3     H2       HT       0.417000       1.00800           0
     34508 TIP3     8198     TIP3     OH2      OT      -0.834000       15.9994           0
     34509 TIP3     8198     TIP3     H1       HT       0.417000       1.00800           0
     34510 TIP3     8198     TIP3     H2       HT       0.417000       1.00800           0
     34511 TIP3     8199     TIP3     OH2      OT      -0.834000       15.9994           0
     34512 TIP3     8199     TIP3     H1       HT       0.417000       1.00800           0
     34513 TIP3     8199     TIP3     H2       HT       0.417000       1.00800           0
     34514 TIP3     8200     TIP3     OH2      OT      -0.834000       15.9994           0
     34515 TIP3     8200     TIP3     H1       HT       0.417000       1.00800           0
     34516 TIP3     8200     TIP3     H2       HT       0.417000       1.00800           0
     34517 TIP3     8201     TIP3     OH2      OT      -0.834000       15.9994           0
     34518 TIP3     8201     TIP3     H1       HT       0.417000       1.00800           0
     34519 TIP3     8201     TIP3     H2       HT       0.417000       1.00800           0
     34520 TIP3     8202     TIP3     OH2      OT      -0.834000       15.9994           0
     34521 TIP3     8202     TIP3     H1       HT       0.417000       1.00800           0
     34522 TIP3     8202     TIP3     H2       HT       0.417000       1.00800           0
     34523 TIP3     8203     TIP3     OH2      OT      -0.834000       15.9994           0
     34524 TIP3     8203     TIP3     H1       HT       0.417000       1.00800           0
     34525 TIP3     8203     TIP3     H2       HT       0.417000       1.00800           0
     34526 TIP3     8204     TIP3     OH2      OT      -0.834000       15.9994           0
     34527 TIP3     8204     TIP3     H1       HT       0.417000       1.00800           0
     34528 TIP3     8204     TIP3     H2       HT       0.417000       1.00800           0
     34529 TIP3     8205     TIP3     OH2      OT      -0.834000       15.9994           0
     34530 TIP3     8205     TIP3     H1       HT       0.417000       1.00800           0
     34531 TIP3     8205     TIP3     H2       HT       0.417000       1.00800           0
     34532 TIP3     8206     TIP3     OH2      OT      -0.834000       15.9994           0
     34533 TIP3     8206     TIP3     H1       HT       0.417000       1.00800           0
     34534 TIP3     8206     TIP3     H2       HT       0.417000       1.00800           0
     34535 TIP3     8207     TIP3     OH2      OT      -0.834000       15.9994           0
     34536 TIP3     8207     TIP3     H1       HT       0.417000       1.00800           0
     34537 TIP3     8207     TIP3     H2       HT       0.417000       1.00800           0
     34538 TIP3     8208     TIP3     OH2      OT      -0.834000       15.9994           0
     34539 TIP3     8208     TIP3     H1       HT       0.417000       1.00800           0
     34540 TIP3     8208     TIP3     H2       HT       0.417000       1.00800           0
     34541 TIP3     8209     TIP3     OH2      OT      -0.834000       15.9994           0
     34542 TIP3     8209     TIP3     H1       HT       0.417000       1.00800           0
     34543 TIP3     8209     TIP3     H2       HT       0.417000       1.00800           0
     34544 TIP3     8210     TIP3     OH2      OT      -0.834000       15.9994           0
     34545 TIP3     8210     TIP3     H1       HT       0.417000       1.00800           0
     34546 TIP3     8210     TIP3     H2       HT       0.417000       1.00800           0
     34547 TIP3     8211     TIP3     OH2      OT      -0.834000       15.9994           0
     34548 TIP3     8211     TIP3     H1       HT       0.417000       1.00800           0
     34549 TIP3     8211     TIP3     H2       HT       0.417000       1.00800           0
     34550 TIP3     8212     TIP3     OH2      OT      -0.834000       15.9994           0
     34551 TIP3     8212     TIP3     H1       HT       0.417000       1.00800           0
     34552 TIP3     8212     TIP3     H2       HT       0.417000       1.00800           0
     34553 TIP3     8213     TIP3     OH2      OT      -0.834000       15.9994           0
     34554 TIP3     8213     TIP3     H1       HT       0.417000       1.00800           0
     34555 TIP3     8213     TIP3     H2       HT       0.417000       1.00800           0
     34556 TIP3     8214     TIP3     OH2      OT      -0.834000       15.9994           0
     34557 TIP3     8214     TIP3     H1       HT       0.417000       1.00800           0
     34558 TIP3     8214     TIP3     H2       HT       0.417000       1.00800           0
     34559 TIP3     8215     TIP3     OH2      OT      -0.834000       15.9994           0
     34560 TIP3     8215     TIP3     H1       HT       0.417000       1.00800           0
     34561 TIP3     8215     TIP3     H2       HT       0.417000       1.00800           0
     34562 TIP3     8216     TIP3     OH2      OT      -0.834000       15.9994           0
     34563 TIP3     8216     TIP3     H1       HT       0.417000       1.00800           0
     34564 TIP3     8216     TIP3     H2       HT       0.417000       1.00800           0
     34565 TIP3     8217     TIP3     OH2      OT      -0.834000       15.9994           0
     34566 TIP3     8217     TIP3     H1       HT       0.417000       1.00800           0
     34567 TIP3     8217     TIP3     H2       HT       0.417000       1.00800           0
     34568 TIP3     8218     TIP3     OH2      OT      -0.834000       15.9994           0
     34569 TIP3     8218     TIP3     H1       HT       0.417000       1.00800           0
     34570 TIP3     8218     TIP3     H2       HT       0.417000       1.00800           0
     34571 TIP3     8219     TIP3     OH2      OT      -0.834000       15.9994           0
     34572 TIP3     8219     TIP3     H1       HT       0.417000       1.00800           0
     34573 TIP3     8219     TIP3     H2       HT       0.417000       1.00800           0
     34574 TIP3     8220     TIP3     OH2      OT      -0.834000       15.9994           0
     34575 TIP3     8220     TIP3     H1       HT       0.417000       1.00800           0
     34576 TIP3     8220     TIP3     H2       HT       0.417000       1.00800           0
     34577 TIP3     8221     TIP3     OH2      OT      -0.834000       15.9994           0
     34578 TIP3     8221     TIP3     H1       HT       0.417000       1.00800           0
     34579 TIP3     8221     TIP3     H2       HT       0.417000       1.00800           0
     34580 TIP3     8222     TIP3     OH2      OT      -0.834000       15.9994           0
     34581 TIP3     8222     TIP3     H1       HT       0.417000       1.00800           0
     34582 TIP3     8222     TIP3     H2       HT       0.417000       1.00800           0
     34583 TIP3     8223     TIP3     OH2      OT      -0.834000       15.9994           0
     34584 TIP3     8223     TIP3     H1       HT       0.417000       1.00800           0
     34585 TIP3     8223     TIP3     H2       HT       0.417000       1.00800           0
     34586 TIP3     8224     TIP3     OH2      OT      -0.834000       15.9994           0
     34587 TIP3     8224     TIP3     H1       HT       0.417000       1.00800           0
     34588 TIP3     8224     TIP3     H2       HT       0.417000       1.00800           0
     34589 TIP3     8225     TIP3     OH2      OT      -0.834000       15.9994           0
     34590 TIP3     8225     TIP3     H1       HT       0.417000       1.00800           0
     34591 TIP3     8225     TIP3     H2       HT       0.417000       1.00800           0
     34592 TIP3     8226     TIP3     OH2      OT      -0.834000       15.9994           0
     34593 TIP3     8226     TIP3     H1       HT       0.417000       1.00800           0
     34594 TIP3     8226     TIP3     H2       HT       0.417000       1.00800           0
     34595 TIP3     8227     TIP3     OH2      OT      -0.834000       15.9994           0
     34596 TIP3     8227     TIP3     H1       HT       0.417000       1.00800           0
     34597 TIP3     8227     TIP3     H2       HT       0.417000       1.00800           0
     34598 TIP3     8228     TIP3     OH2      OT      -0.834000       15.9994           0
     34599 TIP3     8228     TIP3     H1       HT       0.417000       1.00800           0
     34600 TIP3     8228     TIP3     H2       HT       0.417000       1.00800           0
     34601 TIP3     8229     TIP3     OH2      OT      -0.834000       15.9994           0
     34602 TIP3     8229     TIP3     H1       HT       0.417000       1.00800           0
     34603 TIP3     8229     TIP3     H2       HT       0.417000       1.00800           0
     34604 TIP3     8230     TIP3     OH2      OT      -0.834000       15.9994           0
     34605 TIP3     8230     TIP3     H1       HT       0.417000       1.00800           0
     34606 TIP3     8230     TIP3     H2       HT       0.417000       1.00800           0
     34607 TIP3     8231     TIP3     OH2      OT      -0.834000       15.9994           0
     34608 TIP3     8231     TIP3     H1       HT       0.417000       1.00800           0
     34609 TIP3     8231     TIP3     H2       HT       0.417000       1.00800           0
     34610 TIP3     8232     TIP3     OH2      OT      -0.834000       15.9994           0
     34611 TIP3     8232     TIP3     H1       HT       0.417000       1.00800           0
     34612 TIP3     8232     TIP3     H2       HT       0.417000       1.00800           0
     34613 TIP3     8233     TIP3     OH2      OT      -0.834000       15.9994           0
     34614 TIP3     8233     TIP3     H1       HT       0.417000       1.00800           0
     34615 TIP3     8233     TIP3     H2       HT       0.417000       1.00800           0
     34616 TIP3     8234     TIP3     OH2      OT      -0.834000       15.9994           0
     34617 TIP3     8234     TIP3     H1       HT       0.417000       1.00800           0
     34618 TIP3     8234     TIP3     H2       HT       0.417000       1.00800           0
     34619 TIP3     8235     TIP3     OH2      OT      -0.834000       15.9994           0
     34620 TIP3     8235     TIP3     H1       HT       0.417000       1.00800           0
     34621 TIP3     8235     TIP3     H2       HT       0.417000       1.00800           0
     34622 TIP3     8236     TIP3     OH2      OT      -0.834000       15.9994           0
     34623 TIP3     8236     TIP3     H1       HT       0.417000       1.00800           0
     34624 TIP3     8236     TIP3     H2       HT       0.417000       1.00800           0
     34625 TIP3     8237     TIP3     OH2      OT      -0.834000       15.9994           0
     34626 TIP3     8237     TIP3     H1       HT       0.417000       1.00800           0
     34627 TIP3     8237     TIP3     H2       HT       0.417000       1.00800           0
     34628 TIP3     8238     TIP3     OH2      OT      -0.834000       15.9994           0
     34629 TIP3     8238     TIP3     H1       HT       0.417000       1.00800           0
     34630 TIP3     8238     TIP3     H2       HT       0.417000       1.00800           0
     34631 TIP3     8239     TIP3     OH2      OT      -0.834000       15.9994           0
     34632 TIP3     8239     TIP3     H1       HT       0.417000       1.00800           0
     34633 TIP3     8239     TIP3     H2       HT       0.417000       1.00800           0
     34634 TIP3     8240     TIP3     OH2      OT      -0.834000       15.9994           0
     34635 TIP3     8240     TIP3     H1       HT       0.417000       1.00800           0
     34636 TIP3     8240     TIP3     H2       HT       0.417000       1.00800           0
     34637 TIP3     8241     TIP3     OH2      OT      -0.834000       15.9994           0
     34638 TIP3     8241     TIP3     H1       HT       0.417000       1.00800           0
     34639 TIP3     8241     TIP3     H2       HT       0.417000       1.00800           0
     34640 TIP3     8242     TIP3     OH2      OT      -0.834000       15.9994           0
     34641 TIP3     8242     TIP3     H1       HT       0.417000       1.00800           0
     34642 TIP3     8242     TIP3     H2       HT       0.417000       1.00800           0
     34643 TIP3     8243     TIP3     OH2      OT      -0.834000       15.9994           0
     34644 TIP3     8243     TIP3     H1       HT       0.417000       1.00800           0
     34645 TIP3     8243     TIP3     H2       HT       0.417000       1.00800           0
     34646 TIP3     8244     TIP3     OH2      OT      -0.834000       15.9994           0
     34647 TIP3     8244     TIP3     H1       HT       0.417000       1.00800           0
     34648 TIP3     8244     TIP3     H2       HT       0.417000       1.00800           0
     34649 TIP3     8245     TIP3     OH2      OT      -0.834000       15.9994           0
     34650 TIP3     8245     TIP3     H1       HT       0.417000       1.00800           0
     34651 TIP3     8245     TIP3     H2       HT       0.417000       1.00800           0
     34652 TIP3     8246     TIP3     OH2      OT      -0.834000       15.9994           0
     34653 TIP3     8246     TIP3     H1       HT       0.417000       1.00800           0
     34654 TIP3     8246     TIP3     H2       HT       0.417000       1.00800           0
     34655 TIP3     8247     TIP3     OH2      OT      -0.834000       15.9994           0
     34656 TIP3     8247     TIP3     H1       HT       0.417000       1.00800           0
     34657 TIP3     8247     TIP3     H2       HT       0.417000       1.00800           0
     34658 TIP3     8248     TIP3     OH2      OT      -0.834000       15.9994           0
     34659 TIP3     8248     TIP3     H1       HT       0.417000       1.00800           0
     34660 TIP3     8248     TIP3     H2       HT       0.417000       1.00800           0
     34661 TIP3     8249     TIP3     OH2      OT      -0.834000       15.9994           0
     34662 TIP3     8249     TIP3     H1       HT       0.417000       1.00800           0
     34663 TIP3     8249     TIP3     H2       HT       0.417000       1.00800           0
     34664 TIP3     8250     TIP3     OH2      OT      -0.834000       15.9994           0
     34665 TIP3     8250     TIP3     H1       HT       0.417000       1.00800           0
     34666 TIP3     8250     TIP3     H2       HT       0.417000       1.00800           0
     34667 TIP3     8251     TIP3     OH2      OT      -0.834000       15.9994           0
     34668 TIP3     8251     TIP3     H1       HT       0.417000       1.00800           0
     34669 TIP3     8251     TIP3     H2       HT       0.417000       1.00800           0
     34670 TIP3     8252     TIP3     OH2      OT      -0.834000       15.9994           0
     34671 TIP3     8252     TIP3     H1       HT       0.417000       1.00800           0
     34672 TIP3     8252     TIP3     H2       HT       0.417000       1.00800           0
     34673 TIP3     8253     TIP3     OH2      OT      -0.834000       15.9994           0
     34674 TIP3     8253     TIP3     H1       HT       0.417000       1.00800           0
     34675 TIP3     8253     TIP3     H2       HT       0.417000       1.00800           0
     34676 TIP3     8254     TIP3     OH2      OT      -0.834000       15.9994           0
     34677 TIP3     8254     TIP3     H1       HT       0.417000       1.00800           0
     34678 TIP3     8254     TIP3     H2       HT       0.417000       1.00800           0
     34679 TIP3     8255     TIP3     OH2      OT      -0.834000       15.9994           0
     34680 TIP3     8255     TIP3     H1       HT       0.417000       1.00800           0
     34681 TIP3     8255     TIP3     H2       HT       0.417000       1.00800           0
     34682 TIP3     8256     TIP3     OH2      OT      -0.834000       15.9994           0
     34683 TIP3     8256     TIP3     H1       HT       0.417000       1.00800           0
     34684 TIP3     8256     TIP3     H2       HT       0.417000       1.00800           0
     34685 TIP3     8257     TIP3     OH2      OT      -0.834000       15.9994           0
     34686 TIP3     8257     TIP3     H1       HT       0.417000       1.00800           0
     34687 TIP3     8257     TIP3     H2       HT       0.417000       1.00800           0
     34688 TIP3     8258     TIP3     OH2      OT      -0.834000       15.9994           0
     34689 TIP3     8258     TIP3     H1       HT       0.417000       1.00800           0
     34690 TIP3     8258     TIP3     H2       HT       0.417000       1.00800           0
     34691 TIP3     8259     TIP3     OH2      OT      -0.834000       15.9994           0
     34692 TIP3     8259     TIP3     H1       HT       0.417000       1.00800           0
     34693 TIP3     8259     TIP3     H2       HT       0.417000       1.00800           0
     34694 TIP3     8260     TIP3     OH2      OT      -0.834000       15.9994           0
     34695 TIP3     8260     TIP3     H1       HT       0.417000       1.00800           0
     34696 TIP3     8260     TIP3     H2       HT       0.417000       1.00800           0
     34697 TIP3     8261     TIP3     OH2      OT      -0.834000       15.9994           0
     34698 TIP3     8261     TIP3     H1       HT       0.417000       1.00800           0
     34699 TIP3     8261     TIP3     H2       HT       0.417000       1.00800           0
     34700 TIP3     8262     TIP3     OH2      OT      -0.834000       15.9994           0
     34701 TIP3     8262     TIP3     H1       HT       0.417000       1.00800           0
     34702 TIP3     8262     TIP3     H2       HT       0.417000       1.00800           0
     34703 TIP3     8263     TIP3     OH2      OT      -0.834000       15.9994           0
     34704 TIP3     8263     TIP3     H1       HT       0.417000       1.00800           0
     34705 TIP3     8263     TIP3     H2       HT       0.417000       1.00800           0
     34706 TIP3     8264     TIP3     OH2      OT      -0.834000       15.9994           0
     34707 TIP3     8264     TIP3     H1       HT       0.417000       1.00800           0
     34708 TIP3     8264     TIP3     H2       HT       0.417000       1.00800           0
     34709 TIP3     8265     TIP3     OH2      OT      -0.834000       15.9994           0
     34710 TIP3     8265     TIP3     H1       HT       0.417000       1.00800           0
     34711 TIP3     8265     TIP3     H2       HT       0.417000       1.00800           0
     34712 TIP3     8266     TIP3     OH2      OT      -0.834000       15.9994           0
     34713 TIP3     8266     TIP3     H1       HT       0.417000       1.00800           0
     34714 TIP3     8266     TIP3     H2       HT       0.417000       1.00800           0
     34715 TIP3     8267     TIP3     OH2      OT      -0.834000       15.9994           0
     34716 TIP3     8267     TIP3     H1       HT       0.417000       1.00800           0
     34717 TIP3     8267     TIP3     H2       HT       0.417000       1.00800           0
     34718 TIP3     8268     TIP3     OH2      OT      -0.834000       15.9994           0
     34719 TIP3     8268     TIP3     H1       HT       0.417000       1.00800           0
     34720 TIP3     8268     TIP3     H2       HT       0.417000       1.00800           0
     34721 TIP3     8269     TIP3     OH2      OT      -0.834000       15.9994           0
     34722 TIP3     8269     TIP3     H1       HT       0.417000       1.00800           0
     34723 TIP3     8269     TIP3     H2       HT       0.417000       1.00800           0
     34724 TIP3     8270     TIP3     OH2      OT      -0.834000       15.9994           0
     34725 TIP3     8270     TIP3     H1       HT       0.417000       1.00800           0
     34726 TIP3     8270     TIP3     H2       HT       0.417000       1.00800           0
     34727 TIP3     8271     TIP3     OH2      OT      -0.834000       15.9994           0
     34728 TIP3     8271     TIP3     H1       HT       0.417000       1.00800           0
     34729 TIP3     8271     TIP3     H2       HT       0.417000       1.00800           0
     34730 TIP3     8272     TIP3     OH2      OT      -0.834000       15.9994           0
     34731 TIP3     8272     TIP3     H1       HT       0.417000       1.00800           0
     34732 TIP3     8272     TIP3     H2       HT       0.417000       1.00800           0
     34733 TIP3     8273     TIP3     OH2      OT      -0.834000       15.9994           0
     34734 TIP3     8273     TIP3     H1       HT       0.417000       1.00800           0
     34735 TIP3     8273     TIP3     H2       HT       0.417000       1.00800           0
     34736 TIP3     8274     TIP3     OH2      OT      -0.834000       15.9994           0
     34737 TIP3     8274     TIP3     H1       HT       0.417000       1.00800           0
     34738 TIP3     8274     TIP3     H2       HT       0.417000       1.00800           0
     34739 TIP3     8275     TIP3     OH2      OT      -0.834000       15.9994           0
     34740 TIP3     8275     TIP3     H1       HT       0.417000       1.00800           0
     34741 TIP3     8275     TIP3     H2       HT       0.417000       1.00800           0
     34742 TIP3     8276     TIP3     OH2      OT      -0.834000       15.9994           0
     34743 TIP3     8276     TIP3     H1       HT       0.417000       1.00800           0
     34744 TIP3     8276     TIP3     H2       HT       0.417000       1.00800           0
     34745 TIP3     8277     TIP3     OH2      OT      -0.834000       15.9994           0
     34746 TIP3     8277     TIP3     H1       HT       0.417000       1.00800           0
     34747 TIP3     8277     TIP3     H2       HT       0.417000       1.00800           0
     34748 TIP3     8278     TIP3     OH2      OT      -0.834000       15.9994           0
     34749 TIP3     8278     TIP3     H1       HT       0.417000       1.00800           0
     34750 TIP3     8278     TIP3     H2       HT       0.417000       1.00800           0
     34751 TIP3     8279     TIP3     OH2      OT      -0.834000       15.9994           0
     34752 TIP3     8279     TIP3     H1       HT       0.417000       1.00800           0
     34753 TIP3     8279     TIP3     H2       HT       0.417000       1.00800           0
     34754 TIP3     8280     TIP3     OH2      OT      -0.834000       15.9994           0
     34755 TIP3     8280     TIP3     H1       HT       0.417000       1.00800           0
     34756 TIP3     8280     TIP3     H2       HT       0.417000       1.00800           0
     34757 TIP3     8281     TIP3     OH2      OT      -0.834000       15.9994           0
     34758 TIP3     8281     TIP3     H1       HT       0.417000       1.00800           0
     34759 TIP3     8281     TIP3     H2       HT       0.417000       1.00800           0
     34760 TIP3     8282     TIP3     OH2      OT      -0.834000       15.9994           0
     34761 TIP3     8282     TIP3     H1       HT       0.417000       1.00800           0
     34762 TIP3     8282     TIP3     H2       HT       0.417000       1.00800           0
     34763 TIP3     8283     TIP3     OH2      OT      -0.834000       15.9994           0
     34764 TIP3     8283     TIP3     H1       HT       0.417000       1.00800           0
     34765 TIP3     8283     TIP3     H2       HT       0.417000       1.00800           0
     34766 TIP3     8284     TIP3     OH2      OT      -0.834000       15.9994           0
     34767 TIP3     8284     TIP3     H1       HT       0.417000       1.00800           0
     34768 TIP3     8284     TIP3     H2       HT       0.417000       1.00800           0
     34769 TIP3     8285     TIP3     OH2      OT      -0.834000       15.9994           0
     34770 TIP3     8285     TIP3     H1       HT       0.417000       1.00800           0
     34771 TIP3     8285     TIP3     H2       HT       0.417000       1.00800           0
     34772 TIP3     8286     TIP3     OH2      OT      -0.834000       15.9994           0
     34773 TIP3     8286     TIP3     H1       HT       0.417000       1.00800           0
     34774 TIP3     8286     TIP3     H2       HT       0.417000       1.00800           0
     34775 TIP3     8287     TIP3     OH2      OT      -0.834000       15.9994           0
     34776 TIP3     8287     TIP3     H1       HT       0.417000       1.00800           0
     34777 TIP3     8287     TIP3     H2       HT       0.417000       1.00800           0
     34778 TIP3     8288     TIP3     OH2      OT      -0.834000       15.9994           0
     34779 TIP3     8288     TIP3     H1       HT       0.417000       1.00800           0
     34780 TIP3     8288     TIP3     H2       HT       0.417000       1.00800           0
     34781 TIP3     8289     TIP3     OH2      OT      -0.834000       15.9994           0
     34782 TIP3     8289     TIP3     H1       HT       0.417000       1.00800           0
     34783 TIP3     8289     TIP3     H2       HT       0.417000       1.00800           0
     34784 TIP3     8290     TIP3     OH2      OT      -0.834000       15.9994           0
     34785 TIP3     8290     TIP3     H1       HT       0.417000       1.00800           0
     34786 TIP3     8290     TIP3     H2       HT       0.417000       1.00800           0
     34787 TIP3     8291     TIP3     OH2      OT      -0.834000       15.9994           0
     34788 TIP3     8291     TIP3     H1       HT       0.417000       1.00800           0
     34789 TIP3     8291     TIP3     H2       HT       0.417000       1.00800           0
     34790 TIP3     8292     TIP3     OH2      OT      -0.834000       15.9994           0
     34791 TIP3     8292     TIP3     H1       HT       0.417000       1.00800           0
     34792 TIP3     8292     TIP3     H2       HT       0.417000       1.00800           0
     34793 TIP3     8293     TIP3     OH2      OT      -0.834000       15.9994           0
     34794 TIP3     8293     TIP3     H1       HT       0.417000       1.00800           0
     34795 TIP3     8293     TIP3     H2       HT       0.417000       1.00800           0
     34796 TIP3     8294     TIP3     OH2      OT      -0.834000       15.9994           0
     34797 TIP3     8294     TIP3     H1       HT       0.417000       1.00800           0
     34798 TIP3     8294     TIP3     H2       HT       0.417000       1.00800           0
     34799 TIP3     8295     TIP3     OH2      OT      -0.834000       15.9994           0
     34800 TIP3     8295     TIP3     H1       HT       0.417000       1.00800           0
     34801 TIP3     8295     TIP3     H2       HT       0.417000       1.00800           0
     34802 TIP3     8296     TIP3     OH2      OT      -0.834000       15.9994           0
     34803 TIP3     8296     TIP3     H1       HT       0.417000       1.00800           0
     34804 TIP3     8296     TIP3     H2       HT       0.417000       1.00800           0
     34805 TIP3     8297     TIP3     OH2      OT      -0.834000       15.9994           0
     34806 TIP3     8297     TIP3     H1       HT       0.417000       1.00800           0
     34807 TIP3     8297     TIP3     H2       HT       0.417000       1.00800           0
     34808 TIP3     8298     TIP3     OH2      OT      -0.834000       15.9994           0
     34809 TIP3     8298     TIP3     H1       HT       0.417000       1.00800           0
     34810 TIP3     8298     TIP3     H2       HT       0.417000       1.00800           0
     34811 TIP3     8299     TIP3     OH2      OT      -0.834000       15.9994           0
     34812 TIP3     8299     TIP3     H1       HT       0.417000       1.00800           0
     34813 TIP3     8299     TIP3     H2       HT       0.417000       1.00800           0
     34814 TIP3     8300     TIP3     OH2      OT      -0.834000       15.9994           0
     34815 TIP3     8300     TIP3     H1       HT       0.417000       1.00800           0
     34816 TIP3     8300     TIP3     H2       HT       0.417000       1.00800           0
     34817 TIP3     8301     TIP3     OH2      OT      -0.834000       15.9994           0
     34818 TIP3     8301     TIP3     H1       HT       0.417000       1.00800           0
     34819 TIP3     8301     TIP3     H2       HT       0.417000       1.00800           0
     34820 TIP3     8302     TIP3     OH2      OT      -0.834000       15.9994           0
     34821 TIP3     8302     TIP3     H1       HT       0.417000       1.00800           0
     34822 TIP3     8302     TIP3     H2       HT       0.417000       1.00800           0
     34823 TIP3     8303     TIP3     OH2      OT      -0.834000       15.9994           0
     34824 TIP3     8303     TIP3     H1       HT       0.417000       1.00800           0
     34825 TIP3     8303     TIP3     H2       HT       0.417000       1.00800           0
     34826 TIP3     8304     TIP3     OH2      OT      -0.834000       15.9994           0
     34827 TIP3     8304     TIP3     H1       HT       0.417000       1.00800           0
     34828 TIP3     8304     TIP3     H2       HT       0.417000       1.00800           0
     34829 TIP3     8305     TIP3     OH2      OT      -0.834000       15.9994           0
     34830 TIP3     8305     TIP3     H1       HT       0.417000       1.00800           0
     34831 TIP3     8305     TIP3     H2       HT       0.417000       1.00800           0
     34832 TIP3     8306     TIP3     OH2      OT      -0.834000       15.9994           0
     34833 TIP3     8306     TIP3     H1       HT       0.417000       1.00800           0
     34834 TIP3     8306     TIP3     H2       HT       0.417000       1.00800           0
     34835 TIP3     8307     TIP3     OH2      OT      -0.834000       15.9994           0
     34836 TIP3     8307     TIP3     H1       HT       0.417000       1.00800           0
     34837 TIP3     8307     TIP3     H2       HT       0.417000       1.00800           0
     34838 TIP3     8308     TIP3     OH2      OT      -0.834000       15.9994           0
     34839 TIP3     8308     TIP3     H1       HT       0.417000       1.00800           0
     34840 TIP3     8308     TIP3     H2       HT       0.417000       1.00800           0
     34841 TIP3     8309     TIP3     OH2      OT      -0.834000       15.9994           0
     34842 TIP3     8309     TIP3     H1       HT       0.417000       1.00800           0
     34843 TIP3     8309     TIP3     H2       HT       0.417000       1.00800           0
     34844 TIP3     8310     TIP3     OH2      OT      -0.834000       15.9994           0
     34845 TIP3     8310     TIP3     H1       HT       0.417000       1.00800           0
     34846 TIP3     8310     TIP3     H2       HT       0.417000       1.00800           0
     34847 TIP3     8311     TIP3     OH2      OT      -0.834000       15.9994           0
     34848 TIP3     8311     TIP3     H1       HT       0.417000       1.00800           0
     34849 TIP3     8311     TIP3     H2       HT       0.417000       1.00800           0
     34850 TIP3     8312     TIP3     OH2      OT      -0.834000       15.9994           0
     34851 TIP3     8312     TIP3     H1       HT       0.417000       1.00800           0
     34852 TIP3     8312     TIP3     H2       HT       0.417000       1.00800           0
     34853 TIP3     8313     TIP3     OH2      OT      -0.834000       15.9994           0
     34854 TIP3     8313     TIP3     H1       HT       0.417000       1.00800           0
     34855 TIP3     8313     TIP3     H2       HT       0.417000       1.00800           0
     34856 TIP3     8314     TIP3     OH2      OT      -0.834000       15.9994           0
     34857 TIP3     8314     TIP3     H1       HT       0.417000       1.00800           0
     34858 TIP3     8314     TIP3     H2       HT       0.417000       1.00800           0
     34859 TIP3     8315     TIP3     OH2      OT      -0.834000       15.9994           0
     34860 TIP3     8315     TIP3     H1       HT       0.417000       1.00800           0
     34861 TIP3     8315     TIP3     H2       HT       0.417000       1.00800           0
     34862 TIP3     8316     TIP3     OH2      OT      -0.834000       15.9994           0
     34863 TIP3     8316     TIP3     H1       HT       0.417000       1.00800           0
     34864 TIP3     8316     TIP3     H2       HT       0.417000       1.00800           0
     34865 TIP3     8317     TIP3     OH2      OT      -0.834000       15.9994           0
     34866 TIP3     8317     TIP3     H1       HT       0.417000       1.00800           0
     34867 TIP3     8317     TIP3     H2       HT       0.417000       1.00800           0
     34868 TIP3     8318     TIP3     OH2      OT      -0.834000       15.9994           0
     34869 TIP3     8318     TIP3     H1       HT       0.417000       1.00800           0
     34870 TIP3     8318     TIP3     H2       HT       0.417000       1.00800           0
     34871 TIP3     8319     TIP3     OH2      OT      -0.834000       15.9994           0
     34872 TIP3     8319     TIP3     H1       HT       0.417000       1.00800           0
     34873 TIP3     8319     TIP3     H2       HT       0.417000       1.00800           0
     34874 TIP3     8320     TIP3     OH2      OT      -0.834000       15.9994           0
     34875 TIP3     8320     TIP3     H1       HT       0.417000       1.00800           0
     34876 TIP3     8320     TIP3     H2       HT       0.417000       1.00800           0
     34877 TIP3     8321     TIP3     OH2      OT      -0.834000       15.9994           0
     34878 TIP3     8321     TIP3     H1       HT       0.417000       1.00800           0
     34879 TIP3     8321     TIP3     H2       HT       0.417000       1.00800           0
     34880 TIP3     8322     TIP3     OH2      OT      -0.834000       15.9994           0
     34881 TIP3     8322     TIP3     H1       HT       0.417000       1.00800           0
     34882 TIP3     8322     TIP3     H2       HT       0.417000       1.00800           0
     34883 TIP3     8323     TIP3     OH2      OT      -0.834000       15.9994           0
     34884 TIP3     8323     TIP3     H1       HT       0.417000       1.00800           0
     34885 TIP3     8323     TIP3     H2       HT       0.417000       1.00800           0
     34886 TIP3     8324     TIP3     OH2      OT      -0.834000       15.9994           0
     34887 TIP3     8324     TIP3     H1       HT       0.417000       1.00800           0
     34888 TIP3     8324     TIP3     H2       HT       0.417000       1.00800           0
     34889 TIP3     8325     TIP3     OH2      OT      -0.834000       15.9994           0
     34890 TIP3     8325     TIP3     H1       HT       0.417000       1.00800           0
     34891 TIP3     8325     TIP3     H2       HT       0.417000       1.00800           0
     34892 TIP3     8326     TIP3     OH2      OT      -0.834000       15.9994           0
     34893 TIP3     8326     TIP3     H1       HT       0.417000       1.00800           0
     34894 TIP3     8326     TIP3     H2       HT       0.417000       1.00800           0
     34895 TIP3     8327     TIP3     OH2      OT      -0.834000       15.9994           0
     34896 TIP3     8327     TIP3     H1       HT       0.417000       1.00800           0
     34897 TIP3     8327     TIP3     H2       HT       0.417000       1.00800           0
     34898 TIP3     8328     TIP3     OH2      OT      -0.834000       15.9994           0
     34899 TIP3     8328     TIP3     H1       HT       0.417000       1.00800           0
     34900 TIP3     8328     TIP3     H2       HT       0.417000       1.00800           0
     34901 TIP3     8329     TIP3     OH2      OT      -0.834000       15.9994           0
     34902 TIP3     8329     TIP3     H1       HT       0.417000       1.00800           0
     34903 TIP3     8329     TIP3     H2       HT       0.417000       1.00800           0
     34904 TIP3     8330     TIP3     OH2      OT      -0.834000       15.9994           0
     34905 TIP3     8330     TIP3     H1       HT       0.417000       1.00800           0
     34906 TIP3     8330     TIP3     H2       HT       0.417000       1.00800           0
     34907 TIP3     8331     TIP3     OH2      OT      -0.834000       15.9994           0
     34908 TIP3     8331     TIP3     H1       HT       0.417000       1.00800           0
     34909 TIP3     8331     TIP3     H2       HT       0.417000       1.00800           0
     34910 TIP3     8332     TIP3     OH2      OT      -0.834000       15.9994           0
     34911 TIP3     8332     TIP3     H1       HT       0.417000       1.00800           0
     34912 TIP3     8332     TIP3     H2       HT       0.417000       1.00800           0
     34913 TIP3     8333     TIP3     OH2      OT      -0.834000       15.9994           0
     34914 TIP3     8333     TIP3     H1       HT       0.417000       1.00800           0
     34915 TIP3     8333     TIP3     H2       HT       0.417000       1.00800           0
     34916 TIP3     8334     TIP3     OH2      OT      -0.834000       15.9994           0
     34917 TIP3     8334     TIP3     H1       HT       0.417000       1.00800           0
     34918 TIP3     8334     TIP3     H2       HT       0.417000       1.00800           0
     34919 TIP3     8335     TIP3     OH2      OT      -0.834000       15.9994           0
     34920 TIP3     8335     TIP3     H1       HT       0.417000       1.00800           0
     34921 TIP3     8335     TIP3     H2       HT       0.417000       1.00800           0
     34922 TIP3     8336     TIP3     OH2      OT      -0.834000       15.9994           0
     34923 TIP3     8336     TIP3     H1       HT       0.417000       1.00800           0
     34924 TIP3     8336     TIP3     H2       HT       0.417000       1.00800           0
     34925 TIP3     8337     TIP3     OH2      OT      -0.834000       15.9994           0
     34926 TIP3     8337     TIP3     H1       HT       0.417000       1.00800           0
     34927 TIP3     8337     TIP3     H2       HT       0.417000       1.00800           0
     34928 TIP3     8338     TIP3     OH2      OT      -0.834000       15.9994           0
     34929 TIP3     8338     TIP3     H1       HT       0.417000       1.00800           0
     34930 TIP3     8338     TIP3     H2       HT       0.417000       1.00800           0
     34931 TIP3     8339     TIP3     OH2      OT      -0.834000       15.9994           0
     34932 TIP3     8339     TIP3     H1       HT       0.417000       1.00800           0
     34933 TIP3     8339     TIP3     H2       HT       0.417000       1.00800           0
     34934 TIP3     8340     TIP3     OH2      OT      -0.834000       15.9994           0
     34935 TIP3     8340     TIP3     H1       HT       0.417000       1.00800           0
     34936 TIP3     8340     TIP3     H2       HT       0.417000       1.00800           0
     34937 TIP3     8341     TIP3     OH2      OT      -0.834000       15.9994           0
     34938 TIP3     8341     TIP3     H1       HT       0.417000       1.00800           0
     34939 TIP3     8341     TIP3     H2       HT       0.417000       1.00800           0
     34940 TIP3     8342     TIP3     OH2      OT      -0.834000       15.9994           0
     34941 TIP3     8342     TIP3     H1       HT       0.417000       1.00800           0
     34942 TIP3     8342     TIP3     H2       HT       0.417000       1.00800           0
     34943 TIP3     8343     TIP3     OH2      OT      -0.834000       15.9994           0
     34944 TIP3     8343     TIP3     H1       HT       0.417000       1.00800           0
     34945 TIP3     8343     TIP3     H2       HT       0.417000       1.00800           0
     34946 TIP3     8344     TIP3     OH2      OT      -0.834000       15.9994           0
     34947 TIP3     8344     TIP3     H1       HT       0.417000       1.00800           0
     34948 TIP3     8344     TIP3     H2       HT       0.417000       1.00800           0
     34949 TIP3     8345     TIP3     OH2      OT      -0.834000       15.9994           0
     34950 TIP3     8345     TIP3     H1       HT       0.417000       1.00800           0
     34951 TIP3     8345     TIP3     H2       HT       0.417000       1.00800           0
     34952 TIP3     8346     TIP3     OH2      OT      -0.834000       15.9994           0
     34953 TIP3     8346     TIP3     H1       HT       0.417000       1.00800           0
     34954 TIP3     8346     TIP3     H2       HT       0.417000       1.00800           0
     34955 TIP3     8347     TIP3     OH2      OT      -0.834000       15.9994           0
     34956 TIP3     8347     TIP3     H1       HT       0.417000       1.00800           0
     34957 TIP3     8347     TIP3     H2       HT       0.417000       1.00800           0
     34958 TIP3     8348     TIP3     OH2      OT      -0.834000       15.9994           0
     34959 TIP3     8348     TIP3     H1       HT       0.417000       1.00800           0
     34960 TIP3     8348     TIP3     H2       HT       0.417000       1.00800           0
     34961 TIP3     8349     TIP3     OH2      OT      -0.834000       15.9994           0
     34962 TIP3     8349     TIP3     H1       HT       0.417000       1.00800           0
     34963 TIP3     8349     TIP3     H2       HT       0.417000       1.00800           0
     34964 TIP3     8350     TIP3     OH2      OT      -0.834000       15.9994           0
     34965 TIP3     8350     TIP3     H1       HT       0.417000       1.00800           0
     34966 TIP3     8350     TIP3     H2       HT       0.417000       1.00800           0
     34967 TIP3     8351     TIP3     OH2      OT      -0.834000       15.9994           0
     34968 TIP3     8351     TIP3     H1       HT       0.417000       1.00800           0
     34969 TIP3     8351     TIP3     H2       HT       0.417000       1.00800           0
     34970 TIP3     8352     TIP3     OH2      OT      -0.834000       15.9994           0
     34971 TIP3     8352     TIP3     H1       HT       0.417000       1.00800           0
     34972 TIP3     8352     TIP3     H2       HT       0.417000       1.00800           0
     34973 TIP3     8353     TIP3     OH2      OT      -0.834000       15.9994           0
     34974 TIP3     8353     TIP3     H1       HT       0.417000       1.00800           0
     34975 TIP3     8353     TIP3     H2       HT       0.417000       1.00800           0
     34976 TIP3     8354     TIP3     OH2      OT      -0.834000       15.9994           0
     34977 TIP3     8354     TIP3     H1       HT       0.417000       1.00800           0
     34978 TIP3     8354     TIP3     H2       HT       0.417000       1.00800           0
     34979 TIP3     8355     TIP3     OH2      OT      -0.834000       15.9994           0
     34980 TIP3     8355     TIP3     H1       HT       0.417000       1.00800           0
     34981 TIP3     8355     TIP3     H2       HT       0.417000       1.00800           0
     34982 TIP3     8356     TIP3     OH2      OT      -0.834000       15.9994           0
     34983 TIP3     8356     TIP3     H1       HT       0.417000       1.00800           0
     34984 TIP3     8356     TIP3     H2       HT       0.417000       1.00800           0
     34985 TIP3     8357     TIP3     OH2      OT      -0.834000       15.9994           0
     34986 TIP3     8357     TIP3     H1       HT       0.417000       1.00800           0
     34987 TIP3     8357     TIP3     H2       HT       0.417000       1.00800           0
     34988 TIP3     8358     TIP3     OH2      OT      -0.834000       15.9994           0
     34989 TIP3     8358     TIP3     H1       HT       0.417000       1.00800           0
     34990 TIP3     8358     TIP3     H2       HT       0.417000       1.00800           0
     34991 TIP3     8359     TIP3     OH2      OT      -0.834000       15.9994           0
     34992 TIP3     8359     TIP3     H1       HT       0.417000       1.00800           0
     34993 TIP3     8359     TIP3     H2       HT       0.417000       1.00800           0
     34994 TIP3     8360     TIP3     OH2      OT      -0.834000       15.9994           0
     34995 TIP3     8360     TIP3     H1       HT       0.417000       1.00800           0
     34996 TIP3     8360     TIP3     H2       HT       0.417000       1.00800           0
     34997 TIP3     8361     TIP3     OH2      OT      -0.834000       15.9994           0
     34998 TIP3     8361     TIP3     H1       HT       0.417000       1.00800           0
     34999 TIP3     8361     TIP3     H2       HT       0.417000       1.00800           0
     35000 TIP3     8362     TIP3     OH2      OT      -0.834000       15.9994           0
     35001 TIP3     8362     TIP3     H1       HT       0.417000       1.00800           0
     35002 TIP3     8362     TIP3     H2       HT       0.417000       1.00800           0
     35003 TIP3     8363     TIP3     OH2      OT      -0.834000       15.9994           0
     35004 TIP3     8363     TIP3     H1       HT       0.417000       1.00800           0
     35005 TIP3     8363     TIP3     H2       HT       0.417000       1.00800           0
     35006 TIP3     8364     TIP3     OH2      OT      -0.834000       15.9994           0
     35007 TIP3     8364     TIP3     H1       HT       0.417000       1.00800           0
     35008 TIP3     8364     TIP3     H2       HT       0.417000       1.00800           0
     35009 TIP3     8365     TIP3     OH2      OT      -0.834000       15.9994           0
     35010 TIP3     8365     TIP3     H1       HT       0.417000       1.00800           0
     35011 TIP3     8365     TIP3     H2       HT       0.417000       1.00800           0
     35012 TIP3     8366     TIP3     OH2      OT      -0.834000       15.9994           0
     35013 TIP3     8366     TIP3     H1       HT       0.417000       1.00800           0
     35014 TIP3     8366     TIP3     H2       HT       0.417000       1.00800           0
     35015 TIP3     8367     TIP3     OH2      OT      -0.834000       15.9994           0
     35016 TIP3     8367     TIP3     H1       HT       0.417000       1.00800           0
     35017 TIP3     8367     TIP3     H2       HT       0.417000       1.00800           0
     35018 TIP3     8368     TIP3     OH2      OT      -0.834000       15.9994           0
     35019 TIP3     8368     TIP3     H1       HT       0.417000       1.00800           0
     35020 TIP3     8368     TIP3     H2       HT       0.417000       1.00800           0
     35021 TIP3     8369     TIP3     OH2      OT      -0.834000       15.9994           0
     35022 TIP3     8369     TIP3     H1       HT       0.417000       1.00800           0
     35023 TIP3     8369     TIP3     H2       HT       0.417000       1.00800           0
     35024 TIP3     8370     TIP3     OH2      OT      -0.834000       15.9994           0
     35025 TIP3     8370     TIP3     H1       HT       0.417000       1.00800           0
     35026 TIP3     8370     TIP3     H2       HT       0.417000       1.00800           0
     35027 TIP3     8371     TIP3     OH2      OT      -0.834000       15.9994           0
     35028 TIP3     8371     TIP3     H1       HT       0.417000       1.00800           0
     35029 TIP3     8371     TIP3     H2       HT       0.417000       1.00800           0
     35030 TIP3     8372     TIP3     OH2      OT      -0.834000       15.9994           0
     35031 TIP3     8372     TIP3     H1       HT       0.417000       1.00800           0
     35032 TIP3     8372     TIP3     H2       HT       0.417000       1.00800           0
     35033 TIP3     8373     TIP3     OH2      OT      -0.834000       15.9994           0
     35034 TIP3     8373     TIP3     H1       HT       0.417000       1.00800           0
     35035 TIP3     8373     TIP3     H2       HT       0.417000       1.00800           0
     35036 TIP3     8374     TIP3     OH2      OT      -0.834000       15.9994           0
     35037 TIP3     8374     TIP3     H1       HT       0.417000       1.00800           0
     35038 TIP3     8374     TIP3     H2       HT       0.417000       1.00800           0
     35039 TIP3     8375     TIP3     OH2      OT      -0.834000       15.9994           0
     35040 TIP3     8375     TIP3     H1       HT       0.417000       1.00800           0
     35041 TIP3     8375     TIP3     H2       HT       0.417000       1.00800           0
     35042 TIP3     8376     TIP3     OH2      OT      -0.834000       15.9994           0
     35043 TIP3     8376     TIP3     H1       HT       0.417000       1.00800           0
     35044 TIP3     8376     TIP3     H2       HT       0.417000       1.00800           0
     35045 TIP3     8377     TIP3     OH2      OT      -0.834000       15.9994           0
     35046 TIP3     8377     TIP3     H1       HT       0.417000       1.00800           0
     35047 TIP3     8377     TIP3     H2       HT       0.417000       1.00800           0
     35048 TIP3     8378     TIP3     OH2      OT      -0.834000       15.9994           0
     35049 TIP3     8378     TIP3     H1       HT       0.417000       1.00800           0
     35050 TIP3     8378     TIP3     H2       HT       0.417000       1.00800           0
     35051 TIP3     8379     TIP3     OH2      OT      -0.834000       15.9994           0
     35052 TIP3     8379     TIP3     H1       HT       0.417000       1.00800           0
     35053 TIP3     8379     TIP3     H2       HT       0.417000       1.00800           0
     35054 TIP3     8380     TIP3     OH2      OT      -0.834000       15.9994           0
     35055 TIP3     8380     TIP3     H1       HT       0.417000       1.00800           0
     35056 TIP3     8380     TIP3     H2       HT       0.417000       1.00800           0
     35057 TIP3     8381     TIP3     OH2      OT      -0.834000       15.9994           0
     35058 TIP3     8381     TIP3     H1       HT       0.417000       1.00800           0
     35059 TIP3     8381     TIP3     H2       HT       0.417000       1.00800           0
     35060 TIP3     8382     TIP3     OH2      OT      -0.834000       15.9994           0
     35061 TIP3     8382     TIP3     H1       HT       0.417000       1.00800           0
     35062 TIP3     8382     TIP3     H2       HT       0.417000       1.00800           0
     35063 TIP3     8383     TIP3     OH2      OT      -0.834000       15.9994           0
     35064 TIP3     8383     TIP3     H1       HT       0.417000       1.00800           0
     35065 TIP3     8383     TIP3     H2       HT       0.417000       1.00800           0
     35066 TIP3     8384     TIP3     OH2      OT      -0.834000       15.9994           0
     35067 TIP3     8384     TIP3     H1       HT       0.417000       1.00800           0
     35068 TIP3     8384     TIP3     H2       HT       0.417000       1.00800           0
     35069 TIP3     8385     TIP3     OH2      OT      -0.834000       15.9994           0
     35070 TIP3     8385     TIP3     H1       HT       0.417000       1.00800           0
     35071 TIP3     8385     TIP3     H2       HT       0.417000       1.00800           0
     35072 TIP3     8386     TIP3     OH2      OT      -0.834000       15.9994           0
     35073 TIP3     8386     TIP3     H1       HT       0.417000       1.00800           0
     35074 TIP3     8386     TIP3     H2       HT       0.417000       1.00800           0
     35075 TIP3     8387     TIP3     OH2      OT      -0.834000       15.9994           0
     35076 TIP3     8387     TIP3     H1       HT       0.417000       1.00800           0
     35077 TIP3     8387     TIP3     H2       HT       0.417000       1.00800           0
     35078 TIP3     8388     TIP3     OH2      OT      -0.834000       15.9994           0
     35079 TIP3     8388     TIP3     H1       HT       0.417000       1.00800           0
     35080 TIP3     8388     TIP3     H2       HT       0.417000       1.00800           0
     35081 TIP3     8389     TIP3     OH2      OT      -0.834000       15.9994           0
     35082 TIP3     8389     TIP3     H1       HT       0.417000       1.00800           0
     35083 TIP3     8389     TIP3     H2       HT       0.417000       1.00800           0
     35084 TIP3     8390     TIP3     OH2      OT      -0.834000       15.9994           0
     35085 TIP3     8390     TIP3     H1       HT       0.417000       1.00800           0
     35086 TIP3     8390     TIP3     H2       HT       0.417000       1.00800           0
     35087 TIP3     8391     TIP3     OH2      OT      -0.834000       15.9994           0
     35088 TIP3     8391     TIP3     H1       HT       0.417000       1.00800           0
     35089 TIP3     8391     TIP3     H2       HT       0.417000       1.00800           0
     35090 TIP3     8392     TIP3     OH2      OT      -0.834000       15.9994           0
     35091 TIP3     8392     TIP3     H1       HT       0.417000       1.00800           0
     35092 TIP3     8392     TIP3     H2       HT       0.417000       1.00800           0
     35093 TIP3     8393     TIP3     OH2      OT      -0.834000       15.9994           0
     35094 TIP3     8393     TIP3     H1       HT       0.417000       1.00800           0
     35095 TIP3     8393     TIP3     H2       HT       0.417000       1.00800           0
     35096 TIP3     8394     TIP3     OH2      OT      -0.834000       15.9994           0
     35097 TIP3     8394     TIP3     H1       HT       0.417000       1.00800           0
     35098 TIP3     8394     TIP3     H2       HT       0.417000       1.00800           0
     35099 TIP3     8395     TIP3     OH2      OT      -0.834000       15.9994           0
     35100 TIP3     8395     TIP3     H1       HT       0.417000       1.00800           0
     35101 TIP3     8395     TIP3     H2       HT       0.417000       1.00800           0
     35102 TIP3     8396     TIP3     OH2      OT      -0.834000       15.9994           0
     35103 TIP3     8396     TIP3     H1       HT       0.417000       1.00800           0
     35104 TIP3     8396     TIP3     H2       HT       0.417000       1.00800           0
     35105 TIP3     8397     TIP3     OH2      OT      -0.834000       15.9994           0
     35106 TIP3     8397     TIP3     H1       HT       0.417000       1.00800           0
     35107 TIP3     8397     TIP3     H2       HT       0.417000       1.00800           0
     35108 TIP3     8398     TIP3     OH2      OT      -0.834000       15.9994           0
     35109 TIP3     8398     TIP3     H1       HT       0.417000       1.00800           0
     35110 TIP3     8398     TIP3     H2       HT       0.417000       1.00800           0
     35111 TIP3     8399     TIP3     OH2      OT      -0.834000       15.9994           0
     35112 TIP3     8399     TIP3     H1       HT       0.417000       1.00800           0
     35113 TIP3     8399     TIP3     H2       HT       0.417000       1.00800           0
     35114 TIP3     8400     TIP3     OH2      OT      -0.834000       15.9994           0
     35115 TIP3     8400     TIP3     H1       HT       0.417000       1.00800           0
     35116 TIP3     8400     TIP3     H2       HT       0.417000       1.00800           0
     35117 TIP3     8401     TIP3     OH2      OT      -0.834000       15.9994           0
     35118 TIP3     8401     TIP3     H1       HT       0.417000       1.00800           0
     35119 TIP3     8401     TIP3     H2       HT       0.417000       1.00800           0
     35120 TIP3     8402     TIP3     OH2      OT      -0.834000       15.9994           0
     35121 TIP3     8402     TIP3     H1       HT       0.417000       1.00800           0
     35122 TIP3     8402     TIP3     H2       HT       0.417000       1.00800           0
     35123 TIP3     8403     TIP3     OH2      OT      -0.834000       15.9994           0
     35124 TIP3     8403     TIP3     H1       HT       0.417000       1.00800           0
     35125 TIP3     8403     TIP3     H2       HT       0.417000       1.00800           0
     35126 TIP3     8404     TIP3     OH2      OT      -0.834000       15.9994           0
     35127 TIP3     8404     TIP3     H1       HT       0.417000       1.00800           0
     35128 TIP3     8404     TIP3     H2       HT       0.417000       1.00800           0
     35129 TIP3     8405     TIP3     OH2      OT      -0.834000       15.9994           0
     35130 TIP3     8405     TIP3     H1       HT       0.417000       1.00800           0
     35131 TIP3     8405     TIP3     H2       HT       0.417000       1.00800           0
     35132 TIP3     8406     TIP3     OH2      OT      -0.834000       15.9994           0
     35133 TIP3     8406     TIP3     H1       HT       0.417000       1.00800           0
     35134 TIP3     8406     TIP3     H2       HT       0.417000       1.00800           0
     35135 TIP3     8407     TIP3     OH2      OT      -0.834000       15.9994           0
     35136 TIP3     8407     TIP3     H1       HT       0.417000       1.00800           0
     35137 TIP3     8407     TIP3     H2       HT       0.417000       1.00800           0
     35138 TIP3     8408     TIP3     OH2      OT      -0.834000       15.9994           0
     35139 TIP3     8408     TIP3     H1       HT       0.417000       1.00800           0
     35140 TIP3     8408     TIP3     H2       HT       0.417000       1.00800           0
     35141 TIP3     8409     TIP3     OH2      OT      -0.834000       15.9994           0
     35142 TIP3     8409     TIP3     H1       HT       0.417000       1.00800           0
     35143 TIP3     8409     TIP3     H2       HT       0.417000       1.00800           0
     35144 TIP3     8410     TIP3     OH2      OT      -0.834000       15.9994           0
     35145 TIP3     8410     TIP3     H1       HT       0.417000       1.00800           0
     35146 TIP3     8410     TIP3     H2       HT       0.417000       1.00800           0
     35147 TIP3     8411     TIP3     OH2      OT      -0.834000       15.9994           0
     35148 TIP3     8411     TIP3     H1       HT       0.417000       1.00800           0
     35149 TIP3     8411     TIP3     H2       HT       0.417000       1.00800           0
     35150 TIP3     8412     TIP3     OH2      OT      -0.834000       15.9994           0
     35151 TIP3     8412     TIP3     H1       HT       0.417000       1.00800           0
     35152 TIP3     8412     TIP3     H2       HT       0.417000       1.00800           0
     35153 TIP3     8413     TIP3     OH2      OT      -0.834000       15.9994           0
     35154 TIP3     8413     TIP3     H1       HT       0.417000       1.00800           0
     35155 TIP3     8413     TIP3     H2       HT       0.417000       1.00800           0
     35156 TIP3     8414     TIP3     OH2      OT      -0.834000       15.9994           0
     35157 TIP3     8414     TIP3     H1       HT       0.417000       1.00800           0
     35158 TIP3     8414     TIP3     H2       HT       0.417000       1.00800           0
     35159 TIP3     8415     TIP3     OH2      OT      -0.834000       15.9994           0
     35160 TIP3     8415     TIP3     H1       HT       0.417000       1.00800           0
     35161 TIP3     8415     TIP3     H2       HT       0.417000       1.00800           0
     35162 TIP3     8416     TIP3     OH2      OT      -0.834000       15.9994           0
     35163 TIP3     8416     TIP3     H1       HT       0.417000       1.00800           0
     35164 TIP3     8416     TIP3     H2       HT       0.417000       1.00800           0
     35165 TIP3     8417     TIP3     OH2      OT      -0.834000       15.9994           0
     35166 TIP3     8417     TIP3     H1       HT       0.417000       1.00800           0
     35167 TIP3     8417     TIP3     H2       HT       0.417000       1.00800           0
     35168 TIP3     8418     TIP3     OH2      OT      -0.834000       15.9994           0
     35169 TIP3     8418     TIP3     H1       HT       0.417000       1.00800           0
     35170 TIP3     8418     TIP3     H2       HT       0.417000       1.00800           0
     35171 TIP3     8419     TIP3     OH2      OT      -0.834000       15.9994           0
     35172 TIP3     8419     TIP3     H1       HT       0.417000       1.00800           0
     35173 TIP3     8419     TIP3     H2       HT       0.417000       1.00800           0
     35174 TIP3     8420     TIP3     OH2      OT      -0.834000       15.9994           0
     35175 TIP3     8420     TIP3     H1       HT       0.417000       1.00800           0
     35176 TIP3     8420     TIP3     H2       HT       0.417000       1.00800           0
     35177 TIP3     8421     TIP3     OH2      OT      -0.834000       15.9994           0
     35178 TIP3     8421     TIP3     H1       HT       0.417000       1.00800           0
     35179 TIP3     8421     TIP3     H2       HT       0.417000       1.00800           0
     35180 TIP3     8422     TIP3     OH2      OT      -0.834000       15.9994           0
     35181 TIP3     8422     TIP3     H1       HT       0.417000       1.00800           0
     35182 TIP3     8422     TIP3     H2       HT       0.417000       1.00800           0
     35183 TIP3     8423     TIP3     OH2      OT      -0.834000       15.9994           0
     35184 TIP3     8423     TIP3     H1       HT       0.417000       1.00800           0
     35185 TIP3     8423     TIP3     H2       HT       0.417000       1.00800           0
     35186 TIP3     8424     TIP3     OH2      OT      -0.834000       15.9994           0
     35187 TIP3     8424     TIP3     H1       HT       0.417000       1.00800           0
     35188 TIP3     8424     TIP3     H2       HT       0.417000       1.00800           0
     35189 TIP3     8425     TIP3     OH2      OT      -0.834000       15.9994           0
     35190 TIP3     8425     TIP3     H1       HT       0.417000       1.00800           0
     35191 TIP3     8425     TIP3     H2       HT       0.417000       1.00800           0
     35192 TIP3     8426     TIP3     OH2      OT      -0.834000       15.9994           0
     35193 TIP3     8426     TIP3     H1       HT       0.417000       1.00800           0
     35194 TIP3     8426     TIP3     H2       HT       0.417000       1.00800           0
     35195 TIP3     8427     TIP3     OH2      OT      -0.834000       15.9994           0
     35196 TIP3     8427     TIP3     H1       HT       0.417000       1.00800           0
     35197 TIP3     8427     TIP3     H2       HT       0.417000       1.00800           0
     35198 TIP3     8428     TIP3     OH2      OT      -0.834000       15.9994           0
     35199 TIP3     8428     TIP3     H1       HT       0.417000       1.00800           0
     35200 TIP3     8428     TIP3     H2       HT       0.417000       1.00800           0
     35201 TIP3     8429     TIP3     OH2      OT      -0.834000       15.9994           0
     35202 TIP3     8429     TIP3     H1       HT       0.417000       1.00800           0
     35203 TIP3     8429     TIP3     H2       HT       0.417000       1.00800           0
     35204 TIP3     8430     TIP3     OH2      OT      -0.834000       15.9994           0
     35205 TIP3     8430     TIP3     H1       HT       0.417000       1.00800           0
     35206 TIP3     8430     TIP3     H2       HT       0.417000       1.00800           0
     35207 TIP3     8431     TIP3     OH2      OT      -0.834000       15.9994           0
     35208 TIP3     8431     TIP3     H1       HT       0.417000       1.00800           0
     35209 TIP3     8431     TIP3     H2       HT       0.417000       1.00800           0
     35210 TIP3     8432     TIP3     OH2      OT      -0.834000       15.9994           0
     35211 TIP3     8432     TIP3     H1       HT       0.417000       1.00800           0
     35212 TIP3     8432     TIP3     H2       HT       0.417000       1.00800           0
     35213 TIP3     8433     TIP3     OH2      OT      -0.834000       15.9994           0
     35214 TIP3     8433     TIP3     H1       HT       0.417000       1.00800           0
     35215 TIP3     8433     TIP3     H2       HT       0.417000       1.00800           0
     35216 TIP3     8434     TIP3     OH2      OT      -0.834000       15.9994           0
     35217 TIP3     8434     TIP3     H1       HT       0.417000       1.00800           0
     35218 TIP3     8434     TIP3     H2       HT       0.417000       1.00800           0
     35219 TIP3     8435     TIP3     OH2      OT      -0.834000       15.9994           0
     35220 TIP3     8435     TIP3     H1       HT       0.417000       1.00800           0
     35221 TIP3     8435     TIP3     H2       HT       0.417000       1.00800           0
     35222 TIP3     8436     TIP3     OH2      OT      -0.834000       15.9994           0
     35223 TIP3     8436     TIP3     H1       HT       0.417000       1.00800           0
     35224 TIP3     8436     TIP3     H2       HT       0.417000       1.00800           0
     35225 TIP3     8437     TIP3     OH2      OT      -0.834000       15.9994           0
     35226 TIP3     8437     TIP3     H1       HT       0.417000       1.00800           0
     35227 TIP3     8437     TIP3     H2       HT       0.417000       1.00800           0
     35228 TIP3     8438     TIP3     OH2      OT      -0.834000       15.9994           0
     35229 TIP3     8438     TIP3     H1       HT       0.417000       1.00800           0
     35230 TIP3     8438     TIP3     H2       HT       0.417000       1.00800           0
     35231 TIP3     8439     TIP3     OH2      OT      -0.834000       15.9994           0
     35232 TIP3     8439     TIP3     H1       HT       0.417000       1.00800           0
     35233 TIP3     8439     TIP3     H2       HT       0.417000       1.00800           0
     35234 TIP3     8440     TIP3     OH2      OT      -0.834000       15.9994           0
     35235 TIP3     8440     TIP3     H1       HT       0.417000       1.00800           0
     35236 TIP3     8440     TIP3     H2       HT       0.417000       1.00800           0
     35237 TIP3     8441     TIP3     OH2      OT      -0.834000       15.9994           0
     35238 TIP3     8441     TIP3     H1       HT       0.417000       1.00800           0
     35239 TIP3     8441     TIP3     H2       HT       0.417000       1.00800           0
     35240 TIP3     8442     TIP3     OH2      OT      -0.834000       15.9994           0
     35241 TIP3     8442     TIP3     H1       HT       0.417000       1.00800           0
     35242 TIP3     8442     TIP3     H2       HT       0.417000       1.00800           0
     35243 TIP3     8443     TIP3     OH2      OT      -0.834000       15.9994           0
     35244 TIP3     8443     TIP3     H1       HT       0.417000       1.00800           0
     35245 TIP3     8443     TIP3     H2       HT       0.417000       1.00800           0
     35246 TIP3     8444     TIP3     OH2      OT      -0.834000       15.9994           0
     35247 TIP3     8444     TIP3     H1       HT       0.417000       1.00800           0
     35248 TIP3     8444     TIP3     H2       HT       0.417000       1.00800           0
     35249 TIP3     8445     TIP3     OH2      OT      -0.834000       15.9994           0
     35250 TIP3     8445     TIP3     H1       HT       0.417000       1.00800           0
     35251 TIP3     8445     TIP3     H2       HT       0.417000       1.00800           0
     35252 TIP3     8446     TIP3     OH2      OT      -0.834000       15.9994           0
     35253 TIP3     8446     TIP3     H1       HT       0.417000       1.00800           0
     35254 TIP3     8446     TIP3     H2       HT       0.417000       1.00800           0
     35255 TIP3     8447     TIP3     OH2      OT      -0.834000       15.9994           0
     35256 TIP3     8447     TIP3     H1       HT       0.417000       1.00800           0
     35257 TIP3     8447     TIP3     H2       HT       0.417000       1.00800           0
     35258 TIP3     8448     TIP3     OH2      OT      -0.834000       15.9994           0
     35259 TIP3     8448     TIP3     H1       HT       0.417000       1.00800           0
     35260 TIP3     8448     TIP3     H2       HT       0.417000       1.00800           0
     35261 TIP3     8449     TIP3     OH2      OT      -0.834000       15.9994           0
     35262 TIP3     8449     TIP3     H1       HT       0.417000       1.00800           0
     35263 TIP3     8449     TIP3     H2       HT       0.417000       1.00800           0
     35264 TIP3     8450     TIP3     OH2      OT      -0.834000       15.9994           0
     35265 TIP3     8450     TIP3     H1       HT       0.417000       1.00800           0
     35266 TIP3     8450     TIP3     H2       HT       0.417000       1.00800           0
     35267 TIP3     8451     TIP3     OH2      OT      -0.834000       15.9994           0
     35268 TIP3     8451     TIP3     H1       HT       0.417000       1.00800           0
     35269 TIP3     8451     TIP3     H2       HT       0.417000       1.00800           0
     35270 TIP3     8452     TIP3     OH2      OT      -0.834000       15.9994           0
     35271 TIP3     8452     TIP3     H1       HT       0.417000       1.00800           0
     35272 TIP3     8452     TIP3     H2       HT       0.417000       1.00800           0
     35273 TIP3     8453     TIP3     OH2      OT      -0.834000       15.9994           0
     35274 TIP3     8453     TIP3     H1       HT       0.417000       1.00800           0
     35275 TIP3     8453     TIP3     H2       HT       0.417000       1.00800           0
     35276 TIP3     8454     TIP3     OH2      OT      -0.834000       15.9994           0
     35277 TIP3     8454     TIP3     H1       HT       0.417000       1.00800           0
     35278 TIP3     8454     TIP3     H2       HT       0.417000       1.00800           0
     35279 TIP3     8455     TIP3     OH2      OT      -0.834000       15.9994           0
     35280 TIP3     8455     TIP3     H1       HT       0.417000       1.00800           0
     35281 TIP3     8455     TIP3     H2       HT       0.417000       1.00800           0
     35282 TIP3     8456     TIP3     OH2      OT      -0.834000       15.9994           0
     35283 TIP3     8456     TIP3     H1       HT       0.417000       1.00800           0
     35284 TIP3     8456     TIP3     H2       HT       0.417000       1.00800           0
     35285 TIP3     8457     TIP3     OH2      OT      -0.834000       15.9994           0
     35286 TIP3     8457     TIP3     H1       HT       0.417000       1.00800           0
     35287 TIP3     8457     TIP3     H2       HT       0.417000       1.00800           0
     35288 TIP3     8458     TIP3     OH2      OT      -0.834000       15.9994           0
     35289 TIP3     8458     TIP3     H1       HT       0.417000       1.00800           0
     35290 TIP3     8458     TIP3     H2       HT       0.417000       1.00800           0
     35291 TIP3     8459     TIP3     OH2      OT      -0.834000       15.9994           0
     35292 TIP3     8459     TIP3     H1       HT       0.417000       1.00800           0
     35293 TIP3     8459     TIP3     H2       HT       0.417000       1.00800           0
     35294 TIP3     8460     TIP3     OH2      OT      -0.834000       15.9994           0
     35295 TIP3     8460     TIP3     H1       HT       0.417000       1.00800           0
     35296 TIP3     8460     TIP3     H2       HT       0.417000       1.00800           0
     35297 TIP3     8461     TIP3     OH2      OT      -0.834000       15.9994           0
     35298 TIP3     8461     TIP3     H1       HT       0.417000       1.00800           0
     35299 TIP3     8461     TIP3     H2       HT       0.417000       1.00800           0
     35300 TIP3     8462     TIP3     OH2      OT      -0.834000       15.9994           0
     35301 TIP3     8462     TIP3     H1       HT       0.417000       1.00800           0
     35302 TIP3     8462     TIP3     H2       HT       0.417000       1.00800           0
     35303 TIP3     8463     TIP3     OH2      OT      -0.834000       15.9994           0
     35304 TIP3     8463     TIP3     H1       HT       0.417000       1.00800           0
     35305 TIP3     8463     TIP3     H2       HT       0.417000       1.00800           0
     35306 TIP3     8464     TIP3     OH2      OT      -0.834000       15.9994           0
     35307 TIP3     8464     TIP3     H1       HT       0.417000       1.00800           0
     35308 TIP3     8464     TIP3     H2       HT       0.417000       1.00800           0
     35309 TIP3     8465     TIP3     OH2      OT      -0.834000       15.9994           0
     35310 TIP3     8465     TIP3     H1       HT       0.417000       1.00800           0
     35311 TIP3     8465     TIP3     H2       HT       0.417000       1.00800           0
     35312 TIP3     8466     TIP3     OH2      OT      -0.834000       15.9994           0
     35313 TIP3     8466     TIP3     H1       HT       0.417000       1.00800           0
     35314 TIP3     8466     TIP3     H2       HT       0.417000       1.00800           0
     35315 TIP3     8467     TIP3     OH2      OT      -0.834000       15.9994           0
     35316 TIP3     8467     TIP3     H1       HT       0.417000       1.00800           0
     35317 TIP3     8467     TIP3     H2       HT       0.417000       1.00800           0
     35318 TIP3     8468     TIP3     OH2      OT      -0.834000       15.9994           0
     35319 TIP3     8468     TIP3     H1       HT       0.417000       1.00800           0
     35320 TIP3     8468     TIP3     H2       HT       0.417000       1.00800           0
     35321 TIP3     8469     TIP3     OH2      OT      -0.834000       15.9994           0
     35322 TIP3     8469     TIP3     H1       HT       0.417000       1.00800           0
     35323 TIP3     8469     TIP3     H2       HT       0.417000       1.00800           0
     35324 TIP3     8470     TIP3     OH2      OT      -0.834000       15.9994           0
     35325 TIP3     8470     TIP3     H1       HT       0.417000       1.00800           0
     35326 TIP3     8470     TIP3     H2       HT       0.417000       1.00800           0
     35327 TIP3     8471     TIP3     OH2      OT      -0.834000       15.9994           0
     35328 TIP3     8471     TIP3     H1       HT       0.417000       1.00800           0
     35329 TIP3     8471     TIP3     H2       HT       0.417000       1.00800           0
     35330 TIP3     8472     TIP3     OH2      OT      -0.834000       15.9994           0
     35331 TIP3     8472     TIP3     H1       HT       0.417000       1.00800           0
     35332 TIP3     8472     TIP3     H2       HT       0.417000       1.00800           0
     35333 TIP3     8473     TIP3     OH2      OT      -0.834000       15.9994           0
     35334 TIP3     8473     TIP3     H1       HT       0.417000       1.00800           0
     35335 TIP3     8473     TIP3     H2       HT       0.417000       1.00800           0
     35336 TIP3     8474     TIP3     OH2      OT      -0.834000       15.9994           0
     35337 TIP3     8474     TIP3     H1       HT       0.417000       1.00800           0
     35338 TIP3     8474     TIP3     H2       HT       0.417000       1.00800           0
     35339 TIP3     8475     TIP3     OH2      OT      -0.834000       15.9994           0
     35340 TIP3     8475     TIP3     H1       HT       0.417000       1.00800           0
     35341 TIP3     8475     TIP3     H2       HT       0.417000       1.00800           0
     35342 TIP3     8476     TIP3     OH2      OT      -0.834000       15.9994           0
     35343 TIP3     8476     TIP3     H1       HT       0.417000       1.00800           0
     35344 TIP3     8476     TIP3     H2       HT       0.417000       1.00800           0
     35345 TIP3     8477     TIP3     OH2      OT      -0.834000       15.9994           0
     35346 TIP3     8477     TIP3     H1       HT       0.417000       1.00800           0
     35347 TIP3     8477     TIP3     H2       HT       0.417000       1.00800           0
     35348 TIP3     8478     TIP3     OH2      OT      -0.834000       15.9994           0
     35349 TIP3     8478     TIP3     H1       HT       0.417000       1.00800           0
     35350 TIP3     8478     TIP3     H2       HT       0.417000       1.00800           0
     35351 TIP3     8479     TIP3     OH2      OT      -0.834000       15.9994           0
     35352 TIP3     8479     TIP3     H1       HT       0.417000       1.00800           0
     35353 TIP3     8479     TIP3     H2       HT       0.417000       1.00800           0
     35354 TIP3     8480     TIP3     OH2      OT      -0.834000       15.9994           0
     35355 TIP3     8480     TIP3     H1       HT       0.417000       1.00800           0
     35356 TIP3     8480     TIP3     H2       HT       0.417000       1.00800           0
     35357 TIP3     8481     TIP3     OH2      OT      -0.834000       15.9994           0
     35358 TIP3     8481     TIP3     H1       HT       0.417000       1.00800           0
     35359 TIP3     8481     TIP3     H2       HT       0.417000       1.00800           0
     35360 TIP3     8482     TIP3     OH2      OT      -0.834000       15.9994           0
     35361 TIP3     8482     TIP3     H1       HT       0.417000       1.00800           0
     35362 TIP3     8482     TIP3     H2       HT       0.417000       1.00800           0
     35363 TIP3     8483     TIP3     OH2      OT      -0.834000       15.9994           0
     35364 TIP3     8483     TIP3     H1       HT       0.417000       1.00800           0
     35365 TIP3     8483     TIP3     H2       HT       0.417000       1.00800           0
     35366 TIP3     8484     TIP3     OH2      OT      -0.834000       15.9994           0
     35367 TIP3     8484     TIP3     H1       HT       0.417000       1.00800           0
     35368 TIP3     8484     TIP3     H2       HT       0.417000       1.00800           0
     35369 TIP3     8485     TIP3     OH2      OT      -0.834000       15.9994           0
     35370 TIP3     8485     TIP3     H1       HT       0.417000       1.00800           0
     35371 TIP3     8485     TIP3     H2       HT       0.417000       1.00800           0
     35372 TIP3     8486     TIP3     OH2      OT      -0.834000       15.9994           0
     35373 TIP3     8486     TIP3     H1       HT       0.417000       1.00800           0
     35374 TIP3     8486     TIP3     H2       HT       0.417000       1.00800           0
     35375 TIP3     8487     TIP3     OH2      OT      -0.834000       15.9994           0
     35376 TIP3     8487     TIP3     H1       HT       0.417000       1.00800           0
     35377 TIP3     8487     TIP3     H2       HT       0.417000       1.00800           0
     35378 TIP3     8488     TIP3     OH2      OT      -0.834000       15.9994           0
     35379 TIP3     8488     TIP3     H1       HT       0.417000       1.00800           0
     35380 TIP3     8488     TIP3     H2       HT       0.417000       1.00800           0
     35381 TIP3     8489     TIP3     OH2      OT      -0.834000       15.9994           0
     35382 TIP3     8489     TIP3     H1       HT       0.417000       1.00800           0
     35383 TIP3     8489     TIP3     H2       HT       0.417000       1.00800           0
     35384 TIP3     8490     TIP3     OH2      OT      -0.834000       15.9994           0
     35385 TIP3     8490     TIP3     H1       HT       0.417000       1.00800           0
     35386 TIP3     8490     TIP3     H2       HT       0.417000       1.00800           0
     35387 TIP3     8491     TIP3     OH2      OT      -0.834000       15.9994           0
     35388 TIP3     8491     TIP3     H1       HT       0.417000       1.00800           0
     35389 TIP3     8491     TIP3     H2       HT       0.417000       1.00800           0
     35390 TIP3     8492     TIP3     OH2      OT      -0.834000       15.9994           0
     35391 TIP3     8492     TIP3     H1       HT       0.417000       1.00800           0
     35392 TIP3     8492     TIP3     H2       HT       0.417000       1.00800           0
     35393 TIP3     8493     TIP3     OH2      OT      -0.834000       15.9994           0
     35394 TIP3     8493     TIP3     H1       HT       0.417000       1.00800           0
     35395 TIP3     8493     TIP3     H2       HT       0.417000       1.00800           0
     35396 TIP3     8494     TIP3     OH2      OT      -0.834000       15.9994           0
     35397 TIP3     8494     TIP3     H1       HT       0.417000       1.00800           0
     35398 TIP3     8494     TIP3     H2       HT       0.417000       1.00800           0
     35399 TIP3     8495     TIP3     OH2      OT      -0.834000       15.9994           0
     35400 TIP3     8495     TIP3     H1       HT       0.417000       1.00800           0
     35401 TIP3     8495     TIP3     H2       HT       0.417000       1.00800           0
     35402 TIP3     8496     TIP3     OH2      OT      -0.834000       15.9994           0
     35403 TIP3     8496     TIP3     H1       HT       0.417000       1.00800           0
     35404 TIP3     8496     TIP3     H2       HT       0.417000       1.00800           0
     35405 TIP3     8497     TIP3     OH2      OT      -0.834000       15.9994           0
     35406 TIP3     8497     TIP3     H1       HT       0.417000       1.00800           0
     35407 TIP3     8497     TIP3     H2       HT       0.417000       1.00800           0
     35408 TIP3     8498     TIP3     OH2      OT      -0.834000       15.9994           0
     35409 TIP3     8498     TIP3     H1       HT       0.417000       1.00800           0
     35410 TIP3     8498     TIP3     H2       HT       0.417000       1.00800           0
     35411 TIP3     8499     TIP3     OH2      OT      -0.834000       15.9994           0
     35412 TIP3     8499     TIP3     H1       HT       0.417000       1.00800           0
     35413 TIP3     8499     TIP3     H2       HT       0.417000       1.00800           0
     35414 TIP3     8500     TIP3     OH2      OT      -0.834000       15.9994           0
     35415 TIP3     8500     TIP3     H1       HT       0.417000       1.00800           0
     35416 TIP3     8500     TIP3     H2       HT       0.417000       1.00800           0
     35417 TIP3     8501     TIP3     OH2      OT      -0.834000       15.9994           0
     35418 TIP3     8501     TIP3     H1       HT       0.417000       1.00800           0
     35419 TIP3     8501     TIP3     H2       HT       0.417000       1.00800           0
     35420 TIP3     8502     TIP3     OH2      OT      -0.834000       15.9994           0
     35421 TIP3     8502     TIP3     H1       HT       0.417000       1.00800           0
     35422 TIP3     8502     TIP3     H2       HT       0.417000       1.00800           0
     35423 TIP3     8503     TIP3     OH2      OT      -0.834000       15.9994           0
     35424 TIP3     8503     TIP3     H1       HT       0.417000       1.00800           0
     35425 TIP3     8503     TIP3     H2       HT       0.417000       1.00800           0
     35426 TIP3     8504     TIP3     OH2      OT      -0.834000       15.9994           0
     35427 TIP3     8504     TIP3     H1       HT       0.417000       1.00800           0
     35428 TIP3     8504     TIP3     H2       HT       0.417000       1.00800           0
     35429 TIP3     8505     TIP3     OH2      OT      -0.834000       15.9994           0
     35430 TIP3     8505     TIP3     H1       HT       0.417000       1.00800           0
     35431 TIP3     8505     TIP3     H2       HT       0.417000       1.00800           0
     35432 TIP3     8506     TIP3     OH2      OT      -0.834000       15.9994           0
     35433 TIP3     8506     TIP3     H1       HT       0.417000       1.00800           0
     35434 TIP3     8506     TIP3     H2       HT       0.417000       1.00800           0
     35435 TIP3     8507     TIP3     OH2      OT      -0.834000       15.9994           0
     35436 TIP3     8507     TIP3     H1       HT       0.417000       1.00800           0
     35437 TIP3     8507     TIP3     H2       HT       0.417000       1.00800           0
     35438 TIP3     8508     TIP3     OH2      OT      -0.834000       15.9994           0
     35439 TIP3     8508     TIP3     H1       HT       0.417000       1.00800           0
     35440 TIP3     8508     TIP3     H2       HT       0.417000       1.00800           0
     35441 TIP3     8509     TIP3     OH2      OT      -0.834000       15.9994           0
     35442 TIP3     8509     TIP3     H1       HT       0.417000       1.00800           0
     35443 TIP3     8509     TIP3     H2       HT       0.417000       1.00800           0
     35444 TIP3     8510     TIP3     OH2      OT      -0.834000       15.9994           0
     35445 TIP3     8510     TIP3     H1       HT       0.417000       1.00800           0
     35446 TIP3     8510     TIP3     H2       HT       0.417000       1.00800           0
     35447 TIP3     8511     TIP3     OH2      OT      -0.834000       15.9994           0
     35448 TIP3     8511     TIP3     H1       HT       0.417000       1.00800           0
     35449 TIP3     8511     TIP3     H2       HT       0.417000       1.00800           0
     35450 TIP3     8512     TIP3     OH2      OT      -0.834000       15.9994           0
     35451 TIP3     8512     TIP3     H1       HT       0.417000       1.00800           0
     35452 TIP3     8512     TIP3     H2       HT       0.417000       1.00800           0
     35453 TIP3     8513     TIP3     OH2      OT      -0.834000       15.9994           0
     35454 TIP3     8513     TIP3     H1       HT       0.417000       1.00800           0
     35455 TIP3     8513     TIP3     H2       HT       0.417000       1.00800           0
     35456 TIP3     8514     TIP3     OH2      OT      -0.834000       15.9994           0
     35457 TIP3     8514     TIP3     H1       HT       0.417000       1.00800           0
     35458 TIP3     8514     TIP3     H2       HT       0.417000       1.00800           0
     35459 TIP3     8515     TIP3     OH2      OT      -0.834000       15.9994           0
     35460 TIP3     8515     TIP3     H1       HT       0.417000       1.00800           0
     35461 TIP3     8515     TIP3     H2       HT       0.417000       1.00800           0
     35462 TIP3     8516     TIP3     OH2      OT      -0.834000       15.9994           0
     35463 TIP3     8516     TIP3     H1       HT       0.417000       1.00800           0
     35464 TIP3     8516     TIP3     H2       HT       0.417000       1.00800           0
     35465 TIP3     8517     TIP3     OH2      OT      -0.834000       15.9994           0
     35466 TIP3     8517     TIP3     H1       HT       0.417000       1.00800           0
     35467 TIP3     8517     TIP3     H2       HT       0.417000       1.00800           0
     35468 TIP3     8518     TIP3     OH2      OT      -0.834000       15.9994           0
     35469 TIP3     8518     TIP3     H1       HT       0.417000       1.00800           0
     35470 TIP3     8518     TIP3     H2       HT       0.417000       1.00800           0
     35471 TIP3     8519     TIP3     OH2      OT      -0.834000       15.9994           0
     35472 TIP3     8519     TIP3     H1       HT       0.417000       1.00800           0
     35473 TIP3     8519     TIP3     H2       HT       0.417000       1.00800           0
     35474 TIP3     8520     TIP3     OH2      OT      -0.834000       15.9994           0
     35475 TIP3     8520     TIP3     H1       HT       0.417000       1.00800           0
     35476 TIP3     8520     TIP3     H2       HT       0.417000       1.00800           0
     35477 TIP3     8521     TIP3     OH2      OT      -0.834000       15.9994           0
     35478 TIP3     8521     TIP3     H1       HT       0.417000       1.00800           0
     35479 TIP3     8521     TIP3     H2       HT       0.417000       1.00800           0
     35480 TIP3     8522     TIP3     OH2      OT      -0.834000       15.9994           0
     35481 TIP3     8522     TIP3     H1       HT       0.417000       1.00800           0
     35482 TIP3     8522     TIP3     H2       HT       0.417000       1.00800           0
     35483 TIP3     8523     TIP3     OH2      OT      -0.834000       15.9994           0
     35484 TIP3     8523     TIP3     H1       HT       0.417000       1.00800           0
     35485 TIP3     8523     TIP3     H2       HT       0.417000       1.00800           0
     35486 TIP3     8524     TIP3     OH2      OT      -0.834000       15.9994           0
     35487 TIP3     8524     TIP3     H1       HT       0.417000       1.00800           0
     35488 TIP3     8524     TIP3     H2       HT       0.417000       1.00800           0
     35489 TIP3     8525     TIP3     OH2      OT      -0.834000       15.9994           0
     35490 TIP3     8525     TIP3     H1       HT       0.417000       1.00800           0
     35491 TIP3     8525     TIP3     H2       HT       0.417000       1.00800           0
     35492 TIP3     8526     TIP3     OH2      OT      -0.834000       15.9994           0
     35493 TIP3     8526     TIP3     H1       HT       0.417000       1.00800           0
     35494 TIP3     8526     TIP3     H2       HT       0.417000       1.00800           0
     35495 TIP3     8527     TIP3     OH2      OT      -0.834000       15.9994           0
     35496 TIP3     8527     TIP3     H1       HT       0.417000       1.00800           0
     35497 TIP3     8527     TIP3     H2       HT       0.417000       1.00800           0
     35498 TIP3     8528     TIP3     OH2      OT      -0.834000       15.9994           0
     35499 TIP3     8528     TIP3     H1       HT       0.417000       1.00800           0
     35500 TIP3     8528     TIP3     H2       HT       0.417000       1.00800           0
     35501 TIP3     8529     TIP3     OH2      OT      -0.834000       15.9994           0
     35502 TIP3     8529     TIP3     H1       HT       0.417000       1.00800           0
     35503 TIP3     8529     TIP3     H2       HT       0.417000       1.00800           0
     35504 TIP3     8530     TIP3     OH2      OT      -0.834000       15.9994           0
     35505 TIP3     8530     TIP3     H1       HT       0.417000       1.00800           0
     35506 TIP3     8530     TIP3     H2       HT       0.417000       1.00800           0
     35507 TIP3     8531     TIP3     OH2      OT      -0.834000       15.9994           0
     35508 TIP3     8531     TIP3     H1       HT       0.417000       1.00800           0
     35509 TIP3     8531     TIP3     H2       HT       0.417000       1.00800           0
     35510 TIP3     8532     TIP3     OH2      OT      -0.834000       15.9994           0
     35511 TIP3     8532     TIP3     H1       HT       0.417000       1.00800           0
     35512 TIP3     8532     TIP3     H2       HT       0.417000       1.00800           0
     35513 TIP3     8533     TIP3     OH2      OT      -0.834000       15.9994           0
     35514 TIP3     8533     TIP3     H1       HT       0.417000       1.00800           0
     35515 TIP3     8533     TIP3     H2       HT       0.417000       1.00800           0
     35516 TIP3     8534     TIP3     OH2      OT      -0.834000       15.9994           0
     35517 TIP3     8534     TIP3     H1       HT       0.417000       1.00800           0
     35518 TIP3     8534     TIP3     H2       HT       0.417000       1.00800           0
     35519 TIP3     8535     TIP3     OH2      OT      -0.834000       15.9994           0
     35520 TIP3     8535     TIP3     H1       HT       0.417000       1.00800           0
     35521 TIP3     8535     TIP3     H2       HT       0.417000       1.00800           0
     35522 TIP3     8536     TIP3     OH2      OT      -0.834000       15.9994           0
     35523 TIP3     8536     TIP3     H1       HT       0.417000       1.00800           0
     35524 TIP3     8536     TIP3     H2       HT       0.417000       1.00800           0
     35525 TIP3     8537     TIP3     OH2      OT      -0.834000       15.9994           0
     35526 TIP3     8537     TIP3     H1       HT       0.417000       1.00800           0
     35527 TIP3     8537     TIP3     H2       HT       0.417000       1.00800           0
     35528 TIP3     8538     TIP3     OH2      OT      -0.834000       15.9994           0
     35529 TIP3     8538     TIP3     H1       HT       0.417000       1.00800           0
     35530 TIP3     8538     TIP3     H2       HT       0.417000       1.00800           0
     35531 TIP3     8539     TIP3     OH2      OT      -0.834000       15.9994           0
     35532 TIP3     8539     TIP3     H1       HT       0.417000       1.00800           0
     35533 TIP3     8539     TIP3     H2       HT       0.417000       1.00800           0
     35534 TIP3     8540     TIP3     OH2      OT      -0.834000       15.9994           0
     35535 TIP3     8540     TIP3     H1       HT       0.417000       1.00800           0
     35536 TIP3     8540     TIP3     H2       HT       0.417000       1.00800           0
     35537 TIP3     8541     TIP3     OH2      OT      -0.834000       15.9994           0
     35538 TIP3     8541     TIP3     H1       HT       0.417000       1.00800           0
     35539 TIP3     8541     TIP3     H2       HT       0.417000       1.00800           0
     35540 TIP3     8542     TIP3     OH2      OT      -0.834000       15.9994           0
     35541 TIP3     8542     TIP3     H1       HT       0.417000       1.00800           0
     35542 TIP3     8542     TIP3     H2       HT       0.417000       1.00800           0
     35543 TIP3     8543     TIP3     OH2      OT      -0.834000       15.9994           0
     35544 TIP3     8543     TIP3     H1       HT       0.417000       1.00800           0
     35545 TIP3     8543     TIP3     H2       HT       0.417000       1.00800           0
     35546 TIP3     8544     TIP3     OH2      OT      -0.834000       15.9994           0
     35547 TIP3     8544     TIP3     H1       HT       0.417000       1.00800           0
     35548 TIP3     8544     TIP3     H2       HT       0.417000       1.00800           0
     35549 TIP3     8545     TIP3     OH2      OT      -0.834000       15.9994           0
     35550 TIP3     8545     TIP3     H1       HT       0.417000       1.00800           0
     35551 TIP3     8545     TIP3     H2       HT       0.417000       1.00800           0
     35552 TIP3     8546     TIP3     OH2      OT      -0.834000       15.9994           0
     35553 TIP3     8546     TIP3     H1       HT       0.417000       1.00800           0
     35554 TIP3     8546     TIP3     H2       HT       0.417000       1.00800           0
     35555 TIP3     8547     TIP3     OH2      OT      -0.834000       15.9994           0
     35556 TIP3     8547     TIP3     H1       HT       0.417000       1.00800           0
     35557 TIP3     8547     TIP3     H2       HT       0.417000       1.00800           0
     35558 TIP3     8548     TIP3     OH2      OT      -0.834000       15.9994           0
     35559 TIP3     8548     TIP3     H1       HT       0.417000       1.00800           0
     35560 TIP3     8548     TIP3     H2       HT       0.417000       1.00800           0
     35561 TIP3     8549     TIP3     OH2      OT      -0.834000       15.9994           0
     35562 TIP3     8549     TIP3     H1       HT       0.417000       1.00800           0
     35563 TIP3     8549     TIP3     H2       HT       0.417000       1.00800           0
     35564 TIP3     8550     TIP3     OH2      OT      -0.834000       15.9994           0
     35565 TIP3     8550     TIP3     H1       HT       0.417000       1.00800           0
     35566 TIP3     8550     TIP3     H2       HT       0.417000       1.00800           0
     35567 TIP3     8551     TIP3     OH2      OT      -0.834000       15.9994           0
     35568 TIP3     8551     TIP3     H1       HT       0.417000       1.00800           0
     35569 TIP3     8551     TIP3     H2       HT       0.417000       1.00800           0
     35570 TIP3     8552     TIP3     OH2      OT      -0.834000       15.9994           0
     35571 TIP3     8552     TIP3     H1       HT       0.417000       1.00800           0
     35572 TIP3     8552     TIP3     H2       HT       0.417000       1.00800           0
     35573 TIP3     8553     TIP3     OH2      OT      -0.834000       15.9994           0
     35574 TIP3     8553     TIP3     H1       HT       0.417000       1.00800           0
     35575 TIP3     8553     TIP3     H2       HT       0.417000       1.00800           0
     35576 TIP3     8554     TIP3     OH2      OT      -0.834000       15.9994           0
     35577 TIP3     8554     TIP3     H1       HT       0.417000       1.00800           0
     35578 TIP3     8554     TIP3     H2       HT       0.417000       1.00800           0
     35579 TIP3     8555     TIP3     OH2      OT      -0.834000       15.9994           0
     35580 TIP3     8555     TIP3     H1       HT       0.417000       1.00800           0
     35581 TIP3     8555     TIP3     H2       HT       0.417000       1.00800           0
     35582 TIP3     8556     TIP3     OH2      OT      -0.834000       15.9994           0
     35583 TIP3     8556     TIP3     H1       HT       0.417000       1.00800           0
     35584 TIP3     8556     TIP3     H2       HT       0.417000       1.00800           0
     35585 TIP3     8557     TIP3     OH2      OT      -0.834000       15.9994           0
     35586 TIP3     8557     TIP3     H1       HT       0.417000       1.00800           0
     35587 TIP3     8557     TIP3     H2       HT       0.417000       1.00800           0
     35588 TIP3     8558     TIP3     OH2      OT      -0.834000       15.9994           0
     35589 TIP3     8558     TIP3     H1       HT       0.417000       1.00800           0
     35590 TIP3     8558     TIP3     H2       HT       0.417000       1.00800           0
     35591 TIP3     8559     TIP3     OH2      OT      -0.834000       15.9994           0
     35592 TIP3     8559     TIP3     H1       HT       0.417000       1.00800           0
     35593 TIP3     8559     TIP3     H2       HT       0.417000       1.00800           0
     35594 TIP3     8560     TIP3     OH2      OT      -0.834000       15.9994           0
     35595 TIP3     8560     TIP3     H1       HT       0.417000       1.00800           0
     35596 TIP3     8560     TIP3     H2       HT       0.417000       1.00800           0
     35597 TIP3     8561     TIP3     OH2      OT      -0.834000       15.9994           0
     35598 TIP3     8561     TIP3     H1       HT       0.417000       1.00800           0
     35599 TIP3     8561     TIP3     H2       HT       0.417000       1.00800           0
     35600 TIP3     8562     TIP3     OH2      OT      -0.834000       15.9994           0
     35601 TIP3     8562     TIP3     H1       HT       0.417000       1.00800           0
     35602 TIP3     8562     TIP3     H2       HT       0.417000       1.00800           0
     35603 TIP3     8563     TIP3     OH2      OT      -0.834000       15.9994           0
     35604 TIP3     8563     TIP3     H1       HT       0.417000       1.00800           0
     35605 TIP3     8563     TIP3     H2       HT       0.417000       1.00800           0
     35606 TIP3     8564     TIP3     OH2      OT      -0.834000       15.9994           0
     35607 TIP3     8564     TIP3     H1       HT       0.417000       1.00800           0
     35608 TIP3     8564     TIP3     H2       HT       0.417000       1.00800           0
     35609 TIP3     8565     TIP3     OH2      OT      -0.834000       15.9994           0
     35610 TIP3     8565     TIP3     H1       HT       0.417000       1.00800           0
     35611 TIP3     8565     TIP3     H2       HT       0.417000       1.00800           0
     35612 TIP3     8566     TIP3     OH2      OT      -0.834000       15.9994           0
     35613 TIP3     8566     TIP3     H1       HT       0.417000       1.00800           0
     35614 TIP3     8566     TIP3     H2       HT       0.417000       1.00800           0
     35615 TIP3     8567     TIP3     OH2      OT      -0.834000       15.9994           0
     35616 TIP3     8567     TIP3     H1       HT       0.417000       1.00800           0
     35617 TIP3     8567     TIP3     H2       HT       0.417000       1.00800           0
     35618 TIP3     8568     TIP3     OH2      OT      -0.834000       15.9994           0
     35619 TIP3     8568     TIP3     H1       HT       0.417000       1.00800           0
     35620 TIP3     8568     TIP3     H2       HT       0.417000       1.00800           0
     35621 TIP3     8569     TIP3     OH2      OT      -0.834000       15.9994           0
     35622 TIP3     8569     TIP3     H1       HT       0.417000       1.00800           0
     35623 TIP3     8569     TIP3     H2       HT       0.417000       1.00800           0
     35624 TIP3     8570     TIP3     OH2      OT      -0.834000       15.9994           0
     35625 TIP3     8570     TIP3     H1       HT       0.417000       1.00800           0
     35626 TIP3     8570     TIP3     H2       HT       0.417000       1.00800           0
     35627 TIP3     8571     TIP3     OH2      OT      -0.834000       15.9994           0
     35628 TIP3     8571     TIP3     H1       HT       0.417000       1.00800           0
     35629 TIP3     8571     TIP3     H2       HT       0.417000       1.00800           0
     35630 TIP3     8572     TIP3     OH2      OT      -0.834000       15.9994           0
     35631 TIP3     8572     TIP3     H1       HT       0.417000       1.00800           0
     35632 TIP3     8572     TIP3     H2       HT       0.417000       1.00800           0
     35633 TIP3     8573     TIP3     OH2      OT      -0.834000       15.9994           0
     35634 TIP3     8573     TIP3     H1       HT       0.417000       1.00800           0
     35635 TIP3     8573     TIP3     H2       HT       0.417000       1.00800           0
     35636 TIP3     8574     TIP3     OH2      OT      -0.834000       15.9994           0
     35637 TIP3     8574     TIP3     H1       HT       0.417000       1.00800           0
     35638 TIP3     8574     TIP3     H2       HT       0.417000       1.00800           0
     35639 TIP3     8575     TIP3     OH2      OT      -0.834000       15.9994           0
     35640 TIP3     8575     TIP3     H1       HT       0.417000       1.00800           0
     35641 TIP3     8575     TIP3     H2       HT       0.417000       1.00800           0
     35642 TIP3     8576     TIP3     OH2      OT      -0.834000       15.9994           0
     35643 TIP3     8576     TIP3     H1       HT       0.417000       1.00800           0
     35644 TIP3     8576     TIP3     H2       HT       0.417000       1.00800           0
     35645 TIP3     8577     TIP3     OH2      OT      -0.834000       15.9994           0
     35646 TIP3     8577     TIP3     H1       HT       0.417000       1.00800           0
     35647 TIP3     8577     TIP3     H2       HT       0.417000       1.00800           0
     35648 TIP3     8578     TIP3     OH2      OT      -0.834000       15.9994           0
     35649 TIP3     8578     TIP3     H1       HT       0.417000       1.00800           0
     35650 TIP3     8578     TIP3     H2       HT       0.417000       1.00800           0
     35651 TIP3     8579     TIP3     OH2      OT      -0.834000       15.9994           0
     35652 TIP3     8579     TIP3     H1       HT       0.417000       1.00800           0
     35653 TIP3     8579     TIP3     H2       HT       0.417000       1.00800           0
     35654 TIP3     8580     TIP3     OH2      OT      -0.834000       15.9994           0
     35655 TIP3     8580     TIP3     H1       HT       0.417000       1.00800           0
     35656 TIP3     8580     TIP3     H2       HT       0.417000       1.00800           0
     35657 TIP3     8581     TIP3     OH2      OT      -0.834000       15.9994           0
     35658 TIP3     8581     TIP3     H1       HT       0.417000       1.00800           0
     35659 TIP3     8581     TIP3     H2       HT       0.417000       1.00800           0
     35660 TIP3     8582     TIP3     OH2      OT      -0.834000       15.9994           0
     35661 TIP3     8582     TIP3     H1       HT       0.417000       1.00800           0
     35662 TIP3     8582     TIP3     H2       HT       0.417000       1.00800           0
     35663 TIP3     8583     TIP3     OH2      OT      -0.834000       15.9994           0
     35664 TIP3     8583     TIP3     H1       HT       0.417000       1.00800           0
     35665 TIP3     8583     TIP3     H2       HT       0.417000       1.00800           0
     35666 TIP3     8584     TIP3     OH2      OT      -0.834000       15.9994           0
     35667 TIP3     8584     TIP3     H1       HT       0.417000       1.00800           0
     35668 TIP3     8584     TIP3     H2       HT       0.417000       1.00800           0
     35669 TIP3     8585     TIP3     OH2      OT      -0.834000       15.9994           0
     35670 TIP3     8585     TIP3     H1       HT       0.417000       1.00800           0
     35671 TIP3     8585     TIP3     H2       HT       0.417000       1.00800           0
     35672 TIP3     8586     TIP3     OH2      OT      -0.834000       15.9994           0
     35673 TIP3     8586     TIP3     H1       HT       0.417000       1.00800           0
     35674 TIP3     8586     TIP3     H2       HT       0.417000       1.00800           0
     35675 TIP3     8587     TIP3     OH2      OT      -0.834000       15.9994           0
     35676 TIP3     8587     TIP3     H1       HT       0.417000       1.00800           0
     35677 TIP3     8587     TIP3     H2       HT       0.417000       1.00800           0
     35678 TIP3     8588     TIP3     OH2      OT      -0.834000       15.9994           0
     35679 TIP3     8588     TIP3     H1       HT       0.417000       1.00800           0
     35680 TIP3     8588     TIP3     H2       HT       0.417000       1.00800           0
     35681 TIP3     8589     TIP3     OH2      OT      -0.834000       15.9994           0
     35682 TIP3     8589     TIP3     H1       HT       0.417000       1.00800           0
     35683 TIP3     8589     TIP3     H2       HT       0.417000       1.00800           0
     35684 TIP3     8590     TIP3     OH2      OT      -0.834000       15.9994           0
     35685 TIP3     8590     TIP3     H1       HT       0.417000       1.00800           0
     35686 TIP3     8590     TIP3     H2       HT       0.417000       1.00800           0
     35687 TIP3     8591     TIP3     OH2      OT      -0.834000       15.9994           0
     35688 TIP3     8591     TIP3     H1       HT       0.417000       1.00800           0
     35689 TIP3     8591     TIP3     H2       HT       0.417000       1.00800           0
     35690 TIP3     8592     TIP3     OH2      OT      -0.834000       15.9994           0
     35691 TIP3     8592     TIP3     H1       HT       0.417000       1.00800           0
     35692 TIP3     8592     TIP3     H2       HT       0.417000       1.00800           0
     35693 TIP3     8593     TIP3     OH2      OT      -0.834000       15.9994           0
     35694 TIP3     8593     TIP3     H1       HT       0.417000       1.00800           0
     35695 TIP3     8593     TIP3     H2       HT       0.417000       1.00800           0
     35696 TIP3     8594     TIP3     OH2      OT      -0.834000       15.9994           0
     35697 TIP3     8594     TIP3     H1       HT       0.417000       1.00800           0
     35698 TIP3     8594     TIP3     H2       HT       0.417000       1.00800           0
     35699 TIP3     8595     TIP3     OH2      OT      -0.834000       15.9994           0
     35700 TIP3     8595     TIP3     H1       HT       0.417000       1.00800           0
     35701 TIP3     8595     TIP3     H2       HT       0.417000       1.00800           0
     35702 TIP3     8596     TIP3     OH2      OT      -0.834000       15.9994           0
     35703 TIP3     8596     TIP3     H1       HT       0.417000       1.00800           0
     35704 TIP3     8596     TIP3     H2       HT       0.417000       1.00800           0
     35705 TIP3     8597     TIP3     OH2      OT      -0.834000       15.9994           0
     35706 TIP3     8597     TIP3     H1       HT       0.417000       1.00800           0
     35707 TIP3     8597     TIP3     H2       HT       0.417000       1.00800           0
     35708 TIP3     8598     TIP3     OH2      OT      -0.834000       15.9994           0
     35709 TIP3     8598     TIP3     H1       HT       0.417000       1.00800           0
     35710 TIP3     8598     TIP3     H2       HT       0.417000       1.00800           0
     35711 TIP3     8599     TIP3     OH2      OT      -0.834000       15.9994           0
     35712 TIP3     8599     TIP3     H1       HT       0.417000       1.00800           0
     35713 TIP3     8599     TIP3     H2       HT       0.417000       1.00800           0
     35714 TIP3     8600     TIP3     OH2      OT      -0.834000       15.9994           0
     35715 TIP3     8600     TIP3     H1       HT       0.417000       1.00800           0
     35716 TIP3     8600     TIP3     H2       HT       0.417000       1.00800           0
     35717 TIP3     8601     TIP3     OH2      OT      -0.834000       15.9994           0
     35718 TIP3     8601     TIP3     H1       HT       0.417000       1.00800           0
     35719 TIP3     8601     TIP3     H2       HT       0.417000       1.00800           0
     35720 TIP3     8602     TIP3     OH2      OT      -0.834000       15.9994           0
     35721 TIP3     8602     TIP3     H1       HT       0.417000       1.00800           0
     35722 TIP3     8602     TIP3     H2       HT       0.417000       1.00800           0
     35723 TIP3     8603     TIP3     OH2      OT      -0.834000       15.9994           0
     35724 TIP3     8603     TIP3     H1       HT       0.417000       1.00800           0
     35725 TIP3     8603     TIP3     H2       HT       0.417000       1.00800           0
     35726 TIP3     8604     TIP3     OH2      OT      -0.834000       15.9994           0
     35727 TIP3     8604     TIP3     H1       HT       0.417000       1.00800           0
     35728 TIP3     8604     TIP3     H2       HT       0.417000       1.00800           0
     35729 TIP3     8605     TIP3     OH2      OT      -0.834000       15.9994           0
     35730 TIP3     8605     TIP3     H1       HT       0.417000       1.00800           0
     35731 TIP3     8605     TIP3     H2       HT       0.417000       1.00800           0
     35732 TIP3     8606     TIP3     OH2      OT      -0.834000       15.9994           0
     35733 TIP3     8606     TIP3     H1       HT       0.417000       1.00800           0
     35734 TIP3     8606     TIP3     H2       HT       0.417000       1.00800           0
     35735 TIP3     8607     TIP3     OH2      OT      -0.834000       15.9994           0
     35736 TIP3     8607     TIP3     H1       HT       0.417000       1.00800           0
     35737 TIP3     8607     TIP3     H2       HT       0.417000       1.00800           0
     35738 TIP3     8608     TIP3     OH2      OT      -0.834000       15.9994           0
     35739 TIP3     8608     TIP3     H1       HT       0.417000       1.00800           0
     35740 TIP3     8608     TIP3     H2       HT       0.417000       1.00800           0
     35741 TIP3     8609     TIP3     OH2      OT      -0.834000       15.9994           0
     35742 TIP3     8609     TIP3     H1       HT       0.417000       1.00800           0
     35743 TIP3     8609     TIP3     H2       HT       0.417000       1.00800           0
     35744 TIP3     8610     TIP3     OH2      OT      -0.834000       15.9994           0
     35745 TIP3     8610     TIP3     H1       HT       0.417000       1.00800           0
     35746 TIP3     8610     TIP3     H2       HT       0.417000       1.00800           0
     35747 TIP3     8611     TIP3     OH2      OT      -0.834000       15.9994           0
     35748 TIP3     8611     TIP3     H1       HT       0.417000       1.00800           0
     35749 TIP3     8611     TIP3     H2       HT       0.417000       1.00800           0
     35750 TIP3     8612     TIP3     OH2      OT      -0.834000       15.9994           0
     35751 TIP3     8612     TIP3     H1       HT       0.417000       1.00800           0
     35752 TIP3     8612     TIP3     H2       HT       0.417000       1.00800           0
     35753 TIP3     8613     TIP3     OH2      OT      -0.834000       15.9994           0
     35754 TIP3     8613     TIP3     H1       HT       0.417000       1.00800           0
     35755 TIP3     8613     TIP3     H2       HT       0.417000       1.00800           0
     35756 TIP3     8614     TIP3     OH2      OT      -0.834000       15.9994           0
     35757 TIP3     8614     TIP3     H1       HT       0.417000       1.00800           0
     35758 TIP3     8614     TIP3     H2       HT       0.417000       1.00800           0
     35759 TIP3     8615     TIP3     OH2      OT      -0.834000       15.9994           0
     35760 TIP3     8615     TIP3     H1       HT       0.417000       1.00800           0
     35761 TIP3     8615     TIP3     H2       HT       0.417000       1.00800           0
     35762 TIP3     8616     TIP3     OH2      OT      -0.834000       15.9994           0
     35763 TIP3     8616     TIP3     H1       HT       0.417000       1.00800           0
     35764 TIP3     8616     TIP3     H2       HT       0.417000       1.00800           0
     35765 TIP3     8617     TIP3     OH2      OT      -0.834000       15.9994           0
     35766 TIP3     8617     TIP3     H1       HT       0.417000       1.00800           0
     35767 TIP3     8617     TIP3     H2       HT       0.417000       1.00800           0
     35768 TIP3     8618     TIP3     OH2      OT      -0.834000       15.9994           0
     35769 TIP3     8618     TIP3     H1       HT       0.417000       1.00800           0
     35770 TIP3     8618     TIP3     H2       HT       0.417000       1.00800           0
     35771 TIP3     8619     TIP3     OH2      OT      -0.834000       15.9994           0
     35772 TIP3     8619     TIP3     H1       HT       0.417000       1.00800           0
     35773 TIP3     8619     TIP3     H2       HT       0.417000       1.00800           0
     35774 TIP3     8620     TIP3     OH2      OT      -0.834000       15.9994           0
     35775 TIP3     8620     TIP3     H1       HT       0.417000       1.00800           0
     35776 TIP3     8620     TIP3     H2       HT       0.417000       1.00800           0
     35777 TIP3     8621     TIP3     OH2      OT      -0.834000       15.9994           0
     35778 TIP3     8621     TIP3     H1       HT       0.417000       1.00800           0
     35779 TIP3     8621     TIP3     H2       HT       0.417000       1.00800           0
     35780 TIP3     8622     TIP3     OH2      OT      -0.834000       15.9994           0
     35781 TIP3     8622     TIP3     H1       HT       0.417000       1.00800           0
     35782 TIP3     8622     TIP3     H2       HT       0.417000       1.00800           0
     35783 TIP3     8623     TIP3     OH2      OT      -0.834000       15.9994           0
     35784 TIP3     8623     TIP3     H1       HT       0.417000       1.00800           0
     35785 TIP3     8623     TIP3     H2       HT       0.417000       1.00800           0
     35786 TIP3     8624     TIP3     OH2      OT      -0.834000       15.9994           0
     35787 TIP3     8624     TIP3     H1       HT       0.417000       1.00800           0
     35788 TIP3     8624     TIP3     H2       HT       0.417000       1.00800           0
     35789 TIP3     8625     TIP3     OH2      OT      -0.834000       15.9994           0
     35790 TIP3     8625     TIP3     H1       HT       0.417000       1.00800           0
     35791 TIP3     8625     TIP3     H2       HT       0.417000       1.00800           0
     35792 TIP3     8626     TIP3     OH2      OT      -0.834000       15.9994           0
     35793 TIP3     8626     TIP3     H1       HT       0.417000       1.00800           0
     35794 TIP3     8626     TIP3     H2       HT       0.417000       1.00800           0
     35795 TIP3     8627     TIP3     OH2      OT      -0.834000       15.9994           0
     35796 TIP3     8627     TIP3     H1       HT       0.417000       1.00800           0
     35797 TIP3     8627     TIP3     H2       HT       0.417000       1.00800           0
     35798 TIP3     8628     TIP3     OH2      OT      -0.834000       15.9994           0
     35799 TIP3     8628     TIP3     H1       HT       0.417000       1.00800           0
     35800 TIP3     8628     TIP3     H2       HT       0.417000       1.00800           0
     35801 TIP3     8629     TIP3     OH2      OT      -0.834000       15.9994           0
     35802 TIP3     8629     TIP3     H1       HT       0.417000       1.00800           0
     35803 TIP3     8629     TIP3     H2       HT       0.417000       1.00800           0
     35804 TIP3     8630     TIP3     OH2      OT      -0.834000       15.9994           0
     35805 TIP3     8630     TIP3     H1       HT       0.417000       1.00800           0
     35806 TIP3     8630     TIP3     H2       HT       0.417000       1.00800           0
     35807 TIP3     8631     TIP3     OH2      OT      -0.834000       15.9994           0
     35808 TIP3     8631     TIP3     H1       HT       0.417000       1.00800           0
     35809 TIP3     8631     TIP3     H2       HT       0.417000       1.00800           0
     35810 TIP3     8632     TIP3     OH2      OT      -0.834000       15.9994           0
     35811 TIP3     8632     TIP3     H1       HT       0.417000       1.00800           0
     35812 TIP3     8632     TIP3     H2       HT       0.417000       1.00800           0
     35813 TIP3     8633     TIP3     OH2      OT      -0.834000       15.9994           0
     35814 TIP3     8633     TIP3     H1       HT       0.417000       1.00800           0
     35815 TIP3     8633     TIP3     H2       HT       0.417000       1.00800           0
     35816 TIP3     8634     TIP3     OH2      OT      -0.834000       15.9994           0
     35817 TIP3     8634     TIP3     H1       HT       0.417000       1.00800           0
     35818 TIP3     8634     TIP3     H2       HT       0.417000       1.00800           0
     35819 TIP3     8635     TIP3     OH2      OT      -0.834000       15.9994           0
     35820 TIP3     8635     TIP3     H1       HT       0.417000       1.00800           0
     35821 TIP3     8635     TIP3     H2       HT       0.417000       1.00800           0
     35822 TIP3     8636     TIP3     OH2      OT      -0.834000       15.9994           0
     35823 TIP3     8636     TIP3     H1       HT       0.417000       1.00800           0
     35824 TIP3     8636     TIP3     H2       HT       0.417000       1.00800           0
     35825 TIP3     8637     TIP3     OH2      OT      -0.834000       15.9994           0
     35826 TIP3     8637     TIP3     H1       HT       0.417000       1.00800           0
     35827 TIP3     8637     TIP3     H2       HT       0.417000       1.00800           0
     35828 TIP3     8638     TIP3     OH2      OT      -0.834000       15.9994           0
     35829 TIP3     8638     TIP3     H1       HT       0.417000       1.00800           0
     35830 TIP3     8638     TIP3     H2       HT       0.417000       1.00800           0
     35831 TIP3     8639     TIP3     OH2      OT      -0.834000       15.9994           0
     35832 TIP3     8639     TIP3     H1       HT       0.417000       1.00800           0
     35833 TIP3     8639     TIP3     H2       HT       0.417000       1.00800           0
     35834 TIP3     8640     TIP3     OH2      OT      -0.834000       15.9994           0
     35835 TIP3     8640     TIP3     H1       HT       0.417000       1.00800           0
     35836 TIP3     8640     TIP3     H2       HT       0.417000       1.00800           0
     35837 TIP3     8641     TIP3     OH2      OT      -0.834000       15.9994           0
     35838 TIP3     8641     TIP3     H1       HT       0.417000       1.00800           0
     35839 TIP3     8641     TIP3     H2       HT       0.417000       1.00800           0
     35840 TIP3     8642     TIP3     OH2      OT      -0.834000       15.9994           0
     35841 TIP3     8642     TIP3     H1       HT       0.417000       1.00800           0
     35842 TIP3     8642     TIP3     H2       HT       0.417000       1.00800           0
     35843 TIP3     8643     TIP3     OH2      OT      -0.834000       15.9994           0
     35844 TIP3     8643     TIP3     H1       HT       0.417000       1.00800           0
     35845 TIP3     8643     TIP3     H2       HT       0.417000       1.00800           0
     35846 TIP3     8644     TIP3     OH2      OT      -0.834000       15.9994           0
     35847 TIP3     8644     TIP3     H1       HT       0.417000       1.00800           0
     35848 TIP3     8644     TIP3     H2       HT       0.417000       1.00800           0
     35849 TIP3     8645     TIP3     OH2      OT      -0.834000       15.9994           0
     35850 TIP3     8645     TIP3     H1       HT       0.417000       1.00800           0
     35851 TIP3     8645     TIP3     H2       HT       0.417000       1.00800           0
     35852 TIP3     8646     TIP3     OH2      OT      -0.834000       15.9994           0
     35853 TIP3     8646     TIP3     H1       HT       0.417000       1.00800           0
     35854 TIP3     8646     TIP3     H2       HT       0.417000       1.00800           0
     35855 TIP3     8647     TIP3     OH2      OT      -0.834000       15.9994           0
     35856 TIP3     8647     TIP3     H1       HT       0.417000       1.00800           0
     35857 TIP3     8647     TIP3     H2       HT       0.417000       1.00800           0
     35858 TIP3     8648     TIP3     OH2      OT      -0.834000       15.9994           0
     35859 TIP3     8648     TIP3     H1       HT       0.417000       1.00800           0
     35860 TIP3     8648     TIP3     H2       HT       0.417000       1.00800           0
     35861 TIP3     8649     TIP3     OH2      OT      -0.834000       15.9994           0
     35862 TIP3     8649     TIP3     H1       HT       0.417000       1.00800           0
     35863 TIP3     8649     TIP3     H2       HT       0.417000       1.00800           0
     35864 TIP3     8650     TIP3     OH2      OT      -0.834000       15.9994           0
     35865 TIP3     8650     TIP3     H1       HT       0.417000       1.00800           0
     35866 TIP3     8650     TIP3     H2       HT       0.417000       1.00800           0
     35867 TIP3     8651     TIP3     OH2      OT      -0.834000       15.9994           0
     35868 TIP3     8651     TIP3     H1       HT       0.417000       1.00800           0
     35869 TIP3     8651     TIP3     H2       HT       0.417000       1.00800           0
     35870 TIP3     8652     TIP3     OH2      OT      -0.834000       15.9994           0
     35871 TIP3     8652     TIP3     H1       HT       0.417000       1.00800           0
     35872 TIP3     8652     TIP3     H2       HT       0.417000       1.00800           0
     35873 TIP3     8653     TIP3     OH2      OT      -0.834000       15.9994           0
     35874 TIP3     8653     TIP3     H1       HT       0.417000       1.00800           0
     35875 TIP3     8653     TIP3     H2       HT       0.417000       1.00800           0
     35876 TIP3     8654     TIP3     OH2      OT      -0.834000       15.9994           0
     35877 TIP3     8654     TIP3     H1       HT       0.417000       1.00800           0
     35878 TIP3     8654     TIP3     H2       HT       0.417000       1.00800           0
     35879 TIP3     8655     TIP3     OH2      OT      -0.834000       15.9994           0
     35880 TIP3     8655     TIP3     H1       HT       0.417000       1.00800           0
     35881 TIP3     8655     TIP3     H2       HT       0.417000       1.00800           0
     35882 TIP3     8656     TIP3     OH2      OT      -0.834000       15.9994           0
     35883 TIP3     8656     TIP3     H1       HT       0.417000       1.00800           0
     35884 TIP3     8656     TIP3     H2       HT       0.417000       1.00800           0
     35885 TIP3     8657     TIP3     OH2      OT      -0.834000       15.9994           0
     35886 TIP3     8657     TIP3     H1       HT       0.417000       1.00800           0
     35887 TIP3     8657     TIP3     H2       HT       0.417000       1.00800           0
     35888 TIP3     8658     TIP3     OH2      OT      -0.834000       15.9994           0
     35889 TIP3     8658     TIP3     H1       HT       0.417000       1.00800           0
     35890 TIP3     8658     TIP3     H2       HT       0.417000       1.00800           0
     35891 TIP3     8659     TIP3     OH2      OT      -0.834000       15.9994           0
     35892 TIP3     8659     TIP3     H1       HT       0.417000       1.00800           0
     35893 TIP3     8659     TIP3     H2       HT       0.417000       1.00800           0
     35894 TIP3     8660     TIP3     OH2      OT      -0.834000       15.9994           0
     35895 TIP3     8660     TIP3     H1       HT       0.417000       1.00800           0
     35896 TIP3     8660     TIP3     H2       HT       0.417000       1.00800           0
     35897 TIP3     8661     TIP3     OH2      OT      -0.834000       15.9994           0
     35898 TIP3     8661     TIP3     H1       HT       0.417000       1.00800           0
     35899 TIP3     8661     TIP3     H2       HT       0.417000       1.00800           0
     35900 TIP3     8662     TIP3     OH2      OT      -0.834000       15.9994           0
     35901 TIP3     8662     TIP3     H1       HT       0.417000       1.00800           0
     35902 TIP3     8662     TIP3     H2       HT       0.417000       1.00800           0
     35903 TIP3     8663     TIP3     OH2      OT      -0.834000       15.9994           0
     35904 TIP3     8663     TIP3     H1       HT       0.417000       1.00800           0
     35905 TIP3     8663     TIP3     H2       HT       0.417000       1.00800           0
     35906 TIP3     8664     TIP3     OH2      OT      -0.834000       15.9994           0
     35907 TIP3     8664     TIP3     H1       HT       0.417000       1.00800           0
     35908 TIP3     8664     TIP3     H2       HT       0.417000       1.00800           0
     35909 TIP3     8665     TIP3     OH2      OT      -0.834000       15.9994           0
     35910 TIP3     8665     TIP3     H1       HT       0.417000       1.00800           0
     35911 TIP3     8665     TIP3     H2       HT       0.417000       1.00800           0
     35912 TIP3     8666     TIP3     OH2      OT      -0.834000       15.9994           0
     35913 TIP3     8666     TIP3     H1       HT       0.417000       1.00800           0
     35914 TIP3     8666     TIP3     H2       HT       0.417000       1.00800           0
     35915 TIP3     8667     TIP3     OH2      OT      -0.834000       15.9994           0
     35916 TIP3     8667     TIP3     H1       HT       0.417000       1.00800           0
     35917 TIP3     8667     TIP3     H2       HT       0.417000       1.00800           0
     35918 TIP3     8668     TIP3     OH2      OT      -0.834000       15.9994           0
     35919 TIP3     8668     TIP3     H1       HT       0.417000       1.00800           0
     35920 TIP3     8668     TIP3     H2       HT       0.417000       1.00800           0
     35921 TIP3     8669     TIP3     OH2      OT      -0.834000       15.9994           0
     35922 TIP3     8669     TIP3     H1       HT       0.417000       1.00800           0
     35923 TIP3     8669     TIP3     H2       HT       0.417000       1.00800           0
     35924 TIP3     8670     TIP3     OH2      OT      -0.834000       15.9994           0
     35925 TIP3     8670     TIP3     H1       HT       0.417000       1.00800           0
     35926 TIP3     8670     TIP3     H2       HT       0.417000       1.00800           0
     35927 TIP3     8671     TIP3     OH2      OT      -0.834000       15.9994           0
     35928 TIP3     8671     TIP3     H1       HT       0.417000       1.00800           0
     35929 TIP3     8671     TIP3     H2       HT       0.417000       1.00800           0
     35930 TIP3     8672     TIP3     OH2      OT      -0.834000       15.9994           0
     35931 TIP3     8672     TIP3     H1       HT       0.417000       1.00800           0
     35932 TIP3     8672     TIP3     H2       HT       0.417000       1.00800           0
     35933 TIP3     8673     TIP3     OH2      OT      -0.834000       15.9994           0
     35934 TIP3     8673     TIP3     H1       HT       0.417000       1.00800           0
     35935 TIP3     8673     TIP3     H2       HT       0.417000       1.00800           0
     35936 TIP3     8674     TIP3     OH2      OT      -0.834000       15.9994           0
     35937 TIP3     8674     TIP3     H1       HT       0.417000       1.00800           0
     35938 TIP3     8674     TIP3     H2       HT       0.417000       1.00800           0
     35939 TIP3     8675     TIP3     OH2      OT      -0.834000       15.9994           0
     35940 TIP3     8675     TIP3     H1       HT       0.417000       1.00800           0
     35941 TIP3     8675     TIP3     H2       HT       0.417000       1.00800           0
     35942 TIP3     8676     TIP3     OH2      OT      -0.834000       15.9994           0
     35943 TIP3     8676     TIP3     H1       HT       0.417000       1.00800           0
     35944 TIP3     8676     TIP3     H2       HT       0.417000       1.00800           0
     35945 TIP3     8677     TIP3     OH2      OT      -0.834000       15.9994           0
     35946 TIP3     8677     TIP3     H1       HT       0.417000       1.00800           0
     35947 TIP3     8677     TIP3     H2       HT       0.417000       1.00800           0
     35948 TIP3     8678     TIP3     OH2      OT      -0.834000       15.9994           0
     35949 TIP3     8678     TIP3     H1       HT       0.417000       1.00800           0
     35950 TIP3     8678     TIP3     H2       HT       0.417000       1.00800           0
     35951 TIP3     8679     TIP3     OH2      OT      -0.834000       15.9994           0
     35952 TIP3     8679     TIP3     H1       HT       0.417000       1.00800           0
     35953 TIP3     8679     TIP3     H2       HT       0.417000       1.00800           0
     35954 TIP3     8680     TIP3     OH2      OT      -0.834000       15.9994           0
     35955 TIP3     8680     TIP3     H1       HT       0.417000       1.00800           0
     35956 TIP3     8680     TIP3     H2       HT       0.417000       1.00800           0
     35957 TIP3     8681     TIP3     OH2      OT      -0.834000       15.9994           0
     35958 TIP3     8681     TIP3     H1       HT       0.417000       1.00800           0
     35959 TIP3     8681     TIP3     H2       HT       0.417000       1.00800           0
     35960 TIP3     8682     TIP3     OH2      OT      -0.834000       15.9994           0
     35961 TIP3     8682     TIP3     H1       HT       0.417000       1.00800           0
     35962 TIP3     8682     TIP3     H2       HT       0.417000       1.00800           0
     35963 TIP3     8683     TIP3     OH2      OT      -0.834000       15.9994           0
     35964 TIP3     8683     TIP3     H1       HT       0.417000       1.00800           0
     35965 TIP3     8683     TIP3     H2       HT       0.417000       1.00800           0
     35966 TIP3     8684     TIP3     OH2      OT      -0.834000       15.9994           0
     35967 TIP3     8684     TIP3     H1       HT       0.417000       1.00800           0
     35968 TIP3     8684     TIP3     H2       HT       0.417000       1.00800           0
     35969 TIP3     8685     TIP3     OH2      OT      -0.834000       15.9994           0
     35970 TIP3     8685     TIP3     H1       HT       0.417000       1.00800           0
     35971 TIP3     8685     TIP3     H2       HT       0.417000       1.00800           0
     35972 TIP3     8686     TIP3     OH2      OT      -0.834000       15.9994           0
     35973 TIP3     8686     TIP3     H1       HT       0.417000       1.00800           0
     35974 TIP3     8686     TIP3     H2       HT       0.417000       1.00800           0
     35975 TIP3     8687     TIP3     OH2      OT      -0.834000       15.9994           0
     35976 TIP3     8687     TIP3     H1       HT       0.417000       1.00800           0
     35977 TIP3     8687     TIP3     H2       HT       0.417000       1.00800           0
     35978 TIP3     8688     TIP3     OH2      OT      -0.834000       15.9994           0
     35979 TIP3     8688     TIP3     H1       HT       0.417000       1.00800           0
     35980 TIP3     8688     TIP3     H2       HT       0.417000       1.00800           0
     35981 TIP3     8689     TIP3     OH2      OT      -0.834000       15.9994           0
     35982 TIP3     8689     TIP3     H1       HT       0.417000       1.00800           0
     35983 TIP3     8689     TIP3     H2       HT       0.417000       1.00800           0
     35984 TIP3     8690     TIP3     OH2      OT      -0.834000       15.9994           0
     35985 TIP3     8690     TIP3     H1       HT       0.417000       1.00800           0
     35986 TIP3     8690     TIP3     H2       HT       0.417000       1.00800           0
     35987 TIP3     8691     TIP3     OH2      OT      -0.834000       15.9994           0
     35988 TIP3     8691     TIP3     H1       HT       0.417000       1.00800           0
     35989 TIP3     8691     TIP3     H2       HT       0.417000       1.00800           0
     35990 TIP3     8692     TIP3     OH2      OT      -0.834000       15.9994           0
     35991 TIP3     8692     TIP3     H1       HT       0.417000       1.00800           0
     35992 TIP3     8692     TIP3     H2       HT       0.417000       1.00800           0
     35993 TIP3     8693     TIP3     OH2      OT      -0.834000       15.9994           0
     35994 TIP3     8693     TIP3     H1       HT       0.417000       1.00800           0
     35995 TIP3     8693     TIP3     H2       HT       0.417000       1.00800           0
     35996 TIP3     8694     TIP3     OH2      OT      -0.834000       15.9994           0
     35997 TIP3     8694     TIP3     H1       HT       0.417000       1.00800           0
     35998 TIP3     8694     TIP3     H2       HT       0.417000       1.00800           0
     35999 TIP3     8695     TIP3     OH2      OT      -0.834000       15.9994           0
     36000 TIP3     8695     TIP3     H1       HT       0.417000       1.00800           0
     36001 TIP3     8695     TIP3     H2       HT       0.417000       1.00800           0
     36002 TIP3     8696     TIP3     OH2      OT      -0.834000       15.9994           0
     36003 TIP3     8696     TIP3     H1       HT       0.417000       1.00800           0
     36004 TIP3     8696     TIP3     H2       HT       0.417000       1.00800           0
     36005 TIP3     8697     TIP3     OH2      OT      -0.834000       15.9994           0
     36006 TIP3     8697     TIP3     H1       HT       0.417000       1.00800           0
     36007 TIP3     8697     TIP3     H2       HT       0.417000       1.00800           0
     36008 TIP3     8698     TIP3     OH2      OT      -0.834000       15.9994           0
     36009 TIP3     8698     TIP3     H1       HT       0.417000       1.00800           0
     36010 TIP3     8698     TIP3     H2       HT       0.417000       1.00800           0
     36011 TIP3     8699     TIP3     OH2      OT      -0.834000       15.9994           0
     36012 TIP3     8699     TIP3     H1       HT       0.417000       1.00800           0
     36013 TIP3     8699     TIP3     H2       HT       0.417000       1.00800           0
     36014 TIP3     8700     TIP3     OH2      OT      -0.834000       15.9994           0
     36015 TIP3     8700     TIP3     H1       HT       0.417000       1.00800           0
     36016 TIP3     8700     TIP3     H2       HT       0.417000       1.00800           0
     36017 TIP3     8701     TIP3     OH2      OT      -0.834000       15.9994           0
     36018 TIP3     8701     TIP3     H1       HT       0.417000       1.00800           0
     36019 TIP3     8701     TIP3     H2       HT       0.417000       1.00800           0
     36020 TIP3     8702     TIP3     OH2      OT      -0.834000       15.9994           0
     36021 TIP3     8702     TIP3     H1       HT       0.417000       1.00800           0
     36022 TIP3     8702     TIP3     H2       HT       0.417000       1.00800           0
     36023 TIP3     8703     TIP3     OH2      OT      -0.834000       15.9994           0
     36024 TIP3     8703     TIP3     H1       HT       0.417000       1.00800           0
     36025 TIP3     8703     TIP3     H2       HT       0.417000       1.00800           0
     36026 TIP3     8704     TIP3     OH2      OT      -0.834000       15.9994           0
     36027 TIP3     8704     TIP3     H1       HT       0.417000       1.00800           0
     36028 TIP3     8704     TIP3     H2       HT       0.417000       1.00800           0
     36029 TIP3     8705     TIP3     OH2      OT      -0.834000       15.9994           0
     36030 TIP3     8705     TIP3     H1       HT       0.417000       1.00800           0
     36031 TIP3     8705     TIP3     H2       HT       0.417000       1.00800           0
     36032 TIP3     8706     TIP3     OH2      OT      -0.834000       15.9994           0
     36033 TIP3     8706     TIP3     H1       HT       0.417000       1.00800           0
     36034 TIP3     8706     TIP3     H2       HT       0.417000       1.00800           0
     36035 TIP3     8707     TIP3     OH2      OT      -0.834000       15.9994           0
     36036 TIP3     8707     TIP3     H1       HT       0.417000       1.00800           0
     36037 TIP3     8707     TIP3     H2       HT       0.417000       1.00800           0
     36038 TIP3     8708     TIP3     OH2      OT      -0.834000       15.9994           0
     36039 TIP3     8708     TIP3     H1       HT       0.417000       1.00800           0
     36040 TIP3     8708     TIP3     H2       HT       0.417000       1.00800           0
     36041 TIP3     8709     TIP3     OH2      OT      -0.834000       15.9994           0
     36042 TIP3     8709     TIP3     H1       HT       0.417000       1.00800           0
     36043 TIP3     8709     TIP3     H2       HT       0.417000       1.00800           0
     36044 TIP3     8710     TIP3     OH2      OT      -0.834000       15.9994           0
     36045 TIP3     8710     TIP3     H1       HT       0.417000       1.00800           0
     36046 TIP3     8710     TIP3     H2       HT       0.417000       1.00800           0
     36047 TIP3     8711     TIP3     OH2      OT      -0.834000       15.9994           0
     36048 TIP3     8711     TIP3     H1       HT       0.417000       1.00800           0
     36049 TIP3     8711     TIP3     H2       HT       0.417000       1.00800           0
     36050 TIP3     8712     TIP3     OH2      OT      -0.834000       15.9994           0
     36051 TIP3     8712     TIP3     H1       HT       0.417000       1.00800           0
     36052 TIP3     8712     TIP3     H2       HT       0.417000       1.00800           0
     36053 TIP3     8713     TIP3     OH2      OT      -0.834000       15.9994           0
     36054 TIP3     8713     TIP3     H1       HT       0.417000       1.00800           0
     36055 TIP3     8713     TIP3     H2       HT       0.417000       1.00800           0
     36056 TIP3     8714     TIP3     OH2      OT      -0.834000       15.9994           0
     36057 TIP3     8714     TIP3     H1       HT       0.417000       1.00800           0
     36058 TIP3     8714     TIP3     H2       HT       0.417000       1.00800           0
     36059 TIP3     8715     TIP3     OH2      OT      -0.834000       15.9994           0
     36060 TIP3     8715     TIP3     H1       HT       0.417000       1.00800           0
     36061 TIP3     8715     TIP3     H2       HT       0.417000       1.00800           0
     36062 TIP3     8716     TIP3     OH2      OT      -0.834000       15.9994           0
     36063 TIP3     8716     TIP3     H1       HT       0.417000       1.00800           0
     36064 TIP3     8716     TIP3     H2       HT       0.417000       1.00800           0
     36065 TIP3     8717     TIP3     OH2      OT      -0.834000       15.9994           0
     36066 TIP3     8717     TIP3     H1       HT       0.417000       1.00800           0
     36067 TIP3     8717     TIP3     H2       HT       0.417000       1.00800           0
     36068 TIP3     8718     TIP3     OH2      OT      -0.834000       15.9994           0
     36069 TIP3     8718     TIP3     H1       HT       0.417000       1.00800           0
     36070 TIP3     8718     TIP3     H2       HT       0.417000       1.00800           0
     36071 TIP3     8719     TIP3     OH2      OT      -0.834000       15.9994           0
     36072 TIP3     8719     TIP3     H1       HT       0.417000       1.00800           0
     36073 TIP3     8719     TIP3     H2       HT       0.417000       1.00800           0
     36074 TIP3     8720     TIP3     OH2      OT      -0.834000       15.9994           0
     36075 TIP3     8720     TIP3     H1       HT       0.417000       1.00800           0
     36076 TIP3     8720     TIP3     H2       HT       0.417000       1.00800           0
     36077 TIP3     8721     TIP3     OH2      OT      -0.834000       15.9994           0
     36078 TIP3     8721     TIP3     H1       HT       0.417000       1.00800           0
     36079 TIP3     8721     TIP3     H2       HT       0.417000       1.00800           0
     36080 TIP3     8722     TIP3     OH2      OT      -0.834000       15.9994           0
     36081 TIP3     8722     TIP3     H1       HT       0.417000       1.00800           0
     36082 TIP3     8722     TIP3     H2       HT       0.417000       1.00800           0
     36083 TIP3     8723     TIP3     OH2      OT      -0.834000       15.9994           0
     36084 TIP3     8723     TIP3     H1       HT       0.417000       1.00800           0
     36085 TIP3     8723     TIP3     H2       HT       0.417000       1.00800           0
     36086 TIP3     8724     TIP3     OH2      OT      -0.834000       15.9994           0
     36087 TIP3     8724     TIP3     H1       HT       0.417000       1.00800           0
     36088 TIP3     8724     TIP3     H2       HT       0.417000       1.00800           0
     36089 TIP3     8725     TIP3     OH2      OT      -0.834000       15.9994           0
     36090 TIP3     8725     TIP3     H1       HT       0.417000       1.00800           0
     36091 TIP3     8725     TIP3     H2       HT       0.417000       1.00800           0
     36092 TIP3     8726     TIP3     OH2      OT      -0.834000       15.9994           0
     36093 TIP3     8726     TIP3     H1       HT       0.417000       1.00800           0
     36094 TIP3     8726     TIP3     H2       HT       0.417000       1.00800           0
     36095 TIP3     8727     TIP3     OH2      OT      -0.834000       15.9994           0
     36096 TIP3     8727     TIP3     H1       HT       0.417000       1.00800           0
     36097 TIP3     8727     TIP3     H2       HT       0.417000       1.00800           0
     36098 TIP3     8728     TIP3     OH2      OT      -0.834000       15.9994           0
     36099 TIP3     8728     TIP3     H1       HT       0.417000       1.00800           0
     36100 TIP3     8728     TIP3     H2       HT       0.417000       1.00800           0
     36101 TIP3     8729     TIP3     OH2      OT      -0.834000       15.9994           0
     36102 TIP3     8729     TIP3     H1       HT       0.417000       1.00800           0
     36103 TIP3     8729     TIP3     H2       HT       0.417000       1.00800           0
     36104 TIP3     8730     TIP3     OH2      OT      -0.834000       15.9994           0
     36105 TIP3     8730     TIP3     H1       HT       0.417000       1.00800           0
     36106 TIP3     8730     TIP3     H2       HT       0.417000       1.00800           0
     36107 TIP3     8731     TIP3     OH2      OT      -0.834000       15.9994           0
     36108 TIP3     8731     TIP3     H1       HT       0.417000       1.00800           0
     36109 TIP3     8731     TIP3     H2       HT       0.417000       1.00800           0
     36110 TIP3     8732     TIP3     OH2      OT      -0.834000       15.9994           0
     36111 TIP3     8732     TIP3     H1       HT       0.417000       1.00800           0
     36112 TIP3     8732     TIP3     H2       HT       0.417000       1.00800           0
     36113 TIP3     8733     TIP3     OH2      OT      -0.834000       15.9994           0
     36114 TIP3     8733     TIP3     H1       HT       0.417000       1.00800           0
     36115 TIP3     8733     TIP3     H2       HT       0.417000       1.00800           0
     36116 TIP3     8734     TIP3     OH2      OT      -0.834000       15.9994           0
     36117 TIP3     8734     TIP3     H1       HT       0.417000       1.00800           0
     36118 TIP3     8734     TIP3     H2       HT       0.417000       1.00800           0
     36119 TIP3     8735     TIP3     OH2      OT      -0.834000       15.9994           0
     36120 TIP3     8735     TIP3     H1       HT       0.417000       1.00800           0
     36121 TIP3     8735     TIP3     H2       HT       0.417000       1.00800           0
     36122 TIP3     8736     TIP3     OH2      OT      -0.834000       15.9994           0
     36123 TIP3     8736     TIP3     H1       HT       0.417000       1.00800           0
     36124 TIP3     8736     TIP3     H2       HT       0.417000       1.00800           0
     36125 TIP3     8737     TIP3     OH2      OT      -0.834000       15.9994           0
     36126 TIP3     8737     TIP3     H1       HT       0.417000       1.00800           0
     36127 TIP3     8737     TIP3     H2       HT       0.417000       1.00800           0
     36128 TIP3     8738     TIP3     OH2      OT      -0.834000       15.9994           0
     36129 TIP3     8738     TIP3     H1       HT       0.417000       1.00800           0
     36130 TIP3     8738     TIP3     H2       HT       0.417000       1.00800           0
     36131 TIP3     8739     TIP3     OH2      OT      -0.834000       15.9994           0
     36132 TIP3     8739     TIP3     H1       HT       0.417000       1.00800           0
     36133 TIP3     8739     TIP3     H2       HT       0.417000       1.00800           0
     36134 TIP3     8740     TIP3     OH2      OT      -0.834000       15.9994           0
     36135 TIP3     8740     TIP3     H1       HT       0.417000       1.00800           0
     36136 TIP3     8740     TIP3     H2       HT       0.417000       1.00800           0
     36137 TIP3     8741     TIP3     OH2      OT      -0.834000       15.9994           0
     36138 TIP3     8741     TIP3     H1       HT       0.417000       1.00800           0
     36139 TIP3     8741     TIP3     H2       HT       0.417000       1.00800           0
     36140 TIP3     8742     TIP3     OH2      OT      -0.834000       15.9994           0
     36141 TIP3     8742     TIP3     H1       HT       0.417000       1.00800           0
     36142 TIP3     8742     TIP3     H2       HT       0.417000       1.00800           0
     36143 TIP3     8743     TIP3     OH2      OT      -0.834000       15.9994           0
     36144 TIP3     8743     TIP3     H1       HT       0.417000       1.00800           0
     36145 TIP3     8743     TIP3     H2       HT       0.417000       1.00800           0
     36146 TIP3     8744     TIP3     OH2      OT      -0.834000       15.9994           0
     36147 TIP3     8744     TIP3     H1       HT       0.417000       1.00800           0
     36148 TIP3     8744     TIP3     H2       HT       0.417000       1.00800           0
     36149 TIP3     8745     TIP3     OH2      OT      -0.834000       15.9994           0
     36150 TIP3     8745     TIP3     H1       HT       0.417000       1.00800           0
     36151 TIP3     8745     TIP3     H2       HT       0.417000       1.00800           0
     36152 TIP3     8746     TIP3     OH2      OT      -0.834000       15.9994           0
     36153 TIP3     8746     TIP3     H1       HT       0.417000       1.00800           0
     36154 TIP3     8746     TIP3     H2       HT       0.417000       1.00800           0
     36155 TIP3     8747     TIP3     OH2      OT      -0.834000       15.9994           0
     36156 TIP3     8747     TIP3     H1       HT       0.417000       1.00800           0
     36157 TIP3     8747     TIP3     H2       HT       0.417000       1.00800           0
     36158 TIP3     8748     TIP3     OH2      OT      -0.834000       15.9994           0
     36159 TIP3     8748     TIP3     H1       HT       0.417000       1.00800           0
     36160 TIP3     8748     TIP3     H2       HT       0.417000       1.00800           0
     36161 TIP3     8749     TIP3     OH2      OT      -0.834000       15.9994           0
     36162 TIP3     8749     TIP3     H1       HT       0.417000       1.00800           0
     36163 TIP3     8749     TIP3     H2       HT       0.417000       1.00800           0
     36164 TIP3     8750     TIP3     OH2      OT      -0.834000       15.9994           0
     36165 TIP3     8750     TIP3     H1       HT       0.417000       1.00800           0
     36166 TIP3     8750     TIP3     H2       HT       0.417000       1.00800           0
     36167 TIP3     8751     TIP3     OH2      OT      -0.834000       15.9994           0
     36168 TIP3     8751     TIP3     H1       HT       0.417000       1.00800           0
     36169 TIP3     8751     TIP3     H2       HT       0.417000       1.00800           0
     36170 TIP3     8752     TIP3     OH2      OT      -0.834000       15.9994           0
     36171 TIP3     8752     TIP3     H1       HT       0.417000       1.00800           0
     36172 TIP3     8752     TIP3     H2       HT       0.417000       1.00800           0
     36173 TIP3     8753     TIP3     OH2      OT      -0.834000       15.9994           0
     36174 TIP3     8753     TIP3     H1       HT       0.417000       1.00800           0
     36175 TIP3     8753     TIP3     H2       HT       0.417000       1.00800           0
     36176 TIP3     8754     TIP3     OH2      OT      -0.834000       15.9994           0
     36177 TIP3     8754     TIP3     H1       HT       0.417000       1.00800           0
     36178 TIP3     8754     TIP3     H2       HT       0.417000       1.00800           0
     36179 TIP3     8755     TIP3     OH2      OT      -0.834000       15.9994           0
     36180 TIP3     8755     TIP3     H1       HT       0.417000       1.00800           0
     36181 TIP3     8755     TIP3     H2       HT       0.417000       1.00800           0
     36182 TIP3     8756     TIP3     OH2      OT      -0.834000       15.9994           0
     36183 TIP3     8756     TIP3     H1       HT       0.417000       1.00800           0
     36184 TIP3     8756     TIP3     H2       HT       0.417000       1.00800           0
     36185 TIP3     8757     TIP3     OH2      OT      -0.834000       15.9994           0
     36186 TIP3     8757     TIP3     H1       HT       0.417000       1.00800           0
     36187 TIP3     8757     TIP3     H2       HT       0.417000       1.00800           0
     36188 TIP3     8758     TIP3     OH2      OT      -0.834000       15.9994           0
     36189 TIP3     8758     TIP3     H1       HT       0.417000       1.00800           0
     36190 TIP3     8758     TIP3     H2       HT       0.417000       1.00800           0
     36191 TIP3     8759     TIP3     OH2      OT      -0.834000       15.9994           0
     36192 TIP3     8759     TIP3     H1       HT       0.417000       1.00800           0
     36193 TIP3     8759     TIP3     H2       HT       0.417000       1.00800           0
     36194 TIP3     8760     TIP3     OH2      OT      -0.834000       15.9994           0
     36195 TIP3     8760     TIP3     H1       HT       0.417000       1.00800           0
     36196 TIP3     8760     TIP3     H2       HT       0.417000       1.00800           0
     36197 TIP3     8761     TIP3     OH2      OT      -0.834000       15.9994           0
     36198 TIP3     8761     TIP3     H1       HT       0.417000       1.00800           0
     36199 TIP3     8761     TIP3     H2       HT       0.417000       1.00800           0
     36200 TIP3     8762     TIP3     OH2      OT      -0.834000       15.9994           0
     36201 TIP3     8762     TIP3     H1       HT       0.417000       1.00800           0
     36202 TIP3     8762     TIP3     H2       HT       0.417000       1.00800           0
     36203 TIP3     8763     TIP3     OH2      OT      -0.834000       15.9994           0
     36204 TIP3     8763     TIP3     H1       HT       0.417000       1.00800           0
     36205 TIP3     8763     TIP3     H2       HT       0.417000       1.00800           0
     36206 TIP3     8764     TIP3     OH2      OT      -0.834000       15.9994           0
     36207 TIP3     8764     TIP3     H1       HT       0.417000       1.00800           0
     36208 TIP3     8764     TIP3     H2       HT       0.417000       1.00800           0
     36209 TIP3     8765     TIP3     OH2      OT      -0.834000       15.9994           0
     36210 TIP3     8765     TIP3     H1       HT       0.417000       1.00800           0
     36211 TIP3     8765     TIP3     H2       HT       0.417000       1.00800           0
     36212 TIP3     8766     TIP3     OH2      OT      -0.834000       15.9994           0
     36213 TIP3     8766     TIP3     H1       HT       0.417000       1.00800           0
     36214 TIP3     8766     TIP3     H2       HT       0.417000       1.00800           0
     36215 TIP3     8767     TIP3     OH2      OT      -0.834000       15.9994           0
     36216 TIP3     8767     TIP3     H1       HT       0.417000       1.00800           0
     36217 TIP3     8767     TIP3     H2       HT       0.417000       1.00800           0
     36218 TIP3     8768     TIP3     OH2      OT      -0.834000       15.9994           0
     36219 TIP3     8768     TIP3     H1       HT       0.417000       1.00800           0
     36220 TIP3     8768     TIP3     H2       HT       0.417000       1.00800           0
     36221 TIP3     8769     TIP3     OH2      OT      -0.834000       15.9994           0
     36222 TIP3     8769     TIP3     H1       HT       0.417000       1.00800           0
     36223 TIP3     8769     TIP3     H2       HT       0.417000       1.00800           0
     36224 TIP3     8770     TIP3     OH2      OT      -0.834000       15.9994           0
     36225 TIP3     8770     TIP3     H1       HT       0.417000       1.00800           0
     36226 TIP3     8770     TIP3     H2       HT       0.417000       1.00800           0
     36227 TIP3     8771     TIP3     OH2      OT      -0.834000       15.9994           0
     36228 TIP3     8771     TIP3     H1       HT       0.417000       1.00800           0
     36229 TIP3     8771     TIP3     H2       HT       0.417000       1.00800           0
     36230 TIP3     8772     TIP3     OH2      OT      -0.834000       15.9994           0
     36231 TIP3     8772     TIP3     H1       HT       0.417000       1.00800           0
     36232 TIP3     8772     TIP3     H2       HT       0.417000       1.00800           0
     36233 TIP3     8773     TIP3     OH2      OT      -0.834000       15.9994           0
     36234 TIP3     8773     TIP3     H1       HT       0.417000       1.00800           0
     36235 TIP3     8773     TIP3     H2       HT       0.417000       1.00800           0
     36236 TIP3     8774     TIP3     OH2      OT      -0.834000       15.9994           0
     36237 TIP3     8774     TIP3     H1       HT       0.417000       1.00800           0
     36238 TIP3     8774     TIP3     H2       HT       0.417000       1.00800           0
     36239 TIP3     8775     TIP3     OH2      OT      -0.834000       15.9994           0
     36240 TIP3     8775     TIP3     H1       HT       0.417000       1.00800           0
     36241 TIP3     8775     TIP3     H2       HT       0.417000       1.00800           0
     36242 TIP3     8776     TIP3     OH2      OT      -0.834000       15.9994           0
     36243 TIP3     8776     TIP3     H1       HT       0.417000       1.00800           0
     36244 TIP3     8776     TIP3     H2       HT       0.417000       1.00800           0
     36245 TIP3     8777     TIP3     OH2      OT      -0.834000       15.9994           0
     36246 TIP3     8777     TIP3     H1       HT       0.417000       1.00800           0
     36247 TIP3     8777     TIP3     H2       HT       0.417000       1.00800           0
     36248 TIP3     8778     TIP3     OH2      OT      -0.834000       15.9994           0
     36249 TIP3     8778     TIP3     H1       HT       0.417000       1.00800           0
     36250 TIP3     8778     TIP3     H2       HT       0.417000       1.00800           0
     36251 TIP3     8779     TIP3     OH2      OT      -0.834000       15.9994           0
     36252 TIP3     8779     TIP3     H1       HT       0.417000       1.00800           0
     36253 TIP3     8779     TIP3     H2       HT       0.417000       1.00800           0
     36254 TIP3     8780     TIP3     OH2      OT      -0.834000       15.9994           0
     36255 TIP3     8780     TIP3     H1       HT       0.417000       1.00800           0
     36256 TIP3     8780     TIP3     H2       HT       0.417000       1.00800           0
     36257 TIP3     8781     TIP3     OH2      OT      -0.834000       15.9994           0
     36258 TIP3     8781     TIP3     H1       HT       0.417000       1.00800           0
     36259 TIP3     8781     TIP3     H2       HT       0.417000       1.00800           0
     36260 TIP3     8782     TIP3     OH2      OT      -0.834000       15.9994           0
     36261 TIP3     8782     TIP3     H1       HT       0.417000       1.00800           0
     36262 TIP3     8782     TIP3     H2       HT       0.417000       1.00800           0
     36263 TIP3     8783     TIP3     OH2      OT      -0.834000       15.9994           0
     36264 TIP3     8783     TIP3     H1       HT       0.417000       1.00800           0
     36265 TIP3     8783     TIP3     H2       HT       0.417000       1.00800           0
     36266 TIP3     8784     TIP3     OH2      OT      -0.834000       15.9994           0
     36267 TIP3     8784     TIP3     H1       HT       0.417000       1.00800           0
     36268 TIP3     8784     TIP3     H2       HT       0.417000       1.00800           0
     36269 TIP3     8785     TIP3     OH2      OT      -0.834000       15.9994           0
     36270 TIP3     8785     TIP3     H1       HT       0.417000       1.00800           0
     36271 TIP3     8785     TIP3     H2       HT       0.417000       1.00800           0
     36272 TIP3     8786     TIP3     OH2      OT      -0.834000       15.9994           0
     36273 TIP3     8786     TIP3     H1       HT       0.417000       1.00800           0
     36274 TIP3     8786     TIP3     H2       HT       0.417000       1.00800           0
     36275 TIP3     8787     TIP3     OH2      OT      -0.834000       15.9994           0
     36276 TIP3     8787     TIP3     H1       HT       0.417000       1.00800           0
     36277 TIP3     8787     TIP3     H2       HT       0.417000       1.00800           0
     36278 TIP3     8788     TIP3     OH2      OT      -0.834000       15.9994           0
     36279 TIP3     8788     TIP3     H1       HT       0.417000       1.00800           0
     36280 TIP3     8788     TIP3     H2       HT       0.417000       1.00800           0
     36281 TIP3     8789     TIP3     OH2      OT      -0.834000       15.9994           0
     36282 TIP3     8789     TIP3     H1       HT       0.417000       1.00800           0
     36283 TIP3     8789     TIP3     H2       HT       0.417000       1.00800           0
     36284 TIP3     8790     TIP3     OH2      OT      -0.834000       15.9994           0
     36285 TIP3     8790     TIP3     H1       HT       0.417000       1.00800           0
     36286 TIP3     8790     TIP3     H2       HT       0.417000       1.00800           0
     36287 TIP3     8791     TIP3     OH2      OT      -0.834000       15.9994           0
     36288 TIP3     8791     TIP3     H1       HT       0.417000       1.00800           0
     36289 TIP3     8791     TIP3     H2       HT       0.417000       1.00800           0
     36290 TIP3     8792     TIP3     OH2      OT      -0.834000       15.9994           0
     36291 TIP3     8792     TIP3     H1       HT       0.417000       1.00800           0
     36292 TIP3     8792     TIP3     H2       HT       0.417000       1.00800           0
     36293 TIP3     8793     TIP3     OH2      OT      -0.834000       15.9994           0
     36294 TIP3     8793     TIP3     H1       HT       0.417000       1.00800           0
     36295 TIP3     8793     TIP3     H2       HT       0.417000       1.00800           0
     36296 TIP3     8794     TIP3     OH2      OT      -0.834000       15.9994           0
     36297 TIP3     8794     TIP3     H1       HT       0.417000       1.00800           0
     36298 TIP3     8794     TIP3     H2       HT       0.417000       1.00800           0
     36299 TIP3     8795     TIP3     OH2      OT      -0.834000       15.9994           0
     36300 TIP3     8795     TIP3     H1       HT       0.417000       1.00800           0
     36301 TIP3     8795     TIP3     H2       HT       0.417000       1.00800           0
     36302 TIP3     8796     TIP3     OH2      OT      -0.834000       15.9994           0
     36303 TIP3     8796     TIP3     H1       HT       0.417000       1.00800           0
     36304 TIP3     8796     TIP3     H2       HT       0.417000       1.00800           0
     36305 TIP3     8797     TIP3     OH2      OT      -0.834000       15.9994           0
     36306 TIP3     8797     TIP3     H1       HT       0.417000       1.00800           0
     36307 TIP3     8797     TIP3     H2       HT       0.417000       1.00800           0
     36308 TIP3     8798     TIP3     OH2      OT      -0.834000       15.9994           0
     36309 TIP3     8798     TIP3     H1       HT       0.417000       1.00800           0
     36310 TIP3     8798     TIP3     H2       HT       0.417000       1.00800           0
     36311 TIP3     8799     TIP3     OH2      OT      -0.834000       15.9994           0
     36312 TIP3     8799     TIP3     H1       HT       0.417000       1.00800           0
     36313 TIP3     8799     TIP3     H2       HT       0.417000       1.00800           0
     36314 TIP3     8800     TIP3     OH2      OT      -0.834000       15.9994           0
     36315 TIP3     8800     TIP3     H1       HT       0.417000       1.00800           0
     36316 TIP3     8800     TIP3     H2       HT       0.417000       1.00800           0
     36317 TIP3     8801     TIP3     OH2      OT      -0.834000       15.9994           0
     36318 TIP3     8801     TIP3     H1       HT       0.417000       1.00800           0
     36319 TIP3     8801     TIP3     H2       HT       0.417000       1.00800           0
     36320 TIP3     8802     TIP3     OH2      OT      -0.834000       15.9994           0
     36321 TIP3     8802     TIP3     H1       HT       0.417000       1.00800           0
     36322 TIP3     8802     TIP3     H2       HT       0.417000       1.00800           0
     36323 TIP3     8803     TIP3     OH2      OT      -0.834000       15.9994           0
     36324 TIP3     8803     TIP3     H1       HT       0.417000       1.00800           0
     36325 TIP3     8803     TIP3     H2       HT       0.417000       1.00800           0
     36326 TIP3     8804     TIP3     OH2      OT      -0.834000       15.9994           0
     36327 TIP3     8804     TIP3     H1       HT       0.417000       1.00800           0
     36328 TIP3     8804     TIP3     H2       HT       0.417000       1.00800           0
     36329 TIP3     8805     TIP3     OH2      OT      -0.834000       15.9994           0
     36330 TIP3     8805     TIP3     H1       HT       0.417000       1.00800           0
     36331 TIP3     8805     TIP3     H2       HT       0.417000       1.00800           0
     36332 TIP3     8806     TIP3     OH2      OT      -0.834000       15.9994           0
     36333 TIP3     8806     TIP3     H1       HT       0.417000       1.00800           0
     36334 TIP3     8806     TIP3     H2       HT       0.417000       1.00800           0
     36335 TIP3     8807     TIP3     OH2      OT      -0.834000       15.9994           0
     36336 TIP3     8807     TIP3     H1       HT       0.417000       1.00800           0
     36337 TIP3     8807     TIP3     H2       HT       0.417000       1.00800           0
     36338 TIP3     8808     TIP3     OH2      OT      -0.834000       15.9994           0
     36339 TIP3     8808     TIP3     H1       HT       0.417000       1.00800           0
     36340 TIP3     8808     TIP3     H2       HT       0.417000       1.00800           0
     36341 TIP3     8809     TIP3     OH2      OT      -0.834000       15.9994           0
     36342 TIP3     8809     TIP3     H1       HT       0.417000       1.00800           0
     36343 TIP3     8809     TIP3     H2       HT       0.417000       1.00800           0
     36344 TIP3     8810     TIP3     OH2      OT      -0.834000       15.9994           0
     36345 TIP3     8810     TIP3     H1       HT       0.417000       1.00800           0
     36346 TIP3     8810     TIP3     H2       HT       0.417000       1.00800           0
     36347 TIP3     8811     TIP3     OH2      OT      -0.834000       15.9994           0
     36348 TIP3     8811     TIP3     H1       HT       0.417000       1.00800           0
     36349 TIP3     8811     TIP3     H2       HT       0.417000       1.00800           0
     36350 TIP3     8812     TIP3     OH2      OT      -0.834000       15.9994           0
     36351 TIP3     8812     TIP3     H1       HT       0.417000       1.00800           0
     36352 TIP3     8812     TIP3     H2       HT       0.417000       1.00800           0
     36353 TIP3     8813     TIP3     OH2      OT      -0.834000       15.9994           0
     36354 TIP3     8813     TIP3     H1       HT       0.417000       1.00800           0
     36355 TIP3     8813     TIP3     H2       HT       0.417000       1.00800           0
     36356 TIP3     8814     TIP3     OH2      OT      -0.834000       15.9994           0
     36357 TIP3     8814     TIP3     H1       HT       0.417000       1.00800           0
     36358 TIP3     8814     TIP3     H2       HT       0.417000       1.00800           0
     36359 TIP3     8815     TIP3     OH2      OT      -0.834000       15.9994           0
     36360 TIP3     8815     TIP3     H1       HT       0.417000       1.00800           0
     36361 TIP3     8815     TIP3     H2       HT       0.417000       1.00800           0
     36362 TIP3     8816     TIP3     OH2      OT      -0.834000       15.9994           0
     36363 TIP3     8816     TIP3     H1       HT       0.417000       1.00800           0
     36364 TIP3     8816     TIP3     H2       HT       0.417000       1.00800           0
     36365 TIP3     8817     TIP3     OH2      OT      -0.834000       15.9994           0
     36366 TIP3     8817     TIP3     H1       HT       0.417000       1.00800           0
     36367 TIP3     8817     TIP3     H2       HT       0.417000       1.00800           0
     36368 TIP3     8818     TIP3     OH2      OT      -0.834000       15.9994           0
     36369 TIP3     8818     TIP3     H1       HT       0.417000       1.00800           0
     36370 TIP3     8818     TIP3     H2       HT       0.417000       1.00800           0
     36371 TIP3     8819     TIP3     OH2      OT      -0.834000       15.9994           0
     36372 TIP3     8819     TIP3     H1       HT       0.417000       1.00800           0
     36373 TIP3     8819     TIP3     H2       HT       0.417000       1.00800           0
     36374 TIP3     8820     TIP3     OH2      OT      -0.834000       15.9994           0
     36375 TIP3     8820     TIP3     H1       HT       0.417000       1.00800           0
     36376 TIP3     8820     TIP3     H2       HT       0.417000       1.00800           0
     36377 TIP3     8821     TIP3     OH2      OT      -0.834000       15.9994           0
     36378 TIP3     8821     TIP3     H1       HT       0.417000       1.00800           0
     36379 TIP3     8821     TIP3     H2       HT       0.417000       1.00800           0
     36380 TIP3     8822     TIP3     OH2      OT      -0.834000       15.9994           0
     36381 TIP3     8822     TIP3     H1       HT       0.417000       1.00800           0
     36382 TIP3     8822     TIP3     H2       HT       0.417000       1.00800           0
     36383 TIP3     8823     TIP3     OH2      OT      -0.834000       15.9994           0
     36384 TIP3     8823     TIP3     H1       HT       0.417000       1.00800           0
     36385 TIP3     8823     TIP3     H2       HT       0.417000       1.00800           0
     36386 TIP3     8824     TIP3     OH2      OT      -0.834000       15.9994           0
     36387 TIP3     8824     TIP3     H1       HT       0.417000       1.00800           0
     36388 TIP3     8824     TIP3     H2       HT       0.417000       1.00800           0
     36389 TIP3     8825     TIP3     OH2      OT      -0.834000       15.9994           0
     36390 TIP3     8825     TIP3     H1       HT       0.417000       1.00800           0
     36391 TIP3     8825     TIP3     H2       HT       0.417000       1.00800           0
     36392 TIP3     8826     TIP3     OH2      OT      -0.834000       15.9994           0
     36393 TIP3     8826     TIP3     H1       HT       0.417000       1.00800           0
     36394 TIP3     8826     TIP3     H2       HT       0.417000       1.00800           0
     36395 TIP3     8827     TIP3     OH2      OT      -0.834000       15.9994           0
     36396 TIP3     8827     TIP3     H1       HT       0.417000       1.00800           0
     36397 TIP3     8827     TIP3     H2       HT       0.417000       1.00800           0
     36398 TIP3     8828     TIP3     OH2      OT      -0.834000       15.9994           0
     36399 TIP3     8828     TIP3     H1       HT       0.417000       1.00800           0
     36400 TIP3     8828     TIP3     H2       HT       0.417000       1.00800           0
     36401 TIP3     8829     TIP3     OH2      OT      -0.834000       15.9994           0
     36402 TIP3     8829     TIP3     H1       HT       0.417000       1.00800           0
     36403 TIP3     8829     TIP3     H2       HT       0.417000       1.00800           0
     36404 TIP3     8830     TIP3     OH2      OT      -0.834000       15.9994           0
     36405 TIP3     8830     TIP3     H1       HT       0.417000       1.00800           0
     36406 TIP3     8830     TIP3     H2       HT       0.417000       1.00800           0
     36407 TIP3     8831     TIP3     OH2      OT      -0.834000       15.9994           0
     36408 TIP3     8831     TIP3     H1       HT       0.417000       1.00800           0
     36409 TIP3     8831     TIP3     H2       HT       0.417000       1.00800           0
     36410 TIP3     8832     TIP3     OH2      OT      -0.834000       15.9994           0
     36411 TIP3     8832     TIP3     H1       HT       0.417000       1.00800           0
     36412 TIP3     8832     TIP3     H2       HT       0.417000       1.00800           0
     36413 TIP3     8833     TIP3     OH2      OT      -0.834000       15.9994           0
     36414 TIP3     8833     TIP3     H1       HT       0.417000       1.00800           0
     36415 TIP3     8833     TIP3     H2       HT       0.417000       1.00800           0
     36416 TIP3     8834     TIP3     OH2      OT      -0.834000       15.9994           0
     36417 TIP3     8834     TIP3     H1       HT       0.417000       1.00800           0
     36418 TIP3     8834     TIP3     H2       HT       0.417000       1.00800           0
     36419 TIP3     8835     TIP3     OH2      OT      -0.834000       15.9994           0
     36420 TIP3     8835     TIP3     H1       HT       0.417000       1.00800           0
     36421 TIP3     8835     TIP3     H2       HT       0.417000       1.00800           0
     36422 TIP3     8836     TIP3     OH2      OT      -0.834000       15.9994           0
     36423 TIP3     8836     TIP3     H1       HT       0.417000       1.00800           0
     36424 TIP3     8836     TIP3     H2       HT       0.417000       1.00800           0
     36425 TIP3     8837     TIP3     OH2      OT      -0.834000       15.9994           0
     36426 TIP3     8837     TIP3     H1       HT       0.417000       1.00800           0
     36427 TIP3     8837     TIP3     H2       HT       0.417000       1.00800           0
     36428 TIP3     8838     TIP3     OH2      OT      -0.834000       15.9994           0
     36429 TIP3     8838     TIP3     H1       HT       0.417000       1.00800           0
     36430 TIP3     8838     TIP3     H2       HT       0.417000       1.00800           0
     36431 TIP3     8839     TIP3     OH2      OT      -0.834000       15.9994           0
     36432 TIP3     8839     TIP3     H1       HT       0.417000       1.00800           0
     36433 TIP3     8839     TIP3     H2       HT       0.417000       1.00800           0
     36434 TIP3     8840     TIP3     OH2      OT      -0.834000       15.9994           0
     36435 TIP3     8840     TIP3     H1       HT       0.417000       1.00800           0
     36436 TIP3     8840     TIP3     H2       HT       0.417000       1.00800           0
     36437 TIP3     8841     TIP3     OH2      OT      -0.834000       15.9994           0
     36438 TIP3     8841     TIP3     H1       HT       0.417000       1.00800           0
     36439 TIP3     8841     TIP3     H2       HT       0.417000       1.00800           0
     36440 TIP3     8842     TIP3     OH2      OT      -0.834000       15.9994           0
     36441 TIP3     8842     TIP3     H1       HT       0.417000       1.00800           0
     36442 TIP3     8842     TIP3     H2       HT       0.417000       1.00800           0
     36443 TIP3     8843     TIP3     OH2      OT      -0.834000       15.9994           0
     36444 TIP3     8843     TIP3     H1       HT       0.417000       1.00800           0
     36445 TIP3     8843     TIP3     H2       HT       0.417000       1.00800           0
     36446 TIP3     8844     TIP3     OH2      OT      -0.834000       15.9994           0
     36447 TIP3     8844     TIP3     H1       HT       0.417000       1.00800           0
     36448 TIP3     8844     TIP3     H2       HT       0.417000       1.00800           0
     36449 TIP3     8845     TIP3     OH2      OT      -0.834000       15.9994           0
     36450 TIP3     8845     TIP3     H1       HT       0.417000       1.00800           0
     36451 TIP3     8845     TIP3     H2       HT       0.417000       1.00800           0
     36452 TIP3     8846     TIP3     OH2      OT      -0.834000       15.9994           0
     36453 TIP3     8846     TIP3     H1       HT       0.417000       1.00800           0
     36454 TIP3     8846     TIP3     H2       HT       0.417000       1.00800           0
     36455 TIP3     8847     TIP3     OH2      OT      -0.834000       15.9994           0
     36456 TIP3     8847     TIP3     H1       HT       0.417000       1.00800           0
     36457 TIP3     8847     TIP3     H2       HT       0.417000       1.00800           0
     36458 TIP3     8848     TIP3     OH2      OT      -0.834000       15.9994           0
     36459 TIP3     8848     TIP3     H1       HT       0.417000       1.00800           0
     36460 TIP3     8848     TIP3     H2       HT       0.417000       1.00800           0
     36461 TIP3     8849     TIP3     OH2      OT      -0.834000       15.9994           0
     36462 TIP3     8849     TIP3     H1       HT       0.417000       1.00800           0
     36463 TIP3     8849     TIP3     H2       HT       0.417000       1.00800           0
     36464 TIP3     8850     TIP3     OH2      OT      -0.834000       15.9994           0
     36465 TIP3     8850     TIP3     H1       HT       0.417000       1.00800           0
     36466 TIP3     8850     TIP3     H2       HT       0.417000       1.00800           0
     36467 TIP3     8851     TIP3     OH2      OT      -0.834000       15.9994           0
     36468 TIP3     8851     TIP3     H1       HT       0.417000       1.00800           0
     36469 TIP3     8851     TIP3     H2       HT       0.417000       1.00800           0
     36470 TIP3     8852     TIP3     OH2      OT      -0.834000       15.9994           0
     36471 TIP3     8852     TIP3     H1       HT       0.417000       1.00800           0
     36472 TIP3     8852     TIP3     H2       HT       0.417000       1.00800           0
     36473 TIP3     8853     TIP3     OH2      OT      -0.834000       15.9994           0
     36474 TIP3     8853     TIP3     H1       HT       0.417000       1.00800           0
     36475 TIP3     8853     TIP3     H2       HT       0.417000       1.00800           0
     36476 TIP3     8854     TIP3     OH2      OT      -0.834000       15.9994           0
     36477 TIP3     8854     TIP3     H1       HT       0.417000       1.00800           0
     36478 TIP3     8854     TIP3     H2       HT       0.417000       1.00800           0
     36479 TIP3     8855     TIP3     OH2      OT      -0.834000       15.9994           0
     36480 TIP3     8855     TIP3     H1       HT       0.417000       1.00800           0
     36481 TIP3     8855     TIP3     H2       HT       0.417000       1.00800           0
     36482 TIP3     8856     TIP3     OH2      OT      -0.834000       15.9994           0
     36483 TIP3     8856     TIP3     H1       HT       0.417000       1.00800           0
     36484 TIP3     8856     TIP3     H2       HT       0.417000       1.00800           0
     36485 TIP3     8857     TIP3     OH2      OT      -0.834000       15.9994           0
     36486 TIP3     8857     TIP3     H1       HT       0.417000       1.00800           0
     36487 TIP3     8857     TIP3     H2       HT       0.417000       1.00800           0
     36488 TIP3     8858     TIP3     OH2      OT      -0.834000       15.9994           0
     36489 TIP3     8858     TIP3     H1       HT       0.417000       1.00800           0
     36490 TIP3     8858     TIP3     H2       HT       0.417000       1.00800           0
     36491 TIP3     8859     TIP3     OH2      OT      -0.834000       15.9994           0
     36492 TIP3     8859     TIP3     H1       HT       0.417000       1.00800           0
     36493 TIP3     8859     TIP3     H2       HT       0.417000       1.00800           0
     36494 TIP3     8860     TIP3     OH2      OT      -0.834000       15.9994           0
     36495 TIP3     8860     TIP3     H1       HT       0.417000       1.00800           0
     36496 TIP3     8860     TIP3     H2       HT       0.417000       1.00800           0
     36497 TIP3     8861     TIP3     OH2      OT      -0.834000       15.9994           0
     36498 TIP3     8861     TIP3     H1       HT       0.417000       1.00800           0
     36499 TIP3     8861     TIP3     H2       HT       0.417000       1.00800           0
     36500 TIP3     8862     TIP3     OH2      OT      -0.834000       15.9994           0
     36501 TIP3     8862     TIP3     H1       HT       0.417000       1.00800           0
     36502 TIP3     8862     TIP3     H2       HT       0.417000       1.00800           0
     36503 TIP3     8863     TIP3     OH2      OT      -0.834000       15.9994           0
     36504 TIP3     8863     TIP3     H1       HT       0.417000       1.00800           0
     36505 TIP3     8863     TIP3     H2       HT       0.417000       1.00800           0
     36506 TIP3     8864     TIP3     OH2      OT      -0.834000       15.9994           0
     36507 TIP3     8864     TIP3     H1       HT       0.417000       1.00800           0
     36508 TIP3     8864     TIP3     H2       HT       0.417000       1.00800           0
     36509 TIP3     8865     TIP3     OH2      OT      -0.834000       15.9994           0
     36510 TIP3     8865     TIP3     H1       HT       0.417000       1.00800           0
     36511 TIP3     8865     TIP3     H2       HT       0.417000       1.00800           0
     36512 TIP3     8866     TIP3     OH2      OT      -0.834000       15.9994           0
     36513 TIP3     8866     TIP3     H1       HT       0.417000       1.00800           0
     36514 TIP3     8866     TIP3     H2       HT       0.417000       1.00800           0
     36515 TIP3     8867     TIP3     OH2      OT      -0.834000       15.9994           0
     36516 TIP3     8867     TIP3     H1       HT       0.417000       1.00800           0
     36517 TIP3     8867     TIP3     H2       HT       0.417000       1.00800           0
     36518 TIP3     8868     TIP3     OH2      OT      -0.834000       15.9994           0
     36519 TIP3     8868     TIP3     H1       HT       0.417000       1.00800           0
     36520 TIP3     8868     TIP3     H2       HT       0.417000       1.00800           0
     36521 TIP3     8869     TIP3     OH2      OT      -0.834000       15.9994           0
     36522 TIP3     8869     TIP3     H1       HT       0.417000       1.00800           0
     36523 TIP3     8869     TIP3     H2       HT       0.417000       1.00800           0
     36524 TIP3     8870     TIP3     OH2      OT      -0.834000       15.9994           0
     36525 TIP3     8870     TIP3     H1       HT       0.417000       1.00800           0
     36526 TIP3     8870     TIP3     H2       HT       0.417000       1.00800           0
     36527 TIP3     8871     TIP3     OH2      OT      -0.834000       15.9994           0
     36528 TIP3     8871     TIP3     H1       HT       0.417000       1.00800           0
     36529 TIP3     8871     TIP3     H2       HT       0.417000       1.00800           0
     36530 TIP3     8872     TIP3     OH2      OT      -0.834000       15.9994           0
     36531 TIP3     8872     TIP3     H1       HT       0.417000       1.00800           0
     36532 TIP3     8872     TIP3     H2       HT       0.417000       1.00800           0
     36533 TIP3     8873     TIP3     OH2      OT      -0.834000       15.9994           0
     36534 TIP3     8873     TIP3     H1       HT       0.417000       1.00800           0
     36535 TIP3     8873     TIP3     H2       HT       0.417000       1.00800           0
     36536 TIP3     8874     TIP3     OH2      OT      -0.834000       15.9994           0
     36537 TIP3     8874     TIP3     H1       HT       0.417000       1.00800           0
     36538 TIP3     8874     TIP3     H2       HT       0.417000       1.00800           0
     36539 TIP3     8875     TIP3     OH2      OT      -0.834000       15.9994           0
     36540 TIP3     8875     TIP3     H1       HT       0.417000       1.00800           0
     36541 TIP3     8875     TIP3     H2       HT       0.417000       1.00800           0
     36542 TIP3     8876     TIP3     OH2      OT      -0.834000       15.9994           0
     36543 TIP3     8876     TIP3     H1       HT       0.417000       1.00800           0
     36544 TIP3     8876     TIP3     H2       HT       0.417000       1.00800           0
     36545 TIP3     8877     TIP3     OH2      OT      -0.834000       15.9994           0
     36546 TIP3     8877     TIP3     H1       HT       0.417000       1.00800           0
     36547 TIP3     8877     TIP3     H2       HT       0.417000       1.00800           0
     36548 TIP3     8878     TIP3     OH2      OT      -0.834000       15.9994           0
     36549 TIP3     8878     TIP3     H1       HT       0.417000       1.00800           0
     36550 TIP3     8878     TIP3     H2       HT       0.417000       1.00800           0
     36551 TIP3     8879     TIP3     OH2      OT      -0.834000       15.9994           0
     36552 TIP3     8879     TIP3     H1       HT       0.417000       1.00800           0
     36553 TIP3     8879     TIP3     H2       HT       0.417000       1.00800           0
     36554 TIP3     8880     TIP3     OH2      OT      -0.834000       15.9994           0
     36555 TIP3     8880     TIP3     H1       HT       0.417000       1.00800           0
     36556 TIP3     8880     TIP3     H2       HT       0.417000       1.00800           0
     36557 TIP3     8881     TIP3     OH2      OT      -0.834000       15.9994           0
     36558 TIP3     8881     TIP3     H1       HT       0.417000       1.00800           0
     36559 TIP3     8881     TIP3     H2       HT       0.417000       1.00800           0
     36560 TIP3     8882     TIP3     OH2      OT      -0.834000       15.9994           0
     36561 TIP3     8882     TIP3     H1       HT       0.417000       1.00800           0
     36562 TIP3     8882     TIP3     H2       HT       0.417000       1.00800           0
     36563 TIP3     8883     TIP3     OH2      OT      -0.834000       15.9994           0
     36564 TIP3     8883     TIP3     H1       HT       0.417000       1.00800           0
     36565 TIP3     8883     TIP3     H2       HT       0.417000       1.00800           0
     36566 TIP3     8884     TIP3     OH2      OT      -0.834000       15.9994           0
     36567 TIP3     8884     TIP3     H1       HT       0.417000       1.00800           0
     36568 TIP3     8884     TIP3     H2       HT       0.417000       1.00800           0
     36569 TIP3     8885     TIP3     OH2      OT      -0.834000       15.9994           0
     36570 TIP3     8885     TIP3     H1       HT       0.417000       1.00800           0
     36571 TIP3     8885     TIP3     H2       HT       0.417000       1.00800           0
     36572 TIP3     8886     TIP3     OH2      OT      -0.834000       15.9994           0
     36573 TIP3     8886     TIP3     H1       HT       0.417000       1.00800           0
     36574 TIP3     8886     TIP3     H2       HT       0.417000       1.00800           0
     36575 TIP3     8887     TIP3     OH2      OT      -0.834000       15.9994           0
     36576 TIP3     8887     TIP3     H1       HT       0.417000       1.00800           0
     36577 TIP3     8887     TIP3     H2       HT       0.417000       1.00800           0
     36578 TIP3     8888     TIP3     OH2      OT      -0.834000       15.9994           0
     36579 TIP3     8888     TIP3     H1       HT       0.417000       1.00800           0
     36580 TIP3     8888     TIP3     H2       HT       0.417000       1.00800           0
     36581 TIP3     8889     TIP3     OH2      OT      -0.834000       15.9994           0
     36582 TIP3     8889     TIP3     H1       HT       0.417000       1.00800           0
     36583 TIP3     8889     TIP3     H2       HT       0.417000       1.00800           0
     36584 TIP3     8890     TIP3     OH2      OT      -0.834000       15.9994           0
     36585 TIP3     8890     TIP3     H1       HT       0.417000       1.00800           0
     36586 TIP3     8890     TIP3     H2       HT       0.417000       1.00800           0
     36587 TIP3     8891     TIP3     OH2      OT      -0.834000       15.9994           0
     36588 TIP3     8891     TIP3     H1       HT       0.417000       1.00800           0
     36589 TIP3     8891     TIP3     H2       HT       0.417000       1.00800           0
     36590 TIP3     8892     TIP3     OH2      OT      -0.834000       15.9994           0
     36591 TIP3     8892     TIP3     H1       HT       0.417000       1.00800           0
     36592 TIP3     8892     TIP3     H2       HT       0.417000       1.00800           0
     36593 TIP3     8893     TIP3     OH2      OT      -0.834000       15.9994           0
     36594 TIP3     8893     TIP3     H1       HT       0.417000       1.00800           0
     36595 TIP3     8893     TIP3     H2       HT       0.417000       1.00800           0
     36596 TIP3     8894     TIP3     OH2      OT      -0.834000       15.9994           0
     36597 TIP3     8894     TIP3     H1       HT       0.417000       1.00800           0
     36598 TIP3     8894     TIP3     H2       HT       0.417000       1.00800           0
     36599 TIP3     8895     TIP3     OH2      OT      -0.834000       15.9994           0
     36600 TIP3     8895     TIP3     H1       HT       0.417000       1.00800           0
     36601 TIP3     8895     TIP3     H2       HT       0.417000       1.00800           0
     36602 TIP3     8896     TIP3     OH2      OT      -0.834000       15.9994           0
     36603 TIP3     8896     TIP3     H1       HT       0.417000       1.00800           0
     36604 TIP3     8896     TIP3     H2       HT       0.417000       1.00800           0
     36605 TIP3     8897     TIP3     OH2      OT      -0.834000       15.9994           0
     36606 TIP3     8897     TIP3     H1       HT       0.417000       1.00800           0
     36607 TIP3     8897     TIP3     H2       HT       0.417000       1.00800           0
     36608 TIP3     8898     TIP3     OH2      OT      -0.834000       15.9994           0
     36609 TIP3     8898     TIP3     H1       HT       0.417000       1.00800           0
     36610 TIP3     8898     TIP3     H2       HT       0.417000       1.00800           0
     36611 TIP3     8899     TIP3     OH2      OT      -0.834000       15.9994           0
     36612 TIP3     8899     TIP3     H1       HT       0.417000       1.00800           0
     36613 TIP3     8899     TIP3     H2       HT       0.417000       1.00800           0
     36614 TIP3     8900     TIP3     OH2      OT      -0.834000       15.9994           0
     36615 TIP3     8900     TIP3     H1       HT       0.417000       1.00800           0
     36616 TIP3     8900     TIP3     H2       HT       0.417000       1.00800           0
     36617 TIP3     8901     TIP3     OH2      OT      -0.834000       15.9994           0
     36618 TIP3     8901     TIP3     H1       HT       0.417000       1.00800           0
     36619 TIP3     8901     TIP3     H2       HT       0.417000       1.00800           0
     36620 TIP3     8902     TIP3     OH2      OT      -0.834000       15.9994           0
     36621 TIP3     8902     TIP3     H1       HT       0.417000       1.00800           0
     36622 TIP3     8902     TIP3     H2       HT       0.417000       1.00800           0
     36623 TIP3     8903     TIP3     OH2      OT      -0.834000       15.9994           0
     36624 TIP3     8903     TIP3     H1       HT       0.417000       1.00800           0
     36625 TIP3     8903     TIP3     H2       HT       0.417000       1.00800           0
     36626 TIP3     8904     TIP3     OH2      OT      -0.834000       15.9994           0
     36627 TIP3     8904     TIP3     H1       HT       0.417000       1.00800           0
     36628 TIP3     8904     TIP3     H2       HT       0.417000       1.00800           0
     36629 TIP3     8905     TIP3     OH2      OT      -0.834000       15.9994           0
     36630 TIP3     8905     TIP3     H1       HT       0.417000       1.00800           0
     36631 TIP3     8905     TIP3     H2       HT       0.417000       1.00800           0
     36632 TIP3     8906     TIP3     OH2      OT      -0.834000       15.9994           0
     36633 TIP3     8906     TIP3     H1       HT       0.417000       1.00800           0
     36634 TIP3     8906     TIP3     H2       HT       0.417000       1.00800           0
     36635 TIP3     8907     TIP3     OH2      OT      -0.834000       15.9994           0
     36636 TIP3     8907     TIP3     H1       HT       0.417000       1.00800           0
     36637 TIP3     8907     TIP3     H2       HT       0.417000       1.00800           0
     36638 TIP3     8908     TIP3     OH2      OT      -0.834000       15.9994           0
     36639 TIP3     8908     TIP3     H1       HT       0.417000       1.00800           0
     36640 TIP3     8908     TIP3     H2       HT       0.417000       1.00800           0
     36641 TIP3     8909     TIP3     OH2      OT      -0.834000       15.9994           0
     36642 TIP3     8909     TIP3     H1       HT       0.417000       1.00800           0
     36643 TIP3     8909     TIP3     H2       HT       0.417000       1.00800           0
     36644 TIP3     8910     TIP3     OH2      OT      -0.834000       15.9994           0
     36645 TIP3     8910     TIP3     H1       HT       0.417000       1.00800           0
     36646 TIP3     8910     TIP3     H2       HT       0.417000       1.00800           0
     36647 TIP3     8911     TIP3     OH2      OT      -0.834000       15.9994           0
     36648 TIP3     8911     TIP3     H1       HT       0.417000       1.00800           0
     36649 TIP3     8911     TIP3     H2       HT       0.417000       1.00800           0
     36650 TIP3     8912     TIP3     OH2      OT      -0.834000       15.9994           0
     36651 TIP3     8912     TIP3     H1       HT       0.417000       1.00800           0
     36652 TIP3     8912     TIP3     H2       HT       0.417000       1.00800           0
     36653 TIP3     8913     TIP3     OH2      OT      -0.834000       15.9994           0
     36654 TIP3     8913     TIP3     H1       HT       0.417000       1.00800           0
     36655 TIP3     8913     TIP3     H2       HT       0.417000       1.00800           0
     36656 TIP3     8914     TIP3     OH2      OT      -0.834000       15.9994           0
     36657 TIP3     8914     TIP3     H1       HT       0.417000       1.00800           0
     36658 TIP3     8914     TIP3     H2       HT       0.417000       1.00800           0
     36659 TIP3     8915     TIP3     OH2      OT      -0.834000       15.9994           0
     36660 TIP3     8915     TIP3     H1       HT       0.417000       1.00800           0
     36661 TIP3     8915     TIP3     H2       HT       0.417000       1.00800           0
     36662 TIP3     8916     TIP3     OH2      OT      -0.834000       15.9994           0
     36663 TIP3     8916     TIP3     H1       HT       0.417000       1.00800           0
     36664 TIP3     8916     TIP3     H2       HT       0.417000       1.00800           0
     36665 TIP3     8917     TIP3     OH2      OT      -0.834000       15.9994           0
     36666 TIP3     8917     TIP3     H1       HT       0.417000       1.00800           0
     36667 TIP3     8917     TIP3     H2       HT       0.417000       1.00800           0
     36668 TIP3     8918     TIP3     OH2      OT      -0.834000       15.9994           0
     36669 TIP3     8918     TIP3     H1       HT       0.417000       1.00800           0
     36670 TIP3     8918     TIP3     H2       HT       0.417000       1.00800           0
     36671 TIP3     8919     TIP3     OH2      OT      -0.834000       15.9994           0
     36672 TIP3     8919     TIP3     H1       HT       0.417000       1.00800           0
     36673 TIP3     8919     TIP3     H2       HT       0.417000       1.00800           0
     36674 TIP3     8920     TIP3     OH2      OT      -0.834000       15.9994           0
     36675 TIP3     8920     TIP3     H1       HT       0.417000       1.00800           0
     36676 TIP3     8920     TIP3     H2       HT       0.417000       1.00800           0
     36677 TIP3     8921     TIP3     OH2      OT      -0.834000       15.9994           0
     36678 TIP3     8921     TIP3     H1       HT       0.417000       1.00800           0
     36679 TIP3     8921     TIP3     H2       HT       0.417000       1.00800           0
     36680 TIP3     8922     TIP3     OH2      OT      -0.834000       15.9994           0
     36681 TIP3     8922     TIP3     H1       HT       0.417000       1.00800           0
     36682 TIP3     8922     TIP3     H2       HT       0.417000       1.00800           0
     36683 TIP3     8923     TIP3     OH2      OT      -0.834000       15.9994           0
     36684 TIP3     8923     TIP3     H1       HT       0.417000       1.00800           0
     36685 TIP3     8923     TIP3     H2       HT       0.417000       1.00800           0
     36686 TIP3     8924     TIP3     OH2      OT      -0.834000       15.9994           0
     36687 TIP3     8924     TIP3     H1       HT       0.417000       1.00800           0
     36688 TIP3     8924     TIP3     H2       HT       0.417000       1.00800           0
     36689 TIP3     8925     TIP3     OH2      OT      -0.834000       15.9994           0
     36690 TIP3     8925     TIP3     H1       HT       0.417000       1.00800           0
     36691 TIP3     8925     TIP3     H2       HT       0.417000       1.00800           0
     36692 TIP3     8926     TIP3     OH2      OT      -0.834000       15.9994           0
     36693 TIP3     8926     TIP3     H1       HT       0.417000       1.00800           0
     36694 TIP3     8926     TIP3     H2       HT       0.417000       1.00800           0
     36695 TIP3     8927     TIP3     OH2      OT      -0.834000       15.9994           0
     36696 TIP3     8927     TIP3     H1       HT       0.417000       1.00800           0
     36697 TIP3     8927     TIP3     H2       HT       0.417000       1.00800           0
     36698 TIP3     8928     TIP3     OH2      OT      -0.834000       15.9994           0
     36699 TIP3     8928     TIP3     H1       HT       0.417000       1.00800           0
     36700 TIP3     8928     TIP3     H2       HT       0.417000       1.00800           0
     36701 TIP3     8929     TIP3     OH2      OT      -0.834000       15.9994           0
     36702 TIP3     8929     TIP3     H1       HT       0.417000       1.00800           0
     36703 TIP3     8929     TIP3     H2       HT       0.417000       1.00800           0
     36704 TIP3     8930     TIP3     OH2      OT      -0.834000       15.9994           0
     36705 TIP3     8930     TIP3     H1       HT       0.417000       1.00800           0
     36706 TIP3     8930     TIP3     H2       HT       0.417000       1.00800           0
     36707 TIP3     8931     TIP3     OH2      OT      -0.834000       15.9994           0
     36708 TIP3     8931     TIP3     H1       HT       0.417000       1.00800           0
     36709 TIP3     8931     TIP3     H2       HT       0.417000       1.00800           0
     36710 TIP3     8932     TIP3     OH2      OT      -0.834000       15.9994           0
     36711 TIP3     8932     TIP3     H1       HT       0.417000       1.00800           0
     36712 TIP3     8932     TIP3     H2       HT       0.417000       1.00800           0
     36713 TIP3     8933     TIP3     OH2      OT      -0.834000       15.9994           0
     36714 TIP3     8933     TIP3     H1       HT       0.417000       1.00800           0
     36715 TIP3     8933     TIP3     H2       HT       0.417000       1.00800           0
     36716 TIP3     8934     TIP3     OH2      OT      -0.834000       15.9994           0
     36717 TIP3     8934     TIP3     H1       HT       0.417000       1.00800           0
     36718 TIP3     8934     TIP3     H2       HT       0.417000       1.00800           0
     36719 TIP3     8935     TIP3     OH2      OT      -0.834000       15.9994           0
     36720 TIP3     8935     TIP3     H1       HT       0.417000       1.00800           0
     36721 TIP3     8935     TIP3     H2       HT       0.417000       1.00800           0
     36722 TIP3     8936     TIP3     OH2      OT      -0.834000       15.9994           0
     36723 TIP3     8936     TIP3     H1       HT       0.417000       1.00800           0
     36724 TIP3     8936     TIP3     H2       HT       0.417000       1.00800           0
     36725 TIP3     8937     TIP3     OH2      OT      -0.834000       15.9994           0
     36726 TIP3     8937     TIP3     H1       HT       0.417000       1.00800           0
     36727 TIP3     8937     TIP3     H2       HT       0.417000       1.00800           0
     36728 TIP3     8938     TIP3     OH2      OT      -0.834000       15.9994           0
     36729 TIP3     8938     TIP3     H1       HT       0.417000       1.00800           0
     36730 TIP3     8938     TIP3     H2       HT       0.417000       1.00800           0
     36731 TIP3     8939     TIP3     OH2      OT      -0.834000       15.9994           0
     36732 TIP3     8939     TIP3     H1       HT       0.417000       1.00800           0
     36733 TIP3     8939     TIP3     H2       HT       0.417000       1.00800           0
     36734 TIP3     8940     TIP3     OH2      OT      -0.834000       15.9994           0
     36735 TIP3     8940     TIP3     H1       HT       0.417000       1.00800           0
     36736 TIP3     8940     TIP3     H2       HT       0.417000       1.00800           0
     36737 TIP3     8941     TIP3     OH2      OT      -0.834000       15.9994           0
     36738 TIP3     8941     TIP3     H1       HT       0.417000       1.00800           0
     36739 TIP3     8941     TIP3     H2       HT       0.417000       1.00800           0
     36740 TIP3     8942     TIP3     OH2      OT      -0.834000       15.9994           0
     36741 TIP3     8942     TIP3     H1       HT       0.417000       1.00800           0
     36742 TIP3     8942     TIP3     H2       HT       0.417000       1.00800           0
     36743 TIP3     8943     TIP3     OH2      OT      -0.834000       15.9994           0
     36744 TIP3     8943     TIP3     H1       HT       0.417000       1.00800           0
     36745 TIP3     8943     TIP3     H2       HT       0.417000       1.00800           0
     36746 TIP3     8944     TIP3     OH2      OT      -0.834000       15.9994           0
     36747 TIP3     8944     TIP3     H1       HT       0.417000       1.00800           0
     36748 TIP3     8944     TIP3     H2       HT       0.417000       1.00800           0
     36749 TIP3     8945     TIP3     OH2      OT      -0.834000       15.9994           0
     36750 TIP3     8945     TIP3     H1       HT       0.417000       1.00800           0
     36751 TIP3     8945     TIP3     H2       HT       0.417000       1.00800           0
     36752 TIP3     8946     TIP3     OH2      OT      -0.834000       15.9994           0
     36753 TIP3     8946     TIP3     H1       HT       0.417000       1.00800           0
     36754 TIP3     8946     TIP3     H2       HT       0.417000       1.00800           0
     36755 TIP3     8947     TIP3     OH2      OT      -0.834000       15.9994           0
     36756 TIP3     8947     TIP3     H1       HT       0.417000       1.00800           0
     36757 TIP3     8947     TIP3     H2       HT       0.417000       1.00800           0
     36758 TIP3     8948     TIP3     OH2      OT      -0.834000       15.9994           0
     36759 TIP3     8948     TIP3     H1       HT       0.417000       1.00800           0
     36760 TIP3     8948     TIP3     H2       HT       0.417000       1.00800           0
     36761 TIP3     8949     TIP3     OH2      OT      -0.834000       15.9994           0
     36762 TIP3     8949     TIP3     H1       HT       0.417000       1.00800           0
     36763 TIP3     8949     TIP3     H2       HT       0.417000       1.00800           0
     36764 TIP3     8950     TIP3     OH2      OT      -0.834000       15.9994           0
     36765 TIP3     8950     TIP3     H1       HT       0.417000       1.00800           0
     36766 TIP3     8950     TIP3     H2       HT       0.417000       1.00800           0
     36767 TIP3     8951     TIP3     OH2      OT      -0.834000       15.9994           0
     36768 TIP3     8951     TIP3     H1       HT       0.417000       1.00800           0
     36769 TIP3     8951     TIP3     H2       HT       0.417000       1.00800           0
     36770 TIP3     8952     TIP3     OH2      OT      -0.834000       15.9994           0
     36771 TIP3     8952     TIP3     H1       HT       0.417000       1.00800           0
     36772 TIP3     8952     TIP3     H2       HT       0.417000       1.00800           0
     36773 TIP3     8953     TIP3     OH2      OT      -0.834000       15.9994           0
     36774 TIP3     8953     TIP3     H1       HT       0.417000       1.00800           0
     36775 TIP3     8953     TIP3     H2       HT       0.417000       1.00800           0
     36776 TIP3     8954     TIP3     OH2      OT      -0.834000       15.9994           0
     36777 TIP3     8954     TIP3     H1       HT       0.417000       1.00800           0
     36778 TIP3     8954     TIP3     H2       HT       0.417000       1.00800           0
     36779 TIP3     8955     TIP3     OH2      OT      -0.834000       15.9994           0
     36780 TIP3     8955     TIP3     H1       HT       0.417000       1.00800           0
     36781 TIP3     8955     TIP3     H2       HT       0.417000       1.00800           0
     36782 TIP3     8956     TIP3     OH2      OT      -0.834000       15.9994           0
     36783 TIP3     8956     TIP3     H1       HT       0.417000       1.00800           0
     36784 TIP3     8956     TIP3     H2       HT       0.417000       1.00800           0
     36785 TIP3     8957     TIP3     OH2      OT      -0.834000       15.9994           0
     36786 TIP3     8957     TIP3     H1       HT       0.417000       1.00800           0
     36787 TIP3     8957     TIP3     H2       HT       0.417000       1.00800           0
     36788 TIP3     8958     TIP3     OH2      OT      -0.834000       15.9994           0
     36789 TIP3     8958     TIP3     H1       HT       0.417000       1.00800           0
     36790 TIP3     8958     TIP3     H2       HT       0.417000       1.00800           0
     36791 TIP3     8959     TIP3     OH2      OT      -0.834000       15.9994           0
     36792 TIP3     8959     TIP3     H1       HT       0.417000       1.00800           0
     36793 TIP3     8959     TIP3     H2       HT       0.417000       1.00800           0
     36794 TIP3     8960     TIP3     OH2      OT      -0.834000       15.9994           0
     36795 TIP3     8960     TIP3     H1       HT       0.417000       1.00800           0
     36796 TIP3     8960     TIP3     H2       HT       0.417000       1.00800           0
     36797 TIP3     8961     TIP3     OH2      OT      -0.834000       15.9994           0
     36798 TIP3     8961     TIP3     H1       HT       0.417000       1.00800           0
     36799 TIP3     8961     TIP3     H2       HT       0.417000       1.00800           0
     36800 TIP3     8962     TIP3     OH2      OT      -0.834000       15.9994           0
     36801 TIP3     8962     TIP3     H1       HT       0.417000       1.00800           0
     36802 TIP3     8962     TIP3     H2       HT       0.417000       1.00800           0
     36803 TIP3     8963     TIP3     OH2      OT      -0.834000       15.9994           0
     36804 TIP3     8963     TIP3     H1       HT       0.417000       1.00800           0
     36805 TIP3     8963     TIP3     H2       HT       0.417000       1.00800           0
     36806 TIP3     8964     TIP3     OH2      OT      -0.834000       15.9994           0
     36807 TIP3     8964     TIP3     H1       HT       0.417000       1.00800           0
     36808 TIP3     8964     TIP3     H2       HT       0.417000       1.00800           0
     36809 TIP3     8965     TIP3     OH2      OT      -0.834000       15.9994           0
     36810 TIP3     8965     TIP3     H1       HT       0.417000       1.00800           0
     36811 TIP3     8965     TIP3     H2       HT       0.417000       1.00800           0
     36812 TIP3     8966     TIP3     OH2      OT      -0.834000       15.9994           0
     36813 TIP3     8966     TIP3     H1       HT       0.417000       1.00800           0
     36814 TIP3     8966     TIP3     H2       HT       0.417000       1.00800           0
     36815 TIP3     8967     TIP3     OH2      OT      -0.834000       15.9994           0
     36816 TIP3     8967     TIP3     H1       HT       0.417000       1.00800           0
     36817 TIP3     8967     TIP3     H2       HT       0.417000       1.00800           0
     36818 TIP3     8968     TIP3     OH2      OT      -0.834000       15.9994           0
     36819 TIP3     8968     TIP3     H1       HT       0.417000       1.00800           0
     36820 TIP3     8968     TIP3     H2       HT       0.417000       1.00800           0
     36821 TIP3     8969     TIP3     OH2      OT      -0.834000       15.9994           0
     36822 TIP3     8969     TIP3     H1       HT       0.417000       1.00800           0
     36823 TIP3     8969     TIP3     H2       HT       0.417000       1.00800           0
     36824 TIP3     8970     TIP3     OH2      OT      -0.834000       15.9994           0
     36825 TIP3     8970     TIP3     H1       HT       0.417000       1.00800           0
     36826 TIP3     8970     TIP3     H2       HT       0.417000       1.00800           0
     36827 TIP3     8971     TIP3     OH2      OT      -0.834000       15.9994           0
     36828 TIP3     8971     TIP3     H1       HT       0.417000       1.00800           0
     36829 TIP3     8971     TIP3     H2       HT       0.417000       1.00800           0
     36830 TIP3     8972     TIP3     OH2      OT      -0.834000       15.9994           0
     36831 TIP3     8972     TIP3     H1       HT       0.417000       1.00800           0
     36832 TIP3     8972     TIP3     H2       HT       0.417000       1.00800           0
     36833 TIP3     8973     TIP3     OH2      OT      -0.834000       15.9994           0
     36834 TIP3     8973     TIP3     H1       HT       0.417000       1.00800           0
     36835 TIP3     8973     TIP3     H2       HT       0.417000       1.00800           0
     36836 TIP3     8974     TIP3     OH2      OT      -0.834000       15.9994           0
     36837 TIP3     8974     TIP3     H1       HT       0.417000       1.00800           0
     36838 TIP3     8974     TIP3     H2       HT       0.417000       1.00800           0
     36839 TIP3     8975     TIP3     OH2      OT      -0.834000       15.9994           0
     36840 TIP3     8975     TIP3     H1       HT       0.417000       1.00800           0
     36841 TIP3     8975     TIP3     H2       HT       0.417000       1.00800           0
     36842 TIP3     8976     TIP3     OH2      OT      -0.834000       15.9994           0
     36843 TIP3     8976     TIP3     H1       HT       0.417000       1.00800           0
     36844 TIP3     8976     TIP3     H2       HT       0.417000       1.00800           0
     36845 TIP3     8977     TIP3     OH2      OT      -0.834000       15.9994           0
     36846 TIP3     8977     TIP3     H1       HT       0.417000       1.00800           0
     36847 TIP3     8977     TIP3     H2       HT       0.417000       1.00800           0
     36848 TIP3     8978     TIP3     OH2      OT      -0.834000       15.9994           0
     36849 TIP3     8978     TIP3     H1       HT       0.417000       1.00800           0
     36850 TIP3     8978     TIP3     H2       HT       0.417000       1.00800           0
     36851 TIP3     8979     TIP3     OH2      OT      -0.834000       15.9994           0
     36852 TIP3     8979     TIP3     H1       HT       0.417000       1.00800           0
     36853 TIP3     8979     TIP3     H2       HT       0.417000       1.00800           0
     36854 TIP3     8980     TIP3     OH2      OT      -0.834000       15.9994           0
     36855 TIP3     8980     TIP3     H1       HT       0.417000       1.00800           0
     36856 TIP3     8980     TIP3     H2       HT       0.417000       1.00800           0
     36857 TIP3     8981     TIP3     OH2      OT      -0.834000       15.9994           0
     36858 TIP3     8981     TIP3     H1       HT       0.417000       1.00800           0
     36859 TIP3     8981     TIP3     H2       HT       0.417000       1.00800           0
     36860 TIP3     8982     TIP3     OH2      OT      -0.834000       15.9994           0
     36861 TIP3     8982     TIP3     H1       HT       0.417000       1.00800           0
     36862 TIP3     8982     TIP3     H2       HT       0.417000       1.00800           0
     36863 TIP3     8983     TIP3     OH2      OT      -0.834000       15.9994           0
     36864 TIP3     8983     TIP3     H1       HT       0.417000       1.00800           0
     36865 TIP3     8983     TIP3     H2       HT       0.417000       1.00800           0
     36866 TIP3     8984     TIP3     OH2      OT      -0.834000       15.9994           0
     36867 TIP3     8984     TIP3     H1       HT       0.417000       1.00800           0
     36868 TIP3     8984     TIP3     H2       HT       0.417000       1.00800           0
     36869 TIP3     8985     TIP3     OH2      OT      -0.834000       15.9994           0
     36870 TIP3     8985     TIP3     H1       HT       0.417000       1.00800           0
     36871 TIP3     8985     TIP3     H2       HT       0.417000       1.00800           0
     36872 TIP3     8986     TIP3     OH2      OT      -0.834000       15.9994           0
     36873 TIP3     8986     TIP3     H1       HT       0.417000       1.00800           0
     36874 TIP3     8986     TIP3     H2       HT       0.417000       1.00800           0
     36875 TIP3     8987     TIP3     OH2      OT      -0.834000       15.9994           0
     36876 TIP3     8987     TIP3     H1       HT       0.417000       1.00800           0
     36877 TIP3     8987     TIP3     H2       HT       0.417000       1.00800           0
     36878 TIP3     8988     TIP3     OH2      OT      -0.834000       15.9994           0
     36879 TIP3     8988     TIP3     H1       HT       0.417000       1.00800           0
     36880 TIP3     8988     TIP3     H2       HT       0.417000       1.00800           0
     36881 TIP3     8989     TIP3     OH2      OT      -0.834000       15.9994           0
     36882 TIP3     8989     TIP3     H1       HT       0.417000       1.00800           0
     36883 TIP3     8989     TIP3     H2       HT       0.417000       1.00800           0
     36884 TIP3     8990     TIP3     OH2      OT      -0.834000       15.9994           0
     36885 TIP3     8990     TIP3     H1       HT       0.417000       1.00800           0
     36886 TIP3     8990     TIP3     H2       HT       0.417000       1.00800           0
     36887 TIP3     8991     TIP3     OH2      OT      -0.834000       15.9994           0
     36888 TIP3     8991     TIP3     H1       HT       0.417000       1.00800           0
     36889 TIP3     8991     TIP3     H2       HT       0.417000       1.00800           0
     36890 TIP3     8992     TIP3     OH2      OT      -0.834000       15.9994           0
     36891 TIP3     8992     TIP3     H1       HT       0.417000       1.00800           0
     36892 TIP3     8992     TIP3     H2       HT       0.417000       1.00800           0
     36893 TIP3     8993     TIP3     OH2      OT      -0.834000       15.9994           0
     36894 TIP3     8993     TIP3     H1       HT       0.417000       1.00800           0
     36895 TIP3     8993     TIP3     H2       HT       0.417000       1.00800           0
     36896 TIP3     8994     TIP3     OH2      OT      -0.834000       15.9994           0
     36897 TIP3     8994     TIP3     H1       HT       0.417000       1.00800           0
     36898 TIP3     8994     TIP3     H2       HT       0.417000       1.00800           0
     36899 TIP3     8995     TIP3     OH2      OT      -0.834000       15.9994           0
     36900 TIP3     8995     TIP3     H1       HT       0.417000       1.00800           0
     36901 TIP3     8995     TIP3     H2       HT       0.417000       1.00800           0
     36902 TIP3     8996     TIP3     OH2      OT      -0.834000       15.9994           0
     36903 TIP3     8996     TIP3     H1       HT       0.417000       1.00800           0
     36904 TIP3     8996     TIP3     H2       HT       0.417000       1.00800           0
     36905 TIP3     8997     TIP3     OH2      OT      -0.834000       15.9994           0
     36906 TIP3     8997     TIP3     H1       HT       0.417000       1.00800           0
     36907 TIP3     8997     TIP3     H2       HT       0.417000       1.00800           0
     36908 TIP3     8998     TIP3     OH2      OT      -0.834000       15.9994           0
     36909 TIP3     8998     TIP3     H1       HT       0.417000       1.00800           0
     36910 TIP3     8998     TIP3     H2       HT       0.417000       1.00800           0
     36911 TIP3     8999     TIP3     OH2      OT      -0.834000       15.9994           0
     36912 TIP3     8999     TIP3     H1       HT       0.417000       1.00800           0
     36913 TIP3     8999     TIP3     H2       HT       0.417000       1.00800           0
     36914 TIP3     9000     TIP3     OH2      OT      -0.834000       15.9994           0
     36915 TIP3     9000     TIP3     H1       HT       0.417000       1.00800           0
     36916 TIP3     9000     TIP3     H2       HT       0.417000       1.00800           0
     36917 TIP3     9001     TIP3     OH2      OT      -0.834000       15.9994           0
     36918 TIP3     9001     TIP3     H1       HT       0.417000       1.00800           0
     36919 TIP3     9001     TIP3     H2       HT       0.417000       1.00800           0
     36920 TIP3     9002     TIP3     OH2      OT      -0.834000       15.9994           0
     36921 TIP3     9002     TIP3     H1       HT       0.417000       1.00800           0
     36922 TIP3     9002     TIP3     H2       HT       0.417000       1.00800           0
     36923 TIP3     9003     TIP3     OH2      OT      -0.834000       15.9994           0
     36924 TIP3     9003     TIP3     H1       HT       0.417000       1.00800           0
     36925 TIP3     9003     TIP3     H2       HT       0.417000       1.00800           0
     36926 TIP3     9004     TIP3     OH2      OT      -0.834000       15.9994           0
     36927 TIP3     9004     TIP3     H1       HT       0.417000       1.00800           0
     36928 TIP3     9004     TIP3     H2       HT       0.417000       1.00800           0
     36929 TIP3     9005     TIP3     OH2      OT      -0.834000       15.9994           0
     36930 TIP3     9005     TIP3     H1       HT       0.417000       1.00800           0
     36931 TIP3     9005     TIP3     H2       HT       0.417000       1.00800           0
     36932 TIP3     9006     TIP3     OH2      OT      -0.834000       15.9994           0
     36933 TIP3     9006     TIP3     H1       HT       0.417000       1.00800           0
     36934 TIP3     9006     TIP3     H2       HT       0.417000       1.00800           0
     36935 TIP3     9007     TIP3     OH2      OT      -0.834000       15.9994           0
     36936 TIP3     9007     TIP3     H1       HT       0.417000       1.00800           0
     36937 TIP3     9007     TIP3     H2       HT       0.417000       1.00800           0
     36938 TIP3     9008     TIP3     OH2      OT      -0.834000       15.9994           0
     36939 TIP3     9008     TIP3     H1       HT       0.417000       1.00800           0
     36940 TIP3     9008     TIP3     H2       HT       0.417000       1.00800           0
     36941 TIP3     9009     TIP3     OH2      OT      -0.834000       15.9994           0
     36942 TIP3     9009     TIP3     H1       HT       0.417000       1.00800           0
     36943 TIP3     9009     TIP3     H2       HT       0.417000       1.00800           0
     36944 TIP3     9010     TIP3     OH2      OT      -0.834000       15.9994           0
     36945 TIP3     9010     TIP3     H1       HT       0.417000       1.00800           0
     36946 TIP3     9010     TIP3     H2       HT       0.417000       1.00800           0
     36947 TIP3     9011     TIP3     OH2      OT      -0.834000       15.9994           0
     36948 TIP3     9011     TIP3     H1       HT       0.417000       1.00800           0
     36949 TIP3     9011     TIP3     H2       HT       0.417000       1.00800           0
     36950 TIP3     9012     TIP3     OH2      OT      -0.834000       15.9994           0
     36951 TIP3     9012     TIP3     H1       HT       0.417000       1.00800           0
     36952 TIP3     9012     TIP3     H2       HT       0.417000       1.00800           0
     36953 TIP3     9013     TIP3     OH2      OT      -0.834000       15.9994           0
     36954 TIP3     9013     TIP3     H1       HT       0.417000       1.00800           0
     36955 TIP3     9013     TIP3     H2       HT       0.417000       1.00800           0
     36956 TIP3     9014     TIP3     OH2      OT      -0.834000       15.9994           0
     36957 TIP3     9014     TIP3     H1       HT       0.417000       1.00800           0
     36958 TIP3     9014     TIP3     H2       HT       0.417000       1.00800           0
     36959 TIP3     9015     TIP3     OH2      OT      -0.834000       15.9994           0
     36960 TIP3     9015     TIP3     H1       HT       0.417000       1.00800           0
     36961 TIP3     9015     TIP3     H2       HT       0.417000       1.00800           0
     36962 TIP3     9016     TIP3     OH2      OT      -0.834000       15.9994           0
     36963 TIP3     9016     TIP3     H1       HT       0.417000       1.00800           0
     36964 TIP3     9016     TIP3     H2       HT       0.417000       1.00800           0
     36965 TIP3     9017     TIP3     OH2      OT      -0.834000       15.9994           0
     36966 TIP3     9017     TIP3     H1       HT       0.417000       1.00800           0
     36967 TIP3     9017     TIP3     H2       HT       0.417000       1.00800           0
     36968 TIP3     9018     TIP3     OH2      OT      -0.834000       15.9994           0
     36969 TIP3     9018     TIP3     H1       HT       0.417000       1.00800           0
     36970 TIP3     9018     TIP3     H2       HT       0.417000       1.00800           0
     36971 TIP3     9019     TIP3     OH2      OT      -0.834000       15.9994           0
     36972 TIP3     9019     TIP3     H1       HT       0.417000       1.00800           0
     36973 TIP3     9019     TIP3     H2       HT       0.417000       1.00800           0
     36974 TIP3     9020     TIP3     OH2      OT      -0.834000       15.9994           0
     36975 TIP3     9020     TIP3     H1       HT       0.417000       1.00800           0
     36976 TIP3     9020     TIP3     H2       HT       0.417000       1.00800           0
     36977 TIP3     9021     TIP3     OH2      OT      -0.834000       15.9994           0
     36978 TIP3     9021     TIP3     H1       HT       0.417000       1.00800           0
     36979 TIP3     9021     TIP3     H2       HT       0.417000       1.00800           0
     36980 TIP3     9022     TIP3     OH2      OT      -0.834000       15.9994           0
     36981 TIP3     9022     TIP3     H1       HT       0.417000       1.00800           0
     36982 TIP3     9022     TIP3     H2       HT       0.417000       1.00800           0
     36983 TIP3     9023     TIP3     OH2      OT      -0.834000       15.9994           0
     36984 TIP3     9023     TIP3     H1       HT       0.417000       1.00800           0
     36985 TIP3     9023     TIP3     H2       HT       0.417000       1.00800           0
     36986 TIP3     9024     TIP3     OH2      OT      -0.834000       15.9994           0
     36987 TIP3     9024     TIP3     H1       HT       0.417000       1.00800           0
     36988 TIP3     9024     TIP3     H2       HT       0.417000       1.00800           0
     36989 TIP3     9025     TIP3     OH2      OT      -0.834000       15.9994           0
     36990 TIP3     9025     TIP3     H1       HT       0.417000       1.00800           0
     36991 TIP3     9025     TIP3     H2       HT       0.417000       1.00800           0
     36992 TIP3     9026     TIP3     OH2      OT      -0.834000       15.9994           0
     36993 TIP3     9026     TIP3     H1       HT       0.417000       1.00800           0
     36994 TIP3     9026     TIP3     H2       HT       0.417000       1.00800           0
     36995 TIP3     9027     TIP3     OH2      OT      -0.834000       15.9994           0
     36996 TIP3     9027     TIP3     H1       HT       0.417000       1.00800           0
     36997 TIP3     9027     TIP3     H2       HT       0.417000       1.00800           0
     36998 TIP3     9028     TIP3     OH2      OT      -0.834000       15.9994           0
     36999 TIP3     9028     TIP3     H1       HT       0.417000       1.00800           0
     37000 TIP3     9028     TIP3     H2       HT       0.417000       1.00800           0
     37001 TIP3     9029     TIP3     OH2      OT      -0.834000       15.9994           0
     37002 TIP3     9029     TIP3     H1       HT       0.417000       1.00800           0
     37003 TIP3     9029     TIP3     H2       HT       0.417000       1.00800           0
     37004 TIP3     9030     TIP3     OH2      OT      -0.834000       15.9994           0
     37005 TIP3     9030     TIP3     H1       HT       0.417000       1.00800           0
     37006 TIP3     9030     TIP3     H2       HT       0.417000       1.00800           0
     37007 TIP3     9031     TIP3     OH2      OT      -0.834000       15.9994           0
     37008 TIP3     9031     TIP3     H1       HT       0.417000       1.00800           0
     37009 TIP3     9031     TIP3     H2       HT       0.417000       1.00800           0
     37010 TIP3     9032     TIP3     OH2      OT      -0.834000       15.9994           0
     37011 TIP3     9032     TIP3     H1       HT       0.417000       1.00800           0
     37012 TIP3     9032     TIP3     H2       HT       0.417000       1.00800           0
     37013 TIP3     9033     TIP3     OH2      OT      -0.834000       15.9994           0
     37014 TIP3     9033     TIP3     H1       HT       0.417000       1.00800           0
     37015 TIP3     9033     TIP3     H2       HT       0.417000       1.00800           0
     37016 TIP3     9034     TIP3     OH2      OT      -0.834000       15.9994           0
     37017 TIP3     9034     TIP3     H1       HT       0.417000       1.00800           0
     37018 TIP3     9034     TIP3     H2       HT       0.417000       1.00800           0
     37019 TIP3     9035     TIP3     OH2      OT      -0.834000       15.9994           0
     37020 TIP3     9035     TIP3     H1       HT       0.417000       1.00800           0
     37021 TIP3     9035     TIP3     H2       HT       0.417000       1.00800           0
     37022 TIP3     9036     TIP3     OH2      OT      -0.834000       15.9994           0
     37023 TIP3     9036     TIP3     H1       HT       0.417000       1.00800           0
     37024 TIP3     9036     TIP3     H2       HT       0.417000       1.00800           0
     37025 TIP3     9037     TIP3     OH2      OT      -0.834000       15.9994           0
     37026 TIP3     9037     TIP3     H1       HT       0.417000       1.00800           0
     37027 TIP3     9037     TIP3     H2       HT       0.417000       1.00800           0
     37028 TIP3     9038     TIP3     OH2      OT      -0.834000       15.9994           0
     37029 TIP3     9038     TIP3     H1       HT       0.417000       1.00800           0
     37030 TIP3     9038     TIP3     H2       HT       0.417000       1.00800           0
     37031 TIP3     9039     TIP3     OH2      OT      -0.834000       15.9994           0
     37032 TIP3     9039     TIP3     H1       HT       0.417000       1.00800           0
     37033 TIP3     9039     TIP3     H2       HT       0.417000       1.00800           0
     37034 TIP3     9040     TIP3     OH2      OT      -0.834000       15.9994           0
     37035 TIP3     9040     TIP3     H1       HT       0.417000       1.00800           0
     37036 TIP3     9040     TIP3     H2       HT       0.417000       1.00800           0
     37037 TIP3     9041     TIP3     OH2      OT      -0.834000       15.9994           0
     37038 TIP3     9041     TIP3     H1       HT       0.417000       1.00800           0
     37039 TIP3     9041     TIP3     H2       HT       0.417000       1.00800           0
     37040 TIP3     9042     TIP3     OH2      OT      -0.834000       15.9994           0
     37041 TIP3     9042     TIP3     H1       HT       0.417000       1.00800           0
     37042 TIP3     9042     TIP3     H2       HT       0.417000       1.00800           0
     37043 TIP3     9043     TIP3     OH2      OT      -0.834000       15.9994           0
     37044 TIP3     9043     TIP3     H1       HT       0.417000       1.00800           0
     37045 TIP3     9043     TIP3     H2       HT       0.417000       1.00800           0
     37046 TIP3     9044     TIP3     OH2      OT      -0.834000       15.9994           0
     37047 TIP3     9044     TIP3     H1       HT       0.417000       1.00800           0
     37048 TIP3     9044     TIP3     H2       HT       0.417000       1.00800           0
     37049 TIP3     9045     TIP3     OH2      OT      -0.834000       15.9994           0
     37050 TIP3     9045     TIP3     H1       HT       0.417000       1.00800           0
     37051 TIP3     9045     TIP3     H2       HT       0.417000       1.00800           0
     37052 TIP3     9046     TIP3     OH2      OT      -0.834000       15.9994           0
     37053 TIP3     9046     TIP3     H1       HT       0.417000       1.00800           0
     37054 TIP3     9046     TIP3     H2       HT       0.417000       1.00800           0
     37055 TIP3     9047     TIP3     OH2      OT      -0.834000       15.9994           0
     37056 TIP3     9047     TIP3     H1       HT       0.417000       1.00800           0
     37057 TIP3     9047     TIP3     H2       HT       0.417000       1.00800           0
     37058 TIP3     9048     TIP3     OH2      OT      -0.834000       15.9994           0
     37059 TIP3     9048     TIP3     H1       HT       0.417000       1.00800           0
     37060 TIP3     9048     TIP3     H2       HT       0.417000       1.00800           0
     37061 TIP3     9049     TIP3     OH2      OT      -0.834000       15.9994           0
     37062 TIP3     9049     TIP3     H1       HT       0.417000       1.00800           0
     37063 TIP3     9049     TIP3     H2       HT       0.417000       1.00800           0
     37064 TIP3     9050     TIP3     OH2      OT      -0.834000       15.9994           0
     37065 TIP3     9050     TIP3     H1       HT       0.417000       1.00800           0
     37066 TIP3     9050     TIP3     H2       HT       0.417000       1.00800           0
     37067 TIP3     9051     TIP3     OH2      OT      -0.834000       15.9994           0
     37068 TIP3     9051     TIP3     H1       HT       0.417000       1.00800           0
     37069 TIP3     9051     TIP3     H2       HT       0.417000       1.00800           0
     37070 TIP3     9052     TIP3     OH2      OT      -0.834000       15.9994           0
     37071 TIP3     9052     TIP3     H1       HT       0.417000       1.00800           0
     37072 TIP3     9052     TIP3     H2       HT       0.417000       1.00800           0
     37073 TIP3     9053     TIP3     OH2      OT      -0.834000       15.9994           0
     37074 TIP3     9053     TIP3     H1       HT       0.417000       1.00800           0
     37075 TIP3     9053     TIP3     H2       HT       0.417000       1.00800           0
     37076 TIP3     9054     TIP3     OH2      OT      -0.834000       15.9994           0
     37077 TIP3     9054     TIP3     H1       HT       0.417000       1.00800           0
     37078 TIP3     9054     TIP3     H2       HT       0.417000       1.00800           0
     37079 TIP3     9055     TIP3     OH2      OT      -0.834000       15.9994           0
     37080 TIP3     9055     TIP3     H1       HT       0.417000       1.00800           0
     37081 TIP3     9055     TIP3     H2       HT       0.417000       1.00800           0
     37082 TIP3     9056     TIP3     OH2      OT      -0.834000       15.9994           0
     37083 TIP3     9056     TIP3     H1       HT       0.417000       1.00800           0
     37084 TIP3     9056     TIP3     H2       HT       0.417000       1.00800           0
     37085 TIP3     9057     TIP3     OH2      OT      -0.834000       15.9994           0
     37086 TIP3     9057     TIP3     H1       HT       0.417000       1.00800           0
     37087 TIP3     9057     TIP3     H2       HT       0.417000       1.00800           0
     37088 TIP3     9058     TIP3     OH2      OT      -0.834000       15.9994           0
     37089 TIP3     9058     TIP3     H1       HT       0.417000       1.00800           0
     37090 TIP3     9058     TIP3     H2       HT       0.417000       1.00800           0
     37091 TIP3     9059     TIP3     OH2      OT      -0.834000       15.9994           0
     37092 TIP3     9059     TIP3     H1       HT       0.417000       1.00800           0
     37093 TIP3     9059     TIP3     H2       HT       0.417000       1.00800           0
     37094 TIP3     9060     TIP3     OH2      OT      -0.834000       15.9994           0
     37095 TIP3     9060     TIP3     H1       HT       0.417000       1.00800           0
     37096 TIP3     9060     TIP3     H2       HT       0.417000       1.00800           0
     37097 TIP3     9061     TIP3     OH2      OT      -0.834000       15.9994           0
     37098 TIP3     9061     TIP3     H1       HT       0.417000       1.00800           0
     37099 TIP3     9061     TIP3     H2       HT       0.417000       1.00800           0
     37100 TIP3     9062     TIP3     OH2      OT      -0.834000       15.9994           0
     37101 TIP3     9062     TIP3     H1       HT       0.417000       1.00800           0
     37102 TIP3     9062     TIP3     H2       HT       0.417000       1.00800           0
     37103 TIP3     9063     TIP3     OH2      OT      -0.834000       15.9994           0
     37104 TIP3     9063     TIP3     H1       HT       0.417000       1.00800           0
     37105 TIP3     9063     TIP3     H2       HT       0.417000       1.00800           0
     37106 TIP3     9064     TIP3     OH2      OT      -0.834000       15.9994           0
     37107 TIP3     9064     TIP3     H1       HT       0.417000       1.00800           0
     37108 TIP3     9064     TIP3     H2       HT       0.417000       1.00800           0
     37109 TIP3     9065     TIP3     OH2      OT      -0.834000       15.9994           0
     37110 TIP3     9065     TIP3     H1       HT       0.417000       1.00800           0
     37111 TIP3     9065     TIP3     H2       HT       0.417000       1.00800           0
     37112 TIP3     9066     TIP3     OH2      OT      -0.834000       15.9994           0
     37113 TIP3     9066     TIP3     H1       HT       0.417000       1.00800           0
     37114 TIP3     9066     TIP3     H2       HT       0.417000       1.00800           0
     37115 TIP3     9067     TIP3     OH2      OT      -0.834000       15.9994           0
     37116 TIP3     9067     TIP3     H1       HT       0.417000       1.00800           0
     37117 TIP3     9067     TIP3     H2       HT       0.417000       1.00800           0
     37118 TIP3     9068     TIP3     OH2      OT      -0.834000       15.9994           0
     37119 TIP3     9068     TIP3     H1       HT       0.417000       1.00800           0
     37120 TIP3     9068     TIP3     H2       HT       0.417000       1.00800           0
     37121 TIP3     9069     TIP3     OH2      OT      -0.834000       15.9994           0
     37122 TIP3     9069     TIP3     H1       HT       0.417000       1.00800           0
     37123 TIP3     9069     TIP3     H2       HT       0.417000       1.00800           0
     37124 TIP3     9070     TIP3     OH2      OT      -0.834000       15.9994           0
     37125 TIP3     9070     TIP3     H1       HT       0.417000       1.00800           0
     37126 TIP3     9070     TIP3     H2       HT       0.417000       1.00800           0
     37127 TIP3     9071     TIP3     OH2      OT      -0.834000       15.9994           0
     37128 TIP3     9071     TIP3     H1       HT       0.417000       1.00800           0
     37129 TIP3     9071     TIP3     H2       HT       0.417000       1.00800           0
     37130 TIP3     9072     TIP3     OH2      OT      -0.834000       15.9994           0
     37131 TIP3     9072     TIP3     H1       HT       0.417000       1.00800           0
     37132 TIP3     9072     TIP3     H2       HT       0.417000       1.00800           0
     37133 TIP3     9073     TIP3     OH2      OT      -0.834000       15.9994           0
     37134 TIP3     9073     TIP3     H1       HT       0.417000       1.00800           0
     37135 TIP3     9073     TIP3     H2       HT       0.417000       1.00800           0
     37136 TIP3     9074     TIP3     OH2      OT      -0.834000       15.9994           0
     37137 TIP3     9074     TIP3     H1       HT       0.417000       1.00800           0
     37138 TIP3     9074     TIP3     H2       HT       0.417000       1.00800           0
     37139 TIP3     9075     TIP3     OH2      OT      -0.834000       15.9994           0
     37140 TIP3     9075     TIP3     H1       HT       0.417000       1.00800           0
     37141 TIP3     9075     TIP3     H2       HT       0.417000       1.00800           0
     37142 TIP3     9076     TIP3     OH2      OT      -0.834000       15.9994           0
     37143 TIP3     9076     TIP3     H1       HT       0.417000       1.00800           0
     37144 TIP3     9076     TIP3     H2       HT       0.417000       1.00800           0
     37145 TIP3     9077     TIP3     OH2      OT      -0.834000       15.9994           0
     37146 TIP3     9077     TIP3     H1       HT       0.417000       1.00800           0
     37147 TIP3     9077     TIP3     H2       HT       0.417000       1.00800           0
     37148 TIP3     9078     TIP3     OH2      OT      -0.834000       15.9994           0
     37149 TIP3     9078     TIP3     H1       HT       0.417000       1.00800           0
     37150 TIP3     9078     TIP3     H2       HT       0.417000       1.00800           0
     37151 TIP3     9079     TIP3     OH2      OT      -0.834000       15.9994           0
     37152 TIP3     9079     TIP3     H1       HT       0.417000       1.00800           0
     37153 TIP3     9079     TIP3     H2       HT       0.417000       1.00800           0
     37154 TIP3     9080     TIP3     OH2      OT      -0.834000       15.9994           0
     37155 TIP3     9080     TIP3     H1       HT       0.417000       1.00800           0
     37156 TIP3     9080     TIP3     H2       HT       0.417000       1.00800           0
     37157 TIP3     9081     TIP3     OH2      OT      -0.834000       15.9994           0
     37158 TIP3     9081     TIP3     H1       HT       0.417000       1.00800           0
     37159 TIP3     9081     TIP3     H2       HT       0.417000       1.00800           0
     37160 TIP3     9082     TIP3     OH2      OT      -0.834000       15.9994           0
     37161 TIP3     9082     TIP3     H1       HT       0.417000       1.00800           0
     37162 TIP3     9082     TIP3     H2       HT       0.417000       1.00800           0
     37163 TIP3     9083     TIP3     OH2      OT      -0.834000       15.9994           0
     37164 TIP3     9083     TIP3     H1       HT       0.417000       1.00800           0
     37165 TIP3     9083     TIP3     H2       HT       0.417000       1.00800           0
     37166 TIP3     9084     TIP3     OH2      OT      -0.834000       15.9994           0
     37167 TIP3     9084     TIP3     H1       HT       0.417000       1.00800           0
     37168 TIP3     9084     TIP3     H2       HT       0.417000       1.00800           0
     37169 TIP3     9085     TIP3     OH2      OT      -0.834000       15.9994           0
     37170 TIP3     9085     TIP3     H1       HT       0.417000       1.00800           0
     37171 TIP3     9085     TIP3     H2       HT       0.417000       1.00800           0
     37172 TIP3     9086     TIP3     OH2      OT      -0.834000       15.9994           0
     37173 TIP3     9086     TIP3     H1       HT       0.417000       1.00800           0
     37174 TIP3     9086     TIP3     H2       HT       0.417000       1.00800           0
     37175 TIP3     9087     TIP3     OH2      OT      -0.834000       15.9994           0
     37176 TIP3     9087     TIP3     H1       HT       0.417000       1.00800           0
     37177 TIP3     9087     TIP3     H2       HT       0.417000       1.00800           0
     37178 TIP3     9088     TIP3     OH2      OT      -0.834000       15.9994           0
     37179 TIP3     9088     TIP3     H1       HT       0.417000       1.00800           0
     37180 TIP3     9088     TIP3     H2       HT       0.417000       1.00800           0
     37181 TIP3     9089     TIP3     OH2      OT      -0.834000       15.9994           0
     37182 TIP3     9089     TIP3     H1       HT       0.417000       1.00800           0
     37183 TIP3     9089     TIP3     H2       HT       0.417000       1.00800           0
     37184 TIP3     9090     TIP3     OH2      OT      -0.834000       15.9994           0
     37185 TIP3     9090     TIP3     H1       HT       0.417000       1.00800           0
     37186 TIP3     9090     TIP3     H2       HT       0.417000       1.00800           0
     37187 TIP3     9091     TIP3     OH2      OT      -0.834000       15.9994           0
     37188 TIP3     9091     TIP3     H1       HT       0.417000       1.00800           0
     37189 TIP3     9091     TIP3     H2       HT       0.417000       1.00800           0
     37190 TIP3     9092     TIP3     OH2      OT      -0.834000       15.9994           0
     37191 TIP3     9092     TIP3     H1       HT       0.417000       1.00800           0
     37192 TIP3     9092     TIP3     H2       HT       0.417000       1.00800           0
     37193 TIP3     9093     TIP3     OH2      OT      -0.834000       15.9994           0
     37194 TIP3     9093     TIP3     H1       HT       0.417000       1.00800           0
     37195 TIP3     9093     TIP3     H2       HT       0.417000       1.00800           0
     37196 TIP3     9094     TIP3     OH2      OT      -0.834000       15.9994           0
     37197 TIP3     9094     TIP3     H1       HT       0.417000       1.00800           0
     37198 TIP3     9094     TIP3     H2       HT       0.417000       1.00800           0
     37199 TIP3     9095     TIP3     OH2      OT      -0.834000       15.9994           0
     37200 TIP3     9095     TIP3     H1       HT       0.417000       1.00800           0
     37201 TIP3     9095     TIP3     H2       HT       0.417000       1.00800           0
     37202 TIP3     9096     TIP3     OH2      OT      -0.834000       15.9994           0
     37203 TIP3     9096     TIP3     H1       HT       0.417000       1.00800           0
     37204 TIP3     9096     TIP3     H2       HT       0.417000       1.00800           0
     37205 TIP3     9097     TIP3     OH2      OT      -0.834000       15.9994           0
     37206 TIP3     9097     TIP3     H1       HT       0.417000       1.00800           0
     37207 TIP3     9097     TIP3     H2       HT       0.417000       1.00800           0
     37208 TIP3     9098     TIP3     OH2      OT      -0.834000       15.9994           0
     37209 TIP3     9098     TIP3     H1       HT       0.417000       1.00800           0
     37210 TIP3     9098     TIP3     H2       HT       0.417000       1.00800           0
     37211 TIP3     9099     TIP3     OH2      OT      -0.834000       15.9994           0
     37212 TIP3     9099     TIP3     H1       HT       0.417000       1.00800           0
     37213 TIP3     9099     TIP3     H2       HT       0.417000       1.00800           0
     37214 TIP3     9100     TIP3     OH2      OT      -0.834000       15.9994           0
     37215 TIP3     9100     TIP3     H1       HT       0.417000       1.00800           0
     37216 TIP3     9100     TIP3     H2       HT       0.417000       1.00800           0
     37217 TIP3     9101     TIP3     OH2      OT      -0.834000       15.9994           0
     37218 TIP3     9101     TIP3     H1       HT       0.417000       1.00800           0
     37219 TIP3     9101     TIP3     H2       HT       0.417000       1.00800           0
     37220 TIP3     9102     TIP3     OH2      OT      -0.834000       15.9994           0
     37221 TIP3     9102     TIP3     H1       HT       0.417000       1.00800           0
     37222 TIP3     9102     TIP3     H2       HT       0.417000       1.00800           0
     37223 TIP3     9103     TIP3     OH2      OT      -0.834000       15.9994           0
     37224 TIP3     9103     TIP3     H1       HT       0.417000       1.00800           0
     37225 TIP3     9103     TIP3     H2       HT       0.417000       1.00800           0
     37226 TIP3     9104     TIP3     OH2      OT      -0.834000       15.9994           0
     37227 TIP3     9104     TIP3     H1       HT       0.417000       1.00800           0
     37228 TIP3     9104     TIP3     H2       HT       0.417000       1.00800           0
     37229 TIP3     9105     TIP3     OH2      OT      -0.834000       15.9994           0
     37230 TIP3     9105     TIP3     H1       HT       0.417000       1.00800           0
     37231 TIP3     9105     TIP3     H2       HT       0.417000       1.00800           0
     37232 TIP3     9106     TIP3     OH2      OT      -0.834000       15.9994           0
     37233 TIP3     9106     TIP3     H1       HT       0.417000       1.00800           0
     37234 TIP3     9106     TIP3     H2       HT       0.417000       1.00800           0
     37235 TIP3     9107     TIP3     OH2      OT      -0.834000       15.9994           0
     37236 TIP3     9107     TIP3     H1       HT       0.417000       1.00800           0
     37237 TIP3     9107     TIP3     H2       HT       0.417000       1.00800           0
     37238 TIP3     9108     TIP3     OH2      OT      -0.834000       15.9994           0
     37239 TIP3     9108     TIP3     H1       HT       0.417000       1.00800           0
     37240 TIP3     9108     TIP3     H2       HT       0.417000       1.00800           0
     37241 TIP3     9109     TIP3     OH2      OT      -0.834000       15.9994           0
     37242 TIP3     9109     TIP3     H1       HT       0.417000       1.00800           0
     37243 TIP3     9109     TIP3     H2       HT       0.417000       1.00800           0
     37244 TIP3     9110     TIP3     OH2      OT      -0.834000       15.9994           0
     37245 TIP3     9110     TIP3     H1       HT       0.417000       1.00800           0
     37246 TIP3     9110     TIP3     H2       HT       0.417000       1.00800           0
     37247 TIP3     9111     TIP3     OH2      OT      -0.834000       15.9994           0
     37248 TIP3     9111     TIP3     H1       HT       0.417000       1.00800           0
     37249 TIP3     9111     TIP3     H2       HT       0.417000       1.00800           0
     37250 TIP3     9112     TIP3     OH2      OT      -0.834000       15.9994           0
     37251 TIP3     9112     TIP3     H1       HT       0.417000       1.00800           0
     37252 TIP3     9112     TIP3     H2       HT       0.417000       1.00800           0
     37253 TIP3     9113     TIP3     OH2      OT      -0.834000       15.9994           0
     37254 TIP3     9113     TIP3     H1       HT       0.417000       1.00800           0
     37255 TIP3     9113     TIP3     H2       HT       0.417000       1.00800           0
     37256 TIP3     9114     TIP3     OH2      OT      -0.834000       15.9994           0
     37257 TIP3     9114     TIP3     H1       HT       0.417000       1.00800           0
     37258 TIP3     9114     TIP3     H2       HT       0.417000       1.00800           0
     37259 TIP3     9115     TIP3     OH2      OT      -0.834000       15.9994           0
     37260 TIP3     9115     TIP3     H1       HT       0.417000       1.00800           0
     37261 TIP3     9115     TIP3     H2       HT       0.417000       1.00800           0
     37262 TIP3     9116     TIP3     OH2      OT      -0.834000       15.9994           0
     37263 TIP3     9116     TIP3     H1       HT       0.417000       1.00800           0
     37264 TIP3     9116     TIP3     H2       HT       0.417000       1.00800           0
     37265 TIP3     9117     TIP3     OH2      OT      -0.834000       15.9994           0
     37266 TIP3     9117     TIP3     H1       HT       0.417000       1.00800           0
     37267 TIP3     9117     TIP3     H2       HT       0.417000       1.00800           0
     37268 TIP3     9118     TIP3     OH2      OT      -0.834000       15.9994           0
     37269 TIP3     9118     TIP3     H1       HT       0.417000       1.00800           0
     37270 TIP3     9118     TIP3     H2       HT       0.417000       1.00800           0
     37271 TIP3     9119     TIP3     OH2      OT      -0.834000       15.9994           0
     37272 TIP3     9119     TIP3     H1       HT       0.417000       1.00800           0
     37273 TIP3     9119     TIP3     H2       HT       0.417000       1.00800           0
     37274 TIP3     9120     TIP3     OH2      OT      -0.834000       15.9994           0
     37275 TIP3     9120     TIP3     H1       HT       0.417000       1.00800           0
     37276 TIP3     9120     TIP3     H2       HT       0.417000       1.00800           0
     37277 TIP3     9121     TIP3     OH2      OT      -0.834000       15.9994           0
     37278 TIP3     9121     TIP3     H1       HT       0.417000       1.00800           0
     37279 TIP3     9121     TIP3     H2       HT       0.417000       1.00800           0
     37280 TIP3     9122     TIP3     OH2      OT      -0.834000       15.9994           0
     37281 TIP3     9122     TIP3     H1       HT       0.417000       1.00800           0
     37282 TIP3     9122     TIP3     H2       HT       0.417000       1.00800           0
     37283 TIP3     9123     TIP3     OH2      OT      -0.834000       15.9994           0
     37284 TIP3     9123     TIP3     H1       HT       0.417000       1.00800           0
     37285 TIP3     9123     TIP3     H2       HT       0.417000       1.00800           0
     37286 TIP3     9124     TIP3     OH2      OT      -0.834000       15.9994           0
     37287 TIP3     9124     TIP3     H1       HT       0.417000       1.00800           0
     37288 TIP3     9124     TIP3     H2       HT       0.417000       1.00800           0
     37289 TIP3     9125     TIP3     OH2      OT      -0.834000       15.9994           0
     37290 TIP3     9125     TIP3     H1       HT       0.417000       1.00800           0
     37291 TIP3     9125     TIP3     H2       HT       0.417000       1.00800           0
     37292 TIP3     9126     TIP3     OH2      OT      -0.834000       15.9994           0
     37293 TIP3     9126     TIP3     H1       HT       0.417000       1.00800           0
     37294 TIP3     9126     TIP3     H2       HT       0.417000       1.00800           0
     37295 TIP3     9127     TIP3     OH2      OT      -0.834000       15.9994           0
     37296 TIP3     9127     TIP3     H1       HT       0.417000       1.00800           0
     37297 TIP3     9127     TIP3     H2       HT       0.417000       1.00800           0
     37298 TIP3     9128     TIP3     OH2      OT      -0.834000       15.9994           0
     37299 TIP3     9128     TIP3     H1       HT       0.417000       1.00800           0
     37300 TIP3     9128     TIP3     H2       HT       0.417000       1.00800           0
     37301 TIP3     9129     TIP3     OH2      OT      -0.834000       15.9994           0
     37302 TIP3     9129     TIP3     H1       HT       0.417000       1.00800           0
     37303 TIP3     9129     TIP3     H2       HT       0.417000       1.00800           0
     37304 TIP3     9130     TIP3     OH2      OT      -0.834000       15.9994           0
     37305 TIP3     9130     TIP3     H1       HT       0.417000       1.00800           0
     37306 TIP3     9130     TIP3     H2       HT       0.417000       1.00800           0
     37307 TIP3     9131     TIP3     OH2      OT      -0.834000       15.9994           0
     37308 TIP3     9131     TIP3     H1       HT       0.417000       1.00800           0
     37309 TIP3     9131     TIP3     H2       HT       0.417000       1.00800           0
     37310 TIP3     9132     TIP3     OH2      OT      -0.834000       15.9994           0
     37311 TIP3     9132     TIP3     H1       HT       0.417000       1.00800           0
     37312 TIP3     9132     TIP3     H2       HT       0.417000       1.00800           0
     37313 TIP3     9133     TIP3     OH2      OT      -0.834000       15.9994           0
     37314 TIP3     9133     TIP3     H1       HT       0.417000       1.00800           0
     37315 TIP3     9133     TIP3     H2       HT       0.417000       1.00800           0
     37316 TIP3     9134     TIP3     OH2      OT      -0.834000       15.9994           0
     37317 TIP3     9134     TIP3     H1       HT       0.417000       1.00800           0
     37318 TIP3     9134     TIP3     H2       HT       0.417000       1.00800           0
     37319 TIP3     9135     TIP3     OH2      OT      -0.834000       15.9994           0
     37320 TIP3     9135     TIP3     H1       HT       0.417000       1.00800           0
     37321 TIP3     9135     TIP3     H2       HT       0.417000       1.00800           0
     37322 TIP3     9136     TIP3     OH2      OT      -0.834000       15.9994           0
     37323 TIP3     9136     TIP3     H1       HT       0.417000       1.00800           0
     37324 TIP3     9136     TIP3     H2       HT       0.417000       1.00800           0
     37325 TIP3     9137     TIP3     OH2      OT      -0.834000       15.9994           0
     37326 TIP3     9137     TIP3     H1       HT       0.417000       1.00800           0
     37327 TIP3     9137     TIP3     H2       HT       0.417000       1.00800           0
     37328 TIP3     9138     TIP3     OH2      OT      -0.834000       15.9994           0
     37329 TIP3     9138     TIP3     H1       HT       0.417000       1.00800           0
     37330 TIP3     9138     TIP3     H2       HT       0.417000       1.00800           0
     37331 TIP3     9139     TIP3     OH2      OT      -0.834000       15.9994           0
     37332 TIP3     9139     TIP3     H1       HT       0.417000       1.00800           0
     37333 TIP3     9139     TIP3     H2       HT       0.417000       1.00800           0
     37334 TIP3     9140     TIP3     OH2      OT      -0.834000       15.9994           0
     37335 TIP3     9140     TIP3     H1       HT       0.417000       1.00800           0
     37336 TIP3     9140     TIP3     H2       HT       0.417000       1.00800           0
     37337 TIP3     9141     TIP3     OH2      OT      -0.834000       15.9994           0
     37338 TIP3     9141     TIP3     H1       HT       0.417000       1.00800           0
     37339 TIP3     9141     TIP3     H2       HT       0.417000       1.00800           0
     37340 TIP3     9142     TIP3     OH2      OT      -0.834000       15.9994           0
     37341 TIP3     9142     TIP3     H1       HT       0.417000       1.00800           0
     37342 TIP3     9142     TIP3     H2       HT       0.417000       1.00800           0
     37343 TIP3     9143     TIP3     OH2      OT      -0.834000       15.9994           0
     37344 TIP3     9143     TIP3     H1       HT       0.417000       1.00800           0
     37345 TIP3     9143     TIP3     H2       HT       0.417000       1.00800           0
     37346 TIP3     9144     TIP3     OH2      OT      -0.834000       15.9994           0
     37347 TIP3     9144     TIP3     H1       HT       0.417000       1.00800           0
     37348 TIP3     9144     TIP3     H2       HT       0.417000       1.00800           0
     37349 TIP3     9145     TIP3     OH2      OT      -0.834000       15.9994           0
     37350 TIP3     9145     TIP3     H1       HT       0.417000       1.00800           0
     37351 TIP3     9145     TIP3     H2       HT       0.417000       1.00800           0
     37352 TIP3     9146     TIP3     OH2      OT      -0.834000       15.9994           0
     37353 TIP3     9146     TIP3     H1       HT       0.417000       1.00800           0
     37354 TIP3     9146     TIP3     H2       HT       0.417000       1.00800           0
     37355 TIP3     9147     TIP3     OH2      OT      -0.834000       15.9994           0
     37356 TIP3     9147     TIP3     H1       HT       0.417000       1.00800           0
     37357 TIP3     9147     TIP3     H2       HT       0.417000       1.00800           0
     37358 TIP3     9148     TIP3     OH2      OT      -0.834000       15.9994           0
     37359 TIP3     9148     TIP3     H1       HT       0.417000       1.00800           0
     37360 TIP3     9148     TIP3     H2       HT       0.417000       1.00800           0
     37361 TIP3     9149     TIP3     OH2      OT      -0.834000       15.9994           0
     37362 TIP3     9149     TIP3     H1       HT       0.417000       1.00800           0
     37363 TIP3     9149     TIP3     H2       HT       0.417000       1.00800           0
     37364 TIP3     9150     TIP3     OH2      OT      -0.834000       15.9994           0
     37365 TIP3     9150     TIP3     H1       HT       0.417000       1.00800           0
     37366 TIP3     9150     TIP3     H2       HT       0.417000       1.00800           0
     37367 TIP3     9151     TIP3     OH2      OT      -0.834000       15.9994           0
     37368 TIP3     9151     TIP3     H1       HT       0.417000       1.00800           0
     37369 TIP3     9151     TIP3     H2       HT       0.417000       1.00800           0
     37370 TIP3     9152     TIP3     OH2      OT      -0.834000       15.9994           0
     37371 TIP3     9152     TIP3     H1       HT       0.417000       1.00800           0
     37372 TIP3     9152     TIP3     H2       HT       0.417000       1.00800           0
     37373 TIP3     9153     TIP3     OH2      OT      -0.834000       15.9994           0
     37374 TIP3     9153     TIP3     H1       HT       0.417000       1.00800           0
     37375 TIP3     9153     TIP3     H2       HT       0.417000       1.00800           0
     37376 TIP3     9154     TIP3     OH2      OT      -0.834000       15.9994           0
     37377 TIP3     9154     TIP3     H1       HT       0.417000       1.00800           0
     37378 TIP3     9154     TIP3     H2       HT       0.417000       1.00800           0
     37379 TIP3     9155     TIP3     OH2      OT      -0.834000       15.9994           0
     37380 TIP3     9155     TIP3     H1       HT       0.417000       1.00800           0
     37381 TIP3     9155     TIP3     H2       HT       0.417000       1.00800           0
     37382 TIP3     9156     TIP3     OH2      OT      -0.834000       15.9994           0
     37383 TIP3     9156     TIP3     H1       HT       0.417000       1.00800           0
     37384 TIP3     9156     TIP3     H2       HT       0.417000       1.00800           0
     37385 TIP3     9157     TIP3     OH2      OT      -0.834000       15.9994           0
     37386 TIP3     9157     TIP3     H1       HT       0.417000       1.00800           0
     37387 TIP3     9157     TIP3     H2       HT       0.417000       1.00800           0
     37388 TIP3     9158     TIP3     OH2      OT      -0.834000       15.9994           0
     37389 TIP3     9158     TIP3     H1       HT       0.417000       1.00800           0
     37390 TIP3     9158     TIP3     H2       HT       0.417000       1.00800           0
     37391 TIP3     9159     TIP3     OH2      OT      -0.834000       15.9994           0
     37392 TIP3     9159     TIP3     H1       HT       0.417000       1.00800           0
     37393 TIP3     9159     TIP3     H2       HT       0.417000       1.00800           0
     37394 TIP3     9160     TIP3     OH2      OT      -0.834000       15.9994           0
     37395 TIP3     9160     TIP3     H1       HT       0.417000       1.00800           0
     37396 TIP3     9160     TIP3     H2       HT       0.417000       1.00800           0
     37397 TIP3     9161     TIP3     OH2      OT      -0.834000       15.9994           0
     37398 TIP3     9161     TIP3     H1       HT       0.417000       1.00800           0
     37399 TIP3     9161     TIP3     H2       HT       0.417000       1.00800           0
     37400 TIP3     9162     TIP3     OH2      OT      -0.834000       15.9994           0
     37401 TIP3     9162     TIP3     H1       HT       0.417000       1.00800           0
     37402 TIP3     9162     TIP3     H2       HT       0.417000       1.00800           0
     37403 TIP3     9163     TIP3     OH2      OT      -0.834000       15.9994           0
     37404 TIP3     9163     TIP3     H1       HT       0.417000       1.00800           0
     37405 TIP3     9163     TIP3     H2       HT       0.417000       1.00800           0
     37406 TIP3     9164     TIP3     OH2      OT      -0.834000       15.9994           0
     37407 TIP3     9164     TIP3     H1       HT       0.417000       1.00800           0
     37408 TIP3     9164     TIP3     H2       HT       0.417000       1.00800           0
     37409 TIP3     9165     TIP3     OH2      OT      -0.834000       15.9994           0
     37410 TIP3     9165     TIP3     H1       HT       0.417000       1.00800           0
     37411 TIP3     9165     TIP3     H2       HT       0.417000       1.00800           0
     37412 TIP3     9166     TIP3     OH2      OT      -0.834000       15.9994           0
     37413 TIP3     9166     TIP3     H1       HT       0.417000       1.00800           0
     37414 TIP3     9166     TIP3     H2       HT       0.417000       1.00800           0
     37415 TIP3     9167     TIP3     OH2      OT      -0.834000       15.9994           0
     37416 TIP3     9167     TIP3     H1       HT       0.417000       1.00800           0
     37417 TIP3     9167     TIP3     H2       HT       0.417000       1.00800           0
     37418 TIP3     9168     TIP3     OH2      OT      -0.834000       15.9994           0
     37419 TIP3     9168     TIP3     H1       HT       0.417000       1.00800           0
     37420 TIP3     9168     TIP3     H2       HT       0.417000       1.00800           0
     37421 TIP3     9169     TIP3     OH2      OT      -0.834000       15.9994           0
     37422 TIP3     9169     TIP3     H1       HT       0.417000       1.00800           0
     37423 TIP3     9169     TIP3     H2       HT       0.417000       1.00800           0
     37424 TIP3     9170     TIP3     OH2      OT      -0.834000       15.9994           0
     37425 TIP3     9170     TIP3     H1       HT       0.417000       1.00800           0
     37426 TIP3     9170     TIP3     H2       HT       0.417000       1.00800           0
     37427 TIP3     9171     TIP3     OH2      OT      -0.834000       15.9994           0
     37428 TIP3     9171     TIP3     H1       HT       0.417000       1.00800           0
     37429 TIP3     9171     TIP3     H2       HT       0.417000       1.00800           0
     37430 TIP3     9172     TIP3     OH2      OT      -0.834000       15.9994           0
     37431 TIP3     9172     TIP3     H1       HT       0.417000       1.00800           0
     37432 TIP3     9172     TIP3     H2       HT       0.417000       1.00800           0
     37433 TIP3     9173     TIP3     OH2      OT      -0.834000       15.9994           0
     37434 TIP3     9173     TIP3     H1       HT       0.417000       1.00800           0
     37435 TIP3     9173     TIP3     H2       HT       0.417000       1.00800           0
     37436 TIP3     9174     TIP3     OH2      OT      -0.834000       15.9994           0
     37437 TIP3     9174     TIP3     H1       HT       0.417000       1.00800           0
     37438 TIP3     9174     TIP3     H2       HT       0.417000       1.00800           0
     37439 TIP3     9175     TIP3     OH2      OT      -0.834000       15.9994           0
     37440 TIP3     9175     TIP3     H1       HT       0.417000       1.00800           0
     37441 TIP3     9175     TIP3     H2       HT       0.417000       1.00800           0
     37442 TIP3     9176     TIP3     OH2      OT      -0.834000       15.9994           0
     37443 TIP3     9176     TIP3     H1       HT       0.417000       1.00800           0
     37444 TIP3     9176     TIP3     H2       HT       0.417000       1.00800           0
     37445 TIP3     9177     TIP3     OH2      OT      -0.834000       15.9994           0
     37446 TIP3     9177     TIP3     H1       HT       0.417000       1.00800           0
     37447 TIP3     9177     TIP3     H2       HT       0.417000       1.00800           0
     37448 TIP3     9178     TIP3     OH2      OT      -0.834000       15.9994           0
     37449 TIP3     9178     TIP3     H1       HT       0.417000       1.00800           0
     37450 TIP3     9178     TIP3     H2       HT       0.417000       1.00800           0
     37451 TIP3     9179     TIP3     OH2      OT      -0.834000       15.9994           0
     37452 TIP3     9179     TIP3     H1       HT       0.417000       1.00800           0
     37453 TIP3     9179     TIP3     H2       HT       0.417000       1.00800           0
     37454 TIP3     9180     TIP3     OH2      OT      -0.834000       15.9994           0
     37455 TIP3     9180     TIP3     H1       HT       0.417000       1.00800           0
     37456 TIP3     9180     TIP3     H2       HT       0.417000       1.00800           0
     37457 TIP3     9181     TIP3     OH2      OT      -0.834000       15.9994           0
     37458 TIP3     9181     TIP3     H1       HT       0.417000       1.00800           0
     37459 TIP3     9181     TIP3     H2       HT       0.417000       1.00800           0
     37460 TIP3     9182     TIP3     OH2      OT      -0.834000       15.9994           0
     37461 TIP3     9182     TIP3     H1       HT       0.417000       1.00800           0
     37462 TIP3     9182     TIP3     H2       HT       0.417000       1.00800           0
     37463 TIP3     9183     TIP3     OH2      OT      -0.834000       15.9994           0
     37464 TIP3     9183     TIP3     H1       HT       0.417000       1.00800           0
     37465 TIP3     9183     TIP3     H2       HT       0.417000       1.00800           0
     37466 TIP3     9184     TIP3     OH2      OT      -0.834000       15.9994           0
     37467 TIP3     9184     TIP3     H1       HT       0.417000       1.00800           0
     37468 TIP3     9184     TIP3     H2       HT       0.417000       1.00800           0
     37469 TIP3     9185     TIP3     OH2      OT      -0.834000       15.9994           0
     37470 TIP3     9185     TIP3     H1       HT       0.417000       1.00800           0
     37471 TIP3     9185     TIP3     H2       HT       0.417000       1.00800           0
     37472 TIP3     9186     TIP3     OH2      OT      -0.834000       15.9994           0
     37473 TIP3     9186     TIP3     H1       HT       0.417000       1.00800           0
     37474 TIP3     9186     TIP3     H2       HT       0.417000       1.00800           0
     37475 TIP3     9187     TIP3     OH2      OT      -0.834000       15.9994           0
     37476 TIP3     9187     TIP3     H1       HT       0.417000       1.00800           0
     37477 TIP3     9187     TIP3     H2       HT       0.417000       1.00800           0
     37478 TIP3     9188     TIP3     OH2      OT      -0.834000       15.9994           0
     37479 TIP3     9188     TIP3     H1       HT       0.417000       1.00800           0
     37480 TIP3     9188     TIP3     H2       HT       0.417000       1.00800           0
     37481 TIP3     9189     TIP3     OH2      OT      -0.834000       15.9994           0
     37482 TIP3     9189     TIP3     H1       HT       0.417000       1.00800           0
     37483 TIP3     9189     TIP3     H2       HT       0.417000       1.00800           0
     37484 TIP3     9190     TIP3     OH2      OT      -0.834000       15.9994           0
     37485 TIP3     9190     TIP3     H1       HT       0.417000       1.00800           0
     37486 TIP3     9190     TIP3     H2       HT       0.417000       1.00800           0
     37487 TIP3     9191     TIP3     OH2      OT      -0.834000       15.9994           0
     37488 TIP3     9191     TIP3     H1       HT       0.417000       1.00800           0
     37489 TIP3     9191     TIP3     H2       HT       0.417000       1.00800           0
     37490 TIP3     9192     TIP3     OH2      OT      -0.834000       15.9994           0
     37491 TIP3     9192     TIP3     H1       HT       0.417000       1.00800           0
     37492 TIP3     9192     TIP3     H2       HT       0.417000       1.00800           0
     37493 TIP3     9193     TIP3     OH2      OT      -0.834000       15.9994           0
     37494 TIP3     9193     TIP3     H1       HT       0.417000       1.00800           0
     37495 TIP3     9193     TIP3     H2       HT       0.417000       1.00800           0
     37496 TIP3     9194     TIP3     OH2      OT      -0.834000       15.9994           0
     37497 TIP3     9194     TIP3     H1       HT       0.417000       1.00800           0
     37498 TIP3     9194     TIP3     H2       HT       0.417000       1.00800           0
     37499 TIP3     9195     TIP3     OH2      OT      -0.834000       15.9994           0
     37500 TIP3     9195     TIP3     H1       HT       0.417000       1.00800           0
     37501 TIP3     9195     TIP3     H2       HT       0.417000       1.00800           0
     37502 TIP3     9196     TIP3     OH2      OT      -0.834000       15.9994           0
     37503 TIP3     9196     TIP3     H1       HT       0.417000       1.00800           0
     37504 TIP3     9196     TIP3     H2       HT       0.417000       1.00800           0
     37505 TIP3     9197     TIP3     OH2      OT      -0.834000       15.9994           0
     37506 TIP3     9197     TIP3     H1       HT       0.417000       1.00800           0
     37507 TIP3     9197     TIP3     H2       HT       0.417000       1.00800           0
     37508 TIP3     9198     TIP3     OH2      OT      -0.834000       15.9994           0
     37509 TIP3     9198     TIP3     H1       HT       0.417000       1.00800           0
     37510 TIP3     9198     TIP3     H2       HT       0.417000       1.00800           0
     37511 TIP3     9199     TIP3     OH2      OT      -0.834000       15.9994           0
     37512 TIP3     9199     TIP3     H1       HT       0.417000       1.00800           0
     37513 TIP3     9199     TIP3     H2       HT       0.417000       1.00800           0
     37514 TIP3     9200     TIP3     OH2      OT      -0.834000       15.9994           0
     37515 TIP3     9200     TIP3     H1       HT       0.417000       1.00800           0
     37516 TIP3     9200     TIP3     H2       HT       0.417000       1.00800           0
     37517 TIP3     9201     TIP3     OH2      OT      -0.834000       15.9994           0
     37518 TIP3     9201     TIP3     H1       HT       0.417000       1.00800           0
     37519 TIP3     9201     TIP3     H2       HT       0.417000       1.00800           0
     37520 TIP3     9202     TIP3     OH2      OT      -0.834000       15.9994           0
     37521 TIP3     9202     TIP3     H1       HT       0.417000       1.00800           0
     37522 TIP3     9202     TIP3     H2       HT       0.417000       1.00800           0
     37523 TIP3     9203     TIP3     OH2      OT      -0.834000       15.9994           0
     37524 TIP3     9203     TIP3     H1       HT       0.417000       1.00800           0
     37525 TIP3     9203     TIP3     H2       HT       0.417000       1.00800           0
     37526 TIP3     9204     TIP3     OH2      OT      -0.834000       15.9994           0
     37527 TIP3     9204     TIP3     H1       HT       0.417000       1.00800           0
     37528 TIP3     9204     TIP3     H2       HT       0.417000       1.00800           0
     37529 TIP3     9205     TIP3     OH2      OT      -0.834000       15.9994           0
     37530 TIP3     9205     TIP3     H1       HT       0.417000       1.00800           0
     37531 TIP3     9205     TIP3     H2       HT       0.417000       1.00800           0
     37532 TIP3     9206     TIP3     OH2      OT      -0.834000       15.9994           0
     37533 TIP3     9206     TIP3     H1       HT       0.417000       1.00800           0
     37534 TIP3     9206     TIP3     H2       HT       0.417000       1.00800           0
     37535 TIP3     9207     TIP3     OH2      OT      -0.834000       15.9994           0
     37536 TIP3     9207     TIP3     H1       HT       0.417000       1.00800           0
     37537 TIP3     9207     TIP3     H2       HT       0.417000       1.00800           0
     37538 TIP3     9208     TIP3     OH2      OT      -0.834000       15.9994           0
     37539 TIP3     9208     TIP3     H1       HT       0.417000       1.00800           0
     37540 TIP3     9208     TIP3     H2       HT       0.417000       1.00800           0
     37541 TIP3     9209     TIP3     OH2      OT      -0.834000       15.9994           0
     37542 TIP3     9209     TIP3     H1       HT       0.417000       1.00800           0
     37543 TIP3     9209     TIP3     H2       HT       0.417000       1.00800           0
     37544 TIP3     9210     TIP3     OH2      OT      -0.834000       15.9994           0
     37545 TIP3     9210     TIP3     H1       HT       0.417000       1.00800           0
     37546 TIP3     9210     TIP3     H2       HT       0.417000       1.00800           0
     37547 TIP3     9211     TIP3     OH2      OT      -0.834000       15.9994           0
     37548 TIP3     9211     TIP3     H1       HT       0.417000       1.00800           0
     37549 TIP3     9211     TIP3     H2       HT       0.417000       1.00800           0
     37550 TIP3     9212     TIP3     OH2      OT      -0.834000       15.9994           0
     37551 TIP3     9212     TIP3     H1       HT       0.417000       1.00800           0
     37552 TIP3     9212     TIP3     H2       HT       0.417000       1.00800           0
     37553 TIP3     9213     TIP3     OH2      OT      -0.834000       15.9994           0
     37554 TIP3     9213     TIP3     H1       HT       0.417000       1.00800           0
     37555 TIP3     9213     TIP3     H2       HT       0.417000       1.00800           0
     37556 TIP3     9214     TIP3     OH2      OT      -0.834000       15.9994           0
     37557 TIP3     9214     TIP3     H1       HT       0.417000       1.00800           0
     37558 TIP3     9214     TIP3     H2       HT       0.417000       1.00800           0
     37559 TIP3     9215     TIP3     OH2      OT      -0.834000       15.9994           0
     37560 TIP3     9215     TIP3     H1       HT       0.417000       1.00800           0
     37561 TIP3     9215     TIP3     H2       HT       0.417000       1.00800           0
     37562 TIP3     9216     TIP3     OH2      OT      -0.834000       15.9994           0
     37563 TIP3     9216     TIP3     H1       HT       0.417000       1.00800           0
     37564 TIP3     9216     TIP3     H2       HT       0.417000       1.00800           0
     37565 TIP3     9217     TIP3     OH2      OT      -0.834000       15.9994           0
     37566 TIP3     9217     TIP3     H1       HT       0.417000       1.00800           0
     37567 TIP3     9217     TIP3     H2       HT       0.417000       1.00800           0
     37568 TIP3     9218     TIP3     OH2      OT      -0.834000       15.9994           0
     37569 TIP3     9218     TIP3     H1       HT       0.417000       1.00800           0
     37570 TIP3     9218     TIP3     H2       HT       0.417000       1.00800           0
     37571 TIP3     9219     TIP3     OH2      OT      -0.834000       15.9994           0
     37572 TIP3     9219     TIP3     H1       HT       0.417000       1.00800           0
     37573 TIP3     9219     TIP3     H2       HT       0.417000       1.00800           0
     37574 TIP3     9220     TIP3     OH2      OT      -0.834000       15.9994           0
     37575 TIP3     9220     TIP3     H1       HT       0.417000       1.00800           0
     37576 TIP3     9220     TIP3     H2       HT       0.417000       1.00800           0
     37577 TIP3     9221     TIP3     OH2      OT      -0.834000       15.9994           0
     37578 TIP3     9221     TIP3     H1       HT       0.417000       1.00800           0
     37579 TIP3     9221     TIP3     H2       HT       0.417000       1.00800           0
     37580 TIP3     9222     TIP3     OH2      OT      -0.834000       15.9994           0
     37581 TIP3     9222     TIP3     H1       HT       0.417000       1.00800           0
     37582 TIP3     9222     TIP3     H2       HT       0.417000       1.00800           0
     37583 TIP3     9223     TIP3     OH2      OT      -0.834000       15.9994           0
     37584 TIP3     9223     TIP3     H1       HT       0.417000       1.00800           0
     37585 TIP3     9223     TIP3     H2       HT       0.417000       1.00800           0
     37586 TIP3     9224     TIP3     OH2      OT      -0.834000       15.9994           0
     37587 TIP3     9224     TIP3     H1       HT       0.417000       1.00800           0
     37588 TIP3     9224     TIP3     H2       HT       0.417000       1.00800           0
     37589 TIP3     9225     TIP3     OH2      OT      -0.834000       15.9994           0
     37590 TIP3     9225     TIP3     H1       HT       0.417000       1.00800           0
     37591 TIP3     9225     TIP3     H2       HT       0.417000       1.00800           0
     37592 TIP3     9226     TIP3     OH2      OT      -0.834000       15.9994           0
     37593 TIP3     9226     TIP3     H1       HT       0.417000       1.00800           0
     37594 TIP3     9226     TIP3     H2       HT       0.417000       1.00800           0
     37595 TIP3     9227     TIP3     OH2      OT      -0.834000       15.9994           0
     37596 TIP3     9227     TIP3     H1       HT       0.417000       1.00800           0
     37597 TIP3     9227     TIP3     H2       HT       0.417000       1.00800           0
     37598 TIP3     9228     TIP3     OH2      OT      -0.834000       15.9994           0
     37599 TIP3     9228     TIP3     H1       HT       0.417000       1.00800           0
     37600 TIP3     9228     TIP3     H2       HT       0.417000       1.00800           0
     37601 TIP3     9229     TIP3     OH2      OT      -0.834000       15.9994           0
     37602 TIP3     9229     TIP3     H1       HT       0.417000       1.00800           0
     37603 TIP3     9229     TIP3     H2       HT       0.417000       1.00800           0
     37604 TIP3     9230     TIP3     OH2      OT      -0.834000       15.9994           0
     37605 TIP3     9230     TIP3     H1       HT       0.417000       1.00800           0
     37606 TIP3     9230     TIP3     H2       HT       0.417000       1.00800           0
     37607 TIP3     9231     TIP3     OH2      OT      -0.834000       15.9994           0
     37608 TIP3     9231     TIP3     H1       HT       0.417000       1.00800           0
     37609 TIP3     9231     TIP3     H2       HT       0.417000       1.00800           0
     37610 TIP3     9232     TIP3     OH2      OT      -0.834000       15.9994           0
     37611 TIP3     9232     TIP3     H1       HT       0.417000       1.00800           0
     37612 TIP3     9232     TIP3     H2       HT       0.417000       1.00800           0
     37613 TIP3     9233     TIP3     OH2      OT      -0.834000       15.9994           0
     37614 TIP3     9233     TIP3     H1       HT       0.417000       1.00800           0
     37615 TIP3     9233     TIP3     H2       HT       0.417000       1.00800           0
     37616 TIP3     9234     TIP3     OH2      OT      -0.834000       15.9994           0
     37617 TIP3     9234     TIP3     H1       HT       0.417000       1.00800           0
     37618 TIP3     9234     TIP3     H2       HT       0.417000       1.00800           0
     37619 TIP3     9235     TIP3     OH2      OT      -0.834000       15.9994           0
     37620 TIP3     9235     TIP3     H1       HT       0.417000       1.00800           0
     37621 TIP3     9235     TIP3     H2       HT       0.417000       1.00800           0
     37622 TIP3     9236     TIP3     OH2      OT      -0.834000       15.9994           0
     37623 TIP3     9236     TIP3     H1       HT       0.417000       1.00800           0
     37624 TIP3     9236     TIP3     H2       HT       0.417000       1.00800           0
     37625 TIP3     9237     TIP3     OH2      OT      -0.834000       15.9994           0
     37626 TIP3     9237     TIP3     H1       HT       0.417000       1.00800           0
     37627 TIP3     9237     TIP3     H2       HT       0.417000       1.00800           0
     37628 TIP3     9238     TIP3     OH2      OT      -0.834000       15.9994           0
     37629 TIP3     9238     TIP3     H1       HT       0.417000       1.00800           0
     37630 TIP3     9238     TIP3     H2       HT       0.417000       1.00800           0
     37631 TIP3     9239     TIP3     OH2      OT      -0.834000       15.9994           0
     37632 TIP3     9239     TIP3     H1       HT       0.417000       1.00800           0
     37633 TIP3     9239     TIP3     H2       HT       0.417000       1.00800           0
     37634 TIP3     9240     TIP3     OH2      OT      -0.834000       15.9994           0
     37635 TIP3     9240     TIP3     H1       HT       0.417000       1.00800           0
     37636 TIP3     9240     TIP3     H2       HT       0.417000       1.00800           0
     37637 TIP3     9241     TIP3     OH2      OT      -0.834000       15.9994           0
     37638 TIP3     9241     TIP3     H1       HT       0.417000       1.00800           0
     37639 TIP3     9241     TIP3     H2       HT       0.417000       1.00800           0
     37640 TIP3     9242     TIP3     OH2      OT      -0.834000       15.9994           0
     37641 TIP3     9242     TIP3     H1       HT       0.417000       1.00800           0
     37642 TIP3     9242     TIP3     H2       HT       0.417000       1.00800           0
     37643 TIP3     9243     TIP3     OH2      OT      -0.834000       15.9994           0
     37644 TIP3     9243     TIP3     H1       HT       0.417000       1.00800           0
     37645 TIP3     9243     TIP3     H2       HT       0.417000       1.00800           0
     37646 TIP3     9244     TIP3     OH2      OT      -0.834000       15.9994           0
     37647 TIP3     9244     TIP3     H1       HT       0.417000       1.00800           0
     37648 TIP3     9244     TIP3     H2       HT       0.417000       1.00800           0
     37649 TIP3     9245     TIP3     OH2      OT      -0.834000       15.9994           0
     37650 TIP3     9245     TIP3     H1       HT       0.417000       1.00800           0
     37651 TIP3     9245     TIP3     H2       HT       0.417000       1.00800           0
     37652 TIP3     9246     TIP3     OH2      OT      -0.834000       15.9994           0
     37653 TIP3     9246     TIP3     H1       HT       0.417000       1.00800           0
     37654 TIP3     9246     TIP3     H2       HT       0.417000       1.00800           0
     37655 TIP3     9247     TIP3     OH2      OT      -0.834000       15.9994           0
     37656 TIP3     9247     TIP3     H1       HT       0.417000       1.00800           0
     37657 TIP3     9247     TIP3     H2       HT       0.417000       1.00800           0
     37658 TIP3     9248     TIP3     OH2      OT      -0.834000       15.9994           0
     37659 TIP3     9248     TIP3     H1       HT       0.417000       1.00800           0
     37660 TIP3     9248     TIP3     H2       HT       0.417000       1.00800           0
     37661 TIP3     9249     TIP3     OH2      OT      -0.834000       15.9994           0
     37662 TIP3     9249     TIP3     H1       HT       0.417000       1.00800           0
     37663 TIP3     9249     TIP3     H2       HT       0.417000       1.00800           0
     37664 TIP3     9250     TIP3     OH2      OT      -0.834000       15.9994           0
     37665 TIP3     9250     TIP3     H1       HT       0.417000       1.00800           0
     37666 TIP3     9250     TIP3     H2       HT       0.417000       1.00800           0
     37667 TIP3     9251     TIP3     OH2      OT      -0.834000       15.9994           0
     37668 TIP3     9251     TIP3     H1       HT       0.417000       1.00800           0
     37669 TIP3     9251     TIP3     H2       HT       0.417000       1.00800           0
     37670 TIP3     9252     TIP3     OH2      OT      -0.834000       15.9994           0
     37671 TIP3     9252     TIP3     H1       HT       0.417000       1.00800           0
     37672 TIP3     9252     TIP3     H2       HT       0.417000       1.00800           0
     37673 TIP3     9253     TIP3     OH2      OT      -0.834000       15.9994           0
     37674 TIP3     9253     TIP3     H1       HT       0.417000       1.00800           0
     37675 TIP3     9253     TIP3     H2       HT       0.417000       1.00800           0
     37676 TIP3     9254     TIP3     OH2      OT      -0.834000       15.9994           0
     37677 TIP3     9254     TIP3     H1       HT       0.417000       1.00800           0
     37678 TIP3     9254     TIP3     H2       HT       0.417000       1.00800           0
     37679 TIP3     9255     TIP3     OH2      OT      -0.834000       15.9994           0
     37680 TIP3     9255     TIP3     H1       HT       0.417000       1.00800           0
     37681 TIP3     9255     TIP3     H2       HT       0.417000       1.00800           0
     37682 TIP3     9256     TIP3     OH2      OT      -0.834000       15.9994           0
     37683 TIP3     9256     TIP3     H1       HT       0.417000       1.00800           0
     37684 TIP3     9256     TIP3     H2       HT       0.417000       1.00800           0
     37685 TIP3     9257     TIP3     OH2      OT      -0.834000       15.9994           0
     37686 TIP3     9257     TIP3     H1       HT       0.417000       1.00800           0
     37687 TIP3     9257     TIP3     H2       HT       0.417000       1.00800           0
     37688 TIP3     9258     TIP3     OH2      OT      -0.834000       15.9994           0
     37689 TIP3     9258     TIP3     H1       HT       0.417000       1.00800           0
     37690 TIP3     9258     TIP3     H2       HT       0.417000       1.00800           0
     37691 TIP3     9259     TIP3     OH2      OT      -0.834000       15.9994           0
     37692 TIP3     9259     TIP3     H1       HT       0.417000       1.00800           0
     37693 TIP3     9259     TIP3     H2       HT       0.417000       1.00800           0
     37694 TIP3     9260     TIP3     OH2      OT      -0.834000       15.9994           0
     37695 TIP3     9260     TIP3     H1       HT       0.417000       1.00800           0
     37696 TIP3     9260     TIP3     H2       HT       0.417000       1.00800           0
     37697 TIP3     9261     TIP3     OH2      OT      -0.834000       15.9994           0
     37698 TIP3     9261     TIP3     H1       HT       0.417000       1.00800           0
     37699 TIP3     9261     TIP3     H2       HT       0.417000       1.00800           0
     37700 TIP3     9262     TIP3     OH2      OT      -0.834000       15.9994           0
     37701 TIP3     9262     TIP3     H1       HT       0.417000       1.00800           0
     37702 TIP3     9262     TIP3     H2       HT       0.417000       1.00800           0
     37703 TIP3     9263     TIP3     OH2      OT      -0.834000       15.9994           0
     37704 TIP3     9263     TIP3     H1       HT       0.417000       1.00800           0
     37705 TIP3     9263     TIP3     H2       HT       0.417000       1.00800           0
     37706 TIP3     9264     TIP3     OH2      OT      -0.834000       15.9994           0
     37707 TIP3     9264     TIP3     H1       HT       0.417000       1.00800           0
     37708 TIP3     9264     TIP3     H2       HT       0.417000       1.00800           0
     37709 TIP3     9265     TIP3     OH2      OT      -0.834000       15.9994           0
     37710 TIP3     9265     TIP3     H1       HT       0.417000       1.00800           0
     37711 TIP3     9265     TIP3     H2       HT       0.417000       1.00800           0
     37712 TIP3     9266     TIP3     OH2      OT      -0.834000       15.9994           0
     37713 TIP3     9266     TIP3     H1       HT       0.417000       1.00800           0
     37714 TIP3     9266     TIP3     H2       HT       0.417000       1.00800           0
     37715 TIP3     9267     TIP3     OH2      OT      -0.834000       15.9994           0
     37716 TIP3     9267     TIP3     H1       HT       0.417000       1.00800           0
     37717 TIP3     9267     TIP3     H2       HT       0.417000       1.00800           0
     37718 TIP3     9268     TIP3     OH2      OT      -0.834000       15.9994           0
     37719 TIP3     9268     TIP3     H1       HT       0.417000       1.00800           0
     37720 TIP3     9268     TIP3     H2       HT       0.417000       1.00800           0
     37721 TIP3     9269     TIP3     OH2      OT      -0.834000       15.9994           0
     37722 TIP3     9269     TIP3     H1       HT       0.417000       1.00800           0
     37723 TIP3     9269     TIP3     H2       HT       0.417000       1.00800           0
     37724 TIP3     9270     TIP3     OH2      OT      -0.834000       15.9994           0
     37725 TIP3     9270     TIP3     H1       HT       0.417000       1.00800           0
     37726 TIP3     9270     TIP3     H2       HT       0.417000       1.00800           0
     37727 TIP3     9271     TIP3     OH2      OT      -0.834000       15.9994           0
     37728 TIP3     9271     TIP3     H1       HT       0.417000       1.00800           0
     37729 TIP3     9271     TIP3     H2       HT       0.417000       1.00800           0
     37730 TIP3     9272     TIP3     OH2      OT      -0.834000       15.9994           0
     37731 TIP3     9272     TIP3     H1       HT       0.417000       1.00800           0
     37732 TIP3     9272     TIP3     H2       HT       0.417000       1.00800           0
     37733 TIP3     9273     TIP3     OH2      OT      -0.834000       15.9994           0
     37734 TIP3     9273     TIP3     H1       HT       0.417000       1.00800           0
     37735 TIP3     9273     TIP3     H2       HT       0.417000       1.00800           0
     37736 TIP3     9274     TIP3     OH2      OT      -0.834000       15.9994           0
     37737 TIP3     9274     TIP3     H1       HT       0.417000       1.00800           0
     37738 TIP3     9274     TIP3     H2       HT       0.417000       1.00800           0
     37739 TIP3     9275     TIP3     OH2      OT      -0.834000       15.9994           0
     37740 TIP3     9275     TIP3     H1       HT       0.417000       1.00800           0
     37741 TIP3     9275     TIP3     H2       HT       0.417000       1.00800           0
     37742 TIP3     9276     TIP3     OH2      OT      -0.834000       15.9994           0
     37743 TIP3     9276     TIP3     H1       HT       0.417000       1.00800           0
     37744 TIP3     9276     TIP3     H2       HT       0.417000       1.00800           0
     37745 TIP3     9277     TIP3     OH2      OT      -0.834000       15.9994           0
     37746 TIP3     9277     TIP3     H1       HT       0.417000       1.00800           0
     37747 TIP3     9277     TIP3     H2       HT       0.417000       1.00800           0
     37748 TIP3     9278     TIP3     OH2      OT      -0.834000       15.9994           0
     37749 TIP3     9278     TIP3     H1       HT       0.417000       1.00800           0
     37750 TIP3     9278     TIP3     H2       HT       0.417000       1.00800           0
     37751 TIP3     9279     TIP3     OH2      OT      -0.834000       15.9994           0
     37752 TIP3     9279     TIP3     H1       HT       0.417000       1.00800           0
     37753 TIP3     9279     TIP3     H2       HT       0.417000       1.00800           0
     37754 TIP3     9280     TIP3     OH2      OT      -0.834000       15.9994           0
     37755 TIP3     9280     TIP3     H1       HT       0.417000       1.00800           0
     37756 TIP3     9280     TIP3     H2       HT       0.417000       1.00800           0
     37757 TIP3     9281     TIP3     OH2      OT      -0.834000       15.9994           0
     37758 TIP3     9281     TIP3     H1       HT       0.417000       1.00800           0
     37759 TIP3     9281     TIP3     H2       HT       0.417000       1.00800           0
     37760 TIP3     9282     TIP3     OH2      OT      -0.834000       15.9994           0
     37761 TIP3     9282     TIP3     H1       HT       0.417000       1.00800           0
     37762 TIP3     9282     TIP3     H2       HT       0.417000       1.00800           0
     37763 TIP3     9283     TIP3     OH2      OT      -0.834000       15.9994           0
     37764 TIP3     9283     TIP3     H1       HT       0.417000       1.00800           0
     37765 TIP3     9283     TIP3     H2       HT       0.417000       1.00800           0
     37766 TIP3     9284     TIP3     OH2      OT      -0.834000       15.9994           0
     37767 TIP3     9284     TIP3     H1       HT       0.417000       1.00800           0
     37768 TIP3     9284     TIP3     H2       HT       0.417000       1.00800           0
     37769 TIP3     9285     TIP3     OH2      OT      -0.834000       15.9994           0
     37770 TIP3     9285     TIP3     H1       HT       0.417000       1.00800           0
     37771 TIP3     9285     TIP3     H2       HT       0.417000       1.00800           0
     37772 TIP3     9286     TIP3     OH2      OT      -0.834000       15.9994           0
     37773 TIP3     9286     TIP3     H1       HT       0.417000       1.00800           0
     37774 TIP3     9286     TIP3     H2       HT       0.417000       1.00800           0
     37775 TIP3     9287     TIP3     OH2      OT      -0.834000       15.9994           0
     37776 TIP3     9287     TIP3     H1       HT       0.417000       1.00800           0
     37777 TIP3     9287     TIP3     H2       HT       0.417000       1.00800           0
     37778 TIP3     9288     TIP3     OH2      OT      -0.834000       15.9994           0
     37779 TIP3     9288     TIP3     H1       HT       0.417000       1.00800           0
     37780 TIP3     9288     TIP3     H2       HT       0.417000       1.00800           0
     37781 TIP3     9289     TIP3     OH2      OT      -0.834000       15.9994           0
     37782 TIP3     9289     TIP3     H1       HT       0.417000       1.00800           0
     37783 TIP3     9289     TIP3     H2       HT       0.417000       1.00800           0
     37784 TIP3     9290     TIP3     OH2      OT      -0.834000       15.9994           0
     37785 TIP3     9290     TIP3     H1       HT       0.417000       1.00800           0
     37786 TIP3     9290     TIP3     H2       HT       0.417000       1.00800           0
     37787 TIP3     9291     TIP3     OH2      OT      -0.834000       15.9994           0
     37788 TIP3     9291     TIP3     H1       HT       0.417000       1.00800           0
     37789 TIP3     9291     TIP3     H2       HT       0.417000       1.00800           0
     37790 TIP3     9292     TIP3     OH2      OT      -0.834000       15.9994           0
     37791 TIP3     9292     TIP3     H1       HT       0.417000       1.00800           0
     37792 TIP3     9292     TIP3     H2       HT       0.417000       1.00800           0
     37793 TIP3     9293     TIP3     OH2      OT      -0.834000       15.9994           0
     37794 TIP3     9293     TIP3     H1       HT       0.417000       1.00800           0
     37795 TIP3     9293     TIP3     H2       HT       0.417000       1.00800           0
     37796 TIP3     9294     TIP3     OH2      OT      -0.834000       15.9994           0
     37797 TIP3     9294     TIP3     H1       HT       0.417000       1.00800           0
     37798 TIP3     9294     TIP3     H2       HT       0.417000       1.00800           0
     37799 TIP3     9295     TIP3     OH2      OT      -0.834000       15.9994           0
     37800 TIP3     9295     TIP3     H1       HT       0.417000       1.00800           0
     37801 TIP3     9295     TIP3     H2       HT       0.417000       1.00800           0
     37802 TIP3     9296     TIP3     OH2      OT      -0.834000       15.9994           0
     37803 TIP3     9296     TIP3     H1       HT       0.417000       1.00800           0
     37804 TIP3     9296     TIP3     H2       HT       0.417000       1.00800           0
     37805 TIP3     9297     TIP3     OH2      OT      -0.834000       15.9994           0
     37806 TIP3     9297     TIP3     H1       HT       0.417000       1.00800           0
     37807 TIP3     9297     TIP3     H2       HT       0.417000       1.00800           0
     37808 TIP3     9298     TIP3     OH2      OT      -0.834000       15.9994           0
     37809 TIP3     9298     TIP3     H1       HT       0.417000       1.00800           0
     37810 TIP3     9298     TIP3     H2       HT       0.417000       1.00800           0
     37811 TIP3     9299     TIP3     OH2      OT      -0.834000       15.9994           0
     37812 TIP3     9299     TIP3     H1       HT       0.417000       1.00800           0
     37813 TIP3     9299     TIP3     H2       HT       0.417000       1.00800           0
     37814 TIP3     9300     TIP3     OH2      OT      -0.834000       15.9994           0
     37815 TIP3     9300     TIP3     H1       HT       0.417000       1.00800           0
     37816 TIP3     9300     TIP3     H2       HT       0.417000       1.00800           0
     37817 TIP3     9301     TIP3     OH2      OT      -0.834000       15.9994           0
     37818 TIP3     9301     TIP3     H1       HT       0.417000       1.00800           0
     37819 TIP3     9301     TIP3     H2       HT       0.417000       1.00800           0
     37820 TIP3     9302     TIP3     OH2      OT      -0.834000       15.9994           0
     37821 TIP3     9302     TIP3     H1       HT       0.417000       1.00800           0
     37822 TIP3     9302     TIP3     H2       HT       0.417000       1.00800           0
     37823 TIP3     9303     TIP3     OH2      OT      -0.834000       15.9994           0
     37824 TIP3     9303     TIP3     H1       HT       0.417000       1.00800           0
     37825 TIP3     9303     TIP3     H2       HT       0.417000       1.00800           0
     37826 TIP3     9304     TIP3     OH2      OT      -0.834000       15.9994           0
     37827 TIP3     9304     TIP3     H1       HT       0.417000       1.00800           0
     37828 TIP3     9304     TIP3     H2       HT       0.417000       1.00800           0
     37829 TIP3     9305     TIP3     OH2      OT      -0.834000       15.9994           0
     37830 TIP3     9305     TIP3     H1       HT       0.417000       1.00800           0
     37831 TIP3     9305     TIP3     H2       HT       0.417000       1.00800           0
     37832 TIP3     9306     TIP3     OH2      OT      -0.834000       15.9994           0
     37833 TIP3     9306     TIP3     H1       HT       0.417000       1.00800           0
     37834 TIP3     9306     TIP3     H2       HT       0.417000       1.00800           0
     37835 TIP3     9307     TIP3     OH2      OT      -0.834000       15.9994           0
     37836 TIP3     9307     TIP3     H1       HT       0.417000       1.00800           0
     37837 TIP3     9307     TIP3     H2       HT       0.417000       1.00800           0
     37838 TIP3     9308     TIP3     OH2      OT      -0.834000       15.9994           0
     37839 TIP3     9308     TIP3     H1       HT       0.417000       1.00800           0
     37840 TIP3     9308     TIP3     H2       HT       0.417000       1.00800           0
     37841 TIP3     9309     TIP3     OH2      OT      -0.834000       15.9994           0
     37842 TIP3     9309     TIP3     H1       HT       0.417000       1.00800           0
     37843 TIP3     9309     TIP3     H2       HT       0.417000       1.00800           0
     37844 TIP3     9310     TIP3     OH2      OT      -0.834000       15.9994           0
     37845 TIP3     9310     TIP3     H1       HT       0.417000       1.00800           0
     37846 TIP3     9310     TIP3     H2       HT       0.417000       1.00800           0
     37847 TIP3     9311     TIP3     OH2      OT      -0.834000       15.9994           0
     37848 TIP3     9311     TIP3     H1       HT       0.417000       1.00800           0
     37849 TIP3     9311     TIP3     H2       HT       0.417000       1.00800           0
     37850 TIP3     9312     TIP3     OH2      OT      -0.834000       15.9994           0
     37851 TIP3     9312     TIP3     H1       HT       0.417000       1.00800           0
     37852 TIP3     9312     TIP3     H2       HT       0.417000       1.00800           0
     37853 TIP3     9313     TIP3     OH2      OT      -0.834000       15.9994           0
     37854 TIP3     9313     TIP3     H1       HT       0.417000       1.00800           0
     37855 TIP3     9313     TIP3     H2       HT       0.417000       1.00800           0
     37856 TIP3     9314     TIP3     OH2      OT      -0.834000       15.9994           0
     37857 TIP3     9314     TIP3     H1       HT       0.417000       1.00800           0
     37858 TIP3     9314     TIP3     H2       HT       0.417000       1.00800           0
     37859 TIP3     9315     TIP3     OH2      OT      -0.834000       15.9994           0
     37860 TIP3     9315     TIP3     H1       HT       0.417000       1.00800           0
     37861 TIP3     9315     TIP3     H2       HT       0.417000       1.00800           0
     37862 TIP3     9316     TIP3     OH2      OT      -0.834000       15.9994           0
     37863 TIP3     9316     TIP3     H1       HT       0.417000       1.00800           0
     37864 TIP3     9316     TIP3     H2       HT       0.417000       1.00800           0
     37865 TIP3     9317     TIP3     OH2      OT      -0.834000       15.9994           0
     37866 TIP3     9317     TIP3     H1       HT       0.417000       1.00800           0
     37867 TIP3     9317     TIP3     H2       HT       0.417000       1.00800           0
     37868 TIP3     9318     TIP3     OH2      OT      -0.834000       15.9994           0
     37869 TIP3     9318     TIP3     H1       HT       0.417000       1.00800           0
     37870 TIP3     9318     TIP3     H2       HT       0.417000       1.00800           0
     37871 TIP3     9319     TIP3     OH2      OT      -0.834000       15.9994           0
     37872 TIP3     9319     TIP3     H1       HT       0.417000       1.00800           0
     37873 TIP3     9319     TIP3     H2       HT       0.417000       1.00800           0
     37874 TIP3     9320     TIP3     OH2      OT      -0.834000       15.9994           0
     37875 TIP3     9320     TIP3     H1       HT       0.417000       1.00800           0
     37876 TIP3     9320     TIP3     H2       HT       0.417000       1.00800           0
     37877 TIP3     9321     TIP3     OH2      OT      -0.834000       15.9994           0
     37878 TIP3     9321     TIP3     H1       HT       0.417000       1.00800           0
     37879 TIP3     9321     TIP3     H2       HT       0.417000       1.00800           0
     37880 TIP3     9322     TIP3     OH2      OT      -0.834000       15.9994           0
     37881 TIP3     9322     TIP3     H1       HT       0.417000       1.00800           0
     37882 TIP3     9322     TIP3     H2       HT       0.417000       1.00800           0
     37883 TIP3     9323     TIP3     OH2      OT      -0.834000       15.9994           0
     37884 TIP3     9323     TIP3     H1       HT       0.417000       1.00800           0
     37885 TIP3     9323     TIP3     H2       HT       0.417000       1.00800           0
     37886 TIP3     9324     TIP3     OH2      OT      -0.834000       15.9994           0
     37887 TIP3     9324     TIP3     H1       HT       0.417000       1.00800           0
     37888 TIP3     9324     TIP3     H2       HT       0.417000       1.00800           0
     37889 TIP3     9325     TIP3     OH2      OT      -0.834000       15.9994           0
     37890 TIP3     9325     TIP3     H1       HT       0.417000       1.00800           0
     37891 TIP3     9325     TIP3     H2       HT       0.417000       1.00800           0
     37892 TIP3     9326     TIP3     OH2      OT      -0.834000       15.9994           0
     37893 TIP3     9326     TIP3     H1       HT       0.417000       1.00800           0
     37894 TIP3     9326     TIP3     H2       HT       0.417000       1.00800           0
     37895 TIP3     9327     TIP3     OH2      OT      -0.834000       15.9994           0
     37896 TIP3     9327     TIP3     H1       HT       0.417000       1.00800           0
     37897 TIP3     9327     TIP3     H2       HT       0.417000       1.00800           0
     37898 TIP3     9328     TIP3     OH2      OT      -0.834000       15.9994           0
     37899 TIP3     9328     TIP3     H1       HT       0.417000       1.00800           0
     37900 TIP3     9328     TIP3     H2       HT       0.417000       1.00800           0
     37901 TIP3     9329     TIP3     OH2      OT      -0.834000       15.9994           0
     37902 TIP3     9329     TIP3     H1       HT       0.417000       1.00800           0
     37903 TIP3     9329     TIP3     H2       HT       0.417000       1.00800           0
     37904 TIP3     9330     TIP3     OH2      OT      -0.834000       15.9994           0
     37905 TIP3     9330     TIP3     H1       HT       0.417000       1.00800           0
     37906 TIP3     9330     TIP3     H2       HT       0.417000       1.00800           0
     37907 TIP3     9331     TIP3     OH2      OT      -0.834000       15.9994           0
     37908 TIP3     9331     TIP3     H1       HT       0.417000       1.00800           0
     37909 TIP3     9331     TIP3     H2       HT       0.417000       1.00800           0
     37910 TIP3     9332     TIP3     OH2      OT      -0.834000       15.9994           0
     37911 TIP3     9332     TIP3     H1       HT       0.417000       1.00800           0
     37912 TIP3     9332     TIP3     H2       HT       0.417000       1.00800           0
     37913 TIP3     9333     TIP3     OH2      OT      -0.834000       15.9994           0
     37914 TIP3     9333     TIP3     H1       HT       0.417000       1.00800           0
     37915 TIP3     9333     TIP3     H2       HT       0.417000       1.00800           0
     37916 TIP3     9334     TIP3     OH2      OT      -0.834000       15.9994           0
     37917 TIP3     9334     TIP3     H1       HT       0.417000       1.00800           0
     37918 TIP3     9334     TIP3     H2       HT       0.417000       1.00800           0
     37919 TIP3     9335     TIP3     OH2      OT      -0.834000       15.9994           0
     37920 TIP3     9335     TIP3     H1       HT       0.417000       1.00800           0
     37921 TIP3     9335     TIP3     H2       HT       0.417000       1.00800           0
     37922 TIP3     9336     TIP3     OH2      OT      -0.834000       15.9994           0
     37923 TIP3     9336     TIP3     H1       HT       0.417000       1.00800           0
     37924 TIP3     9336     TIP3     H2       HT       0.417000       1.00800           0
     37925 TIP3     9337     TIP3     OH2      OT      -0.834000       15.9994           0
     37926 TIP3     9337     TIP3     H1       HT       0.417000       1.00800           0
     37927 TIP3     9337     TIP3     H2       HT       0.417000       1.00800           0
     37928 TIP3     9338     TIP3     OH2      OT      -0.834000       15.9994           0
     37929 TIP3     9338     TIP3     H1       HT       0.417000       1.00800           0
     37930 TIP3     9338     TIP3     H2       HT       0.417000       1.00800           0
     37931 TIP3     9339     TIP3     OH2      OT      -0.834000       15.9994           0
     37932 TIP3     9339     TIP3     H1       HT       0.417000       1.00800           0
     37933 TIP3     9339     TIP3     H2       HT       0.417000       1.00800           0
     37934 TIP3     9340     TIP3     OH2      OT      -0.834000       15.9994           0
     37935 TIP3     9340     TIP3     H1       HT       0.417000       1.00800           0
     37936 TIP3     9340     TIP3     H2       HT       0.417000       1.00800           0
     37937 TIP3     9341     TIP3     OH2      OT      -0.834000       15.9994           0
     37938 TIP3     9341     TIP3     H1       HT       0.417000       1.00800           0
     37939 TIP3     9341     TIP3     H2       HT       0.417000       1.00800           0
     37940 TIP3     9342     TIP3     OH2      OT      -0.834000       15.9994           0
     37941 TIP3     9342     TIP3     H1       HT       0.417000       1.00800           0
     37942 TIP3     9342     TIP3     H2       HT       0.417000       1.00800           0
     37943 TIP3     9343     TIP3     OH2      OT      -0.834000       15.9994           0
     37944 TIP3     9343     TIP3     H1       HT       0.417000       1.00800           0
     37945 TIP3     9343     TIP3     H2       HT       0.417000       1.00800           0
     37946 TIP3     9344     TIP3     OH2      OT      -0.834000       15.9994           0
     37947 TIP3     9344     TIP3     H1       HT       0.417000       1.00800           0
     37948 TIP3     9344     TIP3     H2       HT       0.417000       1.00800           0
     37949 TIP3     9345     TIP3     OH2      OT      -0.834000       15.9994           0
     37950 TIP3     9345     TIP3     H1       HT       0.417000       1.00800           0
     37951 TIP3     9345     TIP3     H2       HT       0.417000       1.00800           0
     37952 TIP3     9346     TIP3     OH2      OT      -0.834000       15.9994           0
     37953 TIP3     9346     TIP3     H1       HT       0.417000       1.00800           0
     37954 TIP3     9346     TIP3     H2       HT       0.417000       1.00800           0
     37955 TIP3     9347     TIP3     OH2      OT      -0.834000       15.9994           0
     37956 TIP3     9347     TIP3     H1       HT       0.417000       1.00800           0
     37957 TIP3     9347     TIP3     H2       HT       0.417000       1.00800           0
     37958 TIP3     9348     TIP3     OH2      OT      -0.834000       15.9994           0
     37959 TIP3     9348     TIP3     H1       HT       0.417000       1.00800           0
     37960 TIP3     9348     TIP3     H2       HT       0.417000       1.00800           0
     37961 TIP3     9349     TIP3     OH2      OT      -0.834000       15.9994           0
     37962 TIP3     9349     TIP3     H1       HT       0.417000       1.00800           0
     37963 TIP3     9349     TIP3     H2       HT       0.417000       1.00800           0
     37964 TIP3     9350     TIP3     OH2      OT      -0.834000       15.9994           0
     37965 TIP3     9350     TIP3     H1       HT       0.417000       1.00800           0
     37966 TIP3     9350     TIP3     H2       HT       0.417000       1.00800           0
     37967 TIP3     9351     TIP3     OH2      OT      -0.834000       15.9994           0
     37968 TIP3     9351     TIP3     H1       HT       0.417000       1.00800           0
     37969 TIP3     9351     TIP3     H2       HT       0.417000       1.00800           0
     37970 TIP3     9352     TIP3     OH2      OT      -0.834000       15.9994           0
     37971 TIP3     9352     TIP3     H1       HT       0.417000       1.00800           0
     37972 TIP3     9352     TIP3     H2       HT       0.417000       1.00800           0
     37973 TIP3     9353     TIP3     OH2      OT      -0.834000       15.9994           0
     37974 TIP3     9353     TIP3     H1       HT       0.417000       1.00800           0
     37975 TIP3     9353     TIP3     H2       HT       0.417000       1.00800           0
     37976 TIP3     9354     TIP3     OH2      OT      -0.834000       15.9994           0
     37977 TIP3     9354     TIP3     H1       HT       0.417000       1.00800           0
     37978 TIP3     9354     TIP3     H2       HT       0.417000       1.00800           0
     37979 TIP3     9355     TIP3     OH2      OT      -0.834000       15.9994           0
     37980 TIP3     9355     TIP3     H1       HT       0.417000       1.00800           0
     37981 TIP3     9355     TIP3     H2       HT       0.417000       1.00800           0
     37982 TIP3     9356     TIP3     OH2      OT      -0.834000       15.9994           0
     37983 TIP3     9356     TIP3     H1       HT       0.417000       1.00800           0
     37984 TIP3     9356     TIP3     H2       HT       0.417000       1.00800           0
     37985 TIP3     9357     TIP3     OH2      OT      -0.834000       15.9994           0
     37986 TIP3     9357     TIP3     H1       HT       0.417000       1.00800           0
     37987 TIP3     9357     TIP3     H2       HT       0.417000       1.00800           0
     37988 TIP3     9358     TIP3     OH2      OT      -0.834000       15.9994           0
     37989 TIP3     9358     TIP3     H1       HT       0.417000       1.00800           0
     37990 TIP3     9358     TIP3     H2       HT       0.417000       1.00800           0
     37991 TIP3     9359     TIP3     OH2      OT      -0.834000       15.9994           0
     37992 TIP3     9359     TIP3     H1       HT       0.417000       1.00800           0
     37993 TIP3     9359     TIP3     H2       HT       0.417000       1.00800           0
     37994 TIP3     9360     TIP3     OH2      OT      -0.834000       15.9994           0
     37995 TIP3     9360     TIP3     H1       HT       0.417000       1.00800           0
     37996 TIP3     9360     TIP3     H2       HT       0.417000       1.00800           0
     37997 TIP3     9361     TIP3     OH2      OT      -0.834000       15.9994           0
     37998 TIP3     9361     TIP3     H1       HT       0.417000       1.00800           0
     37999 TIP3     9361     TIP3     H2       HT       0.417000       1.00800           0
     38000 TIP3     9362     TIP3     OH2      OT      -0.834000       15.9994           0
     38001 TIP3     9362     TIP3     H1       HT       0.417000       1.00800           0
     38002 TIP3     9362     TIP3     H2       HT       0.417000       1.00800           0
     38003 TIP3     9363     TIP3     OH2      OT      -0.834000       15.9994           0
     38004 TIP3     9363     TIP3     H1       HT       0.417000       1.00800           0
     38005 TIP3     9363     TIP3     H2       HT       0.417000       1.00800           0
     38006 TIP3     9364     TIP3     OH2      OT      -0.834000       15.9994           0
     38007 TIP3     9364     TIP3     H1       HT       0.417000       1.00800           0
     38008 TIP3     9364     TIP3     H2       HT       0.417000       1.00800           0
     38009 TIP3     9365     TIP3     OH2      OT      -0.834000       15.9994           0
     38010 TIP3     9365     TIP3     H1       HT       0.417000       1.00800           0
     38011 TIP3     9365     TIP3     H2       HT       0.417000       1.00800           0
     38012 TIP3     9366     TIP3     OH2      OT      -0.834000       15.9994           0
     38013 TIP3     9366     TIP3     H1       HT       0.417000       1.00800           0
     38014 TIP3     9366     TIP3     H2       HT       0.417000       1.00800           0
     38015 TIP3     9367     TIP3     OH2      OT      -0.834000       15.9994           0
     38016 TIP3     9367     TIP3     H1       HT       0.417000       1.00800           0
     38017 TIP3     9367     TIP3     H2       HT       0.417000       1.00800           0
     38018 TIP3     9368     TIP3     OH2      OT      -0.834000       15.9994           0
     38019 TIP3     9368     TIP3     H1       HT       0.417000       1.00800           0
     38020 TIP3     9368     TIP3     H2       HT       0.417000       1.00800           0
     38021 TIP3     9369     TIP3     OH2      OT      -0.834000       15.9994           0
     38022 TIP3     9369     TIP3     H1       HT       0.417000       1.00800           0
     38023 TIP3     9369     TIP3     H2       HT       0.417000       1.00800           0
     38024 TIP3     9370     TIP3     OH2      OT      -0.834000       15.9994           0
     38025 TIP3     9370     TIP3     H1       HT       0.417000       1.00800           0
     38026 TIP3     9370     TIP3     H2       HT       0.417000       1.00800           0
     38027 TIP3     9371     TIP3     OH2      OT      -0.834000       15.9994           0
     38028 TIP3     9371     TIP3     H1       HT       0.417000       1.00800           0
     38029 TIP3     9371     TIP3     H2       HT       0.417000       1.00800           0
     38030 TIP3     9372     TIP3     OH2      OT      -0.834000       15.9994           0
     38031 TIP3     9372     TIP3     H1       HT       0.417000       1.00800           0
     38032 TIP3     9372     TIP3     H2       HT       0.417000       1.00800           0
     38033 TIP3     9373     TIP3     OH2      OT      -0.834000       15.9994           0
     38034 TIP3     9373     TIP3     H1       HT       0.417000       1.00800           0
     38035 TIP3     9373     TIP3     H2       HT       0.417000       1.00800           0
     38036 TIP3     9374     TIP3     OH2      OT      -0.834000       15.9994           0
     38037 TIP3     9374     TIP3     H1       HT       0.417000       1.00800           0
     38038 TIP3     9374     TIP3     H2       HT       0.417000       1.00800           0
     38039 TIP3     9375     TIP3     OH2      OT      -0.834000       15.9994           0
     38040 TIP3     9375     TIP3     H1       HT       0.417000       1.00800           0
     38041 TIP3     9375     TIP3     H2       HT       0.417000       1.00800           0
     38042 TIP3     9376     TIP3     OH2      OT      -0.834000       15.9994           0
     38043 TIP3     9376     TIP3     H1       HT       0.417000       1.00800           0
     38044 TIP3     9376     TIP3     H2       HT       0.417000       1.00800           0
     38045 TIP3     9377     TIP3     OH2      OT      -0.834000       15.9994           0
     38046 TIP3     9377     TIP3     H1       HT       0.417000       1.00800           0
     38047 TIP3     9377     TIP3     H2       HT       0.417000       1.00800           0
     38048 TIP3     9378     TIP3     OH2      OT      -0.834000       15.9994           0
     38049 TIP3     9378     TIP3     H1       HT       0.417000       1.00800           0
     38050 TIP3     9378     TIP3     H2       HT       0.417000       1.00800           0
     38051 TIP3     9379     TIP3     OH2      OT      -0.834000       15.9994           0
     38052 TIP3     9379     TIP3     H1       HT       0.417000       1.00800           0
     38053 TIP3     9379     TIP3     H2       HT       0.417000       1.00800           0
     38054 TIP3     9380     TIP3     OH2      OT      -0.834000       15.9994           0
     38055 TIP3     9380     TIP3     H1       HT       0.417000       1.00800           0
     38056 TIP3     9380     TIP3     H2       HT       0.417000       1.00800           0
     38057 TIP3     9381     TIP3     OH2      OT      -0.834000       15.9994           0
     38058 TIP3     9381     TIP3     H1       HT       0.417000       1.00800           0
     38059 TIP3     9381     TIP3     H2       HT       0.417000       1.00800           0
     38060 TIP3     9382     TIP3     OH2      OT      -0.834000       15.9994           0
     38061 TIP3     9382     TIP3     H1       HT       0.417000       1.00800           0
     38062 TIP3     9382     TIP3     H2       HT       0.417000       1.00800           0
     38063 TIP3     9383     TIP3     OH2      OT      -0.834000       15.9994           0
     38064 TIP3     9383     TIP3     H1       HT       0.417000       1.00800           0
     38065 TIP3     9383     TIP3     H2       HT       0.417000       1.00800           0
     38066 TIP3     9384     TIP3     OH2      OT      -0.834000       15.9994           0
     38067 TIP3     9384     TIP3     H1       HT       0.417000       1.00800           0
     38068 TIP3     9384     TIP3     H2       HT       0.417000       1.00800           0
     38069 TIP3     9385     TIP3     OH2      OT      -0.834000       15.9994           0
     38070 TIP3     9385     TIP3     H1       HT       0.417000       1.00800           0
     38071 TIP3     9385     TIP3     H2       HT       0.417000       1.00800           0
     38072 TIP3     9386     TIP3     OH2      OT      -0.834000       15.9994           0
     38073 TIP3     9386     TIP3     H1       HT       0.417000       1.00800           0
     38074 TIP3     9386     TIP3     H2       HT       0.417000       1.00800           0
     38075 TIP3     9387     TIP3     OH2      OT      -0.834000       15.9994           0
     38076 TIP3     9387     TIP3     H1       HT       0.417000       1.00800           0
     38077 TIP3     9387     TIP3     H2       HT       0.417000       1.00800           0
     38078 TIP3     9388     TIP3     OH2      OT      -0.834000       15.9994           0
     38079 TIP3     9388     TIP3     H1       HT       0.417000       1.00800           0
     38080 TIP3     9388     TIP3     H2       HT       0.417000       1.00800           0
     38081 TIP3     9389     TIP3     OH2      OT      -0.834000       15.9994           0
     38082 TIP3     9389     TIP3     H1       HT       0.417000       1.00800           0
     38083 TIP3     9389     TIP3     H2       HT       0.417000       1.00800           0
     38084 TIP3     9390     TIP3     OH2      OT      -0.834000       15.9994           0
     38085 TIP3     9390     TIP3     H1       HT       0.417000       1.00800           0
     38086 TIP3     9390     TIP3     H2       HT       0.417000       1.00800           0
     38087 TIP3     9391     TIP3     OH2      OT      -0.834000       15.9994           0
     38088 TIP3     9391     TIP3     H1       HT       0.417000       1.00800           0
     38089 TIP3     9391     TIP3     H2       HT       0.417000       1.00800           0
     38090 TIP3     9392     TIP3     OH2      OT      -0.834000       15.9994           0
     38091 TIP3     9392     TIP3     H1       HT       0.417000       1.00800           0
     38092 TIP3     9392     TIP3     H2       HT       0.417000       1.00800           0
     38093 TIP3     9393     TIP3     OH2      OT      -0.834000       15.9994           0
     38094 TIP3     9393     TIP3     H1       HT       0.417000       1.00800           0
     38095 TIP3     9393     TIP3     H2       HT       0.417000       1.00800           0
     38096 TIP3     9394     TIP3     OH2      OT      -0.834000       15.9994           0
     38097 TIP3     9394     TIP3     H1       HT       0.417000       1.00800           0
     38098 TIP3     9394     TIP3     H2       HT       0.417000       1.00800           0
     38099 TIP3     9395     TIP3     OH2      OT      -0.834000       15.9994           0
     38100 TIP3     9395     TIP3     H1       HT       0.417000       1.00800           0
     38101 TIP3     9395     TIP3     H2       HT       0.417000       1.00800           0
     38102 TIP3     9396     TIP3     OH2      OT      -0.834000       15.9994           0
     38103 TIP3     9396     TIP3     H1       HT       0.417000       1.00800           0
     38104 TIP3     9396     TIP3     H2       HT       0.417000       1.00800           0
     38105 TIP3     9397     TIP3     OH2      OT      -0.834000       15.9994           0
     38106 TIP3     9397     TIP3     H1       HT       0.417000       1.00800           0
     38107 TIP3     9397     TIP3     H2       HT       0.417000       1.00800           0
     38108 TIP3     9398     TIP3     OH2      OT      -0.834000       15.9994           0
     38109 TIP3     9398     TIP3     H1       HT       0.417000       1.00800           0
     38110 TIP3     9398     TIP3     H2       HT       0.417000       1.00800           0
     38111 TIP3     9399     TIP3     OH2      OT      -0.834000       15.9994           0
     38112 TIP3     9399     TIP3     H1       HT       0.417000       1.00800           0
     38113 TIP3     9399     TIP3     H2       HT       0.417000       1.00800           0
     38114 TIP3     9400     TIP3     OH2      OT      -0.834000       15.9994           0
     38115 TIP3     9400     TIP3     H1       HT       0.417000       1.00800           0
     38116 TIP3     9400     TIP3     H2       HT       0.417000       1.00800           0
     38117 TIP3     9401     TIP3     OH2      OT      -0.834000       15.9994           0
     38118 TIP3     9401     TIP3     H1       HT       0.417000       1.00800           0
     38119 TIP3     9401     TIP3     H2       HT       0.417000       1.00800           0
     38120 TIP3     9402     TIP3     OH2      OT      -0.834000       15.9994           0
     38121 TIP3     9402     TIP3     H1       HT       0.417000       1.00800           0
     38122 TIP3     9402     TIP3     H2       HT       0.417000       1.00800           0
     38123 TIP3     9403     TIP3     OH2      OT      -0.834000       15.9994           0
     38124 TIP3     9403     TIP3     H1       HT       0.417000       1.00800           0
     38125 TIP3     9403     TIP3     H2       HT       0.417000       1.00800           0
     38126 TIP3     9404     TIP3     OH2      OT      -0.834000       15.9994           0
     38127 TIP3     9404     TIP3     H1       HT       0.417000       1.00800           0
     38128 TIP3     9404     TIP3     H2       HT       0.417000       1.00800           0
     38129 TIP3     9405     TIP3     OH2      OT      -0.834000       15.9994           0
     38130 TIP3     9405     TIP3     H1       HT       0.417000       1.00800           0
     38131 TIP3     9405     TIP3     H2       HT       0.417000       1.00800           0
     38132 TIP3     9406     TIP3     OH2      OT      -0.834000       15.9994           0
     38133 TIP3     9406     TIP3     H1       HT       0.417000       1.00800           0
     38134 TIP3     9406     TIP3     H2       HT       0.417000       1.00800           0
     38135 TIP3     9407     TIP3     OH2      OT      -0.834000       15.9994           0
     38136 TIP3     9407     TIP3     H1       HT       0.417000       1.00800           0
     38137 TIP3     9407     TIP3     H2       HT       0.417000       1.00800           0
     38138 TIP3     9408     TIP3     OH2      OT      -0.834000       15.9994           0
     38139 TIP3     9408     TIP3     H1       HT       0.417000       1.00800           0
     38140 TIP3     9408     TIP3     H2       HT       0.417000       1.00800           0
     38141 TIP3     9409     TIP3     OH2      OT      -0.834000       15.9994           0
     38142 TIP3     9409     TIP3     H1       HT       0.417000       1.00800           0
     38143 TIP3     9409     TIP3     H2       HT       0.417000       1.00800           0
     38144 TIP3     9410     TIP3     OH2      OT      -0.834000       15.9994           0
     38145 TIP3     9410     TIP3     H1       HT       0.417000       1.00800           0
     38146 TIP3     9410     TIP3     H2       HT       0.417000       1.00800           0
     38147 TIP3     9411     TIP3     OH2      OT      -0.834000       15.9994           0
     38148 TIP3     9411     TIP3     H1       HT       0.417000       1.00800           0
     38149 TIP3     9411     TIP3     H2       HT       0.417000       1.00800           0
     38150 TIP3     9412     TIP3     OH2      OT      -0.834000       15.9994           0
     38151 TIP3     9412     TIP3     H1       HT       0.417000       1.00800           0
     38152 TIP3     9412     TIP3     H2       HT       0.417000       1.00800           0
     38153 TIP3     9413     TIP3     OH2      OT      -0.834000       15.9994           0
     38154 TIP3     9413     TIP3     H1       HT       0.417000       1.00800           0
     38155 TIP3     9413     TIP3     H2       HT       0.417000       1.00800           0
     38156 TIP3     9414     TIP3     OH2      OT      -0.834000       15.9994           0
     38157 TIP3     9414     TIP3     H1       HT       0.417000       1.00800           0
     38158 TIP3     9414     TIP3     H2       HT       0.417000       1.00800           0
     38159 TIP3     9415     TIP3     OH2      OT      -0.834000       15.9994           0
     38160 TIP3     9415     TIP3     H1       HT       0.417000       1.00800           0
     38161 TIP3     9415     TIP3     H2       HT       0.417000       1.00800           0
     38162 TIP3     9416     TIP3     OH2      OT      -0.834000       15.9994           0
     38163 TIP3     9416     TIP3     H1       HT       0.417000       1.00800           0
     38164 TIP3     9416     TIP3     H2       HT       0.417000       1.00800           0
     38165 TIP3     9417     TIP3     OH2      OT      -0.834000       15.9994           0
     38166 TIP3     9417     TIP3     H1       HT       0.417000       1.00800           0
     38167 TIP3     9417     TIP3     H2       HT       0.417000       1.00800           0
     38168 TIP3     9418     TIP3     OH2      OT      -0.834000       15.9994           0
     38169 TIP3     9418     TIP3     H1       HT       0.417000       1.00800           0
     38170 TIP3     9418     TIP3     H2       HT       0.417000       1.00800           0
     38171 TIP3     9419     TIP3     OH2      OT      -0.834000       15.9994           0
     38172 TIP3     9419     TIP3     H1       HT       0.417000       1.00800           0
     38173 TIP3     9419     TIP3     H2       HT       0.417000       1.00800           0
     38174 TIP3     9420     TIP3     OH2      OT      -0.834000       15.9994           0
     38175 TIP3     9420     TIP3     H1       HT       0.417000       1.00800           0
     38176 TIP3     9420     TIP3     H2       HT       0.417000       1.00800           0
     38177 TIP3     9421     TIP3     OH2      OT      -0.834000       15.9994           0
     38178 TIP3     9421     TIP3     H1       HT       0.417000       1.00800           0
     38179 TIP3     9421     TIP3     H2       HT       0.417000       1.00800           0
     38180 TIP3     9422     TIP3     OH2      OT      -0.834000       15.9994           0
     38181 TIP3     9422     TIP3     H1       HT       0.417000       1.00800           0
     38182 TIP3     9422     TIP3     H2       HT       0.417000       1.00800           0
     38183 TIP3     9423     TIP3     OH2      OT      -0.834000       15.9994           0
     38184 TIP3     9423     TIP3     H1       HT       0.417000       1.00800           0
     38185 TIP3     9423     TIP3     H2       HT       0.417000       1.00800           0
     38186 TIP3     9424     TIP3     OH2      OT      -0.834000       15.9994           0
     38187 TIP3     9424     TIP3     H1       HT       0.417000       1.00800           0
     38188 TIP3     9424     TIP3     H2       HT       0.417000       1.00800           0
     38189 TIP3     9425     TIP3     OH2      OT      -0.834000       15.9994           0
     38190 TIP3     9425     TIP3     H1       HT       0.417000       1.00800           0
     38191 TIP3     9425     TIP3     H2       HT       0.417000       1.00800           0
     38192 TIP3     9426     TIP3     OH2      OT      -0.834000       15.9994           0
     38193 TIP3     9426     TIP3     H1       HT       0.417000       1.00800           0
     38194 TIP3     9426     TIP3     H2       HT       0.417000       1.00800           0
     38195 TIP3     9427     TIP3     OH2      OT      -0.834000       15.9994           0
     38196 TIP3     9427     TIP3     H1       HT       0.417000       1.00800           0
     38197 TIP3     9427     TIP3     H2       HT       0.417000       1.00800           0
     38198 TIP3     9428     TIP3     OH2      OT      -0.834000       15.9994           0
     38199 TIP3     9428     TIP3     H1       HT       0.417000       1.00800           0
     38200 TIP3     9428     TIP3     H2       HT       0.417000       1.00800           0
     38201 TIP3     9429     TIP3     OH2      OT      -0.834000       15.9994           0
     38202 TIP3     9429     TIP3     H1       HT       0.417000       1.00800           0
     38203 TIP3     9429     TIP3     H2       HT       0.417000       1.00800           0
     38204 TIP3     9430     TIP3     OH2      OT      -0.834000       15.9994           0
     38205 TIP3     9430     TIP3     H1       HT       0.417000       1.00800           0
     38206 TIP3     9430     TIP3     H2       HT       0.417000       1.00800           0
     38207 TIP3     9431     TIP3     OH2      OT      -0.834000       15.9994           0
     38208 TIP3     9431     TIP3     H1       HT       0.417000       1.00800           0
     38209 TIP3     9431     TIP3     H2       HT       0.417000       1.00800           0
     38210 TIP3     9432     TIP3     OH2      OT      -0.834000       15.9994           0
     38211 TIP3     9432     TIP3     H1       HT       0.417000       1.00800           0
     38212 TIP3     9432     TIP3     H2       HT       0.417000       1.00800           0
     38213 TIP3     9433     TIP3     OH2      OT      -0.834000       15.9994           0
     38214 TIP3     9433     TIP3     H1       HT       0.417000       1.00800           0
     38215 TIP3     9433     TIP3     H2       HT       0.417000       1.00800           0
     38216 TIP3     9434     TIP3     OH2      OT      -0.834000       15.9994           0
     38217 TIP3     9434     TIP3     H1       HT       0.417000       1.00800           0
     38218 TIP3     9434     TIP3     H2       HT       0.417000       1.00800           0
     38219 TIP3     9435     TIP3     OH2      OT      -0.834000       15.9994           0
     38220 TIP3     9435     TIP3     H1       HT       0.417000       1.00800           0
     38221 TIP3     9435     TIP3     H2       HT       0.417000       1.00800           0
     38222 TIP3     9436     TIP3     OH2      OT      -0.834000       15.9994           0
     38223 TIP3     9436     TIP3     H1       HT       0.417000       1.00800           0
     38224 TIP3     9436     TIP3     H2       HT       0.417000       1.00800           0
     38225 TIP3     9437     TIP3     OH2      OT      -0.834000       15.9994           0
     38226 TIP3     9437     TIP3     H1       HT       0.417000       1.00800           0
     38227 TIP3     9437     TIP3     H2       HT       0.417000       1.00800           0
     38228 TIP3     9438     TIP3     OH2      OT      -0.834000       15.9994           0
     38229 TIP3     9438     TIP3     H1       HT       0.417000       1.00800           0
     38230 TIP3     9438     TIP3     H2       HT       0.417000       1.00800           0
     38231 TIP3     9439     TIP3     OH2      OT      -0.834000       15.9994           0
     38232 TIP3     9439     TIP3     H1       HT       0.417000       1.00800           0
     38233 TIP3     9439     TIP3     H2       HT       0.417000       1.00800           0
     38234 TIP3     9440     TIP3     OH2      OT      -0.834000       15.9994           0
     38235 TIP3     9440     TIP3     H1       HT       0.417000       1.00800           0
     38236 TIP3     9440     TIP3     H2       HT       0.417000       1.00800           0
     38237 TIP3     9441     TIP3     OH2      OT      -0.834000       15.9994           0
     38238 TIP3     9441     TIP3     H1       HT       0.417000       1.00800           0
     38239 TIP3     9441     TIP3     H2       HT       0.417000       1.00800           0
     38240 TIP3     9442     TIP3     OH2      OT      -0.834000       15.9994           0
     38241 TIP3     9442     TIP3     H1       HT       0.417000       1.00800           0
     38242 TIP3     9442     TIP3     H2       HT       0.417000       1.00800           0
     38243 TIP3     9443     TIP3     OH2      OT      -0.834000       15.9994           0
     38244 TIP3     9443     TIP3     H1       HT       0.417000       1.00800           0
     38245 TIP3     9443     TIP3     H2       HT       0.417000       1.00800           0
     38246 TIP3     9444     TIP3     OH2      OT      -0.834000       15.9994           0
     38247 TIP3     9444     TIP3     H1       HT       0.417000       1.00800           0
     38248 TIP3     9444     TIP3     H2       HT       0.417000       1.00800           0
     38249 TIP3     9445     TIP3     OH2      OT      -0.834000       15.9994           0
     38250 TIP3     9445     TIP3     H1       HT       0.417000       1.00800           0
     38251 TIP3     9445     TIP3     H2       HT       0.417000       1.00800           0
     38252 TIP3     9446     TIP3     OH2      OT      -0.834000       15.9994           0
     38253 TIP3     9446     TIP3     H1       HT       0.417000       1.00800           0
     38254 TIP3     9446     TIP3     H2       HT       0.417000       1.00800           0
     38255 TIP3     9447     TIP3     OH2      OT      -0.834000       15.9994           0
     38256 TIP3     9447     TIP3     H1       HT       0.417000       1.00800           0
     38257 TIP3     9447     TIP3     H2       HT       0.417000       1.00800           0
     38258 TIP3     9448     TIP3     OH2      OT      -0.834000       15.9994           0
     38259 TIP3     9448     TIP3     H1       HT       0.417000       1.00800           0
     38260 TIP3     9448     TIP3     H2       HT       0.417000       1.00800           0
     38261 TIP3     9449     TIP3     OH2      OT      -0.834000       15.9994           0
     38262 TIP3     9449     TIP3     H1       HT       0.417000       1.00800           0
     38263 TIP3     9449     TIP3     H2       HT       0.417000       1.00800           0
     38264 TIP3     9450     TIP3     OH2      OT      -0.834000       15.9994           0
     38265 TIP3     9450     TIP3     H1       HT       0.417000       1.00800           0
     38266 TIP3     9450     TIP3     H2       HT       0.417000       1.00800           0
     38267 TIP3     9451     TIP3     OH2      OT      -0.834000       15.9994           0
     38268 TIP3     9451     TIP3     H1       HT       0.417000       1.00800           0
     38269 TIP3     9451     TIP3     H2       HT       0.417000       1.00800           0
     38270 TIP3     9452     TIP3     OH2      OT      -0.834000       15.9994           0
     38271 TIP3     9452     TIP3     H1       HT       0.417000       1.00800           0
     38272 TIP3     9452     TIP3     H2       HT       0.417000       1.00800           0
     38273 TIP3     9453     TIP3     OH2      OT      -0.834000       15.9994           0
     38274 TIP3     9453     TIP3     H1       HT       0.417000       1.00800           0
     38275 TIP3     9453     TIP3     H2       HT       0.417000       1.00800           0
     38276 TIP3     9454     TIP3     OH2      OT      -0.834000       15.9994           0
     38277 TIP3     9454     TIP3     H1       HT       0.417000       1.00800           0
     38278 TIP3     9454     TIP3     H2       HT       0.417000       1.00800           0
     38279 TIP3     9455     TIP3     OH2      OT      -0.834000       15.9994           0
     38280 TIP3     9455     TIP3     H1       HT       0.417000       1.00800           0
     38281 TIP3     9455     TIP3     H2       HT       0.417000       1.00800           0
     38282 TIP3     9456     TIP3     OH2      OT      -0.834000       15.9994           0
     38283 TIP3     9456     TIP3     H1       HT       0.417000       1.00800           0
     38284 TIP3     9456     TIP3     H2       HT       0.417000       1.00800           0
     38285 TIP3     9457     TIP3     OH2      OT      -0.834000       15.9994           0
     38286 TIP3     9457     TIP3     H1       HT       0.417000       1.00800           0
     38287 TIP3     9457     TIP3     H2       HT       0.417000       1.00800           0
     38288 TIP3     9458     TIP3     OH2      OT      -0.834000       15.9994           0
     38289 TIP3     9458     TIP3     H1       HT       0.417000       1.00800           0
     38290 TIP3     9458     TIP3     H2       HT       0.417000       1.00800           0
     38291 TIP3     9459     TIP3     OH2      OT      -0.834000       15.9994           0
     38292 TIP3     9459     TIP3     H1       HT       0.417000       1.00800           0
     38293 TIP3     9459     TIP3     H2       HT       0.417000       1.00800           0
     38294 TIP3     9460     TIP3     OH2      OT      -0.834000       15.9994           0
     38295 TIP3     9460     TIP3     H1       HT       0.417000       1.00800           0
     38296 TIP3     9460     TIP3     H2       HT       0.417000       1.00800           0
     38297 TIP3     9461     TIP3     OH2      OT      -0.834000       15.9994           0
     38298 TIP3     9461     TIP3     H1       HT       0.417000       1.00800           0
     38299 TIP3     9461     TIP3     H2       HT       0.417000       1.00800           0
     38300 TIP3     9462     TIP3     OH2      OT      -0.834000       15.9994           0
     38301 TIP3     9462     TIP3     H1       HT       0.417000       1.00800           0
     38302 TIP3     9462     TIP3     H2       HT       0.417000       1.00800           0
     38303 TIP3     9463     TIP3     OH2      OT      -0.834000       15.9994           0
     38304 TIP3     9463     TIP3     H1       HT       0.417000       1.00800           0
     38305 TIP3     9463     TIP3     H2       HT       0.417000       1.00800           0
     38306 TIP3     9464     TIP3     OH2      OT      -0.834000       15.9994           0
     38307 TIP3     9464     TIP3     H1       HT       0.417000       1.00800           0
     38308 TIP3     9464     TIP3     H2       HT       0.417000       1.00800           0
     38309 TIP3     9465     TIP3     OH2      OT      -0.834000       15.9994           0
     38310 TIP3     9465     TIP3     H1       HT       0.417000       1.00800           0
     38311 TIP3     9465     TIP3     H2       HT       0.417000       1.00800           0
     38312 TIP3     9466     TIP3     OH2      OT      -0.834000       15.9994           0
     38313 TIP3     9466     TIP3     H1       HT       0.417000       1.00800           0
     38314 TIP3     9466     TIP3     H2       HT       0.417000       1.00800           0
     38315 TIP3     9467     TIP3     OH2      OT      -0.834000       15.9994           0
     38316 TIP3     9467     TIP3     H1       HT       0.417000       1.00800           0
     38317 TIP3     9467     TIP3     H2       HT       0.417000       1.00800           0
     38318 TIP3     9468     TIP3     OH2      OT      -0.834000       15.9994           0
     38319 TIP3     9468     TIP3     H1       HT       0.417000       1.00800           0
     38320 TIP3     9468     TIP3     H2       HT       0.417000       1.00800           0
     38321 TIP3     9469     TIP3     OH2      OT      -0.834000       15.9994           0
     38322 TIP3     9469     TIP3     H1       HT       0.417000       1.00800           0
     38323 TIP3     9469     TIP3     H2       HT       0.417000       1.00800           0
     38324 TIP3     9470     TIP3     OH2      OT      -0.834000       15.9994           0
     38325 TIP3     9470     TIP3     H1       HT       0.417000       1.00800           0
     38326 TIP3     9470     TIP3     H2       HT       0.417000       1.00800           0
     38327 TIP3     9471     TIP3     OH2      OT      -0.834000       15.9994           0
     38328 TIP3     9471     TIP3     H1       HT       0.417000       1.00800           0
     38329 TIP3     9471     TIP3     H2       HT       0.417000       1.00800           0
     38330 TIP3     9472     TIP3     OH2      OT      -0.834000       15.9994           0
     38331 TIP3     9472     TIP3     H1       HT       0.417000       1.00800           0
     38332 TIP3     9472     TIP3     H2       HT       0.417000       1.00800           0
     38333 TIP3     9473     TIP3     OH2      OT      -0.834000       15.9994           0
     38334 TIP3     9473     TIP3     H1       HT       0.417000       1.00800           0
     38335 TIP3     9473     TIP3     H2       HT       0.417000       1.00800           0
     38336 TIP3     9474     TIP3     OH2      OT      -0.834000       15.9994           0
     38337 TIP3     9474     TIP3     H1       HT       0.417000       1.00800           0
     38338 TIP3     9474     TIP3     H2       HT       0.417000       1.00800           0
     38339 TIP3     9475     TIP3     OH2      OT      -0.834000       15.9994           0
     38340 TIP3     9475     TIP3     H1       HT       0.417000       1.00800           0
     38341 TIP3     9475     TIP3     H2       HT       0.417000       1.00800           0
     38342 TIP3     9476     TIP3     OH2      OT      -0.834000       15.9994           0
     38343 TIP3     9476     TIP3     H1       HT       0.417000       1.00800           0
     38344 TIP3     9476     TIP3     H2       HT       0.417000       1.00800           0
     38345 TIP3     9477     TIP3     OH2      OT      -0.834000       15.9994           0
     38346 TIP3     9477     TIP3     H1       HT       0.417000       1.00800           0
     38347 TIP3     9477     TIP3     H2       HT       0.417000       1.00800           0
     38348 TIP3     9478     TIP3     OH2      OT      -0.834000       15.9994           0
     38349 TIP3     9478     TIP3     H1       HT       0.417000       1.00800           0
     38350 TIP3     9478     TIP3     H2       HT       0.417000       1.00800           0
     38351 TIP3     9479     TIP3     OH2      OT      -0.834000       15.9994           0
     38352 TIP3     9479     TIP3     H1       HT       0.417000       1.00800           0
     38353 TIP3     9479     TIP3     H2       HT       0.417000       1.00800           0
     38354 TIP3     9480     TIP3     OH2      OT      -0.834000       15.9994           0
     38355 TIP3     9480     TIP3     H1       HT       0.417000       1.00800           0
     38356 TIP3     9480     TIP3     H2       HT       0.417000       1.00800           0
     38357 TIP3     9481     TIP3     OH2      OT      -0.834000       15.9994           0
     38358 TIP3     9481     TIP3     H1       HT       0.417000       1.00800           0
     38359 TIP3     9481     TIP3     H2       HT       0.417000       1.00800           0
     38360 TIP3     9482     TIP3     OH2      OT      -0.834000       15.9994           0
     38361 TIP3     9482     TIP3     H1       HT       0.417000       1.00800           0
     38362 TIP3     9482     TIP3     H2       HT       0.417000       1.00800           0
     38363 TIP3     9483     TIP3     OH2      OT      -0.834000       15.9994           0
     38364 TIP3     9483     TIP3     H1       HT       0.417000       1.00800           0
     38365 TIP3     9483     TIP3     H2       HT       0.417000       1.00800           0
     38366 TIP3     9484     TIP3     OH2      OT      -0.834000       15.9994           0
     38367 TIP3     9484     TIP3     H1       HT       0.417000       1.00800           0
     38368 TIP3     9484     TIP3     H2       HT       0.417000       1.00800           0
     38369 TIP3     9485     TIP3     OH2      OT      -0.834000       15.9994           0
     38370 TIP3     9485     TIP3     H1       HT       0.417000       1.00800           0
     38371 TIP3     9485     TIP3     H2       HT       0.417000       1.00800           0
     38372 TIP3     9486     TIP3     OH2      OT      -0.834000       15.9994           0
     38373 TIP3     9486     TIP3     H1       HT       0.417000       1.00800           0
     38374 TIP3     9486     TIP3     H2       HT       0.417000       1.00800           0
     38375 TIP3     9487     TIP3     OH2      OT      -0.834000       15.9994           0
     38376 TIP3     9487     TIP3     H1       HT       0.417000       1.00800           0
     38377 TIP3     9487     TIP3     H2       HT       0.417000       1.00800           0
     38378 TIP3     9488     TIP3     OH2      OT      -0.834000       15.9994           0
     38379 TIP3     9488     TIP3     H1       HT       0.417000       1.00800           0
     38380 TIP3     9488     TIP3     H2       HT       0.417000       1.00800           0
     38381 TIP3     9489     TIP3     OH2      OT      -0.834000       15.9994           0
     38382 TIP3     9489     TIP3     H1       HT       0.417000       1.00800           0
     38383 TIP3     9489     TIP3     H2       HT       0.417000       1.00800           0
     38384 TIP3     9490     TIP3     OH2      OT      -0.834000       15.9994           0
     38385 TIP3     9490     TIP3     H1       HT       0.417000       1.00800           0
     38386 TIP3     9490     TIP3     H2       HT       0.417000       1.00800           0
     38387 TIP3     9491     TIP3     OH2      OT      -0.834000       15.9994           0
     38388 TIP3     9491     TIP3     H1       HT       0.417000       1.00800           0
     38389 TIP3     9491     TIP3     H2       HT       0.417000       1.00800           0
     38390 TIP3     9492     TIP3     OH2      OT      -0.834000       15.9994           0
     38391 TIP3     9492     TIP3     H1       HT       0.417000       1.00800           0
     38392 TIP3     9492     TIP3     H2       HT       0.417000       1.00800           0
     38393 TIP3     9493     TIP3     OH2      OT      -0.834000       15.9994           0
     38394 TIP3     9493     TIP3     H1       HT       0.417000       1.00800           0
     38395 TIP3     9493     TIP3     H2       HT       0.417000       1.00800           0
     38396 TIP3     9494     TIP3     OH2      OT      -0.834000       15.9994           0
     38397 TIP3     9494     TIP3     H1       HT       0.417000       1.00800           0
     38398 TIP3     9494     TIP3     H2       HT       0.417000       1.00800           0
     38399 TIP3     9495     TIP3     OH2      OT      -0.834000       15.9994           0
     38400 TIP3     9495     TIP3     H1       HT       0.417000       1.00800           0
     38401 TIP3     9495     TIP3     H2       HT       0.417000       1.00800           0
     38402 TIP3     9496     TIP3     OH2      OT      -0.834000       15.9994           0
     38403 TIP3     9496     TIP3     H1       HT       0.417000       1.00800           0
     38404 TIP3     9496     TIP3     H2       HT       0.417000       1.00800           0
     38405 TIP3     9497     TIP3     OH2      OT      -0.834000       15.9994           0
     38406 TIP3     9497     TIP3     H1       HT       0.417000       1.00800           0
     38407 TIP3     9497     TIP3     H2       HT       0.417000       1.00800           0
     38408 TIP3     9498     TIP3     OH2      OT      -0.834000       15.9994           0
     38409 TIP3     9498     TIP3     H1       HT       0.417000       1.00800           0
     38410 TIP3     9498     TIP3     H2       HT       0.417000       1.00800           0
     38411 TIP3     9499     TIP3     OH2      OT      -0.834000       15.9994           0
     38412 TIP3     9499     TIP3     H1       HT       0.417000       1.00800           0
     38413 TIP3     9499     TIP3     H2       HT       0.417000       1.00800           0
     38414 TIP3     9500     TIP3     OH2      OT      -0.834000       15.9994           0
     38415 TIP3     9500     TIP3     H1       HT       0.417000       1.00800           0
     38416 TIP3     9500     TIP3     H2       HT       0.417000       1.00800           0
     38417 TIP3     9501     TIP3     OH2      OT      -0.834000       15.9994           0
     38418 TIP3     9501     TIP3     H1       HT       0.417000       1.00800           0
     38419 TIP3     9501     TIP3     H2       HT       0.417000       1.00800           0
     38420 TIP3     9502     TIP3     OH2      OT      -0.834000       15.9994           0
     38421 TIP3     9502     TIP3     H1       HT       0.417000       1.00800           0
     38422 TIP3     9502     TIP3     H2       HT       0.417000       1.00800           0
     38423 TIP3     9503     TIP3     OH2      OT      -0.834000       15.9994           0
     38424 TIP3     9503     TIP3     H1       HT       0.417000       1.00800           0
     38425 TIP3     9503     TIP3     H2       HT       0.417000       1.00800           0
     38426 TIP3     9504     TIP3     OH2      OT      -0.834000       15.9994           0
     38427 TIP3     9504     TIP3     H1       HT       0.417000       1.00800           0
     38428 TIP3     9504     TIP3     H2       HT       0.417000       1.00800           0
     38429 TIP3     9505     TIP3     OH2      OT      -0.834000       15.9994           0
     38430 TIP3     9505     TIP3     H1       HT       0.417000       1.00800           0
     38431 TIP3     9505     TIP3     H2       HT       0.417000       1.00800           0
     38432 TIP3     9506     TIP3     OH2      OT      -0.834000       15.9994           0
     38433 TIP3     9506     TIP3     H1       HT       0.417000       1.00800           0
     38434 TIP3     9506     TIP3     H2       HT       0.417000       1.00800           0
     38435 TIP3     9507     TIP3     OH2      OT      -0.834000       15.9994           0
     38436 TIP3     9507     TIP3     H1       HT       0.417000       1.00800           0
     38437 TIP3     9507     TIP3     H2       HT       0.417000       1.00800           0
     38438 TIP3     9508     TIP3     OH2      OT      -0.834000       15.9994           0
     38439 TIP3     9508     TIP3     H1       HT       0.417000       1.00800           0
     38440 TIP3     9508     TIP3     H2       HT       0.417000       1.00800           0
     38441 TIP3     9509     TIP3     OH2      OT      -0.834000       15.9994           0
     38442 TIP3     9509     TIP3     H1       HT       0.417000       1.00800           0
     38443 TIP3     9509     TIP3     H2       HT       0.417000       1.00800           0
     38444 TIP3     9510     TIP3     OH2      OT      -0.834000       15.9994           0
     38445 TIP3     9510     TIP3     H1       HT       0.417000       1.00800           0
     38446 TIP3     9510     TIP3     H2       HT       0.417000       1.00800           0
     38447 TIP3     9511     TIP3     OH2      OT      -0.834000       15.9994           0
     38448 TIP3     9511     TIP3     H1       HT       0.417000       1.00800           0
     38449 TIP3     9511     TIP3     H2       HT       0.417000       1.00800           0
     38450 TIP3     9512     TIP3     OH2      OT      -0.834000       15.9994           0
     38451 TIP3     9512     TIP3     H1       HT       0.417000       1.00800           0
     38452 TIP3     9512     TIP3     H2       HT       0.417000       1.00800           0
     38453 TIP3     9513     TIP3     OH2      OT      -0.834000       15.9994           0
     38454 TIP3     9513     TIP3     H1       HT       0.417000       1.00800           0
     38455 TIP3     9513     TIP3     H2       HT       0.417000       1.00800           0
     38456 TIP3     9514     TIP3     OH2      OT      -0.834000       15.9994           0
     38457 TIP3     9514     TIP3     H1       HT       0.417000       1.00800           0
     38458 TIP3     9514     TIP3     H2       HT       0.417000       1.00800           0
     38459 TIP3     9515     TIP3     OH2      OT      -0.834000       15.9994           0
     38460 TIP3     9515     TIP3     H1       HT       0.417000       1.00800           0
     38461 TIP3     9515     TIP3     H2       HT       0.417000       1.00800           0
     38462 TIP3     9516     TIP3     OH2      OT      -0.834000       15.9994           0
     38463 TIP3     9516     TIP3     H1       HT       0.417000       1.00800           0
     38464 TIP3     9516     TIP3     H2       HT       0.417000       1.00800           0
     38465 TIP3     9517     TIP3     OH2      OT      -0.834000       15.9994           0
     38466 TIP3     9517     TIP3     H1       HT       0.417000       1.00800           0
     38467 TIP3     9517     TIP3     H2       HT       0.417000       1.00800           0
     38468 TIP3     9518     TIP3     OH2      OT      -0.834000       15.9994           0
     38469 TIP3     9518     TIP3     H1       HT       0.417000       1.00800           0
     38470 TIP3     9518     TIP3     H2       HT       0.417000       1.00800           0
     38471 TIP3     9519     TIP3     OH2      OT      -0.834000       15.9994           0
     38472 TIP3     9519     TIP3     H1       HT       0.417000       1.00800           0
     38473 TIP3     9519     TIP3     H2       HT       0.417000       1.00800           0
     38474 TIP3     9520     TIP3     OH2      OT      -0.834000       15.9994           0
     38475 TIP3     9520     TIP3     H1       HT       0.417000       1.00800           0
     38476 TIP3     9520     TIP3     H2       HT       0.417000       1.00800           0
     38477 TIP3     9521     TIP3     OH2      OT      -0.834000       15.9994           0
     38478 TIP3     9521     TIP3     H1       HT       0.417000       1.00800           0
     38479 TIP3     9521     TIP3     H2       HT       0.417000       1.00800           0
     38480 TIP3     9522     TIP3     OH2      OT      -0.834000       15.9994           0
     38481 TIP3     9522     TIP3     H1       HT       0.417000       1.00800           0
     38482 TIP3     9522     TIP3     H2       HT       0.417000       1.00800           0
     38483 TIP3     9523     TIP3     OH2      OT      -0.834000       15.9994           0
     38484 TIP3     9523     TIP3     H1       HT       0.417000       1.00800           0
     38485 TIP3     9523     TIP3     H2       HT       0.417000       1.00800           0
     38486 TIP3     9524     TIP3     OH2      OT      -0.834000       15.9994           0
     38487 TIP3     9524     TIP3     H1       HT       0.417000       1.00800           0
     38488 TIP3     9524     TIP3     H2       HT       0.417000       1.00800           0
     38489 TIP3     9525     TIP3     OH2      OT      -0.834000       15.9994           0
     38490 TIP3     9525     TIP3     H1       HT       0.417000       1.00800           0
     38491 TIP3     9525     TIP3     H2       HT       0.417000       1.00800           0
     38492 TIP3     9526     TIP3     OH2      OT      -0.834000       15.9994           0
     38493 TIP3     9526     TIP3     H1       HT       0.417000       1.00800           0
     38494 TIP3     9526     TIP3     H2       HT       0.417000       1.00800           0
     38495 TIP3     9527     TIP3     OH2      OT      -0.834000       15.9994           0
     38496 TIP3     9527     TIP3     H1       HT       0.417000       1.00800           0
     38497 TIP3     9527     TIP3     H2       HT       0.417000       1.00800           0
     38498 TIP3     9528     TIP3     OH2      OT      -0.834000       15.9994           0
     38499 TIP3     9528     TIP3     H1       HT       0.417000       1.00800           0
     38500 TIP3     9528     TIP3     H2       HT       0.417000       1.00800           0
     38501 TIP3     9529     TIP3     OH2      OT      -0.834000       15.9994           0
     38502 TIP3     9529     TIP3     H1       HT       0.417000       1.00800           0
     38503 TIP3     9529     TIP3     H2       HT       0.417000       1.00800           0
     38504 TIP3     9530     TIP3     OH2      OT      -0.834000       15.9994           0
     38505 TIP3     9530     TIP3     H1       HT       0.417000       1.00800           0
     38506 TIP3     9530     TIP3     H2       HT       0.417000       1.00800           0
     38507 TIP3     9531     TIP3     OH2      OT      -0.834000       15.9994           0
     38508 TIP3     9531     TIP3     H1       HT       0.417000       1.00800           0
     38509 TIP3     9531     TIP3     H2       HT       0.417000       1.00800           0
     38510 TIP3     9532     TIP3     OH2      OT      -0.834000       15.9994           0
     38511 TIP3     9532     TIP3     H1       HT       0.417000       1.00800           0
     38512 TIP3     9532     TIP3     H2       HT       0.417000       1.00800           0
     38513 TIP3     9533     TIP3     OH2      OT      -0.834000       15.9994           0
     38514 TIP3     9533     TIP3     H1       HT       0.417000       1.00800           0
     38515 TIP3     9533     TIP3     H2       HT       0.417000       1.00800           0
     38516 TIP3     9534     TIP3     OH2      OT      -0.834000       15.9994           0
     38517 TIP3     9534     TIP3     H1       HT       0.417000       1.00800           0
     38518 TIP3     9534     TIP3     H2       HT       0.417000       1.00800           0
     38519 TIP3     9535     TIP3     OH2      OT      -0.834000       15.9994           0
     38520 TIP3     9535     TIP3     H1       HT       0.417000       1.00800           0
     38521 TIP3     9535     TIP3     H2       HT       0.417000       1.00800           0
     38522 TIP3     9536     TIP3     OH2      OT      -0.834000       15.9994           0
     38523 TIP3     9536     TIP3     H1       HT       0.417000       1.00800           0
     38524 TIP3     9536     TIP3     H2       HT       0.417000       1.00800           0
     38525 TIP3     9537     TIP3     OH2      OT      -0.834000       15.9994           0
     38526 TIP3     9537     TIP3     H1       HT       0.417000       1.00800           0
     38527 TIP3     9537     TIP3     H2       HT       0.417000       1.00800           0
     38528 TIP3     9538     TIP3     OH2      OT      -0.834000       15.9994           0
     38529 TIP3     9538     TIP3     H1       HT       0.417000       1.00800           0
     38530 TIP3     9538     TIP3     H2       HT       0.417000       1.00800           0
     38531 TIP3     9539     TIP3     OH2      OT      -0.834000       15.9994           0
     38532 TIP3     9539     TIP3     H1       HT       0.417000       1.00800           0
     38533 TIP3     9539     TIP3     H2       HT       0.417000       1.00800           0
     38534 TIP3     9540     TIP3     OH2      OT      -0.834000       15.9994           0
     38535 TIP3     9540     TIP3     H1       HT       0.417000       1.00800           0
     38536 TIP3     9540     TIP3     H2       HT       0.417000       1.00800           0
     38537 TIP3     9541     TIP3     OH2      OT      -0.834000       15.9994           0
     38538 TIP3     9541     TIP3     H1       HT       0.417000       1.00800           0
     38539 TIP3     9541     TIP3     H2       HT       0.417000       1.00800           0
     38540 TIP3     9542     TIP3     OH2      OT      -0.834000       15.9994           0
     38541 TIP3     9542     TIP3     H1       HT       0.417000       1.00800           0
     38542 TIP3     9542     TIP3     H2       HT       0.417000       1.00800           0
     38543 TIP3     9543     TIP3     OH2      OT      -0.834000       15.9994           0
     38544 TIP3     9543     TIP3     H1       HT       0.417000       1.00800           0
     38545 TIP3     9543     TIP3     H2       HT       0.417000       1.00800           0
     38546 TIP3     9544     TIP3     OH2      OT      -0.834000       15.9994           0
     38547 TIP3     9544     TIP3     H1       HT       0.417000       1.00800           0
     38548 TIP3     9544     TIP3     H2       HT       0.417000       1.00800           0
     38549 TIP3     9545     TIP3     OH2      OT      -0.834000       15.9994           0
     38550 TIP3     9545     TIP3     H1       HT       0.417000       1.00800           0
     38551 TIP3     9545     TIP3     H2       HT       0.417000       1.00800           0
     38552 TIP3     9546     TIP3     OH2      OT      -0.834000       15.9994           0
     38553 TIP3     9546     TIP3     H1       HT       0.417000       1.00800           0
     38554 TIP3     9546     TIP3     H2       HT       0.417000       1.00800           0
     38555 TIP3     9547     TIP3     OH2      OT      -0.834000       15.9994           0
     38556 TIP3     9547     TIP3     H1       HT       0.417000       1.00800           0
     38557 TIP3     9547     TIP3     H2       HT       0.417000       1.00800           0
     38558 TIP3     9548     TIP3     OH2      OT      -0.834000       15.9994           0
     38559 TIP3     9548     TIP3     H1       HT       0.417000       1.00800           0
     38560 TIP3     9548     TIP3     H2       HT       0.417000       1.00800           0
     38561 TIP3     9549     TIP3     OH2      OT      -0.834000       15.9994           0
     38562 TIP3     9549     TIP3     H1       HT       0.417000       1.00800           0
     38563 TIP3     9549     TIP3     H2       HT       0.417000       1.00800           0
     38564 TIP3     9550     TIP3     OH2      OT      -0.834000       15.9994           0
     38565 TIP3     9550     TIP3     H1       HT       0.417000       1.00800           0
     38566 TIP3     9550     TIP3     H2       HT       0.417000       1.00800           0
     38567 TIP3     9551     TIP3     OH2      OT      -0.834000       15.9994           0
     38568 TIP3     9551     TIP3     H1       HT       0.417000       1.00800           0
     38569 TIP3     9551     TIP3     H2       HT       0.417000       1.00800           0
     38570 TIP3     9552     TIP3     OH2      OT      -0.834000       15.9994           0
     38571 TIP3     9552     TIP3     H1       HT       0.417000       1.00800           0
     38572 TIP3     9552     TIP3     H2       HT       0.417000       1.00800           0
     38573 TIP3     9553     TIP3     OH2      OT      -0.834000       15.9994           0
     38574 TIP3     9553     TIP3     H1       HT       0.417000       1.00800           0
     38575 TIP3     9553     TIP3     H2       HT       0.417000       1.00800           0
     38576 TIP3     9554     TIP3     OH2      OT      -0.834000       15.9994           0
     38577 TIP3     9554     TIP3     H1       HT       0.417000       1.00800           0
     38578 TIP3     9554     TIP3     H2       HT       0.417000       1.00800           0
     38579 TIP3     9555     TIP3     OH2      OT      -0.834000       15.9994           0
     38580 TIP3     9555     TIP3     H1       HT       0.417000       1.00800           0
     38581 TIP3     9555     TIP3     H2       HT       0.417000       1.00800           0
     38582 TIP3     9556     TIP3     OH2      OT      -0.834000       15.9994           0
     38583 TIP3     9556     TIP3     H1       HT       0.417000       1.00800           0
     38584 TIP3     9556     TIP3     H2       HT       0.417000       1.00800           0
     38585 TIP3     9557     TIP3     OH2      OT      -0.834000       15.9994           0
     38586 TIP3     9557     TIP3     H1       HT       0.417000       1.00800           0
     38587 TIP3     9557     TIP3     H2       HT       0.417000       1.00800           0
     38588 TIP3     9558     TIP3     OH2      OT      -0.834000       15.9994           0
     38589 TIP3     9558     TIP3     H1       HT       0.417000       1.00800           0
     38590 TIP3     9558     TIP3     H2       HT       0.417000       1.00800           0
     38591 TIP3     9559     TIP3     OH2      OT      -0.834000       15.9994           0
     38592 TIP3     9559     TIP3     H1       HT       0.417000       1.00800           0
     38593 TIP3     9559     TIP3     H2       HT       0.417000       1.00800           0
     38594 TIP3     9560     TIP3     OH2      OT      -0.834000       15.9994           0
     38595 TIP3     9560     TIP3     H1       HT       0.417000       1.00800           0
     38596 TIP3     9560     TIP3     H2       HT       0.417000       1.00800           0
     38597 TIP3     9561     TIP3     OH2      OT      -0.834000       15.9994           0
     38598 TIP3     9561     TIP3     H1       HT       0.417000       1.00800           0
     38599 TIP3     9561     TIP3     H2       HT       0.417000       1.00800           0
     38600 TIP3     9562     TIP3     OH2      OT      -0.834000       15.9994           0
     38601 TIP3     9562     TIP3     H1       HT       0.417000       1.00800           0
     38602 TIP3     9562     TIP3     H2       HT       0.417000       1.00800           0
     38603 TIP3     9563     TIP3     OH2      OT      -0.834000       15.9994           0
     38604 TIP3     9563     TIP3     H1       HT       0.417000       1.00800           0
     38605 TIP3     9563     TIP3     H2       HT       0.417000       1.00800           0
     38606 TIP3     9564     TIP3     OH2      OT      -0.834000       15.9994           0
     38607 TIP3     9564     TIP3     H1       HT       0.417000       1.00800           0
     38608 TIP3     9564     TIP3     H2       HT       0.417000       1.00800           0
     38609 TIP3     9565     TIP3     OH2      OT      -0.834000       15.9994           0
     38610 TIP3     9565     TIP3     H1       HT       0.417000       1.00800           0
     38611 TIP3     9565     TIP3     H2       HT       0.417000       1.00800           0
     38612 TIP3     9566     TIP3     OH2      OT      -0.834000       15.9994           0
     38613 TIP3     9566     TIP3     H1       HT       0.417000       1.00800           0
     38614 TIP3     9566     TIP3     H2       HT       0.417000       1.00800           0
     38615 TIP3     9567     TIP3     OH2      OT      -0.834000       15.9994           0
     38616 TIP3     9567     TIP3     H1       HT       0.417000       1.00800           0
     38617 TIP3     9567     TIP3     H2       HT       0.417000       1.00800           0
     38618 TIP3     9568     TIP3     OH2      OT      -0.834000       15.9994           0
     38619 TIP3     9568     TIP3     H1       HT       0.417000       1.00800           0
     38620 TIP3     9568     TIP3     H2       HT       0.417000       1.00800           0
     38621 TIP3     9569     TIP3     OH2      OT      -0.834000       15.9994           0
     38622 TIP3     9569     TIP3     H1       HT       0.417000       1.00800           0
     38623 TIP3     9569     TIP3     H2       HT       0.417000       1.00800           0
     38624 TIP3     9570     TIP3     OH2      OT      -0.834000       15.9994           0
     38625 TIP3     9570     TIP3     H1       HT       0.417000       1.00800           0
     38626 TIP3     9570     TIP3     H2       HT       0.417000       1.00800           0
     38627 TIP3     9571     TIP3     OH2      OT      -0.834000       15.9994           0
     38628 TIP3     9571     TIP3     H1       HT       0.417000       1.00800           0
     38629 TIP3     9571     TIP3     H2       HT       0.417000       1.00800           0
     38630 TIP3     9572     TIP3     OH2      OT      -0.834000       15.9994           0
     38631 TIP3     9572     TIP3     H1       HT       0.417000       1.00800           0
     38632 TIP3     9572     TIP3     H2       HT       0.417000       1.00800           0
     38633 TIP3     9573     TIP3     OH2      OT      -0.834000       15.9994           0
     38634 TIP3     9573     TIP3     H1       HT       0.417000       1.00800           0
     38635 TIP3     9573     TIP3     H2       HT       0.417000       1.00800           0
     38636 TIP3     9574     TIP3     OH2      OT      -0.834000       15.9994           0
     38637 TIP3     9574     TIP3     H1       HT       0.417000       1.00800           0
     38638 TIP3     9574     TIP3     H2       HT       0.417000       1.00800           0
     38639 TIP3     9575     TIP3     OH2      OT      -0.834000       15.9994           0
     38640 TIP3     9575     TIP3     H1       HT       0.417000       1.00800           0
     38641 TIP3     9575     TIP3     H2       HT       0.417000       1.00800           0
     38642 TIP3     9576     TIP3     OH2      OT      -0.834000       15.9994           0
     38643 TIP3     9576     TIP3     H1       HT       0.417000       1.00800           0
     38644 TIP3     9576     TIP3     H2       HT       0.417000       1.00800           0
     38645 TIP3     9577     TIP3     OH2      OT      -0.834000       15.9994           0
     38646 TIP3     9577     TIP3     H1       HT       0.417000       1.00800           0
     38647 TIP3     9577     TIP3     H2       HT       0.417000       1.00800           0
     38648 TIP3     9578     TIP3     OH2      OT      -0.834000       15.9994           0
     38649 TIP3     9578     TIP3     H1       HT       0.417000       1.00800           0
     38650 TIP3     9578     TIP3     H2       HT       0.417000       1.00800           0
     38651 TIP3     9579     TIP3     OH2      OT      -0.834000       15.9994           0
     38652 TIP3     9579     TIP3     H1       HT       0.417000       1.00800           0
     38653 TIP3     9579     TIP3     H2       HT       0.417000       1.00800           0
     38654 TIP3     9580     TIP3     OH2      OT      -0.834000       15.9994           0
     38655 TIP3     9580     TIP3     H1       HT       0.417000       1.00800           0
     38656 TIP3     9580     TIP3     H2       HT       0.417000       1.00800           0
     38657 TIP3     9581     TIP3     OH2      OT      -0.834000       15.9994           0
     38658 TIP3     9581     TIP3     H1       HT       0.417000       1.00800           0
     38659 TIP3     9581     TIP3     H2       HT       0.417000       1.00800           0
     38660 TIP3     9582     TIP3     OH2      OT      -0.834000       15.9994           0
     38661 TIP3     9582     TIP3     H1       HT       0.417000       1.00800           0
     38662 TIP3     9582     TIP3     H2       HT       0.417000       1.00800           0
     38663 TIP3     9583     TIP3     OH2      OT      -0.834000       15.9994           0
     38664 TIP3     9583     TIP3     H1       HT       0.417000       1.00800           0
     38665 TIP3     9583     TIP3     H2       HT       0.417000       1.00800           0
     38666 TIP3     9584     TIP3     OH2      OT      -0.834000       15.9994           0
     38667 TIP3     9584     TIP3     H1       HT       0.417000       1.00800           0
     38668 TIP3     9584     TIP3     H2       HT       0.417000       1.00800           0
     38669 TIP3     9585     TIP3     OH2      OT      -0.834000       15.9994           0
     38670 TIP3     9585     TIP3     H1       HT       0.417000       1.00800           0
     38671 TIP3     9585     TIP3     H2       HT       0.417000       1.00800           0
     38672 TIP3     9586     TIP3     OH2      OT      -0.834000       15.9994           0
     38673 TIP3     9586     TIP3     H1       HT       0.417000       1.00800           0
     38674 TIP3     9586     TIP3     H2       HT       0.417000       1.00800           0
     38675 TIP3     9587     TIP3     OH2      OT      -0.834000       15.9994           0
     38676 TIP3     9587     TIP3     H1       HT       0.417000       1.00800           0
     38677 TIP3     9587     TIP3     H2       HT       0.417000       1.00800           0
     38678 TIP3     9588     TIP3     OH2      OT      -0.834000       15.9994           0
     38679 TIP3     9588     TIP3     H1       HT       0.417000       1.00800           0
     38680 TIP3     9588     TIP3     H2       HT       0.417000       1.00800           0
     38681 TIP3     9589     TIP3     OH2      OT      -0.834000       15.9994           0
     38682 TIP3     9589     TIP3     H1       HT       0.417000       1.00800           0
     38683 TIP3     9589     TIP3     H2       HT       0.417000       1.00800           0
     38684 TIP3     9590     TIP3     OH2      OT      -0.834000       15.9994           0
     38685 TIP3     9590     TIP3     H1       HT       0.417000       1.00800           0
     38686 TIP3     9590     TIP3     H2       HT       0.417000       1.00800           0
     38687 TIP3     9591     TIP3     OH2      OT      -0.834000       15.9994           0
     38688 TIP3     9591     TIP3     H1       HT       0.417000       1.00800           0
     38689 TIP3     9591     TIP3     H2       HT       0.417000       1.00800           0
     38690 TIP3     9592     TIP3     OH2      OT      -0.834000       15.9994           0
     38691 TIP3     9592     TIP3     H1       HT       0.417000       1.00800           0
     38692 TIP3     9592     TIP3     H2       HT       0.417000       1.00800           0
     38693 TIP3     9593     TIP3     OH2      OT      -0.834000       15.9994           0
     38694 TIP3     9593     TIP3     H1       HT       0.417000       1.00800           0
     38695 TIP3     9593     TIP3     H2       HT       0.417000       1.00800           0
     38696 TIP3     9594     TIP3     OH2      OT      -0.834000       15.9994           0
     38697 TIP3     9594     TIP3     H1       HT       0.417000       1.00800           0
     38698 TIP3     9594     TIP3     H2       HT       0.417000       1.00800           0
     38699 TIP3     9595     TIP3     OH2      OT      -0.834000       15.9994           0
     38700 TIP3     9595     TIP3     H1       HT       0.417000       1.00800           0
     38701 TIP3     9595     TIP3     H2       HT       0.417000       1.00800           0
     38702 TIP3     9596     TIP3     OH2      OT      -0.834000       15.9994           0
     38703 TIP3     9596     TIP3     H1       HT       0.417000       1.00800           0
     38704 TIP3     9596     TIP3     H2       HT       0.417000       1.00800           0
     38705 TIP3     9597     TIP3     OH2      OT      -0.834000       15.9994           0
     38706 TIP3     9597     TIP3     H1       HT       0.417000       1.00800           0
     38707 TIP3     9597     TIP3     H2       HT       0.417000       1.00800           0
     38708 TIP3     9598     TIP3     OH2      OT      -0.834000       15.9994           0
     38709 TIP3     9598     TIP3     H1       HT       0.417000       1.00800           0
     38710 TIP3     9598     TIP3     H2       HT       0.417000       1.00800           0
     38711 TIP3     9599     TIP3     OH2      OT      -0.834000       15.9994           0
     38712 TIP3     9599     TIP3     H1       HT       0.417000       1.00800           0
     38713 TIP3     9599     TIP3     H2       HT       0.417000       1.00800           0
     38714 TIP3     9600     TIP3     OH2      OT      -0.834000       15.9994           0
     38715 TIP3     9600     TIP3     H1       HT       0.417000       1.00800           0
     38716 TIP3     9600     TIP3     H2       HT       0.417000       1.00800           0
     38717 TIP3     9601     TIP3     OH2      OT      -0.834000       15.9994           0
     38718 TIP3     9601     TIP3     H1       HT       0.417000       1.00800           0
     38719 TIP3     9601     TIP3     H2       HT       0.417000       1.00800           0
     38720 TIP3     9602     TIP3     OH2      OT      -0.834000       15.9994           0
     38721 TIP3     9602     TIP3     H1       HT       0.417000       1.00800           0
     38722 TIP3     9602     TIP3     H2       HT       0.417000       1.00800           0
     38723 TIP3     9603     TIP3     OH2      OT      -0.834000       15.9994           0
     38724 TIP3     9603     TIP3     H1       HT       0.417000       1.00800           0
     38725 TIP3     9603     TIP3     H2       HT       0.417000       1.00800           0
     38726 TIP3     9604     TIP3     OH2      OT      -0.834000       15.9994           0
     38727 TIP3     9604     TIP3     H1       HT       0.417000       1.00800           0
     38728 TIP3     9604     TIP3     H2       HT       0.417000       1.00800           0
     38729 TIP3     9605     TIP3     OH2      OT      -0.834000       15.9994           0
     38730 TIP3     9605     TIP3     H1       HT       0.417000       1.00800           0
     38731 TIP3     9605     TIP3     H2       HT       0.417000       1.00800           0
     38732 TIP3     9606     TIP3     OH2      OT      -0.834000       15.9994           0
     38733 TIP3     9606     TIP3     H1       HT       0.417000       1.00800           0
     38734 TIP3     9606     TIP3     H2       HT       0.417000       1.00800           0
     38735 TIP3     9607     TIP3     OH2      OT      -0.834000       15.9994           0
     38736 TIP3     9607     TIP3     H1       HT       0.417000       1.00800           0
     38737 TIP3     9607     TIP3     H2       HT       0.417000       1.00800           0
     38738 TIP3     9608     TIP3     OH2      OT      -0.834000       15.9994           0
     38739 TIP3     9608     TIP3     H1       HT       0.417000       1.00800           0
     38740 TIP3     9608     TIP3     H2       HT       0.417000       1.00800           0
     38741 TIP3     9609     TIP3     OH2      OT      -0.834000       15.9994           0
     38742 TIP3     9609     TIP3     H1       HT       0.417000       1.00800           0
     38743 TIP3     9609     TIP3     H2       HT       0.417000       1.00800           0
     38744 TIP3     9610     TIP3     OH2      OT      -0.834000       15.9994           0
     38745 TIP3     9610     TIP3     H1       HT       0.417000       1.00800           0
     38746 TIP3     9610     TIP3     H2       HT       0.417000       1.00800           0
     38747 TIP3     9611     TIP3     OH2      OT      -0.834000       15.9994           0
     38748 TIP3     9611     TIP3     H1       HT       0.417000       1.00800           0
     38749 TIP3     9611     TIP3     H2       HT       0.417000       1.00800           0
     38750 TIP3     9612     TIP3     OH2      OT      -0.834000       15.9994           0
     38751 TIP3     9612     TIP3     H1       HT       0.417000       1.00800           0
     38752 TIP3     9612     TIP3     H2       HT       0.417000       1.00800           0
     38753 TIP3     9613     TIP3     OH2      OT      -0.834000       15.9994           0
     38754 TIP3     9613     TIP3     H1       HT       0.417000       1.00800           0
     38755 TIP3     9613     TIP3     H2       HT       0.417000       1.00800           0
     38756 TIP3     9614     TIP3     OH2      OT      -0.834000       15.9994           0
     38757 TIP3     9614     TIP3     H1       HT       0.417000       1.00800           0
     38758 TIP3     9614     TIP3     H2       HT       0.417000       1.00800           0
     38759 TIP3     9615     TIP3     OH2      OT      -0.834000       15.9994           0
     38760 TIP3     9615     TIP3     H1       HT       0.417000       1.00800           0
     38761 TIP3     9615     TIP3     H2       HT       0.417000       1.00800           0
     38762 TIP3     9616     TIP3     OH2      OT      -0.834000       15.9994           0
     38763 TIP3     9616     TIP3     H1       HT       0.417000       1.00800           0
     38764 TIP3     9616     TIP3     H2       HT       0.417000       1.00800           0
     38765 TIP3     9617     TIP3     OH2      OT      -0.834000       15.9994           0
     38766 TIP3     9617     TIP3     H1       HT       0.417000       1.00800           0
     38767 TIP3     9617     TIP3     H2       HT       0.417000       1.00800           0
     38768 TIP3     9618     TIP3     OH2      OT      -0.834000       15.9994           0
     38769 TIP3     9618     TIP3     H1       HT       0.417000       1.00800           0
     38770 TIP3     9618     TIP3     H2       HT       0.417000       1.00800           0
     38771 TIP3     9619     TIP3     OH2      OT      -0.834000       15.9994           0
     38772 TIP3     9619     TIP3     H1       HT       0.417000       1.00800           0
     38773 TIP3     9619     TIP3     H2       HT       0.417000       1.00800           0
     38774 TIP3     9620     TIP3     OH2      OT      -0.834000       15.9994           0
     38775 TIP3     9620     TIP3     H1       HT       0.417000       1.00800           0
     38776 TIP3     9620     TIP3     H2       HT       0.417000       1.00800           0
     38777 TIP3     9621     TIP3     OH2      OT      -0.834000       15.9994           0
     38778 TIP3     9621     TIP3     H1       HT       0.417000       1.00800           0
     38779 TIP3     9621     TIP3     H2       HT       0.417000       1.00800           0
     38780 TIP3     9622     TIP3     OH2      OT      -0.834000       15.9994           0
     38781 TIP3     9622     TIP3     H1       HT       0.417000       1.00800           0
     38782 TIP3     9622     TIP3     H2       HT       0.417000       1.00800           0
     38783 TIP3     9623     TIP3     OH2      OT      -0.834000       15.9994           0
     38784 TIP3     9623     TIP3     H1       HT       0.417000       1.00800           0
     38785 TIP3     9623     TIP3     H2       HT       0.417000       1.00800           0
     38786 TIP3     9624     TIP3     OH2      OT      -0.834000       15.9994           0
     38787 TIP3     9624     TIP3     H1       HT       0.417000       1.00800           0
     38788 TIP3     9624     TIP3     H2       HT       0.417000       1.00800           0
     38789 TIP3     9625     TIP3     OH2      OT      -0.834000       15.9994           0
     38790 TIP3     9625     TIP3     H1       HT       0.417000       1.00800           0
     38791 TIP3     9625     TIP3     H2       HT       0.417000       1.00800           0
     38792 TIP3     9626     TIP3     OH2      OT      -0.834000       15.9994           0
     38793 TIP3     9626     TIP3     H1       HT       0.417000       1.00800           0
     38794 TIP3     9626     TIP3     H2       HT       0.417000       1.00800           0
     38795 TIP3     9627     TIP3     OH2      OT      -0.834000       15.9994           0
     38796 TIP3     9627     TIP3     H1       HT       0.417000       1.00800           0
     38797 TIP3     9627     TIP3     H2       HT       0.417000       1.00800           0
     38798 TIP3     9628     TIP3     OH2      OT      -0.834000       15.9994           0
     38799 TIP3     9628     TIP3     H1       HT       0.417000       1.00800           0
     38800 TIP3     9628     TIP3     H2       HT       0.417000       1.00800           0
     38801 TIP3     9629     TIP3     OH2      OT      -0.834000       15.9994           0
     38802 TIP3     9629     TIP3     H1       HT       0.417000       1.00800           0
     38803 TIP3     9629     TIP3     H2       HT       0.417000       1.00800           0
     38804 TIP3     9630     TIP3     OH2      OT      -0.834000       15.9994           0
     38805 TIP3     9630     TIP3     H1       HT       0.417000       1.00800           0
     38806 TIP3     9630     TIP3     H2       HT       0.417000       1.00800           0
     38807 TIP3     9631     TIP3     OH2      OT      -0.834000       15.9994           0
     38808 TIP3     9631     TIP3     H1       HT       0.417000       1.00800           0
     38809 TIP3     9631     TIP3     H2       HT       0.417000       1.00800           0
     38810 TIP3     9632     TIP3     OH2      OT      -0.834000       15.9994           0
     38811 TIP3     9632     TIP3     H1       HT       0.417000       1.00800           0
     38812 TIP3     9632     TIP3     H2       HT       0.417000       1.00800           0
     38813 TIP3     9633     TIP3     OH2      OT      -0.834000       15.9994           0
     38814 TIP3     9633     TIP3     H1       HT       0.417000       1.00800           0
     38815 TIP3     9633     TIP3     H2       HT       0.417000       1.00800           0
     38816 TIP3     9634     TIP3     OH2      OT      -0.834000       15.9994           0
     38817 TIP3     9634     TIP3     H1       HT       0.417000       1.00800           0
     38818 TIP3     9634     TIP3     H2       HT       0.417000       1.00800           0
     38819 TIP3     9635     TIP3     OH2      OT      -0.834000       15.9994           0
     38820 TIP3     9635     TIP3     H1       HT       0.417000       1.00800           0
     38821 TIP3     9635     TIP3     H2       HT       0.417000       1.00800           0
     38822 TIP3     9636     TIP3     OH2      OT      -0.834000       15.9994           0
     38823 TIP3     9636     TIP3     H1       HT       0.417000       1.00800           0
     38824 TIP3     9636     TIP3     H2       HT       0.417000       1.00800           0
     38825 TIP3     9637     TIP3     OH2      OT      -0.834000       15.9994           0
     38826 TIP3     9637     TIP3     H1       HT       0.417000       1.00800           0
     38827 TIP3     9637     TIP3     H2       HT       0.417000       1.00800           0
     38828 TIP3     9638     TIP3     OH2      OT      -0.834000       15.9994           0
     38829 TIP3     9638     TIP3     H1       HT       0.417000       1.00800           0
     38830 TIP3     9638     TIP3     H2       HT       0.417000       1.00800           0
     38831 TIP3     9639     TIP3     OH2      OT      -0.834000       15.9994           0
     38832 TIP3     9639     TIP3     H1       HT       0.417000       1.00800           0
     38833 TIP3     9639     TIP3     H2       HT       0.417000       1.00800           0
     38834 TIP3     9640     TIP3     OH2      OT      -0.834000       15.9994           0
     38835 TIP3     9640     TIP3     H1       HT       0.417000       1.00800           0
     38836 TIP3     9640     TIP3     H2       HT       0.417000       1.00800           0
     38837 TIP3     9641     TIP3     OH2      OT      -0.834000       15.9994           0
     38838 TIP3     9641     TIP3     H1       HT       0.417000       1.00800           0
     38839 TIP3     9641     TIP3     H2       HT       0.417000       1.00800           0
     38840 TIP3     9642     TIP3     OH2      OT      -0.834000       15.9994           0
     38841 TIP3     9642     TIP3     H1       HT       0.417000       1.00800           0
     38842 TIP3     9642     TIP3     H2       HT       0.417000       1.00800           0
     38843 TIP3     9643     TIP3     OH2      OT      -0.834000       15.9994           0
     38844 TIP3     9643     TIP3     H1       HT       0.417000       1.00800           0
     38845 TIP3     9643     TIP3     H2       HT       0.417000       1.00800           0
     38846 TIP3     9644     TIP3     OH2      OT      -0.834000       15.9994           0
     38847 TIP3     9644     TIP3     H1       HT       0.417000       1.00800           0
     38848 TIP3     9644     TIP3     H2       HT       0.417000       1.00800           0
     38849 TIP3     9645     TIP3     OH2      OT      -0.834000       15.9994           0
     38850 TIP3     9645     TIP3     H1       HT       0.417000       1.00800           0
     38851 TIP3     9645     TIP3     H2       HT       0.417000       1.00800           0
     38852 TIP3     9646     TIP3     OH2      OT      -0.834000       15.9994           0
     38853 TIP3     9646     TIP3     H1       HT       0.417000       1.00800           0
     38854 TIP3     9646     TIP3     H2       HT       0.417000       1.00800           0
     38855 TIP3     9647     TIP3     OH2      OT      -0.834000       15.9994           0
     38856 TIP3     9647     TIP3     H1       HT       0.417000       1.00800           0
     38857 TIP3     9647     TIP3     H2       HT       0.417000       1.00800           0
     38858 TIP3     9648     TIP3     OH2      OT      -0.834000       15.9994           0
     38859 TIP3     9648     TIP3     H1       HT       0.417000       1.00800           0
     38860 TIP3     9648     TIP3     H2       HT       0.417000       1.00800           0
     38861 TIP3     9649     TIP3     OH2      OT      -0.834000       15.9994           0
     38862 TIP3     9649     TIP3     H1       HT       0.417000       1.00800           0
     38863 TIP3     9649     TIP3     H2       HT       0.417000       1.00800           0
     38864 TIP3     9650     TIP3     OH2      OT      -0.834000       15.9994           0
     38865 TIP3     9650     TIP3     H1       HT       0.417000       1.00800           0
     38866 TIP3     9650     TIP3     H2       HT       0.417000       1.00800           0
     38867 TIP3     9651     TIP3     OH2      OT      -0.834000       15.9994           0
     38868 TIP3     9651     TIP3     H1       HT       0.417000       1.00800           0
     38869 TIP3     9651     TIP3     H2       HT       0.417000       1.00800           0
     38870 TIP3     9652     TIP3     OH2      OT      -0.834000       15.9994           0
     38871 TIP3     9652     TIP3     H1       HT       0.417000       1.00800           0
     38872 TIP3     9652     TIP3     H2       HT       0.417000       1.00800           0
     38873 TIP3     9653     TIP3     OH2      OT      -0.834000       15.9994           0
     38874 TIP3     9653     TIP3     H1       HT       0.417000       1.00800           0
     38875 TIP3     9653     TIP3     H2       HT       0.417000       1.00800           0
     38876 TIP3     9654     TIP3     OH2      OT      -0.834000       15.9994           0
     38877 TIP3     9654     TIP3     H1       HT       0.417000       1.00800           0
     38878 TIP3     9654     TIP3     H2       HT       0.417000       1.00800           0
     38879 TIP3     9655     TIP3     OH2      OT      -0.834000       15.9994           0
     38880 TIP3     9655     TIP3     H1       HT       0.417000       1.00800           0
     38881 TIP3     9655     TIP3     H2       HT       0.417000       1.00800           0
     38882 TIP3     9656     TIP3     OH2      OT      -0.834000       15.9994           0
     38883 TIP3     9656     TIP3     H1       HT       0.417000       1.00800           0
     38884 TIP3     9656     TIP3     H2       HT       0.417000       1.00800           0
     38885 TIP3     9657     TIP3     OH2      OT      -0.834000       15.9994           0
     38886 TIP3     9657     TIP3     H1       HT       0.417000       1.00800           0
     38887 TIP3     9657     TIP3     H2       HT       0.417000       1.00800           0
     38888 TIP3     9658     TIP3     OH2      OT      -0.834000       15.9994           0
     38889 TIP3     9658     TIP3     H1       HT       0.417000       1.00800           0
     38890 TIP3     9658     TIP3     H2       HT       0.417000       1.00800           0
     38891 TIP3     9659     TIP3     OH2      OT      -0.834000       15.9994           0
     38892 TIP3     9659     TIP3     H1       HT       0.417000       1.00800           0
     38893 TIP3     9659     TIP3     H2       HT       0.417000       1.00800           0
     38894 TIP3     9660     TIP3     OH2      OT      -0.834000       15.9994           0
     38895 TIP3     9660     TIP3     H1       HT       0.417000       1.00800           0
     38896 TIP3     9660     TIP3     H2       HT       0.417000       1.00800           0
     38897 TIP3     9661     TIP3     OH2      OT      -0.834000       15.9994           0
     38898 TIP3     9661     TIP3     H1       HT       0.417000       1.00800           0
     38899 TIP3     9661     TIP3     H2       HT       0.417000       1.00800           0
     38900 TIP3     9662     TIP3     OH2      OT      -0.834000       15.9994           0
     38901 TIP3     9662     TIP3     H1       HT       0.417000       1.00800           0
     38902 TIP3     9662     TIP3     H2       HT       0.417000       1.00800           0
     38903 TIP3     9663     TIP3     OH2      OT      -0.834000       15.9994           0
     38904 TIP3     9663     TIP3     H1       HT       0.417000       1.00800           0
     38905 TIP3     9663     TIP3     H2       HT       0.417000       1.00800           0
     38906 TIP3     9664     TIP3     OH2      OT      -0.834000       15.9994           0
     38907 TIP3     9664     TIP3     H1       HT       0.417000       1.00800           0
     38908 TIP3     9664     TIP3     H2       HT       0.417000       1.00800           0
     38909 TIP3     9665     TIP3     OH2      OT      -0.834000       15.9994           0
     38910 TIP3     9665     TIP3     H1       HT       0.417000       1.00800           0
     38911 TIP3     9665     TIP3     H2       HT       0.417000       1.00800           0
     38912 TIP3     9666     TIP3     OH2      OT      -0.834000       15.9994           0
     38913 TIP3     9666     TIP3     H1       HT       0.417000       1.00800           0
     38914 TIP3     9666     TIP3     H2       HT       0.417000       1.00800           0
     38915 TIP3     9667     TIP3     OH2      OT      -0.834000       15.9994           0
     38916 TIP3     9667     TIP3     H1       HT       0.417000       1.00800           0
     38917 TIP3     9667     TIP3     H2       HT       0.417000       1.00800           0
     38918 TIP3     9668     TIP3     OH2      OT      -0.834000       15.9994           0
     38919 TIP3     9668     TIP3     H1       HT       0.417000       1.00800           0
     38920 TIP3     9668     TIP3     H2       HT       0.417000       1.00800           0
     38921 TIP3     9669     TIP3     OH2      OT      -0.834000       15.9994           0
     38922 TIP3     9669     TIP3     H1       HT       0.417000       1.00800           0
     38923 TIP3     9669     TIP3     H2       HT       0.417000       1.00800           0
     38924 TIP3     9670     TIP3     OH2      OT      -0.834000       15.9994           0
     38925 TIP3     9670     TIP3     H1       HT       0.417000       1.00800           0
     38926 TIP3     9670     TIP3     H2       HT       0.417000       1.00800           0
     38927 TIP3     9671     TIP3     OH2      OT      -0.834000       15.9994           0
     38928 TIP3     9671     TIP3     H1       HT       0.417000       1.00800           0
     38929 TIP3     9671     TIP3     H2       HT       0.417000       1.00800           0
     38930 TIP3     9672     TIP3     OH2      OT      -0.834000       15.9994           0
     38931 TIP3     9672     TIP3     H1       HT       0.417000       1.00800           0
     38932 TIP3     9672     TIP3     H2       HT       0.417000       1.00800           0
     38933 TIP3     9673     TIP3     OH2      OT      -0.834000       15.9994           0
     38934 TIP3     9673     TIP3     H1       HT       0.417000       1.00800           0
     38935 TIP3     9673     TIP3     H2       HT       0.417000       1.00800           0
     38936 TIP3     9674     TIP3     OH2      OT      -0.834000       15.9994           0
     38937 TIP3     9674     TIP3     H1       HT       0.417000       1.00800           0
     38938 TIP3     9674     TIP3     H2       HT       0.417000       1.00800           0
     38939 TIP3     9675     TIP3     OH2      OT      -0.834000       15.9994           0
     38940 TIP3     9675     TIP3     H1       HT       0.417000       1.00800           0
     38941 TIP3     9675     TIP3     H2       HT       0.417000       1.00800           0
     38942 TIP3     9676     TIP3     OH2      OT      -0.834000       15.9994           0
     38943 TIP3     9676     TIP3     H1       HT       0.417000       1.00800           0
     38944 TIP3     9676     TIP3     H2       HT       0.417000       1.00800           0
     38945 TIP3     9677     TIP3     OH2      OT      -0.834000       15.9994           0
     38946 TIP3     9677     TIP3     H1       HT       0.417000       1.00800           0
     38947 TIP3     9677     TIP3     H2       HT       0.417000       1.00800           0
     38948 TIP3     9678     TIP3     OH2      OT      -0.834000       15.9994           0
     38949 TIP3     9678     TIP3     H1       HT       0.417000       1.00800           0
     38950 TIP3     9678     TIP3     H2       HT       0.417000       1.00800           0
     38951 TIP3     9679     TIP3     OH2      OT      -0.834000       15.9994           0
     38952 TIP3     9679     TIP3     H1       HT       0.417000       1.00800           0
     38953 TIP3     9679     TIP3     H2       HT       0.417000       1.00800           0
     38954 TIP3     9680     TIP3     OH2      OT      -0.834000       15.9994           0
     38955 TIP3     9680     TIP3     H1       HT       0.417000       1.00800           0
     38956 TIP3     9680     TIP3     H2       HT       0.417000       1.00800           0
     38957 TIP3     9681     TIP3     OH2      OT      -0.834000       15.9994           0
     38958 TIP3     9681     TIP3     H1       HT       0.417000       1.00800           0
     38959 TIP3     9681     TIP3     H2       HT       0.417000       1.00800           0
     38960 TIP3     9682     TIP3     OH2      OT      -0.834000       15.9994           0
     38961 TIP3     9682     TIP3     H1       HT       0.417000       1.00800           0
     38962 TIP3     9682     TIP3     H2       HT       0.417000       1.00800           0
     38963 TIP3     9683     TIP3     OH2      OT      -0.834000       15.9994           0
     38964 TIP3     9683     TIP3     H1       HT       0.417000       1.00800           0
     38965 TIP3     9683     TIP3     H2       HT       0.417000       1.00800           0
     38966 TIP3     9684     TIP3     OH2      OT      -0.834000       15.9994           0
     38967 TIP3     9684     TIP3     H1       HT       0.417000       1.00800           0
     38968 TIP3     9684     TIP3     H2       HT       0.417000       1.00800           0
     38969 TIP3     9685     TIP3     OH2      OT      -0.834000       15.9994           0
     38970 TIP3     9685     TIP3     H1       HT       0.417000       1.00800           0
     38971 TIP3     9685     TIP3     H2       HT       0.417000       1.00800           0
     38972 TIP3     9686     TIP3     OH2      OT      -0.834000       15.9994           0
     38973 TIP3     9686     TIP3     H1       HT       0.417000       1.00800           0
     38974 TIP3     9686     TIP3     H2       HT       0.417000       1.00800           0
     38975 TIP3     9687     TIP3     OH2      OT      -0.834000       15.9994           0
     38976 TIP3     9687     TIP3     H1       HT       0.417000       1.00800           0
     38977 TIP3     9687     TIP3     H2       HT       0.417000       1.00800           0
     38978 TIP3     9688     TIP3     OH2      OT      -0.834000       15.9994           0
     38979 TIP3     9688     TIP3     H1       HT       0.417000       1.00800           0
     38980 TIP3     9688     TIP3     H2       HT       0.417000       1.00800           0
     38981 TIP3     9689     TIP3     OH2      OT      -0.834000       15.9994           0
     38982 TIP3     9689     TIP3     H1       HT       0.417000       1.00800           0
     38983 TIP3     9689     TIP3     H2       HT       0.417000       1.00800           0
     38984 TIP3     9690     TIP3     OH2      OT      -0.834000       15.9994           0
     38985 TIP3     9690     TIP3     H1       HT       0.417000       1.00800           0
     38986 TIP3     9690     TIP3     H2       HT       0.417000       1.00800           0
     38987 TIP3     9691     TIP3     OH2      OT      -0.834000       15.9994           0
     38988 TIP3     9691     TIP3     H1       HT       0.417000       1.00800           0
     38989 TIP3     9691     TIP3     H2       HT       0.417000       1.00800           0
     38990 TIP3     9692     TIP3     OH2      OT      -0.834000       15.9994           0
     38991 TIP3     9692     TIP3     H1       HT       0.417000       1.00800           0
     38992 TIP3     9692     TIP3     H2       HT       0.417000       1.00800           0
     38993 TIP3     9693     TIP3     OH2      OT      -0.834000       15.9994           0
     38994 TIP3     9693     TIP3     H1       HT       0.417000       1.00800           0
     38995 TIP3     9693     TIP3     H2       HT       0.417000       1.00800           0
     38996 TIP3     9694     TIP3     OH2      OT      -0.834000       15.9994           0
     38997 TIP3     9694     TIP3     H1       HT       0.417000       1.00800           0
     38998 TIP3     9694     TIP3     H2       HT       0.417000       1.00800           0
     38999 TIP3     9695     TIP3     OH2      OT      -0.834000       15.9994           0
     39000 TIP3     9695     TIP3     H1       HT       0.417000       1.00800           0
     39001 TIP3     9695     TIP3     H2       HT       0.417000       1.00800           0
     39002 TIP3     9696     TIP3     OH2      OT      -0.834000       15.9994           0
     39003 TIP3     9696     TIP3     H1       HT       0.417000       1.00800           0
     39004 TIP3     9696     TIP3     H2       HT       0.417000       1.00800           0
     39005 TIP3     9697     TIP3     OH2      OT      -0.834000       15.9994           0
     39006 TIP3     9697     TIP3     H1       HT       0.417000       1.00800           0
     39007 TIP3     9697     TIP3     H2       HT       0.417000       1.00800           0
     39008 TIP3     9698     TIP3     OH2      OT      -0.834000       15.9994           0
     39009 TIP3     9698     TIP3     H1       HT       0.417000       1.00800           0
     39010 TIP3     9698     TIP3     H2       HT       0.417000       1.00800           0
     39011 TIP3     9699     TIP3     OH2      OT      -0.834000       15.9994           0
     39012 TIP3     9699     TIP3     H1       HT       0.417000       1.00800           0
     39013 TIP3     9699     TIP3     H2       HT       0.417000       1.00800           0
     39014 TIP3     9700     TIP3     OH2      OT      -0.834000       15.9994           0
     39015 TIP3     9700     TIP3     H1       HT       0.417000       1.00800           0
     39016 TIP3     9700     TIP3     H2       HT       0.417000       1.00800           0
     39017 TIP3     9701     TIP3     OH2      OT      -0.834000       15.9994           0
     39018 TIP3     9701     TIP3     H1       HT       0.417000       1.00800           0
     39019 TIP3     9701     TIP3     H2       HT       0.417000       1.00800           0
     39020 TIP3     9702     TIP3     OH2      OT      -0.834000       15.9994           0
     39021 TIP3     9702     TIP3     H1       HT       0.417000       1.00800           0
     39022 TIP3     9702     TIP3     H2       HT       0.417000       1.00800           0
     39023 TIP3     9703     TIP3     OH2      OT      -0.834000       15.9994           0
     39024 TIP3     9703     TIP3     H1       HT       0.417000       1.00800           0
     39025 TIP3     9703     TIP3     H2       HT       0.417000       1.00800           0
     39026 TIP3     9704     TIP3     OH2      OT      -0.834000       15.9994           0
     39027 TIP3     9704     TIP3     H1       HT       0.417000       1.00800           0
     39028 TIP3     9704     TIP3     H2       HT       0.417000       1.00800           0
     39029 TIP3     9705     TIP3     OH2      OT      -0.834000       15.9994           0
     39030 TIP3     9705     TIP3     H1       HT       0.417000       1.00800           0
     39031 TIP3     9705     TIP3     H2       HT       0.417000       1.00800           0
     39032 TIP3     9706     TIP3     OH2      OT      -0.834000       15.9994           0
     39033 TIP3     9706     TIP3     H1       HT       0.417000       1.00800           0
     39034 TIP3     9706     TIP3     H2       HT       0.417000       1.00800           0
     39035 TIP3     9707     TIP3     OH2      OT      -0.834000       15.9994           0
     39036 TIP3     9707     TIP3     H1       HT       0.417000       1.00800           0
     39037 TIP3     9707     TIP3     H2       HT       0.417000       1.00800           0
     39038 TIP3     9708     TIP3     OH2      OT      -0.834000       15.9994           0
     39039 TIP3     9708     TIP3     H1       HT       0.417000       1.00800           0
     39040 TIP3     9708     TIP3     H2       HT       0.417000       1.00800           0
     39041 TIP3     9709     TIP3     OH2      OT      -0.834000       15.9994           0
     39042 TIP3     9709     TIP3     H1       HT       0.417000       1.00800           0
     39043 TIP3     9709     TIP3     H2       HT       0.417000       1.00800           0
     39044 TIP3     9710     TIP3     OH2      OT      -0.834000       15.9994           0
     39045 TIP3     9710     TIP3     H1       HT       0.417000       1.00800           0
     39046 TIP3     9710     TIP3     H2       HT       0.417000       1.00800           0
     39047 TIP3     9711     TIP3     OH2      OT      -0.834000       15.9994           0
     39048 TIP3     9711     TIP3     H1       HT       0.417000       1.00800           0
     39049 TIP3     9711     TIP3     H2       HT       0.417000       1.00800           0
     39050 TIP3     9712     TIP3     OH2      OT      -0.834000       15.9994           0
     39051 TIP3     9712     TIP3     H1       HT       0.417000       1.00800           0
     39052 TIP3     9712     TIP3     H2       HT       0.417000       1.00800           0
     39053 TIP3     9713     TIP3     OH2      OT      -0.834000       15.9994           0
     39054 TIP3     9713     TIP3     H1       HT       0.417000       1.00800           0
     39055 TIP3     9713     TIP3     H2       HT       0.417000       1.00800           0
     39056 TIP3     9714     TIP3     OH2      OT      -0.834000       15.9994           0
     39057 TIP3     9714     TIP3     H1       HT       0.417000       1.00800           0
     39058 TIP3     9714     TIP3     H2       HT       0.417000       1.00800           0
     39059 TIP3     9715     TIP3     OH2      OT      -0.834000       15.9994           0
     39060 TIP3     9715     TIP3     H1       HT       0.417000       1.00800           0
     39061 TIP3     9715     TIP3     H2       HT       0.417000       1.00800           0
     39062 TIP3     9716     TIP3     OH2      OT      -0.834000       15.9994           0
     39063 TIP3     9716     TIP3     H1       HT       0.417000       1.00800           0
     39064 TIP3     9716     TIP3     H2       HT       0.417000       1.00800           0
     39065 TIP3     9717     TIP3     OH2      OT      -0.834000       15.9994           0
     39066 TIP3     9717     TIP3     H1       HT       0.417000       1.00800           0
     39067 TIP3     9717     TIP3     H2       HT       0.417000       1.00800           0
     39068 TIP3     9718     TIP3     OH2      OT      -0.834000       15.9994           0
     39069 TIP3     9718     TIP3     H1       HT       0.417000       1.00800           0
     39070 TIP3     9718     TIP3     H2       HT       0.417000       1.00800           0
     39071 TIP3     9719     TIP3     OH2      OT      -0.834000       15.9994           0
     39072 TIP3     9719     TIP3     H1       HT       0.417000       1.00800           0
     39073 TIP3     9719     TIP3     H2       HT       0.417000       1.00800           0
     39074 TIP3     9720     TIP3     OH2      OT      -0.834000       15.9994           0
     39075 TIP3     9720     TIP3     H1       HT       0.417000       1.00800           0
     39076 TIP3     9720     TIP3     H2       HT       0.417000       1.00800           0
     39077 TIP3     9721     TIP3     OH2      OT      -0.834000       15.9994           0
     39078 TIP3     9721     TIP3     H1       HT       0.417000       1.00800           0
     39079 TIP3     9721     TIP3     H2       HT       0.417000       1.00800           0
     39080 TIP3     9722     TIP3     OH2      OT      -0.834000       15.9994           0
     39081 TIP3     9722     TIP3     H1       HT       0.417000       1.00800           0
     39082 TIP3     9722     TIP3     H2       HT       0.417000       1.00800           0
     39083 TIP3     9723     TIP3     OH2      OT      -0.834000       15.9994           0
     39084 TIP3     9723     TIP3     H1       HT       0.417000       1.00800           0
     39085 TIP3     9723     TIP3     H2       HT       0.417000       1.00800           0
     39086 TIP3     9724     TIP3     OH2      OT      -0.834000       15.9994           0
     39087 TIP3     9724     TIP3     H1       HT       0.417000       1.00800           0
     39088 TIP3     9724     TIP3     H2       HT       0.417000       1.00800           0
     39089 TIP3     9725     TIP3     OH2      OT      -0.834000       15.9994           0
     39090 TIP3     9725     TIP3     H1       HT       0.417000       1.00800           0
     39091 TIP3     9725     TIP3     H2       HT       0.417000       1.00800           0
     39092 TIP3     9726     TIP3     OH2      OT      -0.834000       15.9994           0
     39093 TIP3     9726     TIP3     H1       HT       0.417000       1.00800           0
     39094 TIP3     9726     TIP3     H2       HT       0.417000       1.00800           0
     39095 TIP3     9727     TIP3     OH2      OT      -0.834000       15.9994           0
     39096 TIP3     9727     TIP3     H1       HT       0.417000       1.00800           0
     39097 TIP3     9727     TIP3     H2       HT       0.417000       1.00800           0
     39098 TIP3     9728     TIP3     OH2      OT      -0.834000       15.9994           0
     39099 TIP3     9728     TIP3     H1       HT       0.417000       1.00800           0
     39100 TIP3     9728     TIP3     H2       HT       0.417000       1.00800           0
     39101 TIP3     9729     TIP3     OH2      OT      -0.834000       15.9994           0
     39102 TIP3     9729     TIP3     H1       HT       0.417000       1.00800           0
     39103 TIP3     9729     TIP3     H2       HT       0.417000       1.00800           0
     39104 TIP3     9730     TIP3     OH2      OT      -0.834000       15.9994           0
     39105 TIP3     9730     TIP3     H1       HT       0.417000       1.00800           0
     39106 TIP3     9730     TIP3     H2       HT       0.417000       1.00800           0
     39107 TIP3     9731     TIP3     OH2      OT      -0.834000       15.9994           0
     39108 TIP3     9731     TIP3     H1       HT       0.417000       1.00800           0
     39109 TIP3     9731     TIP3     H2       HT       0.417000       1.00800           0
     39110 TIP3     9732     TIP3     OH2      OT      -0.834000       15.9994           0
     39111 TIP3     9732     TIP3     H1       HT       0.417000       1.00800           0
     39112 TIP3     9732     TIP3     H2       HT       0.417000       1.00800           0
     39113 TIP3     9733     TIP3     OH2      OT      -0.834000       15.9994           0
     39114 TIP3     9733     TIP3     H1       HT       0.417000       1.00800           0
     39115 TIP3     9733     TIP3     H2       HT       0.417000       1.00800           0
     39116 TIP3     9734     TIP3     OH2      OT      -0.834000       15.9994           0
     39117 TIP3     9734     TIP3     H1       HT       0.417000       1.00800           0
     39118 TIP3     9734     TIP3     H2       HT       0.417000       1.00800           0
     39119 TIP3     9735     TIP3     OH2      OT      -0.834000       15.9994           0
     39120 TIP3     9735     TIP3     H1       HT       0.417000       1.00800           0
     39121 TIP3     9735     TIP3     H2       HT       0.417000       1.00800           0
     39122 TIP3     9736     TIP3     OH2      OT      -0.834000       15.9994           0
     39123 TIP3     9736     TIP3     H1       HT       0.417000       1.00800           0
     39124 TIP3     9736     TIP3     H2       HT       0.417000       1.00800           0
     39125 TIP3     9737     TIP3     OH2      OT      -0.834000       15.9994           0
     39126 TIP3     9737     TIP3     H1       HT       0.417000       1.00800           0
     39127 TIP3     9737     TIP3     H2       HT       0.417000       1.00800           0
     39128 TIP3     9738     TIP3     OH2      OT      -0.834000       15.9994           0
     39129 TIP3     9738     TIP3     H1       HT       0.417000       1.00800           0
     39130 TIP3     9738     TIP3     H2       HT       0.417000       1.00800           0
     39131 TIP3     9739     TIP3     OH2      OT      -0.834000       15.9994           0
     39132 TIP3     9739     TIP3     H1       HT       0.417000       1.00800           0
     39133 TIP3     9739     TIP3     H2       HT       0.417000       1.00800           0
     39134 TIP3     9740     TIP3     OH2      OT      -0.834000       15.9994           0
     39135 TIP3     9740     TIP3     H1       HT       0.417000       1.00800           0
     39136 TIP3     9740     TIP3     H2       HT       0.417000       1.00800           0
     39137 TIP3     9741     TIP3     OH2      OT      -0.834000       15.9994           0
     39138 TIP3     9741     TIP3     H1       HT       0.417000       1.00800           0
     39139 TIP3     9741     TIP3     H2       HT       0.417000       1.00800           0
     39140 TIP3     9742     TIP3     OH2      OT      -0.834000       15.9994           0
     39141 TIP3     9742     TIP3     H1       HT       0.417000       1.00800           0
     39142 TIP3     9742     TIP3     H2       HT       0.417000       1.00800           0
     39143 TIP3     9743     TIP3     OH2      OT      -0.834000       15.9994           0
     39144 TIP3     9743     TIP3     H1       HT       0.417000       1.00800           0
     39145 TIP3     9743     TIP3     H2       HT       0.417000       1.00800           0
     39146 TIP3     9744     TIP3     OH2      OT      -0.834000       15.9994           0
     39147 TIP3     9744     TIP3     H1       HT       0.417000       1.00800           0
     39148 TIP3     9744     TIP3     H2       HT       0.417000       1.00800           0
     39149 TIP3     9745     TIP3     OH2      OT      -0.834000       15.9994           0
     39150 TIP3     9745     TIP3     H1       HT       0.417000       1.00800           0
     39151 TIP3     9745     TIP3     H2       HT       0.417000       1.00800           0
     39152 TIP3     9746     TIP3     OH2      OT      -0.834000       15.9994           0
     39153 TIP3     9746     TIP3     H1       HT       0.417000       1.00800           0
     39154 TIP3     9746     TIP3     H2       HT       0.417000       1.00800           0
     39155 TIP3     9747     TIP3     OH2      OT      -0.834000       15.9994           0
     39156 TIP3     9747     TIP3     H1       HT       0.417000       1.00800           0
     39157 TIP3     9747     TIP3     H2       HT       0.417000       1.00800           0
     39158 TIP3     9748     TIP3     OH2      OT      -0.834000       15.9994           0
     39159 TIP3     9748     TIP3     H1       HT       0.417000       1.00800           0
     39160 TIP3     9748     TIP3     H2       HT       0.417000       1.00800           0
     39161 TIP3     9749     TIP3     OH2      OT      -0.834000       15.9994           0
     39162 TIP3     9749     TIP3     H1       HT       0.417000       1.00800           0
     39163 TIP3     9749     TIP3     H2       HT       0.417000       1.00800           0
     39164 TIP3     9750     TIP3     OH2      OT      -0.834000       15.9994           0
     39165 TIP3     9750     TIP3     H1       HT       0.417000       1.00800           0
     39166 TIP3     9750     TIP3     H2       HT       0.417000       1.00800           0
     39167 TIP3     9751     TIP3     OH2      OT      -0.834000       15.9994           0
     39168 TIP3     9751     TIP3     H1       HT       0.417000       1.00800           0
     39169 TIP3     9751     TIP3     H2       HT       0.417000       1.00800           0
     39170 TIP3     9752     TIP3     OH2      OT      -0.834000       15.9994           0
     39171 TIP3     9752     TIP3     H1       HT       0.417000       1.00800           0
     39172 TIP3     9752     TIP3     H2       HT       0.417000       1.00800           0
     39173 TIP3     9753     TIP3     OH2      OT      -0.834000       15.9994           0
     39174 TIP3     9753     TIP3     H1       HT       0.417000       1.00800           0
     39175 TIP3     9753     TIP3     H2       HT       0.417000       1.00800           0
     39176 TIP3     9754     TIP3     OH2      OT      -0.834000       15.9994           0
     39177 TIP3     9754     TIP3     H1       HT       0.417000       1.00800           0
     39178 TIP3     9754     TIP3     H2       HT       0.417000       1.00800           0
     39179 TIP3     9755     TIP3     OH2      OT      -0.834000       15.9994           0
     39180 TIP3     9755     TIP3     H1       HT       0.417000       1.00800           0
     39181 TIP3     9755     TIP3     H2       HT       0.417000       1.00800           0
     39182 TIP3     9756     TIP3     OH2      OT      -0.834000       15.9994           0
     39183 TIP3     9756     TIP3     H1       HT       0.417000       1.00800           0
     39184 TIP3     9756     TIP3     H2       HT       0.417000       1.00800           0
     39185 TIP3     9757     TIP3     OH2      OT      -0.834000       15.9994           0
     39186 TIP3     9757     TIP3     H1       HT       0.417000       1.00800           0
     39187 TIP3     9757     TIP3     H2       HT       0.417000       1.00800           0
     39188 TIP3     9758     TIP3     OH2      OT      -0.834000       15.9994           0
     39189 TIP3     9758     TIP3     H1       HT       0.417000       1.00800           0
     39190 TIP3     9758     TIP3     H2       HT       0.417000       1.00800           0
     39191 TIP3     9759     TIP3     OH2      OT      -0.834000       15.9994           0
     39192 TIP3     9759     TIP3     H1       HT       0.417000       1.00800           0
     39193 TIP3     9759     TIP3     H2       HT       0.417000       1.00800           0
     39194 TIP3     9760     TIP3     OH2      OT      -0.834000       15.9994           0
     39195 TIP3     9760     TIP3     H1       HT       0.417000       1.00800           0
     39196 TIP3     9760     TIP3     H2       HT       0.417000       1.00800           0
     39197 TIP3     9761     TIP3     OH2      OT      -0.834000       15.9994           0
     39198 TIP3     9761     TIP3     H1       HT       0.417000       1.00800           0
     39199 TIP3     9761     TIP3     H2       HT       0.417000       1.00800           0
     39200 TIP3     9762     TIP3     OH2      OT      -0.834000       15.9994           0
     39201 TIP3     9762     TIP3     H1       HT       0.417000       1.00800           0
     39202 TIP3     9762     TIP3     H2       HT       0.417000       1.00800           0
     39203 TIP3     9763     TIP3     OH2      OT      -0.834000       15.9994           0
     39204 TIP3     9763     TIP3     H1       HT       0.417000       1.00800           0
     39205 TIP3     9763     TIP3     H2       HT       0.417000       1.00800           0
     39206 TIP3     9764     TIP3     OH2      OT      -0.834000       15.9994           0
     39207 TIP3     9764     TIP3     H1       HT       0.417000       1.00800           0
     39208 TIP3     9764     TIP3     H2       HT       0.417000       1.00800           0
     39209 TIP3     9765     TIP3     OH2      OT      -0.834000       15.9994           0
     39210 TIP3     9765     TIP3     H1       HT       0.417000       1.00800           0
     39211 TIP3     9765     TIP3     H2       HT       0.417000       1.00800           0
     39212 TIP3     9766     TIP3     OH2      OT      -0.834000       15.9994           0
     39213 TIP3     9766     TIP3     H1       HT       0.417000       1.00800           0
     39214 TIP3     9766     TIP3     H2       HT       0.417000       1.00800           0
     39215 TIP3     9767     TIP3     OH2      OT      -0.834000       15.9994           0
     39216 TIP3     9767     TIP3     H1       HT       0.417000       1.00800           0
     39217 TIP3     9767     TIP3     H2       HT       0.417000       1.00800           0
     39218 TIP3     9768     TIP3     OH2      OT      -0.834000       15.9994           0
     39219 TIP3     9768     TIP3     H1       HT       0.417000       1.00800           0
     39220 TIP3     9768     TIP3     H2       HT       0.417000       1.00800           0
     39221 TIP3     9769     TIP3     OH2      OT      -0.834000       15.9994           0
     39222 TIP3     9769     TIP3     H1       HT       0.417000       1.00800           0
     39223 TIP3     9769     TIP3     H2       HT       0.417000       1.00800           0
     39224 TIP3     9770     TIP3     OH2      OT      -0.834000       15.9994           0
     39225 TIP3     9770     TIP3     H1       HT       0.417000       1.00800           0
     39226 TIP3     9770     TIP3     H2       HT       0.417000       1.00800           0
     39227 TIP3     9771     TIP3     OH2      OT      -0.834000       15.9994           0
     39228 TIP3     9771     TIP3     H1       HT       0.417000       1.00800           0
     39229 TIP3     9771     TIP3     H2       HT       0.417000       1.00800           0
     39230 TIP3     9772     TIP3     OH2      OT      -0.834000       15.9994           0
     39231 TIP3     9772     TIP3     H1       HT       0.417000       1.00800           0
     39232 TIP3     9772     TIP3     H2       HT       0.417000       1.00800           0
     39233 TIP3     9773     TIP3     OH2      OT      -0.834000       15.9994           0
     39234 TIP3     9773     TIP3     H1       HT       0.417000       1.00800           0
     39235 TIP3     9773     TIP3     H2       HT       0.417000       1.00800           0
     39236 TIP3     9774     TIP3     OH2      OT      -0.834000       15.9994           0
     39237 TIP3     9774     TIP3     H1       HT       0.417000       1.00800           0
     39238 TIP3     9774     TIP3     H2       HT       0.417000       1.00800           0
     39239 TIP3     9775     TIP3     OH2      OT      -0.834000       15.9994           0
     39240 TIP3     9775     TIP3     H1       HT       0.417000       1.00800           0
     39241 TIP3     9775     TIP3     H2       HT       0.417000       1.00800           0
     39242 TIP3     9776     TIP3     OH2      OT      -0.834000       15.9994           0
     39243 TIP3     9776     TIP3     H1       HT       0.417000       1.00800           0
     39244 TIP3     9776     TIP3     H2       HT       0.417000       1.00800           0
     39245 TIP3     9777     TIP3     OH2      OT      -0.834000       15.9994           0
     39246 TIP3     9777     TIP3     H1       HT       0.417000       1.00800           0
     39247 TIP3     9777     TIP3     H2       HT       0.417000       1.00800           0
     39248 TIP3     9778     TIP3     OH2      OT      -0.834000       15.9994           0
     39249 TIP3     9778     TIP3     H1       HT       0.417000       1.00800           0
     39250 TIP3     9778     TIP3     H2       HT       0.417000       1.00800           0
     39251 TIP3     9779     TIP3     OH2      OT      -0.834000       15.9994           0
     39252 TIP3     9779     TIP3     H1       HT       0.417000       1.00800           0
     39253 TIP3     9779     TIP3     H2       HT       0.417000       1.00800           0
     39254 TIP3     9780     TIP3     OH2      OT      -0.834000       15.9994           0
     39255 TIP3     9780     TIP3     H1       HT       0.417000       1.00800           0
     39256 TIP3     9780     TIP3     H2       HT       0.417000       1.00800           0
     39257 TIP3     9781     TIP3     OH2      OT      -0.834000       15.9994           0
     39258 TIP3     9781     TIP3     H1       HT       0.417000       1.00800           0
     39259 TIP3     9781     TIP3     H2       HT       0.417000       1.00800           0
     39260 TIP3     9782     TIP3     OH2      OT      -0.834000       15.9994           0
     39261 TIP3     9782     TIP3     H1       HT       0.417000       1.00800           0
     39262 TIP3     9782     TIP3     H2       HT       0.417000       1.00800           0
     39263 TIP3     9783     TIP3     OH2      OT      -0.834000       15.9994           0
     39264 TIP3     9783     TIP3     H1       HT       0.417000       1.00800           0
     39265 TIP3     9783     TIP3     H2       HT       0.417000       1.00800           0
     39266 TIP3     9784     TIP3     OH2      OT      -0.834000       15.9994           0
     39267 TIP3     9784     TIP3     H1       HT       0.417000       1.00800           0
     39268 TIP3     9784     TIP3     H2       HT       0.417000       1.00800           0
     39269 TIP3     9785     TIP3     OH2      OT      -0.834000       15.9994           0
     39270 TIP3     9785     TIP3     H1       HT       0.417000       1.00800           0
     39271 TIP3     9785     TIP3     H2       HT       0.417000       1.00800           0
     39272 TIP3     9786     TIP3     OH2      OT      -0.834000       15.9994           0
     39273 TIP3     9786     TIP3     H1       HT       0.417000       1.00800           0
     39274 TIP3     9786     TIP3     H2       HT       0.417000       1.00800           0
     39275 TIP3     9787     TIP3     OH2      OT      -0.834000       15.9994           0
     39276 TIP3     9787     TIP3     H1       HT       0.417000       1.00800           0
     39277 TIP3     9787     TIP3     H2       HT       0.417000       1.00800           0
     39278 TIP3     9788     TIP3     OH2      OT      -0.834000       15.9994           0
     39279 TIP3     9788     TIP3     H1       HT       0.417000       1.00800           0
     39280 TIP3     9788     TIP3     H2       HT       0.417000       1.00800           0
     39281 TIP3     9789     TIP3     OH2      OT      -0.834000       15.9994           0
     39282 TIP3     9789     TIP3     H1       HT       0.417000       1.00800           0
     39283 TIP3     9789     TIP3     H2       HT       0.417000       1.00800           0
     39284 TIP3     9790     TIP3     OH2      OT      -0.834000       15.9994           0
     39285 TIP3     9790     TIP3     H1       HT       0.417000       1.00800           0
     39286 TIP3     9790     TIP3     H2       HT       0.417000       1.00800           0
     39287 TIP3     9791     TIP3     OH2      OT      -0.834000       15.9994           0
     39288 TIP3     9791     TIP3     H1       HT       0.417000       1.00800           0
     39289 TIP3     9791     TIP3     H2       HT       0.417000       1.00800           0
     39290 TIP3     9792     TIP3     OH2      OT      -0.834000       15.9994           0
     39291 TIP3     9792     TIP3     H1       HT       0.417000       1.00800           0
     39292 TIP3     9792     TIP3     H2       HT       0.417000       1.00800           0
     39293 TIP3     9793     TIP3     OH2      OT      -0.834000       15.9994           0
     39294 TIP3     9793     TIP3     H1       HT       0.417000       1.00800           0
     39295 TIP3     9793     TIP3     H2       HT       0.417000       1.00800           0
     39296 TIP3     9794     TIP3     OH2      OT      -0.834000       15.9994           0
     39297 TIP3     9794     TIP3     H1       HT       0.417000       1.00800           0
     39298 TIP3     9794     TIP3     H2       HT       0.417000       1.00800           0
     39299 TIP3     9795     TIP3     OH2      OT      -0.834000       15.9994           0
     39300 TIP3     9795     TIP3     H1       HT       0.417000       1.00800           0
     39301 TIP3     9795     TIP3     H2       HT       0.417000       1.00800           0
     39302 TIP3     9796     TIP3     OH2      OT      -0.834000       15.9994           0
     39303 TIP3     9796     TIP3     H1       HT       0.417000       1.00800           0
     39304 TIP3     9796     TIP3     H2       HT       0.417000       1.00800           0
     39305 TIP3     9797     TIP3     OH2      OT      -0.834000       15.9994           0
     39306 TIP3     9797     TIP3     H1       HT       0.417000       1.00800           0
     39307 TIP3     9797     TIP3     H2       HT       0.417000       1.00800           0
     39308 TIP3     9798     TIP3     OH2      OT      -0.834000       15.9994           0
     39309 TIP3     9798     TIP3     H1       HT       0.417000       1.00800           0
     39310 TIP3     9798     TIP3     H2       HT       0.417000       1.00800           0
     39311 TIP3     9799     TIP3     OH2      OT      -0.834000       15.9994           0
     39312 TIP3     9799     TIP3     H1       HT       0.417000       1.00800           0
     39313 TIP3     9799     TIP3     H2       HT       0.417000       1.00800           0
     39314 TIP3     9800     TIP3     OH2      OT      -0.834000       15.9994           0
     39315 TIP3     9800     TIP3     H1       HT       0.417000       1.00800           0
     39316 TIP3     9800     TIP3     H2       HT       0.417000       1.00800           0
     39317 TIP3     9801     TIP3     OH2      OT      -0.834000       15.9994           0
     39318 TIP3     9801     TIP3     H1       HT       0.417000       1.00800           0
     39319 TIP3     9801     TIP3     H2       HT       0.417000       1.00800           0
     39320 TIP3     9802     TIP3     OH2      OT      -0.834000       15.9994           0
     39321 TIP3     9802     TIP3     H1       HT       0.417000       1.00800           0
     39322 TIP3     9802     TIP3     H2       HT       0.417000       1.00800           0
     39323 TIP3     9803     TIP3     OH2      OT      -0.834000       15.9994           0
     39324 TIP3     9803     TIP3     H1       HT       0.417000       1.00800           0
     39325 TIP3     9803     TIP3     H2       HT       0.417000       1.00800           0
     39326 TIP3     9804     TIP3     OH2      OT      -0.834000       15.9994           0
     39327 TIP3     9804     TIP3     H1       HT       0.417000       1.00800           0
     39328 TIP3     9804     TIP3     H2       HT       0.417000       1.00800           0
     39329 TIP3     9805     TIP3     OH2      OT      -0.834000       15.9994           0
     39330 TIP3     9805     TIP3     H1       HT       0.417000       1.00800           0
     39331 TIP3     9805     TIP3     H2       HT       0.417000       1.00800           0
     39332 TIP3     9806     TIP3     OH2      OT      -0.834000       15.9994           0
     39333 TIP3     9806     TIP3     H1       HT       0.417000       1.00800           0
     39334 TIP3     9806     TIP3     H2       HT       0.417000       1.00800           0
     39335 TIP3     9807     TIP3     OH2      OT      -0.834000       15.9994           0
     39336 TIP3     9807     TIP3     H1       HT       0.417000       1.00800           0
     39337 TIP3     9807     TIP3     H2       HT       0.417000       1.00800           0
     39338 TIP3     9808     TIP3     OH2      OT      -0.834000       15.9994           0
     39339 TIP3     9808     TIP3     H1       HT       0.417000       1.00800           0
     39340 TIP3     9808     TIP3     H2       HT       0.417000       1.00800           0
     39341 TIP3     9809     TIP3     OH2      OT      -0.834000       15.9994           0
     39342 TIP3     9809     TIP3     H1       HT       0.417000       1.00800           0
     39343 TIP3     9809     TIP3     H2       HT       0.417000       1.00800           0
     39344 TIP3     9810     TIP3     OH2      OT      -0.834000       15.9994           0
     39345 TIP3     9810     TIP3     H1       HT       0.417000       1.00800           0
     39346 TIP3     9810     TIP3     H2       HT       0.417000       1.00800           0
     39347 TIP3     9811     TIP3     OH2      OT      -0.834000       15.9994           0
     39348 TIP3     9811     TIP3     H1       HT       0.417000       1.00800           0
     39349 TIP3     9811     TIP3     H2       HT       0.417000       1.00800           0
     39350 TIP3     9812     TIP3     OH2      OT      -0.834000       15.9994           0
     39351 TIP3     9812     TIP3     H1       HT       0.417000       1.00800           0
     39352 TIP3     9812     TIP3     H2       HT       0.417000       1.00800           0
     39353 TIP3     9813     TIP3     OH2      OT      -0.834000       15.9994           0
     39354 TIP3     9813     TIP3     H1       HT       0.417000       1.00800           0
     39355 TIP3     9813     TIP3     H2       HT       0.417000       1.00800           0
     39356 TIP3     9814     TIP3     OH2      OT      -0.834000       15.9994           0
     39357 TIP3     9814     TIP3     H1       HT       0.417000       1.00800           0
     39358 TIP3     9814     TIP3     H2       HT       0.417000       1.00800           0
     39359 TIP3     9815     TIP3     OH2      OT      -0.834000       15.9994           0
     39360 TIP3     9815     TIP3     H1       HT       0.417000       1.00800           0
     39361 TIP3     9815     TIP3     H2       HT       0.417000       1.00800           0
     39362 TIP3     9816     TIP3     OH2      OT      -0.834000       15.9994           0
     39363 TIP3     9816     TIP3     H1       HT       0.417000       1.00800           0
     39364 TIP3     9816     TIP3     H2       HT       0.417000       1.00800           0
     39365 TIP3     9817     TIP3     OH2      OT      -0.834000       15.9994           0
     39366 TIP3     9817     TIP3     H1       HT       0.417000       1.00800           0
     39367 TIP3     9817     TIP3     H2       HT       0.417000       1.00800           0
     39368 TIP3     9818     TIP3     OH2      OT      -0.834000       15.9994           0
     39369 TIP3     9818     TIP3     H1       HT       0.417000       1.00800           0
     39370 TIP3     9818     TIP3     H2       HT       0.417000       1.00800           0
     39371 TIP3     9819     TIP3     OH2      OT      -0.834000       15.9994           0
     39372 TIP3     9819     TIP3     H1       HT       0.417000       1.00800           0
     39373 TIP3     9819     TIP3     H2       HT       0.417000       1.00800           0
     39374 TIP3     9820     TIP3     OH2      OT      -0.834000       15.9994           0
     39375 TIP3     9820     TIP3     H1       HT       0.417000       1.00800           0
     39376 TIP3     9820     TIP3     H2       HT       0.417000       1.00800           0
     39377 TIP3     9821     TIP3     OH2      OT      -0.834000       15.9994           0
     39378 TIP3     9821     TIP3     H1       HT       0.417000       1.00800           0
     39379 TIP3     9821     TIP3     H2       HT       0.417000       1.00800           0
     39380 TIP3     9822     TIP3     OH2      OT      -0.834000       15.9994           0
     39381 TIP3     9822     TIP3     H1       HT       0.417000       1.00800           0
     39382 TIP3     9822     TIP3     H2       HT       0.417000       1.00800           0
     39383 TIP3     9823     TIP3     OH2      OT      -0.834000       15.9994           0
     39384 TIP3     9823     TIP3     H1       HT       0.417000       1.00800           0
     39385 TIP3     9823     TIP3     H2       HT       0.417000       1.00800           0
     39386 TIP3     9824     TIP3     OH2      OT      -0.834000       15.9994           0
     39387 TIP3     9824     TIP3     H1       HT       0.417000       1.00800           0
     39388 TIP3     9824     TIP3     H2       HT       0.417000       1.00800           0
     39389 TIP3     9825     TIP3     OH2      OT      -0.834000       15.9994           0
     39390 TIP3     9825     TIP3     H1       HT       0.417000       1.00800           0
     39391 TIP3     9825     TIP3     H2       HT       0.417000       1.00800           0
     39392 TIP3     9826     TIP3     OH2      OT      -0.834000       15.9994           0
     39393 TIP3     9826     TIP3     H1       HT       0.417000       1.00800           0
     39394 TIP3     9826     TIP3     H2       HT       0.417000       1.00800           0
     39395 TIP3     9827     TIP3     OH2      OT      -0.834000       15.9994           0
     39396 TIP3     9827     TIP3     H1       HT       0.417000       1.00800           0
     39397 TIP3     9827     TIP3     H2       HT       0.417000       1.00800           0
     39398 TIP3     9828     TIP3     OH2      OT      -0.834000       15.9994           0
     39399 TIP3     9828     TIP3     H1       HT       0.417000       1.00800           0
     39400 TIP3     9828     TIP3     H2       HT       0.417000       1.00800           0
     39401 TIP3     9829     TIP3     OH2      OT      -0.834000       15.9994           0
     39402 TIP3     9829     TIP3     H1       HT       0.417000       1.00800           0
     39403 TIP3     9829     TIP3     H2       HT       0.417000       1.00800           0
     39404 TIP3     9830     TIP3     OH2      OT      -0.834000       15.9994           0
     39405 TIP3     9830     TIP3     H1       HT       0.417000       1.00800           0
     39406 TIP3     9830     TIP3     H2       HT       0.417000       1.00800           0
     39407 TIP3     9831     TIP3     OH2      OT      -0.834000       15.9994           0
     39408 TIP3     9831     TIP3     H1       HT       0.417000       1.00800           0
     39409 TIP3     9831     TIP3     H2       HT       0.417000       1.00800           0
     39410 TIP3     9832     TIP3     OH2      OT      -0.834000       15.9994           0
     39411 TIP3     9832     TIP3     H1       HT       0.417000       1.00800           0
     39412 TIP3     9832     TIP3     H2       HT       0.417000       1.00800           0
     39413 TIP3     9833     TIP3     OH2      OT      -0.834000       15.9994           0
     39414 TIP3     9833     TIP3     H1       HT       0.417000       1.00800           0
     39415 TIP3     9833     TIP3     H2       HT       0.417000       1.00800           0
     39416 TIP3     9834     TIP3     OH2      OT      -0.834000       15.9994           0
     39417 TIP3     9834     TIP3     H1       HT       0.417000       1.00800           0
     39418 TIP3     9834     TIP3     H2       HT       0.417000       1.00800           0
     39419 TIP3     9835     TIP3     OH2      OT      -0.834000       15.9994           0
     39420 TIP3     9835     TIP3     H1       HT       0.417000       1.00800           0
     39421 TIP3     9835     TIP3     H2       HT       0.417000       1.00800           0
     39422 TIP3     9836     TIP3     OH2      OT      -0.834000       15.9994           0
     39423 TIP3     9836     TIP3     H1       HT       0.417000       1.00800           0
     39424 TIP3     9836     TIP3     H2       HT       0.417000       1.00800           0
     39425 TIP3     9837     TIP3     OH2      OT      -0.834000       15.9994           0
     39426 TIP3     9837     TIP3     H1       HT       0.417000       1.00800           0
     39427 TIP3     9837     TIP3     H2       HT       0.417000       1.00800           0
     39428 TIP3     9838     TIP3     OH2      OT      -0.834000       15.9994           0
     39429 TIP3     9838     TIP3     H1       HT       0.417000       1.00800           0
     39430 TIP3     9838     TIP3     H2       HT       0.417000       1.00800           0
     39431 TIP3     9839     TIP3     OH2      OT      -0.834000       15.9994           0
     39432 TIP3     9839     TIP3     H1       HT       0.417000       1.00800           0
     39433 TIP3     9839     TIP3     H2       HT       0.417000       1.00800           0
     39434 TIP3     9840     TIP3     OH2      OT      -0.834000       15.9994           0
     39435 TIP3     9840     TIP3     H1       HT       0.417000       1.00800           0
     39436 TIP3     9840     TIP3     H2       HT       0.417000       1.00800           0
     39437 TIP3     9841     TIP3     OH2      OT      -0.834000       15.9994           0
     39438 TIP3     9841     TIP3     H1       HT       0.417000       1.00800           0
     39439 TIP3     9841     TIP3     H2       HT       0.417000       1.00800           0
     39440 TIP3     9842     TIP3     OH2      OT      -0.834000       15.9994           0
     39441 TIP3     9842     TIP3     H1       HT       0.417000       1.00800           0
     39442 TIP3     9842     TIP3     H2       HT       0.417000       1.00800           0
     39443 TIP3     9843     TIP3     OH2      OT      -0.834000       15.9994           0
     39444 TIP3     9843     TIP3     H1       HT       0.417000       1.00800           0
     39445 TIP3     9843     TIP3     H2       HT       0.417000       1.00800           0
     39446 TIP3     9844     TIP3     OH2      OT      -0.834000       15.9994           0
     39447 TIP3     9844     TIP3     H1       HT       0.417000       1.00800           0
     39448 TIP3     9844     TIP3     H2       HT       0.417000       1.00800           0
     39449 TIP3     9845     TIP3     OH2      OT      -0.834000       15.9994           0
     39450 TIP3     9845     TIP3     H1       HT       0.417000       1.00800           0
     39451 TIP3     9845     TIP3     H2       HT       0.417000       1.00800           0
     39452 TIP3     9846     TIP3     OH2      OT      -0.834000       15.9994           0
     39453 TIP3     9846     TIP3     H1       HT       0.417000       1.00800           0
     39454 TIP3     9846     TIP3     H2       HT       0.417000       1.00800           0
     39455 TIP3     9847     TIP3     OH2      OT      -0.834000       15.9994           0
     39456 TIP3     9847     TIP3     H1       HT       0.417000       1.00800           0
     39457 TIP3     9847     TIP3     H2       HT       0.417000       1.00800           0
     39458 TIP3     9848     TIP3     OH2      OT      -0.834000       15.9994           0
     39459 TIP3     9848     TIP3     H1       HT       0.417000       1.00800           0
     39460 TIP3     9848     TIP3     H2       HT       0.417000       1.00800           0
     39461 TIP3     9849     TIP3     OH2      OT      -0.834000       15.9994           0
     39462 TIP3     9849     TIP3     H1       HT       0.417000       1.00800           0
     39463 TIP3     9849     TIP3     H2       HT       0.417000       1.00800           0
     39464 TIP3     9850     TIP3     OH2      OT      -0.834000       15.9994           0
     39465 TIP3     9850     TIP3     H1       HT       0.417000       1.00800           0
     39466 TIP3     9850     TIP3     H2       HT       0.417000       1.00800           0
     39467 TIP3     9851     TIP3     OH2      OT      -0.834000       15.9994           0
     39468 TIP3     9851     TIP3     H1       HT       0.417000       1.00800           0
     39469 TIP3     9851     TIP3     H2       HT       0.417000       1.00800           0
     39470 TIP3     9852     TIP3     OH2      OT      -0.834000       15.9994           0
     39471 TIP3     9852     TIP3     H1       HT       0.417000       1.00800           0
     39472 TIP3     9852     TIP3     H2       HT       0.417000       1.00800           0
     39473 TIP3     9853     TIP3     OH2      OT      -0.834000       15.9994           0
     39474 TIP3     9853     TIP3     H1       HT       0.417000       1.00800           0
     39475 TIP3     9853     TIP3     H2       HT       0.417000       1.00800           0
     39476 TIP3     9854     TIP3     OH2      OT      -0.834000       15.9994           0
     39477 TIP3     9854     TIP3     H1       HT       0.417000       1.00800           0
     39478 TIP3     9854     TIP3     H2       HT       0.417000       1.00800           0
     39479 TIP3     9855     TIP3     OH2      OT      -0.834000       15.9994           0
     39480 TIP3     9855     TIP3     H1       HT       0.417000       1.00800           0
     39481 TIP3     9855     TIP3     H2       HT       0.417000       1.00800           0
     39482 TIP3     9856     TIP3     OH2      OT      -0.834000       15.9994           0
     39483 TIP3     9856     TIP3     H1       HT       0.417000       1.00800           0
     39484 TIP3     9856     TIP3     H2       HT       0.417000       1.00800           0
     39485 TIP3     9857     TIP3     OH2      OT      -0.834000       15.9994           0
     39486 TIP3     9857     TIP3     H1       HT       0.417000       1.00800           0
     39487 TIP3     9857     TIP3     H2       HT       0.417000       1.00800           0
     39488 TIP3     9858     TIP3     OH2      OT      -0.834000       15.9994           0
     39489 TIP3     9858     TIP3     H1       HT       0.417000       1.00800           0
     39490 TIP3     9858     TIP3     H2       HT       0.417000       1.00800           0
     39491 TIP3     9859     TIP3     OH2      OT      -0.834000       15.9994           0
     39492 TIP3     9859     TIP3     H1       HT       0.417000       1.00800           0
     39493 TIP3     9859     TIP3     H2       HT       0.417000       1.00800           0
     39494 TIP3     9860     TIP3     OH2      OT      -0.834000       15.9994           0
     39495 TIP3     9860     TIP3     H1       HT       0.417000       1.00800           0
     39496 TIP3     9860     TIP3     H2       HT       0.417000       1.00800           0
     39497 TIP3     9861     TIP3     OH2      OT      -0.834000       15.9994           0
     39498 TIP3     9861     TIP3     H1       HT       0.417000       1.00800           0
     39499 TIP3     9861     TIP3     H2       HT       0.417000       1.00800           0
     39500 TIP3     9862     TIP3     OH2      OT      -0.834000       15.9994           0
     39501 TIP3     9862     TIP3     H1       HT       0.417000       1.00800           0
     39502 TIP3     9862     TIP3     H2       HT       0.417000       1.00800           0
     39503 TIP3     9863     TIP3     OH2      OT      -0.834000       15.9994           0
     39504 TIP3     9863     TIP3     H1       HT       0.417000       1.00800           0
     39505 TIP3     9863     TIP3     H2       HT       0.417000       1.00800           0
     39506 TIP3     9864     TIP3     OH2      OT      -0.834000       15.9994           0
     39507 TIP3     9864     TIP3     H1       HT       0.417000       1.00800           0
     39508 TIP3     9864     TIP3     H2       HT       0.417000       1.00800           0
     39509 TIP3     9865     TIP3     OH2      OT      -0.834000       15.9994           0
     39510 TIP3     9865     TIP3     H1       HT       0.417000       1.00800           0
     39511 TIP3     9865     TIP3     H2       HT       0.417000       1.00800           0
     39512 TIP3     9866     TIP3     OH2      OT      -0.834000       15.9994           0
     39513 TIP3     9866     TIP3     H1       HT       0.417000       1.00800           0
     39514 TIP3     9866     TIP3     H2       HT       0.417000       1.00800           0
     39515 TIP3     9867     TIP3     OH2      OT      -0.834000       15.9994           0
     39516 TIP3     9867     TIP3     H1       HT       0.417000       1.00800           0
     39517 TIP3     9867     TIP3     H2       HT       0.417000       1.00800           0
     39518 TIP3     9868     TIP3     OH2      OT      -0.834000       15.9994           0
     39519 TIP3     9868     TIP3     H1       HT       0.417000       1.00800           0
     39520 TIP3     9868     TIP3     H2       HT       0.417000       1.00800           0
     39521 TIP3     9869     TIP3     OH2      OT      -0.834000       15.9994           0
     39522 TIP3     9869     TIP3     H1       HT       0.417000       1.00800           0
     39523 TIP3     9869     TIP3     H2       HT       0.417000       1.00800           0
     39524 TIP3     9870     TIP3     OH2      OT      -0.834000       15.9994           0
     39525 TIP3     9870     TIP3     H1       HT       0.417000       1.00800           0
     39526 TIP3     9870     TIP3     H2       HT       0.417000       1.00800           0
     39527 TIP3     9871     TIP3     OH2      OT      -0.834000       15.9994           0
     39528 TIP3     9871     TIP3     H1       HT       0.417000       1.00800           0
     39529 TIP3     9871     TIP3     H2       HT       0.417000       1.00800           0
     39530 TIP3     9872     TIP3     OH2      OT      -0.834000       15.9994           0
     39531 TIP3     9872     TIP3     H1       HT       0.417000       1.00800           0
     39532 TIP3     9872     TIP3     H2       HT       0.417000       1.00800           0
     39533 TIP3     9873     TIP3     OH2      OT      -0.834000       15.9994           0
     39534 TIP3     9873     TIP3     H1       HT       0.417000       1.00800           0
     39535 TIP3     9873     TIP3     H2       HT       0.417000       1.00800           0
     39536 TIP3     9874     TIP3     OH2      OT      -0.834000       15.9994           0
     39537 TIP3     9874     TIP3     H1       HT       0.417000       1.00800           0
     39538 TIP3     9874     TIP3     H2       HT       0.417000       1.00800           0
     39539 TIP3     9875     TIP3     OH2      OT      -0.834000       15.9994           0
     39540 TIP3     9875     TIP3     H1       HT       0.417000       1.00800           0
     39541 TIP3     9875     TIP3     H2       HT       0.417000       1.00800           0
     39542 TIP3     9876     TIP3     OH2      OT      -0.834000       15.9994           0
     39543 TIP3     9876     TIP3     H1       HT       0.417000       1.00800           0
     39544 TIP3     9876     TIP3     H2       HT       0.417000       1.00800           0
     39545 TIP3     9877     TIP3     OH2      OT      -0.834000       15.9994           0
     39546 TIP3     9877     TIP3     H1       HT       0.417000       1.00800           0
     39547 TIP3     9877     TIP3     H2       HT       0.417000       1.00800           0
     39548 TIP3     9878     TIP3     OH2      OT      -0.834000       15.9994           0
     39549 TIP3     9878     TIP3     H1       HT       0.417000       1.00800           0
     39550 TIP3     9878     TIP3     H2       HT       0.417000       1.00800           0
     39551 TIP3     9879     TIP3     OH2      OT      -0.834000       15.9994           0
     39552 TIP3     9879     TIP3     H1       HT       0.417000       1.00800           0
     39553 TIP3     9879     TIP3     H2       HT       0.417000       1.00800           0
     39554 TIP3     9880     TIP3     OH2      OT      -0.834000       15.9994           0
     39555 TIP3     9880     TIP3     H1       HT       0.417000       1.00800           0
     39556 TIP3     9880     TIP3     H2       HT       0.417000       1.00800           0
     39557 TIP3     9881     TIP3     OH2      OT      -0.834000       15.9994           0
     39558 TIP3     9881     TIP3     H1       HT       0.417000       1.00800           0
     39559 TIP3     9881     TIP3     H2       HT       0.417000       1.00800           0
     39560 TIP3     9882     TIP3     OH2      OT      -0.834000       15.9994           0
     39561 TIP3     9882     TIP3     H1       HT       0.417000       1.00800           0
     39562 TIP3     9882     TIP3     H2       HT       0.417000       1.00800           0
     39563 TIP3     9883     TIP3     OH2      OT      -0.834000       15.9994           0
     39564 TIP3     9883     TIP3     H1       HT       0.417000       1.00800           0
     39565 TIP3     9883     TIP3     H2       HT       0.417000       1.00800           0
     39566 TIP3     9884     TIP3     OH2      OT      -0.834000       15.9994           0
     39567 TIP3     9884     TIP3     H1       HT       0.417000       1.00800           0
     39568 TIP3     9884     TIP3     H2       HT       0.417000       1.00800           0
     39569 TIP3     9885     TIP3     OH2      OT      -0.834000       15.9994           0
     39570 TIP3     9885     TIP3     H1       HT       0.417000       1.00800           0
     39571 TIP3     9885     TIP3     H2       HT       0.417000       1.00800           0
     39572 TIP3     9886     TIP3     OH2      OT      -0.834000       15.9994           0
     39573 TIP3     9886     TIP3     H1       HT       0.417000       1.00800           0
     39574 TIP3     9886     TIP3     H2       HT       0.417000       1.00800           0
     39575 TIP3     9887     TIP3     OH2      OT      -0.834000       15.9994           0
     39576 TIP3     9887     TIP3     H1       HT       0.417000       1.00800           0
     39577 TIP3     9887     TIP3     H2       HT       0.417000       1.00800           0
     39578 TIP3     9888     TIP3     OH2      OT      -0.834000       15.9994           0
     39579 TIP3     9888     TIP3     H1       HT       0.417000       1.00800           0
     39580 TIP3     9888     TIP3     H2       HT       0.417000       1.00800           0
     39581 TIP3     9889     TIP3     OH2      OT      -0.834000       15.9994           0
     39582 TIP3     9889     TIP3     H1       HT       0.417000       1.00800           0
     39583 TIP3     9889     TIP3     H2       HT       0.417000       1.00800           0
     39584 TIP3     9890     TIP3     OH2      OT      -0.834000       15.9994           0
     39585 TIP3     9890     TIP3     H1       HT       0.417000       1.00800           0
     39586 TIP3     9890     TIP3     H2       HT       0.417000       1.00800           0
     39587 TIP3     9891     TIP3     OH2      OT      -0.834000       15.9994           0
     39588 TIP3     9891     TIP3     H1       HT       0.417000       1.00800           0
     39589 TIP3     9891     TIP3     H2       HT       0.417000       1.00800           0
     39590 TIP3     9892     TIP3     OH2      OT      -0.834000       15.9994           0
     39591 TIP3     9892     TIP3     H1       HT       0.417000       1.00800           0
     39592 TIP3     9892     TIP3     H2       HT       0.417000       1.00800           0
     39593 TIP3     9893     TIP3     OH2      OT      -0.834000       15.9994           0
     39594 TIP3     9893     TIP3     H1       HT       0.417000       1.00800           0
     39595 TIP3     9893     TIP3     H2       HT       0.417000       1.00800           0
     39596 TIP3     9894     TIP3     OH2      OT      -0.834000       15.9994           0
     39597 TIP3     9894     TIP3     H1       HT       0.417000       1.00800           0
     39598 TIP3     9894     TIP3     H2       HT       0.417000       1.00800           0
     39599 TIP3     9895     TIP3     OH2      OT      -0.834000       15.9994           0
     39600 TIP3     9895     TIP3     H1       HT       0.417000       1.00800           0
     39601 TIP3     9895     TIP3     H2       HT       0.417000       1.00800           0
     39602 TIP3     9896     TIP3     OH2      OT      -0.834000       15.9994           0
     39603 TIP3     9896     TIP3     H1       HT       0.417000       1.00800           0
     39604 TIP3     9896     TIP3     H2       HT       0.417000       1.00800           0
     39605 TIP3     9897     TIP3     OH2      OT      -0.834000       15.9994           0
     39606 TIP3     9897     TIP3     H1       HT       0.417000       1.00800           0
     39607 TIP3     9897     TIP3     H2       HT       0.417000       1.00800           0
     39608 TIP3     9898     TIP3     OH2      OT      -0.834000       15.9994           0
     39609 TIP3     9898     TIP3     H1       HT       0.417000       1.00800           0
     39610 TIP3     9898     TIP3     H2       HT       0.417000       1.00800           0
     39611 TIP3     9899     TIP3     OH2      OT      -0.834000       15.9994           0
     39612 TIP3     9899     TIP3     H1       HT       0.417000       1.00800           0
     39613 TIP3     9899     TIP3     H2       HT       0.417000       1.00800           0
     39614 TIP3     9900     TIP3     OH2      OT      -0.834000       15.9994           0
     39615 TIP3     9900     TIP3     H1       HT       0.417000       1.00800           0
     39616 TIP3     9900     TIP3     H2       HT       0.417000       1.00800           0
     39617 TIP3     9901     TIP3     OH2      OT      -0.834000       15.9994           0
     39618 TIP3     9901     TIP3     H1       HT       0.417000       1.00800           0
     39619 TIP3     9901     TIP3     H2       HT       0.417000       1.00800           0
     39620 TIP3     9902     TIP3     OH2      OT      -0.834000       15.9994           0
     39621 TIP3     9902     TIP3     H1       HT       0.417000       1.00800           0
     39622 TIP3     9902     TIP3     H2       HT       0.417000       1.00800           0
     39623 TIP3     9903     TIP3     OH2      OT      -0.834000       15.9994           0
     39624 TIP3     9903     TIP3     H1       HT       0.417000       1.00800           0
     39625 TIP3     9903     TIP3     H2       HT       0.417000       1.00800           0
     39626 TIP3     9904     TIP3     OH2      OT      -0.834000       15.9994           0
     39627 TIP3     9904     TIP3     H1       HT       0.417000       1.00800           0
     39628 TIP3     9904     TIP3     H2       HT       0.417000       1.00800           0
     39629 TIP3     9905     TIP3     OH2      OT      -0.834000       15.9994           0
     39630 TIP3     9905     TIP3     H1       HT       0.417000       1.00800           0
     39631 TIP3     9905     TIP3     H2       HT       0.417000       1.00800           0
     39632 TIP3     9906     TIP3     OH2      OT      -0.834000       15.9994           0
     39633 TIP3     9906     TIP3     H1       HT       0.417000       1.00800           0
     39634 TIP3     9906     TIP3     H2       HT       0.417000       1.00800           0
     39635 TIP3     9907     TIP3     OH2      OT      -0.834000       15.9994           0
     39636 TIP3     9907     TIP3     H1       HT       0.417000       1.00800           0
     39637 TIP3     9907     TIP3     H2       HT       0.417000       1.00800           0
     39638 TIP3     9908     TIP3     OH2      OT      -0.834000       15.9994           0
     39639 TIP3     9908     TIP3     H1       HT       0.417000       1.00800           0
     39640 TIP3     9908     TIP3     H2       HT       0.417000       1.00800           0
     39641 TIP3     9909     TIP3     OH2      OT      -0.834000       15.9994           0
     39642 TIP3     9909     TIP3     H1       HT       0.417000       1.00800           0
     39643 TIP3     9909     TIP3     H2       HT       0.417000       1.00800           0
     39644 TIP3     9910     TIP3     OH2      OT      -0.834000       15.9994           0
     39645 TIP3     9910     TIP3     H1       HT       0.417000       1.00800           0
     39646 TIP3     9910     TIP3     H2       HT       0.417000       1.00800           0
     39647 TIP3     9911     TIP3     OH2      OT      -0.834000       15.9994           0
     39648 TIP3     9911     TIP3     H1       HT       0.417000       1.00800           0
     39649 TIP3     9911     TIP3     H2       HT       0.417000       1.00800           0
     39650 TIP3     9912     TIP3     OH2      OT      -0.834000       15.9994           0
     39651 TIP3     9912     TIP3     H1       HT       0.417000       1.00800           0
     39652 TIP3     9912     TIP3     H2       HT       0.417000       1.00800           0
     39653 TIP3     9913     TIP3     OH2      OT      -0.834000       15.9994           0
     39654 TIP3     9913     TIP3     H1       HT       0.417000       1.00800           0
     39655 TIP3     9913     TIP3     H2       HT       0.417000       1.00800           0
     39656 TIP3     9914     TIP3     OH2      OT      -0.834000       15.9994           0
     39657 TIP3     9914     TIP3     H1       HT       0.417000       1.00800           0
     39658 TIP3     9914     TIP3     H2       HT       0.417000       1.00800           0
     39659 TIP3     9915     TIP3     OH2      OT      -0.834000       15.9994           0
     39660 TIP3     9915     TIP3     H1       HT       0.417000       1.00800           0
     39661 TIP3     9915     TIP3     H2       HT       0.417000       1.00800           0
     39662 TIP3     9916     TIP3     OH2      OT      -0.834000       15.9994           0
     39663 TIP3     9916     TIP3     H1       HT       0.417000       1.00800           0
     39664 TIP3     9916     TIP3     H2       HT       0.417000       1.00800           0
     39665 TIP3     9917     TIP3     OH2      OT      -0.834000       15.9994           0
     39666 TIP3     9917     TIP3     H1       HT       0.417000       1.00800           0
     39667 TIP3     9917     TIP3     H2       HT       0.417000       1.00800           0
     39668 TIP3     9918     TIP3     OH2      OT      -0.834000       15.9994           0
     39669 TIP3     9918     TIP3     H1       HT       0.417000       1.00800           0
     39670 TIP3     9918     TIP3     H2       HT       0.417000       1.00800           0
     39671 TIP3     9919     TIP3     OH2      OT      -0.834000       15.9994           0
     39672 TIP3     9919     TIP3     H1       HT       0.417000       1.00800           0
     39673 TIP3     9919     TIP3     H2       HT       0.417000       1.00800           0
     39674 TIP3     9920     TIP3     OH2      OT      -0.834000       15.9994           0
     39675 TIP3     9920     TIP3     H1       HT       0.417000       1.00800           0
     39676 TIP3     9920     TIP3     H2       HT       0.417000       1.00800           0
     39677 TIP3     9921     TIP3     OH2      OT      -0.834000       15.9994           0
     39678 TIP3     9921     TIP3     H1       HT       0.417000       1.00800           0
     39679 TIP3     9921     TIP3     H2       HT       0.417000       1.00800           0
     39680 TIP3     9922     TIP3     OH2      OT      -0.834000       15.9994           0
     39681 TIP3     9922     TIP3     H1       HT       0.417000       1.00800           0
     39682 TIP3     9922     TIP3     H2       HT       0.417000       1.00800           0
     39683 TIP3     9923     TIP3     OH2      OT      -0.834000       15.9994           0
     39684 TIP3     9923     TIP3     H1       HT       0.417000       1.00800           0
     39685 TIP3     9923     TIP3     H2       HT       0.417000       1.00800           0
     39686 TIP3     9924     TIP3     OH2      OT      -0.834000       15.9994           0
     39687 TIP3     9924     TIP3     H1       HT       0.417000       1.00800           0
     39688 TIP3     9924     TIP3     H2       HT       0.417000       1.00800           0
     39689 TIP3     9925     TIP3     OH2      OT      -0.834000       15.9994           0
     39690 TIP3     9925     TIP3     H1       HT       0.417000       1.00800           0
     39691 TIP3     9925     TIP3     H2       HT       0.417000       1.00800           0
     39692 TIP3     9926     TIP3     OH2      OT      -0.834000       15.9994           0
     39693 TIP3     9926     TIP3     H1       HT       0.417000       1.00800           0
     39694 TIP3     9926     TIP3     H2       HT       0.417000       1.00800           0
     39695 TIP3     9927     TIP3     OH2      OT      -0.834000       15.9994           0
     39696 TIP3     9927     TIP3     H1       HT       0.417000       1.00800           0
     39697 TIP3     9927     TIP3     H2       HT       0.417000       1.00800           0
     39698 TIP3     9928     TIP3     OH2      OT      -0.834000       15.9994           0
     39699 TIP3     9928     TIP3     H1       HT       0.417000       1.00800           0
     39700 TIP3     9928     TIP3     H2       HT       0.417000       1.00800           0
     39701 TIP3     9929     TIP3     OH2      OT      -0.834000       15.9994           0
     39702 TIP3     9929     TIP3     H1       HT       0.417000       1.00800           0
     39703 TIP3     9929     TIP3     H2       HT       0.417000       1.00800           0
     39704 TIP3     9930     TIP3     OH2      OT      -0.834000       15.9994           0
     39705 TIP3     9930     TIP3     H1       HT       0.417000       1.00800           0
     39706 TIP3     9930     TIP3     H2       HT       0.417000       1.00800           0
     39707 TIP3     9931     TIP3     OH2      OT      -0.834000       15.9994           0
     39708 TIP3     9931     TIP3     H1       HT       0.417000       1.00800           0
     39709 TIP3     9931     TIP3     H2       HT       0.417000       1.00800           0
     39710 TIP3     9932     TIP3     OH2      OT      -0.834000       15.9994           0
     39711 TIP3     9932     TIP3     H1       HT       0.417000       1.00800           0
     39712 TIP3     9932     TIP3     H2       HT       0.417000       1.00800           0
     39713 TIP3     9933     TIP3     OH2      OT      -0.834000       15.9994           0
     39714 TIP3     9933     TIP3     H1       HT       0.417000       1.00800           0
     39715 TIP3     9933     TIP3     H2       HT       0.417000       1.00800           0
     39716 TIP3     9934     TIP3     OH2      OT      -0.834000       15.9994           0
     39717 TIP3     9934     TIP3     H1       HT       0.417000       1.00800           0
     39718 TIP3     9934     TIP3     H2       HT       0.417000       1.00800           0
     39719 TIP3     9935     TIP3     OH2      OT      -0.834000       15.9994           0
     39720 TIP3     9935     TIP3     H1       HT       0.417000       1.00800           0
     39721 TIP3     9935     TIP3     H2       HT       0.417000       1.00800           0
     39722 TIP3     9936     TIP3     OH2      OT      -0.834000       15.9994           0
     39723 TIP3     9936     TIP3     H1       HT       0.417000       1.00800           0
     39724 TIP3     9936     TIP3     H2       HT       0.417000       1.00800           0
     39725 TIP3     9937     TIP3     OH2      OT      -0.834000       15.9994           0
     39726 TIP3     9937     TIP3     H1       HT       0.417000       1.00800           0
     39727 TIP3     9937     TIP3     H2       HT       0.417000       1.00800           0
     39728 TIP3     9938     TIP3     OH2      OT      -0.834000       15.9994           0
     39729 TIP3     9938     TIP3     H1       HT       0.417000       1.00800           0
     39730 TIP3     9938     TIP3     H2       HT       0.417000       1.00800           0
     39731 TIP3     9939     TIP3     OH2      OT      -0.834000       15.9994           0
     39732 TIP3     9939     TIP3     H1       HT       0.417000       1.00800           0
     39733 TIP3     9939     TIP3     H2       HT       0.417000       1.00800           0
     39734 TIP3     9940     TIP3     OH2      OT      -0.834000       15.9994           0
     39735 TIP3     9940     TIP3     H1       HT       0.417000       1.00800           0
     39736 TIP3     9940     TIP3     H2       HT       0.417000       1.00800           0
     39737 TIP3     9941     TIP3     OH2      OT      -0.834000       15.9994           0
     39738 TIP3     9941     TIP3     H1       HT       0.417000       1.00800           0
     39739 TIP3     9941     TIP3     H2       HT       0.417000       1.00800           0
     39740 TIP3     9942     TIP3     OH2      OT      -0.834000       15.9994           0
     39741 TIP3     9942     TIP3     H1       HT       0.417000       1.00800           0
     39742 TIP3     9942     TIP3     H2       HT       0.417000       1.00800           0
     39743 TIP3     9943     TIP3     OH2      OT      -0.834000       15.9994           0
     39744 TIP3     9943     TIP3     H1       HT       0.417000       1.00800           0
     39745 TIP3     9943     TIP3     H2       HT       0.417000       1.00800           0
     39746 TIP3     9944     TIP3     OH2      OT      -0.834000       15.9994           0
     39747 TIP3     9944     TIP3     H1       HT       0.417000       1.00800           0
     39748 TIP3     9944     TIP3     H2       HT       0.417000       1.00800           0
     39749 TIP3     9945     TIP3     OH2      OT      -0.834000       15.9994           0
     39750 TIP3     9945     TIP3     H1       HT       0.417000       1.00800           0
     39751 TIP3     9945     TIP3     H2       HT       0.417000       1.00800           0
     39752 TIP3     9946     TIP3     OH2      OT      -0.834000       15.9994           0
     39753 TIP3     9946     TIP3     H1       HT       0.417000       1.00800           0
     39754 TIP3     9946     TIP3     H2       HT       0.417000       1.00800           0
     39755 TIP3     9947     TIP3     OH2      OT      -0.834000       15.9994           0
     39756 TIP3     9947     TIP3     H1       HT       0.417000       1.00800           0
     39757 TIP3     9947     TIP3     H2       HT       0.417000       1.00800           0
     39758 TIP3     9948     TIP3     OH2      OT      -0.834000       15.9994           0
     39759 TIP3     9948     TIP3     H1       HT       0.417000       1.00800           0
     39760 TIP3     9948     TIP3     H2       HT       0.417000       1.00800           0
     39761 TIP3     9949     TIP3     OH2      OT      -0.834000       15.9994           0
     39762 TIP3     9949     TIP3     H1       HT       0.417000       1.00800           0
     39763 TIP3     9949     TIP3     H2       HT       0.417000       1.00800           0
     39764 TIP3     9950     TIP3     OH2      OT      -0.834000       15.9994           0
     39765 TIP3     9950     TIP3     H1       HT       0.417000       1.00800           0
     39766 TIP3     9950     TIP3     H2       HT       0.417000       1.00800           0
     39767 TIP3     9951     TIP3     OH2      OT      -0.834000       15.9994           0
     39768 TIP3     9951     TIP3     H1       HT       0.417000       1.00800           0
     39769 TIP3     9951     TIP3     H2       HT       0.417000       1.00800           0
     39770 TIP3     9952     TIP3     OH2      OT      -0.834000       15.9994           0
     39771 TIP3     9952     TIP3     H1       HT       0.417000       1.00800           0
     39772 TIP3     9952     TIP3     H2       HT       0.417000       1.00800           0
     39773 TIP3     9953     TIP3     OH2      OT      -0.834000       15.9994           0
     39774 TIP3     9953     TIP3     H1       HT       0.417000       1.00800           0
     39775 TIP3     9953     TIP3     H2       HT       0.417000       1.00800           0
     39776 TIP3     9954     TIP3     OH2      OT      -0.834000       15.9994           0
     39777 TIP3     9954     TIP3     H1       HT       0.417000       1.00800           0
     39778 TIP3     9954     TIP3     H2       HT       0.417000       1.00800           0
     39779 TIP3     9955     TIP3     OH2      OT      -0.834000       15.9994           0
     39780 TIP3     9955     TIP3     H1       HT       0.417000       1.00800           0
     39781 TIP3     9955     TIP3     H2       HT       0.417000       1.00800           0
     39782 TIP3     9956     TIP3     OH2      OT      -0.834000       15.9994           0
     39783 TIP3     9956     TIP3     H1       HT       0.417000       1.00800           0
     39784 TIP3     9956     TIP3     H2       HT       0.417000       1.00800           0
     39785 TIP3     9957     TIP3     OH2      OT      -0.834000       15.9994           0
     39786 TIP3     9957     TIP3     H1       HT       0.417000       1.00800           0
     39787 TIP3     9957     TIP3     H2       HT       0.417000       1.00800           0
     39788 TIP3     9958     TIP3     OH2      OT      -0.834000       15.9994           0
     39789 TIP3     9958     TIP3     H1       HT       0.417000       1.00800           0
     39790 TIP3     9958     TIP3     H2       HT       0.417000       1.00800           0
     39791 TIP3     9959     TIP3     OH2      OT      -0.834000       15.9994           0
     39792 TIP3     9959     TIP3     H1       HT       0.417000       1.00800           0
     39793 TIP3     9959     TIP3     H2       HT       0.417000       1.00800           0
     39794 TIP3     9960     TIP3     OH2      OT      -0.834000       15.9994           0
     39795 TIP3     9960     TIP3     H1       HT       0.417000       1.00800           0
     39796 TIP3     9960     TIP3     H2       HT       0.417000       1.00800           0
     39797 TIP3     9961     TIP3     OH2      OT      -0.834000       15.9994           0
     39798 TIP3     9961     TIP3     H1       HT       0.417000       1.00800           0
     39799 TIP3     9961     TIP3     H2       HT       0.417000       1.00800           0
     39800 TIP3     9962     TIP3     OH2      OT      -0.834000       15.9994           0
     39801 TIP3     9962     TIP3     H1       HT       0.417000       1.00800           0
     39802 TIP3     9962     TIP3     H2       HT       0.417000       1.00800           0
     39803 TIP3     9963     TIP3     OH2      OT      -0.834000       15.9994           0
     39804 TIP3     9963     TIP3     H1       HT       0.417000       1.00800           0
     39805 TIP3     9963     TIP3     H2       HT       0.417000       1.00800           0
     39806 TIP3     9964     TIP3     OH2      OT      -0.834000       15.9994           0
     39807 TIP3     9964     TIP3     H1       HT       0.417000       1.00800           0
     39808 TIP3     9964     TIP3     H2       HT       0.417000       1.00800           0
     39809 TIP3     9965     TIP3     OH2      OT      -0.834000       15.9994           0
     39810 TIP3     9965     TIP3     H1       HT       0.417000       1.00800           0
     39811 TIP3     9965     TIP3     H2       HT       0.417000       1.00800           0
     39812 TIP3     9966     TIP3     OH2      OT      -0.834000       15.9994           0
     39813 TIP3     9966     TIP3     H1       HT       0.417000       1.00800           0
     39814 TIP3     9966     TIP3     H2       HT       0.417000       1.00800           0
     39815 TIP3     9967     TIP3     OH2      OT      -0.834000       15.9994           0
     39816 TIP3     9967     TIP3     H1       HT       0.417000       1.00800           0
     39817 TIP3     9967     TIP3     H2       HT       0.417000       1.00800           0
     39818 TIP3     9968     TIP3     OH2      OT      -0.834000       15.9994           0
     39819 TIP3     9968     TIP3     H1       HT       0.417000       1.00800           0
     39820 TIP3     9968     TIP3     H2       HT       0.417000       1.00800           0
     39821 TIP3     9969     TIP3     OH2      OT      -0.834000       15.9994           0
     39822 TIP3     9969     TIP3     H1       HT       0.417000       1.00800           0
     39823 TIP3     9969     TIP3     H2       HT       0.417000       1.00800           0
     39824 TIP3     9970     TIP3     OH2      OT      -0.834000       15.9994           0
     39825 TIP3     9970     TIP3     H1       HT       0.417000       1.00800           0
     39826 TIP3     9970     TIP3     H2       HT       0.417000       1.00800           0
     39827 TIP3     9971     TIP3     OH2      OT      -0.834000       15.9994           0
     39828 TIP3     9971     TIP3     H1       HT       0.417000       1.00800           0
     39829 TIP3     9971     TIP3     H2       HT       0.417000       1.00800           0
     39830 TIP3     9972     TIP3     OH2      OT      -0.834000       15.9994           0
     39831 TIP3     9972     TIP3     H1       HT       0.417000       1.00800           0
     39832 TIP3     9972     TIP3     H2       HT       0.417000       1.00800           0
     39833 TIP3     9973     TIP3     OH2      OT      -0.834000       15.9994           0
     39834 TIP3     9973     TIP3     H1       HT       0.417000       1.00800           0
     39835 TIP3     9973     TIP3     H2       HT       0.417000       1.00800           0
     39836 TIP3     9974     TIP3     OH2      OT      -0.834000       15.9994           0
     39837 TIP3     9974     TIP3     H1       HT       0.417000       1.00800           0
     39838 TIP3     9974     TIP3     H2       HT       0.417000       1.00800           0
     39839 TIP3     9975     TIP3     OH2      OT      -0.834000       15.9994           0
     39840 TIP3     9975     TIP3     H1       HT       0.417000       1.00800           0
     39841 TIP3     9975     TIP3     H2       HT       0.417000       1.00800           0
     39842 TIP3     9976     TIP3     OH2      OT      -0.834000       15.9994           0
     39843 TIP3     9976     TIP3     H1       HT       0.417000       1.00800           0
     39844 TIP3     9976     TIP3     H2       HT       0.417000       1.00800           0
     39845 TIP3     9977     TIP3     OH2      OT      -0.834000       15.9994           0
     39846 TIP3     9977     TIP3     H1       HT       0.417000       1.00800           0
     39847 TIP3     9977     TIP3     H2       HT       0.417000       1.00800           0
     39848 TIP3     9978     TIP3     OH2      OT      -0.834000       15.9994           0
     39849 TIP3     9978     TIP3     H1       HT       0.417000       1.00800           0
     39850 TIP3     9978     TIP3     H2       HT       0.417000       1.00800           0
     39851 TIP3     9979     TIP3     OH2      OT      -0.834000       15.9994           0
     39852 TIP3     9979     TIP3     H1       HT       0.417000       1.00800           0
     39853 TIP3     9979     TIP3     H2       HT       0.417000       1.00800           0
     39854 TIP3     9980     TIP3     OH2      OT      -0.834000       15.9994           0
     39855 TIP3     9980     TIP3     H1       HT       0.417000       1.00800           0
     39856 TIP3     9980     TIP3     H2       HT       0.417000       1.00800           0
     39857 TIP3     9981     TIP3     OH2      OT      -0.834000       15.9994           0
     39858 TIP3     9981     TIP3     H1       HT       0.417000       1.00800           0
     39859 TIP3     9981     TIP3     H2       HT       0.417000       1.00800           0
     39860 TIP3     9982     TIP3     OH2      OT      -0.834000       15.9994           0
     39861 TIP3     9982     TIP3     H1       HT       0.417000       1.00800           0
     39862 TIP3     9982     TIP3     H2       HT       0.417000       1.00800           0
     39863 TIP3     9983     TIP3     OH2      OT      -0.834000       15.9994           0
     39864 TIP3     9983     TIP3     H1       HT       0.417000       1.00800           0
     39865 TIP3     9983     TIP3     H2       HT       0.417000       1.00800           0
     39866 TIP3     9984     TIP3     OH2      OT      -0.834000       15.9994           0
     39867 TIP3     9984     TIP3     H1       HT       0.417000       1.00800           0
     39868 TIP3     9984     TIP3     H2       HT       0.417000       1.00800           0
     39869 TIP3     9985     TIP3     OH2      OT      -0.834000       15.9994           0
     39870 TIP3     9985     TIP3     H1       HT       0.417000       1.00800           0
     39871 TIP3     9985     TIP3     H2       HT       0.417000       1.00800           0
     39872 TIP3     9986     TIP3     OH2      OT      -0.834000       15.9994           0
     39873 TIP3     9986     TIP3     H1       HT       0.417000       1.00800           0
     39874 TIP3     9986     TIP3     H2       HT       0.417000       1.00800           0
     39875 TIP3     9987     TIP3     OH2      OT      -0.834000       15.9994           0
     39876 TIP3     9987     TIP3     H1       HT       0.417000       1.00800           0
     39877 TIP3     9987     TIP3     H2       HT       0.417000       1.00800           0
     39878 TIP3     9988     TIP3     OH2      OT      -0.834000       15.9994           0
     39879 TIP3     9988     TIP3     H1       HT       0.417000       1.00800           0
     39880 TIP3     9988     TIP3     H2       HT       0.417000       1.00800           0
     39881 TIP3     9989     TIP3     OH2      OT      -0.834000       15.9994           0
     39882 TIP3     9989     TIP3     H1       HT       0.417000       1.00800           0
     39883 TIP3     9989     TIP3     H2       HT       0.417000       1.00800           0
     39884 TIP3     9990     TIP3     OH2      OT      -0.834000       15.9994           0
     39885 TIP3     9990     TIP3     H1       HT       0.417000       1.00800           0
     39886 TIP3     9990     TIP3     H2       HT       0.417000       1.00800           0
     39887 TIP3     9991     TIP3     OH2      OT      -0.834000       15.9994           0
     39888 TIP3     9991     TIP3     H1       HT       0.417000       1.00800           0
     39889 TIP3     9991     TIP3     H2       HT       0.417000       1.00800           0
     39890 TIP3     9992     TIP3     OH2      OT      -0.834000       15.9994           0
     39891 TIP3     9992     TIP3     H1       HT       0.417000       1.00800           0
     39892 TIP3     9992     TIP3     H2       HT       0.417000       1.00800           0
     39893 TIP3     9993     TIP3     OH2      OT      -0.834000       15.9994           0
     39894 TIP3     9993     TIP3     H1       HT       0.417000       1.00800           0
     39895 TIP3     9993     TIP3     H2       HT       0.417000       1.00800           0
     39896 TIP3     9994     TIP3     OH2      OT      -0.834000       15.9994           0
     39897 TIP3     9994     TIP3     H1       HT       0.417000       1.00800           0
     39898 TIP3     9994     TIP3     H2       HT       0.417000       1.00800           0
     39899 TIP3     9995     TIP3     OH2      OT      -0.834000       15.9994           0
     39900 TIP3     9995     TIP3     H1       HT       0.417000       1.00800           0
     39901 TIP3     9995     TIP3     H2       HT       0.417000       1.00800           0
     39902 TIP3     9996     TIP3     OH2      OT      -0.834000       15.9994           0
     39903 TIP3     9996     TIP3     H1       HT       0.417000       1.00800           0
     39904 TIP3     9996     TIP3     H2       HT       0.417000       1.00800           0
     39905 TIP3     9997     TIP3     OH2      OT      -0.834000       15.9994           0
     39906 TIP3     9997     TIP3     H1       HT       0.417000       1.00800           0
     39907 TIP3     9997     TIP3     H2       HT       0.417000       1.00800           0
     39908 TIP3     9998     TIP3     OH2      OT      -0.834000       15.9994           0
     39909 TIP3     9998     TIP3     H1       HT       0.417000       1.00800           0
     39910 TIP3     9998     TIP3     H2       HT       0.417000       1.00800           0
     39911 TIP3     9999     TIP3     OH2      OT      -0.834000       15.9994           0
     39912 TIP3     9999     TIP3     H1       HT       0.417000       1.00800           0
     39913 TIP3     9999     TIP3     H2       HT       0.417000       1.00800           0
     39914 TIP3     10000    TIP3     OH2      OT      -0.834000       15.9994           0
     39915 TIP3     10000    TIP3     H1       HT       0.417000       1.00800           0
     39916 TIP3     10000    TIP3     H2       HT       0.417000       1.00800           0
     39917 TIP3     10001    TIP3     OH2      OT      -0.834000       15.9994           0
     39918 TIP3     10001    TIP3     H1       HT       0.417000       1.00800           0
     39919 TIP3     10001    TIP3     H2       HT       0.417000       1.00800           0
     39920 TIP3     10002    TIP3     OH2      OT      -0.834000       15.9994           0
     39921 TIP3     10002    TIP3     H1       HT       0.417000       1.00800           0
     39922 TIP3     10002    TIP3     H2       HT       0.417000       1.00800           0
     39923 TIP3     10003    TIP3     OH2      OT      -0.834000       15.9994           0
     39924 TIP3     10003    TIP3     H1       HT       0.417000       1.00800           0
     39925 TIP3     10003    TIP3     H2       HT       0.417000       1.00800           0
     39926 TIP3     10004    TIP3     OH2      OT      -0.834000       15.9994           0
     39927 TIP3     10004    TIP3     H1       HT       0.417000       1.00800           0
     39928 TIP3     10004    TIP3     H2       HT       0.417000       1.00800           0
     39929 TIP3     10005    TIP3     OH2      OT      -0.834000       15.9994           0
     39930 TIP3     10005    TIP3     H1       HT       0.417000       1.00800           0
     39931 TIP3     10005    TIP3     H2       HT       0.417000       1.00800           0
     39932 TIP3     10006    TIP3     OH2      OT      -0.834000       15.9994           0
     39933 TIP3     10006    TIP3     H1       HT       0.417000       1.00800           0
     39934 TIP3     10006    TIP3     H2       HT       0.417000       1.00800           0
     39935 TIP3     10007    TIP3     OH2      OT      -0.834000       15.9994           0
     39936 TIP3     10007    TIP3     H1       HT       0.417000       1.00800           0
     39937 TIP3     10007    TIP3     H2       HT       0.417000       1.00800           0
     39938 TIP3     10008    TIP3     OH2      OT      -0.834000       15.9994           0
     39939 TIP3     10008    TIP3     H1       HT       0.417000       1.00800           0
     39940 TIP3     10008    TIP3     H2       HT       0.417000       1.00800           0
     39941 TIP3     10009    TIP3     OH2      OT      -0.834000       15.9994           0
     39942 TIP3     10009    TIP3     H1       HT       0.417000       1.00800           0
     39943 TIP3     10009    TIP3     H2       HT       0.417000       1.00800           0
     39944 TIP3     10010    TIP3     OH2      OT      -0.834000       15.9994           0
     39945 TIP3     10010    TIP3     H1       HT       0.417000       1.00800           0
     39946 TIP3     10010    TIP3     H2       HT       0.417000       1.00800           0
     39947 TIP3     10011    TIP3     OH2      OT      -0.834000       15.9994           0
     39948 TIP3     10011    TIP3     H1       HT       0.417000       1.00800           0
     39949 TIP3     10011    TIP3     H2       HT       0.417000       1.00800           0
     39950 TIP3     10012    TIP3     OH2      OT      -0.834000       15.9994           0
     39951 TIP3     10012    TIP3     H1       HT       0.417000       1.00800           0
     39952 TIP3     10012    TIP3     H2       HT       0.417000       1.00800           0
     39953 TIP3     10013    TIP3     OH2      OT      -0.834000       15.9994           0
     39954 TIP3     10013    TIP3     H1       HT       0.417000       1.00800           0
     39955 TIP3     10013    TIP3     H2       HT       0.417000       1.00800           0
     39956 TIP3     10014    TIP3     OH2      OT      -0.834000       15.9994           0
     39957 TIP3     10014    TIP3     H1       HT       0.417000       1.00800           0
     39958 TIP3     10014    TIP3     H2       HT       0.417000       1.00800           0
     39959 TIP3     10015    TIP3     OH2      OT      -0.834000       15.9994           0
     39960 TIP3     10015    TIP3     H1       HT       0.417000       1.00800           0
     39961 TIP3     10015    TIP3     H2       HT       0.417000       1.00800           0
     39962 TIP3     10016    TIP3     OH2      OT      -0.834000       15.9994           0
     39963 TIP3     10016    TIP3     H1       HT       0.417000       1.00800           0
     39964 TIP3     10016    TIP3     H2       HT       0.417000       1.00800           0
     39965 TIP3     10017    TIP3     OH2      OT      -0.834000       15.9994           0
     39966 TIP3     10017    TIP3     H1       HT       0.417000       1.00800           0
     39967 TIP3     10017    TIP3     H2       HT       0.417000       1.00800           0
     39968 TIP3     10018    TIP3     OH2      OT      -0.834000       15.9994           0
     39969 TIP3     10018    TIP3     H1       HT       0.417000       1.00800           0
     39970 TIP3     10018    TIP3     H2       HT       0.417000       1.00800           0
     39971 TIP3     10019    TIP3     OH2      OT      -0.834000       15.9994           0
     39972 TIP3     10019    TIP3     H1       HT       0.417000       1.00800           0
     39973 TIP3     10019    TIP3     H2       HT       0.417000       1.00800           0
     39974 TIP3     10020    TIP3     OH2      OT      -0.834000       15.9994           0
     39975 TIP3     10020    TIP3     H1       HT       0.417000       1.00800           0
     39976 TIP3     10020    TIP3     H2       HT       0.417000       1.00800           0
     39977 TIP3     10021    TIP3     OH2      OT      -0.834000       15.9994           0
     39978 TIP3     10021    TIP3     H1       HT       0.417000       1.00800           0
     39979 TIP3     10021    TIP3     H2       HT       0.417000       1.00800           0
     39980 TIP3     10022    TIP3     OH2      OT      -0.834000       15.9994           0
     39981 TIP3     10022    TIP3     H1       HT       0.417000       1.00800           0
     39982 TIP3     10022    TIP3     H2       HT       0.417000       1.00800           0
     39983 TIP3     10023    TIP3     OH2      OT      -0.834000       15.9994           0
     39984 TIP3     10023    TIP3     H1       HT       0.417000       1.00800           0
     39985 TIP3     10023    TIP3     H2       HT       0.417000       1.00800           0
     39986 TIP3     10024    TIP3     OH2      OT      -0.834000       15.9994           0
     39987 TIP3     10024    TIP3     H1       HT       0.417000       1.00800           0
     39988 TIP3     10024    TIP3     H2       HT       0.417000       1.00800           0
     39989 TIP3     10025    TIP3     OH2      OT      -0.834000       15.9994           0
     39990 TIP3     10025    TIP3     H1       HT       0.417000       1.00800           0
     39991 TIP3     10025    TIP3     H2       HT       0.417000       1.00800           0
     39992 TIP3     10026    TIP3     OH2      OT      -0.834000       15.9994           0
     39993 TIP3     10026    TIP3     H1       HT       0.417000       1.00800           0
     39994 TIP3     10026    TIP3     H2       HT       0.417000       1.00800           0
     39995 TIP3     10027    TIP3     OH2      OT      -0.834000       15.9994           0
     39996 TIP3     10027    TIP3     H1       HT       0.417000       1.00800           0
     39997 TIP3     10027    TIP3     H2       HT       0.417000       1.00800           0
     39998 TIP3     10028    TIP3     OH2      OT      -0.834000       15.9994           0
     39999 TIP3     10028    TIP3     H1       HT       0.417000       1.00800           0
     40000 TIP3     10028    TIP3     H2       HT       0.417000       1.00800           0
     40001 TIP3     10029    TIP3     OH2      OT      -0.834000       15.9994           0
     40002 TIP3     10029    TIP3     H1       HT       0.417000       1.00800           0
     40003 TIP3     10029    TIP3     H2       HT       0.417000       1.00800           0
     40004 TIP3     10030    TIP3     OH2      OT      -0.834000       15.9994           0
     40005 TIP3     10030    TIP3     H1       HT       0.417000       1.00800           0
     40006 TIP3     10030    TIP3     H2       HT       0.417000       1.00800           0
     40007 TIP3     10031    TIP3     OH2      OT      -0.834000       15.9994           0
     40008 TIP3     10031    TIP3     H1       HT       0.417000       1.00800           0
     40009 TIP3     10031    TIP3     H2       HT       0.417000       1.00800           0
     40010 TIP3     10032    TIP3     OH2      OT      -0.834000       15.9994           0
     40011 TIP3     10032    TIP3     H1       HT       0.417000       1.00800           0
     40012 TIP3     10032    TIP3     H2       HT       0.417000       1.00800           0
     40013 TIP3     10033    TIP3     OH2      OT      -0.834000       15.9994           0
     40014 TIP3     10033    TIP3     H1       HT       0.417000       1.00800           0
     40015 TIP3     10033    TIP3     H2       HT       0.417000       1.00800           0
     40016 TIP3     10034    TIP3     OH2      OT      -0.834000       15.9994           0
     40017 TIP3     10034    TIP3     H1       HT       0.417000       1.00800           0
     40018 TIP3     10034    TIP3     H2       HT       0.417000       1.00800           0
     40019 TIP3     10035    TIP3     OH2      OT      -0.834000       15.9994           0
     40020 TIP3     10035    TIP3     H1       HT       0.417000       1.00800           0
     40021 TIP3     10035    TIP3     H2       HT       0.417000       1.00800           0
     40022 TIP3     10036    TIP3     OH2      OT      -0.834000       15.9994           0
     40023 TIP3     10036    TIP3     H1       HT       0.417000       1.00800           0
     40024 TIP3     10036    TIP3     H2       HT       0.417000       1.00800           0
     40025 TIP3     10037    TIP3     OH2      OT      -0.834000       15.9994           0
     40026 TIP3     10037    TIP3     H1       HT       0.417000       1.00800           0
     40027 TIP3     10037    TIP3     H2       HT       0.417000       1.00800           0
     40028 TIP3     10038    TIP3     OH2      OT      -0.834000       15.9994           0
     40029 TIP3     10038    TIP3     H1       HT       0.417000       1.00800           0
     40030 TIP3     10038    TIP3     H2       HT       0.417000       1.00800           0
     40031 TIP3     10039    TIP3     OH2      OT      -0.834000       15.9994           0
     40032 TIP3     10039    TIP3     H1       HT       0.417000       1.00800           0
     40033 TIP3     10039    TIP3     H2       HT       0.417000       1.00800           0
     40034 TIP3     10040    TIP3     OH2      OT      -0.834000       15.9994           0
     40035 TIP3     10040    TIP3     H1       HT       0.417000       1.00800           0
     40036 TIP3     10040    TIP3     H2       HT       0.417000       1.00800           0
     40037 TIP3     10041    TIP3     OH2      OT      -0.834000       15.9994           0
     40038 TIP3     10041    TIP3     H1       HT       0.417000       1.00800           0
     40039 TIP3     10041    TIP3     H2       HT       0.417000       1.00800           0
     40040 TIP3     10042    TIP3     OH2      OT      -0.834000       15.9994           0
     40041 TIP3     10042    TIP3     H1       HT       0.417000       1.00800           0
     40042 TIP3     10042    TIP3     H2       HT       0.417000       1.00800           0
     40043 TIP3     10043    TIP3     OH2      OT      -0.834000       15.9994           0
     40044 TIP3     10043    TIP3     H1       HT       0.417000       1.00800           0
     40045 TIP3     10043    TIP3     H2       HT       0.417000       1.00800           0
     40046 TIP3     10044    TIP3     OH2      OT      -0.834000       15.9994           0
     40047 TIP3     10044    TIP3     H1       HT       0.417000       1.00800           0
     40048 TIP3     10044    TIP3     H2       HT       0.417000       1.00800           0
     40049 TIP3     10045    TIP3     OH2      OT      -0.834000       15.9994           0
     40050 TIP3     10045    TIP3     H1       HT       0.417000       1.00800           0
     40051 TIP3     10045    TIP3     H2       HT       0.417000       1.00800           0
     40052 TIP3     10046    TIP3     OH2      OT      -0.834000       15.9994           0
     40053 TIP3     10046    TIP3     H1       HT       0.417000       1.00800           0
     40054 TIP3     10046    TIP3     H2       HT       0.417000       1.00800           0
     40055 TIP3     10047    TIP3     OH2      OT      -0.834000       15.9994           0
     40056 TIP3     10047    TIP3     H1       HT       0.417000       1.00800           0
     40057 TIP3     10047    TIP3     H2       HT       0.417000       1.00800           0
     40058 TIP3     10048    TIP3     OH2      OT      -0.834000       15.9994           0
     40059 TIP3     10048    TIP3     H1       HT       0.417000       1.00800           0
     40060 TIP3     10048    TIP3     H2       HT       0.417000       1.00800           0
     40061 TIP3     10049    TIP3     OH2      OT      -0.834000       15.9994           0
     40062 TIP3     10049    TIP3     H1       HT       0.417000       1.00800           0
     40063 TIP3     10049    TIP3     H2       HT       0.417000       1.00800           0
     40064 TIP3     10050    TIP3     OH2      OT      -0.834000       15.9994           0
     40065 TIP3     10050    TIP3     H1       HT       0.417000       1.00800           0
     40066 TIP3     10050    TIP3     H2       HT       0.417000       1.00800           0
     40067 TIP3     10051    TIP3     OH2      OT      -0.834000       15.9994           0
     40068 TIP3     10051    TIP3     H1       HT       0.417000       1.00800           0
     40069 TIP3     10051    TIP3     H2       HT       0.417000       1.00800           0
     40070 TIP3     10052    TIP3     OH2      OT      -0.834000       15.9994           0
     40071 TIP3     10052    TIP3     H1       HT       0.417000       1.00800           0
     40072 TIP3     10052    TIP3     H2       HT       0.417000       1.00800           0
     40073 TIP3     10053    TIP3     OH2      OT      -0.834000       15.9994           0
     40074 TIP3     10053    TIP3     H1       HT       0.417000       1.00800           0
     40075 TIP3     10053    TIP3     H2       HT       0.417000       1.00800           0
     40076 TIP3     10054    TIP3     OH2      OT      -0.834000       15.9994           0
     40077 TIP3     10054    TIP3     H1       HT       0.417000       1.00800           0
     40078 TIP3     10054    TIP3     H2       HT       0.417000       1.00800           0
     40079 TIP3     10055    TIP3     OH2      OT      -0.834000       15.9994           0
     40080 TIP3     10055    TIP3     H1       HT       0.417000       1.00800           0
     40081 TIP3     10055    TIP3     H2       HT       0.417000       1.00800           0
     40082 TIP3     10056    TIP3     OH2      OT      -0.834000       15.9994           0
     40083 TIP3     10056    TIP3     H1       HT       0.417000       1.00800           0
     40084 TIP3     10056    TIP3     H2       HT       0.417000       1.00800           0
     40085 TIP3     10057    TIP3     OH2      OT      -0.834000       15.9994           0
     40086 TIP3     10057    TIP3     H1       HT       0.417000       1.00800           0
     40087 TIP3     10057    TIP3     H2       HT       0.417000       1.00800           0
     40088 TIP3     10058    TIP3     OH2      OT      -0.834000       15.9994           0
     40089 TIP3     10058    TIP3     H1       HT       0.417000       1.00800           0
     40090 TIP3     10058    TIP3     H2       HT       0.417000       1.00800           0
     40091 TIP3     10059    TIP3     OH2      OT      -0.834000       15.9994           0
     40092 TIP3     10059    TIP3     H1       HT       0.417000       1.00800           0
     40093 TIP3     10059    TIP3     H2       HT       0.417000       1.00800           0
     40094 TIP3     10060    TIP3     OH2      OT      -0.834000       15.9994           0
     40095 TIP3     10060    TIP3     H1       HT       0.417000       1.00800           0
     40096 TIP3     10060    TIP3     H2       HT       0.417000       1.00800           0
     40097 TIP3     10061    TIP3     OH2      OT      -0.834000       15.9994           0
     40098 TIP3     10061    TIP3     H1       HT       0.417000       1.00800           0
     40099 TIP3     10061    TIP3     H2       HT       0.417000       1.00800           0
     40100 TIP3     10062    TIP3     OH2      OT      -0.834000       15.9994           0
     40101 TIP3     10062    TIP3     H1       HT       0.417000       1.00800           0
     40102 TIP3     10062    TIP3     H2       HT       0.417000       1.00800           0
     40103 TIP3     10063    TIP3     OH2      OT      -0.834000       15.9994           0
     40104 TIP3     10063    TIP3     H1       HT       0.417000       1.00800           0
     40105 TIP3     10063    TIP3     H2       HT       0.417000       1.00800           0
     40106 TIP3     10064    TIP3     OH2      OT      -0.834000       15.9994           0
     40107 TIP3     10064    TIP3     H1       HT       0.417000       1.00800           0
     40108 TIP3     10064    TIP3     H2       HT       0.417000       1.00800           0
     40109 TIP3     10065    TIP3     OH2      OT      -0.834000       15.9994           0
     40110 TIP3     10065    TIP3     H1       HT       0.417000       1.00800           0
     40111 TIP3     10065    TIP3     H2       HT       0.417000       1.00800           0
     40112 TIP3     10066    TIP3     OH2      OT      -0.834000       15.9994           0
     40113 TIP3     10066    TIP3     H1       HT       0.417000       1.00800           0
     40114 TIP3     10066    TIP3     H2       HT       0.417000       1.00800           0
     40115 TIP3     10067    TIP3     OH2      OT      -0.834000       15.9994           0
     40116 TIP3     10067    TIP3     H1       HT       0.417000       1.00800           0
     40117 TIP3     10067    TIP3     H2       HT       0.417000       1.00800           0
     40118 TIP3     10068    TIP3     OH2      OT      -0.834000       15.9994           0
     40119 TIP3     10068    TIP3     H1       HT       0.417000       1.00800           0
     40120 TIP3     10068    TIP3     H2       HT       0.417000       1.00800           0
     40121 TIP3     10069    TIP3     OH2      OT      -0.834000       15.9994           0
     40122 TIP3     10069    TIP3     H1       HT       0.417000       1.00800           0
     40123 TIP3     10069    TIP3     H2       HT       0.417000       1.00800           0
     40124 TIP3     10070    TIP3     OH2      OT      -0.834000       15.9994           0
     40125 TIP3     10070    TIP3     H1       HT       0.417000       1.00800           0
     40126 TIP3     10070    TIP3     H2       HT       0.417000       1.00800           0
     40127 TIP3     10071    TIP3     OH2      OT      -0.834000       15.9994           0
     40128 TIP3     10071    TIP3     H1       HT       0.417000       1.00800           0
     40129 TIP3     10071    TIP3     H2       HT       0.417000       1.00800           0
     40130 TIP3     10072    TIP3     OH2      OT      -0.834000       15.9994           0
     40131 TIP3     10072    TIP3     H1       HT       0.417000       1.00800           0
     40132 TIP3     10072    TIP3     H2       HT       0.417000       1.00800           0
     40133 TIP3     10073    TIP3     OH2      OT      -0.834000       15.9994           0
     40134 TIP3     10073    TIP3     H1       HT       0.417000       1.00800           0
     40135 TIP3     10073    TIP3     H2       HT       0.417000       1.00800           0
     40136 TIP3     10074    TIP3     OH2      OT      -0.834000       15.9994           0
     40137 TIP3     10074    TIP3     H1       HT       0.417000       1.00800           0
     40138 TIP3     10074    TIP3     H2       HT       0.417000       1.00800           0
     40139 TIP3     10075    TIP3     OH2      OT      -0.834000       15.9994           0
     40140 TIP3     10075    TIP3     H1       HT       0.417000       1.00800           0
     40141 TIP3     10075    TIP3     H2       HT       0.417000       1.00800           0
     40142 TIP3     10076    TIP3     OH2      OT      -0.834000       15.9994           0
     40143 TIP3     10076    TIP3     H1       HT       0.417000       1.00800           0
     40144 TIP3     10076    TIP3     H2       HT       0.417000       1.00800           0
     40145 TIP3     10077    TIP3     OH2      OT      -0.834000       15.9994           0
     40146 TIP3     10077    TIP3     H1       HT       0.417000       1.00800           0
     40147 TIP3     10077    TIP3     H2       HT       0.417000       1.00800           0
     40148 TIP3     10078    TIP3     OH2      OT      -0.834000       15.9994           0
     40149 TIP3     10078    TIP3     H1       HT       0.417000       1.00800           0
     40150 TIP3     10078    TIP3     H2       HT       0.417000       1.00800           0
     40151 TIP3     10079    TIP3     OH2      OT      -0.834000       15.9994           0
     40152 TIP3     10079    TIP3     H1       HT       0.417000       1.00800           0
     40153 TIP3     10079    TIP3     H2       HT       0.417000       1.00800           0
     40154 TIP3     10080    TIP3     OH2      OT      -0.834000       15.9994           0
     40155 TIP3     10080    TIP3     H1       HT       0.417000       1.00800           0
     40156 TIP3     10080    TIP3     H2       HT       0.417000       1.00800           0
     40157 TIP3     10081    TIP3     OH2      OT      -0.834000       15.9994           0
     40158 TIP3     10081    TIP3     H1       HT       0.417000       1.00800           0
     40159 TIP3     10081    TIP3     H2       HT       0.417000       1.00800           0
     40160 TIP3     10082    TIP3     OH2      OT      -0.834000       15.9994           0
     40161 TIP3     10082    TIP3     H1       HT       0.417000       1.00800           0
     40162 TIP3     10082    TIP3     H2       HT       0.417000       1.00800           0
     40163 TIP3     10083    TIP3     OH2      OT      -0.834000       15.9994           0
     40164 TIP3     10083    TIP3     H1       HT       0.417000       1.00800           0
     40165 TIP3     10083    TIP3     H2       HT       0.417000       1.00800           0
     40166 TIP3     10084    TIP3     OH2      OT      -0.834000       15.9994           0
     40167 TIP3     10084    TIP3     H1       HT       0.417000       1.00800           0
     40168 TIP3     10084    TIP3     H2       HT       0.417000       1.00800           0
     40169 TIP3     10085    TIP3     OH2      OT      -0.834000       15.9994           0
     40170 TIP3     10085    TIP3     H1       HT       0.417000       1.00800           0
     40171 TIP3     10085    TIP3     H2       HT       0.417000       1.00800           0
     40172 TIP3     10086    TIP3     OH2      OT      -0.834000       15.9994           0
     40173 TIP3     10086    TIP3     H1       HT       0.417000       1.00800           0
     40174 TIP3     10086    TIP3     H2       HT       0.417000       1.00800           0
     40175 TIP3     10087    TIP3     OH2      OT      -0.834000       15.9994           0
     40176 TIP3     10087    TIP3     H1       HT       0.417000       1.00800           0
     40177 TIP3     10087    TIP3     H2       HT       0.417000       1.00800           0
     40178 TIP3     10088    TIP3     OH2      OT      -0.834000       15.9994           0
     40179 TIP3     10088    TIP3     H1       HT       0.417000       1.00800           0
     40180 TIP3     10088    TIP3     H2       HT       0.417000       1.00800           0
     40181 TIP3     10089    TIP3     OH2      OT      -0.834000       15.9994           0
     40182 TIP3     10089    TIP3     H1       HT       0.417000       1.00800           0
     40183 TIP3     10089    TIP3     H2       HT       0.417000       1.00800           0
     40184 TIP3     10090    TIP3     OH2      OT      -0.834000       15.9994           0
     40185 TIP3     10090    TIP3     H1       HT       0.417000       1.00800           0
     40186 TIP3     10090    TIP3     H2       HT       0.417000       1.00800           0
     40187 TIP3     10091    TIP3     OH2      OT      -0.834000       15.9994           0
     40188 TIP3     10091    TIP3     H1       HT       0.417000       1.00800           0
     40189 TIP3     10091    TIP3     H2       HT       0.417000       1.00800           0
     40190 TIP3     10092    TIP3     OH2      OT      -0.834000       15.9994           0
     40191 TIP3     10092    TIP3     H1       HT       0.417000       1.00800           0
     40192 TIP3     10092    TIP3     H2       HT       0.417000       1.00800           0
     40193 TIP3     10093    TIP3     OH2      OT      -0.834000       15.9994           0
     40194 TIP3     10093    TIP3     H1       HT       0.417000       1.00800           0
     40195 TIP3     10093    TIP3     H2       HT       0.417000       1.00800           0
     40196 TIP3     10094    TIP3     OH2      OT      -0.834000       15.9994           0
     40197 TIP3     10094    TIP3     H1       HT       0.417000       1.00800           0
     40198 TIP3     10094    TIP3     H2       HT       0.417000       1.00800           0
     40199 TIP3     10095    TIP3     OH2      OT      -0.834000       15.9994           0
     40200 TIP3     10095    TIP3     H1       HT       0.417000       1.00800           0
     40201 TIP3     10095    TIP3     H2       HT       0.417000       1.00800           0
     40202 TIP3     10096    TIP3     OH2      OT      -0.834000       15.9994           0
     40203 TIP3     10096    TIP3     H1       HT       0.417000       1.00800           0
     40204 TIP3     10096    TIP3     H2       HT       0.417000       1.00800           0
     40205 TIP3     10097    TIP3     OH2      OT      -0.834000       15.9994           0
     40206 TIP3     10097    TIP3     H1       HT       0.417000       1.00800           0
     40207 TIP3     10097    TIP3     H2       HT       0.417000       1.00800           0
     40208 TIP3     10098    TIP3     OH2      OT      -0.834000       15.9994           0
     40209 TIP3     10098    TIP3     H1       HT       0.417000       1.00800           0
     40210 TIP3     10098    TIP3     H2       HT       0.417000       1.00800           0
     40211 TIP3     10099    TIP3     OH2      OT      -0.834000       15.9994           0
     40212 TIP3     10099    TIP3     H1       HT       0.417000       1.00800           0
     40213 TIP3     10099    TIP3     H2       HT       0.417000       1.00800           0
     40214 TIP3     10100    TIP3     OH2      OT      -0.834000       15.9994           0
     40215 TIP3     10100    TIP3     H1       HT       0.417000       1.00800           0
     40216 TIP3     10100    TIP3     H2       HT       0.417000       1.00800           0
     40217 TIP3     10101    TIP3     OH2      OT      -0.834000       15.9994           0
     40218 TIP3     10101    TIP3     H1       HT       0.417000       1.00800           0
     40219 TIP3     10101    TIP3     H2       HT       0.417000       1.00800           0
     40220 TIP3     10102    TIP3     OH2      OT      -0.834000       15.9994           0
     40221 TIP3     10102    TIP3     H1       HT       0.417000       1.00800           0
     40222 TIP3     10102    TIP3     H2       HT       0.417000       1.00800           0
     40223 TIP3     10103    TIP3     OH2      OT      -0.834000       15.9994           0
     40224 TIP3     10103    TIP3     H1       HT       0.417000       1.00800           0
     40225 TIP3     10103    TIP3     H2       HT       0.417000       1.00800           0
     40226 TIP3     10104    TIP3     OH2      OT      -0.834000       15.9994           0
     40227 TIP3     10104    TIP3     H1       HT       0.417000       1.00800           0
     40228 TIP3     10104    TIP3     H2       HT       0.417000       1.00800           0
     40229 TIP3     10105    TIP3     OH2      OT      -0.834000       15.9994           0
     40230 TIP3     10105    TIP3     H1       HT       0.417000       1.00800           0
     40231 TIP3     10105    TIP3     H2       HT       0.417000       1.00800           0
     40232 TIP3     10106    TIP3     OH2      OT      -0.834000       15.9994           0
     40233 TIP3     10106    TIP3     H1       HT       0.417000       1.00800           0
     40234 TIP3     10106    TIP3     H2       HT       0.417000       1.00800           0
     40235 TIP3     10107    TIP3     OH2      OT      -0.834000       15.9994           0
     40236 TIP3     10107    TIP3     H1       HT       0.417000       1.00800           0
     40237 TIP3     10107    TIP3     H2       HT       0.417000       1.00800           0
     40238 TIP3     10108    TIP3     OH2      OT      -0.834000       15.9994           0
     40239 TIP3     10108    TIP3     H1       HT       0.417000       1.00800           0
     40240 TIP3     10108    TIP3     H2       HT       0.417000       1.00800           0
     40241 TIP3     10109    TIP3     OH2      OT      -0.834000       15.9994           0
     40242 TIP3     10109    TIP3     H1       HT       0.417000       1.00800           0
     40243 TIP3     10109    TIP3     H2       HT       0.417000       1.00800           0
     40244 TIP3     10110    TIP3     OH2      OT      -0.834000       15.9994           0
     40245 TIP3     10110    TIP3     H1       HT       0.417000       1.00800           0
     40246 TIP3     10110    TIP3     H2       HT       0.417000       1.00800           0
     40247 TIP3     10111    TIP3     OH2      OT      -0.834000       15.9994           0
     40248 TIP3     10111    TIP3     H1       HT       0.417000       1.00800           0
     40249 TIP3     10111    TIP3     H2       HT       0.417000       1.00800           0
     40250 TIP3     10112    TIP3     OH2      OT      -0.834000       15.9994           0
     40251 TIP3     10112    TIP3     H1       HT       0.417000       1.00800           0
     40252 TIP3     10112    TIP3     H2       HT       0.417000       1.00800           0
     40253 TIP3     10113    TIP3     OH2      OT      -0.834000       15.9994           0
     40254 TIP3     10113    TIP3     H1       HT       0.417000       1.00800           0
     40255 TIP3     10113    TIP3     H2       HT       0.417000       1.00800           0
     40256 TIP3     10114    TIP3     OH2      OT      -0.834000       15.9994           0
     40257 TIP3     10114    TIP3     H1       HT       0.417000       1.00800           0
     40258 TIP3     10114    TIP3     H2       HT       0.417000       1.00800           0
     40259 TIP3     10115    TIP3     OH2      OT      -0.834000       15.9994           0
     40260 TIP3     10115    TIP3     H1       HT       0.417000       1.00800           0
     40261 TIP3     10115    TIP3     H2       HT       0.417000       1.00800           0
     40262 TIP3     10116    TIP3     OH2      OT      -0.834000       15.9994           0
     40263 TIP3     10116    TIP3     H1       HT       0.417000       1.00800           0
     40264 TIP3     10116    TIP3     H2       HT       0.417000       1.00800           0
     40265 TIP3     10117    TIP3     OH2      OT      -0.834000       15.9994           0
     40266 TIP3     10117    TIP3     H1       HT       0.417000       1.00800           0
     40267 TIP3     10117    TIP3     H2       HT       0.417000       1.00800           0
     40268 TIP3     10118    TIP3     OH2      OT      -0.834000       15.9994           0
     40269 TIP3     10118    TIP3     H1       HT       0.417000       1.00800           0
     40270 TIP3     10118    TIP3     H2       HT       0.417000       1.00800           0
     40271 TIP3     10119    TIP3     OH2      OT      -0.834000       15.9994           0
     40272 TIP3     10119    TIP3     H1       HT       0.417000       1.00800           0
     40273 TIP3     10119    TIP3     H2       HT       0.417000       1.00800           0
     40274 TIP3     10120    TIP3     OH2      OT      -0.834000       15.9994           0
     40275 TIP3     10120    TIP3     H1       HT       0.417000       1.00800           0
     40276 TIP3     10120    TIP3     H2       HT       0.417000       1.00800           0
     40277 TIP3     10121    TIP3     OH2      OT      -0.834000       15.9994           0
     40278 TIP3     10121    TIP3     H1       HT       0.417000       1.00800           0
     40279 TIP3     10121    TIP3     H2       HT       0.417000       1.00800           0
     40280 TIP3     10122    TIP3     OH2      OT      -0.834000       15.9994           0
     40281 TIP3     10122    TIP3     H1       HT       0.417000       1.00800           0
     40282 TIP3     10122    TIP3     H2       HT       0.417000       1.00800           0
     40283 TIP3     10123    TIP3     OH2      OT      -0.834000       15.9994           0
     40284 TIP3     10123    TIP3     H1       HT       0.417000       1.00800           0
     40285 TIP3     10123    TIP3     H2       HT       0.417000       1.00800           0
     40286 TIP3     10124    TIP3     OH2      OT      -0.834000       15.9994           0
     40287 TIP3     10124    TIP3     H1       HT       0.417000       1.00800           0
     40288 TIP3     10124    TIP3     H2       HT       0.417000       1.00800           0
     40289 TIP3     10125    TIP3     OH2      OT      -0.834000       15.9994           0
     40290 TIP3     10125    TIP3     H1       HT       0.417000       1.00800           0
     40291 TIP3     10125    TIP3     H2       HT       0.417000       1.00800           0
     40292 TIP3     10126    TIP3     OH2      OT      -0.834000       15.9994           0
     40293 TIP3     10126    TIP3     H1       HT       0.417000       1.00800           0
     40294 TIP3     10126    TIP3     H2       HT       0.417000       1.00800           0
     40295 TIP3     10127    TIP3     OH2      OT      -0.834000       15.9994           0
     40296 TIP3     10127    TIP3     H1       HT       0.417000       1.00800           0
     40297 TIP3     10127    TIP3     H2       HT       0.417000       1.00800           0
     40298 TIP3     10128    TIP3     OH2      OT      -0.834000       15.9994           0
     40299 TIP3     10128    TIP3     H1       HT       0.417000       1.00800           0
     40300 TIP3     10128    TIP3     H2       HT       0.417000       1.00800           0
     40301 TIP3     10129    TIP3     OH2      OT      -0.834000       15.9994           0
     40302 TIP3     10129    TIP3     H1       HT       0.417000       1.00800           0
     40303 TIP3     10129    TIP3     H2       HT       0.417000       1.00800           0
     40304 TIP3     10130    TIP3     OH2      OT      -0.834000       15.9994           0
     40305 TIP3     10130    TIP3     H1       HT       0.417000       1.00800           0
     40306 TIP3     10130    TIP3     H2       HT       0.417000       1.00800           0
     40307 TIP3     10131    TIP3     OH2      OT      -0.834000       15.9994           0
     40308 TIP3     10131    TIP3     H1       HT       0.417000       1.00800           0
     40309 TIP3     10131    TIP3     H2       HT       0.417000       1.00800           0
     40310 TIP3     10132    TIP3     OH2      OT      -0.834000       15.9994           0
     40311 TIP3     10132    TIP3     H1       HT       0.417000       1.00800           0
     40312 TIP3     10132    TIP3     H2       HT       0.417000       1.00800           0
     40313 TIP3     10133    TIP3     OH2      OT      -0.834000       15.9994           0
     40314 TIP3     10133    TIP3     H1       HT       0.417000       1.00800           0
     40315 TIP3     10133    TIP3     H2       HT       0.417000       1.00800           0
     40316 TIP3     10134    TIP3     OH2      OT      -0.834000       15.9994           0
     40317 TIP3     10134    TIP3     H1       HT       0.417000       1.00800           0
     40318 TIP3     10134    TIP3     H2       HT       0.417000       1.00800           0
     40319 TIP3     10135    TIP3     OH2      OT      -0.834000       15.9994           0
     40320 TIP3     10135    TIP3     H1       HT       0.417000       1.00800           0
     40321 TIP3     10135    TIP3     H2       HT       0.417000       1.00800           0
     40322 TIP3     10136    TIP3     OH2      OT      -0.834000       15.9994           0
     40323 TIP3     10136    TIP3     H1       HT       0.417000       1.00800           0
     40324 TIP3     10136    TIP3     H2       HT       0.417000       1.00800           0
     40325 TIP3     10137    TIP3     OH2      OT      -0.834000       15.9994           0
     40326 TIP3     10137    TIP3     H1       HT       0.417000       1.00800           0
     40327 TIP3     10137    TIP3     H2       HT       0.417000       1.00800           0
     40328 TIP3     10138    TIP3     OH2      OT      -0.834000       15.9994           0
     40329 TIP3     10138    TIP3     H1       HT       0.417000       1.00800           0
     40330 TIP3     10138    TIP3     H2       HT       0.417000       1.00800           0
     40331 TIP3     10139    TIP3     OH2      OT      -0.834000       15.9994           0
     40332 TIP3     10139    TIP3     H1       HT       0.417000       1.00800           0
     40333 TIP3     10139    TIP3     H2       HT       0.417000       1.00800           0
     40334 TIP3     10140    TIP3     OH2      OT      -0.834000       15.9994           0
     40335 TIP3     10140    TIP3     H1       HT       0.417000       1.00800           0
     40336 TIP3     10140    TIP3     H2       HT       0.417000       1.00800           0
     40337 TIP3     10141    TIP3     OH2      OT      -0.834000       15.9994           0
     40338 TIP3     10141    TIP3     H1       HT       0.417000       1.00800           0
     40339 TIP3     10141    TIP3     H2       HT       0.417000       1.00800           0
     40340 TIP3     10142    TIP3     OH2      OT      -0.834000       15.9994           0
     40341 TIP3     10142    TIP3     H1       HT       0.417000       1.00800           0
     40342 TIP3     10142    TIP3     H2       HT       0.417000       1.00800           0
     40343 TIP3     10143    TIP3     OH2      OT      -0.834000       15.9994           0
     40344 TIP3     10143    TIP3     H1       HT       0.417000       1.00800           0
     40345 TIP3     10143    TIP3     H2       HT       0.417000       1.00800           0
     40346 TIP3     10144    TIP3     OH2      OT      -0.834000       15.9994           0
     40347 TIP3     10144    TIP3     H1       HT       0.417000       1.00800           0
     40348 TIP3     10144    TIP3     H2       HT       0.417000       1.00800           0
     40349 TIP3     10145    TIP3     OH2      OT      -0.834000       15.9994           0
     40350 TIP3     10145    TIP3     H1       HT       0.417000       1.00800           0
     40351 TIP3     10145    TIP3     H2       HT       0.417000       1.00800           0
     40352 TIP3     10146    TIP3     OH2      OT      -0.834000       15.9994           0
     40353 TIP3     10146    TIP3     H1       HT       0.417000       1.00800           0
     40354 TIP3     10146    TIP3     H2       HT       0.417000       1.00800           0
     40355 TIP3     10147    TIP3     OH2      OT      -0.834000       15.9994           0
     40356 TIP3     10147    TIP3     H1       HT       0.417000       1.00800           0
     40357 TIP3     10147    TIP3     H2       HT       0.417000       1.00800           0
     40358 TIP3     10148    TIP3     OH2      OT      -0.834000       15.9994           0
     40359 TIP3     10148    TIP3     H1       HT       0.417000       1.00800           0
     40360 TIP3     10148    TIP3     H2       HT       0.417000       1.00800           0
     40361 TIP3     10149    TIP3     OH2      OT      -0.834000       15.9994           0
     40362 TIP3     10149    TIP3     H1       HT       0.417000       1.00800           0
     40363 TIP3     10149    TIP3     H2       HT       0.417000       1.00800           0
     40364 TIP3     10150    TIP3     OH2      OT      -0.834000       15.9994           0
     40365 TIP3     10150    TIP3     H1       HT       0.417000       1.00800           0
     40366 TIP3     10150    TIP3     H2       HT       0.417000       1.00800           0
     40367 TIP3     10151    TIP3     OH2      OT      -0.834000       15.9994           0
     40368 TIP3     10151    TIP3     H1       HT       0.417000       1.00800           0
     40369 TIP3     10151    TIP3     H2       HT       0.417000       1.00800           0
     40370 TIP3     10152    TIP3     OH2      OT      -0.834000       15.9994           0
     40371 TIP3     10152    TIP3     H1       HT       0.417000       1.00800           0
     40372 TIP3     10152    TIP3     H2       HT       0.417000       1.00800           0
     40373 TIP3     10153    TIP3     OH2      OT      -0.834000       15.9994           0
     40374 TIP3     10153    TIP3     H1       HT       0.417000       1.00800           0
     40375 TIP3     10153    TIP3     H2       HT       0.417000       1.00800           0
     40376 TIP3     10154    TIP3     OH2      OT      -0.834000       15.9994           0
     40377 TIP3     10154    TIP3     H1       HT       0.417000       1.00800           0
     40378 TIP3     10154    TIP3     H2       HT       0.417000       1.00800           0
     40379 TIP3     10155    TIP3     OH2      OT      -0.834000       15.9994           0
     40380 TIP3     10155    TIP3     H1       HT       0.417000       1.00800           0
     40381 TIP3     10155    TIP3     H2       HT       0.417000       1.00800           0
     40382 TIP3     10156    TIP3     OH2      OT      -0.834000       15.9994           0
     40383 TIP3     10156    TIP3     H1       HT       0.417000       1.00800           0
     40384 TIP3     10156    TIP3     H2       HT       0.417000       1.00800           0
     40385 TIP3     10157    TIP3     OH2      OT      -0.834000       15.9994           0
     40386 TIP3     10157    TIP3     H1       HT       0.417000       1.00800           0
     40387 TIP3     10157    TIP3     H2       HT       0.417000       1.00800           0
     40388 TIP3     10158    TIP3     OH2      OT      -0.834000       15.9994           0
     40389 TIP3     10158    TIP3     H1       HT       0.417000       1.00800           0
     40390 TIP3     10158    TIP3     H2       HT       0.417000       1.00800           0
     40391 TIP3     10159    TIP3     OH2      OT      -0.834000       15.9994           0
     40392 TIP3     10159    TIP3     H1       HT       0.417000       1.00800           0
     40393 TIP3     10159    TIP3     H2       HT       0.417000       1.00800           0
     40394 TIP3     10160    TIP3     OH2      OT      -0.834000       15.9994           0
     40395 TIP3     10160    TIP3     H1       HT       0.417000       1.00800           0
     40396 TIP3     10160    TIP3     H2       HT       0.417000       1.00800           0
     40397 TIP3     10161    TIP3     OH2      OT      -0.834000       15.9994           0
     40398 TIP3     10161    TIP3     H1       HT       0.417000       1.00800           0
     40399 TIP3     10161    TIP3     H2       HT       0.417000       1.00800           0
     40400 TIP3     10162    TIP3     OH2      OT      -0.834000       15.9994           0
     40401 TIP3     10162    TIP3     H1       HT       0.417000       1.00800           0
     40402 TIP3     10162    TIP3     H2       HT       0.417000       1.00800           0
     40403 TIP3     10163    TIP3     OH2      OT      -0.834000       15.9994           0
     40404 TIP3     10163    TIP3     H1       HT       0.417000       1.00800           0
     40405 TIP3     10163    TIP3     H2       HT       0.417000       1.00800           0
     40406 TIP3     10164    TIP3     OH2      OT      -0.834000       15.9994           0
     40407 TIP3     10164    TIP3     H1       HT       0.417000       1.00800           0
     40408 TIP3     10164    TIP3     H2       HT       0.417000       1.00800           0
     40409 TIP3     10165    TIP3     OH2      OT      -0.834000       15.9994           0
     40410 TIP3     10165    TIP3     H1       HT       0.417000       1.00800           0
     40411 TIP3     10165    TIP3     H2       HT       0.417000       1.00800           0
     40412 TIP3     10166    TIP3     OH2      OT      -0.834000       15.9994           0
     40413 TIP3     10166    TIP3     H1       HT       0.417000       1.00800           0
     40414 TIP3     10166    TIP3     H2       HT       0.417000       1.00800           0
     40415 TIP3     10167    TIP3     OH2      OT      -0.834000       15.9994           0
     40416 TIP3     10167    TIP3     H1       HT       0.417000       1.00800           0
     40417 TIP3     10167    TIP3     H2       HT       0.417000       1.00800           0
     40418 TIP3     10168    TIP3     OH2      OT      -0.834000       15.9994           0
     40419 TIP3     10168    TIP3     H1       HT       0.417000       1.00800           0
     40420 TIP3     10168    TIP3     H2       HT       0.417000       1.00800           0
     40421 TIP3     10169    TIP3     OH2      OT      -0.834000       15.9994           0
     40422 TIP3     10169    TIP3     H1       HT       0.417000       1.00800           0
     40423 TIP3     10169    TIP3     H2       HT       0.417000       1.00800           0
     40424 TIP3     10170    TIP3     OH2      OT      -0.834000       15.9994           0
     40425 TIP3     10170    TIP3     H1       HT       0.417000       1.00800           0
     40426 TIP3     10170    TIP3     H2       HT       0.417000       1.00800           0
     40427 TIP3     10171    TIP3     OH2      OT      -0.834000       15.9994           0
     40428 TIP3     10171    TIP3     H1       HT       0.417000       1.00800           0
     40429 TIP3     10171    TIP3     H2       HT       0.417000       1.00800           0
     40430 TIP3     10172    TIP3     OH2      OT      -0.834000       15.9994           0
     40431 TIP3     10172    TIP3     H1       HT       0.417000       1.00800           0
     40432 TIP3     10172    TIP3     H2       HT       0.417000       1.00800           0
     40433 TIP3     10173    TIP3     OH2      OT      -0.834000       15.9994           0
     40434 TIP3     10173    TIP3     H1       HT       0.417000       1.00800           0
     40435 TIP3     10173    TIP3     H2       HT       0.417000       1.00800           0
     40436 TIP3     10174    TIP3     OH2      OT      -0.834000       15.9994           0
     40437 TIP3     10174    TIP3     H1       HT       0.417000       1.00800           0
     40438 TIP3     10174    TIP3     H2       HT       0.417000       1.00800           0
     40439 TIP3     10175    TIP3     OH2      OT      -0.834000       15.9994           0
     40440 TIP3     10175    TIP3     H1       HT       0.417000       1.00800           0
     40441 TIP3     10175    TIP3     H2       HT       0.417000       1.00800           0
     40442 TIP3     10176    TIP3     OH2      OT      -0.834000       15.9994           0
     40443 TIP3     10176    TIP3     H1       HT       0.417000       1.00800           0
     40444 TIP3     10176    TIP3     H2       HT       0.417000       1.00800           0
     40445 TIP3     10177    TIP3     OH2      OT      -0.834000       15.9994           0
     40446 TIP3     10177    TIP3     H1       HT       0.417000       1.00800           0
     40447 TIP3     10177    TIP3     H2       HT       0.417000       1.00800           0
     40448 TIP3     10178    TIP3     OH2      OT      -0.834000       15.9994           0
     40449 TIP3     10178    TIP3     H1       HT       0.417000       1.00800           0
     40450 TIP3     10178    TIP3     H2       HT       0.417000       1.00800           0
     40451 TIP3     10179    TIP3     OH2      OT      -0.834000       15.9994           0
     40452 TIP3     10179    TIP3     H1       HT       0.417000       1.00800           0
     40453 TIP3     10179    TIP3     H2       HT       0.417000       1.00800           0
     40454 TIP3     10180    TIP3     OH2      OT      -0.834000       15.9994           0
     40455 TIP3     10180    TIP3     H1       HT       0.417000       1.00800           0
     40456 TIP3     10180    TIP3     H2       HT       0.417000       1.00800           0
     40457 TIP3     10181    TIP3     OH2      OT      -0.834000       15.9994           0
     40458 TIP3     10181    TIP3     H1       HT       0.417000       1.00800           0
     40459 TIP3     10181    TIP3     H2       HT       0.417000       1.00800           0
     40460 TIP3     10182    TIP3     OH2      OT      -0.834000       15.9994           0
     40461 TIP3     10182    TIP3     H1       HT       0.417000       1.00800           0
     40462 TIP3     10182    TIP3     H2       HT       0.417000       1.00800           0
     40463 TIP3     10183    TIP3     OH2      OT      -0.834000       15.9994           0
     40464 TIP3     10183    TIP3     H1       HT       0.417000       1.00800           0
     40465 TIP3     10183    TIP3     H2       HT       0.417000       1.00800           0
     40466 TIP3     10184    TIP3     OH2      OT      -0.834000       15.9994           0
     40467 TIP3     10184    TIP3     H1       HT       0.417000       1.00800           0
     40468 TIP3     10184    TIP3     H2       HT       0.417000       1.00800           0
     40469 TIP3     10185    TIP3     OH2      OT      -0.834000       15.9994           0
     40470 TIP3     10185    TIP3     H1       HT       0.417000       1.00800           0
     40471 TIP3     10185    TIP3     H2       HT       0.417000       1.00800           0
     40472 TIP3     10186    TIP3     OH2      OT      -0.834000       15.9994           0
     40473 TIP3     10186    TIP3     H1       HT       0.417000       1.00800           0
     40474 TIP3     10186    TIP3     H2       HT       0.417000       1.00800           0
     40475 TIP3     10187    TIP3     OH2      OT      -0.834000       15.9994           0
     40476 TIP3     10187    TIP3     H1       HT       0.417000       1.00800           0
     40477 TIP3     10187    TIP3     H2       HT       0.417000       1.00800           0
     40478 TIP3     10188    TIP3     OH2      OT      -0.834000       15.9994           0
     40479 TIP3     10188    TIP3     H1       HT       0.417000       1.00800           0
     40480 TIP3     10188    TIP3     H2       HT       0.417000       1.00800           0
     40481 TIP3     10189    TIP3     OH2      OT      -0.834000       15.9994           0
     40482 TIP3     10189    TIP3     H1       HT       0.417000       1.00800           0
     40483 TIP3     10189    TIP3     H2       HT       0.417000       1.00800           0
     40484 TIP3     10190    TIP3     OH2      OT      -0.834000       15.9994           0
     40485 TIP3     10190    TIP3     H1       HT       0.417000       1.00800           0
     40486 TIP3     10190    TIP3     H2       HT       0.417000       1.00800           0
     40487 TIP3     10191    TIP3     OH2      OT      -0.834000       15.9994           0
     40488 TIP3     10191    TIP3     H1       HT       0.417000       1.00800           0
     40489 TIP3     10191    TIP3     H2       HT       0.417000       1.00800           0
     40490 TIP3     10192    TIP3     OH2      OT      -0.834000       15.9994           0
     40491 TIP3     10192    TIP3     H1       HT       0.417000       1.00800           0
     40492 TIP3     10192    TIP3     H2       HT       0.417000       1.00800           0
     40493 TIP3     10193    TIP3     OH2      OT      -0.834000       15.9994           0
     40494 TIP3     10193    TIP3     H1       HT       0.417000       1.00800           0
     40495 TIP3     10193    TIP3     H2       HT       0.417000       1.00800           0
     40496 TIP3     10194    TIP3     OH2      OT      -0.834000       15.9994           0
     40497 TIP3     10194    TIP3     H1       HT       0.417000       1.00800           0
     40498 TIP3     10194    TIP3     H2       HT       0.417000       1.00800           0
     40499 TIP3     10195    TIP3     OH2      OT      -0.834000       15.9994           0
     40500 TIP3     10195    TIP3     H1       HT       0.417000       1.00800           0
     40501 TIP3     10195    TIP3     H2       HT       0.417000       1.00800           0
     40502 TIP3     10196    TIP3     OH2      OT      -0.834000       15.9994           0
     40503 TIP3     10196    TIP3     H1       HT       0.417000       1.00800           0
     40504 TIP3     10196    TIP3     H2       HT       0.417000       1.00800           0
     40505 TIP3     10197    TIP3     OH2      OT      -0.834000       15.9994           0
     40506 TIP3     10197    TIP3     H1       HT       0.417000       1.00800           0
     40507 TIP3     10197    TIP3     H2       HT       0.417000       1.00800           0
     40508 TIP3     10198    TIP3     OH2      OT      -0.834000       15.9994           0
     40509 TIP3     10198    TIP3     H1       HT       0.417000       1.00800           0
     40510 TIP3     10198    TIP3     H2       HT       0.417000       1.00800           0
     40511 TIP3     10199    TIP3     OH2      OT      -0.834000       15.9994           0
     40512 TIP3     10199    TIP3     H1       HT       0.417000       1.00800           0
     40513 TIP3     10199    TIP3     H2       HT       0.417000       1.00800           0
     40514 TIP3     10200    TIP3     OH2      OT      -0.834000       15.9994           0
     40515 TIP3     10200    TIP3     H1       HT       0.417000       1.00800           0
     40516 TIP3     10200    TIP3     H2       HT       0.417000       1.00800           0
     40517 TIP3     10201    TIP3     OH2      OT      -0.834000       15.9994           0
     40518 TIP3     10201    TIP3     H1       HT       0.417000       1.00800           0
     40519 TIP3     10201    TIP3     H2       HT       0.417000       1.00800           0
     40520 TIP3     10202    TIP3     OH2      OT      -0.834000       15.9994           0
     40521 TIP3     10202    TIP3     H1       HT       0.417000       1.00800           0
     40522 TIP3     10202    TIP3     H2       HT       0.417000       1.00800           0
     40523 TIP3     10203    TIP3     OH2      OT      -0.834000       15.9994           0
     40524 TIP3     10203    TIP3     H1       HT       0.417000       1.00800           0
     40525 TIP3     10203    TIP3     H2       HT       0.417000       1.00800           0
     40526 TIP3     10204    TIP3     OH2      OT      -0.834000       15.9994           0
     40527 TIP3     10204    TIP3     H1       HT       0.417000       1.00800           0
     40528 TIP3     10204    TIP3     H2       HT       0.417000       1.00800           0
     40529 TIP3     10205    TIP3     OH2      OT      -0.834000       15.9994           0
     40530 TIP3     10205    TIP3     H1       HT       0.417000       1.00800           0
     40531 TIP3     10205    TIP3     H2       HT       0.417000       1.00800           0
     40532 TIP3     10206    TIP3     OH2      OT      -0.834000       15.9994           0
     40533 TIP3     10206    TIP3     H1       HT       0.417000       1.00800           0
     40534 TIP3     10206    TIP3     H2       HT       0.417000       1.00800           0
     40535 TIP3     10207    TIP3     OH2      OT      -0.834000       15.9994           0
     40536 TIP3     10207    TIP3     H1       HT       0.417000       1.00800           0
     40537 TIP3     10207    TIP3     H2       HT       0.417000       1.00800           0
     40538 TIP3     10208    TIP3     OH2      OT      -0.834000       15.9994           0
     40539 TIP3     10208    TIP3     H1       HT       0.417000       1.00800           0
     40540 TIP3     10208    TIP3     H2       HT       0.417000       1.00800           0
     40541 TIP3     10209    TIP3     OH2      OT      -0.834000       15.9994           0
     40542 TIP3     10209    TIP3     H1       HT       0.417000       1.00800           0
     40543 TIP3     10209    TIP3     H2       HT       0.417000       1.00800           0
     40544 TIP3     10210    TIP3     OH2      OT      -0.834000       15.9994           0
     40545 TIP3     10210    TIP3     H1       HT       0.417000       1.00800           0
     40546 TIP3     10210    TIP3     H2       HT       0.417000       1.00800           0
     40547 TIP3     10211    TIP3     OH2      OT      -0.834000       15.9994           0
     40548 TIP3     10211    TIP3     H1       HT       0.417000       1.00800           0
     40549 TIP3     10211    TIP3     H2       HT       0.417000       1.00800           0
     40550 TIP3     10212    TIP3     OH2      OT      -0.834000       15.9994           0
     40551 TIP3     10212    TIP3     H1       HT       0.417000       1.00800           0
     40552 TIP3     10212    TIP3     H2       HT       0.417000       1.00800           0
     40553 TIP3     10213    TIP3     OH2      OT      -0.834000       15.9994           0
     40554 TIP3     10213    TIP3     H1       HT       0.417000       1.00800           0
     40555 TIP3     10213    TIP3     H2       HT       0.417000       1.00800           0
     40556 TIP3     10214    TIP3     OH2      OT      -0.834000       15.9994           0
     40557 TIP3     10214    TIP3     H1       HT       0.417000       1.00800           0
     40558 TIP3     10214    TIP3     H2       HT       0.417000       1.00800           0
     40559 TIP3     10215    TIP3     OH2      OT      -0.834000       15.9994           0
     40560 TIP3     10215    TIP3     H1       HT       0.417000       1.00800           0
     40561 TIP3     10215    TIP3     H2       HT       0.417000       1.00800           0
     40562 TIP3     10216    TIP3     OH2      OT      -0.834000       15.9994           0
     40563 TIP3     10216    TIP3     H1       HT       0.417000       1.00800           0
     40564 TIP3     10216    TIP3     H2       HT       0.417000       1.00800           0
     40565 TIP3     10217    TIP3     OH2      OT      -0.834000       15.9994           0
     40566 TIP3     10217    TIP3     H1       HT       0.417000       1.00800           0
     40567 TIP3     10217    TIP3     H2       HT       0.417000       1.00800           0
     40568 TIP3     10218    TIP3     OH2      OT      -0.834000       15.9994           0
     40569 TIP3     10218    TIP3     H1       HT       0.417000       1.00800           0
     40570 TIP3     10218    TIP3     H2       HT       0.417000       1.00800           0
     40571 TIP3     10219    TIP3     OH2      OT      -0.834000       15.9994           0
     40572 TIP3     10219    TIP3     H1       HT       0.417000       1.00800           0
     40573 TIP3     10219    TIP3     H2       HT       0.417000       1.00800           0
     40574 TIP3     10220    TIP3     OH2      OT      -0.834000       15.9994           0
     40575 TIP3     10220    TIP3     H1       HT       0.417000       1.00800           0
     40576 TIP3     10220    TIP3     H2       HT       0.417000       1.00800           0
     40577 TIP3     10221    TIP3     OH2      OT      -0.834000       15.9994           0
     40578 TIP3     10221    TIP3     H1       HT       0.417000       1.00800           0
     40579 TIP3     10221    TIP3     H2       HT       0.417000       1.00800           0
     40580 TIP3     10222    TIP3     OH2      OT      -0.834000       15.9994           0
     40581 TIP3     10222    TIP3     H1       HT       0.417000       1.00800           0
     40582 TIP3     10222    TIP3     H2       HT       0.417000       1.00800           0
     40583 TIP3     10223    TIP3     OH2      OT      -0.834000       15.9994           0
     40584 TIP3     10223    TIP3     H1       HT       0.417000       1.00800           0
     40585 TIP3     10223    TIP3     H2       HT       0.417000       1.00800           0
     40586 TIP3     10224    TIP3     OH2      OT      -0.834000       15.9994           0
     40587 TIP3     10224    TIP3     H1       HT       0.417000       1.00800           0
     40588 TIP3     10224    TIP3     H2       HT       0.417000       1.00800           0
     40589 TIP3     10225    TIP3     OH2      OT      -0.834000       15.9994           0
     40590 TIP3     10225    TIP3     H1       HT       0.417000       1.00800           0
     40591 TIP3     10225    TIP3     H2       HT       0.417000       1.00800           0
     40592 TIP3     10226    TIP3     OH2      OT      -0.834000       15.9994           0
     40593 TIP3     10226    TIP3     H1       HT       0.417000       1.00800           0
     40594 TIP3     10226    TIP3     H2       HT       0.417000       1.00800           0
     40595 TIP3     10227    TIP3     OH2      OT      -0.834000       15.9994           0
     40596 TIP3     10227    TIP3     H1       HT       0.417000       1.00800           0
     40597 TIP3     10227    TIP3     H2       HT       0.417000       1.00800           0
     40598 TIP3     10228    TIP3     OH2      OT      -0.834000       15.9994           0
     40599 TIP3     10228    TIP3     H1       HT       0.417000       1.00800           0
     40600 TIP3     10228    TIP3     H2       HT       0.417000       1.00800           0
     40601 TIP3     10229    TIP3     OH2      OT      -0.834000       15.9994           0
     40602 TIP3     10229    TIP3     H1       HT       0.417000       1.00800           0
     40603 TIP3     10229    TIP3     H2       HT       0.417000       1.00800           0
     40604 TIP3     10230    TIP3     OH2      OT      -0.834000       15.9994           0
     40605 TIP3     10230    TIP3     H1       HT       0.417000       1.00800           0
     40606 TIP3     10230    TIP3     H2       HT       0.417000       1.00800           0
     40607 TIP3     10231    TIP3     OH2      OT      -0.834000       15.9994           0
     40608 TIP3     10231    TIP3     H1       HT       0.417000       1.00800           0
     40609 TIP3     10231    TIP3     H2       HT       0.417000       1.00800           0
     40610 TIP3     10232    TIP3     OH2      OT      -0.834000       15.9994           0
     40611 TIP3     10232    TIP3     H1       HT       0.417000       1.00800           0
     40612 TIP3     10232    TIP3     H2       HT       0.417000       1.00800           0
     40613 TIP3     10233    TIP3     OH2      OT      -0.834000       15.9994           0
     40614 TIP3     10233    TIP3     H1       HT       0.417000       1.00800           0
     40615 TIP3     10233    TIP3     H2       HT       0.417000       1.00800           0
     40616 TIP3     10234    TIP3     OH2      OT      -0.834000       15.9994           0
     40617 TIP3     10234    TIP3     H1       HT       0.417000       1.00800           0
     40618 TIP3     10234    TIP3     H2       HT       0.417000       1.00800           0
     40619 TIP3     10235    TIP3     OH2      OT      -0.834000       15.9994           0
     40620 TIP3     10235    TIP3     H1       HT       0.417000       1.00800           0
     40621 TIP3     10235    TIP3     H2       HT       0.417000       1.00800           0
     40622 TIP3     10236    TIP3     OH2      OT      -0.834000       15.9994           0
     40623 TIP3     10236    TIP3     H1       HT       0.417000       1.00800           0
     40624 TIP3     10236    TIP3     H2       HT       0.417000       1.00800           0
     40625 TIP3     10237    TIP3     OH2      OT      -0.834000       15.9994           0
     40626 TIP3     10237    TIP3     H1       HT       0.417000       1.00800           0
     40627 TIP3     10237    TIP3     H2       HT       0.417000       1.00800           0
     40628 TIP3     10238    TIP3     OH2      OT      -0.834000       15.9994           0
     40629 TIP3     10238    TIP3     H1       HT       0.417000       1.00800           0
     40630 TIP3     10238    TIP3     H2       HT       0.417000       1.00800           0
     40631 TIP3     10239    TIP3     OH2      OT      -0.834000       15.9994           0
     40632 TIP3     10239    TIP3     H1       HT       0.417000       1.00800           0
     40633 TIP3     10239    TIP3     H2       HT       0.417000       1.00800           0
     40634 TIP3     10240    TIP3     OH2      OT      -0.834000       15.9994           0
     40635 TIP3     10240    TIP3     H1       HT       0.417000       1.00800           0
     40636 TIP3     10240    TIP3     H2       HT       0.417000       1.00800           0
     40637 TIP3     10241    TIP3     OH2      OT      -0.834000       15.9994           0
     40638 TIP3     10241    TIP3     H1       HT       0.417000       1.00800           0
     40639 TIP3     10241    TIP3     H2       HT       0.417000       1.00800           0
     40640 TIP3     10242    TIP3     OH2      OT      -0.834000       15.9994           0
     40641 TIP3     10242    TIP3     H1       HT       0.417000       1.00800           0
     40642 TIP3     10242    TIP3     H2       HT       0.417000       1.00800           0
     40643 TIP3     10243    TIP3     OH2      OT      -0.834000       15.9994           0
     40644 TIP3     10243    TIP3     H1       HT       0.417000       1.00800           0
     40645 TIP3     10243    TIP3     H2       HT       0.417000       1.00800           0
     40646 TIP3     10244    TIP3     OH2      OT      -0.834000       15.9994           0
     40647 TIP3     10244    TIP3     H1       HT       0.417000       1.00800           0
     40648 TIP3     10244    TIP3     H2       HT       0.417000       1.00800           0
     40649 TIP3     10245    TIP3     OH2      OT      -0.834000       15.9994           0
     40650 TIP3     10245    TIP3     H1       HT       0.417000       1.00800           0
     40651 TIP3     10245    TIP3     H2       HT       0.417000       1.00800           0
     40652 TIP3     10246    TIP3     OH2      OT      -0.834000       15.9994           0
     40653 TIP3     10246    TIP3     H1       HT       0.417000       1.00800           0
     40654 TIP3     10246    TIP3     H2       HT       0.417000       1.00800           0
     40655 TIP3     10247    TIP3     OH2      OT      -0.834000       15.9994           0
     40656 TIP3     10247    TIP3     H1       HT       0.417000       1.00800           0
     40657 TIP3     10247    TIP3     H2       HT       0.417000       1.00800           0
     40658 TIP3     10248    TIP3     OH2      OT      -0.834000       15.9994           0
     40659 TIP3     10248    TIP3     H1       HT       0.417000       1.00800           0
     40660 TIP3     10248    TIP3     H2       HT       0.417000       1.00800           0
     40661 TIP3     10249    TIP3     OH2      OT      -0.834000       15.9994           0
     40662 TIP3     10249    TIP3     H1       HT       0.417000       1.00800           0
     40663 TIP3     10249    TIP3     H2       HT       0.417000       1.00800           0
     40664 TIP3     10250    TIP3     OH2      OT      -0.834000       15.9994           0
     40665 TIP3     10250    TIP3     H1       HT       0.417000       1.00800           0
     40666 TIP3     10250    TIP3     H2       HT       0.417000       1.00800           0
     40667 TIP3     10251    TIP3     OH2      OT      -0.834000       15.9994           0
     40668 TIP3     10251    TIP3     H1       HT       0.417000       1.00800           0
     40669 TIP3     10251    TIP3     H2       HT       0.417000       1.00800           0
     40670 TIP3     10252    TIP3     OH2      OT      -0.834000       15.9994           0
     40671 TIP3     10252    TIP3     H1       HT       0.417000       1.00800           0
     40672 TIP3     10252    TIP3     H2       HT       0.417000       1.00800           0
     40673 TIP3     10253    TIP3     OH2      OT      -0.834000       15.9994           0
     40674 TIP3     10253    TIP3     H1       HT       0.417000       1.00800           0
     40675 TIP3     10253    TIP3     H2       HT       0.417000       1.00800           0
     40676 TIP3     10254    TIP3     OH2      OT      -0.834000       15.9994           0
     40677 TIP3     10254    TIP3     H1       HT       0.417000       1.00800           0
     40678 TIP3     10254    TIP3     H2       HT       0.417000       1.00800           0
     40679 TIP3     10255    TIP3     OH2      OT      -0.834000       15.9994           0
     40680 TIP3     10255    TIP3     H1       HT       0.417000       1.00800           0
     40681 TIP3     10255    TIP3     H2       HT       0.417000       1.00800           0
     40682 TIP3     10256    TIP3     OH2      OT      -0.834000       15.9994           0
     40683 TIP3     10256    TIP3     H1       HT       0.417000       1.00800           0
     40684 TIP3     10256    TIP3     H2       HT       0.417000       1.00800           0
     40685 TIP3     10257    TIP3     OH2      OT      -0.834000       15.9994           0
     40686 TIP3     10257    TIP3     H1       HT       0.417000       1.00800           0
     40687 TIP3     10257    TIP3     H2       HT       0.417000       1.00800           0
     40688 TIP3     10258    TIP3     OH2      OT      -0.834000       15.9994           0
     40689 TIP3     10258    TIP3     H1       HT       0.417000       1.00800           0
     40690 TIP3     10258    TIP3     H2       HT       0.417000       1.00800           0
     40691 TIP3     10259    TIP3     OH2      OT      -0.834000       15.9994           0
     40692 TIP3     10259    TIP3     H1       HT       0.417000       1.00800           0
     40693 TIP3     10259    TIP3     H2       HT       0.417000       1.00800           0
     40694 TIP3     10260    TIP3     OH2      OT      -0.834000       15.9994           0
     40695 TIP3     10260    TIP3     H1       HT       0.417000       1.00800           0
     40696 TIP3     10260    TIP3     H2       HT       0.417000       1.00800           0
     40697 TIP3     10261    TIP3     OH2      OT      -0.834000       15.9994           0
     40698 TIP3     10261    TIP3     H1       HT       0.417000       1.00800           0
     40699 TIP3     10261    TIP3     H2       HT       0.417000       1.00800           0
     40700 TIP3     10262    TIP3     OH2      OT      -0.834000       15.9994           0
     40701 TIP3     10262    TIP3     H1       HT       0.417000       1.00800           0
     40702 TIP3     10262    TIP3     H2       HT       0.417000       1.00800           0
     40703 TIP3     10263    TIP3     OH2      OT      -0.834000       15.9994           0
     40704 TIP3     10263    TIP3     H1       HT       0.417000       1.00800           0
     40705 TIP3     10263    TIP3     H2       HT       0.417000       1.00800           0
     40706 TIP3     10264    TIP3     OH2      OT      -0.834000       15.9994           0
     40707 TIP3     10264    TIP3     H1       HT       0.417000       1.00800           0
     40708 TIP3     10264    TIP3     H2       HT       0.417000       1.00800           0
     40709 TIP3     10265    TIP3     OH2      OT      -0.834000       15.9994           0
     40710 TIP3     10265    TIP3     H1       HT       0.417000       1.00800           0
     40711 TIP3     10265    TIP3     H2       HT       0.417000       1.00800           0
     40712 TIP3     10266    TIP3     OH2      OT      -0.834000       15.9994           0
     40713 TIP3     10266    TIP3     H1       HT       0.417000       1.00800           0
     40714 TIP3     10266    TIP3     H2       HT       0.417000       1.00800           0
     40715 TIP3     10267    TIP3     OH2      OT      -0.834000       15.9994           0
     40716 TIP3     10267    TIP3     H1       HT       0.417000       1.00800           0
     40717 TIP3     10267    TIP3     H2       HT       0.417000       1.00800           0
     40718 TIP3     10268    TIP3     OH2      OT      -0.834000       15.9994           0
     40719 TIP3     10268    TIP3     H1       HT       0.417000       1.00800           0
     40720 TIP3     10268    TIP3     H2       HT       0.417000       1.00800           0
     40721 TIP3     10269    TIP3     OH2      OT      -0.834000       15.9994           0
     40722 TIP3     10269    TIP3     H1       HT       0.417000       1.00800           0
     40723 TIP3     10269    TIP3     H2       HT       0.417000       1.00800           0
     40724 TIP3     10270    TIP3     OH2      OT      -0.834000       15.9994           0
     40725 TIP3     10270    TIP3     H1       HT       0.417000       1.00800           0
     40726 TIP3     10270    TIP3     H2       HT       0.417000       1.00800           0
     40727 TIP3     10271    TIP3     OH2      OT      -0.834000       15.9994           0
     40728 TIP3     10271    TIP3     H1       HT       0.417000       1.00800           0
     40729 TIP3     10271    TIP3     H2       HT       0.417000       1.00800           0
     40730 TIP3     10272    TIP3     OH2      OT      -0.834000       15.9994           0
     40731 TIP3     10272    TIP3     H1       HT       0.417000       1.00800           0
     40732 TIP3     10272    TIP3     H2       HT       0.417000       1.00800           0
     40733 TIP3     10273    TIP3     OH2      OT      -0.834000       15.9994           0
     40734 TIP3     10273    TIP3     H1       HT       0.417000       1.00800           0
     40735 TIP3     10273    TIP3     H2       HT       0.417000       1.00800           0
     40736 TIP3     10274    TIP3     OH2      OT      -0.834000       15.9994           0
     40737 TIP3     10274    TIP3     H1       HT       0.417000       1.00800           0
     40738 TIP3     10274    TIP3     H2       HT       0.417000       1.00800           0
     40739 TIP3     10275    TIP3     OH2      OT      -0.834000       15.9994           0
     40740 TIP3     10275    TIP3     H1       HT       0.417000       1.00800           0
     40741 TIP3     10275    TIP3     H2       HT       0.417000       1.00800           0
     40742 TIP3     10276    TIP3     OH2      OT      -0.834000       15.9994           0
     40743 TIP3     10276    TIP3     H1       HT       0.417000       1.00800           0
     40744 TIP3     10276    TIP3     H2       HT       0.417000       1.00800           0
     40745 TIP3     10277    TIP3     OH2      OT      -0.834000       15.9994           0
     40746 TIP3     10277    TIP3     H1       HT       0.417000       1.00800           0
     40747 TIP3     10277    TIP3     H2       HT       0.417000       1.00800           0
     40748 TIP3     10278    TIP3     OH2      OT      -0.834000       15.9994           0
     40749 TIP3     10278    TIP3     H1       HT       0.417000       1.00800           0
     40750 TIP3     10278    TIP3     H2       HT       0.417000       1.00800           0
     40751 TIP3     10279    TIP3     OH2      OT      -0.834000       15.9994           0
     40752 TIP3     10279    TIP3     H1       HT       0.417000       1.00800           0
     40753 TIP3     10279    TIP3     H2       HT       0.417000       1.00800           0
     40754 TIP3     10280    TIP3     OH2      OT      -0.834000       15.9994           0
     40755 TIP3     10280    TIP3     H1       HT       0.417000       1.00800           0
     40756 TIP3     10280    TIP3     H2       HT       0.417000       1.00800           0
     40757 TIP3     10281    TIP3     OH2      OT      -0.834000       15.9994           0
     40758 TIP3     10281    TIP3     H1       HT       0.417000       1.00800           0
     40759 TIP3     10281    TIP3     H2       HT       0.417000       1.00800           0
     40760 TIP3     10282    TIP3     OH2      OT      -0.834000       15.9994           0
     40761 TIP3     10282    TIP3     H1       HT       0.417000       1.00800           0
     40762 TIP3     10282    TIP3     H2       HT       0.417000       1.00800           0
     40763 TIP3     10283    TIP3     OH2      OT      -0.834000       15.9994           0
     40764 TIP3     10283    TIP3     H1       HT       0.417000       1.00800           0
     40765 TIP3     10283    TIP3     H2       HT       0.417000       1.00800           0
     40766 TIP3     10284    TIP3     OH2      OT      -0.834000       15.9994           0
     40767 TIP3     10284    TIP3     H1       HT       0.417000       1.00800           0
     40768 TIP3     10284    TIP3     H2       HT       0.417000       1.00800           0
     40769 TIP3     10285    TIP3     OH2      OT      -0.834000       15.9994           0
     40770 TIP3     10285    TIP3     H1       HT       0.417000       1.00800           0
     40771 TIP3     10285    TIP3     H2       HT       0.417000       1.00800           0
     40772 TIP3     10286    TIP3     OH2      OT      -0.834000       15.9994           0
     40773 TIP3     10286    TIP3     H1       HT       0.417000       1.00800           0
     40774 TIP3     10286    TIP3     H2       HT       0.417000       1.00800           0
     40775 TIP3     10287    TIP3     OH2      OT      -0.834000       15.9994           0
     40776 TIP3     10287    TIP3     H1       HT       0.417000       1.00800           0
     40777 TIP3     10287    TIP3     H2       HT       0.417000       1.00800           0
     40778 TIP3     10288    TIP3     OH2      OT      -0.834000       15.9994           0
     40779 TIP3     10288    TIP3     H1       HT       0.417000       1.00800           0
     40780 TIP3     10288    TIP3     H2       HT       0.417000       1.00800           0
     40781 TIP3     10289    TIP3     OH2      OT      -0.834000       15.9994           0
     40782 TIP3     10289    TIP3     H1       HT       0.417000       1.00800           0
     40783 TIP3     10289    TIP3     H2       HT       0.417000       1.00800           0
     40784 TIP3     10290    TIP3     OH2      OT      -0.834000       15.9994           0
     40785 TIP3     10290    TIP3     H1       HT       0.417000       1.00800           0
     40786 TIP3     10290    TIP3     H2       HT       0.417000       1.00800           0
     40787 TIP3     10291    TIP3     OH2      OT      -0.834000       15.9994           0
     40788 TIP3     10291    TIP3     H1       HT       0.417000       1.00800           0
     40789 TIP3     10291    TIP3     H2       HT       0.417000       1.00800           0
     40790 TIP3     10292    TIP3     OH2      OT      -0.834000       15.9994           0
     40791 TIP3     10292    TIP3     H1       HT       0.417000       1.00800           0
     40792 TIP3     10292    TIP3     H2       HT       0.417000       1.00800           0
     40793 TIP3     10293    TIP3     OH2      OT      -0.834000       15.9994           0
     40794 TIP3     10293    TIP3     H1       HT       0.417000       1.00800           0
     40795 TIP3     10293    TIP3     H2       HT       0.417000       1.00800           0
     40796 TIP3     10294    TIP3     OH2      OT      -0.834000       15.9994           0
     40797 TIP3     10294    TIP3     H1       HT       0.417000       1.00800           0
     40798 TIP3     10294    TIP3     H2       HT       0.417000       1.00800           0
     40799 TIP3     10295    TIP3     OH2      OT      -0.834000       15.9994           0
     40800 TIP3     10295    TIP3     H1       HT       0.417000       1.00800           0
     40801 TIP3     10295    TIP3     H2       HT       0.417000       1.00800           0
     40802 TIP3     10296    TIP3     OH2      OT      -0.834000       15.9994           0
     40803 TIP3     10296    TIP3     H1       HT       0.417000       1.00800           0
     40804 TIP3     10296    TIP3     H2       HT       0.417000       1.00800           0
     40805 TIP3     10297    TIP3     OH2      OT      -0.834000       15.9994           0
     40806 TIP3     10297    TIP3     H1       HT       0.417000       1.00800           0
     40807 TIP3     10297    TIP3     H2       HT       0.417000       1.00800           0
     40808 TIP3     10298    TIP3     OH2      OT      -0.834000       15.9994           0
     40809 TIP3     10298    TIP3     H1       HT       0.417000       1.00800           0
     40810 TIP3     10298    TIP3     H2       HT       0.417000       1.00800           0
     40811 TIP3     10299    TIP3     OH2      OT      -0.834000       15.9994           0
     40812 TIP3     10299    TIP3     H1       HT       0.417000       1.00800           0
     40813 TIP3     10299    TIP3     H2       HT       0.417000       1.00800           0
     40814 TIP3     10300    TIP3     OH2      OT      -0.834000       15.9994           0
     40815 TIP3     10300    TIP3     H1       HT       0.417000       1.00800           0
     40816 TIP3     10300    TIP3     H2       HT       0.417000       1.00800           0
     40817 TIP3     10301    TIP3     OH2      OT      -0.834000       15.9994           0
     40818 TIP3     10301    TIP3     H1       HT       0.417000       1.00800           0
     40819 TIP3     10301    TIP3     H2       HT       0.417000       1.00800           0
     40820 TIP3     10302    TIP3     OH2      OT      -0.834000       15.9994           0
     40821 TIP3     10302    TIP3     H1       HT       0.417000       1.00800           0
     40822 TIP3     10302    TIP3     H2       HT       0.417000       1.00800           0
     40823 TIP3     10303    TIP3     OH2      OT      -0.834000       15.9994           0
     40824 TIP3     10303    TIP3     H1       HT       0.417000       1.00800           0
     40825 TIP3     10303    TIP3     H2       HT       0.417000       1.00800           0
     40826 TIP3     10304    TIP3     OH2      OT      -0.834000       15.9994           0
     40827 TIP3     10304    TIP3     H1       HT       0.417000       1.00800           0
     40828 TIP3     10304    TIP3     H2       HT       0.417000       1.00800           0
     40829 TIP3     10305    TIP3     OH2      OT      -0.834000       15.9994           0
     40830 TIP3     10305    TIP3     H1       HT       0.417000       1.00800           0
     40831 TIP3     10305    TIP3     H2       HT       0.417000       1.00800           0
     40832 TIP3     10306    TIP3     OH2      OT      -0.834000       15.9994           0
     40833 TIP3     10306    TIP3     H1       HT       0.417000       1.00800           0
     40834 TIP3     10306    TIP3     H2       HT       0.417000       1.00800           0
     40835 TIP3     10307    TIP3     OH2      OT      -0.834000       15.9994           0
     40836 TIP3     10307    TIP3     H1       HT       0.417000       1.00800           0
     40837 TIP3     10307    TIP3     H2       HT       0.417000       1.00800           0
     40838 TIP3     10308    TIP3     OH2      OT      -0.834000       15.9994           0
     40839 TIP3     10308    TIP3     H1       HT       0.417000       1.00800           0
     40840 TIP3     10308    TIP3     H2       HT       0.417000       1.00800           0
     40841 TIP3     10309    TIP3     OH2      OT      -0.834000       15.9994           0
     40842 TIP3     10309    TIP3     H1       HT       0.417000       1.00800           0
     40843 TIP3     10309    TIP3     H2       HT       0.417000       1.00800           0
     40844 TIP3     10310    TIP3     OH2      OT      -0.834000       15.9994           0
     40845 TIP3     10310    TIP3     H1       HT       0.417000       1.00800           0
     40846 TIP3     10310    TIP3     H2       HT       0.417000       1.00800           0
     40847 TIP3     10311    TIP3     OH2      OT      -0.834000       15.9994           0
     40848 TIP3     10311    TIP3     H1       HT       0.417000       1.00800           0
     40849 TIP3     10311    TIP3     H2       HT       0.417000       1.00800           0
     40850 TIP3     10312    TIP3     OH2      OT      -0.834000       15.9994           0
     40851 TIP3     10312    TIP3     H1       HT       0.417000       1.00800           0
     40852 TIP3     10312    TIP3     H2       HT       0.417000       1.00800           0
     40853 TIP3     10313    TIP3     OH2      OT      -0.834000       15.9994           0
     40854 TIP3     10313    TIP3     H1       HT       0.417000       1.00800           0
     40855 TIP3     10313    TIP3     H2       HT       0.417000       1.00800           0
     40856 TIP3     10314    TIP3     OH2      OT      -0.834000       15.9994           0
     40857 TIP3     10314    TIP3     H1       HT       0.417000       1.00800           0
     40858 TIP3     10314    TIP3     H2       HT       0.417000       1.00800           0
     40859 TIP3     10315    TIP3     OH2      OT      -0.834000       15.9994           0
     40860 TIP3     10315    TIP3     H1       HT       0.417000       1.00800           0
     40861 TIP3     10315    TIP3     H2       HT       0.417000       1.00800           0
     40862 TIP3     10316    TIP3     OH2      OT      -0.834000       15.9994           0
     40863 TIP3     10316    TIP3     H1       HT       0.417000       1.00800           0
     40864 TIP3     10316    TIP3     H2       HT       0.417000       1.00800           0
     40865 TIP3     10317    TIP3     OH2      OT      -0.834000       15.9994           0
     40866 TIP3     10317    TIP3     H1       HT       0.417000       1.00800           0
     40867 TIP3     10317    TIP3     H2       HT       0.417000       1.00800           0
     40868 TIP3     10318    TIP3     OH2      OT      -0.834000       15.9994           0
     40869 TIP3     10318    TIP3     H1       HT       0.417000       1.00800           0
     40870 TIP3     10318    TIP3     H2       HT       0.417000       1.00800           0
     40871 TIP3     10319    TIP3     OH2      OT      -0.834000       15.9994           0
     40872 TIP3     10319    TIP3     H1       HT       0.417000       1.00800           0
     40873 TIP3     10319    TIP3     H2       HT       0.417000       1.00800           0
     40874 TIP3     10320    TIP3     OH2      OT      -0.834000       15.9994           0
     40875 TIP3     10320    TIP3     H1       HT       0.417000       1.00800           0
     40876 TIP3     10320    TIP3     H2       HT       0.417000       1.00800           0
     40877 TIP3     10321    TIP3     OH2      OT      -0.834000       15.9994           0
     40878 TIP3     10321    TIP3     H1       HT       0.417000       1.00800           0
     40879 TIP3     10321    TIP3     H2       HT       0.417000       1.00800           0
     40880 TIP3     10322    TIP3     OH2      OT      -0.834000       15.9994           0
     40881 TIP3     10322    TIP3     H1       HT       0.417000       1.00800           0
     40882 TIP3     10322    TIP3     H2       HT       0.417000       1.00800           0
     40883 TIP3     10323    TIP3     OH2      OT      -0.834000       15.9994           0
     40884 TIP3     10323    TIP3     H1       HT       0.417000       1.00800           0
     40885 TIP3     10323    TIP3     H2       HT       0.417000       1.00800           0
     40886 TIP3     10324    TIP3     OH2      OT      -0.834000       15.9994           0
     40887 TIP3     10324    TIP3     H1       HT       0.417000       1.00800           0
     40888 TIP3     10324    TIP3     H2       HT       0.417000       1.00800           0
     40889 TIP3     10325    TIP3     OH2      OT      -0.834000       15.9994           0
     40890 TIP3     10325    TIP3     H1       HT       0.417000       1.00800           0
     40891 TIP3     10325    TIP3     H2       HT       0.417000       1.00800           0
     40892 TIP3     10326    TIP3     OH2      OT      -0.834000       15.9994           0
     40893 TIP3     10326    TIP3     H1       HT       0.417000       1.00800           0
     40894 TIP3     10326    TIP3     H2       HT       0.417000       1.00800           0
     40895 TIP3     10327    TIP3     OH2      OT      -0.834000       15.9994           0
     40896 TIP3     10327    TIP3     H1       HT       0.417000       1.00800           0
     40897 TIP3     10327    TIP3     H2       HT       0.417000       1.00800           0
     40898 TIP3     10328    TIP3     OH2      OT      -0.834000       15.9994           0
     40899 TIP3     10328    TIP3     H1       HT       0.417000       1.00800           0
     40900 TIP3     10328    TIP3     H2       HT       0.417000       1.00800           0
     40901 TIP3     10329    TIP3     OH2      OT      -0.834000       15.9994           0
     40902 TIP3     10329    TIP3     H1       HT       0.417000       1.00800           0
     40903 TIP3     10329    TIP3     H2       HT       0.417000       1.00800           0
     40904 TIP3     10330    TIP3     OH2      OT      -0.834000       15.9994           0
     40905 TIP3     10330    TIP3     H1       HT       0.417000       1.00800           0
     40906 TIP3     10330    TIP3     H2       HT       0.417000       1.00800           0
     40907 TIP3     10331    TIP3     OH2      OT      -0.834000       15.9994           0
     40908 TIP3     10331    TIP3     H1       HT       0.417000       1.00800           0
     40909 TIP3     10331    TIP3     H2       HT       0.417000       1.00800           0
     40910 TIP3     10332    TIP3     OH2      OT      -0.834000       15.9994           0
     40911 TIP3     10332    TIP3     H1       HT       0.417000       1.00800           0
     40912 TIP3     10332    TIP3     H2       HT       0.417000       1.00800           0
     40913 TIP3     10333    TIP3     OH2      OT      -0.834000       15.9994           0
     40914 TIP3     10333    TIP3     H1       HT       0.417000       1.00800           0
     40915 TIP3     10333    TIP3     H2       HT       0.417000       1.00800           0
     40916 TIP3     10334    TIP3     OH2      OT      -0.834000       15.9994           0
     40917 TIP3     10334    TIP3     H1       HT       0.417000       1.00800           0
     40918 TIP3     10334    TIP3     H2       HT       0.417000       1.00800           0
     40919 TIP3     10335    TIP3     OH2      OT      -0.834000       15.9994           0
     40920 TIP3     10335    TIP3     H1       HT       0.417000       1.00800           0
     40921 TIP3     10335    TIP3     H2       HT       0.417000       1.00800           0
     40922 TIP3     10336    TIP3     OH2      OT      -0.834000       15.9994           0
     40923 TIP3     10336    TIP3     H1       HT       0.417000       1.00800           0
     40924 TIP3     10336    TIP3     H2       HT       0.417000       1.00800           0
     40925 TIP3     10337    TIP3     OH2      OT      -0.834000       15.9994           0
     40926 TIP3     10337    TIP3     H1       HT       0.417000       1.00800           0
     40927 TIP3     10337    TIP3     H2       HT       0.417000       1.00800           0
     40928 TIP3     10338    TIP3     OH2      OT      -0.834000       15.9994           0
     40929 TIP3     10338    TIP3     H1       HT       0.417000       1.00800           0
     40930 TIP3     10338    TIP3     H2       HT       0.417000       1.00800           0
     40931 TIP3     10339    TIP3     OH2      OT      -0.834000       15.9994           0
     40932 TIP3     10339    TIP3     H1       HT       0.417000       1.00800           0
     40933 TIP3     10339    TIP3     H2       HT       0.417000       1.00800           0
     40934 TIP3     10340    TIP3     OH2      OT      -0.834000       15.9994           0
     40935 TIP3     10340    TIP3     H1       HT       0.417000       1.00800           0
     40936 TIP3     10340    TIP3     H2       HT       0.417000       1.00800           0
     40937 TIP3     10341    TIP3     OH2      OT      -0.834000       15.9994           0
     40938 TIP3     10341    TIP3     H1       HT       0.417000       1.00800           0
     40939 TIP3     10341    TIP3     H2       HT       0.417000       1.00800           0
     40940 TIP3     10342    TIP3     OH2      OT      -0.834000       15.9994           0
     40941 TIP3     10342    TIP3     H1       HT       0.417000       1.00800           0
     40942 TIP3     10342    TIP3     H2       HT       0.417000       1.00800           0
     40943 TIP3     10343    TIP3     OH2      OT      -0.834000       15.9994           0
     40944 TIP3     10343    TIP3     H1       HT       0.417000       1.00800           0
     40945 TIP3     10343    TIP3     H2       HT       0.417000       1.00800           0
     40946 TIP3     10344    TIP3     OH2      OT      -0.834000       15.9994           0
     40947 TIP3     10344    TIP3     H1       HT       0.417000       1.00800           0
     40948 TIP3     10344    TIP3     H2       HT       0.417000       1.00800           0
     40949 TIP3     10345    TIP3     OH2      OT      -0.834000       15.9994           0
     40950 TIP3     10345    TIP3     H1       HT       0.417000       1.00800           0
     40951 TIP3     10345    TIP3     H2       HT       0.417000       1.00800           0
     40952 TIP3     10346    TIP3     OH2      OT      -0.834000       15.9994           0
     40953 TIP3     10346    TIP3     H1       HT       0.417000       1.00800           0
     40954 TIP3     10346    TIP3     H2       HT       0.417000       1.00800           0
     40955 TIP3     10347    TIP3     OH2      OT      -0.834000       15.9994           0
     40956 TIP3     10347    TIP3     H1       HT       0.417000       1.00800           0
     40957 TIP3     10347    TIP3     H2       HT       0.417000       1.00800           0
     40958 TIP3     10348    TIP3     OH2      OT      -0.834000       15.9994           0
     40959 TIP3     10348    TIP3     H1       HT       0.417000       1.00800           0
     40960 TIP3     10348    TIP3     H2       HT       0.417000       1.00800           0
     40961 TIP3     10349    TIP3     OH2      OT      -0.834000       15.9994           0
     40962 TIP3     10349    TIP3     H1       HT       0.417000       1.00800           0
     40963 TIP3     10349    TIP3     H2       HT       0.417000       1.00800           0
     40964 TIP3     10350    TIP3     OH2      OT      -0.834000       15.9994           0
     40965 TIP3     10350    TIP3     H1       HT       0.417000       1.00800           0
     40966 TIP3     10350    TIP3     H2       HT       0.417000       1.00800           0
     40967 TIP3     10351    TIP3     OH2      OT      -0.834000       15.9994           0
     40968 TIP3     10351    TIP3     H1       HT       0.417000       1.00800           0
     40969 TIP3     10351    TIP3     H2       HT       0.417000       1.00800           0
     40970 TIP3     10352    TIP3     OH2      OT      -0.834000       15.9994           0
     40971 TIP3     10352    TIP3     H1       HT       0.417000       1.00800           0
     40972 TIP3     10352    TIP3     H2       HT       0.417000       1.00800           0
     40973 TIP3     10353    TIP3     OH2      OT      -0.834000       15.9994           0
     40974 TIP3     10353    TIP3     H1       HT       0.417000       1.00800           0
     40975 TIP3     10353    TIP3     H2       HT       0.417000       1.00800           0
     40976 TIP3     10354    TIP3     OH2      OT      -0.834000       15.9994           0
     40977 TIP3     10354    TIP3     H1       HT       0.417000       1.00800           0
     40978 TIP3     10354    TIP3     H2       HT       0.417000       1.00800           0
     40979 TIP3     10355    TIP3     OH2      OT      -0.834000       15.9994           0
     40980 TIP3     10355    TIP3     H1       HT       0.417000       1.00800           0
     40981 TIP3     10355    TIP3     H2       HT       0.417000       1.00800           0
     40982 TIP3     10356    TIP3     OH2      OT      -0.834000       15.9994           0
     40983 TIP3     10356    TIP3     H1       HT       0.417000       1.00800           0
     40984 TIP3     10356    TIP3     H2       HT       0.417000       1.00800           0
     40985 TIP3     10357    TIP3     OH2      OT      -0.834000       15.9994           0
     40986 TIP3     10357    TIP3     H1       HT       0.417000       1.00800           0
     40987 TIP3     10357    TIP3     H2       HT       0.417000       1.00800           0
     40988 TIP3     10358    TIP3     OH2      OT      -0.834000       15.9994           0
     40989 TIP3     10358    TIP3     H1       HT       0.417000       1.00800           0
     40990 TIP3     10358    TIP3     H2       HT       0.417000       1.00800           0
     40991 TIP3     10359    TIP3     OH2      OT      -0.834000       15.9994           0
     40992 TIP3     10359    TIP3     H1       HT       0.417000       1.00800           0
     40993 TIP3     10359    TIP3     H2       HT       0.417000       1.00800           0
     40994 TIP3     10360    TIP3     OH2      OT      -0.834000       15.9994           0
     40995 TIP3     10360    TIP3     H1       HT       0.417000       1.00800           0
     40996 TIP3     10360    TIP3     H2       HT       0.417000       1.00800           0
     40997 TIP3     10361    TIP3     OH2      OT      -0.834000       15.9994           0
     40998 TIP3     10361    TIP3     H1       HT       0.417000       1.00800           0
     40999 TIP3     10361    TIP3     H2       HT       0.417000       1.00800           0
     41000 TIP3     10362    TIP3     OH2      OT      -0.834000       15.9994           0
     41001 TIP3     10362    TIP3     H1       HT       0.417000       1.00800           0
     41002 TIP3     10362    TIP3     H2       HT       0.417000       1.00800           0
     41003 TIP3     10363    TIP3     OH2      OT      -0.834000       15.9994           0
     41004 TIP3     10363    TIP3     H1       HT       0.417000       1.00800           0
     41005 TIP3     10363    TIP3     H2       HT       0.417000       1.00800           0
     41006 TIP3     10364    TIP3     OH2      OT      -0.834000       15.9994           0
     41007 TIP3     10364    TIP3     H1       HT       0.417000       1.00800           0
     41008 TIP3     10364    TIP3     H2       HT       0.417000       1.00800           0
     41009 TIP3     10365    TIP3     OH2      OT      -0.834000       15.9994           0
     41010 TIP3     10365    TIP3     H1       HT       0.417000       1.00800           0
     41011 TIP3     10365    TIP3     H2       HT       0.417000       1.00800           0
     41012 TIP3     10366    TIP3     OH2      OT      -0.834000       15.9994           0
     41013 TIP3     10366    TIP3     H1       HT       0.417000       1.00800           0
     41014 TIP3     10366    TIP3     H2       HT       0.417000       1.00800           0
     41015 TIP3     10367    TIP3     OH2      OT      -0.834000       15.9994           0
     41016 TIP3     10367    TIP3     H1       HT       0.417000       1.00800           0
     41017 TIP3     10367    TIP3     H2       HT       0.417000       1.00800           0
     41018 TIP3     10368    TIP3     OH2      OT      -0.834000       15.9994           0
     41019 TIP3     10368    TIP3     H1       HT       0.417000       1.00800           0
     41020 TIP3     10368    TIP3     H2       HT       0.417000       1.00800           0
     41021 TIP3     10369    TIP3     OH2      OT      -0.834000       15.9994           0
     41022 TIP3     10369    TIP3     H1       HT       0.417000       1.00800           0
     41023 TIP3     10369    TIP3     H2       HT       0.417000       1.00800           0
     41024 TIP3     10370    TIP3     OH2      OT      -0.834000       15.9994           0
     41025 TIP3     10370    TIP3     H1       HT       0.417000       1.00800           0
     41026 TIP3     10370    TIP3     H2       HT       0.417000       1.00800           0
     41027 TIP3     10371    TIP3     OH2      OT      -0.834000       15.9994           0
     41028 TIP3     10371    TIP3     H1       HT       0.417000       1.00800           0
     41029 TIP3     10371    TIP3     H2       HT       0.417000       1.00800           0
     41030 TIP3     10372    TIP3     OH2      OT      -0.834000       15.9994           0
     41031 TIP3     10372    TIP3     H1       HT       0.417000       1.00800           0
     41032 TIP3     10372    TIP3     H2       HT       0.417000       1.00800           0
     41033 TIP3     10373    TIP3     OH2      OT      -0.834000       15.9994           0
     41034 TIP3     10373    TIP3     H1       HT       0.417000       1.00800           0
     41035 TIP3     10373    TIP3     H2       HT       0.417000       1.00800           0
     41036 TIP3     10374    TIP3     OH2      OT      -0.834000       15.9994           0
     41037 TIP3     10374    TIP3     H1       HT       0.417000       1.00800           0
     41038 TIP3     10374    TIP3     H2       HT       0.417000       1.00800           0
     41039 TIP3     10375    TIP3     OH2      OT      -0.834000       15.9994           0
     41040 TIP3     10375    TIP3     H1       HT       0.417000       1.00800           0
     41041 TIP3     10375    TIP3     H2       HT       0.417000       1.00800           0
     41042 TIP3     10376    TIP3     OH2      OT      -0.834000       15.9994           0
     41043 TIP3     10376    TIP3     H1       HT       0.417000       1.00800           0
     41044 TIP3     10376    TIP3     H2       HT       0.417000       1.00800           0
     41045 TIP3     10377    TIP3     OH2      OT      -0.834000       15.9994           0
     41046 TIP3     10377    TIP3     H1       HT       0.417000       1.00800           0
     41047 TIP3     10377    TIP3     H2       HT       0.417000       1.00800           0
     41048 TIP3     10378    TIP3     OH2      OT      -0.834000       15.9994           0
     41049 TIP3     10378    TIP3     H1       HT       0.417000       1.00800           0
     41050 TIP3     10378    TIP3     H2       HT       0.417000       1.00800           0
     41051 TIP3     10379    TIP3     OH2      OT      -0.834000       15.9994           0
     41052 TIP3     10379    TIP3     H1       HT       0.417000       1.00800           0
     41053 TIP3     10379    TIP3     H2       HT       0.417000       1.00800           0
     41054 TIP3     10380    TIP3     OH2      OT      -0.834000       15.9994           0
     41055 TIP3     10380    TIP3     H1       HT       0.417000       1.00800           0
     41056 TIP3     10380    TIP3     H2       HT       0.417000       1.00800           0
     41057 TIP3     10381    TIP3     OH2      OT      -0.834000       15.9994           0
     41058 TIP3     10381    TIP3     H1       HT       0.417000       1.00800           0
     41059 TIP3     10381    TIP3     H2       HT       0.417000       1.00800           0
     41060 TIP3     10382    TIP3     OH2      OT      -0.834000       15.9994           0
     41061 TIP3     10382    TIP3     H1       HT       0.417000       1.00800           0
     41062 TIP3     10382    TIP3     H2       HT       0.417000       1.00800           0
     41063 TIP3     10383    TIP3     OH2      OT      -0.834000       15.9994           0
     41064 TIP3     10383    TIP3     H1       HT       0.417000       1.00800           0
     41065 TIP3     10383    TIP3     H2       HT       0.417000       1.00800           0
     41066 TIP3     10384    TIP3     OH2      OT      -0.834000       15.9994           0
     41067 TIP3     10384    TIP3     H1       HT       0.417000       1.00800           0
     41068 TIP3     10384    TIP3     H2       HT       0.417000       1.00800           0
     41069 TIP3     10385    TIP3     OH2      OT      -0.834000       15.9994           0
     41070 TIP3     10385    TIP3     H1       HT       0.417000       1.00800           0
     41071 TIP3     10385    TIP3     H2       HT       0.417000       1.00800           0
     41072 TIP3     10386    TIP3     OH2      OT      -0.834000       15.9994           0
     41073 TIP3     10386    TIP3     H1       HT       0.417000       1.00800           0
     41074 TIP3     10386    TIP3     H2       HT       0.417000       1.00800           0
     41075 TIP3     10387    TIP3     OH2      OT      -0.834000       15.9994           0
     41076 TIP3     10387    TIP3     H1       HT       0.417000       1.00800           0
     41077 TIP3     10387    TIP3     H2       HT       0.417000       1.00800           0
     41078 TIP3     10388    TIP3     OH2      OT      -0.834000       15.9994           0
     41079 TIP3     10388    TIP3     H1       HT       0.417000       1.00800           0
     41080 TIP3     10388    TIP3     H2       HT       0.417000       1.00800           0
     41081 TIP3     10389    TIP3     OH2      OT      -0.834000       15.9994           0
     41082 TIP3     10389    TIP3     H1       HT       0.417000       1.00800           0
     41083 TIP3     10389    TIP3     H2       HT       0.417000       1.00800           0
     41084 TIP3     10390    TIP3     OH2      OT      -0.834000       15.9994           0
     41085 TIP3     10390    TIP3     H1       HT       0.417000       1.00800           0
     41086 TIP3     10390    TIP3     H2       HT       0.417000       1.00800           0
     41087 TIP3     10391    TIP3     OH2      OT      -0.834000       15.9994           0
     41088 TIP3     10391    TIP3     H1       HT       0.417000       1.00800           0
     41089 TIP3     10391    TIP3     H2       HT       0.417000       1.00800           0
     41090 TIP3     10392    TIP3     OH2      OT      -0.834000       15.9994           0
     41091 TIP3     10392    TIP3     H1       HT       0.417000       1.00800           0
     41092 TIP3     10392    TIP3     H2       HT       0.417000       1.00800           0
     41093 TIP3     10393    TIP3     OH2      OT      -0.834000       15.9994           0
     41094 TIP3     10393    TIP3     H1       HT       0.417000       1.00800           0
     41095 TIP3     10393    TIP3     H2       HT       0.417000       1.00800           0
     41096 TIP3     10394    TIP3     OH2      OT      -0.834000       15.9994           0
     41097 TIP3     10394    TIP3     H1       HT       0.417000       1.00800           0
     41098 TIP3     10394    TIP3     H2       HT       0.417000       1.00800           0
     41099 TIP3     10395    TIP3     OH2      OT      -0.834000       15.9994           0
     41100 TIP3     10395    TIP3     H1       HT       0.417000       1.00800           0
     41101 TIP3     10395    TIP3     H2       HT       0.417000       1.00800           0
     41102 TIP3     10396    TIP3     OH2      OT      -0.834000       15.9994           0
     41103 TIP3     10396    TIP3     H1       HT       0.417000       1.00800           0
     41104 TIP3     10396    TIP3     H2       HT       0.417000       1.00800           0
     41105 TIP3     10397    TIP3     OH2      OT      -0.834000       15.9994           0
     41106 TIP3     10397    TIP3     H1       HT       0.417000       1.00800           0
     41107 TIP3     10397    TIP3     H2       HT       0.417000       1.00800           0
     41108 TIP3     10398    TIP3     OH2      OT      -0.834000       15.9994           0
     41109 TIP3     10398    TIP3     H1       HT       0.417000       1.00800           0
     41110 TIP3     10398    TIP3     H2       HT       0.417000       1.00800           0
     41111 TIP3     10399    TIP3     OH2      OT      -0.834000       15.9994           0
     41112 TIP3     10399    TIP3     H1       HT       0.417000       1.00800           0
     41113 TIP3     10399    TIP3     H2       HT       0.417000       1.00800           0
     41114 TIP3     10400    TIP3     OH2      OT      -0.834000       15.9994           0
     41115 TIP3     10400    TIP3     H1       HT       0.417000       1.00800           0
     41116 TIP3     10400    TIP3     H2       HT       0.417000       1.00800           0
     41117 TIP3     10401    TIP3     OH2      OT      -0.834000       15.9994           0
     41118 TIP3     10401    TIP3     H1       HT       0.417000       1.00800           0
     41119 TIP3     10401    TIP3     H2       HT       0.417000       1.00800           0
     41120 TIP3     10402    TIP3     OH2      OT      -0.834000       15.9994           0
     41121 TIP3     10402    TIP3     H1       HT       0.417000       1.00800           0
     41122 TIP3     10402    TIP3     H2       HT       0.417000       1.00800           0
     41123 TIP3     10403    TIP3     OH2      OT      -0.834000       15.9994           0
     41124 TIP3     10403    TIP3     H1       HT       0.417000       1.00800           0
     41125 TIP3     10403    TIP3     H2       HT       0.417000       1.00800           0
     41126 TIP3     10404    TIP3     OH2      OT      -0.834000       15.9994           0
     41127 TIP3     10404    TIP3     H1       HT       0.417000       1.00800           0
     41128 TIP3     10404    TIP3     H2       HT       0.417000       1.00800           0
     41129 TIP3     10405    TIP3     OH2      OT      -0.834000       15.9994           0
     41130 TIP3     10405    TIP3     H1       HT       0.417000       1.00800           0
     41131 TIP3     10405    TIP3     H2       HT       0.417000       1.00800           0
     41132 TIP3     10406    TIP3     OH2      OT      -0.834000       15.9994           0
     41133 TIP3     10406    TIP3     H1       HT       0.417000       1.00800           0
     41134 TIP3     10406    TIP3     H2       HT       0.417000       1.00800           0
     41135 TIP3     10407    TIP3     OH2      OT      -0.834000       15.9994           0
     41136 TIP3     10407    TIP3     H1       HT       0.417000       1.00800           0
     41137 TIP3     10407    TIP3     H2       HT       0.417000       1.00800           0
     41138 TIP3     10408    TIP3     OH2      OT      -0.834000       15.9994           0
     41139 TIP3     10408    TIP3     H1       HT       0.417000       1.00800           0
     41140 TIP3     10408    TIP3     H2       HT       0.417000       1.00800           0
     41141 TIP3     10409    TIP3     OH2      OT      -0.834000       15.9994           0
     41142 TIP3     10409    TIP3     H1       HT       0.417000       1.00800           0
     41143 TIP3     10409    TIP3     H2       HT       0.417000       1.00800           0
     41144 TIP3     10410    TIP3     OH2      OT      -0.834000       15.9994           0
     41145 TIP3     10410    TIP3     H1       HT       0.417000       1.00800           0
     41146 TIP3     10410    TIP3     H2       HT       0.417000       1.00800           0
     41147 TIP3     10411    TIP3     OH2      OT      -0.834000       15.9994           0
     41148 TIP3     10411    TIP3     H1       HT       0.417000       1.00800           0
     41149 TIP3     10411    TIP3     H2       HT       0.417000       1.00800           0
     41150 TIP3     10412    TIP3     OH2      OT      -0.834000       15.9994           0
     41151 TIP3     10412    TIP3     H1       HT       0.417000       1.00800           0
     41152 TIP3     10412    TIP3     H2       HT       0.417000       1.00800           0
     41153 TIP3     10413    TIP3     OH2      OT      -0.834000       15.9994           0
     41154 TIP3     10413    TIP3     H1       HT       0.417000       1.00800           0
     41155 TIP3     10413    TIP3     H2       HT       0.417000       1.00800           0
     41156 TIP3     10414    TIP3     OH2      OT      -0.834000       15.9994           0
     41157 TIP3     10414    TIP3     H1       HT       0.417000       1.00800           0
     41158 TIP3     10414    TIP3     H2       HT       0.417000       1.00800           0
     41159 TIP3     10415    TIP3     OH2      OT      -0.834000       15.9994           0
     41160 TIP3     10415    TIP3     H1       HT       0.417000       1.00800           0
     41161 TIP3     10415    TIP3     H2       HT       0.417000       1.00800           0
     41162 TIP3     10416    TIP3     OH2      OT      -0.834000       15.9994           0
     41163 TIP3     10416    TIP3     H1       HT       0.417000       1.00800           0
     41164 TIP3     10416    TIP3     H2       HT       0.417000       1.00800           0
     41165 TIP3     10417    TIP3     OH2      OT      -0.834000       15.9994           0
     41166 TIP3     10417    TIP3     H1       HT       0.417000       1.00800           0
     41167 TIP3     10417    TIP3     H2       HT       0.417000       1.00800           0
     41168 TIP3     10418    TIP3     OH2      OT      -0.834000       15.9994           0
     41169 TIP3     10418    TIP3     H1       HT       0.417000       1.00800           0
     41170 TIP3     10418    TIP3     H2       HT       0.417000       1.00800           0
     41171 TIP3     10419    TIP3     OH2      OT      -0.834000       15.9994           0
     41172 TIP3     10419    TIP3     H1       HT       0.417000       1.00800           0
     41173 TIP3     10419    TIP3     H2       HT       0.417000       1.00800           0
     41174 TIP3     10420    TIP3     OH2      OT      -0.834000       15.9994           0
     41175 TIP3     10420    TIP3     H1       HT       0.417000       1.00800           0
     41176 TIP3     10420    TIP3     H2       HT       0.417000       1.00800           0
     41177 TIP3     10421    TIP3     OH2      OT      -0.834000       15.9994           0
     41178 TIP3     10421    TIP3     H1       HT       0.417000       1.00800           0
     41179 TIP3     10421    TIP3     H2       HT       0.417000       1.00800           0
     41180 TIP3     10422    TIP3     OH2      OT      -0.834000       15.9994           0
     41181 TIP3     10422    TIP3     H1       HT       0.417000       1.00800           0
     41182 TIP3     10422    TIP3     H2       HT       0.417000       1.00800           0
     41183 TIP3     10423    TIP3     OH2      OT      -0.834000       15.9994           0
     41184 TIP3     10423    TIP3     H1       HT       0.417000       1.00800           0
     41185 TIP3     10423    TIP3     H2       HT       0.417000       1.00800           0
     41186 TIP3     10424    TIP3     OH2      OT      -0.834000       15.9994           0
     41187 TIP3     10424    TIP3     H1       HT       0.417000       1.00800           0
     41188 TIP3     10424    TIP3     H2       HT       0.417000       1.00800           0
     41189 TIP3     10425    TIP3     OH2      OT      -0.834000       15.9994           0
     41190 TIP3     10425    TIP3     H1       HT       0.417000       1.00800           0
     41191 TIP3     10425    TIP3     H2       HT       0.417000       1.00800           0
     41192 TIP3     10426    TIP3     OH2      OT      -0.834000       15.9994           0
     41193 TIP3     10426    TIP3     H1       HT       0.417000       1.00800           0
     41194 TIP3     10426    TIP3     H2       HT       0.417000       1.00800           0
     41195 TIP3     10427    TIP3     OH2      OT      -0.834000       15.9994           0
     41196 TIP3     10427    TIP3     H1       HT       0.417000       1.00800           0
     41197 TIP3     10427    TIP3     H2       HT       0.417000       1.00800           0
     41198 TIP3     10428    TIP3     OH2      OT      -0.834000       15.9994           0
     41199 TIP3     10428    TIP3     H1       HT       0.417000       1.00800           0
     41200 TIP3     10428    TIP3     H2       HT       0.417000       1.00800           0
     41201 TIP3     10429    TIP3     OH2      OT      -0.834000       15.9994           0
     41202 TIP3     10429    TIP3     H1       HT       0.417000       1.00800           0
     41203 TIP3     10429    TIP3     H2       HT       0.417000       1.00800           0
     41204 TIP3     10430    TIP3     OH2      OT      -0.834000       15.9994           0
     41205 TIP3     10430    TIP3     H1       HT       0.417000       1.00800           0
     41206 TIP3     10430    TIP3     H2       HT       0.417000       1.00800           0
     41207 TIP3     10431    TIP3     OH2      OT      -0.834000       15.9994           0
     41208 TIP3     10431    TIP3     H1       HT       0.417000       1.00800           0
     41209 TIP3     10431    TIP3     H2       HT       0.417000       1.00800           0
     41210 TIP3     10432    TIP3     OH2      OT      -0.834000       15.9994           0
     41211 TIP3     10432    TIP3     H1       HT       0.417000       1.00800           0
     41212 TIP3     10432    TIP3     H2       HT       0.417000       1.00800           0
     41213 TIP3     10433    TIP3     OH2      OT      -0.834000       15.9994           0
     41214 TIP3     10433    TIP3     H1       HT       0.417000       1.00800           0
     41215 TIP3     10433    TIP3     H2       HT       0.417000       1.00800           0
     41216 TIP3     10434    TIP3     OH2      OT      -0.834000       15.9994           0
     41217 TIP3     10434    TIP3     H1       HT       0.417000       1.00800           0
     41218 TIP3     10434    TIP3     H2       HT       0.417000       1.00800           0
     41219 TIP3     10435    TIP3     OH2      OT      -0.834000       15.9994           0
     41220 TIP3     10435    TIP3     H1       HT       0.417000       1.00800           0
     41221 TIP3     10435    TIP3     H2       HT       0.417000       1.00800           0
     41222 TIP3     10436    TIP3     OH2      OT      -0.834000       15.9994           0
     41223 TIP3     10436    TIP3     H1       HT       0.417000       1.00800           0
     41224 TIP3     10436    TIP3     H2       HT       0.417000       1.00800           0
     41225 TIP3     10437    TIP3     OH2      OT      -0.834000       15.9994           0
     41226 TIP3     10437    TIP3     H1       HT       0.417000       1.00800           0
     41227 TIP3     10437    TIP3     H2       HT       0.417000       1.00800           0
     41228 TIP3     10438    TIP3     OH2      OT      -0.834000       15.9994           0
     41229 TIP3     10438    TIP3     H1       HT       0.417000       1.00800           0
     41230 TIP3     10438    TIP3     H2       HT       0.417000       1.00800           0
     41231 TIP3     10439    TIP3     OH2      OT      -0.834000       15.9994           0
     41232 TIP3     10439    TIP3     H1       HT       0.417000       1.00800           0
     41233 TIP3     10439    TIP3     H2       HT       0.417000       1.00800           0
     41234 TIP3     10440    TIP3     OH2      OT      -0.834000       15.9994           0
     41235 TIP3     10440    TIP3     H1       HT       0.417000       1.00800           0
     41236 TIP3     10440    TIP3     H2       HT       0.417000       1.00800           0
     41237 TIP3     10441    TIP3     OH2      OT      -0.834000       15.9994           0
     41238 TIP3     10441    TIP3     H1       HT       0.417000       1.00800           0
     41239 TIP3     10441    TIP3     H2       HT       0.417000       1.00800           0
     41240 TIP3     10442    TIP3     OH2      OT      -0.834000       15.9994           0
     41241 TIP3     10442    TIP3     H1       HT       0.417000       1.00800           0
     41242 TIP3     10442    TIP3     H2       HT       0.417000       1.00800           0
     41243 TIP3     10443    TIP3     OH2      OT      -0.834000       15.9994           0
     41244 TIP3     10443    TIP3     H1       HT       0.417000       1.00800           0
     41245 TIP3     10443    TIP3     H2       HT       0.417000       1.00800           0
     41246 TIP3     10444    TIP3     OH2      OT      -0.834000       15.9994           0
     41247 TIP3     10444    TIP3     H1       HT       0.417000       1.00800           0
     41248 TIP3     10444    TIP3     H2       HT       0.417000       1.00800           0
     41249 TIP3     10445    TIP3     OH2      OT      -0.834000       15.9994           0
     41250 TIP3     10445    TIP3     H1       HT       0.417000       1.00800           0
     41251 TIP3     10445    TIP3     H2       HT       0.417000       1.00800           0
     41252 TIP3     10446    TIP3     OH2      OT      -0.834000       15.9994           0
     41253 TIP3     10446    TIP3     H1       HT       0.417000       1.00800           0
     41254 TIP3     10446    TIP3     H2       HT       0.417000       1.00800           0
     41255 TIP3     10447    TIP3     OH2      OT      -0.834000       15.9994           0
     41256 TIP3     10447    TIP3     H1       HT       0.417000       1.00800           0
     41257 TIP3     10447    TIP3     H2       HT       0.417000       1.00800           0
     41258 TIP3     10448    TIP3     OH2      OT      -0.834000       15.9994           0
     41259 TIP3     10448    TIP3     H1       HT       0.417000       1.00800           0
     41260 TIP3     10448    TIP3     H2       HT       0.417000       1.00800           0
     41261 TIP3     10449    TIP3     OH2      OT      -0.834000       15.9994           0
     41262 TIP3     10449    TIP3     H1       HT       0.417000       1.00800           0
     41263 TIP3     10449    TIP3     H2       HT       0.417000       1.00800           0
     41264 TIP3     10450    TIP3     OH2      OT      -0.834000       15.9994           0
     41265 TIP3     10450    TIP3     H1       HT       0.417000       1.00800           0
     41266 TIP3     10450    TIP3     H2       HT       0.417000       1.00800           0
     41267 TIP3     10451    TIP3     OH2      OT      -0.834000       15.9994           0
     41268 TIP3     10451    TIP3     H1       HT       0.417000       1.00800           0
     41269 TIP3     10451    TIP3     H2       HT       0.417000       1.00800           0
     41270 TIP3     10452    TIP3     OH2      OT      -0.834000       15.9994           0
     41271 TIP3     10452    TIP3     H1       HT       0.417000       1.00800           0
     41272 TIP3     10452    TIP3     H2       HT       0.417000       1.00800           0
     41273 TIP3     10453    TIP3     OH2      OT      -0.834000       15.9994           0
     41274 TIP3     10453    TIP3     H1       HT       0.417000       1.00800           0
     41275 TIP3     10453    TIP3     H2       HT       0.417000       1.00800           0
     41276 TIP3     10454    TIP3     OH2      OT      -0.834000       15.9994           0
     41277 TIP3     10454    TIP3     H1       HT       0.417000       1.00800           0
     41278 TIP3     10454    TIP3     H2       HT       0.417000       1.00800           0
     41279 TIP3     10455    TIP3     OH2      OT      -0.834000       15.9994           0
     41280 TIP3     10455    TIP3     H1       HT       0.417000       1.00800           0
     41281 TIP3     10455    TIP3     H2       HT       0.417000       1.00800           0
     41282 TIP3     10456    TIP3     OH2      OT      -0.834000       15.9994           0
     41283 TIP3     10456    TIP3     H1       HT       0.417000       1.00800           0
     41284 TIP3     10456    TIP3     H2       HT       0.417000       1.00800           0
     41285 TIP3     10457    TIP3     OH2      OT      -0.834000       15.9994           0
     41286 TIP3     10457    TIP3     H1       HT       0.417000       1.00800           0
     41287 TIP3     10457    TIP3     H2       HT       0.417000       1.00800           0
     41288 TIP3     10458    TIP3     OH2      OT      -0.834000       15.9994           0
     41289 TIP3     10458    TIP3     H1       HT       0.417000       1.00800           0
     41290 TIP3     10458    TIP3     H2       HT       0.417000       1.00800           0
     41291 TIP3     10459    TIP3     OH2      OT      -0.834000       15.9994           0
     41292 TIP3     10459    TIP3     H1       HT       0.417000       1.00800           0
     41293 TIP3     10459    TIP3     H2       HT       0.417000       1.00800           0
     41294 TIP3     10460    TIP3     OH2      OT      -0.834000       15.9994           0
     41295 TIP3     10460    TIP3     H1       HT       0.417000       1.00800           0
     41296 TIP3     10460    TIP3     H2       HT       0.417000       1.00800           0
     41297 TIP3     10461    TIP3     OH2      OT      -0.834000       15.9994           0
     41298 TIP3     10461    TIP3     H1       HT       0.417000       1.00800           0
     41299 TIP3     10461    TIP3     H2       HT       0.417000       1.00800           0
     41300 TIP3     10462    TIP3     OH2      OT      -0.834000       15.9994           0
     41301 TIP3     10462    TIP3     H1       HT       0.417000       1.00800           0
     41302 TIP3     10462    TIP3     H2       HT       0.417000       1.00800           0
     41303 TIP3     10463    TIP3     OH2      OT      -0.834000       15.9994           0
     41304 TIP3     10463    TIP3     H1       HT       0.417000       1.00800           0
     41305 TIP3     10463    TIP3     H2       HT       0.417000       1.00800           0
     41306 TIP3     10464    TIP3     OH2      OT      -0.834000       15.9994           0
     41307 TIP3     10464    TIP3     H1       HT       0.417000       1.00800           0
     41308 TIP3     10464    TIP3     H2       HT       0.417000       1.00800           0
     41309 TIP3     10465    TIP3     OH2      OT      -0.834000       15.9994           0
     41310 TIP3     10465    TIP3     H1       HT       0.417000       1.00800           0
     41311 TIP3     10465    TIP3     H2       HT       0.417000       1.00800           0
     41312 TIP3     10466    TIP3     OH2      OT      -0.834000       15.9994           0
     41313 TIP3     10466    TIP3     H1       HT       0.417000       1.00800           0
     41314 TIP3     10466    TIP3     H2       HT       0.417000       1.00800           0
     41315 TIP3     10467    TIP3     OH2      OT      -0.834000       15.9994           0
     41316 TIP3     10467    TIP3     H1       HT       0.417000       1.00800           0
     41317 TIP3     10467    TIP3     H2       HT       0.417000       1.00800           0
     41318 TIP3     10468    TIP3     OH2      OT      -0.834000       15.9994           0
     41319 TIP3     10468    TIP3     H1       HT       0.417000       1.00800           0
     41320 TIP3     10468    TIP3     H2       HT       0.417000       1.00800           0
     41321 TIP3     10469    TIP3     OH2      OT      -0.834000       15.9994           0
     41322 TIP3     10469    TIP3     H1       HT       0.417000       1.00800           0
     41323 TIP3     10469    TIP3     H2       HT       0.417000       1.00800           0
     41324 TIP3     10470    TIP3     OH2      OT      -0.834000       15.9994           0
     41325 TIP3     10470    TIP3     H1       HT       0.417000       1.00800           0
     41326 TIP3     10470    TIP3     H2       HT       0.417000       1.00800           0
     41327 TIP3     10471    TIP3     OH2      OT      -0.834000       15.9994           0
     41328 TIP3     10471    TIP3     H1       HT       0.417000       1.00800           0
     41329 TIP3     10471    TIP3     H2       HT       0.417000       1.00800           0
     41330 TIP3     10472    TIP3     OH2      OT      -0.834000       15.9994           0
     41331 TIP3     10472    TIP3     H1       HT       0.417000       1.00800           0
     41332 TIP3     10472    TIP3     H2       HT       0.417000       1.00800           0
     41333 TIP3     10473    TIP3     OH2      OT      -0.834000       15.9994           0
     41334 TIP3     10473    TIP3     H1       HT       0.417000       1.00800           0
     41335 TIP3     10473    TIP3     H2       HT       0.417000       1.00800           0
     41336 TIP3     10474    TIP3     OH2      OT      -0.834000       15.9994           0
     41337 TIP3     10474    TIP3     H1       HT       0.417000       1.00800           0
     41338 TIP3     10474    TIP3     H2       HT       0.417000       1.00800           0
     41339 TIP3     10475    TIP3     OH2      OT      -0.834000       15.9994           0
     41340 TIP3     10475    TIP3     H1       HT       0.417000       1.00800           0
     41341 TIP3     10475    TIP3     H2       HT       0.417000       1.00800           0
     41342 TIP3     10476    TIP3     OH2      OT      -0.834000       15.9994           0
     41343 TIP3     10476    TIP3     H1       HT       0.417000       1.00800           0
     41344 TIP3     10476    TIP3     H2       HT       0.417000       1.00800           0
     41345 TIP3     10477    TIP3     OH2      OT      -0.834000       15.9994           0
     41346 TIP3     10477    TIP3     H1       HT       0.417000       1.00800           0
     41347 TIP3     10477    TIP3     H2       HT       0.417000       1.00800           0
     41348 TIP3     10478    TIP3     OH2      OT      -0.834000       15.9994           0
     41349 TIP3     10478    TIP3     H1       HT       0.417000       1.00800           0
     41350 TIP3     10478    TIP3     H2       HT       0.417000       1.00800           0
     41351 TIP3     10479    TIP3     OH2      OT      -0.834000       15.9994           0
     41352 TIP3     10479    TIP3     H1       HT       0.417000       1.00800           0
     41353 TIP3     10479    TIP3     H2       HT       0.417000       1.00800           0
     41354 TIP3     10480    TIP3     OH2      OT      -0.834000       15.9994           0
     41355 TIP3     10480    TIP3     H1       HT       0.417000       1.00800           0
     41356 TIP3     10480    TIP3     H2       HT       0.417000       1.00800           0
     41357 TIP3     10481    TIP3     OH2      OT      -0.834000       15.9994           0
     41358 TIP3     10481    TIP3     H1       HT       0.417000       1.00800           0
     41359 TIP3     10481    TIP3     H2       HT       0.417000       1.00800           0
     41360 TIP3     10482    TIP3     OH2      OT      -0.834000       15.9994           0
     41361 TIP3     10482    TIP3     H1       HT       0.417000       1.00800           0
     41362 TIP3     10482    TIP3     H2       HT       0.417000       1.00800           0
     41363 TIP3     10483    TIP3     OH2      OT      -0.834000       15.9994           0
     41364 TIP3     10483    TIP3     H1       HT       0.417000       1.00800           0
     41365 TIP3     10483    TIP3     H2       HT       0.417000       1.00800           0
     41366 TIP3     10484    TIP3     OH2      OT      -0.834000       15.9994           0
     41367 TIP3     10484    TIP3     H1       HT       0.417000       1.00800           0
     41368 TIP3     10484    TIP3     H2       HT       0.417000       1.00800           0
     41369 TIP3     10485    TIP3     OH2      OT      -0.834000       15.9994           0
     41370 TIP3     10485    TIP3     H1       HT       0.417000       1.00800           0
     41371 TIP3     10485    TIP3     H2       HT       0.417000       1.00800           0
     41372 TIP3     10486    TIP3     OH2      OT      -0.834000       15.9994           0
     41373 TIP3     10486    TIP3     H1       HT       0.417000       1.00800           0
     41374 TIP3     10486    TIP3     H2       HT       0.417000       1.00800           0
     41375 TIP3     10487    TIP3     OH2      OT      -0.834000       15.9994           0
     41376 TIP3     10487    TIP3     H1       HT       0.417000       1.00800           0
     41377 TIP3     10487    TIP3     H2       HT       0.417000       1.00800           0
     41378 TIP3     10488    TIP3     OH2      OT      -0.834000       15.9994           0
     41379 TIP3     10488    TIP3     H1       HT       0.417000       1.00800           0
     41380 TIP3     10488    TIP3     H2       HT       0.417000       1.00800           0
     41381 TIP3     10489    TIP3     OH2      OT      -0.834000       15.9994           0
     41382 TIP3     10489    TIP3     H1       HT       0.417000       1.00800           0
     41383 TIP3     10489    TIP3     H2       HT       0.417000       1.00800           0
     41384 TIP3     10490    TIP3     OH2      OT      -0.834000       15.9994           0
     41385 TIP3     10490    TIP3     H1       HT       0.417000       1.00800           0
     41386 TIP3     10490    TIP3     H2       HT       0.417000       1.00800           0
     41387 TIP3     10491    TIP3     OH2      OT      -0.834000       15.9994           0
     41388 TIP3     10491    TIP3     H1       HT       0.417000       1.00800           0
     41389 TIP3     10491    TIP3     H2       HT       0.417000       1.00800           0
     41390 TIP3     10492    TIP3     OH2      OT      -0.834000       15.9994           0
     41391 TIP3     10492    TIP3     H1       HT       0.417000       1.00800           0
     41392 TIP3     10492    TIP3     H2       HT       0.417000       1.00800           0
     41393 TIP3     10493    TIP3     OH2      OT      -0.834000       15.9994           0
     41394 TIP3     10493    TIP3     H1       HT       0.417000       1.00800           0
     41395 TIP3     10493    TIP3     H2       HT       0.417000       1.00800           0
     41396 TIP3     10494    TIP3     OH2      OT      -0.834000       15.9994           0
     41397 TIP3     10494    TIP3     H1       HT       0.417000       1.00800           0
     41398 TIP3     10494    TIP3     H2       HT       0.417000       1.00800           0
     41399 TIP3     10495    TIP3     OH2      OT      -0.834000       15.9994           0
     41400 TIP3     10495    TIP3     H1       HT       0.417000       1.00800           0
     41401 TIP3     10495    TIP3     H2       HT       0.417000       1.00800           0
     41402 TIP3     10496    TIP3     OH2      OT      -0.834000       15.9994           0
     41403 TIP3     10496    TIP3     H1       HT       0.417000       1.00800           0
     41404 TIP3     10496    TIP3     H2       HT       0.417000       1.00800           0
     41405 TIP3     10497    TIP3     OH2      OT      -0.834000       15.9994           0
     41406 TIP3     10497    TIP3     H1       HT       0.417000       1.00800           0
     41407 TIP3     10497    TIP3     H2       HT       0.417000       1.00800           0
     41408 TIP3     10498    TIP3     OH2      OT      -0.834000       15.9994           0
     41409 TIP3     10498    TIP3     H1       HT       0.417000       1.00800           0
     41410 TIP3     10498    TIP3     H2       HT       0.417000       1.00800           0
     41411 TIP3     10499    TIP3     OH2      OT      -0.834000       15.9994           0
     41412 TIP3     10499    TIP3     H1       HT       0.417000       1.00800           0
     41413 TIP3     10499    TIP3     H2       HT       0.417000       1.00800           0
     41414 TIP3     10500    TIP3     OH2      OT      -0.834000       15.9994           0
     41415 TIP3     10500    TIP3     H1       HT       0.417000       1.00800           0
     41416 TIP3     10500    TIP3     H2       HT       0.417000       1.00800           0
     41417 TIP3     10501    TIP3     OH2      OT      -0.834000       15.9994           0
     41418 TIP3     10501    TIP3     H1       HT       0.417000       1.00800           0
     41419 TIP3     10501    TIP3     H2       HT       0.417000       1.00800           0
     41420 TIP3     10502    TIP3     OH2      OT      -0.834000       15.9994           0
     41421 TIP3     10502    TIP3     H1       HT       0.417000       1.00800           0
     41422 TIP3     10502    TIP3     H2       HT       0.417000       1.00800           0
     41423 TIP3     10503    TIP3     OH2      OT      -0.834000       15.9994           0
     41424 TIP3     10503    TIP3     H1       HT       0.417000       1.00800           0
     41425 TIP3     10503    TIP3     H2       HT       0.417000       1.00800           0
     41426 TIP3     10504    TIP3     OH2      OT      -0.834000       15.9994           0
     41427 TIP3     10504    TIP3     H1       HT       0.417000       1.00800           0
     41428 TIP3     10504    TIP3     H2       HT       0.417000       1.00800           0
     41429 TIP3     10505    TIP3     OH2      OT      -0.834000       15.9994           0
     41430 TIP3     10505    TIP3     H1       HT       0.417000       1.00800           0
     41431 TIP3     10505    TIP3     H2       HT       0.417000       1.00800           0
     41432 TIP3     10506    TIP3     OH2      OT      -0.834000       15.9994           0
     41433 TIP3     10506    TIP3     H1       HT       0.417000       1.00800           0
     41434 TIP3     10506    TIP3     H2       HT       0.417000       1.00800           0
     41435 TIP3     10507    TIP3     OH2      OT      -0.834000       15.9994           0
     41436 TIP3     10507    TIP3     H1       HT       0.417000       1.00800           0
     41437 TIP3     10507    TIP3     H2       HT       0.417000       1.00800           0
     41438 TIP3     10508    TIP3     OH2      OT      -0.834000       15.9994           0
     41439 TIP3     10508    TIP3     H1       HT       0.417000       1.00800           0
     41440 TIP3     10508    TIP3     H2       HT       0.417000       1.00800           0
     41441 TIP3     10509    TIP3     OH2      OT      -0.834000       15.9994           0
     41442 TIP3     10509    TIP3     H1       HT       0.417000       1.00800           0
     41443 TIP3     10509    TIP3     H2       HT       0.417000       1.00800           0
     41444 TIP3     10510    TIP3     OH2      OT      -0.834000       15.9994           0
     41445 TIP3     10510    TIP3     H1       HT       0.417000       1.00800           0
     41446 TIP3     10510    TIP3     H2       HT       0.417000       1.00800           0
     41447 TIP3     10511    TIP3     OH2      OT      -0.834000       15.9994           0
     41448 TIP3     10511    TIP3     H1       HT       0.417000       1.00800           0
     41449 TIP3     10511    TIP3     H2       HT       0.417000       1.00800           0
     41450 TIP3     10512    TIP3     OH2      OT      -0.834000       15.9994           0
     41451 TIP3     10512    TIP3     H1       HT       0.417000       1.00800           0
     41452 TIP3     10512    TIP3     H2       HT       0.417000       1.00800           0
     41453 TIP3     10513    TIP3     OH2      OT      -0.834000       15.9994           0
     41454 TIP3     10513    TIP3     H1       HT       0.417000       1.00800           0
     41455 TIP3     10513    TIP3     H2       HT       0.417000       1.00800           0
     41456 TIP3     10514    TIP3     OH2      OT      -0.834000       15.9994           0
     41457 TIP3     10514    TIP3     H1       HT       0.417000       1.00800           0
     41458 TIP3     10514    TIP3     H2       HT       0.417000       1.00800           0
     41459 TIP3     10515    TIP3     OH2      OT      -0.834000       15.9994           0
     41460 TIP3     10515    TIP3     H1       HT       0.417000       1.00800           0
     41461 TIP3     10515    TIP3     H2       HT       0.417000       1.00800           0
     41462 TIP3     10516    TIP3     OH2      OT      -0.834000       15.9994           0
     41463 TIP3     10516    TIP3     H1       HT       0.417000       1.00800           0
     41464 TIP3     10516    TIP3     H2       HT       0.417000       1.00800           0
     41465 TIP3     10517    TIP3     OH2      OT      -0.834000       15.9994           0
     41466 TIP3     10517    TIP3     H1       HT       0.417000       1.00800           0
     41467 TIP3     10517    TIP3     H2       HT       0.417000       1.00800           0
     41468 TIP3     10518    TIP3     OH2      OT      -0.834000       15.9994           0
     41469 TIP3     10518    TIP3     H1       HT       0.417000       1.00800           0
     41470 TIP3     10518    TIP3     H2       HT       0.417000       1.00800           0
     41471 TIP3     10519    TIP3     OH2      OT      -0.834000       15.9994           0
     41472 TIP3     10519    TIP3     H1       HT       0.417000       1.00800           0
     41473 TIP3     10519    TIP3     H2       HT       0.417000       1.00800           0
     41474 TIP3     10520    TIP3     OH2      OT      -0.834000       15.9994           0
     41475 TIP3     10520    TIP3     H1       HT       0.417000       1.00800           0
     41476 TIP3     10520    TIP3     H2       HT       0.417000       1.00800           0
     41477 TIP3     10521    TIP3     OH2      OT      -0.834000       15.9994           0
     41478 TIP3     10521    TIP3     H1       HT       0.417000       1.00800           0
     41479 TIP3     10521    TIP3     H2       HT       0.417000       1.00800           0
     41480 TIP3     10522    TIP3     OH2      OT      -0.834000       15.9994           0
     41481 TIP3     10522    TIP3     H1       HT       0.417000       1.00800           0
     41482 TIP3     10522    TIP3     H2       HT       0.417000       1.00800           0
     41483 TIP3     10523    TIP3     OH2      OT      -0.834000       15.9994           0
     41484 TIP3     10523    TIP3     H1       HT       0.417000       1.00800           0
     41485 TIP3     10523    TIP3     H2       HT       0.417000       1.00800           0
     41486 TIP3     10524    TIP3     OH2      OT      -0.834000       15.9994           0
     41487 TIP3     10524    TIP3     H1       HT       0.417000       1.00800           0
     41488 TIP3     10524    TIP3     H2       HT       0.417000       1.00800           0
     41489 TIP3     10525    TIP3     OH2      OT      -0.834000       15.9994           0
     41490 TIP3     10525    TIP3     H1       HT       0.417000       1.00800           0
     41491 TIP3     10525    TIP3     H2       HT       0.417000       1.00800           0
     41492 TIP3     10526    TIP3     OH2      OT      -0.834000       15.9994           0
     41493 TIP3     10526    TIP3     H1       HT       0.417000       1.00800           0
     41494 TIP3     10526    TIP3     H2       HT       0.417000       1.00800           0
     41495 TIP3     10527    TIP3     OH2      OT      -0.834000       15.9994           0
     41496 TIP3     10527    TIP3     H1       HT       0.417000       1.00800           0
     41497 TIP3     10527    TIP3     H2       HT       0.417000       1.00800           0
     41498 TIP3     10528    TIP3     OH2      OT      -0.834000       15.9994           0
     41499 TIP3     10528    TIP3     H1       HT       0.417000       1.00800           0
     41500 TIP3     10528    TIP3     H2       HT       0.417000       1.00800           0
     41501 TIP3     10529    TIP3     OH2      OT      -0.834000       15.9994           0
     41502 TIP3     10529    TIP3     H1       HT       0.417000       1.00800           0
     41503 TIP3     10529    TIP3     H2       HT       0.417000       1.00800           0
     41504 TIP3     10530    TIP3     OH2      OT      -0.834000       15.9994           0
     41505 TIP3     10530    TIP3     H1       HT       0.417000       1.00800           0
     41506 TIP3     10530    TIP3     H2       HT       0.417000       1.00800           0
     41507 TIP3     10531    TIP3     OH2      OT      -0.834000       15.9994           0
     41508 TIP3     10531    TIP3     H1       HT       0.417000       1.00800           0
     41509 TIP3     10531    TIP3     H2       HT       0.417000       1.00800           0
     41510 TIP3     10532    TIP3     OH2      OT      -0.834000       15.9994           0
     41511 TIP3     10532    TIP3     H1       HT       0.417000       1.00800           0
     41512 TIP3     10532    TIP3     H2       HT       0.417000       1.00800           0
     41513 TIP3     10533    TIP3     OH2      OT      -0.834000       15.9994           0
     41514 TIP3     10533    TIP3     H1       HT       0.417000       1.00800           0
     41515 TIP3     10533    TIP3     H2       HT       0.417000       1.00800           0
     41516 TIP3     10534    TIP3     OH2      OT      -0.834000       15.9994           0
     41517 TIP3     10534    TIP3     H1       HT       0.417000       1.00800           0
     41518 TIP3     10534    TIP3     H2       HT       0.417000       1.00800           0
     41519 TIP3     10535    TIP3     OH2      OT      -0.834000       15.9994           0
     41520 TIP3     10535    TIP3     H1       HT       0.417000       1.00800           0
     41521 TIP3     10535    TIP3     H2       HT       0.417000       1.00800           0
     41522 TIP3     10536    TIP3     OH2      OT      -0.834000       15.9994           0
     41523 TIP3     10536    TIP3     H1       HT       0.417000       1.00800           0
     41524 TIP3     10536    TIP3     H2       HT       0.417000       1.00800           0
     41525 TIP3     10537    TIP3     OH2      OT      -0.834000       15.9994           0
     41526 TIP3     10537    TIP3     H1       HT       0.417000       1.00800           0
     41527 TIP3     10537    TIP3     H2       HT       0.417000       1.00800           0
     41528 TIP3     10538    TIP3     OH2      OT      -0.834000       15.9994           0
     41529 TIP3     10538    TIP3     H1       HT       0.417000       1.00800           0
     41530 TIP3     10538    TIP3     H2       HT       0.417000       1.00800           0
     41531 TIP3     10539    TIP3     OH2      OT      -0.834000       15.9994           0
     41532 TIP3     10539    TIP3     H1       HT       0.417000       1.00800           0
     41533 TIP3     10539    TIP3     H2       HT       0.417000       1.00800           0
     41534 TIP3     10540    TIP3     OH2      OT      -0.834000       15.9994           0
     41535 TIP3     10540    TIP3     H1       HT       0.417000       1.00800           0
     41536 TIP3     10540    TIP3     H2       HT       0.417000       1.00800           0
     41537 TIP3     10541    TIP3     OH2      OT      -0.834000       15.9994           0
     41538 TIP3     10541    TIP3     H1       HT       0.417000       1.00800           0
     41539 TIP3     10541    TIP3     H2       HT       0.417000       1.00800           0
     41540 TIP3     10542    TIP3     OH2      OT      -0.834000       15.9994           0
     41541 TIP3     10542    TIP3     H1       HT       0.417000       1.00800           0
     41542 TIP3     10542    TIP3     H2       HT       0.417000       1.00800           0
     41543 TIP3     10543    TIP3     OH2      OT      -0.834000       15.9994           0
     41544 TIP3     10543    TIP3     H1       HT       0.417000       1.00800           0
     41545 TIP3     10543    TIP3     H2       HT       0.417000       1.00800           0
     41546 TIP3     10544    TIP3     OH2      OT      -0.834000       15.9994           0
     41547 TIP3     10544    TIP3     H1       HT       0.417000       1.00800           0
     41548 TIP3     10544    TIP3     H2       HT       0.417000       1.00800           0
     41549 TIP3     10545    TIP3     OH2      OT      -0.834000       15.9994           0
     41550 TIP3     10545    TIP3     H1       HT       0.417000       1.00800           0
     41551 TIP3     10545    TIP3     H2       HT       0.417000       1.00800           0
     41552 TIP3     10546    TIP3     OH2      OT      -0.834000       15.9994           0
     41553 TIP3     10546    TIP3     H1       HT       0.417000       1.00800           0
     41554 TIP3     10546    TIP3     H2       HT       0.417000       1.00800           0
     41555 TIP3     10547    TIP3     OH2      OT      -0.834000       15.9994           0
     41556 TIP3     10547    TIP3     H1       HT       0.417000       1.00800           0
     41557 TIP3     10547    TIP3     H2       HT       0.417000       1.00800           0
     41558 TIP3     10548    TIP3     OH2      OT      -0.834000       15.9994           0
     41559 TIP3     10548    TIP3     H1       HT       0.417000       1.00800           0
     41560 TIP3     10548    TIP3     H2       HT       0.417000       1.00800           0
     41561 TIP3     10549    TIP3     OH2      OT      -0.834000       15.9994           0
     41562 TIP3     10549    TIP3     H1       HT       0.417000       1.00800           0
     41563 TIP3     10549    TIP3     H2       HT       0.417000       1.00800           0
     41564 TIP3     10550    TIP3     OH2      OT      -0.834000       15.9994           0
     41565 TIP3     10550    TIP3     H1       HT       0.417000       1.00800           0
     41566 TIP3     10550    TIP3     H2       HT       0.417000       1.00800           0
     41567 TIP3     10551    TIP3     OH2      OT      -0.834000       15.9994           0
     41568 TIP3     10551    TIP3     H1       HT       0.417000       1.00800           0
     41569 TIP3     10551    TIP3     H2       HT       0.417000       1.00800           0
     41570 TIP3     10552    TIP3     OH2      OT      -0.834000       15.9994           0
     41571 TIP3     10552    TIP3     H1       HT       0.417000       1.00800           0
     41572 TIP3     10552    TIP3     H2       HT       0.417000       1.00800           0
     41573 TIP3     10553    TIP3     OH2      OT      -0.834000       15.9994           0
     41574 TIP3     10553    TIP3     H1       HT       0.417000       1.00800           0
     41575 TIP3     10553    TIP3     H2       HT       0.417000       1.00800           0
     41576 TIP3     10554    TIP3     OH2      OT      -0.834000       15.9994           0
     41577 TIP3     10554    TIP3     H1       HT       0.417000       1.00800           0
     41578 TIP3     10554    TIP3     H2       HT       0.417000       1.00800           0
     41579 TIP3     10555    TIP3     OH2      OT      -0.834000       15.9994           0
     41580 TIP3     10555    TIP3     H1       HT       0.417000       1.00800           0
     41581 TIP3     10555    TIP3     H2       HT       0.417000       1.00800           0
     41582 TIP3     10556    TIP3     OH2      OT      -0.834000       15.9994           0
     41583 TIP3     10556    TIP3     H1       HT       0.417000       1.00800           0
     41584 TIP3     10556    TIP3     H2       HT       0.417000       1.00800           0
     41585 TIP3     10557    TIP3     OH2      OT      -0.834000       15.9994           0
     41586 TIP3     10557    TIP3     H1       HT       0.417000       1.00800           0
     41587 TIP3     10557    TIP3     H2       HT       0.417000       1.00800           0
     41588 TIP3     10558    TIP3     OH2      OT      -0.834000       15.9994           0
     41589 TIP3     10558    TIP3     H1       HT       0.417000       1.00800           0
     41590 TIP3     10558    TIP3     H2       HT       0.417000       1.00800           0
     41591 TIP3     10559    TIP3     OH2      OT      -0.834000       15.9994           0
     41592 TIP3     10559    TIP3     H1       HT       0.417000       1.00800           0
     41593 TIP3     10559    TIP3     H2       HT       0.417000       1.00800           0
     41594 TIP3     10560    TIP3     OH2      OT      -0.834000       15.9994           0
     41595 TIP3     10560    TIP3     H1       HT       0.417000       1.00800           0
     41596 TIP3     10560    TIP3     H2       HT       0.417000       1.00800           0
     41597 TIP3     10561    TIP3     OH2      OT      -0.834000       15.9994           0
     41598 TIP3     10561    TIP3     H1       HT       0.417000       1.00800           0
     41599 TIP3     10561    TIP3     H2       HT       0.417000       1.00800           0
     41600 TIP3     10562    TIP3     OH2      OT      -0.834000       15.9994           0
     41601 TIP3     10562    TIP3     H1       HT       0.417000       1.00800           0
     41602 TIP3     10562    TIP3     H2       HT       0.417000       1.00800           0
     41603 TIP3     10563    TIP3     OH2      OT      -0.834000       15.9994           0
     41604 TIP3     10563    TIP3     H1       HT       0.417000       1.00800           0
     41605 TIP3     10563    TIP3     H2       HT       0.417000       1.00800           0
     41606 TIP3     10564    TIP3     OH2      OT      -0.834000       15.9994           0
     41607 TIP3     10564    TIP3     H1       HT       0.417000       1.00800           0
     41608 TIP3     10564    TIP3     H2       HT       0.417000       1.00800           0
     41609 TIP3     10565    TIP3     OH2      OT      -0.834000       15.9994           0
     41610 TIP3     10565    TIP3     H1       HT       0.417000       1.00800           0
     41611 TIP3     10565    TIP3     H2       HT       0.417000       1.00800           0
     41612 TIP3     10566    TIP3     OH2      OT      -0.834000       15.9994           0
     41613 TIP3     10566    TIP3     H1       HT       0.417000       1.00800           0
     41614 TIP3     10566    TIP3     H2       HT       0.417000       1.00800           0
     41615 TIP3     10567    TIP3     OH2      OT      -0.834000       15.9994           0
     41616 TIP3     10567    TIP3     H1       HT       0.417000       1.00800           0
     41617 TIP3     10567    TIP3     H2       HT       0.417000       1.00800           0
     41618 TIP3     10568    TIP3     OH2      OT      -0.834000       15.9994           0
     41619 TIP3     10568    TIP3     H1       HT       0.417000       1.00800           0
     41620 TIP3     10568    TIP3     H2       HT       0.417000       1.00800           0
     41621 TIP3     10569    TIP3     OH2      OT      -0.834000       15.9994           0
     41622 TIP3     10569    TIP3     H1       HT       0.417000       1.00800           0
     41623 TIP3     10569    TIP3     H2       HT       0.417000       1.00800           0
     41624 TIP3     10570    TIP3     OH2      OT      -0.834000       15.9994           0
     41625 TIP3     10570    TIP3     H1       HT       0.417000       1.00800           0
     41626 TIP3     10570    TIP3     H2       HT       0.417000       1.00800           0
     41627 TIP3     10571    TIP3     OH2      OT      -0.834000       15.9994           0
     41628 TIP3     10571    TIP3     H1       HT       0.417000       1.00800           0
     41629 TIP3     10571    TIP3     H2       HT       0.417000       1.00800           0
     41630 TIP3     10572    TIP3     OH2      OT      -0.834000       15.9994           0
     41631 TIP3     10572    TIP3     H1       HT       0.417000       1.00800           0
     41632 TIP3     10572    TIP3     H2       HT       0.417000       1.00800           0
     41633 TIP3     10573    TIP3     OH2      OT      -0.834000       15.9994           0
     41634 TIP3     10573    TIP3     H1       HT       0.417000       1.00800           0
     41635 TIP3     10573    TIP3     H2       HT       0.417000       1.00800           0
     41636 TIP3     10574    TIP3     OH2      OT      -0.834000       15.9994           0
     41637 TIP3     10574    TIP3     H1       HT       0.417000       1.00800           0
     41638 TIP3     10574    TIP3     H2       HT       0.417000       1.00800           0
     41639 TIP3     10575    TIP3     OH2      OT      -0.834000       15.9994           0
     41640 TIP3     10575    TIP3     H1       HT       0.417000       1.00800           0
     41641 TIP3     10575    TIP3     H2       HT       0.417000       1.00800           0
     41642 TIP3     10576    TIP3     OH2      OT      -0.834000       15.9994           0
     41643 TIP3     10576    TIP3     H1       HT       0.417000       1.00800           0
     41644 TIP3     10576    TIP3     H2       HT       0.417000       1.00800           0
     41645 TIP3     10577    TIP3     OH2      OT      -0.834000       15.9994           0
     41646 TIP3     10577    TIP3     H1       HT       0.417000       1.00800           0
     41647 TIP3     10577    TIP3     H2       HT       0.417000       1.00800           0
     41648 TIP3     10578    TIP3     OH2      OT      -0.834000       15.9994           0
     41649 TIP3     10578    TIP3     H1       HT       0.417000       1.00800           0
     41650 TIP3     10578    TIP3     H2       HT       0.417000       1.00800           0
     41651 TIP3     10579    TIP3     OH2      OT      -0.834000       15.9994           0
     41652 TIP3     10579    TIP3     H1       HT       0.417000       1.00800           0
     41653 TIP3     10579    TIP3     H2       HT       0.417000       1.00800           0
     41654 TIP3     10580    TIP3     OH2      OT      -0.834000       15.9994           0
     41655 TIP3     10580    TIP3     H1       HT       0.417000       1.00800           0
     41656 TIP3     10580    TIP3     H2       HT       0.417000       1.00800           0
     41657 TIP3     10581    TIP3     OH2      OT      -0.834000       15.9994           0
     41658 TIP3     10581    TIP3     H1       HT       0.417000       1.00800           0
     41659 TIP3     10581    TIP3     H2       HT       0.417000       1.00800           0
     41660 TIP3     10582    TIP3     OH2      OT      -0.834000       15.9994           0
     41661 TIP3     10582    TIP3     H1       HT       0.417000       1.00800           0
     41662 TIP3     10582    TIP3     H2       HT       0.417000       1.00800           0
     41663 TIP3     10583    TIP3     OH2      OT      -0.834000       15.9994           0
     41664 TIP3     10583    TIP3     H1       HT       0.417000       1.00800           0
     41665 TIP3     10583    TIP3     H2       HT       0.417000       1.00800           0
     41666 TIP3     10584    TIP3     OH2      OT      -0.834000       15.9994           0
     41667 TIP3     10584    TIP3     H1       HT       0.417000       1.00800           0
     41668 TIP3     10584    TIP3     H2       HT       0.417000       1.00800           0
     41669 TIP3     10585    TIP3     OH2      OT      -0.834000       15.9994           0
     41670 TIP3     10585    TIP3     H1       HT       0.417000       1.00800           0
     41671 TIP3     10585    TIP3     H2       HT       0.417000       1.00800           0
     41672 TIP3     10586    TIP3     OH2      OT      -0.834000       15.9994           0
     41673 TIP3     10586    TIP3     H1       HT       0.417000       1.00800           0
     41674 TIP3     10586    TIP3     H2       HT       0.417000       1.00800           0
     41675 TIP3     10587    TIP3     OH2      OT      -0.834000       15.9994           0
     41676 TIP3     10587    TIP3     H1       HT       0.417000       1.00800           0
     41677 TIP3     10587    TIP3     H2       HT       0.417000       1.00800           0
     41678 TIP3     10588    TIP3     OH2      OT      -0.834000       15.9994           0
     41679 TIP3     10588    TIP3     H1       HT       0.417000       1.00800           0
     41680 TIP3     10588    TIP3     H2       HT       0.417000       1.00800           0
     41681 TIP3     10589    TIP3     OH2      OT      -0.834000       15.9994           0
     41682 TIP3     10589    TIP3     H1       HT       0.417000       1.00800           0
     41683 TIP3     10589    TIP3     H2       HT       0.417000       1.00800           0
     41684 TIP3     10590    TIP3     OH2      OT      -0.834000       15.9994           0
     41685 TIP3     10590    TIP3     H1       HT       0.417000       1.00800           0
     41686 TIP3     10590    TIP3     H2       HT       0.417000       1.00800           0
     41687 TIP3     10591    TIP3     OH2      OT      -0.834000       15.9994           0
     41688 TIP3     10591    TIP3     H1       HT       0.417000       1.00800           0
     41689 TIP3     10591    TIP3     H2       HT       0.417000       1.00800           0
     41690 TIP3     10592    TIP3     OH2      OT      -0.834000       15.9994           0
     41691 TIP3     10592    TIP3     H1       HT       0.417000       1.00800           0
     41692 TIP3     10592    TIP3     H2       HT       0.417000       1.00800           0
     41693 TIP3     10593    TIP3     OH2      OT      -0.834000       15.9994           0
     41694 TIP3     10593    TIP3     H1       HT       0.417000       1.00800           0
     41695 TIP3     10593    TIP3     H2       HT       0.417000       1.00800           0
     41696 TIP3     10594    TIP3     OH2      OT      -0.834000       15.9994           0
     41697 TIP3     10594    TIP3     H1       HT       0.417000       1.00800           0
     41698 TIP3     10594    TIP3     H2       HT       0.417000       1.00800           0
     41699 TIP3     10595    TIP3     OH2      OT      -0.834000       15.9994           0
     41700 TIP3     10595    TIP3     H1       HT       0.417000       1.00800           0
     41701 TIP3     10595    TIP3     H2       HT       0.417000       1.00800           0
     41702 TIP3     10596    TIP3     OH2      OT      -0.834000       15.9994           0
     41703 TIP3     10596    TIP3     H1       HT       0.417000       1.00800           0
     41704 TIP3     10596    TIP3     H2       HT       0.417000       1.00800           0
     41705 TIP3     10597    TIP3     OH2      OT      -0.834000       15.9994           0
     41706 TIP3     10597    TIP3     H1       HT       0.417000       1.00800           0
     41707 TIP3     10597    TIP3     H2       HT       0.417000       1.00800           0
     41708 TIP3     10598    TIP3     OH2      OT      -0.834000       15.9994           0
     41709 TIP3     10598    TIP3     H1       HT       0.417000       1.00800           0
     41710 TIP3     10598    TIP3     H2       HT       0.417000       1.00800           0
     41711 TIP3     10599    TIP3     OH2      OT      -0.834000       15.9994           0
     41712 TIP3     10599    TIP3     H1       HT       0.417000       1.00800           0
     41713 TIP3     10599    TIP3     H2       HT       0.417000       1.00800           0
     41714 TIP3     10600    TIP3     OH2      OT      -0.834000       15.9994           0
     41715 TIP3     10600    TIP3     H1       HT       0.417000       1.00800           0
     41716 TIP3     10600    TIP3     H2       HT       0.417000       1.00800           0
     41717 TIP3     10601    TIP3     OH2      OT      -0.834000       15.9994           0
     41718 TIP3     10601    TIP3     H1       HT       0.417000       1.00800           0
     41719 TIP3     10601    TIP3     H2       HT       0.417000       1.00800           0
     41720 TIP3     10602    TIP3     OH2      OT      -0.834000       15.9994           0
     41721 TIP3     10602    TIP3     H1       HT       0.417000       1.00800           0
     41722 TIP3     10602    TIP3     H2       HT       0.417000       1.00800           0
     41723 TIP3     10603    TIP3     OH2      OT      -0.834000       15.9994           0
     41724 TIP3     10603    TIP3     H1       HT       0.417000       1.00800           0
     41725 TIP3     10603    TIP3     H2       HT       0.417000       1.00800           0
     41726 TIP3     10604    TIP3     OH2      OT      -0.834000       15.9994           0
     41727 TIP3     10604    TIP3     H1       HT       0.417000       1.00800           0
     41728 TIP3     10604    TIP3     H2       HT       0.417000       1.00800           0
     41729 TIP3     10605    TIP3     OH2      OT      -0.834000       15.9994           0
     41730 TIP3     10605    TIP3     H1       HT       0.417000       1.00800           0
     41731 TIP3     10605    TIP3     H2       HT       0.417000       1.00800           0
     41732 TIP3     10606    TIP3     OH2      OT      -0.834000       15.9994           0
     41733 TIP3     10606    TIP3     H1       HT       0.417000       1.00800           0
     41734 TIP3     10606    TIP3     H2       HT       0.417000       1.00800           0
     41735 TIP3     10607    TIP3     OH2      OT      -0.834000       15.9994           0
     41736 TIP3     10607    TIP3     H1       HT       0.417000       1.00800           0
     41737 TIP3     10607    TIP3     H2       HT       0.417000       1.00800           0
     41738 TIP3     10608    TIP3     OH2      OT      -0.834000       15.9994           0
     41739 TIP3     10608    TIP3     H1       HT       0.417000       1.00800           0
     41740 TIP3     10608    TIP3     H2       HT       0.417000       1.00800           0
     41741 TIP3     10609    TIP3     OH2      OT      -0.834000       15.9994           0
     41742 TIP3     10609    TIP3     H1       HT       0.417000       1.00800           0
     41743 TIP3     10609    TIP3     H2       HT       0.417000       1.00800           0
     41744 TIP3     10610    TIP3     OH2      OT      -0.834000       15.9994           0
     41745 TIP3     10610    TIP3     H1       HT       0.417000       1.00800           0
     41746 TIP3     10610    TIP3     H2       HT       0.417000       1.00800           0
     41747 TIP3     10611    TIP3     OH2      OT      -0.834000       15.9994           0
     41748 TIP3     10611    TIP3     H1       HT       0.417000       1.00800           0
     41749 TIP3     10611    TIP3     H2       HT       0.417000       1.00800           0
     41750 TIP3     10612    TIP3     OH2      OT      -0.834000       15.9994           0
     41751 TIP3     10612    TIP3     H1       HT       0.417000       1.00800           0
     41752 TIP3     10612    TIP3     H2       HT       0.417000       1.00800           0
     41753 TIP3     10613    TIP3     OH2      OT      -0.834000       15.9994           0
     41754 TIP3     10613    TIP3     H1       HT       0.417000       1.00800           0
     41755 TIP3     10613    TIP3     H2       HT       0.417000       1.00800           0
     41756 TIP3     10614    TIP3     OH2      OT      -0.834000       15.9994           0
     41757 TIP3     10614    TIP3     H1       HT       0.417000       1.00800           0
     41758 TIP3     10614    TIP3     H2       HT       0.417000       1.00800           0
     41759 TIP3     10615    TIP3     OH2      OT      -0.834000       15.9994           0
     41760 TIP3     10615    TIP3     H1       HT       0.417000       1.00800           0
     41761 TIP3     10615    TIP3     H2       HT       0.417000       1.00800           0
     41762 TIP3     10616    TIP3     OH2      OT      -0.834000       15.9994           0
     41763 TIP3     10616    TIP3     H1       HT       0.417000       1.00800           0
     41764 TIP3     10616    TIP3     H2       HT       0.417000       1.00800           0
     41765 TIP3     10617    TIP3     OH2      OT      -0.834000       15.9994           0
     41766 TIP3     10617    TIP3     H1       HT       0.417000       1.00800           0
     41767 TIP3     10617    TIP3     H2       HT       0.417000       1.00800           0
     41768 TIP3     10618    TIP3     OH2      OT      -0.834000       15.9994           0
     41769 TIP3     10618    TIP3     H1       HT       0.417000       1.00800           0
     41770 TIP3     10618    TIP3     H2       HT       0.417000       1.00800           0
     41771 TIP3     10619    TIP3     OH2      OT      -0.834000       15.9994           0
     41772 TIP3     10619    TIP3     H1       HT       0.417000       1.00800           0
     41773 TIP3     10619    TIP3     H2       HT       0.417000       1.00800           0
     41774 TIP3     10620    TIP3     OH2      OT      -0.834000       15.9994           0
     41775 TIP3     10620    TIP3     H1       HT       0.417000       1.00800           0
     41776 TIP3     10620    TIP3     H2       HT       0.417000       1.00800           0
     41777 TIP3     10621    TIP3     OH2      OT      -0.834000       15.9994           0
     41778 TIP3     10621    TIP3     H1       HT       0.417000       1.00800           0
     41779 TIP3     10621    TIP3     H2       HT       0.417000       1.00800           0
     41780 TIP3     10622    TIP3     OH2      OT      -0.834000       15.9994           0
     41781 TIP3     10622    TIP3     H1       HT       0.417000       1.00800           0
     41782 TIP3     10622    TIP3     H2       HT       0.417000       1.00800           0
     41783 TIP3     10623    TIP3     OH2      OT      -0.834000       15.9994           0
     41784 TIP3     10623    TIP3     H1       HT       0.417000       1.00800           0
     41785 TIP3     10623    TIP3     H2       HT       0.417000       1.00800           0
     41786 TIP3     10624    TIP3     OH2      OT      -0.834000       15.9994           0
     41787 TIP3     10624    TIP3     H1       HT       0.417000       1.00800           0
     41788 TIP3     10624    TIP3     H2       HT       0.417000       1.00800           0
     41789 TIP3     10625    TIP3     OH2      OT      -0.834000       15.9994           0
     41790 TIP3     10625    TIP3     H1       HT       0.417000       1.00800           0
     41791 TIP3     10625    TIP3     H2       HT       0.417000       1.00800           0
     41792 TIP3     10626    TIP3     OH2      OT      -0.834000       15.9994           0
     41793 TIP3     10626    TIP3     H1       HT       0.417000       1.00800           0
     41794 TIP3     10626    TIP3     H2       HT       0.417000       1.00800           0
     41795 TIP3     10627    TIP3     OH2      OT      -0.834000       15.9994           0
     41796 TIP3     10627    TIP3     H1       HT       0.417000       1.00800           0
     41797 TIP3     10627    TIP3     H2       HT       0.417000       1.00800           0
     41798 TIP3     10628    TIP3     OH2      OT      -0.834000       15.9994           0
     41799 TIP3     10628    TIP3     H1       HT       0.417000       1.00800           0
     41800 TIP3     10628    TIP3     H2       HT       0.417000       1.00800           0
     41801 TIP3     10629    TIP3     OH2      OT      -0.834000       15.9994           0
     41802 TIP3     10629    TIP3     H1       HT       0.417000       1.00800           0
     41803 TIP3     10629    TIP3     H2       HT       0.417000       1.00800           0
     41804 TIP3     10630    TIP3     OH2      OT      -0.834000       15.9994           0
     41805 TIP3     10630    TIP3     H1       HT       0.417000       1.00800           0
     41806 TIP3     10630    TIP3     H2       HT       0.417000       1.00800           0
     41807 TIP3     10631    TIP3     OH2      OT      -0.834000       15.9994           0
     41808 TIP3     10631    TIP3     H1       HT       0.417000       1.00800           0
     41809 TIP3     10631    TIP3     H2       HT       0.417000       1.00800           0
     41810 TIP3     10632    TIP3     OH2      OT      -0.834000       15.9994           0
     41811 TIP3     10632    TIP3     H1       HT       0.417000       1.00800           0
     41812 TIP3     10632    TIP3     H2       HT       0.417000       1.00800           0
     41813 TIP3     10633    TIP3     OH2      OT      -0.834000       15.9994           0
     41814 TIP3     10633    TIP3     H1       HT       0.417000       1.00800           0
     41815 TIP3     10633    TIP3     H2       HT       0.417000       1.00800           0
     41816 TIP3     10634    TIP3     OH2      OT      -0.834000       15.9994           0
     41817 TIP3     10634    TIP3     H1       HT       0.417000       1.00800           0
     41818 TIP3     10634    TIP3     H2       HT       0.417000       1.00800           0
     41819 TIP3     10635    TIP3     OH2      OT      -0.834000       15.9994           0
     41820 TIP3     10635    TIP3     H1       HT       0.417000       1.00800           0
     41821 TIP3     10635    TIP3     H2       HT       0.417000       1.00800           0
     41822 TIP3     10636    TIP3     OH2      OT      -0.834000       15.9994           0
     41823 TIP3     10636    TIP3     H1       HT       0.417000       1.00800           0
     41824 TIP3     10636    TIP3     H2       HT       0.417000       1.00800           0
     41825 TIP3     10637    TIP3     OH2      OT      -0.834000       15.9994           0
     41826 TIP3     10637    TIP3     H1       HT       0.417000       1.00800           0
     41827 TIP3     10637    TIP3     H2       HT       0.417000       1.00800           0
     41828 TIP3     10638    TIP3     OH2      OT      -0.834000       15.9994           0
     41829 TIP3     10638    TIP3     H1       HT       0.417000       1.00800           0
     41830 TIP3     10638    TIP3     H2       HT       0.417000       1.00800           0
     41831 TIP3     10639    TIP3     OH2      OT      -0.834000       15.9994           0
     41832 TIP3     10639    TIP3     H1       HT       0.417000       1.00800           0
     41833 TIP3     10639    TIP3     H2       HT       0.417000       1.00800           0
     41834 TIP3     10640    TIP3     OH2      OT      -0.834000       15.9994           0
     41835 TIP3     10640    TIP3     H1       HT       0.417000       1.00800           0
     41836 TIP3     10640    TIP3     H2       HT       0.417000       1.00800           0
     41837 TIP3     10641    TIP3     OH2      OT      -0.834000       15.9994           0
     41838 TIP3     10641    TIP3     H1       HT       0.417000       1.00800           0
     41839 TIP3     10641    TIP3     H2       HT       0.417000       1.00800           0
     41840 TIP3     10642    TIP3     OH2      OT      -0.834000       15.9994           0
     41841 TIP3     10642    TIP3     H1       HT       0.417000       1.00800           0
     41842 TIP3     10642    TIP3     H2       HT       0.417000       1.00800           0
     41843 TIP3     10643    TIP3     OH2      OT      -0.834000       15.9994           0
     41844 TIP3     10643    TIP3     H1       HT       0.417000       1.00800           0
     41845 TIP3     10643    TIP3     H2       HT       0.417000       1.00800           0
     41846 TIP3     10644    TIP3     OH2      OT      -0.834000       15.9994           0
     41847 TIP3     10644    TIP3     H1       HT       0.417000       1.00800           0
     41848 TIP3     10644    TIP3     H2       HT       0.417000       1.00800           0
     41849 TIP3     10645    TIP3     OH2      OT      -0.834000       15.9994           0
     41850 TIP3     10645    TIP3     H1       HT       0.417000       1.00800           0
     41851 TIP3     10645    TIP3     H2       HT       0.417000       1.00800           0
     41852 TIP3     10646    TIP3     OH2      OT      -0.834000       15.9994           0
     41853 TIP3     10646    TIP3     H1       HT       0.417000       1.00800           0
     41854 TIP3     10646    TIP3     H2       HT       0.417000       1.00800           0
     41855 TIP3     10647    TIP3     OH2      OT      -0.834000       15.9994           0
     41856 TIP3     10647    TIP3     H1       HT       0.417000       1.00800           0
     41857 TIP3     10647    TIP3     H2       HT       0.417000       1.00800           0
     41858 TIP3     10648    TIP3     OH2      OT      -0.834000       15.9994           0
     41859 TIP3     10648    TIP3     H1       HT       0.417000       1.00800           0
     41860 TIP3     10648    TIP3     H2       HT       0.417000       1.00800           0
     41861 TIP3     10649    TIP3     OH2      OT      -0.834000       15.9994           0
     41862 TIP3     10649    TIP3     H1       HT       0.417000       1.00800           0
     41863 TIP3     10649    TIP3     H2       HT       0.417000       1.00800           0
     41864 TIP3     10650    TIP3     OH2      OT      -0.834000       15.9994           0
     41865 TIP3     10650    TIP3     H1       HT       0.417000       1.00800           0
     41866 TIP3     10650    TIP3     H2       HT       0.417000       1.00800           0
     41867 TIP3     10651    TIP3     OH2      OT      -0.834000       15.9994           0
     41868 TIP3     10651    TIP3     H1       HT       0.417000       1.00800           0
     41869 TIP3     10651    TIP3     H2       HT       0.417000       1.00800           0
     41870 TIP3     10652    TIP3     OH2      OT      -0.834000       15.9994           0
     41871 TIP3     10652    TIP3     H1       HT       0.417000       1.00800           0
     41872 TIP3     10652    TIP3     H2       HT       0.417000       1.00800           0
     41873 TIP3     10653    TIP3     OH2      OT      -0.834000       15.9994           0
     41874 TIP3     10653    TIP3     H1       HT       0.417000       1.00800           0
     41875 TIP3     10653    TIP3     H2       HT       0.417000       1.00800           0
     41876 TIP3     10654    TIP3     OH2      OT      -0.834000       15.9994           0
     41877 TIP3     10654    TIP3     H1       HT       0.417000       1.00800           0
     41878 TIP3     10654    TIP3     H2       HT       0.417000       1.00800           0
     41879 TIP3     10655    TIP3     OH2      OT      -0.834000       15.9994           0
     41880 TIP3     10655    TIP3     H1       HT       0.417000       1.00800           0
     41881 TIP3     10655    TIP3     H2       HT       0.417000       1.00800           0
     41882 TIP3     10656    TIP3     OH2      OT      -0.834000       15.9994           0
     41883 TIP3     10656    TIP3     H1       HT       0.417000       1.00800           0
     41884 TIP3     10656    TIP3     H2       HT       0.417000       1.00800           0
     41885 TIP3     10657    TIP3     OH2      OT      -0.834000       15.9994           0
     41886 TIP3     10657    TIP3     H1       HT       0.417000       1.00800           0
     41887 TIP3     10657    TIP3     H2       HT       0.417000       1.00800           0
     41888 TIP3     10658    TIP3     OH2      OT      -0.834000       15.9994           0
     41889 TIP3     10658    TIP3     H1       HT       0.417000       1.00800           0
     41890 TIP3     10658    TIP3     H2       HT       0.417000       1.00800           0
     41891 TIP3     10659    TIP3     OH2      OT      -0.834000       15.9994           0
     41892 TIP3     10659    TIP3     H1       HT       0.417000       1.00800           0
     41893 TIP3     10659    TIP3     H2       HT       0.417000       1.00800           0
     41894 TIP3     10660    TIP3     OH2      OT      -0.834000       15.9994           0
     41895 TIP3     10660    TIP3     H1       HT       0.417000       1.00800           0
     41896 TIP3     10660    TIP3     H2       HT       0.417000       1.00800           0
     41897 TIP3     10661    TIP3     OH2      OT      -0.834000       15.9994           0
     41898 TIP3     10661    TIP3     H1       HT       0.417000       1.00800           0
     41899 TIP3     10661    TIP3     H2       HT       0.417000       1.00800           0
     41900 TIP3     10662    TIP3     OH2      OT      -0.834000       15.9994           0
     41901 TIP3     10662    TIP3     H1       HT       0.417000       1.00800           0
     41902 TIP3     10662    TIP3     H2       HT       0.417000       1.00800           0
     41903 TIP3     10663    TIP3     OH2      OT      -0.834000       15.9994           0
     41904 TIP3     10663    TIP3     H1       HT       0.417000       1.00800           0
     41905 TIP3     10663    TIP3     H2       HT       0.417000       1.00800           0
     41906 TIP3     10664    TIP3     OH2      OT      -0.834000       15.9994           0
     41907 TIP3     10664    TIP3     H1       HT       0.417000       1.00800           0
     41908 TIP3     10664    TIP3     H2       HT       0.417000       1.00800           0
     41909 TIP3     10665    TIP3     OH2      OT      -0.834000       15.9994           0
     41910 TIP3     10665    TIP3     H1       HT       0.417000       1.00800           0
     41911 TIP3     10665    TIP3     H2       HT       0.417000       1.00800           0
     41912 TIP3     10666    TIP3     OH2      OT      -0.834000       15.9994           0
     41913 TIP3     10666    TIP3     H1       HT       0.417000       1.00800           0
     41914 TIP3     10666    TIP3     H2       HT       0.417000       1.00800           0
     41915 TIP3     10667    TIP3     OH2      OT      -0.834000       15.9994           0
     41916 TIP3     10667    TIP3     H1       HT       0.417000       1.00800           0
     41917 TIP3     10667    TIP3     H2       HT       0.417000       1.00800           0
     41918 TIP3     10668    TIP3     OH2      OT      -0.834000       15.9994           0
     41919 TIP3     10668    TIP3     H1       HT       0.417000       1.00800           0
     41920 TIP3     10668    TIP3     H2       HT       0.417000       1.00800           0
     41921 TIP3     10669    TIP3     OH2      OT      -0.834000       15.9994           0
     41922 TIP3     10669    TIP3     H1       HT       0.417000       1.00800           0
     41923 TIP3     10669    TIP3     H2       HT       0.417000       1.00800           0
     41924 TIP3     10670    TIP3     OH2      OT      -0.834000       15.9994           0
     41925 TIP3     10670    TIP3     H1       HT       0.417000       1.00800           0
     41926 TIP3     10670    TIP3     H2       HT       0.417000       1.00800           0
     41927 TIP3     10671    TIP3     OH2      OT      -0.834000       15.9994           0
     41928 TIP3     10671    TIP3     H1       HT       0.417000       1.00800           0
     41929 TIP3     10671    TIP3     H2       HT       0.417000       1.00800           0
     41930 TIP3     10672    TIP3     OH2      OT      -0.834000       15.9994           0
     41931 TIP3     10672    TIP3     H1       HT       0.417000       1.00800           0
     41932 TIP3     10672    TIP3     H2       HT       0.417000       1.00800           0
     41933 TIP3     10673    TIP3     OH2      OT      -0.834000       15.9994           0
     41934 TIP3     10673    TIP3     H1       HT       0.417000       1.00800           0
     41935 TIP3     10673    TIP3     H2       HT       0.417000       1.00800           0
     41936 TIP3     10674    TIP3     OH2      OT      -0.834000       15.9994           0
     41937 TIP3     10674    TIP3     H1       HT       0.417000       1.00800           0
     41938 TIP3     10674    TIP3     H2       HT       0.417000       1.00800           0
     41939 TIP3     10675    TIP3     OH2      OT      -0.834000       15.9994           0
     41940 TIP3     10675    TIP3     H1       HT       0.417000       1.00800           0
     41941 TIP3     10675    TIP3     H2       HT       0.417000       1.00800           0
     41942 TIP3     10676    TIP3     OH2      OT      -0.834000       15.9994           0
     41943 TIP3     10676    TIP3     H1       HT       0.417000       1.00800           0
     41944 TIP3     10676    TIP3     H2       HT       0.417000       1.00800           0
     41945 TIP3     10677    TIP3     OH2      OT      -0.834000       15.9994           0
     41946 TIP3     10677    TIP3     H1       HT       0.417000       1.00800           0
     41947 TIP3     10677    TIP3     H2       HT       0.417000       1.00800           0
     41948 TIP3     10678    TIP3     OH2      OT      -0.834000       15.9994           0
     41949 TIP3     10678    TIP3     H1       HT       0.417000       1.00800           0
     41950 TIP3     10678    TIP3     H2       HT       0.417000       1.00800           0
     41951 TIP3     10679    TIP3     OH2      OT      -0.834000       15.9994           0
     41952 TIP3     10679    TIP3     H1       HT       0.417000       1.00800           0
     41953 TIP3     10679    TIP3     H2       HT       0.417000       1.00800           0
     41954 TIP3     10680    TIP3     OH2      OT      -0.834000       15.9994           0
     41955 TIP3     10680    TIP3     H1       HT       0.417000       1.00800           0
     41956 TIP3     10680    TIP3     H2       HT       0.417000       1.00800           0
     41957 TIP3     10681    TIP3     OH2      OT      -0.834000       15.9994           0
     41958 TIP3     10681    TIP3     H1       HT       0.417000       1.00800           0
     41959 TIP3     10681    TIP3     H2       HT       0.417000       1.00800           0
     41960 TIP3     10682    TIP3     OH2      OT      -0.834000       15.9994           0
     41961 TIP3     10682    TIP3     H1       HT       0.417000       1.00800           0
     41962 TIP3     10682    TIP3     H2       HT       0.417000       1.00800           0
     41963 TIP3     10683    TIP3     OH2      OT      -0.834000       15.9994           0
     41964 TIP3     10683    TIP3     H1       HT       0.417000       1.00800           0
     41965 TIP3     10683    TIP3     H2       HT       0.417000       1.00800           0
     41966 TIP3     10684    TIP3     OH2      OT      -0.834000       15.9994           0
     41967 TIP3     10684    TIP3     H1       HT       0.417000       1.00800           0
     41968 TIP3     10684    TIP3     H2       HT       0.417000       1.00800           0
     41969 TIP3     10685    TIP3     OH2      OT      -0.834000       15.9994           0
     41970 TIP3     10685    TIP3     H1       HT       0.417000       1.00800           0
     41971 TIP3     10685    TIP3     H2       HT       0.417000       1.00800           0
     41972 TIP3     10686    TIP3     OH2      OT      -0.834000       15.9994           0
     41973 TIP3     10686    TIP3     H1       HT       0.417000       1.00800           0
     41974 TIP3     10686    TIP3     H2       HT       0.417000       1.00800           0
     41975 TIP3     10687    TIP3     OH2      OT      -0.834000       15.9994           0
     41976 TIP3     10687    TIP3     H1       HT       0.417000       1.00800           0
     41977 TIP3     10687    TIP3     H2       HT       0.417000       1.00800           0
     41978 TIP3     10688    TIP3     OH2      OT      -0.834000       15.9994           0
     41979 TIP3     10688    TIP3     H1       HT       0.417000       1.00800           0
     41980 TIP3     10688    TIP3     H2       HT       0.417000       1.00800           0
     41981 TIP3     10689    TIP3     OH2      OT      -0.834000       15.9994           0
     41982 TIP3     10689    TIP3     H1       HT       0.417000       1.00800           0
     41983 TIP3     10689    TIP3     H2       HT       0.417000       1.00800           0
     41984 TIP3     10690    TIP3     OH2      OT      -0.834000       15.9994           0
     41985 TIP3     10690    TIP3     H1       HT       0.417000       1.00800           0
     41986 TIP3     10690    TIP3     H2       HT       0.417000       1.00800           0
     41987 TIP3     10691    TIP3     OH2      OT      -0.834000       15.9994           0
     41988 TIP3     10691    TIP3     H1       HT       0.417000       1.00800           0
     41989 TIP3     10691    TIP3     H2       HT       0.417000       1.00800           0
     41990 TIP3     10692    TIP3     OH2      OT      -0.834000       15.9994           0
     41991 TIP3     10692    TIP3     H1       HT       0.417000       1.00800           0
     41992 TIP3     10692    TIP3     H2       HT       0.417000       1.00800           0
     41993 TIP3     10693    TIP3     OH2      OT      -0.834000       15.9994           0
     41994 TIP3     10693    TIP3     H1       HT       0.417000       1.00800           0
     41995 TIP3     10693    TIP3     H2       HT       0.417000       1.00800           0
     41996 TIP3     10694    TIP3     OH2      OT      -0.834000       15.9994           0
     41997 TIP3     10694    TIP3     H1       HT       0.417000       1.00800           0
     41998 TIP3     10694    TIP3     H2       HT       0.417000       1.00800           0
     41999 TIP3     10695    TIP3     OH2      OT      -0.834000       15.9994           0
     42000 TIP3     10695    TIP3     H1       HT       0.417000       1.00800           0
     42001 TIP3     10695    TIP3     H2       HT       0.417000       1.00800           0
     42002 TIP3     10696    TIP3     OH2      OT      -0.834000       15.9994           0
     42003 TIP3     10696    TIP3     H1       HT       0.417000       1.00800           0
     42004 TIP3     10696    TIP3     H2       HT       0.417000       1.00800           0
     42005 TIP3     10697    TIP3     OH2      OT      -0.834000       15.9994           0
     42006 TIP3     10697    TIP3     H1       HT       0.417000       1.00800           0
     42007 TIP3     10697    TIP3     H2       HT       0.417000       1.00800           0
     42008 TIP3     10698    TIP3     OH2      OT      -0.834000       15.9994           0
     42009 TIP3     10698    TIP3     H1       HT       0.417000       1.00800           0
     42010 TIP3     10698    TIP3     H2       HT       0.417000       1.00800           0
     42011 TIP3     10699    TIP3     OH2      OT      -0.834000       15.9994           0
     42012 TIP3     10699    TIP3     H1       HT       0.417000       1.00800           0
     42013 TIP3     10699    TIP3     H2       HT       0.417000       1.00800           0
     42014 TIP3     10700    TIP3     OH2      OT      -0.834000       15.9994           0
     42015 TIP3     10700    TIP3     H1       HT       0.417000       1.00800           0
     42016 TIP3     10700    TIP3     H2       HT       0.417000       1.00800           0
     42017 TIP3     10701    TIP3     OH2      OT      -0.834000       15.9994           0
     42018 TIP3     10701    TIP3     H1       HT       0.417000       1.00800           0
     42019 TIP3     10701    TIP3     H2       HT       0.417000       1.00800           0
     42020 TIP3     10702    TIP3     OH2      OT      -0.834000       15.9994           0
     42021 TIP3     10702    TIP3     H1       HT       0.417000       1.00800           0
     42022 TIP3     10702    TIP3     H2       HT       0.417000       1.00800           0
     42023 TIP3     10703    TIP3     OH2      OT      -0.834000       15.9994           0
     42024 TIP3     10703    TIP3     H1       HT       0.417000       1.00800           0
     42025 TIP3     10703    TIP3     H2       HT       0.417000       1.00800           0
     42026 TIP3     10704    TIP3     OH2      OT      -0.834000       15.9994           0
     42027 TIP3     10704    TIP3     H1       HT       0.417000       1.00800           0
     42028 TIP3     10704    TIP3     H2       HT       0.417000       1.00800           0
     42029 TIP3     10705    TIP3     OH2      OT      -0.834000       15.9994           0
     42030 TIP3     10705    TIP3     H1       HT       0.417000       1.00800           0
     42031 TIP3     10705    TIP3     H2       HT       0.417000       1.00800           0
     42032 TIP3     10706    TIP3     OH2      OT      -0.834000       15.9994           0
     42033 TIP3     10706    TIP3     H1       HT       0.417000       1.00800           0
     42034 TIP3     10706    TIP3     H2       HT       0.417000       1.00800           0
     42035 TIP3     10707    TIP3     OH2      OT      -0.834000       15.9994           0
     42036 TIP3     10707    TIP3     H1       HT       0.417000       1.00800           0
     42037 TIP3     10707    TIP3     H2       HT       0.417000       1.00800           0
     42038 TIP3     10708    TIP3     OH2      OT      -0.834000       15.9994           0
     42039 TIP3     10708    TIP3     H1       HT       0.417000       1.00800           0
     42040 TIP3     10708    TIP3     H2       HT       0.417000       1.00800           0
     42041 TIP3     10709    TIP3     OH2      OT      -0.834000       15.9994           0
     42042 TIP3     10709    TIP3     H1       HT       0.417000       1.00800           0
     42043 TIP3     10709    TIP3     H2       HT       0.417000       1.00800           0
     42044 TIP3     10710    TIP3     OH2      OT      -0.834000       15.9994           0
     42045 TIP3     10710    TIP3     H1       HT       0.417000       1.00800           0
     42046 TIP3     10710    TIP3     H2       HT       0.417000       1.00800           0
     42047 TIP3     10711    TIP3     OH2      OT      -0.834000       15.9994           0
     42048 TIP3     10711    TIP3     H1       HT       0.417000       1.00800           0
     42049 TIP3     10711    TIP3     H2       HT       0.417000       1.00800           0
     42050 TIP3     10712    TIP3     OH2      OT      -0.834000       15.9994           0
     42051 TIP3     10712    TIP3     H1       HT       0.417000       1.00800           0
     42052 TIP3     10712    TIP3     H2       HT       0.417000       1.00800           0
     42053 TIP3     10713    TIP3     OH2      OT      -0.834000       15.9994           0
     42054 TIP3     10713    TIP3     H1       HT       0.417000       1.00800           0
     42055 TIP3     10713    TIP3     H2       HT       0.417000       1.00800           0
     42056 TIP3     10714    TIP3     OH2      OT      -0.834000       15.9994           0
     42057 TIP3     10714    TIP3     H1       HT       0.417000       1.00800           0
     42058 TIP3     10714    TIP3     H2       HT       0.417000       1.00800           0
     42059 TIP3     10715    TIP3     OH2      OT      -0.834000       15.9994           0
     42060 TIP3     10715    TIP3     H1       HT       0.417000       1.00800           0
     42061 TIP3     10715    TIP3     H2       HT       0.417000       1.00800           0
     42062 TIP3     10716    TIP3     OH2      OT      -0.834000       15.9994           0
     42063 TIP3     10716    TIP3     H1       HT       0.417000       1.00800           0
     42064 TIP3     10716    TIP3     H2       HT       0.417000       1.00800           0
     42065 TIP3     10717    TIP3     OH2      OT      -0.834000       15.9994           0
     42066 TIP3     10717    TIP3     H1       HT       0.417000       1.00800           0
     42067 TIP3     10717    TIP3     H2       HT       0.417000       1.00800           0
     42068 TIP3     10718    TIP3     OH2      OT      -0.834000       15.9994           0
     42069 TIP3     10718    TIP3     H1       HT       0.417000       1.00800           0
     42070 TIP3     10718    TIP3     H2       HT       0.417000       1.00800           0
     42071 TIP3     10719    TIP3     OH2      OT      -0.834000       15.9994           0
     42072 TIP3     10719    TIP3     H1       HT       0.417000       1.00800           0
     42073 TIP3     10719    TIP3     H2       HT       0.417000       1.00800           0
     42074 TIP3     10720    TIP3     OH2      OT      -0.834000       15.9994           0
     42075 TIP3     10720    TIP3     H1       HT       0.417000       1.00800           0
     42076 TIP3     10720    TIP3     H2       HT       0.417000       1.00800           0
     42077 TIP3     10721    TIP3     OH2      OT      -0.834000       15.9994           0
     42078 TIP3     10721    TIP3     H1       HT       0.417000       1.00800           0
     42079 TIP3     10721    TIP3     H2       HT       0.417000       1.00800           0
     42080 TIP3     10722    TIP3     OH2      OT      -0.834000       15.9994           0
     42081 TIP3     10722    TIP3     H1       HT       0.417000       1.00800           0
     42082 TIP3     10722    TIP3     H2       HT       0.417000       1.00800           0
     42083 TIP3     10723    TIP3     OH2      OT      -0.834000       15.9994           0
     42084 TIP3     10723    TIP3     H1       HT       0.417000       1.00800           0
     42085 TIP3     10723    TIP3     H2       HT       0.417000       1.00800           0
     42086 TIP3     10724    TIP3     OH2      OT      -0.834000       15.9994           0
     42087 TIP3     10724    TIP3     H1       HT       0.417000       1.00800           0
     42088 TIP3     10724    TIP3     H2       HT       0.417000       1.00800           0
     42089 TIP3     10725    TIP3     OH2      OT      -0.834000       15.9994           0
     42090 TIP3     10725    TIP3     H1       HT       0.417000       1.00800           0
     42091 TIP3     10725    TIP3     H2       HT       0.417000       1.00800           0
     42092 TIP3     10726    TIP3     OH2      OT      -0.834000       15.9994           0
     42093 TIP3     10726    TIP3     H1       HT       0.417000       1.00800           0
     42094 TIP3     10726    TIP3     H2       HT       0.417000       1.00800           0
     42095 TIP3     10727    TIP3     OH2      OT      -0.834000       15.9994           0
     42096 TIP3     10727    TIP3     H1       HT       0.417000       1.00800           0
     42097 TIP3     10727    TIP3     H2       HT       0.417000       1.00800           0
     42098 TIP3     10728    TIP3     OH2      OT      -0.834000       15.9994           0
     42099 TIP3     10728    TIP3     H1       HT       0.417000       1.00800           0
     42100 TIP3     10728    TIP3     H2       HT       0.417000       1.00800           0
     42101 TIP3     10729    TIP3     OH2      OT      -0.834000       15.9994           0
     42102 TIP3     10729    TIP3     H1       HT       0.417000       1.00800           0
     42103 TIP3     10729    TIP3     H2       HT       0.417000       1.00800           0
     42104 TIP3     10730    TIP3     OH2      OT      -0.834000       15.9994           0
     42105 TIP3     10730    TIP3     H1       HT       0.417000       1.00800           0
     42106 TIP3     10730    TIP3     H2       HT       0.417000       1.00800           0
     42107 TIP3     10731    TIP3     OH2      OT      -0.834000       15.9994           0
     42108 TIP3     10731    TIP3     H1       HT       0.417000       1.00800           0
     42109 TIP3     10731    TIP3     H2       HT       0.417000       1.00800           0
     42110 TIP3     10732    TIP3     OH2      OT      -0.834000       15.9994           0
     42111 TIP3     10732    TIP3     H1       HT       0.417000       1.00800           0
     42112 TIP3     10732    TIP3     H2       HT       0.417000       1.00800           0
     42113 TIP3     10733    TIP3     OH2      OT      -0.834000       15.9994           0
     42114 TIP3     10733    TIP3     H1       HT       0.417000       1.00800           0
     42115 TIP3     10733    TIP3     H2       HT       0.417000       1.00800           0
     42116 TIP3     10734    TIP3     OH2      OT      -0.834000       15.9994           0
     42117 TIP3     10734    TIP3     H1       HT       0.417000       1.00800           0
     42118 TIP3     10734    TIP3     H2       HT       0.417000       1.00800           0
     42119 TIP3     10735    TIP3     OH2      OT      -0.834000       15.9994           0
     42120 TIP3     10735    TIP3     H1       HT       0.417000       1.00800           0
     42121 TIP3     10735    TIP3     H2       HT       0.417000       1.00800           0
     42122 TIP3     10736    TIP3     OH2      OT      -0.834000       15.9994           0
     42123 TIP3     10736    TIP3     H1       HT       0.417000       1.00800           0
     42124 TIP3     10736    TIP3     H2       HT       0.417000       1.00800           0
     42125 TIP3     10737    TIP3     OH2      OT      -0.834000       15.9994           0
     42126 TIP3     10737    TIP3     H1       HT       0.417000       1.00800           0
     42127 TIP3     10737    TIP3     H2       HT       0.417000       1.00800           0
     42128 TIP3     10738    TIP3     OH2      OT      -0.834000       15.9994           0
     42129 TIP3     10738    TIP3     H1       HT       0.417000       1.00800           0
     42130 TIP3     10738    TIP3     H2       HT       0.417000       1.00800           0
     42131 TIP3     10739    TIP3     OH2      OT      -0.834000       15.9994           0
     42132 TIP3     10739    TIP3     H1       HT       0.417000       1.00800           0
     42133 TIP3     10739    TIP3     H2       HT       0.417000       1.00800           0
     42134 TIP3     10740    TIP3     OH2      OT      -0.834000       15.9994           0
     42135 TIP3     10740    TIP3     H1       HT       0.417000       1.00800           0
     42136 TIP3     10740    TIP3     H2       HT       0.417000       1.00800           0
     42137 TIP3     10741    TIP3     OH2      OT      -0.834000       15.9994           0
     42138 TIP3     10741    TIP3     H1       HT       0.417000       1.00800           0
     42139 TIP3     10741    TIP3     H2       HT       0.417000       1.00800           0
     42140 TIP3     10742    TIP3     OH2      OT      -0.834000       15.9994           0
     42141 TIP3     10742    TIP3     H1       HT       0.417000       1.00800           0
     42142 TIP3     10742    TIP3     H2       HT       0.417000       1.00800           0
     42143 TIP3     10743    TIP3     OH2      OT      -0.834000       15.9994           0
     42144 TIP3     10743    TIP3     H1       HT       0.417000       1.00800           0
     42145 TIP3     10743    TIP3     H2       HT       0.417000       1.00800           0
     42146 TIP3     10744    TIP3     OH2      OT      -0.834000       15.9994           0
     42147 TIP3     10744    TIP3     H1       HT       0.417000       1.00800           0
     42148 TIP3     10744    TIP3     H2       HT       0.417000       1.00800           0
     42149 TIP3     10745    TIP3     OH2      OT      -0.834000       15.9994           0
     42150 TIP3     10745    TIP3     H1       HT       0.417000       1.00800           0
     42151 TIP3     10745    TIP3     H2       HT       0.417000       1.00800           0
     42152 TIP3     10746    TIP3     OH2      OT      -0.834000       15.9994           0
     42153 TIP3     10746    TIP3     H1       HT       0.417000       1.00800           0
     42154 TIP3     10746    TIP3     H2       HT       0.417000       1.00800           0
     42155 TIP3     10747    TIP3     OH2      OT      -0.834000       15.9994           0
     42156 TIP3     10747    TIP3     H1       HT       0.417000       1.00800           0
     42157 TIP3     10747    TIP3     H2       HT       0.417000       1.00800           0
     42158 TIP3     10748    TIP3     OH2      OT      -0.834000       15.9994           0
     42159 TIP3     10748    TIP3     H1       HT       0.417000       1.00800           0
     42160 TIP3     10748    TIP3     H2       HT       0.417000       1.00800           0
     42161 TIP3     10749    TIP3     OH2      OT      -0.834000       15.9994           0
     42162 TIP3     10749    TIP3     H1       HT       0.417000       1.00800           0
     42163 TIP3     10749    TIP3     H2       HT       0.417000       1.00800           0
     42164 TIP3     10750    TIP3     OH2      OT      -0.834000       15.9994           0
     42165 TIP3     10750    TIP3     H1       HT       0.417000       1.00800           0
     42166 TIP3     10750    TIP3     H2       HT       0.417000       1.00800           0
     42167 TIP3     10751    TIP3     OH2      OT      -0.834000       15.9994           0
     42168 TIP3     10751    TIP3     H1       HT       0.417000       1.00800           0
     42169 TIP3     10751    TIP3     H2       HT       0.417000       1.00800           0
     42170 TIP3     10752    TIP3     OH2      OT      -0.834000       15.9994           0
     42171 TIP3     10752    TIP3     H1       HT       0.417000       1.00800           0
     42172 TIP3     10752    TIP3     H2       HT       0.417000       1.00800           0
     42173 TIP3     10753    TIP3     OH2      OT      -0.834000       15.9994           0
     42174 TIP3     10753    TIP3     H1       HT       0.417000       1.00800           0
     42175 TIP3     10753    TIP3     H2       HT       0.417000       1.00800           0
     42176 TIP3     10754    TIP3     OH2      OT      -0.834000       15.9994           0
     42177 TIP3     10754    TIP3     H1       HT       0.417000       1.00800           0
     42178 TIP3     10754    TIP3     H2       HT       0.417000       1.00800           0
     42179 TIP3     10755    TIP3     OH2      OT      -0.834000       15.9994           0
     42180 TIP3     10755    TIP3     H1       HT       0.417000       1.00800           0
     42181 TIP3     10755    TIP3     H2       HT       0.417000       1.00800           0
     42182 TIP3     10756    TIP3     OH2      OT      -0.834000       15.9994           0
     42183 TIP3     10756    TIP3     H1       HT       0.417000       1.00800           0
     42184 TIP3     10756    TIP3     H2       HT       0.417000       1.00800           0
     42185 TIP3     10757    TIP3     OH2      OT      -0.834000       15.9994           0
     42186 TIP3     10757    TIP3     H1       HT       0.417000       1.00800           0
     42187 TIP3     10757    TIP3     H2       HT       0.417000       1.00800           0
     42188 TIP3     10758    TIP3     OH2      OT      -0.834000       15.9994           0
     42189 TIP3     10758    TIP3     H1       HT       0.417000       1.00800           0
     42190 TIP3     10758    TIP3     H2       HT       0.417000       1.00800           0
     42191 TIP3     10759    TIP3     OH2      OT      -0.834000       15.9994           0
     42192 TIP3     10759    TIP3     H1       HT       0.417000       1.00800           0
     42193 TIP3     10759    TIP3     H2       HT       0.417000       1.00800           0
     42194 TIP3     10760    TIP3     OH2      OT      -0.834000       15.9994           0
     42195 TIP3     10760    TIP3     H1       HT       0.417000       1.00800           0
     42196 TIP3     10760    TIP3     H2       HT       0.417000       1.00800           0
     42197 TIP3     10761    TIP3     OH2      OT      -0.834000       15.9994           0
     42198 TIP3     10761    TIP3     H1       HT       0.417000       1.00800           0
     42199 TIP3     10761    TIP3     H2       HT       0.417000       1.00800           0
     42200 TIP3     10762    TIP3     OH2      OT      -0.834000       15.9994           0
     42201 TIP3     10762    TIP3     H1       HT       0.417000       1.00800           0
     42202 TIP3     10762    TIP3     H2       HT       0.417000       1.00800           0
     42203 TIP3     10763    TIP3     OH2      OT      -0.834000       15.9994           0
     42204 TIP3     10763    TIP3     H1       HT       0.417000       1.00800           0
     42205 TIP3     10763    TIP3     H2       HT       0.417000       1.00800           0
     42206 TIP3     10764    TIP3     OH2      OT      -0.834000       15.9994           0
     42207 TIP3     10764    TIP3     H1       HT       0.417000       1.00800           0
     42208 TIP3     10764    TIP3     H2       HT       0.417000       1.00800           0
     42209 TIP3     10765    TIP3     OH2      OT      -0.834000       15.9994           0
     42210 TIP3     10765    TIP3     H1       HT       0.417000       1.00800           0
     42211 TIP3     10765    TIP3     H2       HT       0.417000       1.00800           0
     42212 TIP3     10766    TIP3     OH2      OT      -0.834000       15.9994           0
     42213 TIP3     10766    TIP3     H1       HT       0.417000       1.00800           0
     42214 TIP3     10766    TIP3     H2       HT       0.417000       1.00800           0
     42215 TIP3     10767    TIP3     OH2      OT      -0.834000       15.9994           0
     42216 TIP3     10767    TIP3     H1       HT       0.417000       1.00800           0
     42217 TIP3     10767    TIP3     H2       HT       0.417000       1.00800           0
     42218 TIP3     10768    TIP3     OH2      OT      -0.834000       15.9994           0
     42219 TIP3     10768    TIP3     H1       HT       0.417000       1.00800           0
     42220 TIP3     10768    TIP3     H2       HT       0.417000       1.00800           0
     42221 TIP3     10769    TIP3     OH2      OT      -0.834000       15.9994           0
     42222 TIP3     10769    TIP3     H1       HT       0.417000       1.00800           0
     42223 TIP3     10769    TIP3     H2       HT       0.417000       1.00800           0
     42224 TIP3     10770    TIP3     OH2      OT      -0.834000       15.9994           0
     42225 TIP3     10770    TIP3     H1       HT       0.417000       1.00800           0
     42226 TIP3     10770    TIP3     H2       HT       0.417000       1.00800           0
     42227 TIP3     10771    TIP3     OH2      OT      -0.834000       15.9994           0
     42228 TIP3     10771    TIP3     H1       HT       0.417000       1.00800           0
     42229 TIP3     10771    TIP3     H2       HT       0.417000       1.00800           0
     42230 TIP3     10772    TIP3     OH2      OT      -0.834000       15.9994           0
     42231 TIP3     10772    TIP3     H1       HT       0.417000       1.00800           0
     42232 TIP3     10772    TIP3     H2       HT       0.417000       1.00800           0
     42233 TIP3     10773    TIP3     OH2      OT      -0.834000       15.9994           0
     42234 TIP3     10773    TIP3     H1       HT       0.417000       1.00800           0
     42235 TIP3     10773    TIP3     H2       HT       0.417000       1.00800           0
     42236 TIP3     10774    TIP3     OH2      OT      -0.834000       15.9994           0
     42237 TIP3     10774    TIP3     H1       HT       0.417000       1.00800           0
     42238 TIP3     10774    TIP3     H2       HT       0.417000       1.00800           0
     42239 TIP3     10775    TIP3     OH2      OT      -0.834000       15.9994           0
     42240 TIP3     10775    TIP3     H1       HT       0.417000       1.00800           0
     42241 TIP3     10775    TIP3     H2       HT       0.417000       1.00800           0
     42242 TIP3     10776    TIP3     OH2      OT      -0.834000       15.9994           0
     42243 TIP3     10776    TIP3     H1       HT       0.417000       1.00800           0
     42244 TIP3     10776    TIP3     H2       HT       0.417000       1.00800           0
     42245 TIP3     10777    TIP3     OH2      OT      -0.834000       15.9994           0
     42246 TIP3     10777    TIP3     H1       HT       0.417000       1.00800           0
     42247 TIP3     10777    TIP3     H2       HT       0.417000       1.00800           0
     42248 TIP3     10778    TIP3     OH2      OT      -0.834000       15.9994           0
     42249 TIP3     10778    TIP3     H1       HT       0.417000       1.00800           0
     42250 TIP3     10778    TIP3     H2       HT       0.417000       1.00800           0
     42251 TIP3     10779    TIP3     OH2      OT      -0.834000       15.9994           0
     42252 TIP3     10779    TIP3     H1       HT       0.417000       1.00800           0
     42253 TIP3     10779    TIP3     H2       HT       0.417000       1.00800           0
     42254 TIP3     10780    TIP3     OH2      OT      -0.834000       15.9994           0
     42255 TIP3     10780    TIP3     H1       HT       0.417000       1.00800           0
     42256 TIP3     10780    TIP3     H2       HT       0.417000       1.00800           0
     42257 TIP3     10781    TIP3     OH2      OT      -0.834000       15.9994           0
     42258 TIP3     10781    TIP3     H1       HT       0.417000       1.00800           0
     42259 TIP3     10781    TIP3     H2       HT       0.417000       1.00800           0
     42260 TIP3     10782    TIP3     OH2      OT      -0.834000       15.9994           0
     42261 TIP3     10782    TIP3     H1       HT       0.417000       1.00800           0
     42262 TIP3     10782    TIP3     H2       HT       0.417000       1.00800           0
     42263 TIP3     10783    TIP3     OH2      OT      -0.834000       15.9994           0
     42264 TIP3     10783    TIP3     H1       HT       0.417000       1.00800           0
     42265 TIP3     10783    TIP3     H2       HT       0.417000       1.00800           0
     42266 TIP3     10784    TIP3     OH2      OT      -0.834000       15.9994           0
     42267 TIP3     10784    TIP3     H1       HT       0.417000       1.00800           0
     42268 TIP3     10784    TIP3     H2       HT       0.417000       1.00800           0
     42269 TIP3     10785    TIP3     OH2      OT      -0.834000       15.9994           0
     42270 TIP3     10785    TIP3     H1       HT       0.417000       1.00800           0
     42271 TIP3     10785    TIP3     H2       HT       0.417000       1.00800           0
     42272 TIP3     10786    TIP3     OH2      OT      -0.834000       15.9994           0
     42273 TIP3     10786    TIP3     H1       HT       0.417000       1.00800           0
     42274 TIP3     10786    TIP3     H2       HT       0.417000       1.00800           0
     42275 TIP3     10787    TIP3     OH2      OT      -0.834000       15.9994           0
     42276 TIP3     10787    TIP3     H1       HT       0.417000       1.00800           0
     42277 TIP3     10787    TIP3     H2       HT       0.417000       1.00800           0
     42278 TIP3     10788    TIP3     OH2      OT      -0.834000       15.9994           0
     42279 TIP3     10788    TIP3     H1       HT       0.417000       1.00800           0
     42280 TIP3     10788    TIP3     H2       HT       0.417000       1.00800           0
     42281 TIP3     10789    TIP3     OH2      OT      -0.834000       15.9994           0
     42282 TIP3     10789    TIP3     H1       HT       0.417000       1.00800           0
     42283 TIP3     10789    TIP3     H2       HT       0.417000       1.00800           0
     42284 TIP3     10790    TIP3     OH2      OT      -0.834000       15.9994           0
     42285 TIP3     10790    TIP3     H1       HT       0.417000       1.00800           0
     42286 TIP3     10790    TIP3     H2       HT       0.417000       1.00800           0
     42287 TIP3     10791    TIP3     OH2      OT      -0.834000       15.9994           0
     42288 TIP3     10791    TIP3     H1       HT       0.417000       1.00800           0
     42289 TIP3     10791    TIP3     H2       HT       0.417000       1.00800           0
     42290 TIP3     10792    TIP3     OH2      OT      -0.834000       15.9994           0
     42291 TIP3     10792    TIP3     H1       HT       0.417000       1.00800           0
     42292 TIP3     10792    TIP3     H2       HT       0.417000       1.00800           0
     42293 TIP3     10793    TIP3     OH2      OT      -0.834000       15.9994           0
     42294 TIP3     10793    TIP3     H1       HT       0.417000       1.00800           0
     42295 TIP3     10793    TIP3     H2       HT       0.417000       1.00800           0
     42296 TIP3     10794    TIP3     OH2      OT      -0.834000       15.9994           0
     42297 TIP3     10794    TIP3     H1       HT       0.417000       1.00800           0
     42298 TIP3     10794    TIP3     H2       HT       0.417000       1.00800           0
     42299 TIP3     10795    TIP3     OH2      OT      -0.834000       15.9994           0
     42300 TIP3     10795    TIP3     H1       HT       0.417000       1.00800           0
     42301 TIP3     10795    TIP3     H2       HT       0.417000       1.00800           0
     42302 TIP3     10796    TIP3     OH2      OT      -0.834000       15.9994           0
     42303 TIP3     10796    TIP3     H1       HT       0.417000       1.00800           0
     42304 TIP3     10796    TIP3     H2       HT       0.417000       1.00800           0
     42305 TIP3     10797    TIP3     OH2      OT      -0.834000       15.9994           0
     42306 TIP3     10797    TIP3     H1       HT       0.417000       1.00800           0
     42307 TIP3     10797    TIP3     H2       HT       0.417000       1.00800           0
     42308 TIP3     10798    TIP3     OH2      OT      -0.834000       15.9994           0
     42309 TIP3     10798    TIP3     H1       HT       0.417000       1.00800           0
     42310 TIP3     10798    TIP3     H2       HT       0.417000       1.00800           0
     42311 TIP3     10799    TIP3     OH2      OT      -0.834000       15.9994           0
     42312 TIP3     10799    TIP3     H1       HT       0.417000       1.00800           0
     42313 TIP3     10799    TIP3     H2       HT       0.417000       1.00800           0
     42314 TIP3     10800    TIP3     OH2      OT      -0.834000       15.9994           0
     42315 TIP3     10800    TIP3     H1       HT       0.417000       1.00800           0
     42316 TIP3     10800    TIP3     H2       HT       0.417000       1.00800           0
     42317 TIP3     10801    TIP3     OH2      OT      -0.834000       15.9994           0
     42318 TIP3     10801    TIP3     H1       HT       0.417000       1.00800           0
     42319 TIP3     10801    TIP3     H2       HT       0.417000       1.00800           0
     42320 TIP3     10802    TIP3     OH2      OT      -0.834000       15.9994           0
     42321 TIP3     10802    TIP3     H1       HT       0.417000       1.00800           0
     42322 TIP3     10802    TIP3     H2       HT       0.417000       1.00800           0
     42323 TIP3     10803    TIP3     OH2      OT      -0.834000       15.9994           0
     42324 TIP3     10803    TIP3     H1       HT       0.417000       1.00800           0
     42325 TIP3     10803    TIP3     H2       HT       0.417000       1.00800           0
     42326 TIP3     10804    TIP3     OH2      OT      -0.834000       15.9994           0
     42327 TIP3     10804    TIP3     H1       HT       0.417000       1.00800           0
     42328 TIP3     10804    TIP3     H2       HT       0.417000       1.00800           0
     42329 TIP3     10805    TIP3     OH2      OT      -0.834000       15.9994           0
     42330 TIP3     10805    TIP3     H1       HT       0.417000       1.00800           0
     42331 TIP3     10805    TIP3     H2       HT       0.417000       1.00800           0
     42332 TIP3     10806    TIP3     OH2      OT      -0.834000       15.9994           0
     42333 TIP3     10806    TIP3     H1       HT       0.417000       1.00800           0
     42334 TIP3     10806    TIP3     H2       HT       0.417000       1.00800           0
     42335 TIP3     10807    TIP3     OH2      OT      -0.834000       15.9994           0
     42336 TIP3     10807    TIP3     H1       HT       0.417000       1.00800           0
     42337 TIP3     10807    TIP3     H2       HT       0.417000       1.00800           0
     42338 TIP3     10808    TIP3     OH2      OT      -0.834000       15.9994           0
     42339 TIP3     10808    TIP3     H1       HT       0.417000       1.00800           0
     42340 TIP3     10808    TIP3     H2       HT       0.417000       1.00800           0
     42341 TIP3     10809    TIP3     OH2      OT      -0.834000       15.9994           0
     42342 TIP3     10809    TIP3     H1       HT       0.417000       1.00800           0
     42343 TIP3     10809    TIP3     H2       HT       0.417000       1.00800           0
     42344 TIP3     10810    TIP3     OH2      OT      -0.834000       15.9994           0
     42345 TIP3     10810    TIP3     H1       HT       0.417000       1.00800           0
     42346 TIP3     10810    TIP3     H2       HT       0.417000       1.00800           0
     42347 TIP3     10811    TIP3     OH2      OT      -0.834000       15.9994           0
     42348 TIP3     10811    TIP3     H1       HT       0.417000       1.00800           0
     42349 TIP3     10811    TIP3     H2       HT       0.417000       1.00800           0
     42350 TIP3     10812    TIP3     OH2      OT      -0.834000       15.9994           0
     42351 TIP3     10812    TIP3     H1       HT       0.417000       1.00800           0
     42352 TIP3     10812    TIP3     H2       HT       0.417000       1.00800           0
     42353 TIP3     10813    TIP3     OH2      OT      -0.834000       15.9994           0
     42354 TIP3     10813    TIP3     H1       HT       0.417000       1.00800           0
     42355 TIP3     10813    TIP3     H2       HT       0.417000       1.00800           0
     42356 TIP3     10814    TIP3     OH2      OT      -0.834000       15.9994           0
     42357 TIP3     10814    TIP3     H1       HT       0.417000       1.00800           0
     42358 TIP3     10814    TIP3     H2       HT       0.417000       1.00800           0
     42359 TIP3     10815    TIP3     OH2      OT      -0.834000       15.9994           0
     42360 TIP3     10815    TIP3     H1       HT       0.417000       1.00800           0
     42361 TIP3     10815    TIP3     H2       HT       0.417000       1.00800           0
     42362 TIP3     10816    TIP3     OH2      OT      -0.834000       15.9994           0
     42363 TIP3     10816    TIP3     H1       HT       0.417000       1.00800           0
     42364 TIP3     10816    TIP3     H2       HT       0.417000       1.00800           0
     42365 TIP3     10817    TIP3     OH2      OT      -0.834000       15.9994           0
     42366 TIP3     10817    TIP3     H1       HT       0.417000       1.00800           0
     42367 TIP3     10817    TIP3     H2       HT       0.417000       1.00800           0
     42368 TIP3     10818    TIP3     OH2      OT      -0.834000       15.9994           0
     42369 TIP3     10818    TIP3     H1       HT       0.417000       1.00800           0
     42370 TIP3     10818    TIP3     H2       HT       0.417000       1.00800           0
     42371 TIP3     10819    TIP3     OH2      OT      -0.834000       15.9994           0
     42372 TIP3     10819    TIP3     H1       HT       0.417000       1.00800           0
     42373 TIP3     10819    TIP3     H2       HT       0.417000       1.00800           0
     42374 TIP3     10820    TIP3     OH2      OT      -0.834000       15.9994           0
     42375 TIP3     10820    TIP3     H1       HT       0.417000       1.00800           0
     42376 TIP3     10820    TIP3     H2       HT       0.417000       1.00800           0
     42377 TIP3     10821    TIP3     OH2      OT      -0.834000       15.9994           0
     42378 TIP3     10821    TIP3     H1       HT       0.417000       1.00800           0
     42379 TIP3     10821    TIP3     H2       HT       0.417000       1.00800           0
     42380 TIP3     10822    TIP3     OH2      OT      -0.834000       15.9994           0
     42381 TIP3     10822    TIP3     H1       HT       0.417000       1.00800           0
     42382 TIP3     10822    TIP3     H2       HT       0.417000       1.00800           0
     42383 TIP3     10823    TIP3     OH2      OT      -0.834000       15.9994           0
     42384 TIP3     10823    TIP3     H1       HT       0.417000       1.00800           0
     42385 TIP3     10823    TIP3     H2       HT       0.417000       1.00800           0
     42386 TIP3     10824    TIP3     OH2      OT      -0.834000       15.9994           0
     42387 TIP3     10824    TIP3     H1       HT       0.417000       1.00800           0
     42388 TIP3     10824    TIP3     H2       HT       0.417000       1.00800           0
     42389 TIP3     10825    TIP3     OH2      OT      -0.834000       15.9994           0
     42390 TIP3     10825    TIP3     H1       HT       0.417000       1.00800           0
     42391 TIP3     10825    TIP3     H2       HT       0.417000       1.00800           0
     42392 TIP3     10826    TIP3     OH2      OT      -0.834000       15.9994           0
     42393 TIP3     10826    TIP3     H1       HT       0.417000       1.00800           0
     42394 TIP3     10826    TIP3     H2       HT       0.417000       1.00800           0
     42395 TIP3     10827    TIP3     OH2      OT      -0.834000       15.9994           0
     42396 TIP3     10827    TIP3     H1       HT       0.417000       1.00800           0
     42397 TIP3     10827    TIP3     H2       HT       0.417000       1.00800           0
     42398 TIP3     10828    TIP3     OH2      OT      -0.834000       15.9994           0
     42399 TIP3     10828    TIP3     H1       HT       0.417000       1.00800           0
     42400 TIP3     10828    TIP3     H2       HT       0.417000       1.00800           0
     42401 TIP3     10829    TIP3     OH2      OT      -0.834000       15.9994           0
     42402 TIP3     10829    TIP3     H1       HT       0.417000       1.00800           0
     42403 TIP3     10829    TIP3     H2       HT       0.417000       1.00800           0
     42404 TIP3     10830    TIP3     OH2      OT      -0.834000       15.9994           0
     42405 TIP3     10830    TIP3     H1       HT       0.417000       1.00800           0
     42406 TIP3     10830    TIP3     H2       HT       0.417000       1.00800           0
     42407 TIP3     10831    TIP3     OH2      OT      -0.834000       15.9994           0
     42408 TIP3     10831    TIP3     H1       HT       0.417000       1.00800           0
     42409 TIP3     10831    TIP3     H2       HT       0.417000       1.00800           0
     42410 TIP3     10832    TIP3     OH2      OT      -0.834000       15.9994           0
     42411 TIP3     10832    TIP3     H1       HT       0.417000       1.00800           0
     42412 TIP3     10832    TIP3     H2       HT       0.417000       1.00800           0
     42413 TIP3     10833    TIP3     OH2      OT      -0.834000       15.9994           0
     42414 TIP3     10833    TIP3     H1       HT       0.417000       1.00800           0
     42415 TIP3     10833    TIP3     H2       HT       0.417000       1.00800           0
     42416 TIP3     10834    TIP3     OH2      OT      -0.834000       15.9994           0
     42417 TIP3     10834    TIP3     H1       HT       0.417000       1.00800           0
     42418 TIP3     10834    TIP3     H2       HT       0.417000       1.00800           0
     42419 TIP3     10835    TIP3     OH2      OT      -0.834000       15.9994           0
     42420 TIP3     10835    TIP3     H1       HT       0.417000       1.00800           0
     42421 TIP3     10835    TIP3     H2       HT       0.417000       1.00800           0
     42422 TIP3     10836    TIP3     OH2      OT      -0.834000       15.9994           0
     42423 TIP3     10836    TIP3     H1       HT       0.417000       1.00800           0
     42424 TIP3     10836    TIP3     H2       HT       0.417000       1.00800           0
     42425 TIP3     10837    TIP3     OH2      OT      -0.834000       15.9994           0
     42426 TIP3     10837    TIP3     H1       HT       0.417000       1.00800           0
     42427 TIP3     10837    TIP3     H2       HT       0.417000       1.00800           0
     42428 TIP3     10838    TIP3     OH2      OT      -0.834000       15.9994           0
     42429 TIP3     10838    TIP3     H1       HT       0.417000       1.00800           0
     42430 TIP3     10838    TIP3     H2       HT       0.417000       1.00800           0
     42431 TIP3     10839    TIP3     OH2      OT      -0.834000       15.9994           0
     42432 TIP3     10839    TIP3     H1       HT       0.417000       1.00800           0
     42433 TIP3     10839    TIP3     H2       HT       0.417000       1.00800           0
     42434 TIP3     10840    TIP3     OH2      OT      -0.834000       15.9994           0
     42435 TIP3     10840    TIP3     H1       HT       0.417000       1.00800           0
     42436 TIP3     10840    TIP3     H2       HT       0.417000       1.00800           0
     42437 TIP3     10841    TIP3     OH2      OT      -0.834000       15.9994           0
     42438 TIP3     10841    TIP3     H1       HT       0.417000       1.00800           0
     42439 TIP3     10841    TIP3     H2       HT       0.417000       1.00800           0
     42440 TIP3     10842    TIP3     OH2      OT      -0.834000       15.9994           0
     42441 TIP3     10842    TIP3     H1       HT       0.417000       1.00800           0
     42442 TIP3     10842    TIP3     H2       HT       0.417000       1.00800           0
     42443 TIP3     10843    TIP3     OH2      OT      -0.834000       15.9994           0
     42444 TIP3     10843    TIP3     H1       HT       0.417000       1.00800           0
     42445 TIP3     10843    TIP3     H2       HT       0.417000       1.00800           0
     42446 TIP3     10844    TIP3     OH2      OT      -0.834000       15.9994           0
     42447 TIP3     10844    TIP3     H1       HT       0.417000       1.00800           0
     42448 TIP3     10844    TIP3     H2       HT       0.417000       1.00800           0
     42449 TIP3     10845    TIP3     OH2      OT      -0.834000       15.9994           0
     42450 TIP3     10845    TIP3     H1       HT       0.417000       1.00800           0
     42451 TIP3     10845    TIP3     H2       HT       0.417000       1.00800           0
     42452 TIP3     10846    TIP3     OH2      OT      -0.834000       15.9994           0
     42453 TIP3     10846    TIP3     H1       HT       0.417000       1.00800           0
     42454 TIP3     10846    TIP3     H2       HT       0.417000       1.00800           0
     42455 TIP3     10847    TIP3     OH2      OT      -0.834000       15.9994           0
     42456 TIP3     10847    TIP3     H1       HT       0.417000       1.00800           0
     42457 TIP3     10847    TIP3     H2       HT       0.417000       1.00800           0
     42458 TIP3     10848    TIP3     OH2      OT      -0.834000       15.9994           0
     42459 TIP3     10848    TIP3     H1       HT       0.417000       1.00800           0
     42460 TIP3     10848    TIP3     H2       HT       0.417000       1.00800           0
     42461 TIP3     10849    TIP3     OH2      OT      -0.834000       15.9994           0
     42462 TIP3     10849    TIP3     H1       HT       0.417000       1.00800           0
     42463 TIP3     10849    TIP3     H2       HT       0.417000       1.00800           0
     42464 TIP3     10850    TIP3     OH2      OT      -0.834000       15.9994           0
     42465 TIP3     10850    TIP3     H1       HT       0.417000       1.00800           0
     42466 TIP3     10850    TIP3     H2       HT       0.417000       1.00800           0
     42467 TIP3     10851    TIP3     OH2      OT      -0.834000       15.9994           0
     42468 TIP3     10851    TIP3     H1       HT       0.417000       1.00800           0
     42469 TIP3     10851    TIP3     H2       HT       0.417000       1.00800           0
     42470 TIP3     10852    TIP3     OH2      OT      -0.834000       15.9994           0
     42471 TIP3     10852    TIP3     H1       HT       0.417000       1.00800           0
     42472 TIP3     10852    TIP3     H2       HT       0.417000       1.00800           0
     42473 TIP3     10853    TIP3     OH2      OT      -0.834000       15.9994           0
     42474 TIP3     10853    TIP3     H1       HT       0.417000       1.00800           0
     42475 TIP3     10853    TIP3     H2       HT       0.417000       1.00800           0
     42476 TIP3     10854    TIP3     OH2      OT      -0.834000       15.9994           0
     42477 TIP3     10854    TIP3     H1       HT       0.417000       1.00800           0
     42478 TIP3     10854    TIP3     H2       HT       0.417000       1.00800           0
     42479 TIP3     10855    TIP3     OH2      OT      -0.834000       15.9994           0
     42480 TIP3     10855    TIP3     H1       HT       0.417000       1.00800           0
     42481 TIP3     10855    TIP3     H2       HT       0.417000       1.00800           0
     42482 TIP3     10856    TIP3     OH2      OT      -0.834000       15.9994           0
     42483 TIP3     10856    TIP3     H1       HT       0.417000       1.00800           0
     42484 TIP3     10856    TIP3     H2       HT       0.417000       1.00800           0
     42485 TIP3     10857    TIP3     OH2      OT      -0.834000       15.9994           0
     42486 TIP3     10857    TIP3     H1       HT       0.417000       1.00800           0
     42487 TIP3     10857    TIP3     H2       HT       0.417000       1.00800           0
     42488 TIP3     10858    TIP3     OH2      OT      -0.834000       15.9994           0
     42489 TIP3     10858    TIP3     H1       HT       0.417000       1.00800           0
     42490 TIP3     10858    TIP3     H2       HT       0.417000       1.00800           0
     42491 TIP3     10859    TIP3     OH2      OT      -0.834000       15.9994           0
     42492 TIP3     10859    TIP3     H1       HT       0.417000       1.00800           0
     42493 TIP3     10859    TIP3     H2       HT       0.417000       1.00800           0
     42494 TIP3     10860    TIP3     OH2      OT      -0.834000       15.9994           0
     42495 TIP3     10860    TIP3     H1       HT       0.417000       1.00800           0
     42496 TIP3     10860    TIP3     H2       HT       0.417000       1.00800           0
     42497 TIP3     10861    TIP3     OH2      OT      -0.834000       15.9994           0
     42498 TIP3     10861    TIP3     H1       HT       0.417000       1.00800           0
     42499 TIP3     10861    TIP3     H2       HT       0.417000       1.00800           0
     42500 TIP3     10862    TIP3     OH2      OT      -0.834000       15.9994           0
     42501 TIP3     10862    TIP3     H1       HT       0.417000       1.00800           0
     42502 TIP3     10862    TIP3     H2       HT       0.417000       1.00800           0
     42503 TIP3     10863    TIP3     OH2      OT      -0.834000       15.9994           0
     42504 TIP3     10863    TIP3     H1       HT       0.417000       1.00800           0
     42505 TIP3     10863    TIP3     H2       HT       0.417000       1.00800           0
     42506 TIP3     10864    TIP3     OH2      OT      -0.834000       15.9994           0
     42507 TIP3     10864    TIP3     H1       HT       0.417000       1.00800           0
     42508 TIP3     10864    TIP3     H2       HT       0.417000       1.00800           0
     42509 TIP3     10865    TIP3     OH2      OT      -0.834000       15.9994           0
     42510 TIP3     10865    TIP3     H1       HT       0.417000       1.00800           0
     42511 TIP3     10865    TIP3     H2       HT       0.417000       1.00800           0
     42512 TIP3     10866    TIP3     OH2      OT      -0.834000       15.9994           0
     42513 TIP3     10866    TIP3     H1       HT       0.417000       1.00800           0
     42514 TIP3     10866    TIP3     H2       HT       0.417000       1.00800           0
     42515 TIP3     10867    TIP3     OH2      OT      -0.834000       15.9994           0
     42516 TIP3     10867    TIP3     H1       HT       0.417000       1.00800           0
     42517 TIP3     10867    TIP3     H2       HT       0.417000       1.00800           0
     42518 TIP3     10868    TIP3     OH2      OT      -0.834000       15.9994           0
     42519 TIP3     10868    TIP3     H1       HT       0.417000       1.00800           0
     42520 TIP3     10868    TIP3     H2       HT       0.417000       1.00800           0
     42521 TIP3     10869    TIP3     OH2      OT      -0.834000       15.9994           0
     42522 TIP3     10869    TIP3     H1       HT       0.417000       1.00800           0
     42523 TIP3     10869    TIP3     H2       HT       0.417000       1.00800           0
     42524 TIP3     10870    TIP3     OH2      OT      -0.834000       15.9994           0
     42525 TIP3     10870    TIP3     H1       HT       0.417000       1.00800           0
     42526 TIP3     10870    TIP3     H2       HT       0.417000       1.00800           0
     42527 TIP3     10871    TIP3     OH2      OT      -0.834000       15.9994           0
     42528 TIP3     10871    TIP3     H1       HT       0.417000       1.00800           0
     42529 TIP3     10871    TIP3     H2       HT       0.417000       1.00800           0
     42530 TIP3     10872    TIP3     OH2      OT      -0.834000       15.9994           0
     42531 TIP3     10872    TIP3     H1       HT       0.417000       1.00800           0
     42532 TIP3     10872    TIP3     H2       HT       0.417000       1.00800           0
     42533 TIP3     10873    TIP3     OH2      OT      -0.834000       15.9994           0
     42534 TIP3     10873    TIP3     H1       HT       0.417000       1.00800           0
     42535 TIP3     10873    TIP3     H2       HT       0.417000       1.00800           0
     42536 TIP3     10874    TIP3     OH2      OT      -0.834000       15.9994           0
     42537 TIP3     10874    TIP3     H1       HT       0.417000       1.00800           0
     42538 TIP3     10874    TIP3     H2       HT       0.417000       1.00800           0
     42539 TIP3     10875    TIP3     OH2      OT      -0.834000       15.9994           0
     42540 TIP3     10875    TIP3     H1       HT       0.417000       1.00800           0
     42541 TIP3     10875    TIP3     H2       HT       0.417000       1.00800           0
     42542 TIP3     10876    TIP3     OH2      OT      -0.834000       15.9994           0
     42543 TIP3     10876    TIP3     H1       HT       0.417000       1.00800           0
     42544 TIP3     10876    TIP3     H2       HT       0.417000       1.00800           0
     42545 TIP3     10877    TIP3     OH2      OT      -0.834000       15.9994           0
     42546 TIP3     10877    TIP3     H1       HT       0.417000       1.00800           0
     42547 TIP3     10877    TIP3     H2       HT       0.417000       1.00800           0
     42548 TIP3     10878    TIP3     OH2      OT      -0.834000       15.9994           0
     42549 TIP3     10878    TIP3     H1       HT       0.417000       1.00800           0
     42550 TIP3     10878    TIP3     H2       HT       0.417000       1.00800           0
     42551 TIP3     10879    TIP3     OH2      OT      -0.834000       15.9994           0
     42552 TIP3     10879    TIP3     H1       HT       0.417000       1.00800           0
     42553 TIP3     10879    TIP3     H2       HT       0.417000       1.00800           0
     42554 TIP3     10880    TIP3     OH2      OT      -0.834000       15.9994           0
     42555 TIP3     10880    TIP3     H1       HT       0.417000       1.00800           0
     42556 TIP3     10880    TIP3     H2       HT       0.417000       1.00800           0
     42557 TIP3     10881    TIP3     OH2      OT      -0.834000       15.9994           0
     42558 TIP3     10881    TIP3     H1       HT       0.417000       1.00800           0
     42559 TIP3     10881    TIP3     H2       HT       0.417000       1.00800           0
     42560 TIP3     10882    TIP3     OH2      OT      -0.834000       15.9994           0
     42561 TIP3     10882    TIP3     H1       HT       0.417000       1.00800           0
     42562 TIP3     10882    TIP3     H2       HT       0.417000       1.00800           0
     42563 TIP3     10883    TIP3     OH2      OT      -0.834000       15.9994           0
     42564 TIP3     10883    TIP3     H1       HT       0.417000       1.00800           0
     42565 TIP3     10883    TIP3     H2       HT       0.417000       1.00800           0
     42566 TIP3     10884    TIP3     OH2      OT      -0.834000       15.9994           0
     42567 TIP3     10884    TIP3     H1       HT       0.417000       1.00800           0
     42568 TIP3     10884    TIP3     H2       HT       0.417000       1.00800           0
     42569 TIP3     10885    TIP3     OH2      OT      -0.834000       15.9994           0
     42570 TIP3     10885    TIP3     H1       HT       0.417000       1.00800           0
     42571 TIP3     10885    TIP3     H2       HT       0.417000       1.00800           0
     42572 TIP3     10886    TIP3     OH2      OT      -0.834000       15.9994           0
     42573 TIP3     10886    TIP3     H1       HT       0.417000       1.00800           0
     42574 TIP3     10886    TIP3     H2       HT       0.417000       1.00800           0
     42575 TIP3     10887    TIP3     OH2      OT      -0.834000       15.9994           0
     42576 TIP3     10887    TIP3     H1       HT       0.417000       1.00800           0
     42577 TIP3     10887    TIP3     H2       HT       0.417000       1.00800           0
     42578 TIP3     10888    TIP3     OH2      OT      -0.834000       15.9994           0
     42579 TIP3     10888    TIP3     H1       HT       0.417000       1.00800           0
     42580 TIP3     10888    TIP3     H2       HT       0.417000       1.00800           0
     42581 TIP3     10889    TIP3     OH2      OT      -0.834000       15.9994           0
     42582 TIP3     10889    TIP3     H1       HT       0.417000       1.00800           0
     42583 TIP3     10889    TIP3     H2       HT       0.417000       1.00800           0
     42584 TIP3     10890    TIP3     OH2      OT      -0.834000       15.9994           0
     42585 TIP3     10890    TIP3     H1       HT       0.417000       1.00800           0
     42586 TIP3     10890    TIP3     H2       HT       0.417000       1.00800           0
     42587 TIP3     10891    TIP3     OH2      OT      -0.834000       15.9994           0
     42588 TIP3     10891    TIP3     H1       HT       0.417000       1.00800           0
     42589 TIP3     10891    TIP3     H2       HT       0.417000       1.00800           0
     42590 TIP3     10892    TIP3     OH2      OT      -0.834000       15.9994           0
     42591 TIP3     10892    TIP3     H1       HT       0.417000       1.00800           0
     42592 TIP3     10892    TIP3     H2       HT       0.417000       1.00800           0
     42593 TIP3     10893    TIP3     OH2      OT      -0.834000       15.9994           0
     42594 TIP3     10893    TIP3     H1       HT       0.417000       1.00800           0
     42595 TIP3     10893    TIP3     H2       HT       0.417000       1.00800           0
     42596 TIP3     10894    TIP3     OH2      OT      -0.834000       15.9994           0
     42597 TIP3     10894    TIP3     H1       HT       0.417000       1.00800           0
     42598 TIP3     10894    TIP3     H2       HT       0.417000       1.00800           0
     42599 TIP3     10895    TIP3     OH2      OT      -0.834000       15.9994           0
     42600 TIP3     10895    TIP3     H1       HT       0.417000       1.00800           0
     42601 TIP3     10895    TIP3     H2       HT       0.417000       1.00800           0
     42602 TIP3     10896    TIP3     OH2      OT      -0.834000       15.9994           0
     42603 TIP3     10896    TIP3     H1       HT       0.417000       1.00800           0
     42604 TIP3     10896    TIP3     H2       HT       0.417000       1.00800           0
     42605 TIP3     10897    TIP3     OH2      OT      -0.834000       15.9994           0
     42606 TIP3     10897    TIP3     H1       HT       0.417000       1.00800           0
     42607 TIP3     10897    TIP3     H2       HT       0.417000       1.00800           0
     42608 TIP3     10898    TIP3     OH2      OT      -0.834000       15.9994           0
     42609 TIP3     10898    TIP3     H1       HT       0.417000       1.00800           0
     42610 TIP3     10898    TIP3     H2       HT       0.417000       1.00800           0
     42611 TIP3     10899    TIP3     OH2      OT      -0.834000       15.9994           0
     42612 TIP3     10899    TIP3     H1       HT       0.417000       1.00800           0
     42613 TIP3     10899    TIP3     H2       HT       0.417000       1.00800           0
     42614 TIP3     10900    TIP3     OH2      OT      -0.834000       15.9994           0
     42615 TIP3     10900    TIP3     H1       HT       0.417000       1.00800           0
     42616 TIP3     10900    TIP3     H2       HT       0.417000       1.00800           0
     42617 TIP3     10901    TIP3     OH2      OT      -0.834000       15.9994           0
     42618 TIP3     10901    TIP3     H1       HT       0.417000       1.00800           0
     42619 TIP3     10901    TIP3     H2       HT       0.417000       1.00800           0
     42620 TIP3     10902    TIP3     OH2      OT      -0.834000       15.9994           0
     42621 TIP3     10902    TIP3     H1       HT       0.417000       1.00800           0
     42622 TIP3     10902    TIP3     H2       HT       0.417000       1.00800           0
     42623 TIP3     10903    TIP3     OH2      OT      -0.834000       15.9994           0
     42624 TIP3     10903    TIP3     H1       HT       0.417000       1.00800           0
     42625 TIP3     10903    TIP3     H2       HT       0.417000       1.00800           0
     42626 TIP3     10904    TIP3     OH2      OT      -0.834000       15.9994           0
     42627 TIP3     10904    TIP3     H1       HT       0.417000       1.00800           0
     42628 TIP3     10904    TIP3     H2       HT       0.417000       1.00800           0
     42629 TIP3     10905    TIP3     OH2      OT      -0.834000       15.9994           0
     42630 TIP3     10905    TIP3     H1       HT       0.417000       1.00800           0
     42631 TIP3     10905    TIP3     H2       HT       0.417000       1.00800           0
     42632 TIP3     10906    TIP3     OH2      OT      -0.834000       15.9994           0
     42633 TIP3     10906    TIP3     H1       HT       0.417000       1.00800           0
     42634 TIP3     10906    TIP3     H2       HT       0.417000       1.00800           0
     42635 TIP3     10907    TIP3     OH2      OT      -0.834000       15.9994           0
     42636 TIP3     10907    TIP3     H1       HT       0.417000       1.00800           0
     42637 TIP3     10907    TIP3     H2       HT       0.417000       1.00800           0
     42638 TIP3     10908    TIP3     OH2      OT      -0.834000       15.9994           0
     42639 TIP3     10908    TIP3     H1       HT       0.417000       1.00800           0
     42640 TIP3     10908    TIP3     H2       HT       0.417000       1.00800           0
     42641 TIP3     10909    TIP3     OH2      OT      -0.834000       15.9994           0
     42642 TIP3     10909    TIP3     H1       HT       0.417000       1.00800           0
     42643 TIP3     10909    TIP3     H2       HT       0.417000       1.00800           0
     42644 TIP3     10910    TIP3     OH2      OT      -0.834000       15.9994           0
     42645 TIP3     10910    TIP3     H1       HT       0.417000       1.00800           0
     42646 TIP3     10910    TIP3     H2       HT       0.417000       1.00800           0
     42647 TIP3     10911    TIP3     OH2      OT      -0.834000       15.9994           0
     42648 TIP3     10911    TIP3     H1       HT       0.417000       1.00800           0
     42649 TIP3     10911    TIP3     H2       HT       0.417000       1.00800           0
     42650 TIP3     10912    TIP3     OH2      OT      -0.834000       15.9994           0
     42651 TIP3     10912    TIP3     H1       HT       0.417000       1.00800           0
     42652 TIP3     10912    TIP3     H2       HT       0.417000       1.00800           0
     42653 TIP3     10913    TIP3     OH2      OT      -0.834000       15.9994           0
     42654 TIP3     10913    TIP3     H1       HT       0.417000       1.00800           0
     42655 TIP3     10913    TIP3     H2       HT       0.417000       1.00800           0
     42656 TIP3     10914    TIP3     OH2      OT      -0.834000       15.9994           0
     42657 TIP3     10914    TIP3     H1       HT       0.417000       1.00800           0
     42658 TIP3     10914    TIP3     H2       HT       0.417000       1.00800           0
     42659 TIP3     10915    TIP3     OH2      OT      -0.834000       15.9994           0
     42660 TIP3     10915    TIP3     H1       HT       0.417000       1.00800           0
     42661 TIP3     10915    TIP3     H2       HT       0.417000       1.00800           0
     42662 TIP3     10916    TIP3     OH2      OT      -0.834000       15.9994           0
     42663 TIP3     10916    TIP3     H1       HT       0.417000       1.00800           0
     42664 TIP3     10916    TIP3     H2       HT       0.417000       1.00800           0
     42665 TIP3     10917    TIP3     OH2      OT      -0.834000       15.9994           0
     42666 TIP3     10917    TIP3     H1       HT       0.417000       1.00800           0
     42667 TIP3     10917    TIP3     H2       HT       0.417000       1.00800           0
     42668 TIP3     10918    TIP3     OH2      OT      -0.834000       15.9994           0
     42669 TIP3     10918    TIP3     H1       HT       0.417000       1.00800           0
     42670 TIP3     10918    TIP3     H2       HT       0.417000       1.00800           0
     42671 TIP3     10919    TIP3     OH2      OT      -0.834000       15.9994           0
     42672 TIP3     10919    TIP3     H1       HT       0.417000       1.00800           0
     42673 TIP3     10919    TIP3     H2       HT       0.417000       1.00800           0
     42674 TIP3     10920    TIP3     OH2      OT      -0.834000       15.9994           0
     42675 TIP3     10920    TIP3     H1       HT       0.417000       1.00800           0
     42676 TIP3     10920    TIP3     H2       HT       0.417000       1.00800           0
     42677 TIP3     10921    TIP3     OH2      OT      -0.834000       15.9994           0
     42678 TIP3     10921    TIP3     H1       HT       0.417000       1.00800           0
     42679 TIP3     10921    TIP3     H2       HT       0.417000       1.00800           0
     42680 TIP3     10922    TIP3     OH2      OT      -0.834000       15.9994           0
     42681 TIP3     10922    TIP3     H1       HT       0.417000       1.00800           0
     42682 TIP3     10922    TIP3     H2       HT       0.417000       1.00800           0
     42683 TIP3     10923    TIP3     OH2      OT      -0.834000       15.9994           0
     42684 TIP3     10923    TIP3     H1       HT       0.417000       1.00800           0
     42685 TIP3     10923    TIP3     H2       HT       0.417000       1.00800           0
     42686 TIP3     10924    TIP3     OH2      OT      -0.834000       15.9994           0
     42687 TIP3     10924    TIP3     H1       HT       0.417000       1.00800           0
     42688 TIP3     10924    TIP3     H2       HT       0.417000       1.00800           0
     42689 TIP3     10925    TIP3     OH2      OT      -0.834000       15.9994           0
     42690 TIP3     10925    TIP3     H1       HT       0.417000       1.00800           0
     42691 TIP3     10925    TIP3     H2       HT       0.417000       1.00800           0
     42692 TIP3     10926    TIP3     OH2      OT      -0.834000       15.9994           0
     42693 TIP3     10926    TIP3     H1       HT       0.417000       1.00800           0
     42694 TIP3     10926    TIP3     H2       HT       0.417000       1.00800           0
     42695 TIP3     10927    TIP3     OH2      OT      -0.834000       15.9994           0
     42696 TIP3     10927    TIP3     H1       HT       0.417000       1.00800           0
     42697 TIP3     10927    TIP3     H2       HT       0.417000       1.00800           0
     42698 TIP3     10928    TIP3     OH2      OT      -0.834000       15.9994           0
     42699 TIP3     10928    TIP3     H1       HT       0.417000       1.00800           0
     42700 TIP3     10928    TIP3     H2       HT       0.417000       1.00800           0
     42701 TIP3     10929    TIP3     OH2      OT      -0.834000       15.9994           0
     42702 TIP3     10929    TIP3     H1       HT       0.417000       1.00800           0
     42703 TIP3     10929    TIP3     H2       HT       0.417000       1.00800           0
     42704 TIP3     10930    TIP3     OH2      OT      -0.834000       15.9994           0
     42705 TIP3     10930    TIP3     H1       HT       0.417000       1.00800           0
     42706 TIP3     10930    TIP3     H2       HT       0.417000       1.00800           0
     42707 TIP3     10931    TIP3     OH2      OT      -0.834000       15.9994           0
     42708 TIP3     10931    TIP3     H1       HT       0.417000       1.00800           0
     42709 TIP3     10931    TIP3     H2       HT       0.417000       1.00800           0
     42710 TIP3     10932    TIP3     OH2      OT      -0.834000       15.9994           0
     42711 TIP3     10932    TIP3     H1       HT       0.417000       1.00800           0
     42712 TIP3     10932    TIP3     H2       HT       0.417000       1.00800           0
     42713 TIP3     10933    TIP3     OH2      OT      -0.834000       15.9994           0
     42714 TIP3     10933    TIP3     H1       HT       0.417000       1.00800           0
     42715 TIP3     10933    TIP3     H2       HT       0.417000       1.00800           0
     42716 TIP3     10934    TIP3     OH2      OT      -0.834000       15.9994           0
     42717 TIP3     10934    TIP3     H1       HT       0.417000       1.00800           0
     42718 TIP3     10934    TIP3     H2       HT       0.417000       1.00800           0
     42719 TIP3     10935    TIP3     OH2      OT      -0.834000       15.9994           0
     42720 TIP3     10935    TIP3     H1       HT       0.417000       1.00800           0
     42721 TIP3     10935    TIP3     H2       HT       0.417000       1.00800           0
     42722 TIP3     10936    TIP3     OH2      OT      -0.834000       15.9994           0
     42723 TIP3     10936    TIP3     H1       HT       0.417000       1.00800           0
     42724 TIP3     10936    TIP3     H2       HT       0.417000       1.00800           0
     42725 TIP3     10937    TIP3     OH2      OT      -0.834000       15.9994           0
     42726 TIP3     10937    TIP3     H1       HT       0.417000       1.00800           0
     42727 TIP3     10937    TIP3     H2       HT       0.417000       1.00800           0
     42728 TIP3     10938    TIP3     OH2      OT      -0.834000       15.9994           0
     42729 TIP3     10938    TIP3     H1       HT       0.417000       1.00800           0
     42730 TIP3     10938    TIP3     H2       HT       0.417000       1.00800           0
     42731 TIP3     10939    TIP3     OH2      OT      -0.834000       15.9994           0
     42732 TIP3     10939    TIP3     H1       HT       0.417000       1.00800           0
     42733 TIP3     10939    TIP3     H2       HT       0.417000       1.00800           0
     42734 TIP3     10940    TIP3     OH2      OT      -0.834000       15.9994           0
     42735 TIP3     10940    TIP3     H1       HT       0.417000       1.00800           0
     42736 TIP3     10940    TIP3     H2       HT       0.417000       1.00800           0
     42737 TIP3     10941    TIP3     OH2      OT      -0.834000       15.9994           0
     42738 TIP3     10941    TIP3     H1       HT       0.417000       1.00800           0
     42739 TIP3     10941    TIP3     H2       HT       0.417000       1.00800           0
     42740 TIP3     10942    TIP3     OH2      OT      -0.834000       15.9994           0
     42741 TIP3     10942    TIP3     H1       HT       0.417000       1.00800           0
     42742 TIP3     10942    TIP3     H2       HT       0.417000       1.00800           0
     42743 TIP3     10943    TIP3     OH2      OT      -0.834000       15.9994           0
     42744 TIP3     10943    TIP3     H1       HT       0.417000       1.00800           0
     42745 TIP3     10943    TIP3     H2       HT       0.417000       1.00800           0
     42746 TIP3     10944    TIP3     OH2      OT      -0.834000       15.9994           0
     42747 TIP3     10944    TIP3     H1       HT       0.417000       1.00800           0
     42748 TIP3     10944    TIP3     H2       HT       0.417000       1.00800           0
     42749 TIP3     10945    TIP3     OH2      OT      -0.834000       15.9994           0
     42750 TIP3     10945    TIP3     H1       HT       0.417000       1.00800           0
     42751 TIP3     10945    TIP3     H2       HT       0.417000       1.00800           0
     42752 TIP3     10946    TIP3     OH2      OT      -0.834000       15.9994           0
     42753 TIP3     10946    TIP3     H1       HT       0.417000       1.00800           0
     42754 TIP3     10946    TIP3     H2       HT       0.417000       1.00800           0
     42755 TIP3     10947    TIP3     OH2      OT      -0.834000       15.9994           0
     42756 TIP3     10947    TIP3     H1       HT       0.417000       1.00800           0
     42757 TIP3     10947    TIP3     H2       HT       0.417000       1.00800           0
     42758 TIP3     10948    TIP3     OH2      OT      -0.834000       15.9994           0
     42759 TIP3     10948    TIP3     H1       HT       0.417000       1.00800           0
     42760 TIP3     10948    TIP3     H2       HT       0.417000       1.00800           0
     42761 TIP3     10949    TIP3     OH2      OT      -0.834000       15.9994           0
     42762 TIP3     10949    TIP3     H1       HT       0.417000       1.00800           0
     42763 TIP3     10949    TIP3     H2       HT       0.417000       1.00800           0
     42764 TIP3     10950    TIP3     OH2      OT      -0.834000       15.9994           0
     42765 TIP3     10950    TIP3     H1       HT       0.417000       1.00800           0
     42766 TIP3     10950    TIP3     H2       HT       0.417000       1.00800           0
     42767 TIP3     10951    TIP3     OH2      OT      -0.834000       15.9994           0
     42768 TIP3     10951    TIP3     H1       HT       0.417000       1.00800           0
     42769 TIP3     10951    TIP3     H2       HT       0.417000       1.00800           0
     42770 TIP3     10952    TIP3     OH2      OT      -0.834000       15.9994           0
     42771 TIP3     10952    TIP3     H1       HT       0.417000       1.00800           0
     42772 TIP3     10952    TIP3     H2       HT       0.417000       1.00800           0
     42773 TIP3     10953    TIP3     OH2      OT      -0.834000       15.9994           0
     42774 TIP3     10953    TIP3     H1       HT       0.417000       1.00800           0
     42775 TIP3     10953    TIP3     H2       HT       0.417000       1.00800           0
     42776 TIP3     10954    TIP3     OH2      OT      -0.834000       15.9994           0
     42777 TIP3     10954    TIP3     H1       HT       0.417000       1.00800           0
     42778 TIP3     10954    TIP3     H2       HT       0.417000       1.00800           0
     42779 TIP3     10955    TIP3     OH2      OT      -0.834000       15.9994           0
     42780 TIP3     10955    TIP3     H1       HT       0.417000       1.00800           0
     42781 TIP3     10955    TIP3     H2       HT       0.417000       1.00800           0
     42782 TIP3     10956    TIP3     OH2      OT      -0.834000       15.9994           0
     42783 TIP3     10956    TIP3     H1       HT       0.417000       1.00800           0
     42784 TIP3     10956    TIP3     H2       HT       0.417000       1.00800           0
     42785 TIP3     10957    TIP3     OH2      OT      -0.834000       15.9994           0
     42786 TIP3     10957    TIP3     H1       HT       0.417000       1.00800           0
     42787 TIP3     10957    TIP3     H2       HT       0.417000       1.00800           0
     42788 TIP3     10958    TIP3     OH2      OT      -0.834000       15.9994           0
     42789 TIP3     10958    TIP3     H1       HT       0.417000       1.00800           0
     42790 TIP3     10958    TIP3     H2       HT       0.417000       1.00800           0
     42791 TIP3     10959    TIP3     OH2      OT      -0.834000       15.9994           0
     42792 TIP3     10959    TIP3     H1       HT       0.417000       1.00800           0
     42793 TIP3     10959    TIP3     H2       HT       0.417000       1.00800           0
     42794 TIP3     10960    TIP3     OH2      OT      -0.834000       15.9994           0
     42795 TIP3     10960    TIP3     H1       HT       0.417000       1.00800           0
     42796 TIP3     10960    TIP3     H2       HT       0.417000       1.00800           0
     42797 TIP3     10961    TIP3     OH2      OT      -0.834000       15.9994           0
     42798 TIP3     10961    TIP3     H1       HT       0.417000       1.00800           0
     42799 TIP3     10961    TIP3     H2       HT       0.417000       1.00800           0
     42800 TIP3     10962    TIP3     OH2      OT      -0.834000       15.9994           0
     42801 TIP3     10962    TIP3     H1       HT       0.417000       1.00800           0
     42802 TIP3     10962    TIP3     H2       HT       0.417000       1.00800           0
     42803 TIP3     10963    TIP3     OH2      OT      -0.834000       15.9994           0
     42804 TIP3     10963    TIP3     H1       HT       0.417000       1.00800           0
     42805 TIP3     10963    TIP3     H2       HT       0.417000       1.00800           0
     42806 TIP3     10964    TIP3     OH2      OT      -0.834000       15.9994           0
     42807 TIP3     10964    TIP3     H1       HT       0.417000       1.00800           0
     42808 TIP3     10964    TIP3     H2       HT       0.417000       1.00800           0
     42809 TIP3     10965    TIP3     OH2      OT      -0.834000       15.9994           0
     42810 TIP3     10965    TIP3     H1       HT       0.417000       1.00800           0
     42811 TIP3     10965    TIP3     H2       HT       0.417000       1.00800           0
     42812 TIP3     10966    TIP3     OH2      OT      -0.834000       15.9994           0
     42813 TIP3     10966    TIP3     H1       HT       0.417000       1.00800           0
     42814 TIP3     10966    TIP3     H2       HT       0.417000       1.00800           0
     42815 TIP3     10967    TIP3     OH2      OT      -0.834000       15.9994           0
     42816 TIP3     10967    TIP3     H1       HT       0.417000       1.00800           0
     42817 TIP3     10967    TIP3     H2       HT       0.417000       1.00800           0
     42818 TIP3     10968    TIP3     OH2      OT      -0.834000       15.9994           0
     42819 TIP3     10968    TIP3     H1       HT       0.417000       1.00800           0
     42820 TIP3     10968    TIP3     H2       HT       0.417000       1.00800           0
     42821 TIP3     10969    TIP3     OH2      OT      -0.834000       15.9994           0
     42822 TIP3     10969    TIP3     H1       HT       0.417000       1.00800           0
     42823 TIP3     10969    TIP3     H2       HT       0.417000       1.00800           0
     42824 TIP3     10970    TIP3     OH2      OT      -0.834000       15.9994           0
     42825 TIP3     10970    TIP3     H1       HT       0.417000       1.00800           0
     42826 TIP3     10970    TIP3     H2       HT       0.417000       1.00800           0
     42827 TIP3     10971    TIP3     OH2      OT      -0.834000       15.9994           0
     42828 TIP3     10971    TIP3     H1       HT       0.417000       1.00800           0
     42829 TIP3     10971    TIP3     H2       HT       0.417000       1.00800           0
     42830 TIP3     10972    TIP3     OH2      OT      -0.834000       15.9994           0
     42831 TIP3     10972    TIP3     H1       HT       0.417000       1.00800           0
     42832 TIP3     10972    TIP3     H2       HT       0.417000       1.00800           0
     42833 TIP3     10973    TIP3     OH2      OT      -0.834000       15.9994           0
     42834 TIP3     10973    TIP3     H1       HT       0.417000       1.00800           0
     42835 TIP3     10973    TIP3     H2       HT       0.417000       1.00800           0
     42836 TIP3     10974    TIP3     OH2      OT      -0.834000       15.9994           0
     42837 TIP3     10974    TIP3     H1       HT       0.417000       1.00800           0
     42838 TIP3     10974    TIP3     H2       HT       0.417000       1.00800           0
     42839 TIP3     10975    TIP3     OH2      OT      -0.834000       15.9994           0
     42840 TIP3     10975    TIP3     H1       HT       0.417000       1.00800           0
     42841 TIP3     10975    TIP3     H2       HT       0.417000       1.00800           0
     42842 TIP3     10976    TIP3     OH2      OT      -0.834000       15.9994           0
     42843 TIP3     10976    TIP3     H1       HT       0.417000       1.00800           0
     42844 TIP3     10976    TIP3     H2       HT       0.417000       1.00800           0
     42845 TIP3     10977    TIP3     OH2      OT      -0.834000       15.9994           0
     42846 TIP3     10977    TIP3     H1       HT       0.417000       1.00800           0
     42847 TIP3     10977    TIP3     H2       HT       0.417000       1.00800           0
     42848 TIP3     10978    TIP3     OH2      OT      -0.834000       15.9994           0
     42849 TIP3     10978    TIP3     H1       HT       0.417000       1.00800           0
     42850 TIP3     10978    TIP3     H2       HT       0.417000       1.00800           0
     42851 TIP3     10979    TIP3     OH2      OT      -0.834000       15.9994           0
     42852 TIP3     10979    TIP3     H1       HT       0.417000       1.00800           0
     42853 TIP3     10979    TIP3     H2       HT       0.417000       1.00800           0
     42854 TIP3     10980    TIP3     OH2      OT      -0.834000       15.9994           0
     42855 TIP3     10980    TIP3     H1       HT       0.417000       1.00800           0
     42856 TIP3     10980    TIP3     H2       HT       0.417000       1.00800           0
     42857 TIP3     10981    TIP3     OH2      OT      -0.834000       15.9994           0
     42858 TIP3     10981    TIP3     H1       HT       0.417000       1.00800           0
     42859 TIP3     10981    TIP3     H2       HT       0.417000       1.00800           0
     42860 TIP3     10982    TIP3     OH2      OT      -0.834000       15.9994           0
     42861 TIP3     10982    TIP3     H1       HT       0.417000       1.00800           0
     42862 TIP3     10982    TIP3     H2       HT       0.417000       1.00800           0
     42863 TIP3     10983    TIP3     OH2      OT      -0.834000       15.9994           0
     42864 TIP3     10983    TIP3     H1       HT       0.417000       1.00800           0
     42865 TIP3     10983    TIP3     H2       HT       0.417000       1.00800           0
     42866 TIP3     10984    TIP3     OH2      OT      -0.834000       15.9994           0
     42867 TIP3     10984    TIP3     H1       HT       0.417000       1.00800           0
     42868 TIP3     10984    TIP3     H2       HT       0.417000       1.00800           0
     42869 TIP3     10985    TIP3     OH2      OT      -0.834000       15.9994           0
     42870 TIP3     10985    TIP3     H1       HT       0.417000       1.00800           0
     42871 TIP3     10985    TIP3     H2       HT       0.417000       1.00800           0
     42872 TIP3     10986    TIP3     OH2      OT      -0.834000       15.9994           0
     42873 TIP3     10986    TIP3     H1       HT       0.417000       1.00800           0
     42874 TIP3     10986    TIP3     H2       HT       0.417000       1.00800           0
     42875 TIP3     10987    TIP3     OH2      OT      -0.834000       15.9994           0
     42876 TIP3     10987    TIP3     H1       HT       0.417000       1.00800           0
     42877 TIP3     10987    TIP3     H2       HT       0.417000       1.00800           0
     42878 TIP3     10988    TIP3     OH2      OT      -0.834000       15.9994           0
     42879 TIP3     10988    TIP3     H1       HT       0.417000       1.00800           0
     42880 TIP3     10988    TIP3     H2       HT       0.417000       1.00800           0
     42881 TIP3     10989    TIP3     OH2      OT      -0.834000       15.9994           0
     42882 TIP3     10989    TIP3     H1       HT       0.417000       1.00800           0
     42883 TIP3     10989    TIP3     H2       HT       0.417000       1.00800           0
     42884 TIP3     10990    TIP3     OH2      OT      -0.834000       15.9994           0
     42885 TIP3     10990    TIP3     H1       HT       0.417000       1.00800           0
     42886 TIP3     10990    TIP3     H2       HT       0.417000       1.00800           0
     42887 TIP3     10991    TIP3     OH2      OT      -0.834000       15.9994           0
     42888 TIP3     10991    TIP3     H1       HT       0.417000       1.00800           0
     42889 TIP3     10991    TIP3     H2       HT       0.417000       1.00800           0
     42890 TIP3     10992    TIP3     OH2      OT      -0.834000       15.9994           0
     42891 TIP3     10992    TIP3     H1       HT       0.417000       1.00800           0
     42892 TIP3     10992    TIP3     H2       HT       0.417000       1.00800           0
     42893 TIP3     10993    TIP3     OH2      OT      -0.834000       15.9994           0
     42894 TIP3     10993    TIP3     H1       HT       0.417000       1.00800           0
     42895 TIP3     10993    TIP3     H2       HT       0.417000       1.00800           0
     42896 TIP3     10994    TIP3     OH2      OT      -0.834000       15.9994           0
     42897 TIP3     10994    TIP3     H1       HT       0.417000       1.00800           0
     42898 TIP3     10994    TIP3     H2       HT       0.417000       1.00800           0
     42899 TIP3     10995    TIP3     OH2      OT      -0.834000       15.9994           0
     42900 TIP3     10995    TIP3     H1       HT       0.417000       1.00800           0
     42901 TIP3     10995    TIP3     H2       HT       0.417000       1.00800           0
     42902 TIP3     10996    TIP3     OH2      OT      -0.834000       15.9994           0
     42903 TIP3     10996    TIP3     H1       HT       0.417000       1.00800           0
     42904 TIP3     10996    TIP3     H2       HT       0.417000       1.00800           0
     42905 TIP3     10997    TIP3     OH2      OT      -0.834000       15.9994           0
     42906 TIP3     10997    TIP3     H1       HT       0.417000       1.00800           0
     42907 TIP3     10997    TIP3     H2       HT       0.417000       1.00800           0
     42908 TIP3     10998    TIP3     OH2      OT      -0.834000       15.9994           0
     42909 TIP3     10998    TIP3     H1       HT       0.417000       1.00800           0
     42910 TIP3     10998    TIP3     H2       HT       0.417000       1.00800           0
     42911 TIP3     10999    TIP3     OH2      OT      -0.834000       15.9994           0
     42912 TIP3     10999    TIP3     H1       HT       0.417000       1.00800           0
     42913 TIP3     10999    TIP3     H2       HT       0.417000       1.00800           0
     42914 TIP3     11000    TIP3     OH2      OT      -0.834000       15.9994           0
     42915 TIP3     11000    TIP3     H1       HT       0.417000       1.00800           0
     42916 TIP3     11000    TIP3     H2       HT       0.417000       1.00800           0
     42917 TIP3     11001    TIP3     OH2      OT      -0.834000       15.9994           0
     42918 TIP3     11001    TIP3     H1       HT       0.417000       1.00800           0
     42919 TIP3     11001    TIP3     H2       HT       0.417000       1.00800           0
     42920 TIP3     11002    TIP3     OH2      OT      -0.834000       15.9994           0
     42921 TIP3     11002    TIP3     H1       HT       0.417000       1.00800           0
     42922 TIP3     11002    TIP3     H2       HT       0.417000       1.00800           0
     42923 TIP3     11003    TIP3     OH2      OT      -0.834000       15.9994           0
     42924 TIP3     11003    TIP3     H1       HT       0.417000       1.00800           0
     42925 TIP3     11003    TIP3     H2       HT       0.417000       1.00800           0
     42926 TIP3     11004    TIP3     OH2      OT      -0.834000       15.9994           0
     42927 TIP3     11004    TIP3     H1       HT       0.417000       1.00800           0
     42928 TIP3     11004    TIP3     H2       HT       0.417000       1.00800           0
     42929 TIP3     11005    TIP3     OH2      OT      -0.834000       15.9994           0
     42930 TIP3     11005    TIP3     H1       HT       0.417000       1.00800           0
     42931 TIP3     11005    TIP3     H2       HT       0.417000       1.00800           0
     42932 TIP3     11006    TIP3     OH2      OT      -0.834000       15.9994           0
     42933 TIP3     11006    TIP3     H1       HT       0.417000       1.00800           0
     42934 TIP3     11006    TIP3     H2       HT       0.417000       1.00800           0
     42935 TIP3     11007    TIP3     OH2      OT      -0.834000       15.9994           0
     42936 TIP3     11007    TIP3     H1       HT       0.417000       1.00800           0
     42937 TIP3     11007    TIP3     H2       HT       0.417000       1.00800           0
     42938 TIP3     11008    TIP3     OH2      OT      -0.834000       15.9994           0
     42939 TIP3     11008    TIP3     H1       HT       0.417000       1.00800           0
     42940 TIP3     11008    TIP3     H2       HT       0.417000       1.00800           0
     42941 TIP3     11009    TIP3     OH2      OT      -0.834000       15.9994           0
     42942 TIP3     11009    TIP3     H1       HT       0.417000       1.00800           0
     42943 TIP3     11009    TIP3     H2       HT       0.417000       1.00800           0
     42944 TIP3     11010    TIP3     OH2      OT      -0.834000       15.9994           0
     42945 TIP3     11010    TIP3     H1       HT       0.417000       1.00800           0
     42946 TIP3     11010    TIP3     H2       HT       0.417000       1.00800           0
     42947 TIP3     11011    TIP3     OH2      OT      -0.834000       15.9994           0
     42948 TIP3     11011    TIP3     H1       HT       0.417000       1.00800           0
     42949 TIP3     11011    TIP3     H2       HT       0.417000       1.00800           0
     42950 TIP3     11012    TIP3     OH2      OT      -0.834000       15.9994           0
     42951 TIP3     11012    TIP3     H1       HT       0.417000       1.00800           0
     42952 TIP3     11012    TIP3     H2       HT       0.417000       1.00800           0
     42953 TIP3     11013    TIP3     OH2      OT      -0.834000       15.9994           0
     42954 TIP3     11013    TIP3     H1       HT       0.417000       1.00800           0
     42955 TIP3     11013    TIP3     H2       HT       0.417000       1.00800           0
     42956 TIP3     11014    TIP3     OH2      OT      -0.834000       15.9994           0
     42957 TIP3     11014    TIP3     H1       HT       0.417000       1.00800           0
     42958 TIP3     11014    TIP3     H2       HT       0.417000       1.00800           0
     42959 TIP3     11015    TIP3     OH2      OT      -0.834000       15.9994           0
     42960 TIP3     11015    TIP3     H1       HT       0.417000       1.00800           0
     42961 TIP3     11015    TIP3     H2       HT       0.417000       1.00800           0
     42962 TIP3     11016    TIP3     OH2      OT      -0.834000       15.9994           0
     42963 TIP3     11016    TIP3     H1       HT       0.417000       1.00800           0
     42964 TIP3     11016    TIP3     H2       HT       0.417000       1.00800           0
     42965 TIP3     11017    TIP3     OH2      OT      -0.834000       15.9994           0
     42966 TIP3     11017    TIP3     H1       HT       0.417000       1.00800           0
     42967 TIP3     11017    TIP3     H2       HT       0.417000       1.00800           0
     42968 TIP3     11018    TIP3     OH2      OT      -0.834000       15.9994           0
     42969 TIP3     11018    TIP3     H1       HT       0.417000       1.00800           0
     42970 TIP3     11018    TIP3     H2       HT       0.417000       1.00800           0
     42971 TIP3     11019    TIP3     OH2      OT      -0.834000       15.9994           0
     42972 TIP3     11019    TIP3     H1       HT       0.417000       1.00800           0
     42973 TIP3     11019    TIP3     H2       HT       0.417000       1.00800           0
     42974 TIP3     11020    TIP3     OH2      OT      -0.834000       15.9994           0
     42975 TIP3     11020    TIP3     H1       HT       0.417000       1.00800           0
     42976 TIP3     11020    TIP3     H2       HT       0.417000       1.00800           0
     42977 TIP3     11021    TIP3     OH2      OT      -0.834000       15.9994           0
     42978 TIP3     11021    TIP3     H1       HT       0.417000       1.00800           0
     42979 TIP3     11021    TIP3     H2       HT       0.417000       1.00800           0
     42980 TIP3     11022    TIP3     OH2      OT      -0.834000       15.9994           0
     42981 TIP3     11022    TIP3     H1       HT       0.417000       1.00800           0
     42982 TIP3     11022    TIP3     H2       HT       0.417000       1.00800           0
     42983 TIP3     11023    TIP3     OH2      OT      -0.834000       15.9994           0
     42984 TIP3     11023    TIP3     H1       HT       0.417000       1.00800           0
     42985 TIP3     11023    TIP3     H2       HT       0.417000       1.00800           0
     42986 TIP3     11024    TIP3     OH2      OT      -0.834000       15.9994           0
     42987 TIP3     11024    TIP3     H1       HT       0.417000       1.00800           0
     42988 TIP3     11024    TIP3     H2       HT       0.417000       1.00800           0
     42989 TIP3     11025    TIP3     OH2      OT      -0.834000       15.9994           0
     42990 TIP3     11025    TIP3     H1       HT       0.417000       1.00800           0
     42991 TIP3     11025    TIP3     H2       HT       0.417000       1.00800           0
     42992 TIP3     11026    TIP3     OH2      OT      -0.834000       15.9994           0
     42993 TIP3     11026    TIP3     H1       HT       0.417000       1.00800           0
     42994 TIP3     11026    TIP3     H2       HT       0.417000       1.00800           0
     42995 TIP3     11027    TIP3     OH2      OT      -0.834000       15.9994           0
     42996 TIP3     11027    TIP3     H1       HT       0.417000       1.00800           0
     42997 TIP3     11027    TIP3     H2       HT       0.417000       1.00800           0
     42998 TIP3     11028    TIP3     OH2      OT      -0.834000       15.9994           0
     42999 TIP3     11028    TIP3     H1       HT       0.417000       1.00800           0
     43000 TIP3     11028    TIP3     H2       HT       0.417000       1.00800           0
     43001 TIP3     11029    TIP3     OH2      OT      -0.834000       15.9994           0
     43002 TIP3     11029    TIP3     H1       HT       0.417000       1.00800           0
     43003 TIP3     11029    TIP3     H2       HT       0.417000       1.00800           0
     43004 TIP3     11030    TIP3     OH2      OT      -0.834000       15.9994           0
     43005 TIP3     11030    TIP3     H1       HT       0.417000       1.00800           0
     43006 TIP3     11030    TIP3     H2       HT       0.417000       1.00800           0
     43007 TIP3     11031    TIP3     OH2      OT      -0.834000       15.9994           0
     43008 TIP3     11031    TIP3     H1       HT       0.417000       1.00800           0
     43009 TIP3     11031    TIP3     H2       HT       0.417000       1.00800           0
     43010 TIP3     11032    TIP3     OH2      OT      -0.834000       15.9994           0
     43011 TIP3     11032    TIP3     H1       HT       0.417000       1.00800           0
     43012 TIP3     11032    TIP3     H2       HT       0.417000       1.00800           0
     43013 TIP3     11033    TIP3     OH2      OT      -0.834000       15.9994           0
     43014 TIP3     11033    TIP3     H1       HT       0.417000       1.00800           0
     43015 TIP3     11033    TIP3     H2       HT       0.417000       1.00800           0
     43016 TIP3     11034    TIP3     OH2      OT      -0.834000       15.9994           0
     43017 TIP3     11034    TIP3     H1       HT       0.417000       1.00800           0
     43018 TIP3     11034    TIP3     H2       HT       0.417000       1.00800           0
     43019 TIP3     11035    TIP3     OH2      OT      -0.834000       15.9994           0
     43020 TIP3     11035    TIP3     H1       HT       0.417000       1.00800           0
     43021 TIP3     11035    TIP3     H2       HT       0.417000       1.00800           0
     43022 TIP3     11036    TIP3     OH2      OT      -0.834000       15.9994           0
     43023 TIP3     11036    TIP3     H1       HT       0.417000       1.00800           0
     43024 TIP3     11036    TIP3     H2       HT       0.417000       1.00800           0
     43025 TIP3     11037    TIP3     OH2      OT      -0.834000       15.9994           0
     43026 TIP3     11037    TIP3     H1       HT       0.417000       1.00800           0
     43027 TIP3     11037    TIP3     H2       HT       0.417000       1.00800           0
     43028 TIP3     11038    TIP3     OH2      OT      -0.834000       15.9994           0
     43029 TIP3     11038    TIP3     H1       HT       0.417000       1.00800           0
     43030 TIP3     11038    TIP3     H2       HT       0.417000       1.00800           0
     43031 TIP3     11039    TIP3     OH2      OT      -0.834000       15.9994           0
     43032 TIP3     11039    TIP3     H1       HT       0.417000       1.00800           0
     43033 TIP3     11039    TIP3     H2       HT       0.417000       1.00800           0
     43034 TIP3     11040    TIP3     OH2      OT      -0.834000       15.9994           0
     43035 TIP3     11040    TIP3     H1       HT       0.417000       1.00800           0
     43036 TIP3     11040    TIP3     H2       HT       0.417000       1.00800           0
     43037 TIP3     11041    TIP3     OH2      OT      -0.834000       15.9994           0
     43038 TIP3     11041    TIP3     H1       HT       0.417000       1.00800           0
     43039 TIP3     11041    TIP3     H2       HT       0.417000       1.00800           0
     43040 TIP3     11042    TIP3     OH2      OT      -0.834000       15.9994           0
     43041 TIP3     11042    TIP3     H1       HT       0.417000       1.00800           0
     43042 TIP3     11042    TIP3     H2       HT       0.417000       1.00800           0
     43043 TIP3     11043    TIP3     OH2      OT      -0.834000       15.9994           0
     43044 TIP3     11043    TIP3     H1       HT       0.417000       1.00800           0
     43045 TIP3     11043    TIP3     H2       HT       0.417000       1.00800           0
     43046 TIP3     11044    TIP3     OH2      OT      -0.834000       15.9994           0
     43047 TIP3     11044    TIP3     H1       HT       0.417000       1.00800           0
     43048 TIP3     11044    TIP3     H2       HT       0.417000       1.00800           0
     43049 TIP3     11045    TIP3     OH2      OT      -0.834000       15.9994           0
     43050 TIP3     11045    TIP3     H1       HT       0.417000       1.00800           0
     43051 TIP3     11045    TIP3     H2       HT       0.417000       1.00800           0
     43052 TIP3     11046    TIP3     OH2      OT      -0.834000       15.9994           0
     43053 TIP3     11046    TIP3     H1       HT       0.417000       1.00800           0
     43054 TIP3     11046    TIP3     H2       HT       0.417000       1.00800           0
     43055 TIP3     11047    TIP3     OH2      OT      -0.834000       15.9994           0
     43056 TIP3     11047    TIP3     H1       HT       0.417000       1.00800           0
     43057 TIP3     11047    TIP3     H2       HT       0.417000       1.00800           0
     43058 TIP3     11048    TIP3     OH2      OT      -0.834000       15.9994           0
     43059 TIP3     11048    TIP3     H1       HT       0.417000       1.00800           0
     43060 TIP3     11048    TIP3     H2       HT       0.417000       1.00800           0
     43061 TIP3     11049    TIP3     OH2      OT      -0.834000       15.9994           0
     43062 TIP3     11049    TIP3     H1       HT       0.417000       1.00800           0
     43063 TIP3     11049    TIP3     H2       HT       0.417000       1.00800           0
     43064 TIP3     11050    TIP3     OH2      OT      -0.834000       15.9994           0
     43065 TIP3     11050    TIP3     H1       HT       0.417000       1.00800           0
     43066 TIP3     11050    TIP3     H2       HT       0.417000       1.00800           0
     43067 TIP3     11051    TIP3     OH2      OT      -0.834000       15.9994           0
     43068 TIP3     11051    TIP3     H1       HT       0.417000       1.00800           0
     43069 TIP3     11051    TIP3     H2       HT       0.417000       1.00800           0
     43070 TIP3     11052    TIP3     OH2      OT      -0.834000       15.9994           0
     43071 TIP3     11052    TIP3     H1       HT       0.417000       1.00800           0
     43072 TIP3     11052    TIP3     H2       HT       0.417000       1.00800           0
     43073 TIP3     11053    TIP3     OH2      OT      -0.834000       15.9994           0
     43074 TIP3     11053    TIP3     H1       HT       0.417000       1.00800           0
     43075 TIP3     11053    TIP3     H2       HT       0.417000       1.00800           0
     43076 TIP3     11054    TIP3     OH2      OT      -0.834000       15.9994           0
     43077 TIP3     11054    TIP3     H1       HT       0.417000       1.00800           0
     43078 TIP3     11054    TIP3     H2       HT       0.417000       1.00800           0
     43079 TIP3     11055    TIP3     OH2      OT      -0.834000       15.9994           0
     43080 TIP3     11055    TIP3     H1       HT       0.417000       1.00800           0
     43081 TIP3     11055    TIP3     H2       HT       0.417000       1.00800           0
     43082 TIP3     11056    TIP3     OH2      OT      -0.834000       15.9994           0
     43083 TIP3     11056    TIP3     H1       HT       0.417000       1.00800           0
     43084 TIP3     11056    TIP3     H2       HT       0.417000       1.00800           0
     43085 TIP3     11057    TIP3     OH2      OT      -0.834000       15.9994           0
     43086 TIP3     11057    TIP3     H1       HT       0.417000       1.00800           0
     43087 TIP3     11057    TIP3     H2       HT       0.417000       1.00800           0
     43088 TIP3     11058    TIP3     OH2      OT      -0.834000       15.9994           0
     43089 TIP3     11058    TIP3     H1       HT       0.417000       1.00800           0
     43090 TIP3     11058    TIP3     H2       HT       0.417000       1.00800           0
     43091 TIP3     11059    TIP3     OH2      OT      -0.834000       15.9994           0
     43092 TIP3     11059    TIP3     H1       HT       0.417000       1.00800           0
     43093 TIP3     11059    TIP3     H2       HT       0.417000       1.00800           0
     43094 TIP3     11060    TIP3     OH2      OT      -0.834000       15.9994           0
     43095 TIP3     11060    TIP3     H1       HT       0.417000       1.00800           0
     43096 TIP3     11060    TIP3     H2       HT       0.417000       1.00800           0
     43097 TIP3     11061    TIP3     OH2      OT      -0.834000       15.9994           0
     43098 TIP3     11061    TIP3     H1       HT       0.417000       1.00800           0
     43099 TIP3     11061    TIP3     H2       HT       0.417000       1.00800           0
     43100 TIP3     11062    TIP3     OH2      OT      -0.834000       15.9994           0
     43101 TIP3     11062    TIP3     H1       HT       0.417000       1.00800           0
     43102 TIP3     11062    TIP3     H2       HT       0.417000       1.00800           0
     43103 TIP3     11063    TIP3     OH2      OT      -0.834000       15.9994           0
     43104 TIP3     11063    TIP3     H1       HT       0.417000       1.00800           0
     43105 TIP3     11063    TIP3     H2       HT       0.417000       1.00800           0
     43106 TIP3     11064    TIP3     OH2      OT      -0.834000       15.9994           0
     43107 TIP3     11064    TIP3     H1       HT       0.417000       1.00800           0
     43108 TIP3     11064    TIP3     H2       HT       0.417000       1.00800           0
     43109 TIP3     11065    TIP3     OH2      OT      -0.834000       15.9994           0
     43110 TIP3     11065    TIP3     H1       HT       0.417000       1.00800           0
     43111 TIP3     11065    TIP3     H2       HT       0.417000       1.00800           0
     43112 TIP3     11066    TIP3     OH2      OT      -0.834000       15.9994           0
     43113 TIP3     11066    TIP3     H1       HT       0.417000       1.00800           0
     43114 TIP3     11066    TIP3     H2       HT       0.417000       1.00800           0
     43115 TIP3     11067    TIP3     OH2      OT      -0.834000       15.9994           0
     43116 TIP3     11067    TIP3     H1       HT       0.417000       1.00800           0
     43117 TIP3     11067    TIP3     H2       HT       0.417000       1.00800           0
     43118 TIP3     11068    TIP3     OH2      OT      -0.834000       15.9994           0
     43119 TIP3     11068    TIP3     H1       HT       0.417000       1.00800           0
     43120 TIP3     11068    TIP3     H2       HT       0.417000       1.00800           0
     43121 TIP3     11069    TIP3     OH2      OT      -0.834000       15.9994           0
     43122 TIP3     11069    TIP3     H1       HT       0.417000       1.00800           0
     43123 TIP3     11069    TIP3     H2       HT       0.417000       1.00800           0
     43124 TIP3     11070    TIP3     OH2      OT      -0.834000       15.9994           0
     43125 TIP3     11070    TIP3     H1       HT       0.417000       1.00800           0
     43126 TIP3     11070    TIP3     H2       HT       0.417000       1.00800           0
     43127 TIP3     11071    TIP3     OH2      OT      -0.834000       15.9994           0
     43128 TIP3     11071    TIP3     H1       HT       0.417000       1.00800           0
     43129 TIP3     11071    TIP3     H2       HT       0.417000       1.00800           0
     43130 TIP3     11072    TIP3     OH2      OT      -0.834000       15.9994           0
     43131 TIP3     11072    TIP3     H1       HT       0.417000       1.00800           0
     43132 TIP3     11072    TIP3     H2       HT       0.417000       1.00800           0
     43133 TIP3     11073    TIP3     OH2      OT      -0.834000       15.9994           0
     43134 TIP3     11073    TIP3     H1       HT       0.417000       1.00800           0
     43135 TIP3     11073    TIP3     H2       HT       0.417000       1.00800           0
     43136 TIP3     11074    TIP3     OH2      OT      -0.834000       15.9994           0
     43137 TIP3     11074    TIP3     H1       HT       0.417000       1.00800           0
     43138 TIP3     11074    TIP3     H2       HT       0.417000       1.00800           0
     43139 TIP3     11075    TIP3     OH2      OT      -0.834000       15.9994           0
     43140 TIP3     11075    TIP3     H1       HT       0.417000       1.00800           0
     43141 TIP3     11075    TIP3     H2       HT       0.417000       1.00800           0
     43142 TIP3     11076    TIP3     OH2      OT      -0.834000       15.9994           0
     43143 TIP3     11076    TIP3     H1       HT       0.417000       1.00800           0
     43144 TIP3     11076    TIP3     H2       HT       0.417000       1.00800           0
     43145 TIP3     11077    TIP3     OH2      OT      -0.834000       15.9994           0
     43146 TIP3     11077    TIP3     H1       HT       0.417000       1.00800           0
     43147 TIP3     11077    TIP3     H2       HT       0.417000       1.00800           0
     43148 TIP3     11078    TIP3     OH2      OT      -0.834000       15.9994           0
     43149 TIP3     11078    TIP3     H1       HT       0.417000       1.00800           0
     43150 TIP3     11078    TIP3     H2       HT       0.417000       1.00800           0
     43151 TIP3     11079    TIP3     OH2      OT      -0.834000       15.9994           0
     43152 TIP3     11079    TIP3     H1       HT       0.417000       1.00800           0
     43153 TIP3     11079    TIP3     H2       HT       0.417000       1.00800           0
     43154 TIP3     11080    TIP3     OH2      OT      -0.834000       15.9994           0
     43155 TIP3     11080    TIP3     H1       HT       0.417000       1.00800           0
     43156 TIP3     11080    TIP3     H2       HT       0.417000       1.00800           0
     43157 TIP3     11081    TIP3     OH2      OT      -0.834000       15.9994           0
     43158 TIP3     11081    TIP3     H1       HT       0.417000       1.00800           0
     43159 TIP3     11081    TIP3     H2       HT       0.417000       1.00800           0
     43160 TIP3     11082    TIP3     OH2      OT      -0.834000       15.9994           0
     43161 TIP3     11082    TIP3     H1       HT       0.417000       1.00800           0
     43162 TIP3     11082    TIP3     H2       HT       0.417000       1.00800           0
     43163 TIP3     11083    TIP3     OH2      OT      -0.834000       15.9994           0
     43164 TIP3     11083    TIP3     H1       HT       0.417000       1.00800           0
     43165 TIP3     11083    TIP3     H2       HT       0.417000       1.00800           0
     43166 TIP3     11084    TIP3     OH2      OT      -0.834000       15.9994           0
     43167 TIP3     11084    TIP3     H1       HT       0.417000       1.00800           0
     43168 TIP3     11084    TIP3     H2       HT       0.417000       1.00800           0
     43169 TIP3     11085    TIP3     OH2      OT      -0.834000       15.9994           0
     43170 TIP3     11085    TIP3     H1       HT       0.417000       1.00800           0
     43171 TIP3     11085    TIP3     H2       HT       0.417000       1.00800           0
     43172 TIP3     11086    TIP3     OH2      OT      -0.834000       15.9994           0
     43173 TIP3     11086    TIP3     H1       HT       0.417000       1.00800           0
     43174 TIP3     11086    TIP3     H2       HT       0.417000       1.00800           0
     43175 TIP3     11087    TIP3     OH2      OT      -0.834000       15.9994           0
     43176 TIP3     11087    TIP3     H1       HT       0.417000       1.00800           0
     43177 TIP3     11087    TIP3     H2       HT       0.417000       1.00800           0
     43178 TIP3     11088    TIP3     OH2      OT      -0.834000       15.9994           0
     43179 TIP3     11088    TIP3     H1       HT       0.417000       1.00800           0
     43180 TIP3     11088    TIP3     H2       HT       0.417000       1.00800           0
     43181 TIP3     11089    TIP3     OH2      OT      -0.834000       15.9994           0
     43182 TIP3     11089    TIP3     H1       HT       0.417000       1.00800           0
     43183 TIP3     11089    TIP3     H2       HT       0.417000       1.00800           0
     43184 TIP3     11090    TIP3     OH2      OT      -0.834000       15.9994           0
     43185 TIP3     11090    TIP3     H1       HT       0.417000       1.00800           0
     43186 TIP3     11090    TIP3     H2       HT       0.417000       1.00800           0
     43187 TIP3     11091    TIP3     OH2      OT      -0.834000       15.9994           0
     43188 TIP3     11091    TIP3     H1       HT       0.417000       1.00800           0
     43189 TIP3     11091    TIP3     H2       HT       0.417000       1.00800           0
     43190 TIP3     11092    TIP3     OH2      OT      -0.834000       15.9994           0
     43191 TIP3     11092    TIP3     H1       HT       0.417000       1.00800           0
     43192 TIP3     11092    TIP3     H2       HT       0.417000       1.00800           0
     43193 TIP3     11093    TIP3     OH2      OT      -0.834000       15.9994           0
     43194 TIP3     11093    TIP3     H1       HT       0.417000       1.00800           0
     43195 TIP3     11093    TIP3     H2       HT       0.417000       1.00800           0
     43196 TIP3     11094    TIP3     OH2      OT      -0.834000       15.9994           0
     43197 TIP3     11094    TIP3     H1       HT       0.417000       1.00800           0
     43198 TIP3     11094    TIP3     H2       HT       0.417000       1.00800           0
     43199 TIP3     11095    TIP3     OH2      OT      -0.834000       15.9994           0
     43200 TIP3     11095    TIP3     H1       HT       0.417000       1.00800           0
     43201 TIP3     11095    TIP3     H2       HT       0.417000       1.00800           0
     43202 TIP3     11096    TIP3     OH2      OT      -0.834000       15.9994           0
     43203 TIP3     11096    TIP3     H1       HT       0.417000       1.00800           0
     43204 TIP3     11096    TIP3     H2       HT       0.417000       1.00800           0
     43205 TIP3     11097    TIP3     OH2      OT      -0.834000       15.9994           0
     43206 TIP3     11097    TIP3     H1       HT       0.417000       1.00800           0
     43207 TIP3     11097    TIP3     H2       HT       0.417000       1.00800           0
     43208 TIP3     11098    TIP3     OH2      OT      -0.834000       15.9994           0
     43209 TIP3     11098    TIP3     H1       HT       0.417000       1.00800           0
     43210 TIP3     11098    TIP3     H2       HT       0.417000       1.00800           0
     43211 TIP3     11099    TIP3     OH2      OT      -0.834000       15.9994           0
     43212 TIP3     11099    TIP3     H1       HT       0.417000       1.00800           0
     43213 TIP3     11099    TIP3     H2       HT       0.417000       1.00800           0
     43214 TIP3     11100    TIP3     OH2      OT      -0.834000       15.9994           0
     43215 TIP3     11100    TIP3     H1       HT       0.417000       1.00800           0
     43216 TIP3     11100    TIP3     H2       HT       0.417000       1.00800           0
     43217 TIP3     11101    TIP3     OH2      OT      -0.834000       15.9994           0
     43218 TIP3     11101    TIP3     H1       HT       0.417000       1.00800           0
     43219 TIP3     11101    TIP3     H2       HT       0.417000       1.00800           0
     43220 TIP3     11102    TIP3     OH2      OT      -0.834000       15.9994           0
     43221 TIP3     11102    TIP3     H1       HT       0.417000       1.00800           0
     43222 TIP3     11102    TIP3     H2       HT       0.417000       1.00800           0
     43223 TIP3     11103    TIP3     OH2      OT      -0.834000       15.9994           0
     43224 TIP3     11103    TIP3     H1       HT       0.417000       1.00800           0
     43225 TIP3     11103    TIP3     H2       HT       0.417000       1.00800           0
     43226 TIP3     11104    TIP3     OH2      OT      -0.834000       15.9994           0
     43227 TIP3     11104    TIP3     H1       HT       0.417000       1.00800           0
     43228 TIP3     11104    TIP3     H2       HT       0.417000       1.00800           0
     43229 TIP3     11105    TIP3     OH2      OT      -0.834000       15.9994           0
     43230 TIP3     11105    TIP3     H1       HT       0.417000       1.00800           0
     43231 TIP3     11105    TIP3     H2       HT       0.417000       1.00800           0
     43232 TIP3     11106    TIP3     OH2      OT      -0.834000       15.9994           0
     43233 TIP3     11106    TIP3     H1       HT       0.417000       1.00800           0
     43234 TIP3     11106    TIP3     H2       HT       0.417000       1.00800           0
     43235 TIP3     11107    TIP3     OH2      OT      -0.834000       15.9994           0
     43236 TIP3     11107    TIP3     H1       HT       0.417000       1.00800           0
     43237 TIP3     11107    TIP3     H2       HT       0.417000       1.00800           0
     43238 TIP3     11108    TIP3     OH2      OT      -0.834000       15.9994           0
     43239 TIP3     11108    TIP3     H1       HT       0.417000       1.00800           0
     43240 TIP3     11108    TIP3     H2       HT       0.417000       1.00800           0
     43241 TIP3     11109    TIP3     OH2      OT      -0.834000       15.9994           0
     43242 TIP3     11109    TIP3     H1       HT       0.417000       1.00800           0
     43243 TIP3     11109    TIP3     H2       HT       0.417000       1.00800           0
     43244 TIP3     11110    TIP3     OH2      OT      -0.834000       15.9994           0
     43245 TIP3     11110    TIP3     H1       HT       0.417000       1.00800           0
     43246 TIP3     11110    TIP3     H2       HT       0.417000       1.00800           0
     43247 TIP3     11111    TIP3     OH2      OT      -0.834000       15.9994           0
     43248 TIP3     11111    TIP3     H1       HT       0.417000       1.00800           0
     43249 TIP3     11111    TIP3     H2       HT       0.417000       1.00800           0
     43250 TIP3     11112    TIP3     OH2      OT      -0.834000       15.9994           0
     43251 TIP3     11112    TIP3     H1       HT       0.417000       1.00800           0
     43252 TIP3     11112    TIP3     H2       HT       0.417000       1.00800           0
     43253 TIP3     11113    TIP3     OH2      OT      -0.834000       15.9994           0
     43254 TIP3     11113    TIP3     H1       HT       0.417000       1.00800           0
     43255 TIP3     11113    TIP3     H2       HT       0.417000       1.00800           0
     43256 TIP3     11114    TIP3     OH2      OT      -0.834000       15.9994           0
     43257 TIP3     11114    TIP3     H1       HT       0.417000       1.00800           0
     43258 TIP3     11114    TIP3     H2       HT       0.417000       1.00800           0
     43259 TIP3     11115    TIP3     OH2      OT      -0.834000       15.9994           0
     43260 TIP3     11115    TIP3     H1       HT       0.417000       1.00800           0
     43261 TIP3     11115    TIP3     H2       HT       0.417000       1.00800           0
     43262 TIP3     11116    TIP3     OH2      OT      -0.834000       15.9994           0
     43263 TIP3     11116    TIP3     H1       HT       0.417000       1.00800           0
     43264 TIP3     11116    TIP3     H2       HT       0.417000       1.00800           0
     43265 TIP3     11117    TIP3     OH2      OT      -0.834000       15.9994           0
     43266 TIP3     11117    TIP3     H1       HT       0.417000       1.00800           0
     43267 TIP3     11117    TIP3     H2       HT       0.417000       1.00800           0
     43268 TIP3     11118    TIP3     OH2      OT      -0.834000       15.9994           0
     43269 TIP3     11118    TIP3     H1       HT       0.417000       1.00800           0
     43270 TIP3     11118    TIP3     H2       HT       0.417000       1.00800           0
     43271 TIP3     11119    TIP3     OH2      OT      -0.834000       15.9994           0
     43272 TIP3     11119    TIP3     H1       HT       0.417000       1.00800           0
     43273 TIP3     11119    TIP3     H2       HT       0.417000       1.00800           0
     43274 TIP3     11120    TIP3     OH2      OT      -0.834000       15.9994           0
     43275 TIP3     11120    TIP3     H1       HT       0.417000       1.00800           0
     43276 TIP3     11120    TIP3     H2       HT       0.417000       1.00800           0
     43277 TIP3     11121    TIP3     OH2      OT      -0.834000       15.9994           0
     43278 TIP3     11121    TIP3     H1       HT       0.417000       1.00800           0
     43279 TIP3     11121    TIP3     H2       HT       0.417000       1.00800           0
     43280 TIP3     11122    TIP3     OH2      OT      -0.834000       15.9994           0
     43281 TIP3     11122    TIP3     H1       HT       0.417000       1.00800           0
     43282 TIP3     11122    TIP3     H2       HT       0.417000       1.00800           0
     43283 TIP3     11123    TIP3     OH2      OT      -0.834000       15.9994           0
     43284 TIP3     11123    TIP3     H1       HT       0.417000       1.00800           0
     43285 TIP3     11123    TIP3     H2       HT       0.417000       1.00800           0
     43286 TIP3     11124    TIP3     OH2      OT      -0.834000       15.9994           0
     43287 TIP3     11124    TIP3     H1       HT       0.417000       1.00800           0
     43288 TIP3     11124    TIP3     H2       HT       0.417000       1.00800           0
     43289 TIP3     11125    TIP3     OH2      OT      -0.834000       15.9994           0
     43290 TIP3     11125    TIP3     H1       HT       0.417000       1.00800           0
     43291 TIP3     11125    TIP3     H2       HT       0.417000       1.00800           0
     43292 TIP3     11126    TIP3     OH2      OT      -0.834000       15.9994           0
     43293 TIP3     11126    TIP3     H1       HT       0.417000       1.00800           0
     43294 TIP3     11126    TIP3     H2       HT       0.417000       1.00800           0
     43295 TIP3     11127    TIP3     OH2      OT      -0.834000       15.9994           0
     43296 TIP3     11127    TIP3     H1       HT       0.417000       1.00800           0
     43297 TIP3     11127    TIP3     H2       HT       0.417000       1.00800           0
     43298 TIP3     11128    TIP3     OH2      OT      -0.834000       15.9994           0
     43299 TIP3     11128    TIP3     H1       HT       0.417000       1.00800           0
     43300 TIP3     11128    TIP3     H2       HT       0.417000       1.00800           0
     43301 TIP3     11129    TIP3     OH2      OT      -0.834000       15.9994           0
     43302 TIP3     11129    TIP3     H1       HT       0.417000       1.00800           0
     43303 TIP3     11129    TIP3     H2       HT       0.417000       1.00800           0
     43304 TIP3     11130    TIP3     OH2      OT      -0.834000       15.9994           0
     43305 TIP3     11130    TIP3     H1       HT       0.417000       1.00800           0
     43306 TIP3     11130    TIP3     H2       HT       0.417000       1.00800           0
     43307 TIP3     11131    TIP3     OH2      OT      -0.834000       15.9994           0
     43308 TIP3     11131    TIP3     H1       HT       0.417000       1.00800           0
     43309 TIP3     11131    TIP3     H2       HT       0.417000       1.00800           0
     43310 TIP3     11132    TIP3     OH2      OT      -0.834000       15.9994           0
     43311 TIP3     11132    TIP3     H1       HT       0.417000       1.00800           0
     43312 TIP3     11132    TIP3     H2       HT       0.417000       1.00800           0
     43313 TIP3     11133    TIP3     OH2      OT      -0.834000       15.9994           0
     43314 TIP3     11133    TIP3     H1       HT       0.417000       1.00800           0
     43315 TIP3     11133    TIP3     H2       HT       0.417000       1.00800           0
     43316 TIP3     11134    TIP3     OH2      OT      -0.834000       15.9994           0
     43317 TIP3     11134    TIP3     H1       HT       0.417000       1.00800           0
     43318 TIP3     11134    TIP3     H2       HT       0.417000       1.00800           0
     43319 TIP3     11135    TIP3     OH2      OT      -0.834000       15.9994           0
     43320 TIP3     11135    TIP3     H1       HT       0.417000       1.00800           0
     43321 TIP3     11135    TIP3     H2       HT       0.417000       1.00800           0
     43322 TIP3     11136    TIP3     OH2      OT      -0.834000       15.9994           0
     43323 TIP3     11136    TIP3     H1       HT       0.417000       1.00800           0
     43324 TIP3     11136    TIP3     H2       HT       0.417000       1.00800           0
     43325 TIP3     11137    TIP3     OH2      OT      -0.834000       15.9994           0
     43326 TIP3     11137    TIP3     H1       HT       0.417000       1.00800           0
     43327 TIP3     11137    TIP3     H2       HT       0.417000       1.00800           0
     43328 TIP3     11138    TIP3     OH2      OT      -0.834000       15.9994           0
     43329 TIP3     11138    TIP3     H1       HT       0.417000       1.00800           0
     43330 TIP3     11138    TIP3     H2       HT       0.417000       1.00800           0
     43331 TIP3     11139    TIP3     OH2      OT      -0.834000       15.9994           0
     43332 TIP3     11139    TIP3     H1       HT       0.417000       1.00800           0
     43333 TIP3     11139    TIP3     H2       HT       0.417000       1.00800           0
     43334 TIP3     11140    TIP3     OH2      OT      -0.834000       15.9994           0
     43335 TIP3     11140    TIP3     H1       HT       0.417000       1.00800           0
     43336 TIP3     11140    TIP3     H2       HT       0.417000       1.00800           0
     43337 TIP3     11141    TIP3     OH2      OT      -0.834000       15.9994           0
     43338 TIP3     11141    TIP3     H1       HT       0.417000       1.00800           0
     43339 TIP3     11141    TIP3     H2       HT       0.417000       1.00800           0
     43340 TIP3     11142    TIP3     OH2      OT      -0.834000       15.9994           0
     43341 TIP3     11142    TIP3     H1       HT       0.417000       1.00800           0
     43342 TIP3     11142    TIP3     H2       HT       0.417000       1.00800           0
     43343 TIP3     11143    TIP3     OH2      OT      -0.834000       15.9994           0
     43344 TIP3     11143    TIP3     H1       HT       0.417000       1.00800           0
     43345 TIP3     11143    TIP3     H2       HT       0.417000       1.00800           0
     43346 TIP3     11144    TIP3     OH2      OT      -0.834000       15.9994           0
     43347 TIP3     11144    TIP3     H1       HT       0.417000       1.00800           0
     43348 TIP3     11144    TIP3     H2       HT       0.417000       1.00800           0
     43349 TIP3     11145    TIP3     OH2      OT      -0.834000       15.9994           0
     43350 TIP3     11145    TIP3     H1       HT       0.417000       1.00800           0
     43351 TIP3     11145    TIP3     H2       HT       0.417000       1.00800           0
     43352 TIP3     11146    TIP3     OH2      OT      -0.834000       15.9994           0
     43353 TIP3     11146    TIP3     H1       HT       0.417000       1.00800           0
     43354 TIP3     11146    TIP3     H2       HT       0.417000       1.00800           0
     43355 TIP3     11147    TIP3     OH2      OT      -0.834000       15.9994           0
     43356 TIP3     11147    TIP3     H1       HT       0.417000       1.00800           0
     43357 TIP3     11147    TIP3     H2       HT       0.417000       1.00800           0
     43358 TIP3     11148    TIP3     OH2      OT      -0.834000       15.9994           0
     43359 TIP3     11148    TIP3     H1       HT       0.417000       1.00800           0
     43360 TIP3     11148    TIP3     H2       HT       0.417000       1.00800           0
     43361 TIP3     11149    TIP3     OH2      OT      -0.834000       15.9994           0
     43362 TIP3     11149    TIP3     H1       HT       0.417000       1.00800           0
     43363 TIP3     11149    TIP3     H2       HT       0.417000       1.00800           0
     43364 TIP3     11150    TIP3     OH2      OT      -0.834000       15.9994           0
     43365 TIP3     11150    TIP3     H1       HT       0.417000       1.00800           0
     43366 TIP3     11150    TIP3     H2       HT       0.417000       1.00800           0
     43367 TIP3     11151    TIP3     OH2      OT      -0.834000       15.9994           0
     43368 TIP3     11151    TIP3     H1       HT       0.417000       1.00800           0
     43369 TIP3     11151    TIP3     H2       HT       0.417000       1.00800           0
     43370 TIP3     11152    TIP3     OH2      OT      -0.834000       15.9994           0
     43371 TIP3     11152    TIP3     H1       HT       0.417000       1.00800           0
     43372 TIP3     11152    TIP3     H2       HT       0.417000       1.00800           0
     43373 TIP3     11153    TIP3     OH2      OT      -0.834000       15.9994           0
     43374 TIP3     11153    TIP3     H1       HT       0.417000       1.00800           0
     43375 TIP3     11153    TIP3     H2       HT       0.417000       1.00800           0
     43376 TIP3     11154    TIP3     OH2      OT      -0.834000       15.9994           0
     43377 TIP3     11154    TIP3     H1       HT       0.417000       1.00800           0
     43378 TIP3     11154    TIP3     H2       HT       0.417000       1.00800           0
     43379 TIP3     11155    TIP3     OH2      OT      -0.834000       15.9994           0
     43380 TIP3     11155    TIP3     H1       HT       0.417000       1.00800           0
     43381 TIP3     11155    TIP3     H2       HT       0.417000       1.00800           0
     43382 TIP3     11156    TIP3     OH2      OT      -0.834000       15.9994           0
     43383 TIP3     11156    TIP3     H1       HT       0.417000       1.00800           0
     43384 TIP3     11156    TIP3     H2       HT       0.417000       1.00800           0
     43385 TIP3     11157    TIP3     OH2      OT      -0.834000       15.9994           0
     43386 TIP3     11157    TIP3     H1       HT       0.417000       1.00800           0
     43387 TIP3     11157    TIP3     H2       HT       0.417000       1.00800           0
     43388 TIP3     11158    TIP3     OH2      OT      -0.834000       15.9994           0
     43389 TIP3     11158    TIP3     H1       HT       0.417000       1.00800           0
     43390 TIP3     11158    TIP3     H2       HT       0.417000       1.00800           0
     43391 TIP3     11159    TIP3     OH2      OT      -0.834000       15.9994           0
     43392 TIP3     11159    TIP3     H1       HT       0.417000       1.00800           0
     43393 TIP3     11159    TIP3     H2       HT       0.417000       1.00800           0
     43394 TIP3     11160    TIP3     OH2      OT      -0.834000       15.9994           0
     43395 TIP3     11160    TIP3     H1       HT       0.417000       1.00800           0
     43396 TIP3     11160    TIP3     H2       HT       0.417000       1.00800           0
     43397 TIP3     11161    TIP3     OH2      OT      -0.834000       15.9994           0
     43398 TIP3     11161    TIP3     H1       HT       0.417000       1.00800           0
     43399 TIP3     11161    TIP3     H2       HT       0.417000       1.00800           0
     43400 TIP3     11162    TIP3     OH2      OT      -0.834000       15.9994           0
     43401 TIP3     11162    TIP3     H1       HT       0.417000       1.00800           0
     43402 TIP3     11162    TIP3     H2       HT       0.417000       1.00800           0
     43403 TIP3     11163    TIP3     OH2      OT      -0.834000       15.9994           0
     43404 TIP3     11163    TIP3     H1       HT       0.417000       1.00800           0
     43405 TIP3     11163    TIP3     H2       HT       0.417000       1.00800           0
     43406 TIP3     11164    TIP3     OH2      OT      -0.834000       15.9994           0
     43407 TIP3     11164    TIP3     H1       HT       0.417000       1.00800           0
     43408 TIP3     11164    TIP3     H2       HT       0.417000       1.00800           0
     43409 TIP3     11165    TIP3     OH2      OT      -0.834000       15.9994           0
     43410 TIP3     11165    TIP3     H1       HT       0.417000       1.00800           0
     43411 TIP3     11165    TIP3     H2       HT       0.417000       1.00800           0
     43412 TIP3     11166    TIP3     OH2      OT      -0.834000       15.9994           0
     43413 TIP3     11166    TIP3     H1       HT       0.417000       1.00800           0
     43414 TIP3     11166    TIP3     H2       HT       0.417000       1.00800           0
     43415 TIP3     11167    TIP3     OH2      OT      -0.834000       15.9994           0
     43416 TIP3     11167    TIP3     H1       HT       0.417000       1.00800           0
     43417 TIP3     11167    TIP3     H2       HT       0.417000       1.00800           0
     43418 TIP3     11168    TIP3     OH2      OT      -0.834000       15.9994           0
     43419 TIP3     11168    TIP3     H1       HT       0.417000       1.00800           0
     43420 TIP3     11168    TIP3     H2       HT       0.417000       1.00800           0
     43421 TIP3     11169    TIP3     OH2      OT      -0.834000       15.9994           0
     43422 TIP3     11169    TIP3     H1       HT       0.417000       1.00800           0
     43423 TIP3     11169    TIP3     H2       HT       0.417000       1.00800           0
     43424 TIP3     11170    TIP3     OH2      OT      -0.834000       15.9994           0
     43425 TIP3     11170    TIP3     H1       HT       0.417000       1.00800           0
     43426 TIP3     11170    TIP3     H2       HT       0.417000       1.00800           0
     43427 TIP3     11171    TIP3     OH2      OT      -0.834000       15.9994           0
     43428 TIP3     11171    TIP3     H1       HT       0.417000       1.00800           0
     43429 TIP3     11171    TIP3     H2       HT       0.417000       1.00800           0
     43430 TIP3     11172    TIP3     OH2      OT      -0.834000       15.9994           0
     43431 TIP3     11172    TIP3     H1       HT       0.417000       1.00800           0
     43432 TIP3     11172    TIP3     H2       HT       0.417000       1.00800           0
     43433 TIP3     11173    TIP3     OH2      OT      -0.834000       15.9994           0
     43434 TIP3     11173    TIP3     H1       HT       0.417000       1.00800           0
     43435 TIP3     11173    TIP3     H2       HT       0.417000       1.00800           0
     43436 TIP3     11174    TIP3     OH2      OT      -0.834000       15.9994           0
     43437 TIP3     11174    TIP3     H1       HT       0.417000       1.00800           0
     43438 TIP3     11174    TIP3     H2       HT       0.417000       1.00800           0
     43439 TIP3     11175    TIP3     OH2      OT      -0.834000       15.9994           0
     43440 TIP3     11175    TIP3     H1       HT       0.417000       1.00800           0
     43441 TIP3     11175    TIP3     H2       HT       0.417000       1.00800           0
     43442 TIP3     11176    TIP3     OH2      OT      -0.834000       15.9994           0
     43443 TIP3     11176    TIP3     H1       HT       0.417000       1.00800           0
     43444 TIP3     11176    TIP3     H2       HT       0.417000       1.00800           0
     43445 TIP3     11177    TIP3     OH2      OT      -0.834000       15.9994           0
     43446 TIP3     11177    TIP3     H1       HT       0.417000       1.00800           0
     43447 TIP3     11177    TIP3     H2       HT       0.417000       1.00800           0
     43448 TIP3     11178    TIP3     OH2      OT      -0.834000       15.9994           0
     43449 TIP3     11178    TIP3     H1       HT       0.417000       1.00800           0
     43450 TIP3     11178    TIP3     H2       HT       0.417000       1.00800           0
     43451 TIP3     11179    TIP3     OH2      OT      -0.834000       15.9994           0
     43452 TIP3     11179    TIP3     H1       HT       0.417000       1.00800           0
     43453 TIP3     11179    TIP3     H2       HT       0.417000       1.00800           0
     43454 TIP3     11180    TIP3     OH2      OT      -0.834000       15.9994           0
     43455 TIP3     11180    TIP3     H1       HT       0.417000       1.00800           0
     43456 TIP3     11180    TIP3     H2       HT       0.417000       1.00800           0
     43457 TIP3     11181    TIP3     OH2      OT      -0.834000       15.9994           0
     43458 TIP3     11181    TIP3     H1       HT       0.417000       1.00800           0
     43459 TIP3     11181    TIP3     H2       HT       0.417000       1.00800           0
     43460 TIP3     11182    TIP3     OH2      OT      -0.834000       15.9994           0
     43461 TIP3     11182    TIP3     H1       HT       0.417000       1.00800           0
     43462 TIP3     11182    TIP3     H2       HT       0.417000       1.00800           0
     43463 TIP3     11183    TIP3     OH2      OT      -0.834000       15.9994           0
     43464 TIP3     11183    TIP3     H1       HT       0.417000       1.00800           0
     43465 TIP3     11183    TIP3     H2       HT       0.417000       1.00800           0
     43466 TIP3     11184    TIP3     OH2      OT      -0.834000       15.9994           0
     43467 TIP3     11184    TIP3     H1       HT       0.417000       1.00800           0
     43468 TIP3     11184    TIP3     H2       HT       0.417000       1.00800           0
     43469 TIP3     11185    TIP3     OH2      OT      -0.834000       15.9994           0
     43470 TIP3     11185    TIP3     H1       HT       0.417000       1.00800           0
     43471 TIP3     11185    TIP3     H2       HT       0.417000       1.00800           0
     43472 TIP3     11186    TIP3     OH2      OT      -0.834000       15.9994           0
     43473 TIP3     11186    TIP3     H1       HT       0.417000       1.00800           0
     43474 TIP3     11186    TIP3     H2       HT       0.417000       1.00800           0
     43475 TIP3     11187    TIP3     OH2      OT      -0.834000       15.9994           0
     43476 TIP3     11187    TIP3     H1       HT       0.417000       1.00800           0
     43477 TIP3     11187    TIP3     H2       HT       0.417000       1.00800           0
     43478 TIP3     11188    TIP3     OH2      OT      -0.834000       15.9994           0
     43479 TIP3     11188    TIP3     H1       HT       0.417000       1.00800           0
     43480 TIP3     11188    TIP3     H2       HT       0.417000       1.00800           0
     43481 TIP3     11189    TIP3     OH2      OT      -0.834000       15.9994           0
     43482 TIP3     11189    TIP3     H1       HT       0.417000       1.00800           0
     43483 TIP3     11189    TIP3     H2       HT       0.417000       1.00800           0
     43484 TIP3     11190    TIP3     OH2      OT      -0.834000       15.9994           0
     43485 TIP3     11190    TIP3     H1       HT       0.417000       1.00800           0
     43486 TIP3     11190    TIP3     H2       HT       0.417000       1.00800           0
     43487 TIP3     11191    TIP3     OH2      OT      -0.834000       15.9994           0
     43488 TIP3     11191    TIP3     H1       HT       0.417000       1.00800           0
     43489 TIP3     11191    TIP3     H2       HT       0.417000       1.00800           0
     43490 TIP3     11192    TIP3     OH2      OT      -0.834000       15.9994           0
     43491 TIP3     11192    TIP3     H1       HT       0.417000       1.00800           0
     43492 TIP3     11192    TIP3     H2       HT       0.417000       1.00800           0
     43493 TIP3     11193    TIP3     OH2      OT      -0.834000       15.9994           0
     43494 TIP3     11193    TIP3     H1       HT       0.417000       1.00800           0
     43495 TIP3     11193    TIP3     H2       HT       0.417000       1.00800           0
     43496 TIP3     11194    TIP3     OH2      OT      -0.834000       15.9994           0
     43497 TIP3     11194    TIP3     H1       HT       0.417000       1.00800           0
     43498 TIP3     11194    TIP3     H2       HT       0.417000       1.00800           0
     43499 TIP3     11195    TIP3     OH2      OT      -0.834000       15.9994           0
     43500 TIP3     11195    TIP3     H1       HT       0.417000       1.00800           0
     43501 TIP3     11195    TIP3     H2       HT       0.417000       1.00800           0
     43502 TIP3     11196    TIP3     OH2      OT      -0.834000       15.9994           0
     43503 TIP3     11196    TIP3     H1       HT       0.417000       1.00800           0
     43504 TIP3     11196    TIP3     H2       HT       0.417000       1.00800           0
     43505 TIP3     11197    TIP3     OH2      OT      -0.834000       15.9994           0
     43506 TIP3     11197    TIP3     H1       HT       0.417000       1.00800           0
     43507 TIP3     11197    TIP3     H2       HT       0.417000       1.00800           0
     43508 TIP3     11198    TIP3     OH2      OT      -0.834000       15.9994           0
     43509 TIP3     11198    TIP3     H1       HT       0.417000       1.00800           0
     43510 TIP3     11198    TIP3     H2       HT       0.417000       1.00800           0
     43511 TIP3     11199    TIP3     OH2      OT      -0.834000       15.9994           0
     43512 TIP3     11199    TIP3     H1       HT       0.417000       1.00800           0
     43513 TIP3     11199    TIP3     H2       HT       0.417000       1.00800           0
     43514 TIP3     11200    TIP3     OH2      OT      -0.834000       15.9994           0
     43515 TIP3     11200    TIP3     H1       HT       0.417000       1.00800           0
     43516 TIP3     11200    TIP3     H2       HT       0.417000       1.00800           0
     43517 TIP3     11201    TIP3     OH2      OT      -0.834000       15.9994           0
     43518 TIP3     11201    TIP3     H1       HT       0.417000       1.00800           0
     43519 TIP3     11201    TIP3     H2       HT       0.417000       1.00800           0
     43520 TIP3     11202    TIP3     OH2      OT      -0.834000       15.9994           0
     43521 TIP3     11202    TIP3     H1       HT       0.417000       1.00800           0
     43522 TIP3     11202    TIP3     H2       HT       0.417000       1.00800           0
     43523 TIP3     11203    TIP3     OH2      OT      -0.834000       15.9994           0
     43524 TIP3     11203    TIP3     H1       HT       0.417000       1.00800           0
     43525 TIP3     11203    TIP3     H2       HT       0.417000       1.00800           0
     43526 TIP3     11204    TIP3     OH2      OT      -0.834000       15.9994           0
     43527 TIP3     11204    TIP3     H1       HT       0.417000       1.00800           0
     43528 TIP3     11204    TIP3     H2       HT       0.417000       1.00800           0
     43529 TIP3     11205    TIP3     OH2      OT      -0.834000       15.9994           0
     43530 TIP3     11205    TIP3     H1       HT       0.417000       1.00800           0
     43531 TIP3     11205    TIP3     H2       HT       0.417000       1.00800           0
     43532 TIP3     11206    TIP3     OH2      OT      -0.834000       15.9994           0
     43533 TIP3     11206    TIP3     H1       HT       0.417000       1.00800           0
     43534 TIP3     11206    TIP3     H2       HT       0.417000       1.00800           0
     43535 TIP3     11207    TIP3     OH2      OT      -0.834000       15.9994           0
     43536 TIP3     11207    TIP3     H1       HT       0.417000       1.00800           0
     43537 TIP3     11207    TIP3     H2       HT       0.417000       1.00800           0
     43538 TIP3     11208    TIP3     OH2      OT      -0.834000       15.9994           0
     43539 TIP3     11208    TIP3     H1       HT       0.417000       1.00800           0
     43540 TIP3     11208    TIP3     H2       HT       0.417000       1.00800           0
     43541 TIP3     11209    TIP3     OH2      OT      -0.834000       15.9994           0
     43542 TIP3     11209    TIP3     H1       HT       0.417000       1.00800           0
     43543 TIP3     11209    TIP3     H2       HT       0.417000       1.00800           0
     43544 TIP3     11210    TIP3     OH2      OT      -0.834000       15.9994           0
     43545 TIP3     11210    TIP3     H1       HT       0.417000       1.00800           0
     43546 TIP3     11210    TIP3     H2       HT       0.417000       1.00800           0
     43547 TIP3     11211    TIP3     OH2      OT      -0.834000       15.9994           0
     43548 TIP3     11211    TIP3     H1       HT       0.417000       1.00800           0
     43549 TIP3     11211    TIP3     H2       HT       0.417000       1.00800           0
     43550 TIP3     11212    TIP3     OH2      OT      -0.834000       15.9994           0
     43551 TIP3     11212    TIP3     H1       HT       0.417000       1.00800           0
     43552 TIP3     11212    TIP3     H2       HT       0.417000       1.00800           0
     43553 TIP3     11213    TIP3     OH2      OT      -0.834000       15.9994           0
     43554 TIP3     11213    TIP3     H1       HT       0.417000       1.00800           0
     43555 TIP3     11213    TIP3     H2       HT       0.417000       1.00800           0
     43556 TIP3     11214    TIP3     OH2      OT      -0.834000       15.9994           0
     43557 TIP3     11214    TIP3     H1       HT       0.417000       1.00800           0
     43558 TIP3     11214    TIP3     H2       HT       0.417000       1.00800           0
     43559 TIP3     11215    TIP3     OH2      OT      -0.834000       15.9994           0
     43560 TIP3     11215    TIP3     H1       HT       0.417000       1.00800           0
     43561 TIP3     11215    TIP3     H2       HT       0.417000       1.00800           0
     43562 TIP3     11216    TIP3     OH2      OT      -0.834000       15.9994           0
     43563 TIP3     11216    TIP3     H1       HT       0.417000       1.00800           0
     43564 TIP3     11216    TIP3     H2       HT       0.417000       1.00800           0
     43565 TIP3     11217    TIP3     OH2      OT      -0.834000       15.9994           0
     43566 TIP3     11217    TIP3     H1       HT       0.417000       1.00800           0
     43567 TIP3     11217    TIP3     H2       HT       0.417000       1.00800           0
     43568 TIP3     11218    TIP3     OH2      OT      -0.834000       15.9994           0
     43569 TIP3     11218    TIP3     H1       HT       0.417000       1.00800           0
     43570 TIP3     11218    TIP3     H2       HT       0.417000       1.00800           0
     43571 TIP3     11219    TIP3     OH2      OT      -0.834000       15.9994           0
     43572 TIP3     11219    TIP3     H1       HT       0.417000       1.00800           0
     43573 TIP3     11219    TIP3     H2       HT       0.417000       1.00800           0
     43574 TIP3     11220    TIP3     OH2      OT      -0.834000       15.9994           0
     43575 TIP3     11220    TIP3     H1       HT       0.417000       1.00800           0
     43576 TIP3     11220    TIP3     H2       HT       0.417000       1.00800           0
     43577 TIP3     11221    TIP3     OH2      OT      -0.834000       15.9994           0
     43578 TIP3     11221    TIP3     H1       HT       0.417000       1.00800           0
     43579 TIP3     11221    TIP3     H2       HT       0.417000       1.00800           0
     43580 TIP3     11222    TIP3     OH2      OT      -0.834000       15.9994           0
     43581 TIP3     11222    TIP3     H1       HT       0.417000       1.00800           0
     43582 TIP3     11222    TIP3     H2       HT       0.417000       1.00800           0
     43583 TIP3     11223    TIP3     OH2      OT      -0.834000       15.9994           0
     43584 TIP3     11223    TIP3     H1       HT       0.417000       1.00800           0
     43585 TIP3     11223    TIP3     H2       HT       0.417000       1.00800           0
     43586 TIP3     11224    TIP3     OH2      OT      -0.834000       15.9994           0
     43587 TIP3     11224    TIP3     H1       HT       0.417000       1.00800           0
     43588 TIP3     11224    TIP3     H2       HT       0.417000       1.00800           0
     43589 TIP3     11225    TIP3     OH2      OT      -0.834000       15.9994           0
     43590 TIP3     11225    TIP3     H1       HT       0.417000       1.00800           0
     43591 TIP3     11225    TIP3     H2       HT       0.417000       1.00800           0
     43592 TIP3     11226    TIP3     OH2      OT      -0.834000       15.9994           0
     43593 TIP3     11226    TIP3     H1       HT       0.417000       1.00800           0
     43594 TIP3     11226    TIP3     H2       HT       0.417000       1.00800           0
     43595 TIP3     11227    TIP3     OH2      OT      -0.834000       15.9994           0
     43596 TIP3     11227    TIP3     H1       HT       0.417000       1.00800           0
     43597 TIP3     11227    TIP3     H2       HT       0.417000       1.00800           0
     43598 TIP3     11228    TIP3     OH2      OT      -0.834000       15.9994           0
     43599 TIP3     11228    TIP3     H1       HT       0.417000       1.00800           0
     43600 TIP3     11228    TIP3     H2       HT       0.417000       1.00800           0
     43601 TIP3     11229    TIP3     OH2      OT      -0.834000       15.9994           0
     43602 TIP3     11229    TIP3     H1       HT       0.417000       1.00800           0
     43603 TIP3     11229    TIP3     H2       HT       0.417000       1.00800           0
     43604 TIP3     11230    TIP3     OH2      OT      -0.834000       15.9994           0
     43605 TIP3     11230    TIP3     H1       HT       0.417000       1.00800           0
     43606 TIP3     11230    TIP3     H2       HT       0.417000       1.00800           0
     43607 TIP3     11231    TIP3     OH2      OT      -0.834000       15.9994           0
     43608 TIP3     11231    TIP3     H1       HT       0.417000       1.00800           0
     43609 TIP3     11231    TIP3     H2       HT       0.417000       1.00800           0
     43610 TIP3     11232    TIP3     OH2      OT      -0.834000       15.9994           0
     43611 TIP3     11232    TIP3     H1       HT       0.417000       1.00800           0
     43612 TIP3     11232    TIP3     H2       HT       0.417000       1.00800           0
     43613 TIP3     11233    TIP3     OH2      OT      -0.834000       15.9994           0
     43614 TIP3     11233    TIP3     H1       HT       0.417000       1.00800           0
     43615 TIP3     11233    TIP3     H2       HT       0.417000       1.00800           0
     43616 TIP3     11234    TIP3     OH2      OT      -0.834000       15.9994           0
     43617 TIP3     11234    TIP3     H1       HT       0.417000       1.00800           0
     43618 TIP3     11234    TIP3     H2       HT       0.417000       1.00800           0
     43619 TIP3     11235    TIP3     OH2      OT      -0.834000       15.9994           0
     43620 TIP3     11235    TIP3     H1       HT       0.417000       1.00800           0
     43621 TIP3     11235    TIP3     H2       HT       0.417000       1.00800           0
     43622 TIP3     11236    TIP3     OH2      OT      -0.834000       15.9994           0
     43623 TIP3     11236    TIP3     H1       HT       0.417000       1.00800           0
     43624 TIP3     11236    TIP3     H2       HT       0.417000       1.00800           0
     43625 TIP3     11237    TIP3     OH2      OT      -0.834000       15.9994           0
     43626 TIP3     11237    TIP3     H1       HT       0.417000       1.00800           0
     43627 TIP3     11237    TIP3     H2       HT       0.417000       1.00800           0
     43628 TIP3     11238    TIP3     OH2      OT      -0.834000       15.9994           0
     43629 TIP3     11238    TIP3     H1       HT       0.417000       1.00800           0
     43630 TIP3     11238    TIP3     H2       HT       0.417000       1.00800           0
     43631 TIP3     11239    TIP3     OH2      OT      -0.834000       15.9994           0
     43632 TIP3     11239    TIP3     H1       HT       0.417000       1.00800           0
     43633 TIP3     11239    TIP3     H2       HT       0.417000       1.00800           0
     43634 TIP3     11240    TIP3     OH2      OT      -0.834000       15.9994           0
     43635 TIP3     11240    TIP3     H1       HT       0.417000       1.00800           0
     43636 TIP3     11240    TIP3     H2       HT       0.417000       1.00800           0
     43637 TIP3     11241    TIP3     OH2      OT      -0.834000       15.9994           0
     43638 TIP3     11241    TIP3     H1       HT       0.417000       1.00800           0
     43639 TIP3     11241    TIP3     H2       HT       0.417000       1.00800           0
     43640 TIP3     11242    TIP3     OH2      OT      -0.834000       15.9994           0
     43641 TIP3     11242    TIP3     H1       HT       0.417000       1.00800           0
     43642 TIP3     11242    TIP3     H2       HT       0.417000       1.00800           0
     43643 TIP3     11243    TIP3     OH2      OT      -0.834000       15.9994           0
     43644 TIP3     11243    TIP3     H1       HT       0.417000       1.00800           0
     43645 TIP3     11243    TIP3     H2       HT       0.417000       1.00800           0
     43646 TIP3     11244    TIP3     OH2      OT      -0.834000       15.9994           0
     43647 TIP3     11244    TIP3     H1       HT       0.417000       1.00800           0
     43648 TIP3     11244    TIP3     H2       HT       0.417000       1.00800           0
     43649 TIP3     11245    TIP3     OH2      OT      -0.834000       15.9994           0
     43650 TIP3     11245    TIP3     H1       HT       0.417000       1.00800           0
     43651 TIP3     11245    TIP3     H2       HT       0.417000       1.00800           0
     43652 TIP3     11246    TIP3     OH2      OT      -0.834000       15.9994           0
     43653 TIP3     11246    TIP3     H1       HT       0.417000       1.00800           0
     43654 TIP3     11246    TIP3     H2       HT       0.417000       1.00800           0
     43655 TIP3     11247    TIP3     OH2      OT      -0.834000       15.9994           0
     43656 TIP3     11247    TIP3     H1       HT       0.417000       1.00800           0
     43657 TIP3     11247    TIP3     H2       HT       0.417000       1.00800           0
     43658 TIP3     11248    TIP3     OH2      OT      -0.834000       15.9994           0
     43659 TIP3     11248    TIP3     H1       HT       0.417000       1.00800           0
     43660 TIP3     11248    TIP3     H2       HT       0.417000       1.00800           0
     43661 TIP3     11249    TIP3     OH2      OT      -0.834000       15.9994           0
     43662 TIP3     11249    TIP3     H1       HT       0.417000       1.00800           0
     43663 TIP3     11249    TIP3     H2       HT       0.417000       1.00800           0
     43664 TIP3     11250    TIP3     OH2      OT      -0.834000       15.9994           0
     43665 TIP3     11250    TIP3     H1       HT       0.417000       1.00800           0
     43666 TIP3     11250    TIP3     H2       HT       0.417000       1.00800           0
     43667 TIP3     11251    TIP3     OH2      OT      -0.834000       15.9994           0
     43668 TIP3     11251    TIP3     H1       HT       0.417000       1.00800           0
     43669 TIP3     11251    TIP3     H2       HT       0.417000       1.00800           0
     43670 TIP3     11252    TIP3     OH2      OT      -0.834000       15.9994           0
     43671 TIP3     11252    TIP3     H1       HT       0.417000       1.00800           0
     43672 TIP3     11252    TIP3     H2       HT       0.417000       1.00800           0
     43673 TIP3     11253    TIP3     OH2      OT      -0.834000       15.9994           0
     43674 TIP3     11253    TIP3     H1       HT       0.417000       1.00800           0
     43675 TIP3     11253    TIP3     H2       HT       0.417000       1.00800           0
     43676 TIP3     11254    TIP3     OH2      OT      -0.834000       15.9994           0
     43677 TIP3     11254    TIP3     H1       HT       0.417000       1.00800           0
     43678 TIP3     11254    TIP3     H2       HT       0.417000       1.00800           0
     43679 TIP3     11255    TIP3     OH2      OT      -0.834000       15.9994           0
     43680 TIP3     11255    TIP3     H1       HT       0.417000       1.00800           0
     43681 TIP3     11255    TIP3     H2       HT       0.417000       1.00800           0
     43682 TIP3     11256    TIP3     OH2      OT      -0.834000       15.9994           0
     43683 TIP3     11256    TIP3     H1       HT       0.417000       1.00800           0
     43684 TIP3     11256    TIP3     H2       HT       0.417000       1.00800           0
     43685 TIP3     11257    TIP3     OH2      OT      -0.834000       15.9994           0
     43686 TIP3     11257    TIP3     H1       HT       0.417000       1.00800           0
     43687 TIP3     11257    TIP3     H2       HT       0.417000       1.00800           0
     43688 TIP3     11258    TIP3     OH2      OT      -0.834000       15.9994           0
     43689 TIP3     11258    TIP3     H1       HT       0.417000       1.00800           0
     43690 TIP3     11258    TIP3     H2       HT       0.417000       1.00800           0
     43691 TIP3     11259    TIP3     OH2      OT      -0.834000       15.9994           0
     43692 TIP3     11259    TIP3     H1       HT       0.417000       1.00800           0
     43693 TIP3     11259    TIP3     H2       HT       0.417000       1.00800           0
     43694 TIP3     11260    TIP3     OH2      OT      -0.834000       15.9994           0
     43695 TIP3     11260    TIP3     H1       HT       0.417000       1.00800           0
     43696 TIP3     11260    TIP3     H2       HT       0.417000       1.00800           0
     43697 TIP3     11261    TIP3     OH2      OT      -0.834000       15.9994           0
     43698 TIP3     11261    TIP3     H1       HT       0.417000       1.00800           0
     43699 TIP3     11261    TIP3     H2       HT       0.417000       1.00800           0
     43700 TIP3     11262    TIP3     OH2      OT      -0.834000       15.9994           0
     43701 TIP3     11262    TIP3     H1       HT       0.417000       1.00800           0
     43702 TIP3     11262    TIP3     H2       HT       0.417000       1.00800           0
     43703 TIP3     11263    TIP3     OH2      OT      -0.834000       15.9994           0
     43704 TIP3     11263    TIP3     H1       HT       0.417000       1.00800           0
     43705 TIP3     11263    TIP3     H2       HT       0.417000       1.00800           0
     43706 TIP3     11264    TIP3     OH2      OT      -0.834000       15.9994           0
     43707 TIP3     11264    TIP3     H1       HT       0.417000       1.00800           0
     43708 TIP3     11264    TIP3     H2       HT       0.417000       1.00800           0
     43709 TIP3     11265    TIP3     OH2      OT      -0.834000       15.9994           0
     43710 TIP3     11265    TIP3     H1       HT       0.417000       1.00800           0
     43711 TIP3     11265    TIP3     H2       HT       0.417000       1.00800           0
     43712 TIP3     11266    TIP3     OH2      OT      -0.834000       15.9994           0
     43713 TIP3     11266    TIP3     H1       HT       0.417000       1.00800           0
     43714 TIP3     11266    TIP3     H2       HT       0.417000       1.00800           0
     43715 TIP3     11267    TIP3     OH2      OT      -0.834000       15.9994           0
     43716 TIP3     11267    TIP3     H1       HT       0.417000       1.00800           0
     43717 TIP3     11267    TIP3     H2       HT       0.417000       1.00800           0
     43718 TIP3     11268    TIP3     OH2      OT      -0.834000       15.9994           0
     43719 TIP3     11268    TIP3     H1       HT       0.417000       1.00800           0
     43720 TIP3     11268    TIP3     H2       HT       0.417000       1.00800           0
     43721 TIP3     11269    TIP3     OH2      OT      -0.834000       15.9994           0
     43722 TIP3     11269    TIP3     H1       HT       0.417000       1.00800           0
     43723 TIP3     11269    TIP3     H2       HT       0.417000       1.00800           0
     43724 TIP3     11270    TIP3     OH2      OT      -0.834000       15.9994           0
     43725 TIP3     11270    TIP3     H1       HT       0.417000       1.00800           0
     43726 TIP3     11270    TIP3     H2       HT       0.417000       1.00800           0
     43727 TIP3     11271    TIP3     OH2      OT      -0.834000       15.9994           0
     43728 TIP3     11271    TIP3     H1       HT       0.417000       1.00800           0
     43729 TIP3     11271    TIP3     H2       HT       0.417000       1.00800           0
     43730 TIP3     11272    TIP3     OH2      OT      -0.834000       15.9994           0
     43731 TIP3     11272    TIP3     H1       HT       0.417000       1.00800           0
     43732 TIP3     11272    TIP3     H2       HT       0.417000       1.00800           0
     43733 TIP3     11273    TIP3     OH2      OT      -0.834000       15.9994           0
     43734 TIP3     11273    TIP3     H1       HT       0.417000       1.00800           0
     43735 TIP3     11273    TIP3     H2       HT       0.417000       1.00800           0
     43736 TIP3     11274    TIP3     OH2      OT      -0.834000       15.9994           0
     43737 TIP3     11274    TIP3     H1       HT       0.417000       1.00800           0
     43738 TIP3     11274    TIP3     H2       HT       0.417000       1.00800           0
     43739 TIP3     11275    TIP3     OH2      OT      -0.834000       15.9994           0
     43740 TIP3     11275    TIP3     H1       HT       0.417000       1.00800           0
     43741 TIP3     11275    TIP3     H2       HT       0.417000       1.00800           0
     43742 TIP3     11276    TIP3     OH2      OT      -0.834000       15.9994           0
     43743 TIP3     11276    TIP3     H1       HT       0.417000       1.00800           0
     43744 TIP3     11276    TIP3     H2       HT       0.417000       1.00800           0
     43745 TIP3     11277    TIP3     OH2      OT      -0.834000       15.9994           0
     43746 TIP3     11277    TIP3     H1       HT       0.417000       1.00800           0
     43747 TIP3     11277    TIP3     H2       HT       0.417000       1.00800           0
     43748 TIP3     11278    TIP3     OH2      OT      -0.834000       15.9994           0
     43749 TIP3     11278    TIP3     H1       HT       0.417000       1.00800           0
     43750 TIP3     11278    TIP3     H2       HT       0.417000       1.00800           0
     43751 TIP3     11279    TIP3     OH2      OT      -0.834000       15.9994           0
     43752 TIP3     11279    TIP3     H1       HT       0.417000       1.00800           0
     43753 TIP3     11279    TIP3     H2       HT       0.417000       1.00800           0
     43754 TIP3     11280    TIP3     OH2      OT      -0.834000       15.9994           0
     43755 TIP3     11280    TIP3     H1       HT       0.417000       1.00800           0
     43756 TIP3     11280    TIP3     H2       HT       0.417000       1.00800           0
     43757 TIP3     11281    TIP3     OH2      OT      -0.834000       15.9994           0
     43758 TIP3     11281    TIP3     H1       HT       0.417000       1.00800           0
     43759 TIP3     11281    TIP3     H2       HT       0.417000       1.00800           0
     43760 TIP3     11282    TIP3     OH2      OT      -0.834000       15.9994           0
     43761 TIP3     11282    TIP3     H1       HT       0.417000       1.00800           0
     43762 TIP3     11282    TIP3     H2       HT       0.417000       1.00800           0
     43763 TIP3     11283    TIP3     OH2      OT      -0.834000       15.9994           0
     43764 TIP3     11283    TIP3     H1       HT       0.417000       1.00800           0
     43765 TIP3     11283    TIP3     H2       HT       0.417000       1.00800           0
     43766 TIP3     11284    TIP3     OH2      OT      -0.834000       15.9994           0
     43767 TIP3     11284    TIP3     H1       HT       0.417000       1.00800           0
     43768 TIP3     11284    TIP3     H2       HT       0.417000       1.00800           0
     43769 TIP3     11285    TIP3     OH2      OT      -0.834000       15.9994           0
     43770 TIP3     11285    TIP3     H1       HT       0.417000       1.00800           0
     43771 TIP3     11285    TIP3     H2       HT       0.417000       1.00800           0
     43772 TIP3     11286    TIP3     OH2      OT      -0.834000       15.9994           0
     43773 TIP3     11286    TIP3     H1       HT       0.417000       1.00800           0
     43774 TIP3     11286    TIP3     H2       HT       0.417000       1.00800           0
     43775 TIP3     11287    TIP3     OH2      OT      -0.834000       15.9994           0
     43776 TIP3     11287    TIP3     H1       HT       0.417000       1.00800           0
     43777 TIP3     11287    TIP3     H2       HT       0.417000       1.00800           0
     43778 TIP3     11288    TIP3     OH2      OT      -0.834000       15.9994           0
     43779 TIP3     11288    TIP3     H1       HT       0.417000       1.00800           0
     43780 TIP3     11288    TIP3     H2       HT       0.417000       1.00800           0
     43781 TIP3     11289    TIP3     OH2      OT      -0.834000       15.9994           0
     43782 TIP3     11289    TIP3     H1       HT       0.417000       1.00800           0
     43783 TIP3     11289    TIP3     H2       HT       0.417000       1.00800           0
     43784 TIP3     11290    TIP3     OH2      OT      -0.834000       15.9994           0
     43785 TIP3     11290    TIP3     H1       HT       0.417000       1.00800           0
     43786 TIP3     11290    TIP3     H2       HT       0.417000       1.00800           0
     43787 TIP3     11291    TIP3     OH2      OT      -0.834000       15.9994           0
     43788 TIP3     11291    TIP3     H1       HT       0.417000       1.00800           0
     43789 TIP3     11291    TIP3     H2       HT       0.417000       1.00800           0
     43790 TIP3     11292    TIP3     OH2      OT      -0.834000       15.9994           0
     43791 TIP3     11292    TIP3     H1       HT       0.417000       1.00800           0
     43792 TIP3     11292    TIP3     H2       HT       0.417000       1.00800           0
     43793 TIP3     11293    TIP3     OH2      OT      -0.834000       15.9994           0
     43794 TIP3     11293    TIP3     H1       HT       0.417000       1.00800           0
     43795 TIP3     11293    TIP3     H2       HT       0.417000       1.00800           0
     43796 TIP3     11294    TIP3     OH2      OT      -0.834000       15.9994           0
     43797 TIP3     11294    TIP3     H1       HT       0.417000       1.00800           0
     43798 TIP3     11294    TIP3     H2       HT       0.417000       1.00800           0
     43799 TIP3     11295    TIP3     OH2      OT      -0.834000       15.9994           0
     43800 TIP3     11295    TIP3     H1       HT       0.417000       1.00800           0
     43801 TIP3     11295    TIP3     H2       HT       0.417000       1.00800           0
     43802 TIP3     11296    TIP3     OH2      OT      -0.834000       15.9994           0
     43803 TIP3     11296    TIP3     H1       HT       0.417000       1.00800           0
     43804 TIP3     11296    TIP3     H2       HT       0.417000       1.00800           0
     43805 TIP3     11297    TIP3     OH2      OT      -0.834000       15.9994           0
     43806 TIP3     11297    TIP3     H1       HT       0.417000       1.00800           0
     43807 TIP3     11297    TIP3     H2       HT       0.417000       1.00800           0
     43808 TIP3     11298    TIP3     OH2      OT      -0.834000       15.9994           0
     43809 TIP3     11298    TIP3     H1       HT       0.417000       1.00800           0
     43810 TIP3     11298    TIP3     H2       HT       0.417000       1.00800           0
     43811 TIP3     11299    TIP3     OH2      OT      -0.834000       15.9994           0
     43812 TIP3     11299    TIP3     H1       HT       0.417000       1.00800           0
     43813 TIP3     11299    TIP3     H2       HT       0.417000       1.00800           0
     43814 TIP3     11300    TIP3     OH2      OT      -0.834000       15.9994           0
     43815 TIP3     11300    TIP3     H1       HT       0.417000       1.00800           0
     43816 TIP3     11300    TIP3     H2       HT       0.417000       1.00800           0
     43817 TIP3     11301    TIP3     OH2      OT      -0.834000       15.9994           0
     43818 TIP3     11301    TIP3     H1       HT       0.417000       1.00800           0
     43819 TIP3     11301    TIP3     H2       HT       0.417000       1.00800           0
     43820 TIP3     11302    TIP3     OH2      OT      -0.834000       15.9994           0
     43821 TIP3     11302    TIP3     H1       HT       0.417000       1.00800           0
     43822 TIP3     11302    TIP3     H2       HT       0.417000       1.00800           0
     43823 TIP3     11303    TIP3     OH2      OT      -0.834000       15.9994           0
     43824 TIP3     11303    TIP3     H1       HT       0.417000       1.00800           0
     43825 TIP3     11303    TIP3     H2       HT       0.417000       1.00800           0
     43826 TIP3     11304    TIP3     OH2      OT      -0.834000       15.9994           0
     43827 TIP3     11304    TIP3     H1       HT       0.417000       1.00800           0
     43828 TIP3     11304    TIP3     H2       HT       0.417000       1.00800           0
     43829 TIP3     11305    TIP3     OH2      OT      -0.834000       15.9994           0
     43830 TIP3     11305    TIP3     H1       HT       0.417000       1.00800           0
     43831 TIP3     11305    TIP3     H2       HT       0.417000       1.00800           0
     43832 TIP3     11306    TIP3     OH2      OT      -0.834000       15.9994           0
     43833 TIP3     11306    TIP3     H1       HT       0.417000       1.00800           0
     43834 TIP3     11306    TIP3     H2       HT       0.417000       1.00800           0
     43835 TIP3     11307    TIP3     OH2      OT      -0.834000       15.9994           0
     43836 TIP3     11307    TIP3     H1       HT       0.417000       1.00800           0
     43837 TIP3     11307    TIP3     H2       HT       0.417000       1.00800           0
     43838 TIP3     11308    TIP3     OH2      OT      -0.834000       15.9994           0
     43839 TIP3     11308    TIP3     H1       HT       0.417000       1.00800           0
     43840 TIP3     11308    TIP3     H2       HT       0.417000       1.00800           0
     43841 TIP3     11309    TIP3     OH2      OT      -0.834000       15.9994           0
     43842 TIP3     11309    TIP3     H1       HT       0.417000       1.00800           0
     43843 TIP3     11309    TIP3     H2       HT       0.417000       1.00800           0
     43844 TIP3     11310    TIP3     OH2      OT      -0.834000       15.9994           0
     43845 TIP3     11310    TIP3     H1       HT       0.417000       1.00800           0
     43846 TIP3     11310    TIP3     H2       HT       0.417000       1.00800           0
     43847 TIP3     11311    TIP3     OH2      OT      -0.834000       15.9994           0
     43848 TIP3     11311    TIP3     H1       HT       0.417000       1.00800           0
     43849 TIP3     11311    TIP3     H2       HT       0.417000       1.00800           0
     43850 TIP3     11312    TIP3     OH2      OT      -0.834000       15.9994           0
     43851 TIP3     11312    TIP3     H1       HT       0.417000       1.00800           0
     43852 TIP3     11312    TIP3     H2       HT       0.417000       1.00800           0
     43853 TIP3     11313    TIP3     OH2      OT      -0.834000       15.9994           0
     43854 TIP3     11313    TIP3     H1       HT       0.417000       1.00800           0
     43855 TIP3     11313    TIP3     H2       HT       0.417000       1.00800           0
     43856 TIP3     11314    TIP3     OH2      OT      -0.834000       15.9994           0
     43857 TIP3     11314    TIP3     H1       HT       0.417000       1.00800           0
     43858 TIP3     11314    TIP3     H2       HT       0.417000       1.00800           0
     43859 TIP3     11315    TIP3     OH2      OT      -0.834000       15.9994           0
     43860 TIP3     11315    TIP3     H1       HT       0.417000       1.00800           0
     43861 TIP3     11315    TIP3     H2       HT       0.417000       1.00800           0
     43862 TIP3     11316    TIP3     OH2      OT      -0.834000       15.9994           0
     43863 TIP3     11316    TIP3     H1       HT       0.417000       1.00800           0
     43864 TIP3     11316    TIP3     H2       HT       0.417000       1.00800           0
     43865 TIP3     11317    TIP3     OH2      OT      -0.834000       15.9994           0
     43866 TIP3     11317    TIP3     H1       HT       0.417000       1.00800           0
     43867 TIP3     11317    TIP3     H2       HT       0.417000       1.00800           0
     43868 TIP3     11318    TIP3     OH2      OT      -0.834000       15.9994           0
     43869 TIP3     11318    TIP3     H1       HT       0.417000       1.00800           0
     43870 TIP3     11318    TIP3     H2       HT       0.417000       1.00800           0
     43871 TIP3     11319    TIP3     OH2      OT      -0.834000       15.9994           0
     43872 TIP3     11319    TIP3     H1       HT       0.417000       1.00800           0
     43873 TIP3     11319    TIP3     H2       HT       0.417000       1.00800           0
     43874 TIP3     11320    TIP3     OH2      OT      -0.834000       15.9994           0
     43875 TIP3     11320    TIP3     H1       HT       0.417000       1.00800           0
     43876 TIP3     11320    TIP3     H2       HT       0.417000       1.00800           0
     43877 TIP3     11321    TIP3     OH2      OT      -0.834000       15.9994           0
     43878 TIP3     11321    TIP3     H1       HT       0.417000       1.00800           0
     43879 TIP3     11321    TIP3     H2       HT       0.417000       1.00800           0
     43880 TIP3     11322    TIP3     OH2      OT      -0.834000       15.9994           0
     43881 TIP3     11322    TIP3     H1       HT       0.417000       1.00800           0
     43882 TIP3     11322    TIP3     H2       HT       0.417000       1.00800           0
     43883 TIP3     11323    TIP3     OH2      OT      -0.834000       15.9994           0
     43884 TIP3     11323    TIP3     H1       HT       0.417000       1.00800           0
     43885 TIP3     11323    TIP3     H2       HT       0.417000       1.00800           0
     43886 TIP3     11324    TIP3     OH2      OT      -0.834000       15.9994           0
     43887 TIP3     11324    TIP3     H1       HT       0.417000       1.00800           0
     43888 TIP3     11324    TIP3     H2       HT       0.417000       1.00800           0
     43889 TIP3     11325    TIP3     OH2      OT      -0.834000       15.9994           0
     43890 TIP3     11325    TIP3     H1       HT       0.417000       1.00800           0
     43891 TIP3     11325    TIP3     H2       HT       0.417000       1.00800           0
     43892 TIP3     11326    TIP3     OH2      OT      -0.834000       15.9994           0
     43893 TIP3     11326    TIP3     H1       HT       0.417000       1.00800           0
     43894 TIP3     11326    TIP3     H2       HT       0.417000       1.00800           0
     43895 TIP3     11327    TIP3     OH2      OT      -0.834000       15.9994           0
     43896 TIP3     11327    TIP3     H1       HT       0.417000       1.00800           0
     43897 TIP3     11327    TIP3     H2       HT       0.417000       1.00800           0
     43898 TIP3     11328    TIP3     OH2      OT      -0.834000       15.9994           0
     43899 TIP3     11328    TIP3     H1       HT       0.417000       1.00800           0
     43900 TIP3     11328    TIP3     H2       HT       0.417000       1.00800           0
     43901 TIP3     11329    TIP3     OH2      OT      -0.834000       15.9994           0
     43902 TIP3     11329    TIP3     H1       HT       0.417000       1.00800           0
     43903 TIP3     11329    TIP3     H2       HT       0.417000       1.00800           0
     43904 TIP3     11330    TIP3     OH2      OT      -0.834000       15.9994           0
     43905 TIP3     11330    TIP3     H1       HT       0.417000       1.00800           0
     43906 TIP3     11330    TIP3     H2       HT       0.417000       1.00800           0
     43907 TIP3     11331    TIP3     OH2      OT      -0.834000       15.9994           0
     43908 TIP3     11331    TIP3     H1       HT       0.417000       1.00800           0
     43909 TIP3     11331    TIP3     H2       HT       0.417000       1.00800           0
     43910 TIP3     11332    TIP3     OH2      OT      -0.834000       15.9994           0
     43911 TIP3     11332    TIP3     H1       HT       0.417000       1.00800           0
     43912 TIP3     11332    TIP3     H2       HT       0.417000       1.00800           0
     43913 TIP3     11333    TIP3     OH2      OT      -0.834000       15.9994           0
     43914 TIP3     11333    TIP3     H1       HT       0.417000       1.00800           0
     43915 TIP3     11333    TIP3     H2       HT       0.417000       1.00800           0
     43916 TIP3     11334    TIP3     OH2      OT      -0.834000       15.9994           0
     43917 TIP3     11334    TIP3     H1       HT       0.417000       1.00800           0
     43918 TIP3     11334    TIP3     H2       HT       0.417000       1.00800           0
     43919 TIP3     11335    TIP3     OH2      OT      -0.834000       15.9994           0
     43920 TIP3     11335    TIP3     H1       HT       0.417000       1.00800           0
     43921 TIP3     11335    TIP3     H2       HT       0.417000       1.00800           0
     43922 TIP3     11336    TIP3     OH2      OT      -0.834000       15.9994           0
     43923 TIP3     11336    TIP3     H1       HT       0.417000       1.00800           0
     43924 TIP3     11336    TIP3     H2       HT       0.417000       1.00800           0
     43925 TIP3     11337    TIP3     OH2      OT      -0.834000       15.9994           0
     43926 TIP3     11337    TIP3     H1       HT       0.417000       1.00800           0
     43927 TIP3     11337    TIP3     H2       HT       0.417000       1.00800           0
     43928 TIP3     11338    TIP3     OH2      OT      -0.834000       15.9994           0
     43929 TIP3     11338    TIP3     H1       HT       0.417000       1.00800           0
     43930 TIP3     11338    TIP3     H2       HT       0.417000       1.00800           0
     43931 TIP3     11339    TIP3     OH2      OT      -0.834000       15.9994           0
     43932 TIP3     11339    TIP3     H1       HT       0.417000       1.00800           0
     43933 TIP3     11339    TIP3     H2       HT       0.417000       1.00800           0
     43934 TIP3     11340    TIP3     OH2      OT      -0.834000       15.9994           0
     43935 TIP3     11340    TIP3     H1       HT       0.417000       1.00800           0
     43936 TIP3     11340    TIP3     H2       HT       0.417000       1.00800           0
     43937 TIP3     11341    TIP3     OH2      OT      -0.834000       15.9994           0
     43938 TIP3     11341    TIP3     H1       HT       0.417000       1.00800           0
     43939 TIP3     11341    TIP3     H2       HT       0.417000       1.00800           0
     43940 TIP3     11342    TIP3     OH2      OT      -0.834000       15.9994           0
     43941 TIP3     11342    TIP3     H1       HT       0.417000       1.00800           0
     43942 TIP3     11342    TIP3     H2       HT       0.417000       1.00800           0
     43943 TIP3     11343    TIP3     OH2      OT      -0.834000       15.9994           0
     43944 TIP3     11343    TIP3     H1       HT       0.417000       1.00800           0
     43945 TIP3     11343    TIP3     H2       HT       0.417000       1.00800           0
     43946 TIP3     11344    TIP3     OH2      OT      -0.834000       15.9994           0
     43947 TIP3     11344    TIP3     H1       HT       0.417000       1.00800           0
     43948 TIP3     11344    TIP3     H2       HT       0.417000       1.00800           0
     43949 TIP3     11345    TIP3     OH2      OT      -0.834000       15.9994           0
     43950 TIP3     11345    TIP3     H1       HT       0.417000       1.00800           0
     43951 TIP3     11345    TIP3     H2       HT       0.417000       1.00800           0
     43952 TIP3     11346    TIP3     OH2      OT      -0.834000       15.9994           0
     43953 TIP3     11346    TIP3     H1       HT       0.417000       1.00800           0
     43954 TIP3     11346    TIP3     H2       HT       0.417000       1.00800           0
     43955 TIP3     11347    TIP3     OH2      OT      -0.834000       15.9994           0
     43956 TIP3     11347    TIP3     H1       HT       0.417000       1.00800           0
     43957 TIP3     11347    TIP3     H2       HT       0.417000       1.00800           0
     43958 TIP3     11348    TIP3     OH2      OT      -0.834000       15.9994           0
     43959 TIP3     11348    TIP3     H1       HT       0.417000       1.00800           0
     43960 TIP3     11348    TIP3     H2       HT       0.417000       1.00800           0
     43961 TIP3     11349    TIP3     OH2      OT      -0.834000       15.9994           0
     43962 TIP3     11349    TIP3     H1       HT       0.417000       1.00800           0
     43963 TIP3     11349    TIP3     H2       HT       0.417000       1.00800           0
     43964 TIP3     11350    TIP3     OH2      OT      -0.834000       15.9994           0
     43965 TIP3     11350    TIP3     H1       HT       0.417000       1.00800           0
     43966 TIP3     11350    TIP3     H2       HT       0.417000       1.00800           0
     43967 TIP3     11351    TIP3     OH2      OT      -0.834000       15.9994           0
     43968 TIP3     11351    TIP3     H1       HT       0.417000       1.00800           0
     43969 TIP3     11351    TIP3     H2       HT       0.417000       1.00800           0
     43970 TIP3     11352    TIP3     OH2      OT      -0.834000       15.9994           0
     43971 TIP3     11352    TIP3     H1       HT       0.417000       1.00800           0
     43972 TIP3     11352    TIP3     H2       HT       0.417000       1.00800           0
     43973 TIP3     11353    TIP3     OH2      OT      -0.834000       15.9994           0
     43974 TIP3     11353    TIP3     H1       HT       0.417000       1.00800           0
     43975 TIP3     11353    TIP3     H2       HT       0.417000       1.00800           0
     43976 TIP3     11354    TIP3     OH2      OT      -0.834000       15.9994           0
     43977 TIP3     11354    TIP3     H1       HT       0.417000       1.00800           0
     43978 TIP3     11354    TIP3     H2       HT       0.417000       1.00800           0
     43979 TIP3     11355    TIP3     OH2      OT      -0.834000       15.9994           0
     43980 TIP3     11355    TIP3     H1       HT       0.417000       1.00800           0
     43981 TIP3     11355    TIP3     H2       HT       0.417000       1.00800           0
     43982 TIP3     11356    TIP3     OH2      OT      -0.834000       15.9994           0
     43983 TIP3     11356    TIP3     H1       HT       0.417000       1.00800           0
     43984 TIP3     11356    TIP3     H2       HT       0.417000       1.00800           0
     43985 TIP3     11357    TIP3     OH2      OT      -0.834000       15.9994           0
     43986 TIP3     11357    TIP3     H1       HT       0.417000       1.00800           0
     43987 TIP3     11357    TIP3     H2       HT       0.417000       1.00800           0
     43988 TIP3     11358    TIP3     OH2      OT      -0.834000       15.9994           0
     43989 TIP3     11358    TIP3     H1       HT       0.417000       1.00800           0
     43990 TIP3     11358    TIP3     H2       HT       0.417000       1.00800           0
     43991 TIP3     11359    TIP3     OH2      OT      -0.834000       15.9994           0
     43992 TIP3     11359    TIP3     H1       HT       0.417000       1.00800           0
     43993 TIP3     11359    TIP3     H2       HT       0.417000       1.00800           0
     43994 TIP3     11360    TIP3     OH2      OT      -0.834000       15.9994           0
     43995 TIP3     11360    TIP3     H1       HT       0.417000       1.00800           0
     43996 TIP3     11360    TIP3     H2       HT       0.417000       1.00800           0
     43997 TIP3     11361    TIP3     OH2      OT      -0.834000       15.9994           0
     43998 TIP3     11361    TIP3     H1       HT       0.417000       1.00800           0
     43999 TIP3     11361    TIP3     H2       HT       0.417000       1.00800           0
     44000 TIP3     11362    TIP3     OH2      OT      -0.834000       15.9994           0
     44001 TIP3     11362    TIP3     H1       HT       0.417000       1.00800           0
     44002 TIP3     11362    TIP3     H2       HT       0.417000       1.00800           0
     44003 TIP3     11363    TIP3     OH2      OT      -0.834000       15.9994           0
     44004 TIP3     11363    TIP3     H1       HT       0.417000       1.00800           0
     44005 TIP3     11363    TIP3     H2       HT       0.417000       1.00800           0
     44006 TIP3     11364    TIP3     OH2      OT      -0.834000       15.9994           0
     44007 TIP3     11364    TIP3     H1       HT       0.417000       1.00800           0
     44008 TIP3     11364    TIP3     H2       HT       0.417000       1.00800           0
     44009 TIP3     11365    TIP3     OH2      OT      -0.834000       15.9994           0
     44010 TIP3     11365    TIP3     H1       HT       0.417000       1.00800           0
     44011 TIP3     11365    TIP3     H2       HT       0.417000       1.00800           0
     44012 TIP3     11366    TIP3     OH2      OT      -0.834000       15.9994           0
     44013 TIP3     11366    TIP3     H1       HT       0.417000       1.00800           0
     44014 TIP3     11366    TIP3     H2       HT       0.417000       1.00800           0
     44015 TIP3     11367    TIP3     OH2      OT      -0.834000       15.9994           0
     44016 TIP3     11367    TIP3     H1       HT       0.417000       1.00800           0
     44017 TIP3     11367    TIP3     H2       HT       0.417000       1.00800           0
     44018 TIP3     11368    TIP3     OH2      OT      -0.834000       15.9994           0
     44019 TIP3     11368    TIP3     H1       HT       0.417000       1.00800           0
     44020 TIP3     11368    TIP3     H2       HT       0.417000       1.00800           0
     44021 TIP3     11369    TIP3     OH2      OT      -0.834000       15.9994           0
     44022 TIP3     11369    TIP3     H1       HT       0.417000       1.00800           0
     44023 TIP3     11369    TIP3     H2       HT       0.417000       1.00800           0
     44024 TIP3     11370    TIP3     OH2      OT      -0.834000       15.9994           0
     44025 TIP3     11370    TIP3     H1       HT       0.417000       1.00800           0
     44026 TIP3     11370    TIP3     H2       HT       0.417000       1.00800           0
     44027 TIP3     11371    TIP3     OH2      OT      -0.834000       15.9994           0
     44028 TIP3     11371    TIP3     H1       HT       0.417000       1.00800           0
     44029 TIP3     11371    TIP3     H2       HT       0.417000       1.00800           0
     44030 TIP3     11372    TIP3     OH2      OT      -0.834000       15.9994           0
     44031 TIP3     11372    TIP3     H1       HT       0.417000       1.00800           0
     44032 TIP3     11372    TIP3     H2       HT       0.417000       1.00800           0
     44033 TIP3     11373    TIP3     OH2      OT      -0.834000       15.9994           0
     44034 TIP3     11373    TIP3     H1       HT       0.417000       1.00800           0
     44035 TIP3     11373    TIP3     H2       HT       0.417000       1.00800           0
     44036 TIP3     11374    TIP3     OH2      OT      -0.834000       15.9994           0
     44037 TIP3     11374    TIP3     H1       HT       0.417000       1.00800           0
     44038 TIP3     11374    TIP3     H2       HT       0.417000       1.00800           0
     44039 TIP3     11375    TIP3     OH2      OT      -0.834000       15.9994           0
     44040 TIP3     11375    TIP3     H1       HT       0.417000       1.00800           0
     44041 TIP3     11375    TIP3     H2       HT       0.417000       1.00800           0
     44042 TIP3     11376    TIP3     OH2      OT      -0.834000       15.9994           0
     44043 TIP3     11376    TIP3     H1       HT       0.417000       1.00800           0
     44044 TIP3     11376    TIP3     H2       HT       0.417000       1.00800           0
     44045 TIP3     11377    TIP3     OH2      OT      -0.834000       15.9994           0
     44046 TIP3     11377    TIP3     H1       HT       0.417000       1.00800           0
     44047 TIP3     11377    TIP3     H2       HT       0.417000       1.00800           0
     44048 TIP3     11378    TIP3     OH2      OT      -0.834000       15.9994           0
     44049 TIP3     11378    TIP3     H1       HT       0.417000       1.00800           0
     44050 TIP3     11378    TIP3     H2       HT       0.417000       1.00800           0
     44051 TIP3     11379    TIP3     OH2      OT      -0.834000       15.9994           0
     44052 TIP3     11379    TIP3     H1       HT       0.417000       1.00800           0
     44053 TIP3     11379    TIP3     H2       HT       0.417000       1.00800           0
     44054 TIP3     11380    TIP3     OH2      OT      -0.834000       15.9994           0
     44055 TIP3     11380    TIP3     H1       HT       0.417000       1.00800           0
     44056 TIP3     11380    TIP3     H2       HT       0.417000       1.00800           0
     44057 TIP3     11381    TIP3     OH2      OT      -0.834000       15.9994           0
     44058 TIP3     11381    TIP3     H1       HT       0.417000       1.00800           0
     44059 TIP3     11381    TIP3     H2       HT       0.417000       1.00800           0
     44060 TIP3     11382    TIP3     OH2      OT      -0.834000       15.9994           0
     44061 TIP3     11382    TIP3     H1       HT       0.417000       1.00800           0
     44062 TIP3     11382    TIP3     H2       HT       0.417000       1.00800           0
     44063 TIP3     11383    TIP3     OH2      OT      -0.834000       15.9994           0
     44064 TIP3     11383    TIP3     H1       HT       0.417000       1.00800           0
     44065 TIP3     11383    TIP3     H2       HT       0.417000       1.00800           0
     44066 TIP3     11384    TIP3     OH2      OT      -0.834000       15.9994           0
     44067 TIP3     11384    TIP3     H1       HT       0.417000       1.00800           0
     44068 TIP3     11384    TIP3     H2       HT       0.417000       1.00800           0
     44069 TIP3     11385    TIP3     OH2      OT      -0.834000       15.9994           0
     44070 TIP3     11385    TIP3     H1       HT       0.417000       1.00800           0
     44071 TIP3     11385    TIP3     H2       HT       0.417000       1.00800           0
     44072 TIP3     11386    TIP3     OH2      OT      -0.834000       15.9994           0
     44073 TIP3     11386    TIP3     H1       HT       0.417000       1.00800           0
     44074 TIP3     11386    TIP3     H2       HT       0.417000       1.00800           0
     44075 TIP3     11387    TIP3     OH2      OT      -0.834000       15.9994           0
     44076 TIP3     11387    TIP3     H1       HT       0.417000       1.00800           0
     44077 TIP3     11387    TIP3     H2       HT       0.417000       1.00800           0
     44078 TIP3     11388    TIP3     OH2      OT      -0.834000       15.9994           0
     44079 TIP3     11388    TIP3     H1       HT       0.417000       1.00800           0
     44080 TIP3     11388    TIP3     H2       HT       0.417000       1.00800           0
     44081 TIP3     11389    TIP3     OH2      OT      -0.834000       15.9994           0
     44082 TIP3     11389    TIP3     H1       HT       0.417000       1.00800           0
     44083 TIP3     11389    TIP3     H2       HT       0.417000       1.00800           0
     44084 TIP3     11390    TIP3     OH2      OT      -0.834000       15.9994           0
     44085 TIP3     11390    TIP3     H1       HT       0.417000       1.00800           0
     44086 TIP3     11390    TIP3     H2       HT       0.417000       1.00800           0
     44087 TIP3     11391    TIP3     OH2      OT      -0.834000       15.9994           0
     44088 TIP3     11391    TIP3     H1       HT       0.417000       1.00800           0
     44089 TIP3     11391    TIP3     H2       HT       0.417000       1.00800           0
     44090 TIP3     11392    TIP3     OH2      OT      -0.834000       15.9994           0
     44091 TIP3     11392    TIP3     H1       HT       0.417000       1.00800           0
     44092 TIP3     11392    TIP3     H2       HT       0.417000       1.00800           0
     44093 TIP3     11393    TIP3     OH2      OT      -0.834000       15.9994           0
     44094 TIP3     11393    TIP3     H1       HT       0.417000       1.00800           0
     44095 TIP3     11393    TIP3     H2       HT       0.417000       1.00800           0
     44096 TIP3     11394    TIP3     OH2      OT      -0.834000       15.9994           0
     44097 TIP3     11394    TIP3     H1       HT       0.417000       1.00800           0
     44098 TIP3     11394    TIP3     H2       HT       0.417000       1.00800           0
     44099 TIP3     11395    TIP3     OH2      OT      -0.834000       15.9994           0
     44100 TIP3     11395    TIP3     H1       HT       0.417000       1.00800           0
     44101 TIP3     11395    TIP3     H2       HT       0.417000       1.00800           0
     44102 TIP3     11396    TIP3     OH2      OT      -0.834000       15.9994           0
     44103 TIP3     11396    TIP3     H1       HT       0.417000       1.00800           0
     44104 TIP3     11396    TIP3     H2       HT       0.417000       1.00800           0
     44105 TIP3     11397    TIP3     OH2      OT      -0.834000       15.9994           0
     44106 TIP3     11397    TIP3     H1       HT       0.417000       1.00800           0
     44107 TIP3     11397    TIP3     H2       HT       0.417000       1.00800           0
     44108 TIP3     11398    TIP3     OH2      OT      -0.834000       15.9994           0
     44109 TIP3     11398    TIP3     H1       HT       0.417000       1.00800           0
     44110 TIP3     11398    TIP3     H2       HT       0.417000       1.00800           0
     44111 TIP3     11399    TIP3     OH2      OT      -0.834000       15.9994           0
     44112 TIP3     11399    TIP3     H1       HT       0.417000       1.00800           0
     44113 TIP3     11399    TIP3     H2       HT       0.417000       1.00800           0
     44114 TIP3     11400    TIP3     OH2      OT      -0.834000       15.9994           0
     44115 TIP3     11400    TIP3     H1       HT       0.417000       1.00800           0
     44116 TIP3     11400    TIP3     H2       HT       0.417000       1.00800           0
     44117 TIP3     11401    TIP3     OH2      OT      -0.834000       15.9994           0
     44118 TIP3     11401    TIP3     H1       HT       0.417000       1.00800           0
     44119 TIP3     11401    TIP3     H2       HT       0.417000       1.00800           0
     44120 TIP3     11402    TIP3     OH2      OT      -0.834000       15.9994           0
     44121 TIP3     11402    TIP3     H1       HT       0.417000       1.00800           0
     44122 TIP3     11402    TIP3     H2       HT       0.417000       1.00800           0
     44123 TIP3     11403    TIP3     OH2      OT      -0.834000       15.9994           0
     44124 TIP3     11403    TIP3     H1       HT       0.417000       1.00800           0
     44125 TIP3     11403    TIP3     H2       HT       0.417000       1.00800           0
     44126 TIP3     11404    TIP3     OH2      OT      -0.834000       15.9994           0
     44127 TIP3     11404    TIP3     H1       HT       0.417000       1.00800           0
     44128 TIP3     11404    TIP3     H2       HT       0.417000       1.00800           0
     44129 TIP3     11405    TIP3     OH2      OT      -0.834000       15.9994           0
     44130 TIP3     11405    TIP3     H1       HT       0.417000       1.00800           0
     44131 TIP3     11405    TIP3     H2       HT       0.417000       1.00800           0
     44132 TIP3     11406    TIP3     OH2      OT      -0.834000       15.9994           0
     44133 TIP3     11406    TIP3     H1       HT       0.417000       1.00800           0
     44134 TIP3     11406    TIP3     H2       HT       0.417000       1.00800           0
     44135 TIP3     11407    TIP3     OH2      OT      -0.834000       15.9994           0
     44136 TIP3     11407    TIP3     H1       HT       0.417000       1.00800           0
     44137 TIP3     11407    TIP3     H2       HT       0.417000       1.00800           0
     44138 TIP3     11408    TIP3     OH2      OT      -0.834000       15.9994           0
     44139 TIP3     11408    TIP3     H1       HT       0.417000       1.00800           0
     44140 TIP3     11408    TIP3     H2       HT       0.417000       1.00800           0
     44141 TIP3     11409    TIP3     OH2      OT      -0.834000       15.9994           0
     44142 TIP3     11409    TIP3     H1       HT       0.417000       1.00800           0
     44143 TIP3     11409    TIP3     H2       HT       0.417000       1.00800           0
     44144 TIP3     11410    TIP3     OH2      OT      -0.834000       15.9994           0
     44145 TIP3     11410    TIP3     H1       HT       0.417000       1.00800           0
     44146 TIP3     11410    TIP3     H2       HT       0.417000       1.00800           0
     44147 TIP3     11411    TIP3     OH2      OT      -0.834000       15.9994           0
     44148 TIP3     11411    TIP3     H1       HT       0.417000       1.00800           0
     44149 TIP3     11411    TIP3     H2       HT       0.417000       1.00800           0
     44150 TIP3     11412    TIP3     OH2      OT      -0.834000       15.9994           0
     44151 TIP3     11412    TIP3     H1       HT       0.417000       1.00800           0
     44152 TIP3     11412    TIP3     H2       HT       0.417000       1.00800           0
     44153 TIP3     11413    TIP3     OH2      OT      -0.834000       15.9994           0
     44154 TIP3     11413    TIP3     H1       HT       0.417000       1.00800           0
     44155 TIP3     11413    TIP3     H2       HT       0.417000       1.00800           0
     44156 TIP3     11414    TIP3     OH2      OT      -0.834000       15.9994           0
     44157 TIP3     11414    TIP3     H1       HT       0.417000       1.00800           0
     44158 TIP3     11414    TIP3     H2       HT       0.417000       1.00800           0
     44159 TIP3     11415    TIP3     OH2      OT      -0.834000       15.9994           0
     44160 TIP3     11415    TIP3     H1       HT       0.417000       1.00800           0
     44161 TIP3     11415    TIP3     H2       HT       0.417000       1.00800           0
     44162 TIP3     11416    TIP3     OH2      OT      -0.834000       15.9994           0
     44163 TIP3     11416    TIP3     H1       HT       0.417000       1.00800           0
     44164 TIP3     11416    TIP3     H2       HT       0.417000       1.00800           0
     44165 TIP3     11417    TIP3     OH2      OT      -0.834000       15.9994           0
     44166 TIP3     11417    TIP3     H1       HT       0.417000       1.00800           0
     44167 TIP3     11417    TIP3     H2       HT       0.417000       1.00800           0
     44168 TIP3     11418    TIP3     OH2      OT      -0.834000       15.9994           0
     44169 TIP3     11418    TIP3     H1       HT       0.417000       1.00800           0
     44170 TIP3     11418    TIP3     H2       HT       0.417000       1.00800           0
     44171 TIP3     11419    TIP3     OH2      OT      -0.834000       15.9994           0
     44172 TIP3     11419    TIP3     H1       HT       0.417000       1.00800           0
     44173 TIP3     11419    TIP3     H2       HT       0.417000       1.00800           0
     44174 TIP3     11420    TIP3     OH2      OT      -0.834000       15.9994           0
     44175 TIP3     11420    TIP3     H1       HT       0.417000       1.00800           0
     44176 TIP3     11420    TIP3     H2       HT       0.417000       1.00800           0
     44177 TIP3     11421    TIP3     OH2      OT      -0.834000       15.9994           0
     44178 TIP3     11421    TIP3     H1       HT       0.417000       1.00800           0
     44179 TIP3     11421    TIP3     H2       HT       0.417000       1.00800           0
     44180 TIP3     11422    TIP3     OH2      OT      -0.834000       15.9994           0
     44181 TIP3     11422    TIP3     H1       HT       0.417000       1.00800           0
     44182 TIP3     11422    TIP3     H2       HT       0.417000       1.00800           0
     44183 TIP3     11423    TIP3     OH2      OT      -0.834000       15.9994           0
     44184 TIP3     11423    TIP3     H1       HT       0.417000       1.00800           0
     44185 TIP3     11423    TIP3     H2       HT       0.417000       1.00800           0
     44186 TIP3     11424    TIP3     OH2      OT      -0.834000       15.9994           0
     44187 TIP3     11424    TIP3     H1       HT       0.417000       1.00800           0
     44188 TIP3     11424    TIP3     H2       HT       0.417000       1.00800           0
     44189 TIP3     11425    TIP3     OH2      OT      -0.834000       15.9994           0
     44190 TIP3     11425    TIP3     H1       HT       0.417000       1.00800           0
     44191 TIP3     11425    TIP3     H2       HT       0.417000       1.00800           0
     44192 TIP3     11426    TIP3     OH2      OT      -0.834000       15.9994           0
     44193 TIP3     11426    TIP3     H1       HT       0.417000       1.00800           0
     44194 TIP3     11426    TIP3     H2       HT       0.417000       1.00800           0
     44195 TIP3     11427    TIP3     OH2      OT      -0.834000       15.9994           0
     44196 TIP3     11427    TIP3     H1       HT       0.417000       1.00800           0
     44197 TIP3     11427    TIP3     H2       HT       0.417000       1.00800           0
     44198 TIP3     11428    TIP3     OH2      OT      -0.834000       15.9994           0
     44199 TIP3     11428    TIP3     H1       HT       0.417000       1.00800           0
     44200 TIP3     11428    TIP3     H2       HT       0.417000       1.00800           0
     44201 TIP3     11429    TIP3     OH2      OT      -0.834000       15.9994           0
     44202 TIP3     11429    TIP3     H1       HT       0.417000       1.00800           0
     44203 TIP3     11429    TIP3     H2       HT       0.417000       1.00800           0
     44204 TIP3     11430    TIP3     OH2      OT      -0.834000       15.9994           0
     44205 TIP3     11430    TIP3     H1       HT       0.417000       1.00800           0
     44206 TIP3     11430    TIP3     H2       HT       0.417000       1.00800           0
     44207 TIP3     11431    TIP3     OH2      OT      -0.834000       15.9994           0
     44208 TIP3     11431    TIP3     H1       HT       0.417000       1.00800           0
     44209 TIP3     11431    TIP3     H2       HT       0.417000       1.00800           0
     44210 TIP3     11432    TIP3     OH2      OT      -0.834000       15.9994           0
     44211 TIP3     11432    TIP3     H1       HT       0.417000       1.00800           0
     44212 TIP3     11432    TIP3     H2       HT       0.417000       1.00800           0
     44213 TIP3     11433    TIP3     OH2      OT      -0.834000       15.9994           0
     44214 TIP3     11433    TIP3     H1       HT       0.417000       1.00800           0
     44215 TIP3     11433    TIP3     H2       HT       0.417000       1.00800           0
     44216 TIP3     11434    TIP3     OH2      OT      -0.834000       15.9994           0
     44217 TIP3     11434    TIP3     H1       HT       0.417000       1.00800           0
     44218 TIP3     11434    TIP3     H2       HT       0.417000       1.00800           0
     44219 TIP3     11435    TIP3     OH2      OT      -0.834000       15.9994           0
     44220 TIP3     11435    TIP3     H1       HT       0.417000       1.00800           0
     44221 TIP3     11435    TIP3     H2       HT       0.417000       1.00800           0
     44222 TIP3     11436    TIP3     OH2      OT      -0.834000       15.9994           0
     44223 TIP3     11436    TIP3     H1       HT       0.417000       1.00800           0
     44224 TIP3     11436    TIP3     H2       HT       0.417000       1.00800           0
     44225 TIP3     11437    TIP3     OH2      OT      -0.834000       15.9994           0
     44226 TIP3     11437    TIP3     H1       HT       0.417000       1.00800           0
     44227 TIP3     11437    TIP3     H2       HT       0.417000       1.00800           0
     44228 TIP3     11438    TIP3     OH2      OT      -0.834000       15.9994           0
     44229 TIP3     11438    TIP3     H1       HT       0.417000       1.00800           0
     44230 TIP3     11438    TIP3     H2       HT       0.417000       1.00800           0
     44231 TIP3     11439    TIP3     OH2      OT      -0.834000       15.9994           0
     44232 TIP3     11439    TIP3     H1       HT       0.417000       1.00800           0
     44233 TIP3     11439    TIP3     H2       HT       0.417000       1.00800           0
     44234 TIP3     11440    TIP3     OH2      OT      -0.834000       15.9994           0
     44235 TIP3     11440    TIP3     H1       HT       0.417000       1.00800           0
     44236 TIP3     11440    TIP3     H2       HT       0.417000       1.00800           0
     44237 TIP3     11441    TIP3     OH2      OT      -0.834000       15.9994           0
     44238 TIP3     11441    TIP3     H1       HT       0.417000       1.00800           0
     44239 TIP3     11441    TIP3     H2       HT       0.417000       1.00800           0
     44240 TIP3     11442    TIP3     OH2      OT      -0.834000       15.9994           0
     44241 TIP3     11442    TIP3     H1       HT       0.417000       1.00800           0
     44242 TIP3     11442    TIP3     H2       HT       0.417000       1.00800           0
     44243 TIP3     11443    TIP3     OH2      OT      -0.834000       15.9994           0
     44244 TIP3     11443    TIP3     H1       HT       0.417000       1.00800           0
     44245 TIP3     11443    TIP3     H2       HT       0.417000       1.00800           0
     44246 TIP3     11444    TIP3     OH2      OT      -0.834000       15.9994           0
     44247 TIP3     11444    TIP3     H1       HT       0.417000       1.00800           0
     44248 TIP3     11444    TIP3     H2       HT       0.417000       1.00800           0
     44249 TIP3     11445    TIP3     OH2      OT      -0.834000       15.9994           0
     44250 TIP3     11445    TIP3     H1       HT       0.417000       1.00800           0
     44251 TIP3     11445    TIP3     H2       HT       0.417000       1.00800           0
     44252 TIP3     11446    TIP3     OH2      OT      -0.834000       15.9994           0
     44253 TIP3     11446    TIP3     H1       HT       0.417000       1.00800           0
     44254 TIP3     11446    TIP3     H2       HT       0.417000       1.00800           0
     44255 TIP3     11447    TIP3     OH2      OT      -0.834000       15.9994           0
     44256 TIP3     11447    TIP3     H1       HT       0.417000       1.00800           0
     44257 TIP3     11447    TIP3     H2       HT       0.417000       1.00800           0
     44258 TIP3     11448    TIP3     OH2      OT      -0.834000       15.9994           0
     44259 TIP3     11448    TIP3     H1       HT       0.417000       1.00800           0
     44260 TIP3     11448    TIP3     H2       HT       0.417000       1.00800           0
     44261 TIP3     11449    TIP3     OH2      OT      -0.834000       15.9994           0
     44262 TIP3     11449    TIP3     H1       HT       0.417000       1.00800           0
     44263 TIP3     11449    TIP3     H2       HT       0.417000       1.00800           0
     44264 TIP3     11450    TIP3     OH2      OT      -0.834000       15.9994           0
     44265 TIP3     11450    TIP3     H1       HT       0.417000       1.00800           0
     44266 TIP3     11450    TIP3     H2       HT       0.417000       1.00800           0
     44267 TIP3     11451    TIP3     OH2      OT      -0.834000       15.9994           0
     44268 TIP3     11451    TIP3     H1       HT       0.417000       1.00800           0
     44269 TIP3     11451    TIP3     H2       HT       0.417000       1.00800           0
     44270 TIP3     11452    TIP3     OH2      OT      -0.834000       15.9994           0
     44271 TIP3     11452    TIP3     H1       HT       0.417000       1.00800           0
     44272 TIP3     11452    TIP3     H2       HT       0.417000       1.00800           0
     44273 TIP3     11453    TIP3     OH2      OT      -0.834000       15.9994           0
     44274 TIP3     11453    TIP3     H1       HT       0.417000       1.00800           0
     44275 TIP3     11453    TIP3     H2       HT       0.417000       1.00800           0
     44276 TIP3     11454    TIP3     OH2      OT      -0.834000       15.9994           0
     44277 TIP3     11454    TIP3     H1       HT       0.417000       1.00800           0
     44278 TIP3     11454    TIP3     H2       HT       0.417000       1.00800           0
     44279 TIP3     11455    TIP3     OH2      OT      -0.834000       15.9994           0
     44280 TIP3     11455    TIP3     H1       HT       0.417000       1.00800           0
     44281 TIP3     11455    TIP3     H2       HT       0.417000       1.00800           0
     44282 TIP3     11456    TIP3     OH2      OT      -0.834000       15.9994           0
     44283 TIP3     11456    TIP3     H1       HT       0.417000       1.00800           0
     44284 TIP3     11456    TIP3     H2       HT       0.417000       1.00800           0
     44285 TIP3     11457    TIP3     OH2      OT      -0.834000       15.9994           0
     44286 TIP3     11457    TIP3     H1       HT       0.417000       1.00800           0
     44287 TIP3     11457    TIP3     H2       HT       0.417000       1.00800           0
     44288 TIP3     11458    TIP3     OH2      OT      -0.834000       15.9994           0
     44289 TIP3     11458    TIP3     H1       HT       0.417000       1.00800           0
     44290 TIP3     11458    TIP3     H2       HT       0.417000       1.00800           0
     44291 TIP3     11459    TIP3     OH2      OT      -0.834000       15.9994           0
     44292 TIP3     11459    TIP3     H1       HT       0.417000       1.00800           0
     44293 TIP3     11459    TIP3     H2       HT       0.417000       1.00800           0
     44294 TIP3     11460    TIP3     OH2      OT      -0.834000       15.9994           0
     44295 TIP3     11460    TIP3     H1       HT       0.417000       1.00800           0
     44296 TIP3     11460    TIP3     H2       HT       0.417000       1.00800           0
     44297 TIP3     11461    TIP3     OH2      OT      -0.834000       15.9994           0
     44298 TIP3     11461    TIP3     H1       HT       0.417000       1.00800           0
     44299 TIP3     11461    TIP3     H2       HT       0.417000       1.00800           0
     44300 TIP3     11462    TIP3     OH2      OT      -0.834000       15.9994           0
     44301 TIP3     11462    TIP3     H1       HT       0.417000       1.00800           0
     44302 TIP3     11462    TIP3     H2       HT       0.417000       1.00800           0
     44303 TIP3     11463    TIP3     OH2      OT      -0.834000       15.9994           0
     44304 TIP3     11463    TIP3     H1       HT       0.417000       1.00800           0
     44305 TIP3     11463    TIP3     H2       HT       0.417000       1.00800           0
     44306 TIP3     11464    TIP3     OH2      OT      -0.834000       15.9994           0
     44307 TIP3     11464    TIP3     H1       HT       0.417000       1.00800           0
     44308 TIP3     11464    TIP3     H2       HT       0.417000       1.00800           0
     44309 TIP3     11465    TIP3     OH2      OT      -0.834000       15.9994           0
     44310 TIP3     11465    TIP3     H1       HT       0.417000       1.00800           0
     44311 TIP3     11465    TIP3     H2       HT       0.417000       1.00800           0
     44312 TIP3     11466    TIP3     OH2      OT      -0.834000       15.9994           0
     44313 TIP3     11466    TIP3     H1       HT       0.417000       1.00800           0
     44314 TIP3     11466    TIP3     H2       HT       0.417000       1.00800           0
     44315 TIP3     11467    TIP3     OH2      OT      -0.834000       15.9994           0
     44316 TIP3     11467    TIP3     H1       HT       0.417000       1.00800           0
     44317 TIP3     11467    TIP3     H2       HT       0.417000       1.00800           0
     44318 TIP3     11468    TIP3     OH2      OT      -0.834000       15.9994           0
     44319 TIP3     11468    TIP3     H1       HT       0.417000       1.00800           0
     44320 TIP3     11468    TIP3     H2       HT       0.417000       1.00800           0
     44321 TIP3     11469    TIP3     OH2      OT      -0.834000       15.9994           0
     44322 TIP3     11469    TIP3     H1       HT       0.417000       1.00800           0
     44323 TIP3     11469    TIP3     H2       HT       0.417000       1.00800           0
     44324 TIP3     11470    TIP3     OH2      OT      -0.834000       15.9994           0
     44325 TIP3     11470    TIP3     H1       HT       0.417000       1.00800           0
     44326 TIP3     11470    TIP3     H2       HT       0.417000       1.00800           0
     44327 TIP3     11471    TIP3     OH2      OT      -0.834000       15.9994           0
     44328 TIP3     11471    TIP3     H1       HT       0.417000       1.00800           0
     44329 TIP3     11471    TIP3     H2       HT       0.417000       1.00800           0
     44330 TIP3     11472    TIP3     OH2      OT      -0.834000       15.9994           0
     44331 TIP3     11472    TIP3     H1       HT       0.417000       1.00800           0
     44332 TIP3     11472    TIP3     H2       HT       0.417000       1.00800           0
     44333 TIP3     11473    TIP3     OH2      OT      -0.834000       15.9994           0
     44334 TIP3     11473    TIP3     H1       HT       0.417000       1.00800           0
     44335 TIP3     11473    TIP3     H2       HT       0.417000       1.00800           0
     44336 TIP3     11474    TIP3     OH2      OT      -0.834000       15.9994           0
     44337 TIP3     11474    TIP3     H1       HT       0.417000       1.00800           0
     44338 TIP3     11474    TIP3     H2       HT       0.417000       1.00800           0
     44339 TIP3     11475    TIP3     OH2      OT      -0.834000       15.9994           0
     44340 TIP3     11475    TIP3     H1       HT       0.417000       1.00800           0
     44341 TIP3     11475    TIP3     H2       HT       0.417000       1.00800           0
     44342 TIP3     11476    TIP3     OH2      OT      -0.834000       15.9994           0
     44343 TIP3     11476    TIP3     H1       HT       0.417000       1.00800           0
     44344 TIP3     11476    TIP3     H2       HT       0.417000       1.00800           0
     44345 TIP3     11477    TIP3     OH2      OT      -0.834000       15.9994           0
     44346 TIP3     11477    TIP3     H1       HT       0.417000       1.00800           0
     44347 TIP3     11477    TIP3     H2       HT       0.417000       1.00800           0
     44348 TIP3     11478    TIP3     OH2      OT      -0.834000       15.9994           0
     44349 TIP3     11478    TIP3     H1       HT       0.417000       1.00800           0
     44350 TIP3     11478    TIP3     H2       HT       0.417000       1.00800           0
     44351 TIP3     11479    TIP3     OH2      OT      -0.834000       15.9994           0
     44352 TIP3     11479    TIP3     H1       HT       0.417000       1.00800           0
     44353 TIP3     11479    TIP3     H2       HT       0.417000       1.00800           0
     44354 TIP3     11480    TIP3     OH2      OT      -0.834000       15.9994           0
     44355 TIP3     11480    TIP3     H1       HT       0.417000       1.00800           0
     44356 TIP3     11480    TIP3     H2       HT       0.417000       1.00800           0
     44357 TIP3     11481    TIP3     OH2      OT      -0.834000       15.9994           0
     44358 TIP3     11481    TIP3     H1       HT       0.417000       1.00800           0
     44359 TIP3     11481    TIP3     H2       HT       0.417000       1.00800           0
     44360 TIP3     11482    TIP3     OH2      OT      -0.834000       15.9994           0
     44361 TIP3     11482    TIP3     H1       HT       0.417000       1.00800           0
     44362 TIP3     11482    TIP3     H2       HT       0.417000       1.00800           0
     44363 TIP3     11483    TIP3     OH2      OT      -0.834000       15.9994           0
     44364 TIP3     11483    TIP3     H1       HT       0.417000       1.00800           0
     44365 TIP3     11483    TIP3     H2       HT       0.417000       1.00800           0
     44366 TIP3     11484    TIP3     OH2      OT      -0.834000       15.9994           0
     44367 TIP3     11484    TIP3     H1       HT       0.417000       1.00800           0
     44368 TIP3     11484    TIP3     H2       HT       0.417000       1.00800           0
     44369 TIP3     11485    TIP3     OH2      OT      -0.834000       15.9994           0
     44370 TIP3     11485    TIP3     H1       HT       0.417000       1.00800           0
     44371 TIP3     11485    TIP3     H2       HT       0.417000       1.00800           0
     44372 TIP3     11486    TIP3     OH2      OT      -0.834000       15.9994           0
     44373 TIP3     11486    TIP3     H1       HT       0.417000       1.00800           0
     44374 TIP3     11486    TIP3     H2       HT       0.417000       1.00800           0
     44375 TIP3     11487    TIP3     OH2      OT      -0.834000       15.9994           0
     44376 TIP3     11487    TIP3     H1       HT       0.417000       1.00800           0
     44377 TIP3     11487    TIP3     H2       HT       0.417000       1.00800           0
     44378 TIP3     11488    TIP3     OH2      OT      -0.834000       15.9994           0
     44379 TIP3     11488    TIP3     H1       HT       0.417000       1.00800           0
     44380 TIP3     11488    TIP3     H2       HT       0.417000       1.00800           0
     44381 TIP3     11489    TIP3     OH2      OT      -0.834000       15.9994           0
     44382 TIP3     11489    TIP3     H1       HT       0.417000       1.00800           0
     44383 TIP3     11489    TIP3     H2       HT       0.417000       1.00800           0
     44384 TIP3     11490    TIP3     OH2      OT      -0.834000       15.9994           0
     44385 TIP3     11490    TIP3     H1       HT       0.417000       1.00800           0
     44386 TIP3     11490    TIP3     H2       HT       0.417000       1.00800           0
     44387 TIP3     11491    TIP3     OH2      OT      -0.834000       15.9994           0
     44388 TIP3     11491    TIP3     H1       HT       0.417000       1.00800           0
     44389 TIP3     11491    TIP3     H2       HT       0.417000       1.00800           0
     44390 TIP3     11492    TIP3     OH2      OT      -0.834000       15.9994           0
     44391 TIP3     11492    TIP3     H1       HT       0.417000       1.00800           0
     44392 TIP3     11492    TIP3     H2       HT       0.417000       1.00800           0
     44393 TIP3     11493    TIP3     OH2      OT      -0.834000       15.9994           0
     44394 TIP3     11493    TIP3     H1       HT       0.417000       1.00800           0
     44395 TIP3     11493    TIP3     H2       HT       0.417000       1.00800           0
     44396 TIP3     11494    TIP3     OH2      OT      -0.834000       15.9994           0
     44397 TIP3     11494    TIP3     H1       HT       0.417000       1.00800           0
     44398 TIP3     11494    TIP3     H2       HT       0.417000       1.00800           0
     44399 TIP3     11495    TIP3     OH2      OT      -0.834000       15.9994           0
     44400 TIP3     11495    TIP3     H1       HT       0.417000       1.00800           0
     44401 TIP3     11495    TIP3     H2       HT       0.417000       1.00800           0
     44402 TIP3     11496    TIP3     OH2      OT      -0.834000       15.9994           0
     44403 TIP3     11496    TIP3     H1       HT       0.417000       1.00800           0
     44404 TIP3     11496    TIP3     H2       HT       0.417000       1.00800           0
     44405 TIP3     11497    TIP3     OH2      OT      -0.834000       15.9994           0
     44406 TIP3     11497    TIP3     H1       HT       0.417000       1.00800           0
     44407 TIP3     11497    TIP3     H2       HT       0.417000       1.00800           0
     44408 TIP3     11498    TIP3     OH2      OT      -0.834000       15.9994           0
     44409 TIP3     11498    TIP3     H1       HT       0.417000       1.00800           0
     44410 TIP3     11498    TIP3     H2       HT       0.417000       1.00800           0
     44411 TIP3     11499    TIP3     OH2      OT      -0.834000       15.9994           0
     44412 TIP3     11499    TIP3     H1       HT       0.417000       1.00800           0
     44413 TIP3     11499    TIP3     H2       HT       0.417000       1.00800           0
     44414 TIP3     11500    TIP3     OH2      OT      -0.834000       15.9994           0
     44415 TIP3     11500    TIP3     H1       HT       0.417000       1.00800           0
     44416 TIP3     11500    TIP3     H2       HT       0.417000       1.00800           0
     44417 TIP3     11501    TIP3     OH2      OT      -0.834000       15.9994           0
     44418 TIP3     11501    TIP3     H1       HT       0.417000       1.00800           0
     44419 TIP3     11501    TIP3     H2       HT       0.417000       1.00800           0
     44420 TIP3     11502    TIP3     OH2      OT      -0.834000       15.9994           0
     44421 TIP3     11502    TIP3     H1       HT       0.417000       1.00800           0
     44422 TIP3     11502    TIP3     H2       HT       0.417000       1.00800           0
     44423 TIP3     11503    TIP3     OH2      OT      -0.834000       15.9994           0
     44424 TIP3     11503    TIP3     H1       HT       0.417000       1.00800           0
     44425 TIP3     11503    TIP3     H2       HT       0.417000       1.00800           0
     44426 TIP3     11504    TIP3     OH2      OT      -0.834000       15.9994           0
     44427 TIP3     11504    TIP3     H1       HT       0.417000       1.00800           0
     44428 TIP3     11504    TIP3     H2       HT       0.417000       1.00800           0
     44429 TIP3     11505    TIP3     OH2      OT      -0.834000       15.9994           0
     44430 TIP3     11505    TIP3     H1       HT       0.417000       1.00800           0
     44431 TIP3     11505    TIP3     H2       HT       0.417000       1.00800           0
     44432 TIP3     11506    TIP3     OH2      OT      -0.834000       15.9994           0
     44433 TIP3     11506    TIP3     H1       HT       0.417000       1.00800           0
     44434 TIP3     11506    TIP3     H2       HT       0.417000       1.00800           0
     44435 TIP3     11507    TIP3     OH2      OT      -0.834000       15.9994           0
     44436 TIP3     11507    TIP3     H1       HT       0.417000       1.00800           0
     44437 TIP3     11507    TIP3     H2       HT       0.417000       1.00800           0
     44438 TIP3     11508    TIP3     OH2      OT      -0.834000       15.9994           0
     44439 TIP3     11508    TIP3     H1       HT       0.417000       1.00800           0
     44440 TIP3     11508    TIP3     H2       HT       0.417000       1.00800           0
     44441 TIP3     11509    TIP3     OH2      OT      -0.834000       15.9994           0
     44442 TIP3     11509    TIP3     H1       HT       0.417000       1.00800           0
     44443 TIP3     11509    TIP3     H2       HT       0.417000       1.00800           0
     44444 TIP3     11510    TIP3     OH2      OT      -0.834000       15.9994           0
     44445 TIP3     11510    TIP3     H1       HT       0.417000       1.00800           0
     44446 TIP3     11510    TIP3     H2       HT       0.417000       1.00800           0
     44447 TIP3     11511    TIP3     OH2      OT      -0.834000       15.9994           0
     44448 TIP3     11511    TIP3     H1       HT       0.417000       1.00800           0
     44449 TIP3     11511    TIP3     H2       HT       0.417000       1.00800           0
     44450 TIP3     11512    TIP3     OH2      OT      -0.834000       15.9994           0
     44451 TIP3     11512    TIP3     H1       HT       0.417000       1.00800           0
     44452 TIP3     11512    TIP3     H2       HT       0.417000       1.00800           0
     44453 TIP3     11513    TIP3     OH2      OT      -0.834000       15.9994           0
     44454 TIP3     11513    TIP3     H1       HT       0.417000       1.00800           0
     44455 TIP3     11513    TIP3     H2       HT       0.417000       1.00800           0
     44456 TIP3     11514    TIP3     OH2      OT      -0.834000       15.9994           0
     44457 TIP3     11514    TIP3     H1       HT       0.417000       1.00800           0
     44458 TIP3     11514    TIP3     H2       HT       0.417000       1.00800           0
     44459 TIP3     11515    TIP3     OH2      OT      -0.834000       15.9994           0
     44460 TIP3     11515    TIP3     H1       HT       0.417000       1.00800           0
     44461 TIP3     11515    TIP3     H2       HT       0.417000       1.00800           0
     44462 TIP3     11516    TIP3     OH2      OT      -0.834000       15.9994           0
     44463 TIP3     11516    TIP3     H1       HT       0.417000       1.00800           0
     44464 TIP3     11516    TIP3     H2       HT       0.417000       1.00800           0
     44465 TIP3     11517    TIP3     OH2      OT      -0.834000       15.9994           0
     44466 TIP3     11517    TIP3     H1       HT       0.417000       1.00800           0
     44467 TIP3     11517    TIP3     H2       HT       0.417000       1.00800           0
     44468 TIP3     11518    TIP3     OH2      OT      -0.834000       15.9994           0
     44469 TIP3     11518    TIP3     H1       HT       0.417000       1.00800           0
     44470 TIP3     11518    TIP3     H2       HT       0.417000       1.00800           0
     44471 TIP3     11519    TIP3     OH2      OT      -0.834000       15.9994           0
     44472 TIP3     11519    TIP3     H1       HT       0.417000       1.00800           0
     44473 TIP3     11519    TIP3     H2       HT       0.417000       1.00800           0
     44474 TIP3     11520    TIP3     OH2      OT      -0.834000       15.9994           0
     44475 TIP3     11520    TIP3     H1       HT       0.417000       1.00800           0
     44476 TIP3     11520    TIP3     H2       HT       0.417000       1.00800           0
     44477 TIP3     11521    TIP3     OH2      OT      -0.834000       15.9994           0
     44478 TIP3     11521    TIP3     H1       HT       0.417000       1.00800           0
     44479 TIP3     11521    TIP3     H2       HT       0.417000       1.00800           0
     44480 TIP3     11522    TIP3     OH2      OT      -0.834000       15.9994           0
     44481 TIP3     11522    TIP3     H1       HT       0.417000       1.00800           0
     44482 TIP3     11522    TIP3     H2       HT       0.417000       1.00800           0
     44483 TIP3     11523    TIP3     OH2      OT      -0.834000       15.9994           0
     44484 TIP3     11523    TIP3     H1       HT       0.417000       1.00800           0
     44485 TIP3     11523    TIP3     H2       HT       0.417000       1.00800           0
     44486 TIP3     11524    TIP3     OH2      OT      -0.834000       15.9994           0
     44487 TIP3     11524    TIP3     H1       HT       0.417000       1.00800           0
     44488 TIP3     11524    TIP3     H2       HT       0.417000       1.00800           0
     44489 TIP3     11525    TIP3     OH2      OT      -0.834000       15.9994           0
     44490 TIP3     11525    TIP3     H1       HT       0.417000       1.00800           0
     44491 TIP3     11525    TIP3     H2       HT       0.417000       1.00800           0
     44492 TIP3     11526    TIP3     OH2      OT      -0.834000       15.9994           0
     44493 TIP3     11526    TIP3     H1       HT       0.417000       1.00800           0
     44494 TIP3     11526    TIP3     H2       HT       0.417000       1.00800           0
     44495 TIP3     11527    TIP3     OH2      OT      -0.834000       15.9994           0
     44496 TIP3     11527    TIP3     H1       HT       0.417000       1.00800           0
     44497 TIP3     11527    TIP3     H2       HT       0.417000       1.00800           0
     44498 TIP3     11528    TIP3     OH2      OT      -0.834000       15.9994           0
     44499 TIP3     11528    TIP3     H1       HT       0.417000       1.00800           0
     44500 TIP3     11528    TIP3     H2       HT       0.417000       1.00800           0
     44501 TIP3     11529    TIP3     OH2      OT      -0.834000       15.9994           0
     44502 TIP3     11529    TIP3     H1       HT       0.417000       1.00800           0
     44503 TIP3     11529    TIP3     H2       HT       0.417000       1.00800           0
     44504 TIP3     11530    TIP3     OH2      OT      -0.834000       15.9994           0
     44505 TIP3     11530    TIP3     H1       HT       0.417000       1.00800           0
     44506 TIP3     11530    TIP3     H2       HT       0.417000       1.00800           0
     44507 TIP3     11531    TIP3     OH2      OT      -0.834000       15.9994           0
     44508 TIP3     11531    TIP3     H1       HT       0.417000       1.00800           0
     44509 TIP3     11531    TIP3     H2       HT       0.417000       1.00800           0
     44510 TIP3     11532    TIP3     OH2      OT      -0.834000       15.9994           0
     44511 TIP3     11532    TIP3     H1       HT       0.417000       1.00800           0
     44512 TIP3     11532    TIP3     H2       HT       0.417000       1.00800           0
     44513 TIP3     11533    TIP3     OH2      OT      -0.834000       15.9994           0
     44514 TIP3     11533    TIP3     H1       HT       0.417000       1.00800           0
     44515 TIP3     11533    TIP3     H2       HT       0.417000       1.00800           0
     44516 TIP3     11534    TIP3     OH2      OT      -0.834000       15.9994           0
     44517 TIP3     11534    TIP3     H1       HT       0.417000       1.00800           0
     44518 TIP3     11534    TIP3     H2       HT       0.417000       1.00800           0
     44519 TIP3     11535    TIP3     OH2      OT      -0.834000       15.9994           0
     44520 TIP3     11535    TIP3     H1       HT       0.417000       1.00800           0
     44521 TIP3     11535    TIP3     H2       HT       0.417000       1.00800           0
     44522 TIP3     11536    TIP3     OH2      OT      -0.834000       15.9994           0
     44523 TIP3     11536    TIP3     H1       HT       0.417000       1.00800           0
     44524 TIP3     11536    TIP3     H2       HT       0.417000       1.00800           0
     44525 TIP3     11537    TIP3     OH2      OT      -0.834000       15.9994           0
     44526 TIP3     11537    TIP3     H1       HT       0.417000       1.00800           0
     44527 TIP3     11537    TIP3     H2       HT       0.417000       1.00800           0
     44528 TIP3     11538    TIP3     OH2      OT      -0.834000       15.9994           0
     44529 TIP3     11538    TIP3     H1       HT       0.417000       1.00800           0
     44530 TIP3     11538    TIP3     H2       HT       0.417000       1.00800           0
     44531 TIP3     11539    TIP3     OH2      OT      -0.834000       15.9994           0
     44532 TIP3     11539    TIP3     H1       HT       0.417000       1.00800           0
     44533 TIP3     11539    TIP3     H2       HT       0.417000       1.00800           0
     44534 TIP3     11540    TIP3     OH2      OT      -0.834000       15.9994           0
     44535 TIP3     11540    TIP3     H1       HT       0.417000       1.00800           0
     44536 TIP3     11540    TIP3     H2       HT       0.417000       1.00800           0
     44537 TIP3     11541    TIP3     OH2      OT      -0.834000       15.9994           0
     44538 TIP3     11541    TIP3     H1       HT       0.417000       1.00800           0
     44539 TIP3     11541    TIP3     H2       HT       0.417000       1.00800           0
     44540 TIP3     11542    TIP3     OH2      OT      -0.834000       15.9994           0
     44541 TIP3     11542    TIP3     H1       HT       0.417000       1.00800           0
     44542 TIP3     11542    TIP3     H2       HT       0.417000       1.00800           0
     44543 TIP3     11543    TIP3     OH2      OT      -0.834000       15.9994           0
     44544 TIP3     11543    TIP3     H1       HT       0.417000       1.00800           0
     44545 TIP3     11543    TIP3     H2       HT       0.417000       1.00800           0
     44546 TIP3     11544    TIP3     OH2      OT      -0.834000       15.9994           0
     44547 TIP3     11544    TIP3     H1       HT       0.417000       1.00800           0
     44548 TIP3     11544    TIP3     H2       HT       0.417000       1.00800           0
     44549 TIP3     11545    TIP3     OH2      OT      -0.834000       15.9994           0
     44550 TIP3     11545    TIP3     H1       HT       0.417000       1.00800           0
     44551 TIP3     11545    TIP3     H2       HT       0.417000       1.00800           0
     44552 TIP3     11546    TIP3     OH2      OT      -0.834000       15.9994           0
     44553 TIP3     11546    TIP3     H1       HT       0.417000       1.00800           0
     44554 TIP3     11546    TIP3     H2       HT       0.417000       1.00800           0
     44555 TIP3     11547    TIP3     OH2      OT      -0.834000       15.9994           0
     44556 TIP3     11547    TIP3     H1       HT       0.417000       1.00800           0
     44557 TIP3     11547    TIP3     H2       HT       0.417000       1.00800           0
     44558 TIP3     11548    TIP3     OH2      OT      -0.834000       15.9994           0
     44559 TIP3     11548    TIP3     H1       HT       0.417000       1.00800           0
     44560 TIP3     11548    TIP3     H2       HT       0.417000       1.00800           0
     44561 TIP3     11549    TIP3     OH2      OT      -0.834000       15.9994           0
     44562 TIP3     11549    TIP3     H1       HT       0.417000       1.00800           0
     44563 TIP3     11549    TIP3     H2       HT       0.417000       1.00800           0
     44564 TIP3     11550    TIP3     OH2      OT      -0.834000       15.9994           0
     44565 TIP3     11550    TIP3     H1       HT       0.417000       1.00800           0
     44566 TIP3     11550    TIP3     H2       HT       0.417000       1.00800           0
     44567 TIP3     11551    TIP3     OH2      OT      -0.834000       15.9994           0
     44568 TIP3     11551    TIP3     H1       HT       0.417000       1.00800           0
     44569 TIP3     11551    TIP3     H2       HT       0.417000       1.00800           0
     44570 TIP3     11552    TIP3     OH2      OT      -0.834000       15.9994           0
     44571 TIP3     11552    TIP3     H1       HT       0.417000       1.00800           0
     44572 TIP3     11552    TIP3     H2       HT       0.417000       1.00800           0
     44573 TIP3     11553    TIP3     OH2      OT      -0.834000       15.9994           0
     44574 TIP3     11553    TIP3     H1       HT       0.417000       1.00800           0
     44575 TIP3     11553    TIP3     H2       HT       0.417000       1.00800           0
     44576 TIP3     11554    TIP3     OH2      OT      -0.834000       15.9994           0
     44577 TIP3     11554    TIP3     H1       HT       0.417000       1.00800           0
     44578 TIP3     11554    TIP3     H2       HT       0.417000       1.00800           0
     44579 TIP3     11555    TIP3     OH2      OT      -0.834000       15.9994           0
     44580 TIP3     11555    TIP3     H1       HT       0.417000       1.00800           0
     44581 TIP3     11555    TIP3     H2       HT       0.417000       1.00800           0
     44582 TIP3     11556    TIP3     OH2      OT      -0.834000       15.9994           0
     44583 TIP3     11556    TIP3     H1       HT       0.417000       1.00800           0
     44584 TIP3     11556    TIP3     H2       HT       0.417000       1.00800           0
     44585 TIP3     11557    TIP3     OH2      OT      -0.834000       15.9994           0
     44586 TIP3     11557    TIP3     H1       HT       0.417000       1.00800           0
     44587 TIP3     11557    TIP3     H2       HT       0.417000       1.00800           0
     44588 TIP3     11558    TIP3     OH2      OT      -0.834000       15.9994           0
     44589 TIP3     11558    TIP3     H1       HT       0.417000       1.00800           0
     44590 TIP3     11558    TIP3     H2       HT       0.417000       1.00800           0
     44591 TIP3     11559    TIP3     OH2      OT      -0.834000       15.9994           0
     44592 TIP3     11559    TIP3     H1       HT       0.417000       1.00800           0
     44593 TIP3     11559    TIP3     H2       HT       0.417000       1.00800           0
     44594 TIP3     11560    TIP3     OH2      OT      -0.834000       15.9994           0
     44595 TIP3     11560    TIP3     H1       HT       0.417000       1.00800           0
     44596 TIP3     11560    TIP3     H2       HT       0.417000       1.00800           0
     44597 TIP3     11561    TIP3     OH2      OT      -0.834000       15.9994           0
     44598 TIP3     11561    TIP3     H1       HT       0.417000       1.00800           0
     44599 TIP3     11561    TIP3     H2       HT       0.417000       1.00800           0
     44600 TIP3     11562    TIP3     OH2      OT      -0.834000       15.9994           0
     44601 TIP3     11562    TIP3     H1       HT       0.417000       1.00800           0
     44602 TIP3     11562    TIP3     H2       HT       0.417000       1.00800           0
     44603 TIP3     11563    TIP3     OH2      OT      -0.834000       15.9994           0
     44604 TIP3     11563    TIP3     H1       HT       0.417000       1.00800           0
     44605 TIP3     11563    TIP3     H2       HT       0.417000       1.00800           0
     44606 TIP3     11564    TIP3     OH2      OT      -0.834000       15.9994           0
     44607 TIP3     11564    TIP3     H1       HT       0.417000       1.00800           0
     44608 TIP3     11564    TIP3     H2       HT       0.417000       1.00800           0
     44609 TIP3     11565    TIP3     OH2      OT      -0.834000       15.9994           0
     44610 TIP3     11565    TIP3     H1       HT       0.417000       1.00800           0
     44611 TIP3     11565    TIP3     H2       HT       0.417000       1.00800           0
     44612 TIP3     11566    TIP3     OH2      OT      -0.834000       15.9994           0
     44613 TIP3     11566    TIP3     H1       HT       0.417000       1.00800           0
     44614 TIP3     11566    TIP3     H2       HT       0.417000       1.00800           0
     44615 TIP3     11567    TIP3     OH2      OT      -0.834000       15.9994           0
     44616 TIP3     11567    TIP3     H1       HT       0.417000       1.00800           0
     44617 TIP3     11567    TIP3     H2       HT       0.417000       1.00800           0
     44618 TIP3     11568    TIP3     OH2      OT      -0.834000       15.9994           0
     44619 TIP3     11568    TIP3     H1       HT       0.417000       1.00800           0
     44620 TIP3     11568    TIP3     H2       HT       0.417000       1.00800           0
     44621 TIP3     11569    TIP3     OH2      OT      -0.834000       15.9994           0
     44622 TIP3     11569    TIP3     H1       HT       0.417000       1.00800           0
     44623 TIP3     11569    TIP3     H2       HT       0.417000       1.00800           0
     44624 TIP3     11570    TIP3     OH2      OT      -0.834000       15.9994           0
     44625 TIP3     11570    TIP3     H1       HT       0.417000       1.00800           0
     44626 TIP3     11570    TIP3     H2       HT       0.417000       1.00800           0
     44627 TIP3     11571    TIP3     OH2      OT      -0.834000       15.9994           0
     44628 TIP3     11571    TIP3     H1       HT       0.417000       1.00800           0
     44629 TIP3     11571    TIP3     H2       HT       0.417000       1.00800           0
     44630 TIP3     11572    TIP3     OH2      OT      -0.834000       15.9994           0
     44631 TIP3     11572    TIP3     H1       HT       0.417000       1.00800           0
     44632 TIP3     11572    TIP3     H2       HT       0.417000       1.00800           0
     44633 TIP3     11573    TIP3     OH2      OT      -0.834000       15.9994           0
     44634 TIP3     11573    TIP3     H1       HT       0.417000       1.00800           0
     44635 TIP3     11573    TIP3     H2       HT       0.417000       1.00800           0
     44636 TIP3     11574    TIP3     OH2      OT      -0.834000       15.9994           0
     44637 TIP3     11574    TIP3     H1       HT       0.417000       1.00800           0
     44638 TIP3     11574    TIP3     H2       HT       0.417000       1.00800           0
     44639 TIP3     11575    TIP3     OH2      OT      -0.834000       15.9994           0
     44640 TIP3     11575    TIP3     H1       HT       0.417000       1.00800           0
     44641 TIP3     11575    TIP3     H2       HT       0.417000       1.00800           0
     44642 TIP3     11576    TIP3     OH2      OT      -0.834000       15.9994           0
     44643 TIP3     11576    TIP3     H1       HT       0.417000       1.00800           0
     44644 TIP3     11576    TIP3     H2       HT       0.417000       1.00800           0
     44645 TIP3     11577    TIP3     OH2      OT      -0.834000       15.9994           0
     44646 TIP3     11577    TIP3     H1       HT       0.417000       1.00800           0
     44647 TIP3     11577    TIP3     H2       HT       0.417000       1.00800           0
     44648 TIP3     11578    TIP3     OH2      OT      -0.834000       15.9994           0
     44649 TIP3     11578    TIP3     H1       HT       0.417000       1.00800           0
     44650 TIP3     11578    TIP3     H2       HT       0.417000       1.00800           0
     44651 TIP3     11579    TIP3     OH2      OT      -0.834000       15.9994           0
     44652 TIP3     11579    TIP3     H1       HT       0.417000       1.00800           0
     44653 TIP3     11579    TIP3     H2       HT       0.417000       1.00800           0
     44654 TIP3     11580    TIP3     OH2      OT      -0.834000       15.9994           0
     44655 TIP3     11580    TIP3     H1       HT       0.417000       1.00800           0
     44656 TIP3     11580    TIP3     H2       HT       0.417000       1.00800           0
     44657 TIP3     11581    TIP3     OH2      OT      -0.834000       15.9994           0
     44658 TIP3     11581    TIP3     H1       HT       0.417000       1.00800           0
     44659 TIP3     11581    TIP3     H2       HT       0.417000       1.00800           0
     44660 TIP3     11582    TIP3     OH2      OT      -0.834000       15.9994           0
     44661 TIP3     11582    TIP3     H1       HT       0.417000       1.00800           0
     44662 TIP3     11582    TIP3     H2       HT       0.417000       1.00800           0
     44663 TIP3     11583    TIP3     OH2      OT      -0.834000       15.9994           0
     44664 TIP3     11583    TIP3     H1       HT       0.417000       1.00800           0
     44665 TIP3     11583    TIP3     H2       HT       0.417000       1.00800           0
     44666 TIP3     11584    TIP3     OH2      OT      -0.834000       15.9994           0
     44667 TIP3     11584    TIP3     H1       HT       0.417000       1.00800           0
     44668 TIP3     11584    TIP3     H2       HT       0.417000       1.00800           0
     44669 TIP3     11585    TIP3     OH2      OT      -0.834000       15.9994           0
     44670 TIP3     11585    TIP3     H1       HT       0.417000       1.00800           0
     44671 TIP3     11585    TIP3     H2       HT       0.417000       1.00800           0
     44672 TIP3     11586    TIP3     OH2      OT      -0.834000       15.9994           0
     44673 TIP3     11586    TIP3     H1       HT       0.417000       1.00800           0
     44674 TIP3     11586    TIP3     H2       HT       0.417000       1.00800           0
     44675 TIP3     11587    TIP3     OH2      OT      -0.834000       15.9994           0
     44676 TIP3     11587    TIP3     H1       HT       0.417000       1.00800           0
     44677 TIP3     11587    TIP3     H2       HT       0.417000       1.00800           0
     44678 TIP3     11588    TIP3     OH2      OT      -0.834000       15.9994           0
     44679 TIP3     11588    TIP3     H1       HT       0.417000       1.00800           0
     44680 TIP3     11588    TIP3     H2       HT       0.417000       1.00800           0
     44681 TIP3     11589    TIP3     OH2      OT      -0.834000       15.9994           0
     44682 TIP3     11589    TIP3     H1       HT       0.417000       1.00800           0
     44683 TIP3     11589    TIP3     H2       HT       0.417000       1.00800           0
     44684 TIP3     11590    TIP3     OH2      OT      -0.834000       15.9994           0
     44685 TIP3     11590    TIP3     H1       HT       0.417000       1.00800           0
     44686 TIP3     11590    TIP3     H2       HT       0.417000       1.00800           0
     44687 TIP3     11591    TIP3     OH2      OT      -0.834000       15.9994           0
     44688 TIP3     11591    TIP3     H1       HT       0.417000       1.00800           0
     44689 TIP3     11591    TIP3     H2       HT       0.417000       1.00800           0
     44690 TIP3     11592    TIP3     OH2      OT      -0.834000       15.9994           0
     44691 TIP3     11592    TIP3     H1       HT       0.417000       1.00800           0
     44692 TIP3     11592    TIP3     H2       HT       0.417000       1.00800           0
     44693 TIP3     11593    TIP3     OH2      OT      -0.834000       15.9994           0
     44694 TIP3     11593    TIP3     H1       HT       0.417000       1.00800           0
     44695 TIP3     11593    TIP3     H2       HT       0.417000       1.00800           0
     44696 TIP3     11594    TIP3     OH2      OT      -0.834000       15.9994           0
     44697 TIP3     11594    TIP3     H1       HT       0.417000       1.00800           0
     44698 TIP3     11594    TIP3     H2       HT       0.417000       1.00800           0
     44699 TIP3     11595    TIP3     OH2      OT      -0.834000       15.9994           0
     44700 TIP3     11595    TIP3     H1       HT       0.417000       1.00800           0
     44701 TIP3     11595    TIP3     H2       HT       0.417000       1.00800           0
     44702 TIP3     11596    TIP3     OH2      OT      -0.834000       15.9994           0
     44703 TIP3     11596    TIP3     H1       HT       0.417000       1.00800           0
     44704 TIP3     11596    TIP3     H2       HT       0.417000       1.00800           0
     44705 TIP3     11597    TIP3     OH2      OT      -0.834000       15.9994           0
     44706 TIP3     11597    TIP3     H1       HT       0.417000       1.00800           0
     44707 TIP3     11597    TIP3     H2       HT       0.417000       1.00800           0
     44708 TIP3     11598    TIP3     OH2      OT      -0.834000       15.9994           0
     44709 TIP3     11598    TIP3     H1       HT       0.417000       1.00800           0
     44710 TIP3     11598    TIP3     H2       HT       0.417000       1.00800           0
     44711 TIP3     11599    TIP3     OH2      OT      -0.834000       15.9994           0
     44712 TIP3     11599    TIP3     H1       HT       0.417000       1.00800           0
     44713 TIP3     11599    TIP3     H2       HT       0.417000       1.00800           0
     44714 TIP3     11600    TIP3     OH2      OT      -0.834000       15.9994           0
     44715 TIP3     11600    TIP3     H1       HT       0.417000       1.00800           0
     44716 TIP3     11600    TIP3     H2       HT       0.417000       1.00800           0
     44717 TIP3     11601    TIP3     OH2      OT      -0.834000       15.9994           0
     44718 TIP3     11601    TIP3     H1       HT       0.417000       1.00800           0
     44719 TIP3     11601    TIP3     H2       HT       0.417000       1.00800           0
     44720 TIP3     11602    TIP3     OH2      OT      -0.834000       15.9994           0
     44721 TIP3     11602    TIP3     H1       HT       0.417000       1.00800           0
     44722 TIP3     11602    TIP3     H2       HT       0.417000       1.00800           0
     44723 TIP3     11603    TIP3     OH2      OT      -0.834000       15.9994           0
     44724 TIP3     11603    TIP3     H1       HT       0.417000       1.00800           0
     44725 TIP3     11603    TIP3     H2       HT       0.417000       1.00800           0
     44726 TIP3     11604    TIP3     OH2      OT      -0.834000       15.9994           0
     44727 TIP3     11604    TIP3     H1       HT       0.417000       1.00800           0
     44728 TIP3     11604    TIP3     H2       HT       0.417000       1.00800           0
     44729 TIP3     11605    TIP3     OH2      OT      -0.834000       15.9994           0
     44730 TIP3     11605    TIP3     H1       HT       0.417000       1.00800           0
     44731 TIP3     11605    TIP3     H2       HT       0.417000       1.00800           0
     44732 TIP3     11606    TIP3     OH2      OT      -0.834000       15.9994           0
     44733 TIP3     11606    TIP3     H1       HT       0.417000       1.00800           0
     44734 TIP3     11606    TIP3     H2       HT       0.417000       1.00800           0
     44735 TIP3     11607    TIP3     OH2      OT      -0.834000       15.9994           0
     44736 TIP3     11607    TIP3     H1       HT       0.417000       1.00800           0
     44737 TIP3     11607    TIP3     H2       HT       0.417000       1.00800           0
     44738 TIP3     11608    TIP3     OH2      OT      -0.834000       15.9994           0
     44739 TIP3     11608    TIP3     H1       HT       0.417000       1.00800           0
     44740 TIP3     11608    TIP3     H2       HT       0.417000       1.00800           0
     44741 TIP3     11609    TIP3     OH2      OT      -0.834000       15.9994           0
     44742 TIP3     11609    TIP3     H1       HT       0.417000       1.00800           0
     44743 TIP3     11609    TIP3     H2       HT       0.417000       1.00800           0
     44744 TIP3     11610    TIP3     OH2      OT      -0.834000       15.9994           0
     44745 TIP3     11610    TIP3     H1       HT       0.417000       1.00800           0
     44746 TIP3     11610    TIP3     H2       HT       0.417000       1.00800           0
     44747 TIP3     11611    TIP3     OH2      OT      -0.834000       15.9994           0
     44748 TIP3     11611    TIP3     H1       HT       0.417000       1.00800           0
     44749 TIP3     11611    TIP3     H2       HT       0.417000       1.00800           0
     44750 TIP3     11612    TIP3     OH2      OT      -0.834000       15.9994           0
     44751 TIP3     11612    TIP3     H1       HT       0.417000       1.00800           0
     44752 TIP3     11612    TIP3     H2       HT       0.417000       1.00800           0
     44753 TIP3     11613    TIP3     OH2      OT      -0.834000       15.9994           0
     44754 TIP3     11613    TIP3     H1       HT       0.417000       1.00800           0
     44755 TIP3     11613    TIP3     H2       HT       0.417000       1.00800           0
     44756 TIP3     11614    TIP3     OH2      OT      -0.834000       15.9994           0
     44757 TIP3     11614    TIP3     H1       HT       0.417000       1.00800           0
     44758 TIP3     11614    TIP3     H2       HT       0.417000       1.00800           0
     44759 TIP3     11615    TIP3     OH2      OT      -0.834000       15.9994           0
     44760 TIP3     11615    TIP3     H1       HT       0.417000       1.00800           0
     44761 TIP3     11615    TIP3     H2       HT       0.417000       1.00800           0
     44762 TIP3     11616    TIP3     OH2      OT      -0.834000       15.9994           0
     44763 TIP3     11616    TIP3     H1       HT       0.417000       1.00800           0
     44764 TIP3     11616    TIP3     H2       HT       0.417000       1.00800           0
     44765 TIP3     11617    TIP3     OH2      OT      -0.834000       15.9994           0
     44766 TIP3     11617    TIP3     H1       HT       0.417000       1.00800           0
     44767 TIP3     11617    TIP3     H2       HT       0.417000       1.00800           0
     44768 TIP3     11618    TIP3     OH2      OT      -0.834000       15.9994           0
     44769 TIP3     11618    TIP3     H1       HT       0.417000       1.00800           0
     44770 TIP3     11618    TIP3     H2       HT       0.417000       1.00800           0
     44771 TIP3     11619    TIP3     OH2      OT      -0.834000       15.9994           0
     44772 TIP3     11619    TIP3     H1       HT       0.417000       1.00800           0
     44773 TIP3     11619    TIP3     H2       HT       0.417000       1.00800           0
     44774 TIP3     11620    TIP3     OH2      OT      -0.834000       15.9994           0
     44775 TIP3     11620    TIP3     H1       HT       0.417000       1.00800           0
     44776 TIP3     11620    TIP3     H2       HT       0.417000       1.00800           0
     44777 TIP3     11621    TIP3     OH2      OT      -0.834000       15.9994           0
     44778 TIP3     11621    TIP3     H1       HT       0.417000       1.00800           0
     44779 TIP3     11621    TIP3     H2       HT       0.417000       1.00800           0
     44780 TIP3     11622    TIP3     OH2      OT      -0.834000       15.9994           0
     44781 TIP3     11622    TIP3     H1       HT       0.417000       1.00800           0
     44782 TIP3     11622    TIP3     H2       HT       0.417000       1.00800           0
     44783 TIP3     11623    TIP3     OH2      OT      -0.834000       15.9994           0
     44784 TIP3     11623    TIP3     H1       HT       0.417000       1.00800           0
     44785 TIP3     11623    TIP3     H2       HT       0.417000       1.00800           0
     44786 TIP3     11624    TIP3     OH2      OT      -0.834000       15.9994           0
     44787 TIP3     11624    TIP3     H1       HT       0.417000       1.00800           0
     44788 TIP3     11624    TIP3     H2       HT       0.417000       1.00800           0
     44789 TIP3     11625    TIP3     OH2      OT      -0.834000       15.9994           0
     44790 TIP3     11625    TIP3     H1       HT       0.417000       1.00800           0
     44791 TIP3     11625    TIP3     H2       HT       0.417000       1.00800           0
     44792 TIP3     11626    TIP3     OH2      OT      -0.834000       15.9994           0
     44793 TIP3     11626    TIP3     H1       HT       0.417000       1.00800           0
     44794 TIP3     11626    TIP3     H2       HT       0.417000       1.00800           0
     44795 TIP3     11627    TIP3     OH2      OT      -0.834000       15.9994           0
     44796 TIP3     11627    TIP3     H1       HT       0.417000       1.00800           0
     44797 TIP3     11627    TIP3     H2       HT       0.417000       1.00800           0
     44798 TIP3     11628    TIP3     OH2      OT      -0.834000       15.9994           0
     44799 TIP3     11628    TIP3     H1       HT       0.417000       1.00800           0
     44800 TIP3     11628    TIP3     H2       HT       0.417000       1.00800           0
     44801 TIP3     11629    TIP3     OH2      OT      -0.834000       15.9994           0
     44802 TIP3     11629    TIP3     H1       HT       0.417000       1.00800           0
     44803 TIP3     11629    TIP3     H2       HT       0.417000       1.00800           0
     44804 TIP3     11630    TIP3     OH2      OT      -0.834000       15.9994           0
     44805 TIP3     11630    TIP3     H1       HT       0.417000       1.00800           0
     44806 TIP3     11630    TIP3     H2       HT       0.417000       1.00800           0
     44807 TIP3     11631    TIP3     OH2      OT      -0.834000       15.9994           0
     44808 TIP3     11631    TIP3     H1       HT       0.417000       1.00800           0
     44809 TIP3     11631    TIP3     H2       HT       0.417000       1.00800           0
     44810 TIP3     11632    TIP3     OH2      OT      -0.834000       15.9994           0
     44811 TIP3     11632    TIP3     H1       HT       0.417000       1.00800           0
     44812 TIP3     11632    TIP3     H2       HT       0.417000       1.00800           0
     44813 TIP3     11633    TIP3     OH2      OT      -0.834000       15.9994           0
     44814 TIP3     11633    TIP3     H1       HT       0.417000       1.00800           0
     44815 TIP3     11633    TIP3     H2       HT       0.417000       1.00800           0
     44816 TIP3     11634    TIP3     OH2      OT      -0.834000       15.9994           0
     44817 TIP3     11634    TIP3     H1       HT       0.417000       1.00800           0
     44818 TIP3     11634    TIP3     H2       HT       0.417000       1.00800           0
     44819 TIP3     11635    TIP3     OH2      OT      -0.834000       15.9994           0
     44820 TIP3     11635    TIP3     H1       HT       0.417000       1.00800           0
     44821 TIP3     11635    TIP3     H2       HT       0.417000       1.00800           0
     44822 TIP3     11636    TIP3     OH2      OT      -0.834000       15.9994           0
     44823 TIP3     11636    TIP3     H1       HT       0.417000       1.00800           0
     44824 TIP3     11636    TIP3     H2       HT       0.417000       1.00800           0
     44825 TIP3     11637    TIP3     OH2      OT      -0.834000       15.9994           0
     44826 TIP3     11637    TIP3     H1       HT       0.417000       1.00800           0
     44827 TIP3     11637    TIP3     H2       HT       0.417000       1.00800           0
     44828 TIP3     11638    TIP3     OH2      OT      -0.834000       15.9994           0
     44829 TIP3     11638    TIP3     H1       HT       0.417000       1.00800           0
     44830 TIP3     11638    TIP3     H2       HT       0.417000       1.00800           0
     44831 TIP3     11639    TIP3     OH2      OT      -0.834000       15.9994           0
     44832 TIP3     11639    TIP3     H1       HT       0.417000       1.00800           0
     44833 TIP3     11639    TIP3     H2       HT       0.417000       1.00800           0
     44834 TIP3     11640    TIP3     OH2      OT      -0.834000       15.9994           0
     44835 TIP3     11640    TIP3     H1       HT       0.417000       1.00800           0
     44836 TIP3     11640    TIP3     H2       HT       0.417000       1.00800           0
     44837 TIP3     11641    TIP3     OH2      OT      -0.834000       15.9994           0
     44838 TIP3     11641    TIP3     H1       HT       0.417000       1.00800           0
     44839 TIP3     11641    TIP3     H2       HT       0.417000       1.00800           0
     44840 TIP3     11642    TIP3     OH2      OT      -0.834000       15.9994           0
     44841 TIP3     11642    TIP3     H1       HT       0.417000       1.00800           0
     44842 TIP3     11642    TIP3     H2       HT       0.417000       1.00800           0
     44843 TIP3     11643    TIP3     OH2      OT      -0.834000       15.9994           0
     44844 TIP3     11643    TIP3     H1       HT       0.417000       1.00800           0
     44845 TIP3     11643    TIP3     H2       HT       0.417000       1.00800           0
     44846 TIP3     11644    TIP3     OH2      OT      -0.834000       15.9994           0
     44847 TIP3     11644    TIP3     H1       HT       0.417000       1.00800           0
     44848 TIP3     11644    TIP3     H2       HT       0.417000       1.00800           0
     44849 TIP3     11645    TIP3     OH2      OT      -0.834000       15.9994           0
     44850 TIP3     11645    TIP3     H1       HT       0.417000       1.00800           0
     44851 TIP3     11645    TIP3     H2       HT       0.417000       1.00800           0
     44852 TIP3     11646    TIP3     OH2      OT      -0.834000       15.9994           0
     44853 TIP3     11646    TIP3     H1       HT       0.417000       1.00800           0
     44854 TIP3     11646    TIP3     H2       HT       0.417000       1.00800           0
     44855 TIP3     11647    TIP3     OH2      OT      -0.834000       15.9994           0
     44856 TIP3     11647    TIP3     H1       HT       0.417000       1.00800           0
     44857 TIP3     11647    TIP3     H2       HT       0.417000       1.00800           0
     44858 TIP3     11648    TIP3     OH2      OT      -0.834000       15.9994           0
     44859 TIP3     11648    TIP3     H1       HT       0.417000       1.00800           0
     44860 TIP3     11648    TIP3     H2       HT       0.417000       1.00800           0
     44861 TIP3     11649    TIP3     OH2      OT      -0.834000       15.9994           0
     44862 TIP3     11649    TIP3     H1       HT       0.417000       1.00800           0
     44863 TIP3     11649    TIP3     H2       HT       0.417000       1.00800           0
     44864 TIP3     11650    TIP3     OH2      OT      -0.834000       15.9994           0
     44865 TIP3     11650    TIP3     H1       HT       0.417000       1.00800           0
     44866 TIP3     11650    TIP3     H2       HT       0.417000       1.00800           0
     44867 TIP3     11651    TIP3     OH2      OT      -0.834000       15.9994           0
     44868 TIP3     11651    TIP3     H1       HT       0.417000       1.00800           0
     44869 TIP3     11651    TIP3     H2       HT       0.417000       1.00800           0
     44870 TIP3     11652    TIP3     OH2      OT      -0.834000       15.9994           0
     44871 TIP3     11652    TIP3     H1       HT       0.417000       1.00800           0
     44872 TIP3     11652    TIP3     H2       HT       0.417000       1.00800           0
     44873 TIP3     11653    TIP3     OH2      OT      -0.834000       15.9994           0
     44874 TIP3     11653    TIP3     H1       HT       0.417000       1.00800           0
     44875 TIP3     11653    TIP3     H2       HT       0.417000       1.00800           0
     44876 TIP3     11654    TIP3     OH2      OT      -0.834000       15.9994           0
     44877 TIP3     11654    TIP3     H1       HT       0.417000       1.00800           0
     44878 TIP3     11654    TIP3     H2       HT       0.417000       1.00800           0
     44879 TIP3     11655    TIP3     OH2      OT      -0.834000       15.9994           0
     44880 TIP3     11655    TIP3     H1       HT       0.417000       1.00800           0
     44881 TIP3     11655    TIP3     H2       HT       0.417000       1.00800           0
     44882 TIP3     11656    TIP3     OH2      OT      -0.834000       15.9994           0
     44883 TIP3     11656    TIP3     H1       HT       0.417000       1.00800           0
     44884 TIP3     11656    TIP3     H2       HT       0.417000       1.00800           0
     44885 TIP3     11657    TIP3     OH2      OT      -0.834000       15.9994           0
     44886 TIP3     11657    TIP3     H1       HT       0.417000       1.00800           0
     44887 TIP3     11657    TIP3     H2       HT       0.417000       1.00800           0
     44888 TIP3     11658    TIP3     OH2      OT      -0.834000       15.9994           0
     44889 TIP3     11658    TIP3     H1       HT       0.417000       1.00800           0
     44890 TIP3     11658    TIP3     H2       HT       0.417000       1.00800           0
     44891 TIP3     11659    TIP3     OH2      OT      -0.834000       15.9994           0
     44892 TIP3     11659    TIP3     H1       HT       0.417000       1.00800           0
     44893 TIP3     11659    TIP3     H2       HT       0.417000       1.00800           0
     44894 TIP3     11660    TIP3     OH2      OT      -0.834000       15.9994           0
     44895 TIP3     11660    TIP3     H1       HT       0.417000       1.00800           0
     44896 TIP3     11660    TIP3     H2       HT       0.417000       1.00800           0
     44897 TIP3     11661    TIP3     OH2      OT      -0.834000       15.9994           0
     44898 TIP3     11661    TIP3     H1       HT       0.417000       1.00800           0
     44899 TIP3     11661    TIP3     H2       HT       0.417000       1.00800           0
     44900 TIP3     11662    TIP3     OH2      OT      -0.834000       15.9994           0
     44901 TIP3     11662    TIP3     H1       HT       0.417000       1.00800           0
     44902 TIP3     11662    TIP3     H2       HT       0.417000       1.00800           0
     44903 TIP3     11663    TIP3     OH2      OT      -0.834000       15.9994           0
     44904 TIP3     11663    TIP3     H1       HT       0.417000       1.00800           0
     44905 TIP3     11663    TIP3     H2       HT       0.417000       1.00800           0
     44906 TIP3     11664    TIP3     OH2      OT      -0.834000       15.9994           0
     44907 TIP3     11664    TIP3     H1       HT       0.417000       1.00800           0
     44908 TIP3     11664    TIP3     H2       HT       0.417000       1.00800           0
     44909 TIP3     11665    TIP3     OH2      OT      -0.834000       15.9994           0
     44910 TIP3     11665    TIP3     H1       HT       0.417000       1.00800           0
     44911 TIP3     11665    TIP3     H2       HT       0.417000       1.00800           0
     44912 TIP3     11666    TIP3     OH2      OT      -0.834000       15.9994           0
     44913 TIP3     11666    TIP3     H1       HT       0.417000       1.00800           0
     44914 TIP3     11666    TIP3     H2       HT       0.417000       1.00800           0
     44915 TIP3     11667    TIP3     OH2      OT      -0.834000       15.9994           0
     44916 TIP3     11667    TIP3     H1       HT       0.417000       1.00800           0
     44917 TIP3     11667    TIP3     H2       HT       0.417000       1.00800           0
     44918 TIP3     11668    TIP3     OH2      OT      -0.834000       15.9994           0
     44919 TIP3     11668    TIP3     H1       HT       0.417000       1.00800           0
     44920 TIP3     11668    TIP3     H2       HT       0.417000       1.00800           0
     44921 TIP3     11669    TIP3     OH2      OT      -0.834000       15.9994           0
     44922 TIP3     11669    TIP3     H1       HT       0.417000       1.00800           0
     44923 TIP3     11669    TIP3     H2       HT       0.417000       1.00800           0
     44924 TIP3     11670    TIP3     OH2      OT      -0.834000       15.9994           0
     44925 TIP3     11670    TIP3     H1       HT       0.417000       1.00800           0
     44926 TIP3     11670    TIP3     H2       HT       0.417000       1.00800           0
     44927 TIP3     11671    TIP3     OH2      OT      -0.834000       15.9994           0
     44928 TIP3     11671    TIP3     H1       HT       0.417000       1.00800           0
     44929 TIP3     11671    TIP3     H2       HT       0.417000       1.00800           0
     44930 TIP3     11672    TIP3     OH2      OT      -0.834000       15.9994           0
     44931 TIP3     11672    TIP3     H1       HT       0.417000       1.00800           0
     44932 TIP3     11672    TIP3     H2       HT       0.417000       1.00800           0
     44933 TIP3     11673    TIP3     OH2      OT      -0.834000       15.9994           0
     44934 TIP3     11673    TIP3     H1       HT       0.417000       1.00800           0
     44935 TIP3     11673    TIP3     H2       HT       0.417000       1.00800           0
     44936 TIP3     11674    TIP3     OH2      OT      -0.834000       15.9994           0
     44937 TIP3     11674    TIP3     H1       HT       0.417000       1.00800           0
     44938 TIP3     11674    TIP3     H2       HT       0.417000       1.00800           0
     44939 TIP3     11675    TIP3     OH2      OT      -0.834000       15.9994           0
     44940 TIP3     11675    TIP3     H1       HT       0.417000       1.00800           0
     44941 TIP3     11675    TIP3     H2       HT       0.417000       1.00800           0
     44942 TIP3     11676    TIP3     OH2      OT      -0.834000       15.9994           0
     44943 TIP3     11676    TIP3     H1       HT       0.417000       1.00800           0
     44944 TIP3     11676    TIP3     H2       HT       0.417000       1.00800           0
     44945 TIP3     11677    TIP3     OH2      OT      -0.834000       15.9994           0
     44946 TIP3     11677    TIP3     H1       HT       0.417000       1.00800           0
     44947 TIP3     11677    TIP3     H2       HT       0.417000       1.00800           0
     44948 TIP3     11678    TIP3     OH2      OT      -0.834000       15.9994           0
     44949 TIP3     11678    TIP3     H1       HT       0.417000       1.00800           0
     44950 TIP3     11678    TIP3     H2       HT       0.417000       1.00800           0
     44951 TIP3     11679    TIP3     OH2      OT      -0.834000       15.9994           0
     44952 TIP3     11679    TIP3     H1       HT       0.417000       1.00800           0
     44953 TIP3     11679    TIP3     H2       HT       0.417000       1.00800           0
     44954 TIP3     11680    TIP3     OH2      OT      -0.834000       15.9994           0
     44955 TIP3     11680    TIP3     H1       HT       0.417000       1.00800           0
     44956 TIP3     11680    TIP3     H2       HT       0.417000       1.00800           0
     44957 TIP3     11681    TIP3     OH2      OT      -0.834000       15.9994           0
     44958 TIP3     11681    TIP3     H1       HT       0.417000       1.00800           0
     44959 TIP3     11681    TIP3     H2       HT       0.417000       1.00800           0
     44960 TIP3     11682    TIP3     OH2      OT      -0.834000       15.9994           0
     44961 TIP3     11682    TIP3     H1       HT       0.417000       1.00800           0
     44962 TIP3     11682    TIP3     H2       HT       0.417000       1.00800           0
     44963 TIP3     11683    TIP3     OH2      OT      -0.834000       15.9994           0
     44964 TIP3     11683    TIP3     H1       HT       0.417000       1.00800           0
     44965 TIP3     11683    TIP3     H2       HT       0.417000       1.00800           0
     44966 TIP3     11684    TIP3     OH2      OT      -0.834000       15.9994           0
     44967 TIP3     11684    TIP3     H1       HT       0.417000       1.00800           0
     44968 TIP3     11684    TIP3     H2       HT       0.417000       1.00800           0
     44969 TIP3     11685    TIP3     OH2      OT      -0.834000       15.9994           0
     44970 TIP3     11685    TIP3     H1       HT       0.417000       1.00800           0
     44971 TIP3     11685    TIP3     H2       HT       0.417000       1.00800           0
     44972 TIP3     11686    TIP3     OH2      OT      -0.834000       15.9994           0
     44973 TIP3     11686    TIP3     H1       HT       0.417000       1.00800           0
     44974 TIP3     11686    TIP3     H2       HT       0.417000       1.00800           0
     44975 TIP3     11687    TIP3     OH2      OT      -0.834000       15.9994           0
     44976 TIP3     11687    TIP3     H1       HT       0.417000       1.00800           0
     44977 TIP3     11687    TIP3     H2       HT       0.417000       1.00800           0
     44978 TIP3     11688    TIP3     OH2      OT      -0.834000       15.9994           0
     44979 TIP3     11688    TIP3     H1       HT       0.417000       1.00800           0
     44980 TIP3     11688    TIP3     H2       HT       0.417000       1.00800           0
     44981 TIP3     11689    TIP3     OH2      OT      -0.834000       15.9994           0
     44982 TIP3     11689    TIP3     H1       HT       0.417000       1.00800           0
     44983 TIP3     11689    TIP3     H2       HT       0.417000       1.00800           0
     44984 TIP3     11690    TIP3     OH2      OT      -0.834000       15.9994           0
     44985 TIP3     11690    TIP3     H1       HT       0.417000       1.00800           0
     44986 TIP3     11690    TIP3     H2       HT       0.417000       1.00800           0
     44987 TIP3     11691    TIP3     OH2      OT      -0.834000       15.9994           0
     44988 TIP3     11691    TIP3     H1       HT       0.417000       1.00800           0
     44989 TIP3     11691    TIP3     H2       HT       0.417000       1.00800           0
     44990 TIP3     11692    TIP3     OH2      OT      -0.834000       15.9994           0
     44991 TIP3     11692    TIP3     H1       HT       0.417000       1.00800           0
     44992 TIP3     11692    TIP3     H2       HT       0.417000       1.00800           0
     44993 TIP3     11693    TIP3     OH2      OT      -0.834000       15.9994           0
     44994 TIP3     11693    TIP3     H1       HT       0.417000       1.00800           0
     44995 TIP3     11693    TIP3     H2       HT       0.417000       1.00800           0
     44996 TIP3     11694    TIP3     OH2      OT      -0.834000       15.9994           0
     44997 TIP3     11694    TIP3     H1       HT       0.417000       1.00800           0
     44998 TIP3     11694    TIP3     H2       HT       0.417000       1.00800           0
     44999 TIP3     11695    TIP3     OH2      OT      -0.834000       15.9994           0
     45000 TIP3     11695    TIP3     H1       HT       0.417000       1.00800           0
     45001 TIP3     11695    TIP3     H2       HT       0.417000       1.00800           0
     45002 TIP3     11696    TIP3     OH2      OT      -0.834000       15.9994           0
     45003 TIP3     11696    TIP3     H1       HT       0.417000       1.00800           0
     45004 TIP3     11696    TIP3     H2       HT       0.417000       1.00800           0
     45005 TIP3     11697    TIP3     OH2      OT      -0.834000       15.9994           0
     45006 TIP3     11697    TIP3     H1       HT       0.417000       1.00800           0
     45007 TIP3     11697    TIP3     H2       HT       0.417000       1.00800           0
     45008 TIP3     11698    TIP3     OH2      OT      -0.834000       15.9994           0
     45009 TIP3     11698    TIP3     H1       HT       0.417000       1.00800           0
     45010 TIP3     11698    TIP3     H2       HT       0.417000       1.00800           0
     45011 TIP3     11699    TIP3     OH2      OT      -0.834000       15.9994           0
     45012 TIP3     11699    TIP3     H1       HT       0.417000       1.00800           0
     45013 TIP3     11699    TIP3     H2       HT       0.417000       1.00800           0
     45014 TIP3     11700    TIP3     OH2      OT      -0.834000       15.9994           0
     45015 TIP3     11700    TIP3     H1       HT       0.417000       1.00800           0
     45016 TIP3     11700    TIP3     H2       HT       0.417000       1.00800           0
     45017 TIP3     11701    TIP3     OH2      OT      -0.834000       15.9994           0
     45018 TIP3     11701    TIP3     H1       HT       0.417000       1.00800           0
     45019 TIP3     11701    TIP3     H2       HT       0.417000       1.00800           0
     45020 TIP3     11702    TIP3     OH2      OT      -0.834000       15.9994           0
     45021 TIP3     11702    TIP3     H1       HT       0.417000       1.00800           0
     45022 TIP3     11702    TIP3     H2       HT       0.417000       1.00800           0
     45023 TIP3     11703    TIP3     OH2      OT      -0.834000       15.9994           0
     45024 TIP3     11703    TIP3     H1       HT       0.417000       1.00800           0
     45025 TIP3     11703    TIP3     H2       HT       0.417000       1.00800           0
     45026 TIP3     11704    TIP3     OH2      OT      -0.834000       15.9994           0
     45027 TIP3     11704    TIP3     H1       HT       0.417000       1.00800           0
     45028 TIP3     11704    TIP3     H2       HT       0.417000       1.00800           0
     45029 TIP3     11705    TIP3     OH2      OT      -0.834000       15.9994           0
     45030 TIP3     11705    TIP3     H1       HT       0.417000       1.00800           0
     45031 TIP3     11705    TIP3     H2       HT       0.417000       1.00800           0
     45032 TIP3     11706    TIP3     OH2      OT      -0.834000       15.9994           0
     45033 TIP3     11706    TIP3     H1       HT       0.417000       1.00800           0
     45034 TIP3     11706    TIP3     H2       HT       0.417000       1.00800           0
     45035 TIP3     11707    TIP3     OH2      OT      -0.834000       15.9994           0
     45036 TIP3     11707    TIP3     H1       HT       0.417000       1.00800           0
     45037 TIP3     11707    TIP3     H2       HT       0.417000       1.00800           0
     45038 TIP3     11708    TIP3     OH2      OT      -0.834000       15.9994           0
     45039 TIP3     11708    TIP3     H1       HT       0.417000       1.00800           0
     45040 TIP3     11708    TIP3     H2       HT       0.417000       1.00800           0
     45041 TIP3     11709    TIP3     OH2      OT      -0.834000       15.9994           0
     45042 TIP3     11709    TIP3     H1       HT       0.417000       1.00800           0
     45043 TIP3     11709    TIP3     H2       HT       0.417000       1.00800           0
     45044 TIP3     11710    TIP3     OH2      OT      -0.834000       15.9994           0
     45045 TIP3     11710    TIP3     H1       HT       0.417000       1.00800           0
     45046 TIP3     11710    TIP3     H2       HT       0.417000       1.00800           0
     45047 TIP3     11711    TIP3     OH2      OT      -0.834000       15.9994           0
     45048 TIP3     11711    TIP3     H1       HT       0.417000       1.00800           0
     45049 TIP3     11711    TIP3     H2       HT       0.417000       1.00800           0
     45050 TIP3     11712    TIP3     OH2      OT      -0.834000       15.9994           0
     45051 TIP3     11712    TIP3     H1       HT       0.417000       1.00800           0
     45052 TIP3     11712    TIP3     H2       HT       0.417000       1.00800           0
     45053 TIP3     11713    TIP3     OH2      OT      -0.834000       15.9994           0
     45054 TIP3     11713    TIP3     H1       HT       0.417000       1.00800           0
     45055 TIP3     11713    TIP3     H2       HT       0.417000       1.00800           0
     45056 TIP3     11714    TIP3     OH2      OT      -0.834000       15.9994           0
     45057 TIP3     11714    TIP3     H1       HT       0.417000       1.00800           0
     45058 TIP3     11714    TIP3     H2       HT       0.417000       1.00800           0
     45059 TIP3     11715    TIP3     OH2      OT      -0.834000       15.9994           0
     45060 TIP3     11715    TIP3     H1       HT       0.417000       1.00800           0
     45061 TIP3     11715    TIP3     H2       HT       0.417000       1.00800           0
     45062 TIP3     11716    TIP3     OH2      OT      -0.834000       15.9994           0
     45063 TIP3     11716    TIP3     H1       HT       0.417000       1.00800           0
     45064 TIP3     11716    TIP3     H2       HT       0.417000       1.00800           0
     45065 TIP3     11717    TIP3     OH2      OT      -0.834000       15.9994           0
     45066 TIP3     11717    TIP3     H1       HT       0.417000       1.00800           0
     45067 TIP3     11717    TIP3     H2       HT       0.417000       1.00800           0
     45068 TIP3     11718    TIP3     OH2      OT      -0.834000       15.9994           0
     45069 TIP3     11718    TIP3     H1       HT       0.417000       1.00800           0
     45070 TIP3     11718    TIP3     H2       HT       0.417000       1.00800           0
     45071 TIP3     11719    TIP3     OH2      OT      -0.834000       15.9994           0
     45072 TIP3     11719    TIP3     H1       HT       0.417000       1.00800           0
     45073 TIP3     11719    TIP3     H2       HT       0.417000       1.00800           0
     45074 TIP3     11720    TIP3     OH2      OT      -0.834000       15.9994           0
     45075 TIP3     11720    TIP3     H1       HT       0.417000       1.00800           0
     45076 TIP3     11720    TIP3     H2       HT       0.417000       1.00800           0
     45077 TIP3     11721    TIP3     OH2      OT      -0.834000       15.9994           0
     45078 TIP3     11721    TIP3     H1       HT       0.417000       1.00800           0
     45079 TIP3     11721    TIP3     H2       HT       0.417000       1.00800           0
     45080 TIP3     11722    TIP3     OH2      OT      -0.834000       15.9994           0
     45081 TIP3     11722    TIP3     H1       HT       0.417000       1.00800           0
     45082 TIP3     11722    TIP3     H2       HT       0.417000       1.00800           0
     45083 TIP3     11723    TIP3     OH2      OT      -0.834000       15.9994           0
     45084 TIP3     11723    TIP3     H1       HT       0.417000       1.00800           0
     45085 TIP3     11723    TIP3     H2       HT       0.417000       1.00800           0
     45086 TIP3     11724    TIP3     OH2      OT      -0.834000       15.9994           0
     45087 TIP3     11724    TIP3     H1       HT       0.417000       1.00800           0
     45088 TIP3     11724    TIP3     H2       HT       0.417000       1.00800           0
     45089 TIP3     11725    TIP3     OH2      OT      -0.834000       15.9994           0
     45090 TIP3     11725    TIP3     H1       HT       0.417000       1.00800           0
     45091 TIP3     11725    TIP3     H2       HT       0.417000       1.00800           0
     45092 TIP3     11726    TIP3     OH2      OT      -0.834000       15.9994           0
     45093 TIP3     11726    TIP3     H1       HT       0.417000       1.00800           0
     45094 TIP3     11726    TIP3     H2       HT       0.417000       1.00800           0
     45095 TIP3     11727    TIP3     OH2      OT      -0.834000       15.9994           0
     45096 TIP3     11727    TIP3     H1       HT       0.417000       1.00800           0
     45097 TIP3     11727    TIP3     H2       HT       0.417000       1.00800           0
     45098 TIP3     11728    TIP3     OH2      OT      -0.834000       15.9994           0
     45099 TIP3     11728    TIP3     H1       HT       0.417000       1.00800           0
     45100 TIP3     11728    TIP3     H2       HT       0.417000       1.00800           0
     45101 TIP3     11729    TIP3     OH2      OT      -0.834000       15.9994           0
     45102 TIP3     11729    TIP3     H1       HT       0.417000       1.00800           0
     45103 TIP3     11729    TIP3     H2       HT       0.417000       1.00800           0
     45104 TIP3     11730    TIP3     OH2      OT      -0.834000       15.9994           0
     45105 TIP3     11730    TIP3     H1       HT       0.417000       1.00800           0
     45106 TIP3     11730    TIP3     H2       HT       0.417000       1.00800           0
     45107 TIP3     11731    TIP3     OH2      OT      -0.834000       15.9994           0
     45108 TIP3     11731    TIP3     H1       HT       0.417000       1.00800           0
     45109 TIP3     11731    TIP3     H2       HT       0.417000       1.00800           0
     45110 TIP3     11732    TIP3     OH2      OT      -0.834000       15.9994           0
     45111 TIP3     11732    TIP3     H1       HT       0.417000       1.00800           0
     45112 TIP3     11732    TIP3     H2       HT       0.417000       1.00800           0
     45113 TIP3     11733    TIP3     OH2      OT      -0.834000       15.9994           0
     45114 TIP3     11733    TIP3     H1       HT       0.417000       1.00800           0
     45115 TIP3     11733    TIP3     H2       HT       0.417000       1.00800           0
     45116 TIP3     11734    TIP3     OH2      OT      -0.834000       15.9994           0
     45117 TIP3     11734    TIP3     H1       HT       0.417000       1.00800           0
     45118 TIP3     11734    TIP3     H2       HT       0.417000       1.00800           0
     45119 TIP3     11735    TIP3     OH2      OT      -0.834000       15.9994           0
     45120 TIP3     11735    TIP3     H1       HT       0.417000       1.00800           0
     45121 TIP3     11735    TIP3     H2       HT       0.417000       1.00800           0
     45122 TIP3     11736    TIP3     OH2      OT      -0.834000       15.9994           0
     45123 TIP3     11736    TIP3     H1       HT       0.417000       1.00800           0
     45124 TIP3     11736    TIP3     H2       HT       0.417000       1.00800           0
     45125 TIP3     11737    TIP3     OH2      OT      -0.834000       15.9994           0
     45126 TIP3     11737    TIP3     H1       HT       0.417000       1.00800           0
     45127 TIP3     11737    TIP3     H2       HT       0.417000       1.00800           0
     45128 TIP3     11738    TIP3     OH2      OT      -0.834000       15.9994           0
     45129 TIP3     11738    TIP3     H1       HT       0.417000       1.00800           0
     45130 TIP3     11738    TIP3     H2       HT       0.417000       1.00800           0
     45131 TIP3     11739    TIP3     OH2      OT      -0.834000       15.9994           0
     45132 TIP3     11739    TIP3     H1       HT       0.417000       1.00800           0
     45133 TIP3     11739    TIP3     H2       HT       0.417000       1.00800           0
     45134 TIP3     11740    TIP3     OH2      OT      -0.834000       15.9994           0
     45135 TIP3     11740    TIP3     H1       HT       0.417000       1.00800           0
     45136 TIP3     11740    TIP3     H2       HT       0.417000       1.00800           0
     45137 TIP3     11741    TIP3     OH2      OT      -0.834000       15.9994           0
     45138 TIP3     11741    TIP3     H1       HT       0.417000       1.00800           0
     45139 TIP3     11741    TIP3     H2       HT       0.417000       1.00800           0
     45140 TIP3     11742    TIP3     OH2      OT      -0.834000       15.9994           0
     45141 TIP3     11742    TIP3     H1       HT       0.417000       1.00800           0
     45142 TIP3     11742    TIP3     H2       HT       0.417000       1.00800           0
     45143 TIP3     11743    TIP3     OH2      OT      -0.834000       15.9994           0
     45144 TIP3     11743    TIP3     H1       HT       0.417000       1.00800           0
     45145 TIP3     11743    TIP3     H2       HT       0.417000       1.00800           0
     45146 TIP3     11744    TIP3     OH2      OT      -0.834000       15.9994           0
     45147 TIP3     11744    TIP3     H1       HT       0.417000       1.00800           0
     45148 TIP3     11744    TIP3     H2       HT       0.417000       1.00800           0
     45149 TIP3     11745    TIP3     OH2      OT      -0.834000       15.9994           0
     45150 TIP3     11745    TIP3     H1       HT       0.417000       1.00800           0
     45151 TIP3     11745    TIP3     H2       HT       0.417000       1.00800           0
     45152 TIP3     11746    TIP3     OH2      OT      -0.834000       15.9994           0
     45153 TIP3     11746    TIP3     H1       HT       0.417000       1.00800           0
     45154 TIP3     11746    TIP3     H2       HT       0.417000       1.00800           0
     45155 TIP3     11747    TIP3     OH2      OT      -0.834000       15.9994           0
     45156 TIP3     11747    TIP3     H1       HT       0.417000       1.00800           0
     45157 TIP3     11747    TIP3     H2       HT       0.417000       1.00800           0
     45158 TIP3     11748    TIP3     OH2      OT      -0.834000       15.9994           0
     45159 TIP3     11748    TIP3     H1       HT       0.417000       1.00800           0
     45160 TIP3     11748    TIP3     H2       HT       0.417000       1.00800           0
     45161 TIP3     11749    TIP3     OH2      OT      -0.834000       15.9994           0
     45162 TIP3     11749    TIP3     H1       HT       0.417000       1.00800           0
     45163 TIP3     11749    TIP3     H2       HT       0.417000       1.00800           0
     45164 TIP3     11750    TIP3     OH2      OT      -0.834000       15.9994           0
     45165 TIP3     11750    TIP3     H1       HT       0.417000       1.00800           0
     45166 TIP3     11750    TIP3     H2       HT       0.417000       1.00800           0
     45167 TIP3     11751    TIP3     OH2      OT      -0.834000       15.9994           0
     45168 TIP3     11751    TIP3     H1       HT       0.417000       1.00800           0
     45169 TIP3     11751    TIP3     H2       HT       0.417000       1.00800           0
     45170 TIP3     11752    TIP3     OH2      OT      -0.834000       15.9994           0
     45171 TIP3     11752    TIP3     H1       HT       0.417000       1.00800           0
     45172 TIP3     11752    TIP3     H2       HT       0.417000       1.00800           0
     45173 TIP3     11753    TIP3     OH2      OT      -0.834000       15.9994           0
     45174 TIP3     11753    TIP3     H1       HT       0.417000       1.00800           0
     45175 TIP3     11753    TIP3     H2       HT       0.417000       1.00800           0
     45176 TIP3     11754    TIP3     OH2      OT      -0.834000       15.9994           0
     45177 TIP3     11754    TIP3     H1       HT       0.417000       1.00800           0
     45178 TIP3     11754    TIP3     H2       HT       0.417000       1.00800           0
     45179 TIP3     11755    TIP3     OH2      OT      -0.834000       15.9994           0
     45180 TIP3     11755    TIP3     H1       HT       0.417000       1.00800           0
     45181 TIP3     11755    TIP3     H2       HT       0.417000       1.00800           0
     45182 TIP3     11756    TIP3     OH2      OT      -0.834000       15.9994           0
     45183 TIP3     11756    TIP3     H1       HT       0.417000       1.00800           0
     45184 TIP3     11756    TIP3     H2       HT       0.417000       1.00800           0
     45185 TIP3     11757    TIP3     OH2      OT      -0.834000       15.9994           0
     45186 TIP3     11757    TIP3     H1       HT       0.417000       1.00800           0
     45187 TIP3     11757    TIP3     H2       HT       0.417000       1.00800           0
     45188 TIP3     11758    TIP3     OH2      OT      -0.834000       15.9994           0
     45189 TIP3     11758    TIP3     H1       HT       0.417000       1.00800           0
     45190 TIP3     11758    TIP3     H2       HT       0.417000       1.00800           0
     45191 TIP3     11759    TIP3     OH2      OT      -0.834000       15.9994           0
     45192 TIP3     11759    TIP3     H1       HT       0.417000       1.00800           0
     45193 TIP3     11759    TIP3     H2       HT       0.417000       1.00800           0
     45194 TIP3     11760    TIP3     OH2      OT      -0.834000       15.9994           0
     45195 TIP3     11760    TIP3     H1       HT       0.417000       1.00800           0
     45196 TIP3     11760    TIP3     H2       HT       0.417000       1.00800           0
     45197 TIP3     11761    TIP3     OH2      OT      -0.834000       15.9994           0
     45198 TIP3     11761    TIP3     H1       HT       0.417000       1.00800           0
     45199 TIP3     11761    TIP3     H2       HT       0.417000       1.00800           0
     45200 TIP3     11762    TIP3     OH2      OT      -0.834000       15.9994           0
     45201 TIP3     11762    TIP3     H1       HT       0.417000       1.00800           0
     45202 TIP3     11762    TIP3     H2       HT       0.417000       1.00800           0
     45203 TIP3     11763    TIP3     OH2      OT      -0.834000       15.9994           0
     45204 TIP3     11763    TIP3     H1       HT       0.417000       1.00800           0
     45205 TIP3     11763    TIP3     H2       HT       0.417000       1.00800           0
     45206 TIP3     11764    TIP3     OH2      OT      -0.834000       15.9994           0
     45207 TIP3     11764    TIP3     H1       HT       0.417000       1.00800           0
     45208 TIP3     11764    TIP3     H2       HT       0.417000       1.00800           0
     45209 TIP3     11765    TIP3     OH2      OT      -0.834000       15.9994           0
     45210 TIP3     11765    TIP3     H1       HT       0.417000       1.00800           0
     45211 TIP3     11765    TIP3     H2       HT       0.417000       1.00800           0
     45212 TIP3     11766    TIP3     OH2      OT      -0.834000       15.9994           0
     45213 TIP3     11766    TIP3     H1       HT       0.417000       1.00800           0
     45214 TIP3     11766    TIP3     H2       HT       0.417000       1.00800           0
     45215 TIP3     11767    TIP3     OH2      OT      -0.834000       15.9994           0
     45216 TIP3     11767    TIP3     H1       HT       0.417000       1.00800           0
     45217 TIP3     11767    TIP3     H2       HT       0.417000       1.00800           0
     45218 TIP3     11768    TIP3     OH2      OT      -0.834000       15.9994           0
     45219 TIP3     11768    TIP3     H1       HT       0.417000       1.00800           0
     45220 TIP3     11768    TIP3     H2       HT       0.417000       1.00800           0
     45221 TIP3     11769    TIP3     OH2      OT      -0.834000       15.9994           0
     45222 TIP3     11769    TIP3     H1       HT       0.417000       1.00800           0
     45223 TIP3     11769    TIP3     H2       HT       0.417000       1.00800           0
     45224 TIP3     11770    TIP3     OH2      OT      -0.834000       15.9994           0
     45225 TIP3     11770    TIP3     H1       HT       0.417000       1.00800           0
     45226 TIP3     11770    TIP3     H2       HT       0.417000       1.00800           0
     45227 TIP3     11771    TIP3     OH2      OT      -0.834000       15.9994           0
     45228 TIP3     11771    TIP3     H1       HT       0.417000       1.00800           0
     45229 TIP3     11771    TIP3     H2       HT       0.417000       1.00800           0
     45230 TIP3     11772    TIP3     OH2      OT      -0.834000       15.9994           0
     45231 TIP3     11772    TIP3     H1       HT       0.417000       1.00800           0
     45232 TIP3     11772    TIP3     H2       HT       0.417000       1.00800           0
     45233 TIP3     11773    TIP3     OH2      OT      -0.834000       15.9994           0
     45234 TIP3     11773    TIP3     H1       HT       0.417000       1.00800           0
     45235 TIP3     11773    TIP3     H2       HT       0.417000       1.00800           0
     45236 TIP3     11774    TIP3     OH2      OT      -0.834000       15.9994           0
     45237 TIP3     11774    TIP3     H1       HT       0.417000       1.00800           0
     45238 TIP3     11774    TIP3     H2       HT       0.417000       1.00800           0
     45239 TIP3     11775    TIP3     OH2      OT      -0.834000       15.9994           0
     45240 TIP3     11775    TIP3     H1       HT       0.417000       1.00800           0
     45241 TIP3     11775    TIP3     H2       HT       0.417000       1.00800           0
     45242 TIP3     11776    TIP3     OH2      OT      -0.834000       15.9994           0
     45243 TIP3     11776    TIP3     H1       HT       0.417000       1.00800           0
     45244 TIP3     11776    TIP3     H2       HT       0.417000       1.00800           0
     45245 TIP3     11777    TIP3     OH2      OT      -0.834000       15.9994           0
     45246 TIP3     11777    TIP3     H1       HT       0.417000       1.00800           0
     45247 TIP3     11777    TIP3     H2       HT       0.417000       1.00800           0
     45248 TIP3     11778    TIP3     OH2      OT      -0.834000       15.9994           0
     45249 TIP3     11778    TIP3     H1       HT       0.417000       1.00800           0
     45250 TIP3     11778    TIP3     H2       HT       0.417000       1.00800           0
     45251 TIP3     11779    TIP3     OH2      OT      -0.834000       15.9994           0
     45252 TIP3     11779    TIP3     H1       HT       0.417000       1.00800           0
     45253 TIP3     11779    TIP3     H2       HT       0.417000       1.00800           0
     45254 TIP3     11780    TIP3     OH2      OT      -0.834000       15.9994           0
     45255 TIP3     11780    TIP3     H1       HT       0.417000       1.00800           0
     45256 TIP3     11780    TIP3     H2       HT       0.417000       1.00800           0
     45257 TIP3     11781    TIP3     OH2      OT      -0.834000       15.9994           0
     45258 TIP3     11781    TIP3     H1       HT       0.417000       1.00800           0
     45259 TIP3     11781    TIP3     H2       HT       0.417000       1.00800           0
     45260 TIP3     11782    TIP3     OH2      OT      -0.834000       15.9994           0
     45261 TIP3     11782    TIP3     H1       HT       0.417000       1.00800           0
     45262 TIP3     11782    TIP3     H2       HT       0.417000       1.00800           0
     45263 TIP3     11783    TIP3     OH2      OT      -0.834000       15.9994           0
     45264 TIP3     11783    TIP3     H1       HT       0.417000       1.00800           0
     45265 TIP3     11783    TIP3     H2       HT       0.417000       1.00800           0
     45266 TIP3     11784    TIP3     OH2      OT      -0.834000       15.9994           0
     45267 TIP3     11784    TIP3     H1       HT       0.417000       1.00800           0
     45268 TIP3     11784    TIP3     H2       HT       0.417000       1.00800           0
     45269 TIP3     11785    TIP3     OH2      OT      -0.834000       15.9994           0
     45270 TIP3     11785    TIP3     H1       HT       0.417000       1.00800           0
     45271 TIP3     11785    TIP3     H2       HT       0.417000       1.00800           0
     45272 TIP3     11786    TIP3     OH2      OT      -0.834000       15.9994           0
     45273 TIP3     11786    TIP3     H1       HT       0.417000       1.00800           0
     45274 TIP3     11786    TIP3     H2       HT       0.417000       1.00800           0
     45275 TIP3     11787    TIP3     OH2      OT      -0.834000       15.9994           0
     45276 TIP3     11787    TIP3     H1       HT       0.417000       1.00800           0
     45277 TIP3     11787    TIP3     H2       HT       0.417000       1.00800           0
     45278 TIP3     11788    TIP3     OH2      OT      -0.834000       15.9994           0
     45279 TIP3     11788    TIP3     H1       HT       0.417000       1.00800           0
     45280 TIP3     11788    TIP3     H2       HT       0.417000       1.00800           0
     45281 TIP3     11789    TIP3     OH2      OT      -0.834000       15.9994           0
     45282 TIP3     11789    TIP3     H1       HT       0.417000       1.00800           0
     45283 TIP3     11789    TIP3     H2       HT       0.417000       1.00800           0
     45284 TIP3     11790    TIP3     OH2      OT      -0.834000       15.9994           0
     45285 TIP3     11790    TIP3     H1       HT       0.417000       1.00800           0
     45286 TIP3     11790    TIP3     H2       HT       0.417000       1.00800           0
     45287 TIP3     11791    TIP3     OH2      OT      -0.834000       15.9994           0
     45288 TIP3     11791    TIP3     H1       HT       0.417000       1.00800           0
     45289 TIP3     11791    TIP3     H2       HT       0.417000       1.00800           0
     45290 TIP3     11792    TIP3     OH2      OT      -0.834000       15.9994           0
     45291 TIP3     11792    TIP3     H1       HT       0.417000       1.00800           0
     45292 TIP3     11792    TIP3     H2       HT       0.417000       1.00800           0
     45293 TIP3     11793    TIP3     OH2      OT      -0.834000       15.9994           0
     45294 TIP3     11793    TIP3     H1       HT       0.417000       1.00800           0
     45295 TIP3     11793    TIP3     H2       HT       0.417000       1.00800           0
     45296 TIP3     11794    TIP3     OH2      OT      -0.834000       15.9994           0
     45297 TIP3     11794    TIP3     H1       HT       0.417000       1.00800           0
     45298 TIP3     11794    TIP3     H2       HT       0.417000       1.00800           0
     45299 TIP3     11795    TIP3     OH2      OT      -0.834000       15.9994           0
     45300 TIP3     11795    TIP3     H1       HT       0.417000       1.00800           0
     45301 TIP3     11795    TIP3     H2       HT       0.417000       1.00800           0
     45302 TIP3     11796    TIP3     OH2      OT      -0.834000       15.9994           0
     45303 TIP3     11796    TIP3     H1       HT       0.417000       1.00800           0
     45304 TIP3     11796    TIP3     H2       HT       0.417000       1.00800           0
     45305 TIP3     11797    TIP3     OH2      OT      -0.834000       15.9994           0
     45306 TIP3     11797    TIP3     H1       HT       0.417000       1.00800           0
     45307 TIP3     11797    TIP3     H2       HT       0.417000       1.00800           0
     45308 TIP3     11798    TIP3     OH2      OT      -0.834000       15.9994           0
     45309 TIP3     11798    TIP3     H1       HT       0.417000       1.00800           0
     45310 TIP3     11798    TIP3     H2       HT       0.417000       1.00800           0
     45311 TIP3     11799    TIP3     OH2      OT      -0.834000       15.9994           0
     45312 TIP3     11799    TIP3     H1       HT       0.417000       1.00800           0
     45313 TIP3     11799    TIP3     H2       HT       0.417000       1.00800           0
     45314 TIP3     11800    TIP3     OH2      OT      -0.834000       15.9994           0
     45315 TIP3     11800    TIP3     H1       HT       0.417000       1.00800           0
     45316 TIP3     11800    TIP3     H2       HT       0.417000       1.00800           0
     45317 TIP3     11801    TIP3     OH2      OT      -0.834000       15.9994           0
     45318 TIP3     11801    TIP3     H1       HT       0.417000       1.00800           0
     45319 TIP3     11801    TIP3     H2       HT       0.417000       1.00800           0
     45320 TIP3     11802    TIP3     OH2      OT      -0.834000       15.9994           0
     45321 TIP3     11802    TIP3     H1       HT       0.417000       1.00800           0
     45322 TIP3     11802    TIP3     H2       HT       0.417000       1.00800           0
     45323 TIP3     11803    TIP3     OH2      OT      -0.834000       15.9994           0
     45324 TIP3     11803    TIP3     H1       HT       0.417000       1.00800           0
     45325 TIP3     11803    TIP3     H2       HT       0.417000       1.00800           0
     45326 TIP3     11804    TIP3     OH2      OT      -0.834000       15.9994           0
     45327 TIP3     11804    TIP3     H1       HT       0.417000       1.00800           0
     45328 TIP3     11804    TIP3     H2       HT       0.417000       1.00800           0
     45329 TIP3     11805    TIP3     OH2      OT      -0.834000       15.9994           0
     45330 TIP3     11805    TIP3     H1       HT       0.417000       1.00800           0
     45331 TIP3     11805    TIP3     H2       HT       0.417000       1.00800           0
     45332 TIP3     11806    TIP3     OH2      OT      -0.834000       15.9994           0
     45333 TIP3     11806    TIP3     H1       HT       0.417000       1.00800           0
     45334 TIP3     11806    TIP3     H2       HT       0.417000       1.00800           0
     45335 TIP3     11807    TIP3     OH2      OT      -0.834000       15.9994           0
     45336 TIP3     11807    TIP3     H1       HT       0.417000       1.00800           0
     45337 TIP3     11807    TIP3     H2       HT       0.417000       1.00800           0
     45338 TIP3     11808    TIP3     OH2      OT      -0.834000       15.9994           0
     45339 TIP3     11808    TIP3     H1       HT       0.417000       1.00800           0
     45340 TIP3     11808    TIP3     H2       HT       0.417000       1.00800           0
     45341 TIP3     11809    TIP3     OH2      OT      -0.834000       15.9994           0
     45342 TIP3     11809    TIP3     H1       HT       0.417000       1.00800           0
     45343 TIP3     11809    TIP3     H2       HT       0.417000       1.00800           0
     45344 TIP3     11810    TIP3     OH2      OT      -0.834000       15.9994           0
     45345 TIP3     11810    TIP3     H1       HT       0.417000       1.00800           0
     45346 TIP3     11810    TIP3     H2       HT       0.417000       1.00800           0
     45347 TIP3     11811    TIP3     OH2      OT      -0.834000       15.9994           0
     45348 TIP3     11811    TIP3     H1       HT       0.417000       1.00800           0
     45349 TIP3     11811    TIP3     H2       HT       0.417000       1.00800           0
     45350 TIP3     11812    TIP3     OH2      OT      -0.834000       15.9994           0
     45351 TIP3     11812    TIP3     H1       HT       0.417000       1.00800           0
     45352 TIP3     11812    TIP3     H2       HT       0.417000       1.00800           0
     45353 TIP3     11813    TIP3     OH2      OT      -0.834000       15.9994           0
     45354 TIP3     11813    TIP3     H1       HT       0.417000       1.00800           0
     45355 TIP3     11813    TIP3     H2       HT       0.417000       1.00800           0
     45356 TIP3     11814    TIP3     OH2      OT      -0.834000       15.9994           0
     45357 TIP3     11814    TIP3     H1       HT       0.417000       1.00800           0
     45358 TIP3     11814    TIP3     H2       HT       0.417000       1.00800           0
     45359 TIP3     11815    TIP3     OH2      OT      -0.834000       15.9994           0
     45360 TIP3     11815    TIP3     H1       HT       0.417000       1.00800           0
     45361 TIP3     11815    TIP3     H2       HT       0.417000       1.00800           0
     45362 TIP3     11816    TIP3     OH2      OT      -0.834000       15.9994           0
     45363 TIP3     11816    TIP3     H1       HT       0.417000       1.00800           0
     45364 TIP3     11816    TIP3     H2       HT       0.417000       1.00800           0
     45365 TIP3     11817    TIP3     OH2      OT      -0.834000       15.9994           0
     45366 TIP3     11817    TIP3     H1       HT       0.417000       1.00800           0
     45367 TIP3     11817    TIP3     H2       HT       0.417000       1.00800           0
     45368 TIP3     11818    TIP3     OH2      OT      -0.834000       15.9994           0
     45369 TIP3     11818    TIP3     H1       HT       0.417000       1.00800           0
     45370 TIP3     11818    TIP3     H2       HT       0.417000       1.00800           0
     45371 TIP3     11819    TIP3     OH2      OT      -0.834000       15.9994           0
     45372 TIP3     11819    TIP3     H1       HT       0.417000       1.00800           0
     45373 TIP3     11819    TIP3     H2       HT       0.417000       1.00800           0
     45374 TIP3     11820    TIP3     OH2      OT      -0.834000       15.9994           0
     45375 TIP3     11820    TIP3     H1       HT       0.417000       1.00800           0
     45376 TIP3     11820    TIP3     H2       HT       0.417000       1.00800           0
     45377 TIP3     11821    TIP3     OH2      OT      -0.834000       15.9994           0
     45378 TIP3     11821    TIP3     H1       HT       0.417000       1.00800           0
     45379 TIP3     11821    TIP3     H2       HT       0.417000       1.00800           0
     45380 TIP3     11822    TIP3     OH2      OT      -0.834000       15.9994           0
     45381 TIP3     11822    TIP3     H1       HT       0.417000       1.00800           0
     45382 TIP3     11822    TIP3     H2       HT       0.417000       1.00800           0
     45383 TIP3     11823    TIP3     OH2      OT      -0.834000       15.9994           0
     45384 TIP3     11823    TIP3     H1       HT       0.417000       1.00800           0
     45385 TIP3     11823    TIP3     H2       HT       0.417000       1.00800           0
     45386 TIP3     11824    TIP3     OH2      OT      -0.834000       15.9994           0
     45387 TIP3     11824    TIP3     H1       HT       0.417000       1.00800           0
     45388 TIP3     11824    TIP3     H2       HT       0.417000       1.00800           0
     45389 TIP3     11825    TIP3     OH2      OT      -0.834000       15.9994           0
     45390 TIP3     11825    TIP3     H1       HT       0.417000       1.00800           0
     45391 TIP3     11825    TIP3     H2       HT       0.417000       1.00800           0
     45392 TIP3     11826    TIP3     OH2      OT      -0.834000       15.9994           0
     45393 TIP3     11826    TIP3     H1       HT       0.417000       1.00800           0
     45394 TIP3     11826    TIP3     H2       HT       0.417000       1.00800           0
     45395 TIP3     11827    TIP3     OH2      OT      -0.834000       15.9994           0
     45396 TIP3     11827    TIP3     H1       HT       0.417000       1.00800           0
     45397 TIP3     11827    TIP3     H2       HT       0.417000       1.00800           0
     45398 TIP3     11828    TIP3     OH2      OT      -0.834000       15.9994           0
     45399 TIP3     11828    TIP3     H1       HT       0.417000       1.00800           0
     45400 TIP3     11828    TIP3     H2       HT       0.417000       1.00800           0
     45401 TIP3     11829    TIP3     OH2      OT      -0.834000       15.9994           0
     45402 TIP3     11829    TIP3     H1       HT       0.417000       1.00800           0
     45403 TIP3     11829    TIP3     H2       HT       0.417000       1.00800           0
     45404 TIP3     11830    TIP3     OH2      OT      -0.834000       15.9994           0
     45405 TIP3     11830    TIP3     H1       HT       0.417000       1.00800           0
     45406 TIP3     11830    TIP3     H2       HT       0.417000       1.00800           0
     45407 TIP3     11831    TIP3     OH2      OT      -0.834000       15.9994           0
     45408 TIP3     11831    TIP3     H1       HT       0.417000       1.00800           0
     45409 TIP3     11831    TIP3     H2       HT       0.417000       1.00800           0
     45410 TIP3     11832    TIP3     OH2      OT      -0.834000       15.9994           0
     45411 TIP3     11832    TIP3     H1       HT       0.417000       1.00800           0
     45412 TIP3     11832    TIP3     H2       HT       0.417000       1.00800           0
     45413 TIP3     11833    TIP3     OH2      OT      -0.834000       15.9994           0
     45414 TIP3     11833    TIP3     H1       HT       0.417000       1.00800           0
     45415 TIP3     11833    TIP3     H2       HT       0.417000       1.00800           0
     45416 TIP3     11834    TIP3     OH2      OT      -0.834000       15.9994           0
     45417 TIP3     11834    TIP3     H1       HT       0.417000       1.00800           0
     45418 TIP3     11834    TIP3     H2       HT       0.417000       1.00800           0
     45419 TIP3     11835    TIP3     OH2      OT      -0.834000       15.9994           0
     45420 TIP3     11835    TIP3     H1       HT       0.417000       1.00800           0
     45421 TIP3     11835    TIP3     H2       HT       0.417000       1.00800           0
     45422 TIP3     11836    TIP3     OH2      OT      -0.834000       15.9994           0
     45423 TIP3     11836    TIP3     H1       HT       0.417000       1.00800           0
     45424 TIP3     11836    TIP3     H2       HT       0.417000       1.00800           0
     45425 TIP3     11837    TIP3     OH2      OT      -0.834000       15.9994           0
     45426 TIP3     11837    TIP3     H1       HT       0.417000       1.00800           0
     45427 TIP3     11837    TIP3     H2       HT       0.417000       1.00800           0
     45428 TIP3     11838    TIP3     OH2      OT      -0.834000       15.9994           0
     45429 TIP3     11838    TIP3     H1       HT       0.417000       1.00800           0
     45430 TIP3     11838    TIP3     H2       HT       0.417000       1.00800           0
     45431 TIP3     11839    TIP3     OH2      OT      -0.834000       15.9994           0
     45432 TIP3     11839    TIP3     H1       HT       0.417000       1.00800           0
     45433 TIP3     11839    TIP3     H2       HT       0.417000       1.00800           0
     45434 TIP3     11840    TIP3     OH2      OT      -0.834000       15.9994           0
     45435 TIP3     11840    TIP3     H1       HT       0.417000       1.00800           0
     45436 TIP3     11840    TIP3     H2       HT       0.417000       1.00800           0
     45437 TIP3     11841    TIP3     OH2      OT      -0.834000       15.9994           0
     45438 TIP3     11841    TIP3     H1       HT       0.417000       1.00800           0
     45439 TIP3     11841    TIP3     H2       HT       0.417000       1.00800           0
     45440 TIP3     11842    TIP3     OH2      OT      -0.834000       15.9994           0
     45441 TIP3     11842    TIP3     H1       HT       0.417000       1.00800           0
     45442 TIP3     11842    TIP3     H2       HT       0.417000       1.00800           0
     45443 TIP3     11843    TIP3     OH2      OT      -0.834000       15.9994           0
     45444 TIP3     11843    TIP3     H1       HT       0.417000       1.00800           0
     45445 TIP3     11843    TIP3     H2       HT       0.417000       1.00800           0
     45446 TIP3     11844    TIP3     OH2      OT      -0.834000       15.9994           0
     45447 TIP3     11844    TIP3     H1       HT       0.417000       1.00800           0
     45448 TIP3     11844    TIP3     H2       HT       0.417000       1.00800           0
     45449 TIP3     11845    TIP3     OH2      OT      -0.834000       15.9994           0
     45450 TIP3     11845    TIP3     H1       HT       0.417000       1.00800           0
     45451 TIP3     11845    TIP3     H2       HT       0.417000       1.00800           0
     45452 TIP3     11846    TIP3     OH2      OT      -0.834000       15.9994           0
     45453 TIP3     11846    TIP3     H1       HT       0.417000       1.00800           0
     45454 TIP3     11846    TIP3     H2       HT       0.417000       1.00800           0
     45455 TIP3     11847    TIP3     OH2      OT      -0.834000       15.9994           0
     45456 TIP3     11847    TIP3     H1       HT       0.417000       1.00800           0
     45457 TIP3     11847    TIP3     H2       HT       0.417000       1.00800           0
     45458 TIP3     11848    TIP3     OH2      OT      -0.834000       15.9994           0
     45459 TIP3     11848    TIP3     H1       HT       0.417000       1.00800           0
     45460 TIP3     11848    TIP3     H2       HT       0.417000       1.00800           0
     45461 TIP3     11849    TIP3     OH2      OT      -0.834000       15.9994           0
     45462 TIP3     11849    TIP3     H1       HT       0.417000       1.00800           0
     45463 TIP3     11849    TIP3     H2       HT       0.417000       1.00800           0
     45464 TIP3     11850    TIP3     OH2      OT      -0.834000       15.9994           0
     45465 TIP3     11850    TIP3     H1       HT       0.417000       1.00800           0
     45466 TIP3     11850    TIP3     H2       HT       0.417000       1.00800           0
     45467 TIP3     11851    TIP3     OH2      OT      -0.834000       15.9994           0
     45468 TIP3     11851    TIP3     H1       HT       0.417000       1.00800           0
     45469 TIP3     11851    TIP3     H2       HT       0.417000       1.00800           0
     45470 TIP3     11852    TIP3     OH2      OT      -0.834000       15.9994           0
     45471 TIP3     11852    TIP3     H1       HT       0.417000       1.00800           0
     45472 TIP3     11852    TIP3     H2       HT       0.417000       1.00800           0
     45473 TIP3     11853    TIP3     OH2      OT      -0.834000       15.9994           0
     45474 TIP3     11853    TIP3     H1       HT       0.417000       1.00800           0
     45475 TIP3     11853    TIP3     H2       HT       0.417000       1.00800           0
     45476 TIP3     11854    TIP3     OH2      OT      -0.834000       15.9994           0
     45477 TIP3     11854    TIP3     H1       HT       0.417000       1.00800           0
     45478 TIP3     11854    TIP3     H2       HT       0.417000       1.00800           0
     45479 TIP3     11855    TIP3     OH2      OT      -0.834000       15.9994           0
     45480 TIP3     11855    TIP3     H1       HT       0.417000       1.00800           0
     45481 TIP3     11855    TIP3     H2       HT       0.417000       1.00800           0
     45482 TIP3     11856    TIP3     OH2      OT      -0.834000       15.9994           0
     45483 TIP3     11856    TIP3     H1       HT       0.417000       1.00800           0
     45484 TIP3     11856    TIP3     H2       HT       0.417000       1.00800           0
     45485 TIP3     11857    TIP3     OH2      OT      -0.834000       15.9994           0
     45486 TIP3     11857    TIP3     H1       HT       0.417000       1.00800           0
     45487 TIP3     11857    TIP3     H2       HT       0.417000       1.00800           0
     45488 TIP3     11858    TIP3     OH2      OT      -0.834000       15.9994           0
     45489 TIP3     11858    TIP3     H1       HT       0.417000       1.00800           0
     45490 TIP3     11858    TIP3     H2       HT       0.417000       1.00800           0
     45491 TIP3     11859    TIP3     OH2      OT      -0.834000       15.9994           0
     45492 TIP3     11859    TIP3     H1       HT       0.417000       1.00800           0
     45493 TIP3     11859    TIP3     H2       HT       0.417000       1.00800           0
     45494 TIP3     11860    TIP3     OH2      OT      -0.834000       15.9994           0
     45495 TIP3     11860    TIP3     H1       HT       0.417000       1.00800           0
     45496 TIP3     11860    TIP3     H2       HT       0.417000       1.00800           0
     45497 TIP3     11861    TIP3     OH2      OT      -0.834000       15.9994           0
     45498 TIP3     11861    TIP3     H1       HT       0.417000       1.00800           0
     45499 TIP3     11861    TIP3     H2       HT       0.417000       1.00800           0
     45500 TIP3     11862    TIP3     OH2      OT      -0.834000       15.9994           0
     45501 TIP3     11862    TIP3     H1       HT       0.417000       1.00800           0
     45502 TIP3     11862    TIP3     H2       HT       0.417000       1.00800           0
     45503 TIP3     11863    TIP3     OH2      OT      -0.834000       15.9994           0
     45504 TIP3     11863    TIP3     H1       HT       0.417000       1.00800           0
     45505 TIP3     11863    TIP3     H2       HT       0.417000       1.00800           0
     45506 TIP3     11864    TIP3     OH2      OT      -0.834000       15.9994           0
     45507 TIP3     11864    TIP3     H1       HT       0.417000       1.00800           0
     45508 TIP3     11864    TIP3     H2       HT       0.417000       1.00800           0
     45509 TIP3     11865    TIP3     OH2      OT      -0.834000       15.9994           0
     45510 TIP3     11865    TIP3     H1       HT       0.417000       1.00800           0
     45511 TIP3     11865    TIP3     H2       HT       0.417000       1.00800           0
     45512 TIP3     11866    TIP3     OH2      OT      -0.834000       15.9994           0
     45513 TIP3     11866    TIP3     H1       HT       0.417000       1.00800           0
     45514 TIP3     11866    TIP3     H2       HT       0.417000       1.00800           0
     45515 TIP3     11867    TIP3     OH2      OT      -0.834000       15.9994           0
     45516 TIP3     11867    TIP3     H1       HT       0.417000       1.00800           0
     45517 TIP3     11867    TIP3     H2       HT       0.417000       1.00800           0
     45518 TIP3     11868    TIP3     OH2      OT      -0.834000       15.9994           0
     45519 TIP3     11868    TIP3     H1       HT       0.417000       1.00800           0
     45520 TIP3     11868    TIP3     H2       HT       0.417000       1.00800           0
     45521 TIP3     11869    TIP3     OH2      OT      -0.834000       15.9994           0
     45522 TIP3     11869    TIP3     H1       HT       0.417000       1.00800           0
     45523 TIP3     11869    TIP3     H2       HT       0.417000       1.00800           0
     45524 TIP3     11870    TIP3     OH2      OT      -0.834000       15.9994           0
     45525 TIP3     11870    TIP3     H1       HT       0.417000       1.00800           0
     45526 TIP3     11870    TIP3     H2       HT       0.417000       1.00800           0
     45527 TIP3     11871    TIP3     OH2      OT      -0.834000       15.9994           0
     45528 TIP3     11871    TIP3     H1       HT       0.417000       1.00800           0
     45529 TIP3     11871    TIP3     H2       HT       0.417000       1.00800           0
     45530 TIP3     11872    TIP3     OH2      OT      -0.834000       15.9994           0
     45531 TIP3     11872    TIP3     H1       HT       0.417000       1.00800           0
     45532 TIP3     11872    TIP3     H2       HT       0.417000       1.00800           0
     45533 TIP3     11873    TIP3     OH2      OT      -0.834000       15.9994           0
     45534 TIP3     11873    TIP3     H1       HT       0.417000       1.00800           0
     45535 TIP3     11873    TIP3     H2       HT       0.417000       1.00800           0
     45536 TIP3     11874    TIP3     OH2      OT      -0.834000       15.9994           0
     45537 TIP3     11874    TIP3     H1       HT       0.417000       1.00800           0
     45538 TIP3     11874    TIP3     H2       HT       0.417000       1.00800           0
     45539 TIP3     11875    TIP3     OH2      OT      -0.834000       15.9994           0
     45540 TIP3     11875    TIP3     H1       HT       0.417000       1.00800           0
     45541 TIP3     11875    TIP3     H2       HT       0.417000       1.00800           0
     45542 TIP3     11876    TIP3     OH2      OT      -0.834000       15.9994           0
     45543 TIP3     11876    TIP3     H1       HT       0.417000       1.00800           0
     45544 TIP3     11876    TIP3     H2       HT       0.417000       1.00800           0
     45545 TIP3     11877    TIP3     OH2      OT      -0.834000       15.9994           0
     45546 TIP3     11877    TIP3     H1       HT       0.417000       1.00800           0
     45547 TIP3     11877    TIP3     H2       HT       0.417000       1.00800           0
     45548 TIP3     11878    TIP3     OH2      OT      -0.834000       15.9994           0
     45549 TIP3     11878    TIP3     H1       HT       0.417000       1.00800           0
     45550 TIP3     11878    TIP3     H2       HT       0.417000       1.00800           0
     45551 TIP3     11879    TIP3     OH2      OT      -0.834000       15.9994           0
     45552 TIP3     11879    TIP3     H1       HT       0.417000       1.00800           0
     45553 TIP3     11879    TIP3     H2       HT       0.417000       1.00800           0
     45554 TIP3     11880    TIP3     OH2      OT      -0.834000       15.9994           0
     45555 TIP3     11880    TIP3     H1       HT       0.417000       1.00800           0
     45556 TIP3     11880    TIP3     H2       HT       0.417000       1.00800           0
     45557 TIP3     11881    TIP3     OH2      OT      -0.834000       15.9994           0
     45558 TIP3     11881    TIP3     H1       HT       0.417000       1.00800           0
     45559 TIP3     11881    TIP3     H2       HT       0.417000       1.00800           0
     45560 TIP3     11882    TIP3     OH2      OT      -0.834000       15.9994           0
     45561 TIP3     11882    TIP3     H1       HT       0.417000       1.00800           0
     45562 TIP3     11882    TIP3     H2       HT       0.417000       1.00800           0
     45563 TIP3     11883    TIP3     OH2      OT      -0.834000       15.9994           0
     45564 TIP3     11883    TIP3     H1       HT       0.417000       1.00800           0
     45565 TIP3     11883    TIP3     H2       HT       0.417000       1.00800           0
     45566 TIP3     11884    TIP3     OH2      OT      -0.834000       15.9994           0
     45567 TIP3     11884    TIP3     H1       HT       0.417000       1.00800           0
     45568 TIP3     11884    TIP3     H2       HT       0.417000       1.00800           0
     45569 TIP3     11885    TIP3     OH2      OT      -0.834000       15.9994           0
     45570 TIP3     11885    TIP3     H1       HT       0.417000       1.00800           0
     45571 TIP3     11885    TIP3     H2       HT       0.417000       1.00800           0
     45572 TIP3     11886    TIP3     OH2      OT      -0.834000       15.9994           0
     45573 TIP3     11886    TIP3     H1       HT       0.417000       1.00800           0
     45574 TIP3     11886    TIP3     H2       HT       0.417000       1.00800           0
     45575 TIP3     11887    TIP3     OH2      OT      -0.834000       15.9994           0
     45576 TIP3     11887    TIP3     H1       HT       0.417000       1.00800           0
     45577 TIP3     11887    TIP3     H2       HT       0.417000       1.00800           0
     45578 TIP3     11888    TIP3     OH2      OT      -0.834000       15.9994           0
     45579 TIP3     11888    TIP3     H1       HT       0.417000       1.00800           0
     45580 TIP3     11888    TIP3     H2       HT       0.417000       1.00800           0
     45581 TIP3     11889    TIP3     OH2      OT      -0.834000       15.9994           0
     45582 TIP3     11889    TIP3     H1       HT       0.417000       1.00800           0
     45583 TIP3     11889    TIP3     H2       HT       0.417000       1.00800           0
     45584 TIP3     11890    TIP3     OH2      OT      -0.834000       15.9994           0
     45585 TIP3     11890    TIP3     H1       HT       0.417000       1.00800           0
     45586 TIP3     11890    TIP3     H2       HT       0.417000       1.00800           0
     45587 TIP3     11891    TIP3     OH2      OT      -0.834000       15.9994           0
     45588 TIP3     11891    TIP3     H1       HT       0.417000       1.00800           0
     45589 TIP3     11891    TIP3     H2       HT       0.417000       1.00800           0
     45590 TIP3     11892    TIP3     OH2      OT      -0.834000       15.9994           0
     45591 TIP3     11892    TIP3     H1       HT       0.417000       1.00800           0
     45592 TIP3     11892    TIP3     H2       HT       0.417000       1.00800           0
     45593 TIP3     11893    TIP3     OH2      OT      -0.834000       15.9994           0
     45594 TIP3     11893    TIP3     H1       HT       0.417000       1.00800           0
     45595 TIP3     11893    TIP3     H2       HT       0.417000       1.00800           0
     45596 TIP3     11894    TIP3     OH2      OT      -0.834000       15.9994           0
     45597 TIP3     11894    TIP3     H1       HT       0.417000       1.00800           0
     45598 TIP3     11894    TIP3     H2       HT       0.417000       1.00800           0
     45599 TIP3     11895    TIP3     OH2      OT      -0.834000       15.9994           0
     45600 TIP3     11895    TIP3     H1       HT       0.417000       1.00800           0
     45601 TIP3     11895    TIP3     H2       HT       0.417000       1.00800           0
     45602 TIP3     11896    TIP3     OH2      OT      -0.834000       15.9994           0
     45603 TIP3     11896    TIP3     H1       HT       0.417000       1.00800           0
     45604 TIP3     11896    TIP3     H2       HT       0.417000       1.00800           0
     45605 TIP3     11897    TIP3     OH2      OT      -0.834000       15.9994           0
     45606 TIP3     11897    TIP3     H1       HT       0.417000       1.00800           0
     45607 TIP3     11897    TIP3     H2       HT       0.417000       1.00800           0
     45608 TIP3     11898    TIP3     OH2      OT      -0.834000       15.9994           0
     45609 TIP3     11898    TIP3     H1       HT       0.417000       1.00800           0
     45610 TIP3     11898    TIP3     H2       HT       0.417000       1.00800           0
     45611 TIP3     11899    TIP3     OH2      OT      -0.834000       15.9994           0
     45612 TIP3     11899    TIP3     H1       HT       0.417000       1.00800           0
     45613 TIP3     11899    TIP3     H2       HT       0.417000       1.00800           0
     45614 TIP3     11900    TIP3     OH2      OT      -0.834000       15.9994           0
     45615 TIP3     11900    TIP3     H1       HT       0.417000       1.00800           0
     45616 TIP3     11900    TIP3     H2       HT       0.417000       1.00800           0
     45617 TIP3     11901    TIP3     OH2      OT      -0.834000       15.9994           0
     45618 TIP3     11901    TIP3     H1       HT       0.417000       1.00800           0
     45619 TIP3     11901    TIP3     H2       HT       0.417000       1.00800           0
     45620 TIP3     11902    TIP3     OH2      OT      -0.834000       15.9994           0
     45621 TIP3     11902    TIP3     H1       HT       0.417000       1.00800           0
     45622 TIP3     11902    TIP3     H2       HT       0.417000       1.00800           0
     45623 TIP3     11903    TIP3     OH2      OT      -0.834000       15.9994           0
     45624 TIP3     11903    TIP3     H1       HT       0.417000       1.00800           0
     45625 TIP3     11903    TIP3     H2       HT       0.417000       1.00800           0
     45626 TIP3     11904    TIP3     OH2      OT      -0.834000       15.9994           0
     45627 TIP3     11904    TIP3     H1       HT       0.417000       1.00800           0
     45628 TIP3     11904    TIP3     H2       HT       0.417000       1.00800           0
     45629 TIP3     11905    TIP3     OH2      OT      -0.834000       15.9994           0
     45630 TIP3     11905    TIP3     H1       HT       0.417000       1.00800           0
     45631 TIP3     11905    TIP3     H2       HT       0.417000       1.00800           0
     45632 TIP3     11906    TIP3     OH2      OT      -0.834000       15.9994           0
     45633 TIP3     11906    TIP3     H1       HT       0.417000       1.00800           0
     45634 TIP3     11906    TIP3     H2       HT       0.417000       1.00800           0
     45635 TIP3     11907    TIP3     OH2      OT      -0.834000       15.9994           0
     45636 TIP3     11907    TIP3     H1       HT       0.417000       1.00800           0
     45637 TIP3     11907    TIP3     H2       HT       0.417000       1.00800           0
     45638 TIP3     11908    TIP3     OH2      OT      -0.834000       15.9994           0
     45639 TIP3     11908    TIP3     H1       HT       0.417000       1.00800           0
     45640 TIP3     11908    TIP3     H2       HT       0.417000       1.00800           0
     45641 TIP3     11909    TIP3     OH2      OT      -0.834000       15.9994           0
     45642 TIP3     11909    TIP3     H1       HT       0.417000       1.00800           0
     45643 TIP3     11909    TIP3     H2       HT       0.417000       1.00800           0
     45644 TIP3     11910    TIP3     OH2      OT      -0.834000       15.9994           0
     45645 TIP3     11910    TIP3     H1       HT       0.417000       1.00800           0
     45646 TIP3     11910    TIP3     H2       HT       0.417000       1.00800           0
     45647 TIP3     11911    TIP3     OH2      OT      -0.834000       15.9994           0
     45648 TIP3     11911    TIP3     H1       HT       0.417000       1.00800           0
     45649 TIP3     11911    TIP3     H2       HT       0.417000       1.00800           0
     45650 TIP3     11912    TIP3     OH2      OT      -0.834000       15.9994           0
     45651 TIP3     11912    TIP3     H1       HT       0.417000       1.00800           0
     45652 TIP3     11912    TIP3     H2       HT       0.417000       1.00800           0
     45653 TIP3     11913    TIP3     OH2      OT      -0.834000       15.9994           0
     45654 TIP3     11913    TIP3     H1       HT       0.417000       1.00800           0
     45655 TIP3     11913    TIP3     H2       HT       0.417000       1.00800           0
     45656 TIP3     11914    TIP3     OH2      OT      -0.834000       15.9994           0
     45657 TIP3     11914    TIP3     H1       HT       0.417000       1.00800           0
     45658 TIP3     11914    TIP3     H2       HT       0.417000       1.00800           0
     45659 TIP3     11915    TIP3     OH2      OT      -0.834000       15.9994           0
     45660 TIP3     11915    TIP3     H1       HT       0.417000       1.00800           0
     45661 TIP3     11915    TIP3     H2       HT       0.417000       1.00800           0
     45662 TIP3     11916    TIP3     OH2      OT      -0.834000       15.9994           0
     45663 TIP3     11916    TIP3     H1       HT       0.417000       1.00800           0
     45664 TIP3     11916    TIP3     H2       HT       0.417000       1.00800           0
     45665 TIP3     11917    TIP3     OH2      OT      -0.834000       15.9994           0
     45666 TIP3     11917    TIP3     H1       HT       0.417000       1.00800           0
     45667 TIP3     11917    TIP3     H2       HT       0.417000       1.00800           0
     45668 TIP3     11918    TIP3     OH2      OT      -0.834000       15.9994           0
     45669 TIP3     11918    TIP3     H1       HT       0.417000       1.00800           0
     45670 TIP3     11918    TIP3     H2       HT       0.417000       1.00800           0
     45671 TIP3     11919    TIP3     OH2      OT      -0.834000       15.9994           0
     45672 TIP3     11919    TIP3     H1       HT       0.417000       1.00800           0
     45673 TIP3     11919    TIP3     H2       HT       0.417000       1.00800           0
     45674 TIP3     11920    TIP3     OH2      OT      -0.834000       15.9994           0
     45675 TIP3     11920    TIP3     H1       HT       0.417000       1.00800           0
     45676 TIP3     11920    TIP3     H2       HT       0.417000       1.00800           0
     45677 TIP3     11921    TIP3     OH2      OT      -0.834000       15.9994           0
     45678 TIP3     11921    TIP3     H1       HT       0.417000       1.00800           0
     45679 TIP3     11921    TIP3     H2       HT       0.417000       1.00800           0
     45680 TIP3     11922    TIP3     OH2      OT      -0.834000       15.9994           0
     45681 TIP3     11922    TIP3     H1       HT       0.417000       1.00800           0
     45682 TIP3     11922    TIP3     H2       HT       0.417000       1.00800           0
     45683 TIP3     11923    TIP3     OH2      OT      -0.834000       15.9994           0
     45684 TIP3     11923    TIP3     H1       HT       0.417000       1.00800           0
     45685 TIP3     11923    TIP3     H2       HT       0.417000       1.00800           0
     45686 TIP3     11924    TIP3     OH2      OT      -0.834000       15.9994           0
     45687 TIP3     11924    TIP3     H1       HT       0.417000       1.00800           0
     45688 TIP3     11924    TIP3     H2       HT       0.417000       1.00800           0
     45689 TIP3     11925    TIP3     OH2      OT      -0.834000       15.9994           0
     45690 TIP3     11925    TIP3     H1       HT       0.417000       1.00800           0
     45691 TIP3     11925    TIP3     H2       HT       0.417000       1.00800           0
     45692 TIP3     11926    TIP3     OH2      OT      -0.834000       15.9994           0
     45693 TIP3     11926    TIP3     H1       HT       0.417000       1.00800           0
     45694 TIP3     11926    TIP3     H2       HT       0.417000       1.00800           0
     45695 TIP3     11927    TIP3     OH2      OT      -0.834000       15.9994           0
     45696 TIP3     11927    TIP3     H1       HT       0.417000       1.00800           0
     45697 TIP3     11927    TIP3     H2       HT       0.417000       1.00800           0
     45698 TIP3     11928    TIP3     OH2      OT      -0.834000       15.9994           0
     45699 TIP3     11928    TIP3     H1       HT       0.417000       1.00800           0
     45700 TIP3     11928    TIP3     H2       HT       0.417000       1.00800           0
     45701 TIP3     11929    TIP3     OH2      OT      -0.834000       15.9994           0
     45702 TIP3     11929    TIP3     H1       HT       0.417000       1.00800           0
     45703 TIP3     11929    TIP3     H2       HT       0.417000       1.00800           0
     45704 TIP3     11930    TIP3     OH2      OT      -0.834000       15.9994           0
     45705 TIP3     11930    TIP3     H1       HT       0.417000       1.00800           0
     45706 TIP3     11930    TIP3     H2       HT       0.417000       1.00800           0
     45707 TIP3     11931    TIP3     OH2      OT      -0.834000       15.9994           0
     45708 TIP3     11931    TIP3     H1       HT       0.417000       1.00800           0
     45709 TIP3     11931    TIP3     H2       HT       0.417000       1.00800           0
     45710 TIP3     11932    TIP3     OH2      OT      -0.834000       15.9994           0
     45711 TIP3     11932    TIP3     H1       HT       0.417000       1.00800           0
     45712 TIP3     11932    TIP3     H2       HT       0.417000       1.00800           0
     45713 TIP3     11933    TIP3     OH2      OT      -0.834000       15.9994           0
     45714 TIP3     11933    TIP3     H1       HT       0.417000       1.00800           0
     45715 TIP3     11933    TIP3     H2       HT       0.417000       1.00800           0
     45716 TIP3     11934    TIP3     OH2      OT      -0.834000       15.9994           0
     45717 TIP3     11934    TIP3     H1       HT       0.417000       1.00800           0
     45718 TIP3     11934    TIP3     H2       HT       0.417000       1.00800           0
     45719 TIP3     11935    TIP3     OH2      OT      -0.834000       15.9994           0
     45720 TIP3     11935    TIP3     H1       HT       0.417000       1.00800           0
     45721 TIP3     11935    TIP3     H2       HT       0.417000       1.00800           0
     45722 TIP3     11936    TIP3     OH2      OT      -0.834000       15.9994           0
     45723 TIP3     11936    TIP3     H1       HT       0.417000       1.00800           0
     45724 TIP3     11936    TIP3     H2       HT       0.417000       1.00800           0
     45725 TIP3     11937    TIP3     OH2      OT      -0.834000       15.9994           0
     45726 TIP3     11937    TIP3     H1       HT       0.417000       1.00800           0
     45727 TIP3     11937    TIP3     H2       HT       0.417000       1.00800           0
     45728 TIP3     11938    TIP3     OH2      OT      -0.834000       15.9994           0
     45729 TIP3     11938    TIP3     H1       HT       0.417000       1.00800           0
     45730 TIP3     11938    TIP3     H2       HT       0.417000       1.00800           0
     45731 TIP3     11939    TIP3     OH2      OT      -0.834000       15.9994           0
     45732 TIP3     11939    TIP3     H1       HT       0.417000       1.00800           0
     45733 TIP3     11939    TIP3     H2       HT       0.417000       1.00800           0
     45734 TIP3     11940    TIP3     OH2      OT      -0.834000       15.9994           0
     45735 TIP3     11940    TIP3     H1       HT       0.417000       1.00800           0
     45736 TIP3     11940    TIP3     H2       HT       0.417000       1.00800           0
     45737 TIP3     11941    TIP3     OH2      OT      -0.834000       15.9994           0
     45738 TIP3     11941    TIP3     H1       HT       0.417000       1.00800           0
     45739 TIP3     11941    TIP3     H2       HT       0.417000       1.00800           0
     45740 TIP3     11942    TIP3     OH2      OT      -0.834000       15.9994           0
     45741 TIP3     11942    TIP3     H1       HT       0.417000       1.00800           0
     45742 TIP3     11942    TIP3     H2       HT       0.417000       1.00800           0
     45743 TIP3     11943    TIP3     OH2      OT      -0.834000       15.9994           0
     45744 TIP3     11943    TIP3     H1       HT       0.417000       1.00800           0
     45745 TIP3     11943    TIP3     H2       HT       0.417000       1.00800           0
     45746 TIP3     11944    TIP3     OH2      OT      -0.834000       15.9994           0
     45747 TIP3     11944    TIP3     H1       HT       0.417000       1.00800           0
     45748 TIP3     11944    TIP3     H2       HT       0.417000       1.00800           0
     45749 TIP3     11945    TIP3     OH2      OT      -0.834000       15.9994           0
     45750 TIP3     11945    TIP3     H1       HT       0.417000       1.00800           0
     45751 TIP3     11945    TIP3     H2       HT       0.417000       1.00800           0
     45752 TIP3     11946    TIP3     OH2      OT      -0.834000       15.9994           0
     45753 TIP3     11946    TIP3     H1       HT       0.417000       1.00800           0
     45754 TIP3     11946    TIP3     H2       HT       0.417000       1.00800           0
     45755 TIP3     11947    TIP3     OH2      OT      -0.834000       15.9994           0
     45756 TIP3     11947    TIP3     H1       HT       0.417000       1.00800           0
     45757 TIP3     11947    TIP3     H2       HT       0.417000       1.00800           0
     45758 TIP3     11948    TIP3     OH2      OT      -0.834000       15.9994           0
     45759 TIP3     11948    TIP3     H1       HT       0.417000       1.00800           0
     45760 TIP3     11948    TIP3     H2       HT       0.417000       1.00800           0
     45761 TIP3     11949    TIP3     OH2      OT      -0.834000       15.9994           0
     45762 TIP3     11949    TIP3     H1       HT       0.417000       1.00800           0
     45763 TIP3     11949    TIP3     H2       HT       0.417000       1.00800           0
     45764 TIP3     11950    TIP3     OH2      OT      -0.834000       15.9994           0
     45765 TIP3     11950    TIP3     H1       HT       0.417000       1.00800           0
     45766 TIP3     11950    TIP3     H2       HT       0.417000       1.00800           0
     45767 TIP3     11951    TIP3     OH2      OT      -0.834000       15.9994           0
     45768 TIP3     11951    TIP3     H1       HT       0.417000       1.00800           0
     45769 TIP3     11951    TIP3     H2       HT       0.417000       1.00800           0
     45770 TIP3     11952    TIP3     OH2      OT      -0.834000       15.9994           0
     45771 TIP3     11952    TIP3     H1       HT       0.417000       1.00800           0
     45772 TIP3     11952    TIP3     H2       HT       0.417000       1.00800           0
     45773 TIP3     11953    TIP3     OH2      OT      -0.834000       15.9994           0
     45774 TIP3     11953    TIP3     H1       HT       0.417000       1.00800           0
     45775 TIP3     11953    TIP3     H2       HT       0.417000       1.00800           0
     45776 TIP3     11954    TIP3     OH2      OT      -0.834000       15.9994           0
     45777 TIP3     11954    TIP3     H1       HT       0.417000       1.00800           0
     45778 TIP3     11954    TIP3     H2       HT       0.417000       1.00800           0
     45779 TIP3     11955    TIP3     OH2      OT      -0.834000       15.9994           0
     45780 TIP3     11955    TIP3     H1       HT       0.417000       1.00800           0
     45781 TIP3     11955    TIP3     H2       HT       0.417000       1.00800           0
     45782 TIP3     11956    TIP3     OH2      OT      -0.834000       15.9994           0
     45783 TIP3     11956    TIP3     H1       HT       0.417000       1.00800           0
     45784 TIP3     11956    TIP3     H2       HT       0.417000       1.00800           0
     45785 TIP3     11957    TIP3     OH2      OT      -0.834000       15.9994           0
     45786 TIP3     11957    TIP3     H1       HT       0.417000       1.00800           0
     45787 TIP3     11957    TIP3     H2       HT       0.417000       1.00800           0
     45788 TIP3     11958    TIP3     OH2      OT      -0.834000       15.9994           0
     45789 TIP3     11958    TIP3     H1       HT       0.417000       1.00800           0
     45790 TIP3     11958    TIP3     H2       HT       0.417000       1.00800           0
     45791 TIP3     11959    TIP3     OH2      OT      -0.834000       15.9994           0
     45792 TIP3     11959    TIP3     H1       HT       0.417000       1.00800           0
     45793 TIP3     11959    TIP3     H2       HT       0.417000       1.00800           0
     45794 TIP3     11960    TIP3     OH2      OT      -0.834000       15.9994           0
     45795 TIP3     11960    TIP3     H1       HT       0.417000       1.00800           0
     45796 TIP3     11960    TIP3     H2       HT       0.417000       1.00800           0
     45797 TIP3     11961    TIP3     OH2      OT      -0.834000       15.9994           0
     45798 TIP3     11961    TIP3     H1       HT       0.417000       1.00800           0
     45799 TIP3     11961    TIP3     H2       HT       0.417000       1.00800           0
     45800 TIP3     11962    TIP3     OH2      OT      -0.834000       15.9994           0
     45801 TIP3     11962    TIP3     H1       HT       0.417000       1.00800           0
     45802 TIP3     11962    TIP3     H2       HT       0.417000       1.00800           0
     45803 TIP3     11963    TIP3     OH2      OT      -0.834000       15.9994           0
     45804 TIP3     11963    TIP3     H1       HT       0.417000       1.00800           0
     45805 TIP3     11963    TIP3     H2       HT       0.417000       1.00800           0
     45806 TIP3     11964    TIP3     OH2      OT      -0.834000       15.9994           0
     45807 TIP3     11964    TIP3     H1       HT       0.417000       1.00800           0
     45808 TIP3     11964    TIP3     H2       HT       0.417000       1.00800           0
     45809 TIP3     11965    TIP3     OH2      OT      -0.834000       15.9994           0
     45810 TIP3     11965    TIP3     H1       HT       0.417000       1.00800           0
     45811 TIP3     11965    TIP3     H2       HT       0.417000       1.00800           0
     45812 TIP3     11966    TIP3     OH2      OT      -0.834000       15.9994           0
     45813 TIP3     11966    TIP3     H1       HT       0.417000       1.00800           0
     45814 TIP3     11966    TIP3     H2       HT       0.417000       1.00800           0
     45815 TIP3     11967    TIP3     OH2      OT      -0.834000       15.9994           0
     45816 TIP3     11967    TIP3     H1       HT       0.417000       1.00800           0
     45817 TIP3     11967    TIP3     H2       HT       0.417000       1.00800           0
     45818 TIP3     11968    TIP3     OH2      OT      -0.834000       15.9994           0
     45819 TIP3     11968    TIP3     H1       HT       0.417000       1.00800           0
     45820 TIP3     11968    TIP3     H2       HT       0.417000       1.00800           0
     45821 TIP3     11969    TIP3     OH2      OT      -0.834000       15.9994           0
     45822 TIP3     11969    TIP3     H1       HT       0.417000       1.00800           0
     45823 TIP3     11969    TIP3     H2       HT       0.417000       1.00800           0
     45824 TIP3     11970    TIP3     OH2      OT      -0.834000       15.9994           0
     45825 TIP3     11970    TIP3     H1       HT       0.417000       1.00800           0
     45826 TIP3     11970    TIP3     H2       HT       0.417000       1.00800           0
     45827 TIP3     11971    TIP3     OH2      OT      -0.834000       15.9994           0
     45828 TIP3     11971    TIP3     H1       HT       0.417000       1.00800           0
     45829 TIP3     11971    TIP3     H2       HT       0.417000       1.00800           0
     45830 TIP3     11972    TIP3     OH2      OT      -0.834000       15.9994           0
     45831 TIP3     11972    TIP3     H1       HT       0.417000       1.00800           0
     45832 TIP3     11972    TIP3     H2       HT       0.417000       1.00800           0
     45833 TIP3     11973    TIP3     OH2      OT      -0.834000       15.9994           0
     45834 TIP3     11973    TIP3     H1       HT       0.417000       1.00800           0
     45835 TIP3     11973    TIP3     H2       HT       0.417000       1.00800           0
     45836 TIP3     11974    TIP3     OH2      OT      -0.834000       15.9994           0
     45837 TIP3     11974    TIP3     H1       HT       0.417000       1.00800           0
     45838 TIP3     11974    TIP3     H2       HT       0.417000       1.00800           0
     45839 TIP3     11975    TIP3     OH2      OT      -0.834000       15.9994           0
     45840 TIP3     11975    TIP3     H1       HT       0.417000       1.00800           0
     45841 TIP3     11975    TIP3     H2       HT       0.417000       1.00800           0
     45842 TIP3     11976    TIP3     OH2      OT      -0.834000       15.9994           0
     45843 TIP3     11976    TIP3     H1       HT       0.417000       1.00800           0
     45844 TIP3     11976    TIP3     H2       HT       0.417000       1.00800           0
     45845 TIP3     11977    TIP3     OH2      OT      -0.834000       15.9994           0
     45846 TIP3     11977    TIP3     H1       HT       0.417000       1.00800           0
     45847 TIP3     11977    TIP3     H2       HT       0.417000       1.00800           0
     45848 TIP3     11978    TIP3     OH2      OT      -0.834000       15.9994           0
     45849 TIP3     11978    TIP3     H1       HT       0.417000       1.00800           0
     45850 TIP3     11978    TIP3     H2       HT       0.417000       1.00800           0
     45851 TIP3     11979    TIP3     OH2      OT      -0.834000       15.9994           0
     45852 TIP3     11979    TIP3     H1       HT       0.417000       1.00800           0
     45853 TIP3     11979    TIP3     H2       HT       0.417000       1.00800           0
     45854 TIP3     11980    TIP3     OH2      OT      -0.834000       15.9994           0
     45855 TIP3     11980    TIP3     H1       HT       0.417000       1.00800           0
     45856 TIP3     11980    TIP3     H2       HT       0.417000       1.00800           0
     45857 TIP3     11981    TIP3     OH2      OT      -0.834000       15.9994           0
     45858 TIP3     11981    TIP3     H1       HT       0.417000       1.00800           0
     45859 TIP3     11981    TIP3     H2       HT       0.417000       1.00800           0
     45860 TIP3     11982    TIP3     OH2      OT      -0.834000       15.9994           0
     45861 TIP3     11982    TIP3     H1       HT       0.417000       1.00800           0
     45862 TIP3     11982    TIP3     H2       HT       0.417000       1.00800           0
     45863 TIP3     11983    TIP3     OH2      OT      -0.834000       15.9994           0
     45864 TIP3     11983    TIP3     H1       HT       0.417000       1.00800           0
     45865 TIP3     11983    TIP3     H2       HT       0.417000       1.00800           0
     45866 TIP3     11984    TIP3     OH2      OT      -0.834000       15.9994           0
     45867 TIP3     11984    TIP3     H1       HT       0.417000       1.00800           0
     45868 TIP3     11984    TIP3     H2       HT       0.417000       1.00800           0
     45869 TIP3     11985    TIP3     OH2      OT      -0.834000       15.9994           0
     45870 TIP3     11985    TIP3     H1       HT       0.417000       1.00800           0
     45871 TIP3     11985    TIP3     H2       HT       0.417000       1.00800           0
     45872 TIP3     11986    TIP3     OH2      OT      -0.834000       15.9994           0
     45873 TIP3     11986    TIP3     H1       HT       0.417000       1.00800           0
     45874 TIP3     11986    TIP3     H2       HT       0.417000       1.00800           0
     45875 TIP3     11987    TIP3     OH2      OT      -0.834000       15.9994           0
     45876 TIP3     11987    TIP3     H1       HT       0.417000       1.00800           0
     45877 TIP3     11987    TIP3     H2       HT       0.417000       1.00800           0
     45878 TIP3     11988    TIP3     OH2      OT      -0.834000       15.9994           0
     45879 TIP3     11988    TIP3     H1       HT       0.417000       1.00800           0
     45880 TIP3     11988    TIP3     H2       HT       0.417000       1.00800           0
     45881 TIP3     11989    TIP3     OH2      OT      -0.834000       15.9994           0
     45882 TIP3     11989    TIP3     H1       HT       0.417000       1.00800           0
     45883 TIP3     11989    TIP3     H2       HT       0.417000       1.00800           0
     45884 TIP3     11990    TIP3     OH2      OT      -0.834000       15.9994           0
     45885 TIP3     11990    TIP3     H1       HT       0.417000       1.00800           0
     45886 TIP3     11990    TIP3     H2       HT       0.417000       1.00800           0
     45887 TIP3     11991    TIP3     OH2      OT      -0.834000       15.9994           0
     45888 TIP3     11991    TIP3     H1       HT       0.417000       1.00800           0
     45889 TIP3     11991    TIP3     H2       HT       0.417000       1.00800           0
     45890 TIP3     11992    TIP3     OH2      OT      -0.834000       15.9994           0
     45891 TIP3     11992    TIP3     H1       HT       0.417000       1.00800           0
     45892 TIP3     11992    TIP3     H2       HT       0.417000       1.00800           0
     45893 TIP3     11993    TIP3     OH2      OT      -0.834000       15.9994           0
     45894 TIP3     11993    TIP3     H1       HT       0.417000       1.00800           0
     45895 TIP3     11993    TIP3     H2       HT       0.417000       1.00800           0
     45896 TIP3     11994    TIP3     OH2      OT      -0.834000       15.9994           0
     45897 TIP3     11994    TIP3     H1       HT       0.417000       1.00800           0
     45898 TIP3     11994    TIP3     H2       HT       0.417000       1.00800           0
     45899 TIP3     11995    TIP3     OH2      OT      -0.834000       15.9994           0
     45900 TIP3     11995    TIP3     H1       HT       0.417000       1.00800           0
     45901 TIP3     11995    TIP3     H2       HT       0.417000       1.00800           0
     45902 TIP3     11996    TIP3     OH2      OT      -0.834000       15.9994           0
     45903 TIP3     11996    TIP3     H1       HT       0.417000       1.00800           0
     45904 TIP3     11996    TIP3     H2       HT       0.417000       1.00800           0
     45905 TIP3     11997    TIP3     OH2      OT      -0.834000       15.9994           0
     45906 TIP3     11997    TIP3     H1       HT       0.417000       1.00800           0
     45907 TIP3     11997    TIP3     H2       HT       0.417000       1.00800           0
     45908 TIP3     11998    TIP3     OH2      OT      -0.834000       15.9994           0
     45909 TIP3     11998    TIP3     H1       HT       0.417000       1.00800           0
     45910 TIP3     11998    TIP3     H2       HT       0.417000       1.00800           0
     45911 TIP3     11999    TIP3     OH2      OT      -0.834000       15.9994           0
     45912 TIP3     11999    TIP3     H1       HT       0.417000       1.00800           0
     45913 TIP3     11999    TIP3     H2       HT       0.417000       1.00800           0
     45914 TIP3     12000    TIP3     OH2      OT      -0.834000       15.9994           0
     45915 TIP3     12000    TIP3     H1       HT       0.417000       1.00800           0
     45916 TIP3     12000    TIP3     H2       HT       0.417000       1.00800           0
     45917 TIP3     12001    TIP3     OH2      OT      -0.834000       15.9994           0
     45918 TIP3     12001    TIP3     H1       HT       0.417000       1.00800           0
     45919 TIP3     12001    TIP3     H2       HT       0.417000       1.00800           0
     45920 TIP3     12002    TIP3     OH2      OT      -0.834000       15.9994           0
     45921 TIP3     12002    TIP3     H1       HT       0.417000       1.00800           0
     45922 TIP3     12002    TIP3     H2       HT       0.417000       1.00800           0
     45923 TIP3     12003    TIP3     OH2      OT      -0.834000       15.9994           0
     45924 TIP3     12003    TIP3     H1       HT       0.417000       1.00800           0
     45925 TIP3     12003    TIP3     H2       HT       0.417000       1.00800           0
     45926 TIP3     12004    TIP3     OH2      OT      -0.834000       15.9994           0
     45927 TIP3     12004    TIP3     H1       HT       0.417000       1.00800           0
     45928 TIP3     12004    TIP3     H2       HT       0.417000       1.00800           0
     45929 TIP3     12005    TIP3     OH2      OT      -0.834000       15.9994           0
     45930 TIP3     12005    TIP3     H1       HT       0.417000       1.00800           0
     45931 TIP3     12005    TIP3     H2       HT       0.417000       1.00800           0
     45932 TIP3     12006    TIP3     OH2      OT      -0.834000       15.9994           0
     45933 TIP3     12006    TIP3     H1       HT       0.417000       1.00800           0
     45934 TIP3     12006    TIP3     H2       HT       0.417000       1.00800           0
     45935 TIP3     12007    TIP3     OH2      OT      -0.834000       15.9994           0
     45936 TIP3     12007    TIP3     H1       HT       0.417000       1.00800           0
     45937 TIP3     12007    TIP3     H2       HT       0.417000       1.00800           0
     45938 TIP3     12008    TIP3     OH2      OT      -0.834000       15.9994           0
     45939 TIP3     12008    TIP3     H1       HT       0.417000       1.00800           0
     45940 TIP3     12008    TIP3     H2       HT       0.417000       1.00800           0
     45941 TIP3     12009    TIP3     OH2      OT      -0.834000       15.9994           0
     45942 TIP3     12009    TIP3     H1       HT       0.417000       1.00800           0
     45943 TIP3     12009    TIP3     H2       HT       0.417000       1.00800           0
     45944 TIP3     12010    TIP3     OH2      OT      -0.834000       15.9994           0
     45945 TIP3     12010    TIP3     H1       HT       0.417000       1.00800           0
     45946 TIP3     12010    TIP3     H2       HT       0.417000       1.00800           0
     45947 TIP3     12011    TIP3     OH2      OT      -0.834000       15.9994           0
     45948 TIP3     12011    TIP3     H1       HT       0.417000       1.00800           0
     45949 TIP3     12011    TIP3     H2       HT       0.417000       1.00800           0
     45950 TIP3     12012    TIP3     OH2      OT      -0.834000       15.9994           0
     45951 TIP3     12012    TIP3     H1       HT       0.417000       1.00800           0
     45952 TIP3     12012    TIP3     H2       HT       0.417000       1.00800           0
     45953 TIP3     12013    TIP3     OH2      OT      -0.834000       15.9994           0
     45954 TIP3     12013    TIP3     H1       HT       0.417000       1.00800           0
     45955 TIP3     12013    TIP3     H2       HT       0.417000       1.00800           0
     45956 TIP3     12014    TIP3     OH2      OT      -0.834000       15.9994           0
     45957 TIP3     12014    TIP3     H1       HT       0.417000       1.00800           0
     45958 TIP3     12014    TIP3     H2       HT       0.417000       1.00800           0
     45959 TIP3     12015    TIP3     OH2      OT      -0.834000       15.9994           0
     45960 TIP3     12015    TIP3     H1       HT       0.417000       1.00800           0
     45961 TIP3     12015    TIP3     H2       HT       0.417000       1.00800           0
     45962 TIP3     12016    TIP3     OH2      OT      -0.834000       15.9994           0
     45963 TIP3     12016    TIP3     H1       HT       0.417000       1.00800           0
     45964 TIP3     12016    TIP3     H2       HT       0.417000       1.00800           0
     45965 TIP3     12017    TIP3     OH2      OT      -0.834000       15.9994           0
     45966 TIP3     12017    TIP3     H1       HT       0.417000       1.00800           0
     45967 TIP3     12017    TIP3     H2       HT       0.417000       1.00800           0
     45968 TIP3     12018    TIP3     OH2      OT      -0.834000       15.9994           0
     45969 TIP3     12018    TIP3     H1       HT       0.417000       1.00800           0
     45970 TIP3     12018    TIP3     H2       HT       0.417000       1.00800           0
     45971 TIP3     12019    TIP3     OH2      OT      -0.834000       15.9994           0
     45972 TIP3     12019    TIP3     H1       HT       0.417000       1.00800           0
     45973 TIP3     12019    TIP3     H2       HT       0.417000       1.00800           0
     45974 TIP3     12020    TIP3     OH2      OT      -0.834000       15.9994           0
     45975 TIP3     12020    TIP3     H1       HT       0.417000       1.00800           0
     45976 TIP3     12020    TIP3     H2       HT       0.417000       1.00800           0
     45977 TIP3     12021    TIP3     OH2      OT      -0.834000       15.9994           0
     45978 TIP3     12021    TIP3     H1       HT       0.417000       1.00800           0
     45979 TIP3     12021    TIP3     H2       HT       0.417000       1.00800           0
     45980 TIP3     12022    TIP3     OH2      OT      -0.834000       15.9994           0
     45981 TIP3     12022    TIP3     H1       HT       0.417000       1.00800           0
     45982 TIP3     12022    TIP3     H2       HT       0.417000       1.00800           0
     45983 TIP3     12023    TIP3     OH2      OT      -0.834000       15.9994           0
     45984 TIP3     12023    TIP3     H1       HT       0.417000       1.00800           0
     45985 TIP3     12023    TIP3     H2       HT       0.417000       1.00800           0
     45986 TIP3     12024    TIP3     OH2      OT      -0.834000       15.9994           0
     45987 TIP3     12024    TIP3     H1       HT       0.417000       1.00800           0
     45988 TIP3     12024    TIP3     H2       HT       0.417000       1.00800           0
     45989 TIP3     12025    TIP3     OH2      OT      -0.834000       15.9994           0
     45990 TIP3     12025    TIP3     H1       HT       0.417000       1.00800           0
     45991 TIP3     12025    TIP3     H2       HT       0.417000       1.00800           0
     45992 TIP3     12026    TIP3     OH2      OT      -0.834000       15.9994           0
     45993 TIP3     12026    TIP3     H1       HT       0.417000       1.00800           0
     45994 TIP3     12026    TIP3     H2       HT       0.417000       1.00800           0
     45995 TIP3     12027    TIP3     OH2      OT      -0.834000       15.9994           0
     45996 TIP3     12027    TIP3     H1       HT       0.417000       1.00800           0
     45997 TIP3     12027    TIP3     H2       HT       0.417000       1.00800           0
     45998 TIP3     12028    TIP3     OH2      OT      -0.834000       15.9994           0
     45999 TIP3     12028    TIP3     H1       HT       0.417000       1.00800           0
     46000 TIP3     12028    TIP3     H2       HT       0.417000       1.00800           0
     46001 TIP3     12029    TIP3     OH2      OT      -0.834000       15.9994           0
     46002 TIP3     12029    TIP3     H1       HT       0.417000       1.00800           0
     46003 TIP3     12029    TIP3     H2       HT       0.417000       1.00800           0
     46004 TIP3     12030    TIP3     OH2      OT      -0.834000       15.9994           0
     46005 TIP3     12030    TIP3     H1       HT       0.417000       1.00800           0
     46006 TIP3     12030    TIP3     H2       HT       0.417000       1.00800           0
     46007 TIP3     12031    TIP3     OH2      OT      -0.834000       15.9994           0
     46008 TIP3     12031    TIP3     H1       HT       0.417000       1.00800           0
     46009 TIP3     12031    TIP3     H2       HT       0.417000       1.00800           0
     46010 TIP3     12032    TIP3     OH2      OT      -0.834000       15.9994           0
     46011 TIP3     12032    TIP3     H1       HT       0.417000       1.00800           0
     46012 TIP3     12032    TIP3     H2       HT       0.417000       1.00800           0
     46013 TIP3     12033    TIP3     OH2      OT      -0.834000       15.9994           0
     46014 TIP3     12033    TIP3     H1       HT       0.417000       1.00800           0
     46015 TIP3     12033    TIP3     H2       HT       0.417000       1.00800           0
     46016 TIP3     12034    TIP3     OH2      OT      -0.834000       15.9994           0
     46017 TIP3     12034    TIP3     H1       HT       0.417000       1.00800           0
     46018 TIP3     12034    TIP3     H2       HT       0.417000       1.00800           0
     46019 TIP3     12035    TIP3     OH2      OT      -0.834000       15.9994           0
     46020 TIP3     12035    TIP3     H1       HT       0.417000       1.00800           0
     46021 TIP3     12035    TIP3     H2       HT       0.417000       1.00800           0
     46022 TIP3     12036    TIP3     OH2      OT      -0.834000       15.9994           0
     46023 TIP3     12036    TIP3     H1       HT       0.417000       1.00800           0
     46024 TIP3     12036    TIP3     H2       HT       0.417000       1.00800           0
     46025 TIP3     12037    TIP3     OH2      OT      -0.834000       15.9994           0
     46026 TIP3     12037    TIP3     H1       HT       0.417000       1.00800           0
     46027 TIP3     12037    TIP3     H2       HT       0.417000       1.00800           0
     46028 TIP3     12038    TIP3     OH2      OT      -0.834000       15.9994           0
     46029 TIP3     12038    TIP3     H1       HT       0.417000       1.00800           0
     46030 TIP3     12038    TIP3     H2       HT       0.417000       1.00800           0
     46031 TIP3     12039    TIP3     OH2      OT      -0.834000       15.9994           0
     46032 TIP3     12039    TIP3     H1       HT       0.417000       1.00800           0
     46033 TIP3     12039    TIP3     H2       HT       0.417000       1.00800           0
     46034 TIP3     12040    TIP3     OH2      OT      -0.834000       15.9994           0
     46035 TIP3     12040    TIP3     H1       HT       0.417000       1.00800           0
     46036 TIP3     12040    TIP3     H2       HT       0.417000       1.00800           0
     46037 TIP3     12041    TIP3     OH2      OT      -0.834000       15.9994           0
     46038 TIP3     12041    TIP3     H1       HT       0.417000       1.00800           0
     46039 TIP3     12041    TIP3     H2       HT       0.417000       1.00800           0
     46040 TIP3     12042    TIP3     OH2      OT      -0.834000       15.9994           0
     46041 TIP3     12042    TIP3     H1       HT       0.417000       1.00800           0
     46042 TIP3     12042    TIP3     H2       HT       0.417000       1.00800           0
     46043 TIP3     12043    TIP3     OH2      OT      -0.834000       15.9994           0
     46044 TIP3     12043    TIP3     H1       HT       0.417000       1.00800           0
     46045 TIP3     12043    TIP3     H2       HT       0.417000       1.00800           0
     46046 TIP3     12044    TIP3     OH2      OT      -0.834000       15.9994           0
     46047 TIP3     12044    TIP3     H1       HT       0.417000       1.00800           0
     46048 TIP3     12044    TIP3     H2       HT       0.417000       1.00800           0
     46049 TIP3     12045    TIP3     OH2      OT      -0.834000       15.9994           0
     46050 TIP3     12045    TIP3     H1       HT       0.417000       1.00800           0
     46051 TIP3     12045    TIP3     H2       HT       0.417000       1.00800           0
     46052 TIP3     12046    TIP3     OH2      OT      -0.834000       15.9994           0
     46053 TIP3     12046    TIP3     H1       HT       0.417000       1.00800           0
     46054 TIP3     12046    TIP3     H2       HT       0.417000       1.00800           0
     46055 TIP3     12047    TIP3     OH2      OT      -0.834000       15.9994           0
     46056 TIP3     12047    TIP3     H1       HT       0.417000       1.00800           0
     46057 TIP3     12047    TIP3     H2       HT       0.417000       1.00800           0
     46058 TIP3     12048    TIP3     OH2      OT      -0.834000       15.9994           0
     46059 TIP3     12048    TIP3     H1       HT       0.417000       1.00800           0
     46060 TIP3     12048    TIP3     H2       HT       0.417000       1.00800           0
     46061 TIP3     12049    TIP3     OH2      OT      -0.834000       15.9994           0
     46062 TIP3     12049    TIP3     H1       HT       0.417000       1.00800           0
     46063 TIP3     12049    TIP3     H2       HT       0.417000       1.00800           0
     46064 TIP3     12050    TIP3     OH2      OT      -0.834000       15.9994           0
     46065 TIP3     12050    TIP3     H1       HT       0.417000       1.00800           0
     46066 TIP3     12050    TIP3     H2       HT       0.417000       1.00800           0
     46067 TIP3     12051    TIP3     OH2      OT      -0.834000       15.9994           0
     46068 TIP3     12051    TIP3     H1       HT       0.417000       1.00800           0
     46069 TIP3     12051    TIP3     H2       HT       0.417000       1.00800           0
     46070 TIP3     12052    TIP3     OH2      OT      -0.834000       15.9994           0
     46071 TIP3     12052    TIP3     H1       HT       0.417000       1.00800           0
     46072 TIP3     12052    TIP3     H2       HT       0.417000       1.00800           0
     46073 TIP3     12053    TIP3     OH2      OT      -0.834000       15.9994           0
     46074 TIP3     12053    TIP3     H1       HT       0.417000       1.00800           0
     46075 TIP3     12053    TIP3     H2       HT       0.417000       1.00800           0
     46076 TIP3     12054    TIP3     OH2      OT      -0.834000       15.9994           0
     46077 TIP3     12054    TIP3     H1       HT       0.417000       1.00800           0
     46078 TIP3     12054    TIP3     H2       HT       0.417000       1.00800           0
     46079 TIP3     12055    TIP3     OH2      OT      -0.834000       15.9994           0
     46080 TIP3     12055    TIP3     H1       HT       0.417000       1.00800           0
     46081 TIP3     12055    TIP3     H2       HT       0.417000       1.00800           0
     46082 TIP3     12056    TIP3     OH2      OT      -0.834000       15.9994           0
     46083 TIP3     12056    TIP3     H1       HT       0.417000       1.00800           0
     46084 TIP3     12056    TIP3     H2       HT       0.417000       1.00800           0
     46085 TIP3     12057    TIP3     OH2      OT      -0.834000       15.9994           0
     46086 TIP3     12057    TIP3     H1       HT       0.417000       1.00800           0
     46087 TIP3     12057    TIP3     H2       HT       0.417000       1.00800           0
     46088 TIP3     12058    TIP3     OH2      OT      -0.834000       15.9994           0
     46089 TIP3     12058    TIP3     H1       HT       0.417000       1.00800           0
     46090 TIP3     12058    TIP3     H2       HT       0.417000       1.00800           0
     46091 TIP3     12059    TIP3     OH2      OT      -0.834000       15.9994           0
     46092 TIP3     12059    TIP3     H1       HT       0.417000       1.00800           0
     46093 TIP3     12059    TIP3     H2       HT       0.417000       1.00800           0
     46094 TIP3     12060    TIP3     OH2      OT      -0.834000       15.9994           0
     46095 TIP3     12060    TIP3     H1       HT       0.417000       1.00800           0
     46096 TIP3     12060    TIP3     H2       HT       0.417000       1.00800           0
     46097 TIP3     12061    TIP3     OH2      OT      -0.834000       15.9994           0
     46098 TIP3     12061    TIP3     H1       HT       0.417000       1.00800           0
     46099 TIP3     12061    TIP3     H2       HT       0.417000       1.00800           0
     46100 TIP3     12062    TIP3     OH2      OT      -0.834000       15.9994           0
     46101 TIP3     12062    TIP3     H1       HT       0.417000       1.00800           0
     46102 TIP3     12062    TIP3     H2       HT       0.417000       1.00800           0
     46103 TIP3     12063    TIP3     OH2      OT      -0.834000       15.9994           0
     46104 TIP3     12063    TIP3     H1       HT       0.417000       1.00800           0
     46105 TIP3     12063    TIP3     H2       HT       0.417000       1.00800           0
     46106 TIP3     12064    TIP3     OH2      OT      -0.834000       15.9994           0
     46107 TIP3     12064    TIP3     H1       HT       0.417000       1.00800           0
     46108 TIP3     12064    TIP3     H2       HT       0.417000       1.00800           0
     46109 TIP3     12065    TIP3     OH2      OT      -0.834000       15.9994           0
     46110 TIP3     12065    TIP3     H1       HT       0.417000       1.00800           0
     46111 TIP3     12065    TIP3     H2       HT       0.417000       1.00800           0
     46112 TIP3     12066    TIP3     OH2      OT      -0.834000       15.9994           0
     46113 TIP3     12066    TIP3     H1       HT       0.417000       1.00800           0
     46114 TIP3     12066    TIP3     H2       HT       0.417000       1.00800           0
     46115 TIP3     12067    TIP3     OH2      OT      -0.834000       15.9994           0
     46116 TIP3     12067    TIP3     H1       HT       0.417000       1.00800           0
     46117 TIP3     12067    TIP3     H2       HT       0.417000       1.00800           0
     46118 TIP3     12068    TIP3     OH2      OT      -0.834000       15.9994           0
     46119 TIP3     12068    TIP3     H1       HT       0.417000       1.00800           0
     46120 TIP3     12068    TIP3     H2       HT       0.417000       1.00800           0
     46121 TIP3     12069    TIP3     OH2      OT      -0.834000       15.9994           0
     46122 TIP3     12069    TIP3     H1       HT       0.417000       1.00800           0
     46123 TIP3     12069    TIP3     H2       HT       0.417000       1.00800           0
     46124 TIP3     12070    TIP3     OH2      OT      -0.834000       15.9994           0
     46125 TIP3     12070    TIP3     H1       HT       0.417000       1.00800           0
     46126 TIP3     12070    TIP3     H2       HT       0.417000       1.00800           0
     46127 TIP3     12071    TIP3     OH2      OT      -0.834000       15.9994           0
     46128 TIP3     12071    TIP3     H1       HT       0.417000       1.00800           0
     46129 TIP3     12071    TIP3     H2       HT       0.417000       1.00800           0
     46130 TIP3     12072    TIP3     OH2      OT      -0.834000       15.9994           0
     46131 TIP3     12072    TIP3     H1       HT       0.417000       1.00800           0
     46132 TIP3     12072    TIP3     H2       HT       0.417000       1.00800           0
     46133 TIP3     12073    TIP3     OH2      OT      -0.834000       15.9994           0
     46134 TIP3     12073    TIP3     H1       HT       0.417000       1.00800           0
     46135 TIP3     12073    TIP3     H2       HT       0.417000       1.00800           0
     46136 TIP3     12074    TIP3     OH2      OT      -0.834000       15.9994           0
     46137 TIP3     12074    TIP3     H1       HT       0.417000       1.00800           0
     46138 TIP3     12074    TIP3     H2       HT       0.417000       1.00800           0
     46139 TIP3     12075    TIP3     OH2      OT      -0.834000       15.9994           0
     46140 TIP3     12075    TIP3     H1       HT       0.417000       1.00800           0
     46141 TIP3     12075    TIP3     H2       HT       0.417000       1.00800           0
     46142 TIP3     12076    TIP3     OH2      OT      -0.834000       15.9994           0
     46143 TIP3     12076    TIP3     H1       HT       0.417000       1.00800           0
     46144 TIP3     12076    TIP3     H2       HT       0.417000       1.00800           0
     46145 TIP3     12077    TIP3     OH2      OT      -0.834000       15.9994           0
     46146 TIP3     12077    TIP3     H1       HT       0.417000       1.00800           0
     46147 TIP3     12077    TIP3     H2       HT       0.417000       1.00800           0
     46148 TIP3     12078    TIP3     OH2      OT      -0.834000       15.9994           0
     46149 TIP3     12078    TIP3     H1       HT       0.417000       1.00800           0
     46150 TIP3     12078    TIP3     H2       HT       0.417000       1.00800           0
     46151 TIP3     12079    TIP3     OH2      OT      -0.834000       15.9994           0
     46152 TIP3     12079    TIP3     H1       HT       0.417000       1.00800           0
     46153 TIP3     12079    TIP3     H2       HT       0.417000       1.00800           0
     46154 TIP3     12080    TIP3     OH2      OT      -0.834000       15.9994           0
     46155 TIP3     12080    TIP3     H1       HT       0.417000       1.00800           0
     46156 TIP3     12080    TIP3     H2       HT       0.417000       1.00800           0
     46157 TIP3     12081    TIP3     OH2      OT      -0.834000       15.9994           0
     46158 TIP3     12081    TIP3     H1       HT       0.417000       1.00800           0
     46159 TIP3     12081    TIP3     H2       HT       0.417000       1.00800           0
     46160 TIP3     12082    TIP3     OH2      OT      -0.834000       15.9994           0
     46161 TIP3     12082    TIP3     H1       HT       0.417000       1.00800           0
     46162 TIP3     12082    TIP3     H2       HT       0.417000       1.00800           0
     46163 TIP3     12083    TIP3     OH2      OT      -0.834000       15.9994           0
     46164 TIP3     12083    TIP3     H1       HT       0.417000       1.00800           0
     46165 TIP3     12083    TIP3     H2       HT       0.417000       1.00800           0
     46166 TIP3     12084    TIP3     OH2      OT      -0.834000       15.9994           0
     46167 TIP3     12084    TIP3     H1       HT       0.417000       1.00800           0
     46168 TIP3     12084    TIP3     H2       HT       0.417000       1.00800           0
     46169 TIP3     12085    TIP3     OH2      OT      -0.834000       15.9994           0
     46170 TIP3     12085    TIP3     H1       HT       0.417000       1.00800           0
     46171 TIP3     12085    TIP3     H2       HT       0.417000       1.00800           0
     46172 TIP3     12086    TIP3     OH2      OT      -0.834000       15.9994           0
     46173 TIP3     12086    TIP3     H1       HT       0.417000       1.00800           0
     46174 TIP3     12086    TIP3     H2       HT       0.417000       1.00800           0
     46175 TIP3     12087    TIP3     OH2      OT      -0.834000       15.9994           0
     46176 TIP3     12087    TIP3     H1       HT       0.417000       1.00800           0
     46177 TIP3     12087    TIP3     H2       HT       0.417000       1.00800           0
     46178 TIP3     12088    TIP3     OH2      OT      -0.834000       15.9994           0
     46179 TIP3     12088    TIP3     H1       HT       0.417000       1.00800           0
     46180 TIP3     12088    TIP3     H2       HT       0.417000       1.00800           0
     46181 TIP3     12089    TIP3     OH2      OT      -0.834000       15.9994           0
     46182 TIP3     12089    TIP3     H1       HT       0.417000       1.00800           0
     46183 TIP3     12089    TIP3     H2       HT       0.417000       1.00800           0
     46184 TIP3     12090    TIP3     OH2      OT      -0.834000       15.9994           0
     46185 TIP3     12090    TIP3     H1       HT       0.417000       1.00800           0
     46186 TIP3     12090    TIP3     H2       HT       0.417000       1.00800           0
     46187 TIP3     12091    TIP3     OH2      OT      -0.834000       15.9994           0
     46188 TIP3     12091    TIP3     H1       HT       0.417000       1.00800           0
     46189 TIP3     12091    TIP3     H2       HT       0.417000       1.00800           0
     46190 TIP3     12092    TIP3     OH2      OT      -0.834000       15.9994           0
     46191 TIP3     12092    TIP3     H1       HT       0.417000       1.00800           0
     46192 TIP3     12092    TIP3     H2       HT       0.417000       1.00800           0
     46193 TIP3     12093    TIP3     OH2      OT      -0.834000       15.9994           0
     46194 TIP3     12093    TIP3     H1       HT       0.417000       1.00800           0
     46195 TIP3     12093    TIP3     H2       HT       0.417000       1.00800           0
     46196 TIP3     12094    TIP3     OH2      OT      -0.834000       15.9994           0
     46197 TIP3     12094    TIP3     H1       HT       0.417000       1.00800           0
     46198 TIP3     12094    TIP3     H2       HT       0.417000       1.00800           0
     46199 TIP3     12095    TIP3     OH2      OT      -0.834000       15.9994           0
     46200 TIP3     12095    TIP3     H1       HT       0.417000       1.00800           0
     46201 TIP3     12095    TIP3     H2       HT       0.417000       1.00800           0
     46202 TIP3     12096    TIP3     OH2      OT      -0.834000       15.9994           0
     46203 TIP3     12096    TIP3     H1       HT       0.417000       1.00800           0
     46204 TIP3     12096    TIP3     H2       HT       0.417000       1.00800           0
     46205 TIP3     12097    TIP3     OH2      OT      -0.834000       15.9994           0
     46206 TIP3     12097    TIP3     H1       HT       0.417000       1.00800           0
     46207 TIP3     12097    TIP3     H2       HT       0.417000       1.00800           0
     46208 TIP3     12098    TIP3     OH2      OT      -0.834000       15.9994           0
     46209 TIP3     12098    TIP3     H1       HT       0.417000       1.00800           0
     46210 TIP3     12098    TIP3     H2       HT       0.417000       1.00800           0
     46211 TIP3     12099    TIP3     OH2      OT      -0.834000       15.9994           0
     46212 TIP3     12099    TIP3     H1       HT       0.417000       1.00800           0
     46213 TIP3     12099    TIP3     H2       HT       0.417000       1.00800           0
     46214 TIP3     12100    TIP3     OH2      OT      -0.834000       15.9994           0
     46215 TIP3     12100    TIP3     H1       HT       0.417000       1.00800           0
     46216 TIP3     12100    TIP3     H2       HT       0.417000       1.00800           0
     46217 TIP3     12101    TIP3     OH2      OT      -0.834000       15.9994           0
     46218 TIP3     12101    TIP3     H1       HT       0.417000       1.00800           0
     46219 TIP3     12101    TIP3     H2       HT       0.417000       1.00800           0
     46220 TIP3     12102    TIP3     OH2      OT      -0.834000       15.9994           0
     46221 TIP3     12102    TIP3     H1       HT       0.417000       1.00800           0
     46222 TIP3     12102    TIP3     H2       HT       0.417000       1.00800           0
     46223 TIP3     12103    TIP3     OH2      OT      -0.834000       15.9994           0
     46224 TIP3     12103    TIP3     H1       HT       0.417000       1.00800           0
     46225 TIP3     12103    TIP3     H2       HT       0.417000       1.00800           0
     46226 TIP3     12104    TIP3     OH2      OT      -0.834000       15.9994           0
     46227 TIP3     12104    TIP3     H1       HT       0.417000       1.00800           0
     46228 TIP3     12104    TIP3     H2       HT       0.417000       1.00800           0
     46229 TIP3     12105    TIP3     OH2      OT      -0.834000       15.9994           0
     46230 TIP3     12105    TIP3     H1       HT       0.417000       1.00800           0
     46231 TIP3     12105    TIP3     H2       HT       0.417000       1.00800           0
     46232 TIP3     12106    TIP3     OH2      OT      -0.834000       15.9994           0
     46233 TIP3     12106    TIP3     H1       HT       0.417000       1.00800           0
     46234 TIP3     12106    TIP3     H2       HT       0.417000       1.00800           0
     46235 TIP3     12107    TIP3     OH2      OT      -0.834000       15.9994           0
     46236 TIP3     12107    TIP3     H1       HT       0.417000       1.00800           0
     46237 TIP3     12107    TIP3     H2       HT       0.417000       1.00800           0
     46238 TIP3     12108    TIP3     OH2      OT      -0.834000       15.9994           0
     46239 TIP3     12108    TIP3     H1       HT       0.417000       1.00800           0
     46240 TIP3     12108    TIP3     H2       HT       0.417000       1.00800           0
     46241 TIP3     12109    TIP3     OH2      OT      -0.834000       15.9994           0
     46242 TIP3     12109    TIP3     H1       HT       0.417000       1.00800           0
     46243 TIP3     12109    TIP3     H2       HT       0.417000       1.00800           0
     46244 TIP3     12110    TIP3     OH2      OT      -0.834000       15.9994           0
     46245 TIP3     12110    TIP3     H1       HT       0.417000       1.00800           0
     46246 TIP3     12110    TIP3     H2       HT       0.417000       1.00800           0
     46247 TIP3     12111    TIP3     OH2      OT      -0.834000       15.9994           0
     46248 TIP3     12111    TIP3     H1       HT       0.417000       1.00800           0
     46249 TIP3     12111    TIP3     H2       HT       0.417000       1.00800           0
     46250 TIP3     12112    TIP3     OH2      OT      -0.834000       15.9994           0
     46251 TIP3     12112    TIP3     H1       HT       0.417000       1.00800           0
     46252 TIP3     12112    TIP3     H2       HT       0.417000       1.00800           0
     46253 TIP3     12113    TIP3     OH2      OT      -0.834000       15.9994           0
     46254 TIP3     12113    TIP3     H1       HT       0.417000       1.00800           0
     46255 TIP3     12113    TIP3     H2       HT       0.417000       1.00800           0
     46256 TIP3     12114    TIP3     OH2      OT      -0.834000       15.9994           0
     46257 TIP3     12114    TIP3     H1       HT       0.417000       1.00800           0
     46258 TIP3     12114    TIP3     H2       HT       0.417000       1.00800           0
     46259 TIP3     12115    TIP3     OH2      OT      -0.834000       15.9994           0
     46260 TIP3     12115    TIP3     H1       HT       0.417000       1.00800           0
     46261 TIP3     12115    TIP3     H2       HT       0.417000       1.00800           0
     46262 TIP3     12116    TIP3     OH2      OT      -0.834000       15.9994           0
     46263 TIP3     12116    TIP3     H1       HT       0.417000       1.00800           0
     46264 TIP3     12116    TIP3     H2       HT       0.417000       1.00800           0
     46265 TIP3     12117    TIP3     OH2      OT      -0.834000       15.9994           0
     46266 TIP3     12117    TIP3     H1       HT       0.417000       1.00800           0
     46267 TIP3     12117    TIP3     H2       HT       0.417000       1.00800           0
     46268 TIP3     12118    TIP3     OH2      OT      -0.834000       15.9994           0
     46269 TIP3     12118    TIP3     H1       HT       0.417000       1.00800           0
     46270 TIP3     12118    TIP3     H2       HT       0.417000       1.00800           0
     46271 TIP3     12119    TIP3     OH2      OT      -0.834000       15.9994           0
     46272 TIP3     12119    TIP3     H1       HT       0.417000       1.00800           0
     46273 TIP3     12119    TIP3     H2       HT       0.417000       1.00800           0
     46274 TIP3     12120    TIP3     OH2      OT      -0.834000       15.9994           0
     46275 TIP3     12120    TIP3     H1       HT       0.417000       1.00800           0
     46276 TIP3     12120    TIP3     H2       HT       0.417000       1.00800           0
     46277 TIP3     12121    TIP3     OH2      OT      -0.834000       15.9994           0
     46278 TIP3     12121    TIP3     H1       HT       0.417000       1.00800           0
     46279 TIP3     12121    TIP3     H2       HT       0.417000       1.00800           0
     46280 TIP3     12122    TIP3     OH2      OT      -0.834000       15.9994           0
     46281 TIP3     12122    TIP3     H1       HT       0.417000       1.00800           0
     46282 TIP3     12122    TIP3     H2       HT       0.417000       1.00800           0
     46283 TIP3     12123    TIP3     OH2      OT      -0.834000       15.9994           0
     46284 TIP3     12123    TIP3     H1       HT       0.417000       1.00800           0
     46285 TIP3     12123    TIP3     H2       HT       0.417000       1.00800           0
     46286 TIP3     12124    TIP3     OH2      OT      -0.834000       15.9994           0
     46287 TIP3     12124    TIP3     H1       HT       0.417000       1.00800           0
     46288 TIP3     12124    TIP3     H2       HT       0.417000       1.00800           0
     46289 TIP3     12125    TIP3     OH2      OT      -0.834000       15.9994           0
     46290 TIP3     12125    TIP3     H1       HT       0.417000       1.00800           0
     46291 TIP3     12125    TIP3     H2       HT       0.417000       1.00800           0
     46292 TIP3     12126    TIP3     OH2      OT      -0.834000       15.9994           0
     46293 TIP3     12126    TIP3     H1       HT       0.417000       1.00800           0
     46294 TIP3     12126    TIP3     H2       HT       0.417000       1.00800           0
     46295 TIP3     12127    TIP3     OH2      OT      -0.834000       15.9994           0
     46296 TIP3     12127    TIP3     H1       HT       0.417000       1.00800           0
     46297 TIP3     12127    TIP3     H2       HT       0.417000       1.00800           0
     46298 TIP3     12128    TIP3     OH2      OT      -0.834000       15.9994           0
     46299 TIP3     12128    TIP3     H1       HT       0.417000       1.00800           0
     46300 TIP3     12128    TIP3     H2       HT       0.417000       1.00800           0
     46301 TIP3     12129    TIP3     OH2      OT      -0.834000       15.9994           0
     46302 TIP3     12129    TIP3     H1       HT       0.417000       1.00800           0
     46303 TIP3     12129    TIP3     H2       HT       0.417000       1.00800           0
     46304 TIP3     12130    TIP3     OH2      OT      -0.834000       15.9994           0
     46305 TIP3     12130    TIP3     H1       HT       0.417000       1.00800           0
     46306 TIP3     12130    TIP3     H2       HT       0.417000       1.00800           0
     46307 TIP3     12131    TIP3     OH2      OT      -0.834000       15.9994           0
     46308 TIP3     12131    TIP3     H1       HT       0.417000       1.00800           0
     46309 TIP3     12131    TIP3     H2       HT       0.417000       1.00800           0
     46310 TIP3     12132    TIP3     OH2      OT      -0.834000       15.9994           0
     46311 TIP3     12132    TIP3     H1       HT       0.417000       1.00800           0
     46312 TIP3     12132    TIP3     H2       HT       0.417000       1.00800           0
     46313 TIP3     12133    TIP3     OH2      OT      -0.834000       15.9994           0
     46314 TIP3     12133    TIP3     H1       HT       0.417000       1.00800           0
     46315 TIP3     12133    TIP3     H2       HT       0.417000       1.00800           0
     46316 TIP3     12134    TIP3     OH2      OT      -0.834000       15.9994           0
     46317 TIP3     12134    TIP3     H1       HT       0.417000       1.00800           0
     46318 TIP3     12134    TIP3     H2       HT       0.417000       1.00800           0
     46319 TIP3     12135    TIP3     OH2      OT      -0.834000       15.9994           0
     46320 TIP3     12135    TIP3     H1       HT       0.417000       1.00800           0
     46321 TIP3     12135    TIP3     H2       HT       0.417000       1.00800           0
     46322 TIP3     12136    TIP3     OH2      OT      -0.834000       15.9994           0
     46323 TIP3     12136    TIP3     H1       HT       0.417000       1.00800           0
     46324 TIP3     12136    TIP3     H2       HT       0.417000       1.00800           0
     46325 TIP3     12137    TIP3     OH2      OT      -0.834000       15.9994           0
     46326 TIP3     12137    TIP3     H1       HT       0.417000       1.00800           0
     46327 TIP3     12137    TIP3     H2       HT       0.417000       1.00800           0
     46328 TIP3     12138    TIP3     OH2      OT      -0.834000       15.9994           0
     46329 TIP3     12138    TIP3     H1       HT       0.417000       1.00800           0
     46330 TIP3     12138    TIP3     H2       HT       0.417000       1.00800           0
     46331 TIP3     12139    TIP3     OH2      OT      -0.834000       15.9994           0
     46332 TIP3     12139    TIP3     H1       HT       0.417000       1.00800           0
     46333 TIP3     12139    TIP3     H2       HT       0.417000       1.00800           0
     46334 TIP3     12140    TIP3     OH2      OT      -0.834000       15.9994           0
     46335 TIP3     12140    TIP3     H1       HT       0.417000       1.00800           0
     46336 TIP3     12140    TIP3     H2       HT       0.417000       1.00800           0
     46337 TIP3     12141    TIP3     OH2      OT      -0.834000       15.9994           0
     46338 TIP3     12141    TIP3     H1       HT       0.417000       1.00800           0
     46339 TIP3     12141    TIP3     H2       HT       0.417000       1.00800           0
     46340 TIP3     12142    TIP3     OH2      OT      -0.834000       15.9994           0
     46341 TIP3     12142    TIP3     H1       HT       0.417000       1.00800           0
     46342 TIP3     12142    TIP3     H2       HT       0.417000       1.00800           0
     46343 TIP3     12143    TIP3     OH2      OT      -0.834000       15.9994           0
     46344 TIP3     12143    TIP3     H1       HT       0.417000       1.00800           0
     46345 TIP3     12143    TIP3     H2       HT       0.417000       1.00800           0
     46346 TIP3     12144    TIP3     OH2      OT      -0.834000       15.9994           0
     46347 TIP3     12144    TIP3     H1       HT       0.417000       1.00800           0
     46348 TIP3     12144    TIP3     H2       HT       0.417000       1.00800           0
     46349 TIP3     12145    TIP3     OH2      OT      -0.834000       15.9994           0
     46350 TIP3     12145    TIP3     H1       HT       0.417000       1.00800           0
     46351 TIP3     12145    TIP3     H2       HT       0.417000       1.00800           0
     46352 TIP3     12146    TIP3     OH2      OT      -0.834000       15.9994           0
     46353 TIP3     12146    TIP3     H1       HT       0.417000       1.00800           0
     46354 TIP3     12146    TIP3     H2       HT       0.417000       1.00800           0
     46355 TIP3     12147    TIP3     OH2      OT      -0.834000       15.9994           0
     46356 TIP3     12147    TIP3     H1       HT       0.417000       1.00800           0
     46357 TIP3     12147    TIP3     H2       HT       0.417000       1.00800           0
     46358 TIP3     12148    TIP3     OH2      OT      -0.834000       15.9994           0
     46359 TIP3     12148    TIP3     H1       HT       0.417000       1.00800           0
     46360 TIP3     12148    TIP3     H2       HT       0.417000       1.00800           0
     46361 TIP3     12149    TIP3     OH2      OT      -0.834000       15.9994           0
     46362 TIP3     12149    TIP3     H1       HT       0.417000       1.00800           0
     46363 TIP3     12149    TIP3     H2       HT       0.417000       1.00800           0
     46364 TIP3     12150    TIP3     OH2      OT      -0.834000       15.9994           0
     46365 TIP3     12150    TIP3     H1       HT       0.417000       1.00800           0
     46366 TIP3     12150    TIP3     H2       HT       0.417000       1.00800           0
     46367 TIP3     12151    TIP3     OH2      OT      -0.834000       15.9994           0
     46368 TIP3     12151    TIP3     H1       HT       0.417000       1.00800           0
     46369 TIP3     12151    TIP3     H2       HT       0.417000       1.00800           0
     46370 TIP3     12152    TIP3     OH2      OT      -0.834000       15.9994           0
     46371 TIP3     12152    TIP3     H1       HT       0.417000       1.00800           0
     46372 TIP3     12152    TIP3     H2       HT       0.417000       1.00800           0
     46373 TIP3     12153    TIP3     OH2      OT      -0.834000       15.9994           0
     46374 TIP3     12153    TIP3     H1       HT       0.417000       1.00800           0
     46375 TIP3     12153    TIP3     H2       HT       0.417000       1.00800           0
     46376 TIP3     12154    TIP3     OH2      OT      -0.834000       15.9994           0
     46377 TIP3     12154    TIP3     H1       HT       0.417000       1.00800           0
     46378 TIP3     12154    TIP3     H2       HT       0.417000       1.00800           0
     46379 TIP3     12155    TIP3     OH2      OT      -0.834000       15.9994           0
     46380 TIP3     12155    TIP3     H1       HT       0.417000       1.00800           0
     46381 TIP3     12155    TIP3     H2       HT       0.417000       1.00800           0
     46382 TIP3     12156    TIP3     OH2      OT      -0.834000       15.9994           0
     46383 TIP3     12156    TIP3     H1       HT       0.417000       1.00800           0
     46384 TIP3     12156    TIP3     H2       HT       0.417000       1.00800           0
     46385 TIP3     12157    TIP3     OH2      OT      -0.834000       15.9994           0
     46386 TIP3     12157    TIP3     H1       HT       0.417000       1.00800           0
     46387 TIP3     12157    TIP3     H2       HT       0.417000       1.00800           0
     46388 TIP3     12158    TIP3     OH2      OT      -0.834000       15.9994           0
     46389 TIP3     12158    TIP3     H1       HT       0.417000       1.00800           0
     46390 TIP3     12158    TIP3     H2       HT       0.417000       1.00800           0
     46391 TIP3     12159    TIP3     OH2      OT      -0.834000       15.9994           0
     46392 TIP3     12159    TIP3     H1       HT       0.417000       1.00800           0
     46393 TIP3     12159    TIP3     H2       HT       0.417000       1.00800           0
     46394 TIP3     12160    TIP3     OH2      OT      -0.834000       15.9994           0
     46395 TIP3     12160    TIP3     H1       HT       0.417000       1.00800           0
     46396 TIP3     12160    TIP3     H2       HT       0.417000       1.00800           0
     46397 TIP3     12161    TIP3     OH2      OT      -0.834000       15.9994           0
     46398 TIP3     12161    TIP3     H1       HT       0.417000       1.00800           0
     46399 TIP3     12161    TIP3     H2       HT       0.417000       1.00800           0
     46400 TIP3     12162    TIP3     OH2      OT      -0.834000       15.9994           0
     46401 TIP3     12162    TIP3     H1       HT       0.417000       1.00800           0
     46402 TIP3     12162    TIP3     H2       HT       0.417000       1.00800           0
     46403 TIP3     12163    TIP3     OH2      OT      -0.834000       15.9994           0
     46404 TIP3     12163    TIP3     H1       HT       0.417000       1.00800           0
     46405 TIP3     12163    TIP3     H2       HT       0.417000       1.00800           0
     46406 TIP3     12164    TIP3     OH2      OT      -0.834000       15.9994           0
     46407 TIP3     12164    TIP3     H1       HT       0.417000       1.00800           0
     46408 TIP3     12164    TIP3     H2       HT       0.417000       1.00800           0
     46409 TIP3     12165    TIP3     OH2      OT      -0.834000       15.9994           0
     46410 TIP3     12165    TIP3     H1       HT       0.417000       1.00800           0
     46411 TIP3     12165    TIP3     H2       HT       0.417000       1.00800           0
     46412 TIP3     12166    TIP3     OH2      OT      -0.834000       15.9994           0
     46413 TIP3     12166    TIP3     H1       HT       0.417000       1.00800           0
     46414 TIP3     12166    TIP3     H2       HT       0.417000       1.00800           0
     46415 TIP3     12167    TIP3     OH2      OT      -0.834000       15.9994           0
     46416 TIP3     12167    TIP3     H1       HT       0.417000       1.00800           0
     46417 TIP3     12167    TIP3     H2       HT       0.417000       1.00800           0
     46418 TIP3     12168    TIP3     OH2      OT      -0.834000       15.9994           0
     46419 TIP3     12168    TIP3     H1       HT       0.417000       1.00800           0
     46420 TIP3     12168    TIP3     H2       HT       0.417000       1.00800           0
     46421 TIP3     12169    TIP3     OH2      OT      -0.834000       15.9994           0
     46422 TIP3     12169    TIP3     H1       HT       0.417000       1.00800           0
     46423 TIP3     12169    TIP3     H2       HT       0.417000       1.00800           0
     46424 TIP3     12170    TIP3     OH2      OT      -0.834000       15.9994           0
     46425 TIP3     12170    TIP3     H1       HT       0.417000       1.00800           0
     46426 TIP3     12170    TIP3     H2       HT       0.417000       1.00800           0
     46427 TIP3     12171    TIP3     OH2      OT      -0.834000       15.9994           0
     46428 TIP3     12171    TIP3     H1       HT       0.417000       1.00800           0
     46429 TIP3     12171    TIP3     H2       HT       0.417000       1.00800           0
     46430 TIP3     12172    TIP3     OH2      OT      -0.834000       15.9994           0
     46431 TIP3     12172    TIP3     H1       HT       0.417000       1.00800           0
     46432 TIP3     12172    TIP3     H2       HT       0.417000       1.00800           0
     46433 TIP3     12173    TIP3     OH2      OT      -0.834000       15.9994           0
     46434 TIP3     12173    TIP3     H1       HT       0.417000       1.00800           0
     46435 TIP3     12173    TIP3     H2       HT       0.417000       1.00800           0
     46436 TIP3     12174    TIP3     OH2      OT      -0.834000       15.9994           0
     46437 TIP3     12174    TIP3     H1       HT       0.417000       1.00800           0
     46438 TIP3     12174    TIP3     H2       HT       0.417000       1.00800           0
     46439 TIP3     12175    TIP3     OH2      OT      -0.834000       15.9994           0
     46440 TIP3     12175    TIP3     H1       HT       0.417000       1.00800           0
     46441 TIP3     12175    TIP3     H2       HT       0.417000       1.00800           0
     46442 TIP3     12176    TIP3     OH2      OT      -0.834000       15.9994           0
     46443 TIP3     12176    TIP3     H1       HT       0.417000       1.00800           0
     46444 TIP3     12176    TIP3     H2       HT       0.417000       1.00800           0
     46445 TIP3     12177    TIP3     OH2      OT      -0.834000       15.9994           0
     46446 TIP3     12177    TIP3     H1       HT       0.417000       1.00800           0
     46447 TIP3     12177    TIP3     H2       HT       0.417000       1.00800           0
     46448 TIP3     12178    TIP3     OH2      OT      -0.834000       15.9994           0
     46449 TIP3     12178    TIP3     H1       HT       0.417000       1.00800           0
     46450 TIP3     12178    TIP3     H2       HT       0.417000       1.00800           0
     46451 TIP3     12179    TIP3     OH2      OT      -0.834000       15.9994           0
     46452 TIP3     12179    TIP3     H1       HT       0.417000       1.00800           0
     46453 TIP3     12179    TIP3     H2       HT       0.417000       1.00800           0
     46454 TIP3     12180    TIP3     OH2      OT      -0.834000       15.9994           0
     46455 TIP3     12180    TIP3     H1       HT       0.417000       1.00800           0
     46456 TIP3     12180    TIP3     H2       HT       0.417000       1.00800           0
     46457 TIP3     12181    TIP3     OH2      OT      -0.834000       15.9994           0
     46458 TIP3     12181    TIP3     H1       HT       0.417000       1.00800           0
     46459 TIP3     12181    TIP3     H2       HT       0.417000       1.00800           0
     46460 TIP3     12182    TIP3     OH2      OT      -0.834000       15.9994           0
     46461 TIP3     12182    TIP3     H1       HT       0.417000       1.00800           0
     46462 TIP3     12182    TIP3     H2       HT       0.417000       1.00800           0
     46463 TIP3     12183    TIP3     OH2      OT      -0.834000       15.9994           0
     46464 TIP3     12183    TIP3     H1       HT       0.417000       1.00800           0
     46465 TIP3     12183    TIP3     H2       HT       0.417000       1.00800           0
     46466 TIP3     12184    TIP3     OH2      OT      -0.834000       15.9994           0
     46467 TIP3     12184    TIP3     H1       HT       0.417000       1.00800           0
     46468 TIP3     12184    TIP3     H2       HT       0.417000       1.00800           0
     46469 TIP3     12185    TIP3     OH2      OT      -0.834000       15.9994           0
     46470 TIP3     12185    TIP3     H1       HT       0.417000       1.00800           0
     46471 TIP3     12185    TIP3     H2       HT       0.417000       1.00800           0
     46472 TIP3     12186    TIP3     OH2      OT      -0.834000       15.9994           0
     46473 TIP3     12186    TIP3     H1       HT       0.417000       1.00800           0
     46474 TIP3     12186    TIP3     H2       HT       0.417000       1.00800           0
     46475 TIP3     12187    TIP3     OH2      OT      -0.834000       15.9994           0
     46476 TIP3     12187    TIP3     H1       HT       0.417000       1.00800           0
     46477 TIP3     12187    TIP3     H2       HT       0.417000       1.00800           0
     46478 TIP3     12188    TIP3     OH2      OT      -0.834000       15.9994           0
     46479 TIP3     12188    TIP3     H1       HT       0.417000       1.00800           0
     46480 TIP3     12188    TIP3     H2       HT       0.417000       1.00800           0
     46481 TIP3     12189    TIP3     OH2      OT      -0.834000       15.9994           0
     46482 TIP3     12189    TIP3     H1       HT       0.417000       1.00800           0
     46483 TIP3     12189    TIP3     H2       HT       0.417000       1.00800           0
     46484 TIP3     12190    TIP3     OH2      OT      -0.834000       15.9994           0
     46485 TIP3     12190    TIP3     H1       HT       0.417000       1.00800           0
     46486 TIP3     12190    TIP3     H2       HT       0.417000       1.00800           0
     46487 TIP3     12191    TIP3     OH2      OT      -0.834000       15.9994           0
     46488 TIP3     12191    TIP3     H1       HT       0.417000       1.00800           0
     46489 TIP3     12191    TIP3     H2       HT       0.417000       1.00800           0
     46490 TIP3     12192    TIP3     OH2      OT      -0.834000       15.9994           0
     46491 TIP3     12192    TIP3     H1       HT       0.417000       1.00800           0
     46492 TIP3     12192    TIP3     H2       HT       0.417000       1.00800           0
     46493 TIP3     12193    TIP3     OH2      OT      -0.834000       15.9994           0
     46494 TIP3     12193    TIP3     H1       HT       0.417000       1.00800           0
     46495 TIP3     12193    TIP3     H2       HT       0.417000       1.00800           0
     46496 TIP3     12194    TIP3     OH2      OT      -0.834000       15.9994           0
     46497 TIP3     12194    TIP3     H1       HT       0.417000       1.00800           0
     46498 TIP3     12194    TIP3     H2       HT       0.417000       1.00800           0
     46499 TIP3     12195    TIP3     OH2      OT      -0.834000       15.9994           0
     46500 TIP3     12195    TIP3     H1       HT       0.417000       1.00800           0
     46501 TIP3     12195    TIP3     H2       HT       0.417000       1.00800           0
     46502 TIP3     12196    TIP3     OH2      OT      -0.834000       15.9994           0
     46503 TIP3     12196    TIP3     H1       HT       0.417000       1.00800           0
     46504 TIP3     12196    TIP3     H2       HT       0.417000       1.00800           0
     46505 TIP3     12197    TIP3     OH2      OT      -0.834000       15.9994           0
     46506 TIP3     12197    TIP3     H1       HT       0.417000       1.00800           0
     46507 TIP3     12197    TIP3     H2       HT       0.417000       1.00800           0
     46508 TIP3     12198    TIP3     OH2      OT      -0.834000       15.9994           0
     46509 TIP3     12198    TIP3     H1       HT       0.417000       1.00800           0
     46510 TIP3     12198    TIP3     H2       HT       0.417000       1.00800           0
     46511 TIP3     12199    TIP3     OH2      OT      -0.834000       15.9994           0
     46512 TIP3     12199    TIP3     H1       HT       0.417000       1.00800           0
     46513 TIP3     12199    TIP3     H2       HT       0.417000       1.00800           0
     46514 TIP3     12200    TIP3     OH2      OT      -0.834000       15.9994           0
     46515 TIP3     12200    TIP3     H1       HT       0.417000       1.00800           0
     46516 TIP3     12200    TIP3     H2       HT       0.417000       1.00800           0
     46517 TIP3     12201    TIP3     OH2      OT      -0.834000       15.9994           0
     46518 TIP3     12201    TIP3     H1       HT       0.417000       1.00800           0
     46519 TIP3     12201    TIP3     H2       HT       0.417000       1.00800           0
     46520 TIP3     12202    TIP3     OH2      OT      -0.834000       15.9994           0
     46521 TIP3     12202    TIP3     H1       HT       0.417000       1.00800           0
     46522 TIP3     12202    TIP3     H2       HT       0.417000       1.00800           0
     46523 TIP3     12203    TIP3     OH2      OT      -0.834000       15.9994           0
     46524 TIP3     12203    TIP3     H1       HT       0.417000       1.00800           0
     46525 TIP3     12203    TIP3     H2       HT       0.417000       1.00800           0
     46526 TIP3     12204    TIP3     OH2      OT      -0.834000       15.9994           0
     46527 TIP3     12204    TIP3     H1       HT       0.417000       1.00800           0
     46528 TIP3     12204    TIP3     H2       HT       0.417000       1.00800           0
     46529 TIP3     12205    TIP3     OH2      OT      -0.834000       15.9994           0
     46530 TIP3     12205    TIP3     H1       HT       0.417000       1.00800           0
     46531 TIP3     12205    TIP3     H2       HT       0.417000       1.00800           0
     46532 TIP3     12206    TIP3     OH2      OT      -0.834000       15.9994           0
     46533 TIP3     12206    TIP3     H1       HT       0.417000       1.00800           0
     46534 TIP3     12206    TIP3     H2       HT       0.417000       1.00800           0
     46535 TIP3     12207    TIP3     OH2      OT      -0.834000       15.9994           0
     46536 TIP3     12207    TIP3     H1       HT       0.417000       1.00800           0
     46537 TIP3     12207    TIP3     H2       HT       0.417000       1.00800           0
     46538 TIP3     12208    TIP3     OH2      OT      -0.834000       15.9994           0
     46539 TIP3     12208    TIP3     H1       HT       0.417000       1.00800           0
     46540 TIP3     12208    TIP3     H2       HT       0.417000       1.00800           0
     46541 TIP3     12209    TIP3     OH2      OT      -0.834000       15.9994           0
     46542 TIP3     12209    TIP3     H1       HT       0.417000       1.00800           0
     46543 TIP3     12209    TIP3     H2       HT       0.417000       1.00800           0
     46544 TIP3     12210    TIP3     OH2      OT      -0.834000       15.9994           0
     46545 TIP3     12210    TIP3     H1       HT       0.417000       1.00800           0
     46546 TIP3     12210    TIP3     H2       HT       0.417000       1.00800           0
     46547 TIP3     12211    TIP3     OH2      OT      -0.834000       15.9994           0
     46548 TIP3     12211    TIP3     H1       HT       0.417000       1.00800           0
     46549 TIP3     12211    TIP3     H2       HT       0.417000       1.00800           0
     46550 TIP3     12212    TIP3     OH2      OT      -0.834000       15.9994           0
     46551 TIP3     12212    TIP3     H1       HT       0.417000       1.00800           0
     46552 TIP3     12212    TIP3     H2       HT       0.417000       1.00800           0
     46553 TIP3     12213    TIP3     OH2      OT      -0.834000       15.9994           0
     46554 TIP3     12213    TIP3     H1       HT       0.417000       1.00800           0
     46555 TIP3     12213    TIP3     H2       HT       0.417000       1.00800           0
     46556 TIP3     12214    TIP3     OH2      OT      -0.834000       15.9994           0
     46557 TIP3     12214    TIP3     H1       HT       0.417000       1.00800           0
     46558 TIP3     12214    TIP3     H2       HT       0.417000       1.00800           0
     46559 TIP3     12215    TIP3     OH2      OT      -0.834000       15.9994           0
     46560 TIP3     12215    TIP3     H1       HT       0.417000       1.00800           0
     46561 TIP3     12215    TIP3     H2       HT       0.417000       1.00800           0
     46562 TIP3     12216    TIP3     OH2      OT      -0.834000       15.9994           0
     46563 TIP3     12216    TIP3     H1       HT       0.417000       1.00800           0
     46564 TIP3     12216    TIP3     H2       HT       0.417000       1.00800           0
     46565 TIP3     12217    TIP3     OH2      OT      -0.834000       15.9994           0
     46566 TIP3     12217    TIP3     H1       HT       0.417000       1.00800           0
     46567 TIP3     12217    TIP3     H2       HT       0.417000       1.00800           0
     46568 TIP3     12218    TIP3     OH2      OT      -0.834000       15.9994           0
     46569 TIP3     12218    TIP3     H1       HT       0.417000       1.00800           0
     46570 TIP3     12218    TIP3     H2       HT       0.417000       1.00800           0
     46571 TIP3     12219    TIP3     OH2      OT      -0.834000       15.9994           0
     46572 TIP3     12219    TIP3     H1       HT       0.417000       1.00800           0
     46573 TIP3     12219    TIP3     H2       HT       0.417000       1.00800           0
     46574 TIP3     12220    TIP3     OH2      OT      -0.834000       15.9994           0
     46575 TIP3     12220    TIP3     H1       HT       0.417000       1.00800           0
     46576 TIP3     12220    TIP3     H2       HT       0.417000       1.00800           0
     46577 TIP3     12221    TIP3     OH2      OT      -0.834000       15.9994           0
     46578 TIP3     12221    TIP3     H1       HT       0.417000       1.00800           0
     46579 TIP3     12221    TIP3     H2       HT       0.417000       1.00800           0
     46580 TIP3     12222    TIP3     OH2      OT      -0.834000       15.9994           0
     46581 TIP3     12222    TIP3     H1       HT       0.417000       1.00800           0
     46582 TIP3     12222    TIP3     H2       HT       0.417000       1.00800           0
     46583 TIP3     12223    TIP3     OH2      OT      -0.834000       15.9994           0
     46584 TIP3     12223    TIP3     H1       HT       0.417000       1.00800           0
     46585 TIP3     12223    TIP3     H2       HT       0.417000       1.00800           0
     46586 TIP3     12224    TIP3     OH2      OT      -0.834000       15.9994           0
     46587 TIP3     12224    TIP3     H1       HT       0.417000       1.00800           0
     46588 TIP3     12224    TIP3     H2       HT       0.417000       1.00800           0
     46589 TIP3     12225    TIP3     OH2      OT      -0.834000       15.9994           0
     46590 TIP3     12225    TIP3     H1       HT       0.417000       1.00800           0
     46591 TIP3     12225    TIP3     H2       HT       0.417000       1.00800           0
     46592 TIP3     12226    TIP3     OH2      OT      -0.834000       15.9994           0
     46593 TIP3     12226    TIP3     H1       HT       0.417000       1.00800           0
     46594 TIP3     12226    TIP3     H2       HT       0.417000       1.00800           0
     46595 TIP3     12227    TIP3     OH2      OT      -0.834000       15.9994           0
     46596 TIP3     12227    TIP3     H1       HT       0.417000       1.00800           0
     46597 TIP3     12227    TIP3     H2       HT       0.417000       1.00800           0
     46598 TIP3     12228    TIP3     OH2      OT      -0.834000       15.9994           0
     46599 TIP3     12228    TIP3     H1       HT       0.417000       1.00800           0
     46600 TIP3     12228    TIP3     H2       HT       0.417000       1.00800           0
     46601 TIP3     12229    TIP3     OH2      OT      -0.834000       15.9994           0
     46602 TIP3     12229    TIP3     H1       HT       0.417000       1.00800           0
     46603 TIP3     12229    TIP3     H2       HT       0.417000       1.00800           0
     46604 TIP3     12230    TIP3     OH2      OT      -0.834000       15.9994           0
     46605 TIP3     12230    TIP3     H1       HT       0.417000       1.00800           0
     46606 TIP3     12230    TIP3     H2       HT       0.417000       1.00800           0
     46607 TIP3     12231    TIP3     OH2      OT      -0.834000       15.9994           0
     46608 TIP3     12231    TIP3     H1       HT       0.417000       1.00800           0
     46609 TIP3     12231    TIP3     H2       HT       0.417000       1.00800           0
     46610 TIP3     12232    TIP3     OH2      OT      -0.834000       15.9994           0
     46611 TIP3     12232    TIP3     H1       HT       0.417000       1.00800           0
     46612 TIP3     12232    TIP3     H2       HT       0.417000       1.00800           0
     46613 TIP3     12233    TIP3     OH2      OT      -0.834000       15.9994           0
     46614 TIP3     12233    TIP3     H1       HT       0.417000       1.00800           0
     46615 TIP3     12233    TIP3     H2       HT       0.417000       1.00800           0
     46616 TIP3     12234    TIP3     OH2      OT      -0.834000       15.9994           0
     46617 TIP3     12234    TIP3     H1       HT       0.417000       1.00800           0
     46618 TIP3     12234    TIP3     H2       HT       0.417000       1.00800           0
     46619 TIP3     12235    TIP3     OH2      OT      -0.834000       15.9994           0
     46620 TIP3     12235    TIP3     H1       HT       0.417000       1.00800           0
     46621 TIP3     12235    TIP3     H2       HT       0.417000       1.00800           0
     46622 TIP3     12236    TIP3     OH2      OT      -0.834000       15.9994           0
     46623 TIP3     12236    TIP3     H1       HT       0.417000       1.00800           0
     46624 TIP3     12236    TIP3     H2       HT       0.417000       1.00800           0
     46625 TIP3     12237    TIP3     OH2      OT      -0.834000       15.9994           0
     46626 TIP3     12237    TIP3     H1       HT       0.417000       1.00800           0
     46627 TIP3     12237    TIP3     H2       HT       0.417000       1.00800           0
     46628 TIP3     12238    TIP3     OH2      OT      -0.834000       15.9994           0
     46629 TIP3     12238    TIP3     H1       HT       0.417000       1.00800           0
     46630 TIP3     12238    TIP3     H2       HT       0.417000       1.00800           0
     46631 TIP3     12239    TIP3     OH2      OT      -0.834000       15.9994           0
     46632 TIP3     12239    TIP3     H1       HT       0.417000       1.00800           0
     46633 TIP3     12239    TIP3     H2       HT       0.417000       1.00800           0
     46634 TIP3     12240    TIP3     OH2      OT      -0.834000       15.9994           0
     46635 TIP3     12240    TIP3     H1       HT       0.417000       1.00800           0
     46636 TIP3     12240    TIP3     H2       HT       0.417000       1.00800           0
     46637 TIP3     12241    TIP3     OH2      OT      -0.834000       15.9994           0
     46638 TIP3     12241    TIP3     H1       HT       0.417000       1.00800           0
     46639 TIP3     12241    TIP3     H2       HT       0.417000       1.00800           0
     46640 TIP3     12242    TIP3     OH2      OT      -0.834000       15.9994           0
     46641 TIP3     12242    TIP3     H1       HT       0.417000       1.00800           0
     46642 TIP3     12242    TIP3     H2       HT       0.417000       1.00800           0
     46643 TIP3     12243    TIP3     OH2      OT      -0.834000       15.9994           0
     46644 TIP3     12243    TIP3     H1       HT       0.417000       1.00800           0
     46645 TIP3     12243    TIP3     H2       HT       0.417000       1.00800           0
     46646 TIP3     12244    TIP3     OH2      OT      -0.834000       15.9994           0
     46647 TIP3     12244    TIP3     H1       HT       0.417000       1.00800           0
     46648 TIP3     12244    TIP3     H2       HT       0.417000       1.00800           0
     46649 TIP3     12245    TIP3     OH2      OT      -0.834000       15.9994           0
     46650 TIP3     12245    TIP3     H1       HT       0.417000       1.00800           0
     46651 TIP3     12245    TIP3     H2       HT       0.417000       1.00800           0
     46652 TIP3     12246    TIP3     OH2      OT      -0.834000       15.9994           0
     46653 TIP3     12246    TIP3     H1       HT       0.417000       1.00800           0
     46654 TIP3     12246    TIP3     H2       HT       0.417000       1.00800           0
     46655 TIP3     12247    TIP3     OH2      OT      -0.834000       15.9994           0
     46656 TIP3     12247    TIP3     H1       HT       0.417000       1.00800           0
     46657 TIP3     12247    TIP3     H2       HT       0.417000       1.00800           0
     46658 TIP3     12248    TIP3     OH2      OT      -0.834000       15.9994           0
     46659 TIP3     12248    TIP3     H1       HT       0.417000       1.00800           0
     46660 TIP3     12248    TIP3     H2       HT       0.417000       1.00800           0
     46661 TIP3     12249    TIP3     OH2      OT      -0.834000       15.9994           0
     46662 TIP3     12249    TIP3     H1       HT       0.417000       1.00800           0
     46663 TIP3     12249    TIP3     H2       HT       0.417000       1.00800           0
     46664 TIP3     12250    TIP3     OH2      OT      -0.834000       15.9994           0
     46665 TIP3     12250    TIP3     H1       HT       0.417000       1.00800           0
     46666 TIP3     12250    TIP3     H2       HT       0.417000       1.00800           0
     46667 TIP3     12251    TIP3     OH2      OT      -0.834000       15.9994           0
     46668 TIP3     12251    TIP3     H1       HT       0.417000       1.00800           0
     46669 TIP3     12251    TIP3     H2       HT       0.417000       1.00800           0
     46670 TIP3     12252    TIP3     OH2      OT      -0.834000       15.9994           0
     46671 TIP3     12252    TIP3     H1       HT       0.417000       1.00800           0
     46672 TIP3     12252    TIP3     H2       HT       0.417000       1.00800           0
     46673 TIP3     12253    TIP3     OH2      OT      -0.834000       15.9994           0
     46674 TIP3     12253    TIP3     H1       HT       0.417000       1.00800           0
     46675 TIP3     12253    TIP3     H2       HT       0.417000       1.00800           0
     46676 TIP3     12254    TIP3     OH2      OT      -0.834000       15.9994           0
     46677 TIP3     12254    TIP3     H1       HT       0.417000       1.00800           0
     46678 TIP3     12254    TIP3     H2       HT       0.417000       1.00800           0
     46679 TIP3     12255    TIP3     OH2      OT      -0.834000       15.9994           0
     46680 TIP3     12255    TIP3     H1       HT       0.417000       1.00800           0
     46681 TIP3     12255    TIP3     H2       HT       0.417000       1.00800           0
     46682 TIP3     12256    TIP3     OH2      OT      -0.834000       15.9994           0
     46683 TIP3     12256    TIP3     H1       HT       0.417000       1.00800           0
     46684 TIP3     12256    TIP3     H2       HT       0.417000       1.00800           0
     46685 TIP3     12257    TIP3     OH2      OT      -0.834000       15.9994           0
     46686 TIP3     12257    TIP3     H1       HT       0.417000       1.00800           0
     46687 TIP3     12257    TIP3     H2       HT       0.417000       1.00800           0
     46688 TIP3     12258    TIP3     OH2      OT      -0.834000       15.9994           0
     46689 TIP3     12258    TIP3     H1       HT       0.417000       1.00800           0
     46690 TIP3     12258    TIP3     H2       HT       0.417000       1.00800           0
     46691 TIP3     12259    TIP3     OH2      OT      -0.834000       15.9994           0
     46692 TIP3     12259    TIP3     H1       HT       0.417000       1.00800           0
     46693 TIP3     12259    TIP3     H2       HT       0.417000       1.00800           0
     46694 TIP3     12260    TIP3     OH2      OT      -0.834000       15.9994           0
     46695 TIP3     12260    TIP3     H1       HT       0.417000       1.00800           0
     46696 TIP3     12260    TIP3     H2       HT       0.417000       1.00800           0
     46697 TIP3     12261    TIP3     OH2      OT      -0.834000       15.9994           0
     46698 TIP3     12261    TIP3     H1       HT       0.417000       1.00800           0
     46699 TIP3     12261    TIP3     H2       HT       0.417000       1.00800           0
     46700 TIP3     12262    TIP3     OH2      OT      -0.834000       15.9994           0
     46701 TIP3     12262    TIP3     H1       HT       0.417000       1.00800           0
     46702 TIP3     12262    TIP3     H2       HT       0.417000       1.00800           0
     46703 TIP3     12263    TIP3     OH2      OT      -0.834000       15.9994           0
     46704 TIP3     12263    TIP3     H1       HT       0.417000       1.00800           0
     46705 TIP3     12263    TIP3     H2       HT       0.417000       1.00800           0
     46706 TIP3     12264    TIP3     OH2      OT      -0.834000       15.9994           0
     46707 TIP3     12264    TIP3     H1       HT       0.417000       1.00800           0
     46708 TIP3     12264    TIP3     H2       HT       0.417000       1.00800           0
     46709 TIP3     12265    TIP3     OH2      OT      -0.834000       15.9994           0
     46710 TIP3     12265    TIP3     H1       HT       0.417000       1.00800           0
     46711 TIP3     12265    TIP3     H2       HT       0.417000       1.00800           0
     46712 TIP3     12266    TIP3     OH2      OT      -0.834000       15.9994           0
     46713 TIP3     12266    TIP3     H1       HT       0.417000       1.00800           0
     46714 TIP3     12266    TIP3     H2       HT       0.417000       1.00800           0
     46715 TIP3     12267    TIP3     OH2      OT      -0.834000       15.9994           0
     46716 TIP3     12267    TIP3     H1       HT       0.417000       1.00800           0
     46717 TIP3     12267    TIP3     H2       HT       0.417000       1.00800           0
     46718 TIP3     12268    TIP3     OH2      OT      -0.834000       15.9994           0
     46719 TIP3     12268    TIP3     H1       HT       0.417000       1.00800           0
     46720 TIP3     12268    TIP3     H2       HT       0.417000       1.00800           0
     46721 TIP3     12269    TIP3     OH2      OT      -0.834000       15.9994           0
     46722 TIP3     12269    TIP3     H1       HT       0.417000       1.00800           0
     46723 TIP3     12269    TIP3     H2       HT       0.417000       1.00800           0
     46724 TIP3     12270    TIP3     OH2      OT      -0.834000       15.9994           0
     46725 TIP3     12270    TIP3     H1       HT       0.417000       1.00800           0
     46726 TIP3     12270    TIP3     H2       HT       0.417000       1.00800           0
     46727 TIP3     12271    TIP3     OH2      OT      -0.834000       15.9994           0
     46728 TIP3     12271    TIP3     H1       HT       0.417000       1.00800           0
     46729 TIP3     12271    TIP3     H2       HT       0.417000       1.00800           0
     46730 TIP3     12272    TIP3     OH2      OT      -0.834000       15.9994           0
     46731 TIP3     12272    TIP3     H1       HT       0.417000       1.00800           0
     46732 TIP3     12272    TIP3     H2       HT       0.417000       1.00800           0
     46733 TIP3     12273    TIP3     OH2      OT      -0.834000       15.9994           0
     46734 TIP3     12273    TIP3     H1       HT       0.417000       1.00800           0
     46735 TIP3     12273    TIP3     H2       HT       0.417000       1.00800           0
     46736 TIP3     12274    TIP3     OH2      OT      -0.834000       15.9994           0
     46737 TIP3     12274    TIP3     H1       HT       0.417000       1.00800           0
     46738 TIP3     12274    TIP3     H2       HT       0.417000       1.00800           0
     46739 TIP3     12275    TIP3     OH2      OT      -0.834000       15.9994           0
     46740 TIP3     12275    TIP3     H1       HT       0.417000       1.00800           0
     46741 TIP3     12275    TIP3     H2       HT       0.417000       1.00800           0
     46742 TIP3     12276    TIP3     OH2      OT      -0.834000       15.9994           0
     46743 TIP3     12276    TIP3     H1       HT       0.417000       1.00800           0
     46744 TIP3     12276    TIP3     H2       HT       0.417000       1.00800           0
     46745 TIP3     12277    TIP3     OH2      OT      -0.834000       15.9994           0
     46746 TIP3     12277    TIP3     H1       HT       0.417000       1.00800           0
     46747 TIP3     12277    TIP3     H2       HT       0.417000       1.00800           0
     46748 TIP3     12278    TIP3     OH2      OT      -0.834000       15.9994           0
     46749 TIP3     12278    TIP3     H1       HT       0.417000       1.00800           0
     46750 TIP3     12278    TIP3     H2       HT       0.417000       1.00800           0
     46751 TIP3     12279    TIP3     OH2      OT      -0.834000       15.9994           0
     46752 TIP3     12279    TIP3     H1       HT       0.417000       1.00800           0
     46753 TIP3     12279    TIP3     H2       HT       0.417000       1.00800           0
     46754 TIP3     12280    TIP3     OH2      OT      -0.834000       15.9994           0
     46755 TIP3     12280    TIP3     H1       HT       0.417000       1.00800           0
     46756 TIP3     12280    TIP3     H2       HT       0.417000       1.00800           0
     46757 TIP3     12281    TIP3     OH2      OT      -0.834000       15.9994           0
     46758 TIP3     12281    TIP3     H1       HT       0.417000       1.00800           0
     46759 TIP3     12281    TIP3     H2       HT       0.417000       1.00800           0
     46760 TIP3     12282    TIP3     OH2      OT      -0.834000       15.9994           0
     46761 TIP3     12282    TIP3     H1       HT       0.417000       1.00800           0
     46762 TIP3     12282    TIP3     H2       HT       0.417000       1.00800           0
     46763 TIP3     12283    TIP3     OH2      OT      -0.834000       15.9994           0
     46764 TIP3     12283    TIP3     H1       HT       0.417000       1.00800           0
     46765 TIP3     12283    TIP3     H2       HT       0.417000       1.00800           0
     46766 TIP3     12284    TIP3     OH2      OT      -0.834000       15.9994           0
     46767 TIP3     12284    TIP3     H1       HT       0.417000       1.00800           0
     46768 TIP3     12284    TIP3     H2       HT       0.417000       1.00800           0
     46769 TIP3     12285    TIP3     OH2      OT      -0.834000       15.9994           0
     46770 TIP3     12285    TIP3     H1       HT       0.417000       1.00800           0
     46771 TIP3     12285    TIP3     H2       HT       0.417000       1.00800           0
     46772 TIP3     12286    TIP3     OH2      OT      -0.834000       15.9994           0
     46773 TIP3     12286    TIP3     H1       HT       0.417000       1.00800           0
     46774 TIP3     12286    TIP3     H2       HT       0.417000       1.00800           0
     46775 TIP3     12287    TIP3     OH2      OT      -0.834000       15.9994           0
     46776 TIP3     12287    TIP3     H1       HT       0.417000       1.00800           0
     46777 TIP3     12287    TIP3     H2       HT       0.417000       1.00800           0
     46778 TIP3     12288    TIP3     OH2      OT      -0.834000       15.9994           0
     46779 TIP3     12288    TIP3     H1       HT       0.417000       1.00800           0
     46780 TIP3     12288    TIP3     H2       HT       0.417000       1.00800           0
     46781 TIP3     12289    TIP3     OH2      OT      -0.834000       15.9994           0
     46782 TIP3     12289    TIP3     H1       HT       0.417000       1.00800           0
     46783 TIP3     12289    TIP3     H2       HT       0.417000       1.00800           0
     46784 TIP3     12290    TIP3     OH2      OT      -0.834000       15.9994           0
     46785 TIP3     12290    TIP3     H1       HT       0.417000       1.00800           0
     46786 TIP3     12290    TIP3     H2       HT       0.417000       1.00800           0
     46787 TIP3     12291    TIP3     OH2      OT      -0.834000       15.9994           0
     46788 TIP3     12291    TIP3     H1       HT       0.417000       1.00800           0
     46789 TIP3     12291    TIP3     H2       HT       0.417000       1.00800           0
     46790 TIP3     12292    TIP3     OH2      OT      -0.834000       15.9994           0
     46791 TIP3     12292    TIP3     H1       HT       0.417000       1.00800           0
     46792 TIP3     12292    TIP3     H2       HT       0.417000       1.00800           0
     46793 TIP3     12293    TIP3     OH2      OT      -0.834000       15.9994           0
     46794 TIP3     12293    TIP3     H1       HT       0.417000       1.00800           0
     46795 TIP3     12293    TIP3     H2       HT       0.417000       1.00800           0
     46796 TIP3     12294    TIP3     OH2      OT      -0.834000       15.9994           0
     46797 TIP3     12294    TIP3     H1       HT       0.417000       1.00800           0
     46798 TIP3     12294    TIP3     H2       HT       0.417000       1.00800           0
     46799 TIP3     12295    TIP3     OH2      OT      -0.834000       15.9994           0
     46800 TIP3     12295    TIP3     H1       HT       0.417000       1.00800           0
     46801 TIP3     12295    TIP3     H2       HT       0.417000       1.00800           0
     46802 TIP3     12296    TIP3     OH2      OT      -0.834000       15.9994           0
     46803 TIP3     12296    TIP3     H1       HT       0.417000       1.00800           0
     46804 TIP3     12296    TIP3     H2       HT       0.417000       1.00800           0
     46805 TIP3     12297    TIP3     OH2      OT      -0.834000       15.9994           0
     46806 TIP3     12297    TIP3     H1       HT       0.417000       1.00800           0
     46807 TIP3     12297    TIP3     H2       HT       0.417000       1.00800           0
     46808 TIP3     12298    TIP3     OH2      OT      -0.834000       15.9994           0
     46809 TIP3     12298    TIP3     H1       HT       0.417000       1.00800           0
     46810 TIP3     12298    TIP3     H2       HT       0.417000       1.00800           0
     46811 TIP3     12299    TIP3     OH2      OT      -0.834000       15.9994           0
     46812 TIP3     12299    TIP3     H1       HT       0.417000       1.00800           0
     46813 TIP3     12299    TIP3     H2       HT       0.417000       1.00800           0
     46814 TIP3     12300    TIP3     OH2      OT      -0.834000       15.9994           0
     46815 TIP3     12300    TIP3     H1       HT       0.417000       1.00800           0
     46816 TIP3     12300    TIP3     H2       HT       0.417000       1.00800           0
     46817 TIP3     12301    TIP3     OH2      OT      -0.834000       15.9994           0
     46818 TIP3     12301    TIP3     H1       HT       0.417000       1.00800           0
     46819 TIP3     12301    TIP3     H2       HT       0.417000       1.00800           0
     46820 TIP3     12302    TIP3     OH2      OT      -0.834000       15.9994           0
     46821 TIP3     12302    TIP3     H1       HT       0.417000       1.00800           0
     46822 TIP3     12302    TIP3     H2       HT       0.417000       1.00800           0
     46823 TIP3     12303    TIP3     OH2      OT      -0.834000       15.9994           0
     46824 TIP3     12303    TIP3     H1       HT       0.417000       1.00800           0
     46825 TIP3     12303    TIP3     H2       HT       0.417000       1.00800           0
     46826 TIP3     12304    TIP3     OH2      OT      -0.834000       15.9994           0
     46827 TIP3     12304    TIP3     H1       HT       0.417000       1.00800           0
     46828 TIP3     12304    TIP3     H2       HT       0.417000       1.00800           0
     46829 TIP3     12305    TIP3     OH2      OT      -0.834000       15.9994           0
     46830 TIP3     12305    TIP3     H1       HT       0.417000       1.00800           0
     46831 TIP3     12305    TIP3     H2       HT       0.417000       1.00800           0
     46832 TIP3     12306    TIP3     OH2      OT      -0.834000       15.9994           0
     46833 TIP3     12306    TIP3     H1       HT       0.417000       1.00800           0
     46834 TIP3     12306    TIP3     H2       HT       0.417000       1.00800           0
     46835 TIP3     12307    TIP3     OH2      OT      -0.834000       15.9994           0
     46836 TIP3     12307    TIP3     H1       HT       0.417000       1.00800           0
     46837 TIP3     12307    TIP3     H2       HT       0.417000       1.00800           0
     46838 TIP3     12308    TIP3     OH2      OT      -0.834000       15.9994           0
     46839 TIP3     12308    TIP3     H1       HT       0.417000       1.00800           0
     46840 TIP3     12308    TIP3     H2       HT       0.417000       1.00800           0
     46841 TIP3     12309    TIP3     OH2      OT      -0.834000       15.9994           0
     46842 TIP3     12309    TIP3     H1       HT       0.417000       1.00800           0
     46843 TIP3     12309    TIP3     H2       HT       0.417000       1.00800           0
     46844 TIP3     12310    TIP3     OH2      OT      -0.834000       15.9994           0
     46845 TIP3     12310    TIP3     H1       HT       0.417000       1.00800           0
     46846 TIP3     12310    TIP3     H2       HT       0.417000       1.00800           0
     46847 TIP3     12311    TIP3     OH2      OT      -0.834000       15.9994           0
     46848 TIP3     12311    TIP3     H1       HT       0.417000       1.00800           0
     46849 TIP3     12311    TIP3     H2       HT       0.417000       1.00800           0
     46850 TIP3     12312    TIP3     OH2      OT      -0.834000       15.9994           0
     46851 TIP3     12312    TIP3     H1       HT       0.417000       1.00800           0
     46852 TIP3     12312    TIP3     H2       HT       0.417000       1.00800           0
     46853 TIP3     12313    TIP3     OH2      OT      -0.834000       15.9994           0
     46854 TIP3     12313    TIP3     H1       HT       0.417000       1.00800           0
     46855 TIP3     12313    TIP3     H2       HT       0.417000       1.00800           0
     46856 TIP3     12314    TIP3     OH2      OT      -0.834000       15.9994           0
     46857 TIP3     12314    TIP3     H1       HT       0.417000       1.00800           0
     46858 TIP3     12314    TIP3     H2       HT       0.417000       1.00800           0
     46859 TIP3     12315    TIP3     OH2      OT      -0.834000       15.9994           0
     46860 TIP3     12315    TIP3     H1       HT       0.417000       1.00800           0
     46861 TIP3     12315    TIP3     H2       HT       0.417000       1.00800           0
     46862 TIP3     12316    TIP3     OH2      OT      -0.834000       15.9994           0
     46863 TIP3     12316    TIP3     H1       HT       0.417000       1.00800           0
     46864 TIP3     12316    TIP3     H2       HT       0.417000       1.00800           0
     46865 TIP3     12317    TIP3     OH2      OT      -0.834000       15.9994           0
     46866 TIP3     12317    TIP3     H1       HT       0.417000       1.00800           0
     46867 TIP3     12317    TIP3     H2       HT       0.417000       1.00800           0
     46868 TIP3     12318    TIP3     OH2      OT      -0.834000       15.9994           0
     46869 TIP3     12318    TIP3     H1       HT       0.417000       1.00800           0
     46870 TIP3     12318    TIP3     H2       HT       0.417000       1.00800           0
     46871 TIP3     12319    TIP3     OH2      OT      -0.834000       15.9994           0
     46872 TIP3     12319    TIP3     H1       HT       0.417000       1.00800           0
     46873 TIP3     12319    TIP3     H2       HT       0.417000       1.00800           0
     46874 TIP3     12320    TIP3     OH2      OT      -0.834000       15.9994           0
     46875 TIP3     12320    TIP3     H1       HT       0.417000       1.00800           0
     46876 TIP3     12320    TIP3     H2       HT       0.417000       1.00800           0
     46877 TIP3     12321    TIP3     OH2      OT      -0.834000       15.9994           0
     46878 TIP3     12321    TIP3     H1       HT       0.417000       1.00800           0
     46879 TIP3     12321    TIP3     H2       HT       0.417000       1.00800           0
     46880 TIP3     12322    TIP3     OH2      OT      -0.834000       15.9994           0
     46881 TIP3     12322    TIP3     H1       HT       0.417000       1.00800           0
     46882 TIP3     12322    TIP3     H2       HT       0.417000       1.00800           0
     46883 TIP3     12323    TIP3     OH2      OT      -0.834000       15.9994           0
     46884 TIP3     12323    TIP3     H1       HT       0.417000       1.00800           0
     46885 TIP3     12323    TIP3     H2       HT       0.417000       1.00800           0
     46886 TIP3     12324    TIP3     OH2      OT      -0.834000       15.9994           0
     46887 TIP3     12324    TIP3     H1       HT       0.417000       1.00800           0
     46888 TIP3     12324    TIP3     H2       HT       0.417000       1.00800           0
     46889 TIP3     12325    TIP3     OH2      OT      -0.834000       15.9994           0
     46890 TIP3     12325    TIP3     H1       HT       0.417000       1.00800           0
     46891 TIP3     12325    TIP3     H2       HT       0.417000       1.00800           0
     46892 TIP3     12326    TIP3     OH2      OT      -0.834000       15.9994           0
     46893 TIP3     12326    TIP3     H1       HT       0.417000       1.00800           0
     46894 TIP3     12326    TIP3     H2       HT       0.417000       1.00800           0
     46895 TIP3     12327    TIP3     OH2      OT      -0.834000       15.9994           0
     46896 TIP3     12327    TIP3     H1       HT       0.417000       1.00800           0
     46897 TIP3     12327    TIP3     H2       HT       0.417000       1.00800           0
     46898 TIP3     12328    TIP3     OH2      OT      -0.834000       15.9994           0
     46899 TIP3     12328    TIP3     H1       HT       0.417000       1.00800           0
     46900 TIP3     12328    TIP3     H2       HT       0.417000       1.00800           0
     46901 TIP3     12329    TIP3     OH2      OT      -0.834000       15.9994           0
     46902 TIP3     12329    TIP3     H1       HT       0.417000       1.00800           0
     46903 TIP3     12329    TIP3     H2       HT       0.417000       1.00800           0
     46904 TIP3     12330    TIP3     OH2      OT      -0.834000       15.9994           0
     46905 TIP3     12330    TIP3     H1       HT       0.417000       1.00800           0
     46906 TIP3     12330    TIP3     H2       HT       0.417000       1.00800           0
     46907 TIP3     12331    TIP3     OH2      OT      -0.834000       15.9994           0
     46908 TIP3     12331    TIP3     H1       HT       0.417000       1.00800           0
     46909 TIP3     12331    TIP3     H2       HT       0.417000       1.00800           0
     46910 TIP3     12332    TIP3     OH2      OT      -0.834000       15.9994           0
     46911 TIP3     12332    TIP3     H1       HT       0.417000       1.00800           0
     46912 TIP3     12332    TIP3     H2       HT       0.417000       1.00800           0
     46913 TIP3     12333    TIP3     OH2      OT      -0.834000       15.9994           0
     46914 TIP3     12333    TIP3     H1       HT       0.417000       1.00800           0
     46915 TIP3     12333    TIP3     H2       HT       0.417000       1.00800           0
     46916 TIP3     12334    TIP3     OH2      OT      -0.834000       15.9994           0
     46917 TIP3     12334    TIP3     H1       HT       0.417000       1.00800           0
     46918 TIP3     12334    TIP3     H2       HT       0.417000       1.00800           0
     46919 TIP3     12335    TIP3     OH2      OT      -0.834000       15.9994           0
     46920 TIP3     12335    TIP3     H1       HT       0.417000       1.00800           0
     46921 TIP3     12335    TIP3     H2       HT       0.417000       1.00800           0
     46922 TIP3     12336    TIP3     OH2      OT      -0.834000       15.9994           0
     46923 TIP3     12336    TIP3     H1       HT       0.417000       1.00800           0
     46924 TIP3     12336    TIP3     H2       HT       0.417000       1.00800           0
     46925 TIP3     12337    TIP3     OH2      OT      -0.834000       15.9994           0
     46926 TIP3     12337    TIP3     H1       HT       0.417000       1.00800           0
     46927 TIP3     12337    TIP3     H2       HT       0.417000       1.00800           0
     46928 TIP3     12338    TIP3     OH2      OT      -0.834000       15.9994           0
     46929 TIP3     12338    TIP3     H1       HT       0.417000       1.00800           0
     46930 TIP3     12338    TIP3     H2       HT       0.417000       1.00800           0
     46931 TIP3     12339    TIP3     OH2      OT      -0.834000       15.9994           0
     46932 TIP3     12339    TIP3     H1       HT       0.417000       1.00800           0
     46933 TIP3     12339    TIP3     H2       HT       0.417000       1.00800           0
     46934 TIP3     12340    TIP3     OH2      OT      -0.834000       15.9994           0
     46935 TIP3     12340    TIP3     H1       HT       0.417000       1.00800           0
     46936 TIP3     12340    TIP3     H2       HT       0.417000       1.00800           0
     46937 TIP3     12341    TIP3     OH2      OT      -0.834000       15.9994           0
     46938 TIP3     12341    TIP3     H1       HT       0.417000       1.00800           0
     46939 TIP3     12341    TIP3     H2       HT       0.417000       1.00800           0
     46940 TIP3     12342    TIP3     OH2      OT      -0.834000       15.9994           0
     46941 TIP3     12342    TIP3     H1       HT       0.417000       1.00800           0
     46942 TIP3     12342    TIP3     H2       HT       0.417000       1.00800           0
     46943 TIP3     12343    TIP3     OH2      OT      -0.834000       15.9994           0
     46944 TIP3     12343    TIP3     H1       HT       0.417000       1.00800           0
     46945 TIP3     12343    TIP3     H2       HT       0.417000       1.00800           0
     46946 TIP3     12344    TIP3     OH2      OT      -0.834000       15.9994           0
     46947 TIP3     12344    TIP3     H1       HT       0.417000       1.00800           0
     46948 TIP3     12344    TIP3     H2       HT       0.417000       1.00800           0
     46949 TIP3     12345    TIP3     OH2      OT      -0.834000       15.9994           0
     46950 TIP3     12345    TIP3     H1       HT       0.417000       1.00800           0
     46951 TIP3     12345    TIP3     H2       HT       0.417000       1.00800           0
     46952 TIP3     12346    TIP3     OH2      OT      -0.834000       15.9994           0
     46953 TIP3     12346    TIP3     H1       HT       0.417000       1.00800           0
     46954 TIP3     12346    TIP3     H2       HT       0.417000       1.00800           0
     46955 TIP3     12347    TIP3     OH2      OT      -0.834000       15.9994           0
     46956 TIP3     12347    TIP3     H1       HT       0.417000       1.00800           0
     46957 TIP3     12347    TIP3     H2       HT       0.417000       1.00800           0
     46958 TIP3     12348    TIP3     OH2      OT      -0.834000       15.9994           0
     46959 TIP3     12348    TIP3     H1       HT       0.417000       1.00800           0
     46960 TIP3     12348    TIP3     H2       HT       0.417000       1.00800           0
     46961 TIP3     12349    TIP3     OH2      OT      -0.834000       15.9994           0
     46962 TIP3     12349    TIP3     H1       HT       0.417000       1.00800           0
     46963 TIP3     12349    TIP3     H2       HT       0.417000       1.00800           0
     46964 TIP3     12350    TIP3     OH2      OT      -0.834000       15.9994           0
     46965 TIP3     12350    TIP3     H1       HT       0.417000       1.00800           0
     46966 TIP3     12350    TIP3     H2       HT       0.417000       1.00800           0
     46967 TIP3     12351    TIP3     OH2      OT      -0.834000       15.9994           0
     46968 TIP3     12351    TIP3     H1       HT       0.417000       1.00800           0
     46969 TIP3     12351    TIP3     H2       HT       0.417000       1.00800           0
     46970 TIP3     12352    TIP3     OH2      OT      -0.834000       15.9994           0
     46971 TIP3     12352    TIP3     H1       HT       0.417000       1.00800           0
     46972 TIP3     12352    TIP3     H2       HT       0.417000       1.00800           0
     46973 TIP3     12353    TIP3     OH2      OT      -0.834000       15.9994           0
     46974 TIP3     12353    TIP3     H1       HT       0.417000       1.00800           0
     46975 TIP3     12353    TIP3     H2       HT       0.417000       1.00800           0
     46976 TIP3     12354    TIP3     OH2      OT      -0.834000       15.9994           0
     46977 TIP3     12354    TIP3     H1       HT       0.417000       1.00800           0
     46978 TIP3     12354    TIP3     H2       HT       0.417000       1.00800           0
     46979 TIP3     12355    TIP3     OH2      OT      -0.834000       15.9994           0
     46980 TIP3     12355    TIP3     H1       HT       0.417000       1.00800           0
     46981 TIP3     12355    TIP3     H2       HT       0.417000       1.00800           0
     46982 TIP3     12356    TIP3     OH2      OT      -0.834000       15.9994           0
     46983 TIP3     12356    TIP3     H1       HT       0.417000       1.00800           0
     46984 TIP3     12356    TIP3     H2       HT       0.417000       1.00800           0
     46985 TIP3     12357    TIP3     OH2      OT      -0.834000       15.9994           0
     46986 TIP3     12357    TIP3     H1       HT       0.417000       1.00800           0
     46987 TIP3     12357    TIP3     H2       HT       0.417000       1.00800           0
     46988 TIP3     12358    TIP3     OH2      OT      -0.834000       15.9994           0
     46989 TIP3     12358    TIP3     H1       HT       0.417000       1.00800           0
     46990 TIP3     12358    TIP3     H2       HT       0.417000       1.00800           0
     46991 TIP3     12359    TIP3     OH2      OT      -0.834000       15.9994           0
     46992 TIP3     12359    TIP3     H1       HT       0.417000       1.00800           0
     46993 TIP3     12359    TIP3     H2       HT       0.417000       1.00800           0
     46994 TIP3     12360    TIP3     OH2      OT      -0.834000       15.9994           0
     46995 TIP3     12360    TIP3     H1       HT       0.417000       1.00800           0
     46996 TIP3     12360    TIP3     H2       HT       0.417000       1.00800           0
     46997 TIP3     12361    TIP3     OH2      OT      -0.834000       15.9994           0
     46998 TIP3     12361    TIP3     H1       HT       0.417000       1.00800           0
     46999 TIP3     12361    TIP3     H2       HT       0.417000       1.00800           0
     47000 TIP3     12362    TIP3     OH2      OT      -0.834000       15.9994           0
     47001 TIP3     12362    TIP3     H1       HT       0.417000       1.00800           0
     47002 TIP3     12362    TIP3     H2       HT       0.417000       1.00800           0
     47003 TIP3     12363    TIP3     OH2      OT      -0.834000       15.9994           0
     47004 TIP3     12363    TIP3     H1       HT       0.417000       1.00800           0
     47005 TIP3     12363    TIP3     H2       HT       0.417000       1.00800           0
     47006 TIP3     12364    TIP3     OH2      OT      -0.834000       15.9994           0
     47007 TIP3     12364    TIP3     H1       HT       0.417000       1.00800           0
     47008 TIP3     12364    TIP3     H2       HT       0.417000       1.00800           0
     47009 TIP3     12365    TIP3     OH2      OT      -0.834000       15.9994           0
     47010 TIP3     12365    TIP3     H1       HT       0.417000       1.00800           0
     47011 TIP3     12365    TIP3     H2       HT       0.417000       1.00800           0
     47012 TIP3     12366    TIP3     OH2      OT      -0.834000       15.9994           0
     47013 TIP3     12366    TIP3     H1       HT       0.417000       1.00800           0
     47014 TIP3     12366    TIP3     H2       HT       0.417000       1.00800           0
     47015 TIP3     12367    TIP3     OH2      OT      -0.834000       15.9994           0
     47016 TIP3     12367    TIP3     H1       HT       0.417000       1.00800           0
     47017 TIP3     12367    TIP3     H2       HT       0.417000       1.00800           0
     47018 TIP3     12368    TIP3     OH2      OT      -0.834000       15.9994           0
     47019 TIP3     12368    TIP3     H1       HT       0.417000       1.00800           0
     47020 TIP3     12368    TIP3     H2       HT       0.417000       1.00800           0
     47021 TIP3     12369    TIP3     OH2      OT      -0.834000       15.9994           0
     47022 TIP3     12369    TIP3     H1       HT       0.417000       1.00800           0
     47023 TIP3     12369    TIP3     H2       HT       0.417000       1.00800           0
     47024 TIP3     12370    TIP3     OH2      OT      -0.834000       15.9994           0
     47025 TIP3     12370    TIP3     H1       HT       0.417000       1.00800           0
     47026 TIP3     12370    TIP3     H2       HT       0.417000       1.00800           0
     47027 TIP3     12371    TIP3     OH2      OT      -0.834000       15.9994           0
     47028 TIP3     12371    TIP3     H1       HT       0.417000       1.00800           0
     47029 TIP3     12371    TIP3     H2       HT       0.417000       1.00800           0
     47030 TIP3     12372    TIP3     OH2      OT      -0.834000       15.9994           0
     47031 TIP3     12372    TIP3     H1       HT       0.417000       1.00800           0
     47032 TIP3     12372    TIP3     H2       HT       0.417000       1.00800           0
     47033 TIP3     12373    TIP3     OH2      OT      -0.834000       15.9994           0
     47034 TIP3     12373    TIP3     H1       HT       0.417000       1.00800           0
     47035 TIP3     12373    TIP3     H2       HT       0.417000       1.00800           0
     47036 TIP3     12374    TIP3     OH2      OT      -0.834000       15.9994           0
     47037 TIP3     12374    TIP3     H1       HT       0.417000       1.00800           0
     47038 TIP3     12374    TIP3     H2       HT       0.417000       1.00800           0
     47039 TIP3     12375    TIP3     OH2      OT      -0.834000       15.9994           0
     47040 TIP3     12375    TIP3     H1       HT       0.417000       1.00800           0
     47041 TIP3     12375    TIP3     H2       HT       0.417000       1.00800           0
     47042 TIP3     12376    TIP3     OH2      OT      -0.834000       15.9994           0
     47043 TIP3     12376    TIP3     H1       HT       0.417000       1.00800           0
     47044 TIP3     12376    TIP3     H2       HT       0.417000       1.00800           0
     47045 TIP3     12377    TIP3     OH2      OT      -0.834000       15.9994           0
     47046 TIP3     12377    TIP3     H1       HT       0.417000       1.00800           0
     47047 TIP3     12377    TIP3     H2       HT       0.417000       1.00800           0
     47048 TIP3     12378    TIP3     OH2      OT      -0.834000       15.9994           0
     47049 TIP3     12378    TIP3     H1       HT       0.417000       1.00800           0
     47050 TIP3     12378    TIP3     H2       HT       0.417000       1.00800           0
     47051 TIP3     12379    TIP3     OH2      OT      -0.834000       15.9994           0
     47052 TIP3     12379    TIP3     H1       HT       0.417000       1.00800           0
     47053 TIP3     12379    TIP3     H2       HT       0.417000       1.00800           0
     47054 TIP3     12380    TIP3     OH2      OT      -0.834000       15.9994           0
     47055 TIP3     12380    TIP3     H1       HT       0.417000       1.00800           0
     47056 TIP3     12380    TIP3     H2       HT       0.417000       1.00800           0
     47057 TIP3     12381    TIP3     OH2      OT      -0.834000       15.9994           0
     47058 TIP3     12381    TIP3     H1       HT       0.417000       1.00800           0
     47059 TIP3     12381    TIP3     H2       HT       0.417000       1.00800           0
     47060 TIP3     12382    TIP3     OH2      OT      -0.834000       15.9994           0
     47061 TIP3     12382    TIP3     H1       HT       0.417000       1.00800           0
     47062 TIP3     12382    TIP3     H2       HT       0.417000       1.00800           0
     47063 TIP3     12383    TIP3     OH2      OT      -0.834000       15.9994           0
     47064 TIP3     12383    TIP3     H1       HT       0.417000       1.00800           0
     47065 TIP3     12383    TIP3     H2       HT       0.417000       1.00800           0
     47066 TIP3     12384    TIP3     OH2      OT      -0.834000       15.9994           0
     47067 TIP3     12384    TIP3     H1       HT       0.417000       1.00800           0
     47068 TIP3     12384    TIP3     H2       HT       0.417000       1.00800           0
     47069 TIP3     12385    TIP3     OH2      OT      -0.834000       15.9994           0
     47070 TIP3     12385    TIP3     H1       HT       0.417000       1.00800           0
     47071 TIP3     12385    TIP3     H2       HT       0.417000       1.00800           0
     47072 TIP3     12386    TIP3     OH2      OT      -0.834000       15.9994           0
     47073 TIP3     12386    TIP3     H1       HT       0.417000       1.00800           0
     47074 TIP3     12386    TIP3     H2       HT       0.417000       1.00800           0
     47075 TIP3     12387    TIP3     OH2      OT      -0.834000       15.9994           0
     47076 TIP3     12387    TIP3     H1       HT       0.417000       1.00800           0
     47077 TIP3     12387    TIP3     H2       HT       0.417000       1.00800           0
     47078 TIP3     12388    TIP3     OH2      OT      -0.834000       15.9994           0
     47079 TIP3     12388    TIP3     H1       HT       0.417000       1.00800           0
     47080 TIP3     12388    TIP3     H2       HT       0.417000       1.00800           0
     47081 TIP3     12389    TIP3     OH2      OT      -0.834000       15.9994           0
     47082 TIP3     12389    TIP3     H1       HT       0.417000       1.00800           0
     47083 TIP3     12389    TIP3     H2       HT       0.417000       1.00800           0
     47084 TIP3     12390    TIP3     OH2      OT      -0.834000       15.9994           0
     47085 TIP3     12390    TIP3     H1       HT       0.417000       1.00800           0
     47086 TIP3     12390    TIP3     H2       HT       0.417000       1.00800           0
     47087 TIP3     12391    TIP3     OH2      OT      -0.834000       15.9994           0
     47088 TIP3     12391    TIP3     H1       HT       0.417000       1.00800           0
     47089 TIP3     12391    TIP3     H2       HT       0.417000       1.00800           0
     47090 TIP3     12392    TIP3     OH2      OT      -0.834000       15.9994           0
     47091 TIP3     12392    TIP3     H1       HT       0.417000       1.00800           0
     47092 TIP3     12392    TIP3     H2       HT       0.417000       1.00800           0
     47093 TIP3     12393    TIP3     OH2      OT      -0.834000       15.9994           0
     47094 TIP3     12393    TIP3     H1       HT       0.417000       1.00800           0
     47095 TIP3     12393    TIP3     H2       HT       0.417000       1.00800           0
     47096 TIP3     12394    TIP3     OH2      OT      -0.834000       15.9994           0
     47097 TIP3     12394    TIP3     H1       HT       0.417000       1.00800           0
     47098 TIP3     12394    TIP3     H2       HT       0.417000       1.00800           0
     47099 TIP3     12395    TIP3     OH2      OT      -0.834000       15.9994           0
     47100 TIP3     12395    TIP3     H1       HT       0.417000       1.00800           0
     47101 TIP3     12395    TIP3     H2       HT       0.417000       1.00800           0
     47102 TIP3     12396    TIP3     OH2      OT      -0.834000       15.9994           0
     47103 TIP3     12396    TIP3     H1       HT       0.417000       1.00800           0
     47104 TIP3     12396    TIP3     H2       HT       0.417000       1.00800           0
     47105 TIP3     12397    TIP3     OH2      OT      -0.834000       15.9994           0
     47106 TIP3     12397    TIP3     H1       HT       0.417000       1.00800           0
     47107 TIP3     12397    TIP3     H2       HT       0.417000       1.00800           0
     47108 TIP3     12398    TIP3     OH2      OT      -0.834000       15.9994           0
     47109 TIP3     12398    TIP3     H1       HT       0.417000       1.00800           0
     47110 TIP3     12398    TIP3     H2       HT       0.417000       1.00800           0
     47111 TIP3     12399    TIP3     OH2      OT      -0.834000       15.9994           0
     47112 TIP3     12399    TIP3     H1       HT       0.417000       1.00800           0
     47113 TIP3     12399    TIP3     H2       HT       0.417000       1.00800           0
     47114 TIP3     12400    TIP3     OH2      OT      -0.834000       15.9994           0
     47115 TIP3     12400    TIP3     H1       HT       0.417000       1.00800           0
     47116 TIP3     12400    TIP3     H2       HT       0.417000       1.00800           0
     47117 TIP3     12401    TIP3     OH2      OT      -0.834000       15.9994           0
     47118 TIP3     12401    TIP3     H1       HT       0.417000       1.00800           0
     47119 TIP3     12401    TIP3     H2       HT       0.417000       1.00800           0
     47120 TIP3     12402    TIP3     OH2      OT      -0.834000       15.9994           0
     47121 TIP3     12402    TIP3     H1       HT       0.417000       1.00800           0
     47122 TIP3     12402    TIP3     H2       HT       0.417000       1.00800           0
     47123 TIP3     12403    TIP3     OH2      OT      -0.834000       15.9994           0
     47124 TIP3     12403    TIP3     H1       HT       0.417000       1.00800           0
     47125 TIP3     12403    TIP3     H2       HT       0.417000       1.00800           0
     47126 TIP3     12404    TIP3     OH2      OT      -0.834000       15.9994           0
     47127 TIP3     12404    TIP3     H1       HT       0.417000       1.00800           0
     47128 TIP3     12404    TIP3     H2       HT       0.417000       1.00800           0
     47129 TIP3     12405    TIP3     OH2      OT      -0.834000       15.9994           0
     47130 TIP3     12405    TIP3     H1       HT       0.417000       1.00800           0
     47131 TIP3     12405    TIP3     H2       HT       0.417000       1.00800           0
     47132 TIP3     12406    TIP3     OH2      OT      -0.834000       15.9994           0
     47133 TIP3     12406    TIP3     H1       HT       0.417000       1.00800           0
     47134 TIP3     12406    TIP3     H2       HT       0.417000       1.00800           0
     47135 TIP3     12407    TIP3     OH2      OT      -0.834000       15.9994           0
     47136 TIP3     12407    TIP3     H1       HT       0.417000       1.00800           0
     47137 TIP3     12407    TIP3     H2       HT       0.417000       1.00800           0
     47138 TIP3     12408    TIP3     OH2      OT      -0.834000       15.9994           0
     47139 TIP3     12408    TIP3     H1       HT       0.417000       1.00800           0
     47140 TIP3     12408    TIP3     H2       HT       0.417000       1.00800           0
     47141 TIP3     12409    TIP3     OH2      OT      -0.834000       15.9994           0
     47142 TIP3     12409    TIP3     H1       HT       0.417000       1.00800           0
     47143 TIP3     12409    TIP3     H2       HT       0.417000       1.00800           0
     47144 TIP3     12410    TIP3     OH2      OT      -0.834000       15.9994           0
     47145 TIP3     12410    TIP3     H1       HT       0.417000       1.00800           0
     47146 TIP3     12410    TIP3     H2       HT       0.417000       1.00800           0
     47147 TIP3     12411    TIP3     OH2      OT      -0.834000       15.9994           0
     47148 TIP3     12411    TIP3     H1       HT       0.417000       1.00800           0
     47149 TIP3     12411    TIP3     H2       HT       0.417000       1.00800           0
     47150 TIP3     12412    TIP3     OH2      OT      -0.834000       15.9994           0
     47151 TIP3     12412    TIP3     H1       HT       0.417000       1.00800           0
     47152 TIP3     12412    TIP3     H2       HT       0.417000       1.00800           0
     47153 TIP3     12413    TIP3     OH2      OT      -0.834000       15.9994           0
     47154 TIP3     12413    TIP3     H1       HT       0.417000       1.00800           0
     47155 TIP3     12413    TIP3     H2       HT       0.417000       1.00800           0
     47156 TIP3     12414    TIP3     OH2      OT      -0.834000       15.9994           0
     47157 TIP3     12414    TIP3     H1       HT       0.417000       1.00800           0
     47158 TIP3     12414    TIP3     H2       HT       0.417000       1.00800           0
     47159 TIP3     12415    TIP3     OH2      OT      -0.834000       15.9994           0
     47160 TIP3     12415    TIP3     H1       HT       0.417000       1.00800           0
     47161 TIP3     12415    TIP3     H2       HT       0.417000       1.00800           0
     47162 TIP3     12416    TIP3     OH2      OT      -0.834000       15.9994           0
     47163 TIP3     12416    TIP3     H1       HT       0.417000       1.00800           0
     47164 TIP3     12416    TIP3     H2       HT       0.417000       1.00800           0
     47165 TIP3     12417    TIP3     OH2      OT      -0.834000       15.9994           0
     47166 TIP3     12417    TIP3     H1       HT       0.417000       1.00800           0
     47167 TIP3     12417    TIP3     H2       HT       0.417000       1.00800           0
     47168 TIP3     12418    TIP3     OH2      OT      -0.834000       15.9994           0
     47169 TIP3     12418    TIP3     H1       HT       0.417000       1.00800           0
     47170 TIP3     12418    TIP3     H2       HT       0.417000       1.00800           0
     47171 TIP3     12419    TIP3     OH2      OT      -0.834000       15.9994           0
     47172 TIP3     12419    TIP3     H1       HT       0.417000       1.00800           0
     47173 TIP3     12419    TIP3     H2       HT       0.417000       1.00800           0
     47174 TIP3     12420    TIP3     OH2      OT      -0.834000       15.9994           0
     47175 TIP3     12420    TIP3     H1       HT       0.417000       1.00800           0
     47176 TIP3     12420    TIP3     H2       HT       0.417000       1.00800           0
     47177 TIP3     12421    TIP3     OH2      OT      -0.834000       15.9994           0
     47178 TIP3     12421    TIP3     H1       HT       0.417000       1.00800           0
     47179 TIP3     12421    TIP3     H2       HT       0.417000       1.00800           0
     47180 TIP3     12422    TIP3     OH2      OT      -0.834000       15.9994           0
     47181 TIP3     12422    TIP3     H1       HT       0.417000       1.00800           0
     47182 TIP3     12422    TIP3     H2       HT       0.417000       1.00800           0
     47183 TIP3     12423    TIP3     OH2      OT      -0.834000       15.9994           0
     47184 TIP3     12423    TIP3     H1       HT       0.417000       1.00800           0
     47185 TIP3     12423    TIP3     H2       HT       0.417000       1.00800           0
     47186 TIP3     12424    TIP3     OH2      OT      -0.834000       15.9994           0
     47187 TIP3     12424    TIP3     H1       HT       0.417000       1.00800           0
     47188 TIP3     12424    TIP3     H2       HT       0.417000       1.00800           0
     47189 TIP3     12425    TIP3     OH2      OT      -0.834000       15.9994           0
     47190 TIP3     12425    TIP3     H1       HT       0.417000       1.00800           0
     47191 TIP3     12425    TIP3     H2       HT       0.417000       1.00800           0
     47192 TIP3     12426    TIP3     OH2      OT      -0.834000       15.9994           0
     47193 TIP3     12426    TIP3     H1       HT       0.417000       1.00800           0
     47194 TIP3     12426    TIP3     H2       HT       0.417000       1.00800           0
     47195 TIP3     12427    TIP3     OH2      OT      -0.834000       15.9994           0
     47196 TIP3     12427    TIP3     H1       HT       0.417000       1.00800           0
     47197 TIP3     12427    TIP3     H2       HT       0.417000       1.00800           0
     47198 TIP3     12428    TIP3     OH2      OT      -0.834000       15.9994           0
     47199 TIP3     12428    TIP3     H1       HT       0.417000       1.00800           0
     47200 TIP3     12428    TIP3     H2       HT       0.417000       1.00800           0
     47201 TIP3     12429    TIP3     OH2      OT      -0.834000       15.9994           0
     47202 TIP3     12429    TIP3     H1       HT       0.417000       1.00800           0
     47203 TIP3     12429    TIP3     H2       HT       0.417000       1.00800           0
     47204 TIP3     12430    TIP3     OH2      OT      -0.834000       15.9994           0
     47205 TIP3     12430    TIP3     H1       HT       0.417000       1.00800           0
     47206 TIP3     12430    TIP3     H2       HT       0.417000       1.00800           0
     47207 TIP3     12431    TIP3     OH2      OT      -0.834000       15.9994           0
     47208 TIP3     12431    TIP3     H1       HT       0.417000       1.00800           0
     47209 TIP3     12431    TIP3     H2       HT       0.417000       1.00800           0
     47210 TIP3     12432    TIP3     OH2      OT      -0.834000       15.9994           0
     47211 TIP3     12432    TIP3     H1       HT       0.417000       1.00800           0
     47212 TIP3     12432    TIP3     H2       HT       0.417000       1.00800           0
     47213 TIP3     12433    TIP3     OH2      OT      -0.834000       15.9994           0
     47214 TIP3     12433    TIP3     H1       HT       0.417000       1.00800           0
     47215 TIP3     12433    TIP3     H2       HT       0.417000       1.00800           0
     47216 TIP3     12434    TIP3     OH2      OT      -0.834000       15.9994           0
     47217 TIP3     12434    TIP3     H1       HT       0.417000       1.00800           0
     47218 TIP3     12434    TIP3     H2       HT       0.417000       1.00800           0
     47219 TIP3     12435    TIP3     OH2      OT      -0.834000       15.9994           0
     47220 TIP3     12435    TIP3     H1       HT       0.417000       1.00800           0
     47221 TIP3     12435    TIP3     H2       HT       0.417000       1.00800           0
     47222 TIP3     12436    TIP3     OH2      OT      -0.834000       15.9994           0
     47223 TIP3     12436    TIP3     H1       HT       0.417000       1.00800           0
     47224 TIP3     12436    TIP3     H2       HT       0.417000       1.00800           0
     47225 TIP3     12437    TIP3     OH2      OT      -0.834000       15.9994           0
     47226 TIP3     12437    TIP3     H1       HT       0.417000       1.00800           0
     47227 TIP3     12437    TIP3     H2       HT       0.417000       1.00800           0
     47228 TIP3     12438    TIP3     OH2      OT      -0.834000       15.9994           0
     47229 TIP3     12438    TIP3     H1       HT       0.417000       1.00800           0
     47230 TIP3     12438    TIP3     H2       HT       0.417000       1.00800           0
     47231 TIP3     12439    TIP3     OH2      OT      -0.834000       15.9994           0
     47232 TIP3     12439    TIP3     H1       HT       0.417000       1.00800           0
     47233 TIP3     12439    TIP3     H2       HT       0.417000       1.00800           0
     47234 TIP3     12440    TIP3     OH2      OT      -0.834000       15.9994           0
     47235 TIP3     12440    TIP3     H1       HT       0.417000       1.00800           0
     47236 TIP3     12440    TIP3     H2       HT       0.417000       1.00800           0
     47237 TIP3     12441    TIP3     OH2      OT      -0.834000       15.9994           0
     47238 TIP3     12441    TIP3     H1       HT       0.417000       1.00800           0
     47239 TIP3     12441    TIP3     H2       HT       0.417000       1.00800           0
     47240 TIP3     12442    TIP3     OH2      OT      -0.834000       15.9994           0
     47241 TIP3     12442    TIP3     H1       HT       0.417000       1.00800           0
     47242 TIP3     12442    TIP3     H2       HT       0.417000       1.00800           0
     47243 TIP3     12443    TIP3     OH2      OT      -0.834000       15.9994           0
     47244 TIP3     12443    TIP3     H1       HT       0.417000       1.00800           0
     47245 TIP3     12443    TIP3     H2       HT       0.417000       1.00800           0
     47246 TIP3     12444    TIP3     OH2      OT      -0.834000       15.9994           0
     47247 TIP3     12444    TIP3     H1       HT       0.417000       1.00800           0
     47248 TIP3     12444    TIP3     H2       HT       0.417000       1.00800           0
     47249 TIP3     12445    TIP3     OH2      OT      -0.834000       15.9994           0
     47250 TIP3     12445    TIP3     H1       HT       0.417000       1.00800           0
     47251 TIP3     12445    TIP3     H2       HT       0.417000       1.00800           0
     47252 TIP3     12446    TIP3     OH2      OT      -0.834000       15.9994           0
     47253 TIP3     12446    TIP3     H1       HT       0.417000       1.00800           0
     47254 TIP3     12446    TIP3     H2       HT       0.417000       1.00800           0
     47255 TIP3     12447    TIP3     OH2      OT      -0.834000       15.9994           0
     47256 TIP3     12447    TIP3     H1       HT       0.417000       1.00800           0
     47257 TIP3     12447    TIP3     H2       HT       0.417000       1.00800           0
     47258 TIP3     12448    TIP3     OH2      OT      -0.834000       15.9994           0
     47259 TIP3     12448    TIP3     H1       HT       0.417000       1.00800           0
     47260 TIP3     12448    TIP3     H2       HT       0.417000       1.00800           0
     47261 TIP3     12449    TIP3     OH2      OT      -0.834000       15.9994           0
     47262 TIP3     12449    TIP3     H1       HT       0.417000       1.00800           0
     47263 TIP3     12449    TIP3     H2       HT       0.417000       1.00800           0
     47264 TIP3     12450    TIP3     OH2      OT      -0.834000       15.9994           0
     47265 TIP3     12450    TIP3     H1       HT       0.417000       1.00800           0
     47266 TIP3     12450    TIP3     H2       HT       0.417000       1.00800           0
     47267 TIP3     12451    TIP3     OH2      OT      -0.834000       15.9994           0
     47268 TIP3     12451    TIP3     H1       HT       0.417000       1.00800           0
     47269 TIP3     12451    TIP3     H2       HT       0.417000       1.00800           0
     47270 TIP3     12452    TIP3     OH2      OT      -0.834000       15.9994           0
     47271 TIP3     12452    TIP3     H1       HT       0.417000       1.00800           0
     47272 TIP3     12452    TIP3     H2       HT       0.417000       1.00800           0
     47273 TIP3     12453    TIP3     OH2      OT      -0.834000       15.9994           0
     47274 TIP3     12453    TIP3     H1       HT       0.417000       1.00800           0
     47275 TIP3     12453    TIP3     H2       HT       0.417000       1.00800           0
     47276 TIP3     12454    TIP3     OH2      OT      -0.834000       15.9994           0
     47277 TIP3     12454    TIP3     H1       HT       0.417000       1.00800           0
     47278 TIP3     12454    TIP3     H2       HT       0.417000       1.00800           0
     47279 TIP3     12455    TIP3     OH2      OT      -0.834000       15.9994           0
     47280 TIP3     12455    TIP3     H1       HT       0.417000       1.00800           0
     47281 TIP3     12455    TIP3     H2       HT       0.417000       1.00800           0
     47282 TIP3     12456    TIP3     OH2      OT      -0.834000       15.9994           0
     47283 TIP3     12456    TIP3     H1       HT       0.417000       1.00800           0
     47284 TIP3     12456    TIP3     H2       HT       0.417000       1.00800           0
     47285 TIP3     12457    TIP3     OH2      OT      -0.834000       15.9994           0
     47286 TIP3     12457    TIP3     H1       HT       0.417000       1.00800           0
     47287 TIP3     12457    TIP3     H2       HT       0.417000       1.00800           0
     47288 TIP3     12458    TIP3     OH2      OT      -0.834000       15.9994           0
     47289 TIP3     12458    TIP3     H1       HT       0.417000       1.00800           0
     47290 TIP3     12458    TIP3     H2       HT       0.417000       1.00800           0
     47291 TIP3     12459    TIP3     OH2      OT      -0.834000       15.9994           0
     47292 TIP3     12459    TIP3     H1       HT       0.417000       1.00800           0
     47293 TIP3     12459    TIP3     H2       HT       0.417000       1.00800           0
     47294 TIP3     12460    TIP3     OH2      OT      -0.834000       15.9994           0
     47295 TIP3     12460    TIP3     H1       HT       0.417000       1.00800           0
     47296 TIP3     12460    TIP3     H2       HT       0.417000       1.00800           0
     47297 TIP3     12461    TIP3     OH2      OT      -0.834000       15.9994           0
     47298 TIP3     12461    TIP3     H1       HT       0.417000       1.00800           0
     47299 TIP3     12461    TIP3     H2       HT       0.417000       1.00800           0
     47300 TIP3     12462    TIP3     OH2      OT      -0.834000       15.9994           0
     47301 TIP3     12462    TIP3     H1       HT       0.417000       1.00800           0
     47302 TIP3     12462    TIP3     H2       HT       0.417000       1.00800           0
     47303 TIP3     12463    TIP3     OH2      OT      -0.834000       15.9994           0
     47304 TIP3     12463    TIP3     H1       HT       0.417000       1.00800           0
     47305 TIP3     12463    TIP3     H2       HT       0.417000       1.00800           0
     47306 TIP3     12464    TIP3     OH2      OT      -0.834000       15.9994           0
     47307 TIP3     12464    TIP3     H1       HT       0.417000       1.00800           0
     47308 TIP3     12464    TIP3     H2       HT       0.417000       1.00800           0
     47309 TIP3     12465    TIP3     OH2      OT      -0.834000       15.9994           0
     47310 TIP3     12465    TIP3     H1       HT       0.417000       1.00800           0
     47311 TIP3     12465    TIP3     H2       HT       0.417000       1.00800           0
     47312 TIP3     12466    TIP3     OH2      OT      -0.834000       15.9994           0
     47313 TIP3     12466    TIP3     H1       HT       0.417000       1.00800           0
     47314 TIP3     12466    TIP3     H2       HT       0.417000       1.00800           0
     47315 TIP3     12467    TIP3     OH2      OT      -0.834000       15.9994           0
     47316 TIP3     12467    TIP3     H1       HT       0.417000       1.00800           0
     47317 TIP3     12467    TIP3     H2       HT       0.417000       1.00800           0
     47318 TIP3     12468    TIP3     OH2      OT      -0.834000       15.9994           0
     47319 TIP3     12468    TIP3     H1       HT       0.417000       1.00800           0
     47320 TIP3     12468    TIP3     H2       HT       0.417000       1.00800           0
     47321 TIP3     12469    TIP3     OH2      OT      -0.834000       15.9994           0
     47322 TIP3     12469    TIP3     H1       HT       0.417000       1.00800           0
     47323 TIP3     12469    TIP3     H2       HT       0.417000       1.00800           0
     47324 TIP3     12470    TIP3     OH2      OT      -0.834000       15.9994           0
     47325 TIP3     12470    TIP3     H1       HT       0.417000       1.00800           0
     47326 TIP3     12470    TIP3     H2       HT       0.417000       1.00800           0
     47327 TIP3     12471    TIP3     OH2      OT      -0.834000       15.9994           0
     47328 TIP3     12471    TIP3     H1       HT       0.417000       1.00800           0
     47329 TIP3     12471    TIP3     H2       HT       0.417000       1.00800           0
     47330 TIP3     12472    TIP3     OH2      OT      -0.834000       15.9994           0
     47331 TIP3     12472    TIP3     H1       HT       0.417000       1.00800           0
     47332 TIP3     12472    TIP3     H2       HT       0.417000       1.00800           0
     47333 TIP3     12473    TIP3     OH2      OT      -0.834000       15.9994           0
     47334 TIP3     12473    TIP3     H1       HT       0.417000       1.00800           0
     47335 TIP3     12473    TIP3     H2       HT       0.417000       1.00800           0
     47336 TIP3     12474    TIP3     OH2      OT      -0.834000       15.9994           0
     47337 TIP3     12474    TIP3     H1       HT       0.417000       1.00800           0
     47338 TIP3     12474    TIP3     H2       HT       0.417000       1.00800           0
     47339 TIP3     12475    TIP3     OH2      OT      -0.834000       15.9994           0
     47340 TIP3     12475    TIP3     H1       HT       0.417000       1.00800           0
     47341 TIP3     12475    TIP3     H2       HT       0.417000       1.00800           0
     47342 TIP3     12476    TIP3     OH2      OT      -0.834000       15.9994           0
     47343 TIP3     12476    TIP3     H1       HT       0.417000       1.00800           0
     47344 TIP3     12476    TIP3     H2       HT       0.417000       1.00800           0
     47345 TIP3     12477    TIP3     OH2      OT      -0.834000       15.9994           0
     47346 TIP3     12477    TIP3     H1       HT       0.417000       1.00800           0
     47347 TIP3     12477    TIP3     H2       HT       0.417000       1.00800           0
     47348 TIP3     12478    TIP3     OH2      OT      -0.834000       15.9994           0
     47349 TIP3     12478    TIP3     H1       HT       0.417000       1.00800           0
     47350 TIP3     12478    TIP3     H2       HT       0.417000       1.00800           0
     47351 TIP3     12479    TIP3     OH2      OT      -0.834000       15.9994           0
     47352 TIP3     12479    TIP3     H1       HT       0.417000       1.00800           0
     47353 TIP3     12479    TIP3     H2       HT       0.417000       1.00800           0
     47354 TIP3     12480    TIP3     OH2      OT      -0.834000       15.9994           0
     47355 TIP3     12480    TIP3     H1       HT       0.417000       1.00800           0
     47356 TIP3     12480    TIP3     H2       HT       0.417000       1.00800           0
     47357 TIP3     12481    TIP3     OH2      OT      -0.834000       15.9994           0
     47358 TIP3     12481    TIP3     H1       HT       0.417000       1.00800           0
     47359 TIP3     12481    TIP3     H2       HT       0.417000       1.00800           0
     47360 TIP3     12482    TIP3     OH2      OT      -0.834000       15.9994           0
     47361 TIP3     12482    TIP3     H1       HT       0.417000       1.00800           0
     47362 TIP3     12482    TIP3     H2       HT       0.417000       1.00800           0
     47363 TIP3     12483    TIP3     OH2      OT      -0.834000       15.9994           0
     47364 TIP3     12483    TIP3     H1       HT       0.417000       1.00800           0
     47365 TIP3     12483    TIP3     H2       HT       0.417000       1.00800           0
     47366 TIP3     12484    TIP3     OH2      OT      -0.834000       15.9994           0
     47367 TIP3     12484    TIP3     H1       HT       0.417000       1.00800           0
     47368 TIP3     12484    TIP3     H2       HT       0.417000       1.00800           0
     47369 TIP3     12485    TIP3     OH2      OT      -0.834000       15.9994           0
     47370 TIP3     12485    TIP3     H1       HT       0.417000       1.00800           0
     47371 TIP3     12485    TIP3     H2       HT       0.417000       1.00800           0
     47372 TIP3     12486    TIP3     OH2      OT      -0.834000       15.9994           0
     47373 TIP3     12486    TIP3     H1       HT       0.417000       1.00800           0
     47374 TIP3     12486    TIP3     H2       HT       0.417000       1.00800           0
     47375 TIP3     12487    TIP3     OH2      OT      -0.834000       15.9994           0
     47376 TIP3     12487    TIP3     H1       HT       0.417000       1.00800           0
     47377 TIP3     12487    TIP3     H2       HT       0.417000       1.00800           0
     47378 TIP3     12488    TIP3     OH2      OT      -0.834000       15.9994           0
     47379 TIP3     12488    TIP3     H1       HT       0.417000       1.00800           0
     47380 TIP3     12488    TIP3     H2       HT       0.417000       1.00800           0
     47381 TIP3     12489    TIP3     OH2      OT      -0.834000       15.9994           0
     47382 TIP3     12489    TIP3     H1       HT       0.417000       1.00800           0
     47383 TIP3     12489    TIP3     H2       HT       0.417000       1.00800           0
     47384 TIP3     12490    TIP3     OH2      OT      -0.834000       15.9994           0
     47385 TIP3     12490    TIP3     H1       HT       0.417000       1.00800           0
     47386 TIP3     12490    TIP3     H2       HT       0.417000       1.00800           0
     47387 TIP3     12491    TIP3     OH2      OT      -0.834000       15.9994           0
     47388 TIP3     12491    TIP3     H1       HT       0.417000       1.00800           0
     47389 TIP3     12491    TIP3     H2       HT       0.417000       1.00800           0
     47390 TIP3     12492    TIP3     OH2      OT      -0.834000       15.9994           0
     47391 TIP3     12492    TIP3     H1       HT       0.417000       1.00800           0
     47392 TIP3     12492    TIP3     H2       HT       0.417000       1.00800           0
     47393 TIP3     12493    TIP3     OH2      OT      -0.834000       15.9994           0
     47394 TIP3     12493    TIP3     H1       HT       0.417000       1.00800           0
     47395 TIP3     12493    TIP3     H2       HT       0.417000       1.00800           0
     47396 TIP3     12494    TIP3     OH2      OT      -0.834000       15.9994           0
     47397 TIP3     12494    TIP3     H1       HT       0.417000       1.00800           0
     47398 TIP3     12494    TIP3     H2       HT       0.417000       1.00800           0
     47399 TIP3     12495    TIP3     OH2      OT      -0.834000       15.9994           0
     47400 TIP3     12495    TIP3     H1       HT       0.417000       1.00800           0
     47401 TIP3     12495    TIP3     H2       HT       0.417000       1.00800           0
     47402 TIP3     12496    TIP3     OH2      OT      -0.834000       15.9994           0
     47403 TIP3     12496    TIP3     H1       HT       0.417000       1.00800           0
     47404 TIP3     12496    TIP3     H2       HT       0.417000       1.00800           0
     47405 TIP3     12497    TIP3     OH2      OT      -0.834000       15.9994           0
     47406 TIP3     12497    TIP3     H1       HT       0.417000       1.00800           0
     47407 TIP3     12497    TIP3     H2       HT       0.417000       1.00800           0
     47408 TIP3     12498    TIP3     OH2      OT      -0.834000       15.9994           0
     47409 TIP3     12498    TIP3     H1       HT       0.417000       1.00800           0
     47410 TIP3     12498    TIP3     H2       HT       0.417000       1.00800           0
     47411 TIP3     12499    TIP3     OH2      OT      -0.834000       15.9994           0
     47412 TIP3     12499    TIP3     H1       HT       0.417000       1.00800           0
     47413 TIP3     12499    TIP3     H2       HT       0.417000       1.00800           0
     47414 TIP3     12500    TIP3     OH2      OT      -0.834000       15.9994           0
     47415 TIP3     12500    TIP3     H1       HT       0.417000       1.00800           0
     47416 TIP3     12500    TIP3     H2       HT       0.417000       1.00800           0
     47417 TIP3     12501    TIP3     OH2      OT      -0.834000       15.9994           0
     47418 TIP3     12501    TIP3     H1       HT       0.417000       1.00800           0
     47419 TIP3     12501    TIP3     H2       HT       0.417000       1.00800           0
     47420 TIP3     12502    TIP3     OH2      OT      -0.834000       15.9994           0
     47421 TIP3     12502    TIP3     H1       HT       0.417000       1.00800           0
     47422 TIP3     12502    TIP3     H2       HT       0.417000       1.00800           0
     47423 TIP3     12503    TIP3     OH2      OT      -0.834000       15.9994           0
     47424 TIP3     12503    TIP3     H1       HT       0.417000       1.00800           0
     47425 TIP3     12503    TIP3     H2       HT       0.417000       1.00800           0
     47426 TIP3     12504    TIP3     OH2      OT      -0.834000       15.9994           0
     47427 TIP3     12504    TIP3     H1       HT       0.417000       1.00800           0
     47428 TIP3     12504    TIP3     H2       HT       0.417000       1.00800           0
     47429 TIP3     12505    TIP3     OH2      OT      -0.834000       15.9994           0
     47430 TIP3     12505    TIP3     H1       HT       0.417000       1.00800           0
     47431 TIP3     12505    TIP3     H2       HT       0.417000       1.00800           0
     47432 TIP3     12506    TIP3     OH2      OT      -0.834000       15.9994           0
     47433 TIP3     12506    TIP3     H1       HT       0.417000       1.00800           0
     47434 TIP3     12506    TIP3     H2       HT       0.417000       1.00800           0
     47435 TIP3     12507    TIP3     OH2      OT      -0.834000       15.9994           0
     47436 TIP3     12507    TIP3     H1       HT       0.417000       1.00800           0
     47437 TIP3     12507    TIP3     H2       HT       0.417000       1.00800           0
     47438 TIP3     12508    TIP3     OH2      OT      -0.834000       15.9994           0
     47439 TIP3     12508    TIP3     H1       HT       0.417000       1.00800           0
     47440 TIP3     12508    TIP3     H2       HT       0.417000       1.00800           0
     47441 TIP3     12509    TIP3     OH2      OT      -0.834000       15.9994           0
     47442 TIP3     12509    TIP3     H1       HT       0.417000       1.00800           0
     47443 TIP3     12509    TIP3     H2       HT       0.417000       1.00800           0
     47444 TIP3     12510    TIP3     OH2      OT      -0.834000       15.9994           0
     47445 TIP3     12510    TIP3     H1       HT       0.417000       1.00800           0
     47446 TIP3     12510    TIP3     H2       HT       0.417000       1.00800           0
     47447 TIP3     12511    TIP3     OH2      OT      -0.834000       15.9994           0
     47448 TIP3     12511    TIP3     H1       HT       0.417000       1.00800           0
     47449 TIP3     12511    TIP3     H2       HT       0.417000       1.00800           0
     47450 TIP3     12512    TIP3     OH2      OT      -0.834000       15.9994           0
     47451 TIP3     12512    TIP3     H1       HT       0.417000       1.00800           0
     47452 TIP3     12512    TIP3     H2       HT       0.417000       1.00800           0
     47453 TIP3     12513    TIP3     OH2      OT      -0.834000       15.9994           0
     47454 TIP3     12513    TIP3     H1       HT       0.417000       1.00800           0
     47455 TIP3     12513    TIP3     H2       HT       0.417000       1.00800           0
     47456 TIP3     12514    TIP3     OH2      OT      -0.834000       15.9994           0
     47457 TIP3     12514    TIP3     H1       HT       0.417000       1.00800           0
     47458 TIP3     12514    TIP3     H2       HT       0.417000       1.00800           0
     47459 TIP3     12515    TIP3     OH2      OT      -0.834000       15.9994           0
     47460 TIP3     12515    TIP3     H1       HT       0.417000       1.00800           0
     47461 TIP3     12515    TIP3     H2       HT       0.417000       1.00800           0
     47462 TIP3     12516    TIP3     OH2      OT      -0.834000       15.9994           0
     47463 TIP3     12516    TIP3     H1       HT       0.417000       1.00800           0
     47464 TIP3     12516    TIP3     H2       HT       0.417000       1.00800           0
     47465 TIP3     12517    TIP3     OH2      OT      -0.834000       15.9994           0
     47466 TIP3     12517    TIP3     H1       HT       0.417000       1.00800           0
     47467 TIP3     12517    TIP3     H2       HT       0.417000       1.00800           0
     47468 TIP3     12518    TIP3     OH2      OT      -0.834000       15.9994           0
     47469 TIP3     12518    TIP3     H1       HT       0.417000       1.00800           0
     47470 TIP3     12518    TIP3     H2       HT       0.417000       1.00800           0
     47471 TIP3     12519    TIP3     OH2      OT      -0.834000       15.9994           0
     47472 TIP3     12519    TIP3     H1       HT       0.417000       1.00800           0
     47473 TIP3     12519    TIP3     H2       HT       0.417000       1.00800           0
     47474 TIP3     12520    TIP3     OH2      OT      -0.834000       15.9994           0
     47475 TIP3     12520    TIP3     H1       HT       0.417000       1.00800           0
     47476 TIP3     12520    TIP3     H2       HT       0.417000       1.00800           0
     47477 TIP3     12521    TIP3     OH2      OT      -0.834000       15.9994           0
     47478 TIP3     12521    TIP3     H1       HT       0.417000       1.00800           0
     47479 TIP3     12521    TIP3     H2       HT       0.417000       1.00800           0
     47480 TIP3     12522    TIP3     OH2      OT      -0.834000       15.9994           0
     47481 TIP3     12522    TIP3     H1       HT       0.417000       1.00800           0
     47482 TIP3     12522    TIP3     H2       HT       0.417000       1.00800           0
     47483 TIP3     12523    TIP3     OH2      OT      -0.834000       15.9994           0
     47484 TIP3     12523    TIP3     H1       HT       0.417000       1.00800           0
     47485 TIP3     12523    TIP3     H2       HT       0.417000       1.00800           0
     47486 TIP3     12524    TIP3     OH2      OT      -0.834000       15.9994           0
     47487 TIP3     12524    TIP3     H1       HT       0.417000       1.00800           0
     47488 TIP3     12524    TIP3     H2       HT       0.417000       1.00800           0
     47489 TIP3     12525    TIP3     OH2      OT      -0.834000       15.9994           0
     47490 TIP3     12525    TIP3     H1       HT       0.417000       1.00800           0
     47491 TIP3     12525    TIP3     H2       HT       0.417000       1.00800           0
     47492 TIP3     12526    TIP3     OH2      OT      -0.834000       15.9994           0
     47493 TIP3     12526    TIP3     H1       HT       0.417000       1.00800           0
     47494 TIP3     12526    TIP3     H2       HT       0.417000       1.00800           0
     47495 TIP3     12527    TIP3     OH2      OT      -0.834000       15.9994           0
     47496 TIP3     12527    TIP3     H1       HT       0.417000       1.00800           0
     47497 TIP3     12527    TIP3     H2       HT       0.417000       1.00800           0
     47498 TIP3     12528    TIP3     OH2      OT      -0.834000       15.9994           0
     47499 TIP3     12528    TIP3     H1       HT       0.417000       1.00800           0
     47500 TIP3     12528    TIP3     H2       HT       0.417000       1.00800           0
     47501 TIP3     12529    TIP3     OH2      OT      -0.834000       15.9994           0
     47502 TIP3     12529    TIP3     H1       HT       0.417000       1.00800           0
     47503 TIP3     12529    TIP3     H2       HT       0.417000       1.00800           0
     47504 TIP3     12530    TIP3     OH2      OT      -0.834000       15.9994           0
     47505 TIP3     12530    TIP3     H1       HT       0.417000       1.00800           0
     47506 TIP3     12530    TIP3     H2       HT       0.417000       1.00800           0
     47507 TIP3     12531    TIP3     OH2      OT      -0.834000       15.9994           0
     47508 TIP3     12531    TIP3     H1       HT       0.417000       1.00800           0
     47509 TIP3     12531    TIP3     H2       HT       0.417000       1.00800           0
     47510 TIP3     12532    TIP3     OH2      OT      -0.834000       15.9994           0
     47511 TIP3     12532    TIP3     H1       HT       0.417000       1.00800           0
     47512 TIP3     12532    TIP3     H2       HT       0.417000       1.00800           0
     47513 TIP3     12533    TIP3     OH2      OT      -0.834000       15.9994           0
     47514 TIP3     12533    TIP3     H1       HT       0.417000       1.00800           0
     47515 TIP3     12533    TIP3     H2       HT       0.417000       1.00800           0
     47516 TIP3     12534    TIP3     OH2      OT      -0.834000       15.9994           0
     47517 TIP3     12534    TIP3     H1       HT       0.417000       1.00800           0
     47518 TIP3     12534    TIP3     H2       HT       0.417000       1.00800           0
     47519 TIP3     12535    TIP3     OH2      OT      -0.834000       15.9994           0
     47520 TIP3     12535    TIP3     H1       HT       0.417000       1.00800           0
     47521 TIP3     12535    TIP3     H2       HT       0.417000       1.00800           0
     47522 TIP3     12536    TIP3     OH2      OT      -0.834000       15.9994           0
     47523 TIP3     12536    TIP3     H1       HT       0.417000       1.00800           0
     47524 TIP3     12536    TIP3     H2       HT       0.417000       1.00800           0
     47525 TIP3     12537    TIP3     OH2      OT      -0.834000       15.9994           0
     47526 TIP3     12537    TIP3     H1       HT       0.417000       1.00800           0
     47527 TIP3     12537    TIP3     H2       HT       0.417000       1.00800           0
     47528 TIP3     12538    TIP3     OH2      OT      -0.834000       15.9994           0
     47529 TIP3     12538    TIP3     H1       HT       0.417000       1.00800           0
     47530 TIP3     12538    TIP3     H2       HT       0.417000       1.00800           0
     47531 TIP3     12539    TIP3     OH2      OT      -0.834000       15.9994           0
     47532 TIP3     12539    TIP3     H1       HT       0.417000       1.00800           0
     47533 TIP3     12539    TIP3     H2       HT       0.417000       1.00800           0
     47534 TIP3     12540    TIP3     OH2      OT      -0.834000       15.9994           0
     47535 TIP3     12540    TIP3     H1       HT       0.417000       1.00800           0
     47536 TIP3     12540    TIP3     H2       HT       0.417000       1.00800           0
     47537 TIP3     12541    TIP3     OH2      OT      -0.834000       15.9994           0
     47538 TIP3     12541    TIP3     H1       HT       0.417000       1.00800           0
     47539 TIP3     12541    TIP3     H2       HT       0.417000       1.00800           0
     47540 TIP3     12542    TIP3     OH2      OT      -0.834000       15.9994           0
     47541 TIP3     12542    TIP3     H1       HT       0.417000       1.00800           0
     47542 TIP3     12542    TIP3     H2       HT       0.417000       1.00800           0
     47543 TIP3     12543    TIP3     OH2      OT      -0.834000       15.9994           0
     47544 TIP3     12543    TIP3     H1       HT       0.417000       1.00800           0
     47545 TIP3     12543    TIP3     H2       HT       0.417000       1.00800           0
     47546 TIP3     12544    TIP3     OH2      OT      -0.834000       15.9994           0
     47547 TIP3     12544    TIP3     H1       HT       0.417000       1.00800           0
     47548 TIP3     12544    TIP3     H2       HT       0.417000       1.00800           0
     47549 TIP3     12545    TIP3     OH2      OT      -0.834000       15.9994           0
     47550 TIP3     12545    TIP3     H1       HT       0.417000       1.00800           0
     47551 TIP3     12545    TIP3     H2       HT       0.417000       1.00800           0
     47552 TIP3     12546    TIP3     OH2      OT      -0.834000       15.9994           0
     47553 TIP3     12546    TIP3     H1       HT       0.417000       1.00800           0
     47554 TIP3     12546    TIP3     H2       HT       0.417000       1.00800           0
     47555 TIP3     12547    TIP3     OH2      OT      -0.834000       15.9994           0
     47556 TIP3     12547    TIP3     H1       HT       0.417000       1.00800           0
     47557 TIP3     12547    TIP3     H2       HT       0.417000       1.00800           0
     47558 TIP3     12548    TIP3     OH2      OT      -0.834000       15.9994           0
     47559 TIP3     12548    TIP3     H1       HT       0.417000       1.00800           0
     47560 TIP3     12548    TIP3     H2       HT       0.417000       1.00800           0
     47561 TIP3     12549    TIP3     OH2      OT      -0.834000       15.9994           0
     47562 TIP3     12549    TIP3     H1       HT       0.417000       1.00800           0
     47563 TIP3     12549    TIP3     H2       HT       0.417000       1.00800           0
     47564 TIP3     12550    TIP3     OH2      OT      -0.834000       15.9994           0
     47565 TIP3     12550    TIP3     H1       HT       0.417000       1.00800           0
     47566 TIP3     12550    TIP3     H2       HT       0.417000       1.00800           0
     47567 TIP3     12551    TIP3     OH2      OT      -0.834000       15.9994           0
     47568 TIP3     12551    TIP3     H1       HT       0.417000       1.00800           0
     47569 TIP3     12551    TIP3     H2       HT       0.417000       1.00800           0
     47570 TIP3     12552    TIP3     OH2      OT      -0.834000       15.9994           0
     47571 TIP3     12552    TIP3     H1       HT       0.417000       1.00800           0
     47572 TIP3     12552    TIP3     H2       HT       0.417000       1.00800           0
     47573 TIP3     12553    TIP3     OH2      OT      -0.834000       15.9994           0
     47574 TIP3     12553    TIP3     H1       HT       0.417000       1.00800           0
     47575 TIP3     12553    TIP3     H2       HT       0.417000       1.00800           0
     47576 TIP3     12554    TIP3     OH2      OT      -0.834000       15.9994           0
     47577 TIP3     12554    TIP3     H1       HT       0.417000       1.00800           0
     47578 TIP3     12554    TIP3     H2       HT       0.417000       1.00800           0
     47579 TIP3     12555    TIP3     OH2      OT      -0.834000       15.9994           0
     47580 TIP3     12555    TIP3     H1       HT       0.417000       1.00800           0
     47581 TIP3     12555    TIP3     H2       HT       0.417000       1.00800           0
     47582 TIP3     12556    TIP3     OH2      OT      -0.834000       15.9994           0
     47583 TIP3     12556    TIP3     H1       HT       0.417000       1.00800           0
     47584 TIP3     12556    TIP3     H2       HT       0.417000       1.00800           0
     47585 TIP3     12557    TIP3     OH2      OT      -0.834000       15.9994           0
     47586 TIP3     12557    TIP3     H1       HT       0.417000       1.00800           0
     47587 TIP3     12557    TIP3     H2       HT       0.417000       1.00800           0
     47588 TIP3     12558    TIP3     OH2      OT      -0.834000       15.9994           0
     47589 TIP3     12558    TIP3     H1       HT       0.417000       1.00800           0
     47590 TIP3     12558    TIP3     H2       HT       0.417000       1.00800           0
     47591 TIP3     12559    TIP3     OH2      OT      -0.834000       15.9994           0
     47592 TIP3     12559    TIP3     H1       HT       0.417000       1.00800           0
     47593 TIP3     12559    TIP3     H2       HT       0.417000       1.00800           0
     47594 TIP3     12560    TIP3     OH2      OT      -0.834000       15.9994           0
     47595 TIP3     12560    TIP3     H1       HT       0.417000       1.00800           0
     47596 TIP3     12560    TIP3     H2       HT       0.417000       1.00800           0
     47597 TIP3     12561    TIP3     OH2      OT      -0.834000       15.9994           0
     47598 TIP3     12561    TIP3     H1       HT       0.417000       1.00800           0
     47599 TIP3     12561    TIP3     H2       HT       0.417000       1.00800           0
     47600 TIP3     12562    TIP3     OH2      OT      -0.834000       15.9994           0
     47601 TIP3     12562    TIP3     H1       HT       0.417000       1.00800           0
     47602 TIP3     12562    TIP3     H2       HT       0.417000       1.00800           0
     47603 TIP3     12563    TIP3     OH2      OT      -0.834000       15.9994           0
     47604 TIP3     12563    TIP3     H1       HT       0.417000       1.00800           0
     47605 TIP3     12563    TIP3     H2       HT       0.417000       1.00800           0
     47606 TIP3     12564    TIP3     OH2      OT      -0.834000       15.9994           0
     47607 TIP3     12564    TIP3     H1       HT       0.417000       1.00800           0
     47608 TIP3     12564    TIP3     H2       HT       0.417000       1.00800           0
     47609 TIP3     12565    TIP3     OH2      OT      -0.834000       15.9994           0
     47610 TIP3     12565    TIP3     H1       HT       0.417000       1.00800           0
     47611 TIP3     12565    TIP3     H2       HT       0.417000       1.00800           0
     47612 TIP3     12566    TIP3     OH2      OT      -0.834000       15.9994           0
     47613 TIP3     12566    TIP3     H1       HT       0.417000       1.00800           0
     47614 TIP3     12566    TIP3     H2       HT       0.417000       1.00800           0
     47615 TIP3     12567    TIP3     OH2      OT      -0.834000       15.9994           0
     47616 TIP3     12567    TIP3     H1       HT       0.417000       1.00800           0
     47617 TIP3     12567    TIP3     H2       HT       0.417000       1.00800           0
     47618 TIP3     12568    TIP3     OH2      OT      -0.834000       15.9994           0
     47619 TIP3     12568    TIP3     H1       HT       0.417000       1.00800           0
     47620 TIP3     12568    TIP3     H2       HT       0.417000       1.00800           0
     47621 TIP3     12569    TIP3     OH2      OT      -0.834000       15.9994           0
     47622 TIP3     12569    TIP3     H1       HT       0.417000       1.00800           0
     47623 TIP3     12569    TIP3     H2       HT       0.417000       1.00800           0
     47624 TIP3     12570    TIP3     OH2      OT      -0.834000       15.9994           0
     47625 TIP3     12570    TIP3     H1       HT       0.417000       1.00800           0
     47626 TIP3     12570    TIP3     H2       HT       0.417000       1.00800           0
     47627 TIP3     12571    TIP3     OH2      OT      -0.834000       15.9994           0
     47628 TIP3     12571    TIP3     H1       HT       0.417000       1.00800           0
     47629 TIP3     12571    TIP3     H2       HT       0.417000       1.00800           0
     47630 TIP3     12572    TIP3     OH2      OT      -0.834000       15.9994           0
     47631 TIP3     12572    TIP3     H1       HT       0.417000       1.00800           0
     47632 TIP3     12572    TIP3     H2       HT       0.417000       1.00800           0
     47633 TIP3     12573    TIP3     OH2      OT      -0.834000       15.9994           0
     47634 TIP3     12573    TIP3     H1       HT       0.417000       1.00800           0
     47635 TIP3     12573    TIP3     H2       HT       0.417000       1.00800           0
     47636 TIP3     12574    TIP3     OH2      OT      -0.834000       15.9994           0
     47637 TIP3     12574    TIP3     H1       HT       0.417000       1.00800           0
     47638 TIP3     12574    TIP3     H2       HT       0.417000       1.00800           0
     47639 TIP3     12575    TIP3     OH2      OT      -0.834000       15.9994           0
     47640 TIP3     12575    TIP3     H1       HT       0.417000       1.00800           0
     47641 TIP3     12575    TIP3     H2       HT       0.417000       1.00800           0
     47642 TIP3     12576    TIP3     OH2      OT      -0.834000       15.9994           0
     47643 TIP3     12576    TIP3     H1       HT       0.417000       1.00800           0
     47644 TIP3     12576    TIP3     H2       HT       0.417000       1.00800           0
     47645 TIP3     12577    TIP3     OH2      OT      -0.834000       15.9994           0
     47646 TIP3     12577    TIP3     H1       HT       0.417000       1.00800           0
     47647 TIP3     12577    TIP3     H2       HT       0.417000       1.00800           0
     47648 TIP3     12578    TIP3     OH2      OT      -0.834000       15.9994           0
     47649 TIP3     12578    TIP3     H1       HT       0.417000       1.00800           0
     47650 TIP3     12578    TIP3     H2       HT       0.417000       1.00800           0
     47651 TIP3     12579    TIP3     OH2      OT      -0.834000       15.9994           0
     47652 TIP3     12579    TIP3     H1       HT       0.417000       1.00800           0
     47653 TIP3     12579    TIP3     H2       HT       0.417000       1.00800           0
     47654 TIP3     12580    TIP3     OH2      OT      -0.834000       15.9994           0
     47655 TIP3     12580    TIP3     H1       HT       0.417000       1.00800           0
     47656 TIP3     12580    TIP3     H2       HT       0.417000       1.00800           0
     47657 TIP3     12581    TIP3     OH2      OT      -0.834000       15.9994           0
     47658 TIP3     12581    TIP3     H1       HT       0.417000       1.00800           0
     47659 TIP3     12581    TIP3     H2       HT       0.417000       1.00800           0
     47660 TIP3     12582    TIP3     OH2      OT      -0.834000       15.9994           0
     47661 TIP3     12582    TIP3     H1       HT       0.417000       1.00800           0
     47662 TIP3     12582    TIP3     H2       HT       0.417000       1.00800           0
     47663 TIP3     12583    TIP3     OH2      OT      -0.834000       15.9994           0
     47664 TIP3     12583    TIP3     H1       HT       0.417000       1.00800           0
     47665 TIP3     12583    TIP3     H2       HT       0.417000       1.00800           0
     47666 TIP3     12584    TIP3     OH2      OT      -0.834000       15.9994           0
     47667 TIP3     12584    TIP3     H1       HT       0.417000       1.00800           0
     47668 TIP3     12584    TIP3     H2       HT       0.417000       1.00800           0
     47669 TIP3     12585    TIP3     OH2      OT      -0.834000       15.9994           0
     47670 TIP3     12585    TIP3     H1       HT       0.417000       1.00800           0
     47671 TIP3     12585    TIP3     H2       HT       0.417000       1.00800           0
     47672 TIP3     12586    TIP3     OH2      OT      -0.834000       15.9994           0
     47673 TIP3     12586    TIP3     H1       HT       0.417000       1.00800           0
     47674 TIP3     12586    TIP3     H2       HT       0.417000       1.00800           0
     47675 TIP3     12587    TIP3     OH2      OT      -0.834000       15.9994           0
     47676 TIP3     12587    TIP3     H1       HT       0.417000       1.00800           0
     47677 TIP3     12587    TIP3     H2       HT       0.417000       1.00800           0
     47678 TIP3     12588    TIP3     OH2      OT      -0.834000       15.9994           0
     47679 TIP3     12588    TIP3     H1       HT       0.417000       1.00800           0
     47680 TIP3     12588    TIP3     H2       HT       0.417000       1.00800           0
     47681 TIP3     12589    TIP3     OH2      OT      -0.834000       15.9994           0
     47682 TIP3     12589    TIP3     H1       HT       0.417000       1.00800           0
     47683 TIP3     12589    TIP3     H2       HT       0.417000       1.00800           0
     47684 TIP3     12590    TIP3     OH2      OT      -0.834000       15.9994           0
     47685 TIP3     12590    TIP3     H1       HT       0.417000       1.00800           0
     47686 TIP3     12590    TIP3     H2       HT       0.417000       1.00800           0
     47687 TIP3     12591    TIP3     OH2      OT      -0.834000       15.9994           0
     47688 TIP3     12591    TIP3     H1       HT       0.417000       1.00800           0
     47689 TIP3     12591    TIP3     H2       HT       0.417000       1.00800           0
     47690 TIP3     12592    TIP3     OH2      OT      -0.834000       15.9994           0
     47691 TIP3     12592    TIP3     H1       HT       0.417000       1.00800           0
     47692 TIP3     12592    TIP3     H2       HT       0.417000       1.00800           0
     47693 TIP3     12593    TIP3     OH2      OT      -0.834000       15.9994           0
     47694 TIP3     12593    TIP3     H1       HT       0.417000       1.00800           0
     47695 TIP3     12593    TIP3     H2       HT       0.417000       1.00800           0
     47696 TIP3     12594    TIP3     OH2      OT      -0.834000       15.9994           0
     47697 TIP3     12594    TIP3     H1       HT       0.417000       1.00800           0
     47698 TIP3     12594    TIP3     H2       HT       0.417000       1.00800           0
     47699 TIP3     12595    TIP3     OH2      OT      -0.834000       15.9994           0
     47700 TIP3     12595    TIP3     H1       HT       0.417000       1.00800           0
     47701 TIP3     12595    TIP3     H2       HT       0.417000       1.00800           0
     47702 TIP3     12596    TIP3     OH2      OT      -0.834000       15.9994           0
     47703 TIP3     12596    TIP3     H1       HT       0.417000       1.00800           0
     47704 TIP3     12596    TIP3     H2       HT       0.417000       1.00800           0
     47705 TIP3     12597    TIP3     OH2      OT      -0.834000       15.9994           0
     47706 TIP3     12597    TIP3     H1       HT       0.417000       1.00800           0
     47707 TIP3     12597    TIP3     H2       HT       0.417000       1.00800           0
     47708 TIP3     12598    TIP3     OH2      OT      -0.834000       15.9994           0
     47709 TIP3     12598    TIP3     H1       HT       0.417000       1.00800           0
     47710 TIP3     12598    TIP3     H2       HT       0.417000       1.00800           0
     47711 TIP3     12599    TIP3     OH2      OT      -0.834000       15.9994           0
     47712 TIP3     12599    TIP3     H1       HT       0.417000       1.00800           0
     47713 TIP3     12599    TIP3     H2       HT       0.417000       1.00800           0
     47714 TIP3     12600    TIP3     OH2      OT      -0.834000       15.9994           0
     47715 TIP3     12600    TIP3     H1       HT       0.417000       1.00800           0
     47716 TIP3     12600    TIP3     H2       HT       0.417000       1.00800           0
     47717 TIP3     12601    TIP3     OH2      OT      -0.834000       15.9994           0
     47718 TIP3     12601    TIP3     H1       HT       0.417000       1.00800           0
     47719 TIP3     12601    TIP3     H2       HT       0.417000       1.00800           0
     47720 TIP3     12602    TIP3     OH2      OT      -0.834000       15.9994           0
     47721 TIP3     12602    TIP3     H1       HT       0.417000       1.00800           0
     47722 TIP3     12602    TIP3     H2       HT       0.417000       1.00800           0
     47723 TIP3     12603    TIP3     OH2      OT      -0.834000       15.9994           0
     47724 TIP3     12603    TIP3     H1       HT       0.417000       1.00800           0
     47725 TIP3     12603    TIP3     H2       HT       0.417000       1.00800           0
     47726 TIP3     12604    TIP3     OH2      OT      -0.834000       15.9994           0
     47727 TIP3     12604    TIP3     H1       HT       0.417000       1.00800           0
     47728 TIP3     12604    TIP3     H2       HT       0.417000       1.00800           0
     47729 TIP3     12605    TIP3     OH2      OT      -0.834000       15.9994           0
     47730 TIP3     12605    TIP3     H1       HT       0.417000       1.00800           0
     47731 TIP3     12605    TIP3     H2       HT       0.417000       1.00800           0
     47732 TIP3     12606    TIP3     OH2      OT      -0.834000       15.9994           0
     47733 TIP3     12606    TIP3     H1       HT       0.417000       1.00800           0
     47734 TIP3     12606    TIP3     H2       HT       0.417000       1.00800           0
     47735 TIP3     12607    TIP3     OH2      OT      -0.834000       15.9994           0
     47736 TIP3     12607    TIP3     H1       HT       0.417000       1.00800           0
     47737 TIP3     12607    TIP3     H2       HT       0.417000       1.00800           0
     47738 TIP3     12608    TIP3     OH2      OT      -0.834000       15.9994           0
     47739 TIP3     12608    TIP3     H1       HT       0.417000       1.00800           0
     47740 TIP3     12608    TIP3     H2       HT       0.417000       1.00800           0
     47741 TIP3     12609    TIP3     OH2      OT      -0.834000       15.9994           0
     47742 TIP3     12609    TIP3     H1       HT       0.417000       1.00800           0
     47743 TIP3     12609    TIP3     H2       HT       0.417000       1.00800           0
     47744 TIP3     12610    TIP3     OH2      OT      -0.834000       15.9994           0
     47745 TIP3     12610    TIP3     H1       HT       0.417000       1.00800           0
     47746 TIP3     12610    TIP3     H2       HT       0.417000       1.00800           0
     47747 TIP3     12611    TIP3     OH2      OT      -0.834000       15.9994           0
     47748 TIP3     12611    TIP3     H1       HT       0.417000       1.00800           0
     47749 TIP3     12611    TIP3     H2       HT       0.417000       1.00800           0
     47750 TIP3     12612    TIP3     OH2      OT      -0.834000       15.9994           0
     47751 TIP3     12612    TIP3     H1       HT       0.417000       1.00800           0
     47752 TIP3     12612    TIP3     H2       HT       0.417000       1.00800           0
     47753 TIP3     12613    TIP3     OH2      OT      -0.834000       15.9994           0
     47754 TIP3     12613    TIP3     H1       HT       0.417000       1.00800           0
     47755 TIP3     12613    TIP3     H2       HT       0.417000       1.00800           0
     47756 TIP3     12614    TIP3     OH2      OT      -0.834000       15.9994           0
     47757 TIP3     12614    TIP3     H1       HT       0.417000       1.00800           0
     47758 TIP3     12614    TIP3     H2       HT       0.417000       1.00800           0
     47759 TIP3     12615    TIP3     OH2      OT      -0.834000       15.9994           0
     47760 TIP3     12615    TIP3     H1       HT       0.417000       1.00800           0
     47761 TIP3     12615    TIP3     H2       HT       0.417000       1.00800           0
     47762 TIP3     12616    TIP3     OH2      OT      -0.834000       15.9994           0
     47763 TIP3     12616    TIP3     H1       HT       0.417000       1.00800           0
     47764 TIP3     12616    TIP3     H2       HT       0.417000       1.00800           0
     47765 TIP3     12617    TIP3     OH2      OT      -0.834000       15.9994           0
     47766 TIP3     12617    TIP3     H1       HT       0.417000       1.00800           0
     47767 TIP3     12617    TIP3     H2       HT       0.417000       1.00800           0
     47768 TIP3     12618    TIP3     OH2      OT      -0.834000       15.9994           0
     47769 TIP3     12618    TIP3     H1       HT       0.417000       1.00800           0
     47770 TIP3     12618    TIP3     H2       HT       0.417000       1.00800           0
     47771 TIP3     12619    TIP3     OH2      OT      -0.834000       15.9994           0
     47772 TIP3     12619    TIP3     H1       HT       0.417000       1.00800           0
     47773 TIP3     12619    TIP3     H2       HT       0.417000       1.00800           0
     47774 TIP3     12620    TIP3     OH2      OT      -0.834000       15.9994           0
     47775 TIP3     12620    TIP3     H1       HT       0.417000       1.00800           0
     47776 TIP3     12620    TIP3     H2       HT       0.417000       1.00800           0
     47777 TIP3     12621    TIP3     OH2      OT      -0.834000       15.9994           0
     47778 TIP3     12621    TIP3     H1       HT       0.417000       1.00800           0
     47779 TIP3     12621    TIP3     H2       HT       0.417000       1.00800           0
     47780 TIP3     12622    TIP3     OH2      OT      -0.834000       15.9994           0
     47781 TIP3     12622    TIP3     H1       HT       0.417000       1.00800           0
     47782 TIP3     12622    TIP3     H2       HT       0.417000       1.00800           0
     47783 TIP3     12623    TIP3     OH2      OT      -0.834000       15.9994           0
     47784 TIP3     12623    TIP3     H1       HT       0.417000       1.00800           0
     47785 TIP3     12623    TIP3     H2       HT       0.417000       1.00800           0
     47786 TIP3     12624    TIP3     OH2      OT      -0.834000       15.9994           0
     47787 TIP3     12624    TIP3     H1       HT       0.417000       1.00800           0
     47788 TIP3     12624    TIP3     H2       HT       0.417000       1.00800           0
     47789 TIP3     12625    TIP3     OH2      OT      -0.834000       15.9994           0
     47790 TIP3     12625    TIP3     H1       HT       0.417000       1.00800           0
     47791 TIP3     12625    TIP3     H2       HT       0.417000       1.00800           0
     47792 TIP3     12626    TIP3     OH2      OT      -0.834000       15.9994           0
     47793 TIP3     12626    TIP3     H1       HT       0.417000       1.00800           0
     47794 TIP3     12626    TIP3     H2       HT       0.417000       1.00800           0
     47795 TIP3     12627    TIP3     OH2      OT      -0.834000       15.9994           0
     47796 TIP3     12627    TIP3     H1       HT       0.417000       1.00800           0
     47797 TIP3     12627    TIP3     H2       HT       0.417000       1.00800           0
     47798 TIP3     12628    TIP3     OH2      OT      -0.834000       15.9994           0
     47799 TIP3     12628    TIP3     H1       HT       0.417000       1.00800           0
     47800 TIP3     12628    TIP3     H2       HT       0.417000       1.00800           0
     47801 TIP3     12629    TIP3     OH2      OT      -0.834000       15.9994           0
     47802 TIP3     12629    TIP3     H1       HT       0.417000       1.00800           0
     47803 TIP3     12629    TIP3     H2       HT       0.417000       1.00800           0
     47804 TIP3     12630    TIP3     OH2      OT      -0.834000       15.9994           0
     47805 TIP3     12630    TIP3     H1       HT       0.417000       1.00800           0
     47806 TIP3     12630    TIP3     H2       HT       0.417000       1.00800           0
     47807 TIP3     12631    TIP3     OH2      OT      -0.834000       15.9994           0
     47808 TIP3     12631    TIP3     H1       HT       0.417000       1.00800           0
     47809 TIP3     12631    TIP3     H2       HT       0.417000       1.00800           0
     47810 TIP3     12632    TIP3     OH2      OT      -0.834000       15.9994           0
     47811 TIP3     12632    TIP3     H1       HT       0.417000       1.00800           0
     47812 TIP3     12632    TIP3     H2       HT       0.417000       1.00800           0
     47813 TIP3     12633    TIP3     OH2      OT      -0.834000       15.9994           0
     47814 TIP3     12633    TIP3     H1       HT       0.417000       1.00800           0
     47815 TIP3     12633    TIP3     H2       HT       0.417000       1.00800           0
     47816 TIP3     12634    TIP3     OH2      OT      -0.834000       15.9994           0
     47817 TIP3     12634    TIP3     H1       HT       0.417000       1.00800           0
     47818 TIP3     12634    TIP3     H2       HT       0.417000       1.00800           0
     47819 TIP3     12635    TIP3     OH2      OT      -0.834000       15.9994           0
     47820 TIP3     12635    TIP3     H1       HT       0.417000       1.00800           0
     47821 TIP3     12635    TIP3     H2       HT       0.417000       1.00800           0
     47822 TIP3     12636    TIP3     OH2      OT      -0.834000       15.9994           0
     47823 TIP3     12636    TIP3     H1       HT       0.417000       1.00800           0
     47824 TIP3     12636    TIP3     H2       HT       0.417000       1.00800           0
     47825 TIP3     12637    TIP3     OH2      OT      -0.834000       15.9994           0
     47826 TIP3     12637    TIP3     H1       HT       0.417000       1.00800           0
     47827 TIP3     12637    TIP3     H2       HT       0.417000       1.00800           0
     47828 TIP3     12638    TIP3     OH2      OT      -0.834000       15.9994           0
     47829 TIP3     12638    TIP3     H1       HT       0.417000       1.00800           0
     47830 TIP3     12638    TIP3     H2       HT       0.417000       1.00800           0
     47831 TIP3     12639    TIP3     OH2      OT      -0.834000       15.9994           0
     47832 TIP3     12639    TIP3     H1       HT       0.417000       1.00800           0
     47833 TIP3     12639    TIP3     H2       HT       0.417000       1.00800           0
     47834 TIP3     12640    TIP3     OH2      OT      -0.834000       15.9994           0
     47835 TIP3     12640    TIP3     H1       HT       0.417000       1.00800           0
     47836 TIP3     12640    TIP3     H2       HT       0.417000       1.00800           0
     47837 TIP3     12641    TIP3     OH2      OT      -0.834000       15.9994           0
     47838 TIP3     12641    TIP3     H1       HT       0.417000       1.00800           0
     47839 TIP3     12641    TIP3     H2       HT       0.417000       1.00800           0
     47840 TIP3     12642    TIP3     OH2      OT      -0.834000       15.9994           0
     47841 TIP3     12642    TIP3     H1       HT       0.417000       1.00800           0
     47842 TIP3     12642    TIP3     H2       HT       0.417000       1.00800           0
     47843 TIP3     12643    TIP3     OH2      OT      -0.834000       15.9994           0
     47844 TIP3     12643    TIP3     H1       HT       0.417000       1.00800           0
     47845 TIP3     12643    TIP3     H2       HT       0.417000       1.00800           0
     47846 TIP3     12644    TIP3     OH2      OT      -0.834000       15.9994           0
     47847 TIP3     12644    TIP3     H1       HT       0.417000       1.00800           0
     47848 TIP3     12644    TIP3     H2       HT       0.417000       1.00800           0
     47849 TIP3     12645    TIP3     OH2      OT      -0.834000       15.9994           0
     47850 TIP3     12645    TIP3     H1       HT       0.417000       1.00800           0
     47851 TIP3     12645    TIP3     H2       HT       0.417000       1.00800           0
     47852 TIP3     12646    TIP3     OH2      OT      -0.834000       15.9994           0
     47853 TIP3     12646    TIP3     H1       HT       0.417000       1.00800           0
     47854 TIP3     12646    TIP3     H2       HT       0.417000       1.00800           0
     47855 TIP3     12647    TIP3     OH2      OT      -0.834000       15.9994           0
     47856 TIP3     12647    TIP3     H1       HT       0.417000       1.00800           0
     47857 TIP3     12647    TIP3     H2       HT       0.417000       1.00800           0
     47858 TIP3     12648    TIP3     OH2      OT      -0.834000       15.9994           0
     47859 TIP3     12648    TIP3     H1       HT       0.417000       1.00800           0
     47860 TIP3     12648    TIP3     H2       HT       0.417000       1.00800           0
     47861 TIP3     12649    TIP3     OH2      OT      -0.834000       15.9994           0
     47862 TIP3     12649    TIP3     H1       HT       0.417000       1.00800           0
     47863 TIP3     12649    TIP3     H2       HT       0.417000       1.00800           0
     47864 TIP3     12650    TIP3     OH2      OT      -0.834000       15.9994           0
     47865 TIP3     12650    TIP3     H1       HT       0.417000       1.00800           0
     47866 TIP3     12650    TIP3     H2       HT       0.417000       1.00800           0
     47867 TIP3     12651    TIP3     OH2      OT      -0.834000       15.9994           0
     47868 TIP3     12651    TIP3     H1       HT       0.417000       1.00800           0
     47869 TIP3     12651    TIP3     H2       HT       0.417000       1.00800           0
     47870 TIP3     12652    TIP3     OH2      OT      -0.834000       15.9994           0
     47871 TIP3     12652    TIP3     H1       HT       0.417000       1.00800           0
     47872 TIP3     12652    TIP3     H2       HT       0.417000       1.00800           0
     47873 TIP3     12653    TIP3     OH2      OT      -0.834000       15.9994           0
     47874 TIP3     12653    TIP3     H1       HT       0.417000       1.00800           0
     47875 TIP3     12653    TIP3     H2       HT       0.417000       1.00800           0
     47876 TIP3     12654    TIP3     OH2      OT      -0.834000       15.9994           0
     47877 TIP3     12654    TIP3     H1       HT       0.417000       1.00800           0
     47878 TIP3     12654    TIP3     H2       HT       0.417000       1.00800           0
     47879 TIP3     12655    TIP3     OH2      OT      -0.834000       15.9994           0
     47880 TIP3     12655    TIP3     H1       HT       0.417000       1.00800           0
     47881 TIP3     12655    TIP3     H2       HT       0.417000       1.00800           0
     47882 TIP3     12656    TIP3     OH2      OT      -0.834000       15.9994           0
     47883 TIP3     12656    TIP3     H1       HT       0.417000       1.00800           0
     47884 TIP3     12656    TIP3     H2       HT       0.417000       1.00800           0
     47885 TIP3     12657    TIP3     OH2      OT      -0.834000       15.9994           0
     47886 TIP3     12657    TIP3     H1       HT       0.417000       1.00800           0
     47887 TIP3     12657    TIP3     H2       HT       0.417000       1.00800           0
     47888 TIP3     12658    TIP3     OH2      OT      -0.834000       15.9994           0
     47889 TIP3     12658    TIP3     H1       HT       0.417000       1.00800           0
     47890 TIP3     12658    TIP3     H2       HT       0.417000       1.00800           0
     47891 TIP3     12659    TIP3     OH2      OT      -0.834000       15.9994           0
     47892 TIP3     12659    TIP3     H1       HT       0.417000       1.00800           0
     47893 TIP3     12659    TIP3     H2       HT       0.417000       1.00800           0
     47894 TIP3     12660    TIP3     OH2      OT      -0.834000       15.9994           0
     47895 TIP3     12660    TIP3     H1       HT       0.417000       1.00800           0
     47896 TIP3     12660    TIP3     H2       HT       0.417000       1.00800           0
     47897 TIP3     12661    TIP3     OH2      OT      -0.834000       15.9994           0
     47898 TIP3     12661    TIP3     H1       HT       0.417000       1.00800           0
     47899 TIP3     12661    TIP3     H2       HT       0.417000       1.00800           0
     47900 TIP3     12662    TIP3     OH2      OT      -0.834000       15.9994           0
     47901 TIP3     12662    TIP3     H1       HT       0.417000       1.00800           0
     47902 TIP3     12662    TIP3     H2       HT       0.417000       1.00800           0
     47903 TIP3     12663    TIP3     OH2      OT      -0.834000       15.9994           0
     47904 TIP3     12663    TIP3     H1       HT       0.417000       1.00800           0
     47905 TIP3     12663    TIP3     H2       HT       0.417000       1.00800           0
     47906 TIP3     12664    TIP3     OH2      OT      -0.834000       15.9994           0
     47907 TIP3     12664    TIP3     H1       HT       0.417000       1.00800           0
     47908 TIP3     12664    TIP3     H2       HT       0.417000       1.00800           0
     47909 TIP3     12665    TIP3     OH2      OT      -0.834000       15.9994           0
     47910 TIP3     12665    TIP3     H1       HT       0.417000       1.00800           0
     47911 TIP3     12665    TIP3     H2       HT       0.417000       1.00800           0
     47912 TIP3     12666    TIP3     OH2      OT      -0.834000       15.9994           0
     47913 TIP3     12666    TIP3     H1       HT       0.417000       1.00800           0
     47914 TIP3     12666    TIP3     H2       HT       0.417000       1.00800           0
     47915 TIP3     12667    TIP3     OH2      OT      -0.834000       15.9994           0
     47916 TIP3     12667    TIP3     H1       HT       0.417000       1.00800           0
     47917 TIP3     12667    TIP3     H2       HT       0.417000       1.00800           0
     47918 TIP3     12668    TIP3     OH2      OT      -0.834000       15.9994           0
     47919 TIP3     12668    TIP3     H1       HT       0.417000       1.00800           0
     47920 TIP3     12668    TIP3     H2       HT       0.417000       1.00800           0
     47921 TIP3     12669    TIP3     OH2      OT      -0.834000       15.9994           0
     47922 TIP3     12669    TIP3     H1       HT       0.417000       1.00800           0
     47923 TIP3     12669    TIP3     H2       HT       0.417000       1.00800           0
     47924 TIP3     12670    TIP3     OH2      OT      -0.834000       15.9994           0
     47925 TIP3     12670    TIP3     H1       HT       0.417000       1.00800           0
     47926 TIP3     12670    TIP3     H2       HT       0.417000       1.00800           0
     47927 TIP3     12671    TIP3     OH2      OT      -0.834000       15.9994           0
     47928 TIP3     12671    TIP3     H1       HT       0.417000       1.00800           0
     47929 TIP3     12671    TIP3     H2       HT       0.417000       1.00800           0
     47930 TIP3     12672    TIP3     OH2      OT      -0.834000       15.9994           0
     47931 TIP3     12672    TIP3     H1       HT       0.417000       1.00800           0
     47932 TIP3     12672    TIP3     H2       HT       0.417000       1.00800           0
     47933 TIP3     12673    TIP3     OH2      OT      -0.834000       15.9994           0
     47934 TIP3     12673    TIP3     H1       HT       0.417000       1.00800           0
     47935 TIP3     12673    TIP3     H2       HT       0.417000       1.00800           0
     47936 TIP3     12674    TIP3     OH2      OT      -0.834000       15.9994           0
     47937 TIP3     12674    TIP3     H1       HT       0.417000       1.00800           0
     47938 TIP3     12674    TIP3     H2       HT       0.417000       1.00800           0
     47939 TIP3     12675    TIP3     OH2      OT      -0.834000       15.9994           0
     47940 TIP3     12675    TIP3     H1       HT       0.417000       1.00800           0
     47941 TIP3     12675    TIP3     H2       HT       0.417000       1.00800           0
     47942 TIP3     12676    TIP3     OH2      OT      -0.834000       15.9994           0
     47943 TIP3     12676    TIP3     H1       HT       0.417000       1.00800           0
     47944 TIP3     12676    TIP3     H2       HT       0.417000       1.00800           0
     47945 TIP3     12677    TIP3     OH2      OT      -0.834000       15.9994           0
     47946 TIP3     12677    TIP3     H1       HT       0.417000       1.00800           0
     47947 TIP3     12677    TIP3     H2       HT       0.417000       1.00800           0
     47948 TIP3     12678    TIP3     OH2      OT      -0.834000       15.9994           0
     47949 TIP3     12678    TIP3     H1       HT       0.417000       1.00800           0
     47950 TIP3     12678    TIP3     H2       HT       0.417000       1.00800           0
     47951 TIP3     12679    TIP3     OH2      OT      -0.834000       15.9994           0
     47952 TIP3     12679    TIP3     H1       HT       0.417000       1.00800           0
     47953 TIP3     12679    TIP3     H2       HT       0.417000       1.00800           0
     47954 TIP3     12680    TIP3     OH2      OT      -0.834000       15.9994           0
     47955 TIP3     12680    TIP3     H1       HT       0.417000       1.00800           0
     47956 TIP3     12680    TIP3     H2       HT       0.417000       1.00800           0
     47957 TIP3     12681    TIP3     OH2      OT      -0.834000       15.9994           0
     47958 TIP3     12681    TIP3     H1       HT       0.417000       1.00800           0
     47959 TIP3     12681    TIP3     H2       HT       0.417000       1.00800           0
     47960 TIP3     12682    TIP3     OH2      OT      -0.834000       15.9994           0
     47961 TIP3     12682    TIP3     H1       HT       0.417000       1.00800           0
     47962 TIP3     12682    TIP3     H2       HT       0.417000       1.00800           0
     47963 TIP3     12683    TIP3     OH2      OT      -0.834000       15.9994           0
     47964 TIP3     12683    TIP3     H1       HT       0.417000       1.00800           0
     47965 TIP3     12683    TIP3     H2       HT       0.417000       1.00800           0
     47966 TIP3     12684    TIP3     OH2      OT      -0.834000       15.9994           0
     47967 TIP3     12684    TIP3     H1       HT       0.417000       1.00800           0
     47968 TIP3     12684    TIP3     H2       HT       0.417000       1.00800           0
     47969 TIP3     12685    TIP3     OH2      OT      -0.834000       15.9994           0
     47970 TIP3     12685    TIP3     H1       HT       0.417000       1.00800           0
     47971 TIP3     12685    TIP3     H2       HT       0.417000       1.00800           0
     47972 TIP3     12686    TIP3     OH2      OT      -0.834000       15.9994           0
     47973 TIP3     12686    TIP3     H1       HT       0.417000       1.00800           0
     47974 TIP3     12686    TIP3     H2       HT       0.417000       1.00800           0
     47975 TIP3     12687    TIP3     OH2      OT      -0.834000       15.9994           0
     47976 TIP3     12687    TIP3     H1       HT       0.417000       1.00800           0
     47977 TIP3     12687    TIP3     H2       HT       0.417000       1.00800           0
     47978 TIP3     12688    TIP3     OH2      OT      -0.834000       15.9994           0
     47979 TIP3     12688    TIP3     H1       HT       0.417000       1.00800           0
     47980 TIP3     12688    TIP3     H2       HT       0.417000       1.00800           0
     47981 TIP3     12689    TIP3     OH2      OT      -0.834000       15.9994           0
     47982 TIP3     12689    TIP3     H1       HT       0.417000       1.00800           0
     47983 TIP3     12689    TIP3     H2       HT       0.417000       1.00800           0
     47984 TIP3     12690    TIP3     OH2      OT      -0.834000       15.9994           0
     47985 TIP3     12690    TIP3     H1       HT       0.417000       1.00800           0
     47986 TIP3     12690    TIP3     H2       HT       0.417000       1.00800           0
     47987 TIP3     12691    TIP3     OH2      OT      -0.834000       15.9994           0
     47988 TIP3     12691    TIP3     H1       HT       0.417000       1.00800           0
     47989 TIP3     12691    TIP3     H2       HT       0.417000       1.00800           0
     47990 TIP3     12692    TIP3     OH2      OT      -0.834000       15.9994           0
     47991 TIP3     12692    TIP3     H1       HT       0.417000       1.00800           0
     47992 TIP3     12692    TIP3     H2       HT       0.417000       1.00800           0
     47993 TIP3     12693    TIP3     OH2      OT      -0.834000       15.9994           0
     47994 TIP3     12693    TIP3     H1       HT       0.417000       1.00800           0
     47995 TIP3     12693    TIP3     H2       HT       0.417000       1.00800           0
     47996 TIP3     12694    TIP3     OH2      OT      -0.834000       15.9994           0
     47997 TIP3     12694    TIP3     H1       HT       0.417000       1.00800           0
     47998 TIP3     12694    TIP3     H2       HT       0.417000       1.00800           0
     47999 TIP3     12695    TIP3     OH2      OT      -0.834000       15.9994           0
     48000 TIP3     12695    TIP3     H1       HT       0.417000       1.00800           0
     48001 TIP3     12695    TIP3     H2       HT       0.417000       1.00800           0
     48002 TIP3     12696    TIP3     OH2      OT      -0.834000       15.9994           0
     48003 TIP3     12696    TIP3     H1       HT       0.417000       1.00800           0
     48004 TIP3     12696    TIP3     H2       HT       0.417000       1.00800           0
     48005 TIP3     12697    TIP3     OH2      OT      -0.834000       15.9994           0
     48006 TIP3     12697    TIP3     H1       HT       0.417000       1.00800           0
     48007 TIP3     12697    TIP3     H2       HT       0.417000       1.00800           0
     48008 TIP3     12698    TIP3     OH2      OT      -0.834000       15.9994           0
     48009 TIP3     12698    TIP3     H1       HT       0.417000       1.00800           0
     48010 TIP3     12698    TIP3     H2       HT       0.417000       1.00800           0
     48011 TIP3     12699    TIP3     OH2      OT      -0.834000       15.9994           0
     48012 TIP3     12699    TIP3     H1       HT       0.417000       1.00800           0
     48013 TIP3     12699    TIP3     H2       HT       0.417000       1.00800           0
     48014 TIP3     12700    TIP3     OH2      OT      -0.834000       15.9994           0
     48015 TIP3     12700    TIP3     H1       HT       0.417000       1.00800           0
     48016 TIP3     12700    TIP3     H2       HT       0.417000       1.00800           0
     48017 TIP3     12701    TIP3     OH2      OT      -0.834000       15.9994           0
     48018 TIP3     12701    TIP3     H1       HT       0.417000       1.00800           0
     48019 TIP3     12701    TIP3     H2       HT       0.417000       1.00800           0
     48020 TIP3     12702    TIP3     OH2      OT      -0.834000       15.9994           0
     48021 TIP3     12702    TIP3     H1       HT       0.417000       1.00800           0
     48022 TIP3     12702    TIP3     H2       HT       0.417000       1.00800           0
     48023 TIP3     12703    TIP3     OH2      OT      -0.834000       15.9994           0
     48024 TIP3     12703    TIP3     H1       HT       0.417000       1.00800           0
     48025 TIP3     12703    TIP3     H2       HT       0.417000       1.00800           0
     48026 TIP3     12704    TIP3     OH2      OT      -0.834000       15.9994           0
     48027 TIP3     12704    TIP3     H1       HT       0.417000       1.00800           0
     48028 TIP3     12704    TIP3     H2       HT       0.417000       1.00800           0
     48029 TIP3     12705    TIP3     OH2      OT      -0.834000       15.9994           0
     48030 TIP3     12705    TIP3     H1       HT       0.417000       1.00800           0
     48031 TIP3     12705    TIP3     H2       HT       0.417000       1.00800           0
     48032 TIP3     12706    TIP3     OH2      OT      -0.834000       15.9994           0
     48033 TIP3     12706    TIP3     H1       HT       0.417000       1.00800           0
     48034 TIP3     12706    TIP3     H2       HT       0.417000       1.00800           0
     48035 TIP3     12707    TIP3     OH2      OT      -0.834000       15.9994           0
     48036 TIP3     12707    TIP3     H1       HT       0.417000       1.00800           0
     48037 TIP3     12707    TIP3     H2       HT       0.417000       1.00800           0
     48038 TIP3     12708    TIP3     OH2      OT      -0.834000       15.9994           0
     48039 TIP3     12708    TIP3     H1       HT       0.417000       1.00800           0
     48040 TIP3     12708    TIP3     H2       HT       0.417000       1.00800           0
     48041 TIP3     12709    TIP3     OH2      OT      -0.834000       15.9994           0
     48042 TIP3     12709    TIP3     H1       HT       0.417000       1.00800           0
     48043 TIP3     12709    TIP3     H2       HT       0.417000       1.00800           0
     48044 TIP3     12710    TIP3     OH2      OT      -0.834000       15.9994           0
     48045 TIP3     12710    TIP3     H1       HT       0.417000       1.00800           0
     48046 TIP3     12710    TIP3     H2       HT       0.417000       1.00800           0
     48047 TIP3     12711    TIP3     OH2      OT      -0.834000       15.9994           0
     48048 TIP3     12711    TIP3     H1       HT       0.417000       1.00800           0
     48049 TIP3     12711    TIP3     H2       HT       0.417000       1.00800           0
     48050 TIP3     12712    TIP3     OH2      OT      -0.834000       15.9994           0
     48051 TIP3     12712    TIP3     H1       HT       0.417000       1.00800           0
     48052 TIP3     12712    TIP3     H2       HT       0.417000       1.00800           0
     48053 TIP3     12713    TIP3     OH2      OT      -0.834000       15.9994           0
     48054 TIP3     12713    TIP3     H1       HT       0.417000       1.00800           0
     48055 TIP3     12713    TIP3     H2       HT       0.417000       1.00800           0
     48056 TIP3     12714    TIP3     OH2      OT      -0.834000       15.9994           0
     48057 TIP3     12714    TIP3     H1       HT       0.417000       1.00800           0
     48058 TIP3     12714    TIP3     H2       HT       0.417000       1.00800           0
     48059 TIP3     12715    TIP3     OH2      OT      -0.834000       15.9994           0
     48060 TIP3     12715    TIP3     H1       HT       0.417000       1.00800           0
     48061 TIP3     12715    TIP3     H2       HT       0.417000       1.00800           0
     48062 TIP3     12716    TIP3     OH2      OT      -0.834000       15.9994           0
     48063 TIP3     12716    TIP3     H1       HT       0.417000       1.00800           0
     48064 TIP3     12716    TIP3     H2       HT       0.417000       1.00800           0
     48065 TIP3     12717    TIP3     OH2      OT      -0.834000       15.9994           0
     48066 TIP3     12717    TIP3     H1       HT       0.417000       1.00800           0
     48067 TIP3     12717    TIP3     H2       HT       0.417000       1.00800           0
     48068 TIP3     12718    TIP3     OH2      OT      -0.834000       15.9994           0
     48069 TIP3     12718    TIP3     H1       HT       0.417000       1.00800           0
     48070 TIP3     12718    TIP3     H2       HT       0.417000       1.00800           0
     48071 TIP3     12719    TIP3     OH2      OT      -0.834000       15.9994           0
     48072 TIP3     12719    TIP3     H1       HT       0.417000       1.00800           0
     48073 TIP3     12719    TIP3     H2       HT       0.417000       1.00800           0
     48074 TIP3     12720    TIP3     OH2      OT      -0.834000       15.9994           0
     48075 TIP3     12720    TIP3     H1       HT       0.417000       1.00800           0
     48076 TIP3     12720    TIP3     H2       HT       0.417000       1.00800           0
     48077 TIP3     12721    TIP3     OH2      OT      -0.834000       15.9994           0
     48078 TIP3     12721    TIP3     H1       HT       0.417000       1.00800           0
     48079 TIP3     12721    TIP3     H2       HT       0.417000       1.00800           0
     48080 TIP3     12722    TIP3     OH2      OT      -0.834000       15.9994           0
     48081 TIP3     12722    TIP3     H1       HT       0.417000       1.00800           0
     48082 TIP3     12722    TIP3     H2       HT       0.417000       1.00800           0
     48083 TIP3     12723    TIP3     OH2      OT      -0.834000       15.9994           0
     48084 TIP3     12723    TIP3     H1       HT       0.417000       1.00800           0
     48085 TIP3     12723    TIP3     H2       HT       0.417000       1.00800           0
     48086 TIP3     12724    TIP3     OH2      OT      -0.834000       15.9994           0
     48087 TIP3     12724    TIP3     H1       HT       0.417000       1.00800           0
     48088 TIP3     12724    TIP3     H2       HT       0.417000       1.00800           0
     48089 TIP3     12725    TIP3     OH2      OT      -0.834000       15.9994           0
     48090 TIP3     12725    TIP3     H1       HT       0.417000       1.00800           0
     48091 TIP3     12725    TIP3     H2       HT       0.417000       1.00800           0
     48092 TIP3     12726    TIP3     OH2      OT      -0.834000       15.9994           0
     48093 TIP3     12726    TIP3     H1       HT       0.417000       1.00800           0
     48094 TIP3     12726    TIP3     H2       HT       0.417000       1.00800           0
     48095 TIP3     12727    TIP3     OH2      OT      -0.834000       15.9994           0
     48096 TIP3     12727    TIP3     H1       HT       0.417000       1.00800           0
     48097 TIP3     12727    TIP3     H2       HT       0.417000       1.00800           0
     48098 TIP3     12728    TIP3     OH2      OT      -0.834000       15.9994           0
     48099 TIP3     12728    TIP3     H1       HT       0.417000       1.00800           0
     48100 TIP3     12728    TIP3     H2       HT       0.417000       1.00800           0
     48101 TIP3     12729    TIP3     OH2      OT      -0.834000       15.9994           0
     48102 TIP3     12729    TIP3     H1       HT       0.417000       1.00800           0
     48103 TIP3     12729    TIP3     H2       HT       0.417000       1.00800           0
     48104 TIP3     12730    TIP3     OH2      OT      -0.834000       15.9994           0
     48105 TIP3     12730    TIP3     H1       HT       0.417000       1.00800           0
     48106 TIP3     12730    TIP3     H2       HT       0.417000       1.00800           0
     48107 TIP3     12731    TIP3     OH2      OT      -0.834000       15.9994           0
     48108 TIP3     12731    TIP3     H1       HT       0.417000       1.00800           0
     48109 TIP3     12731    TIP3     H2       HT       0.417000       1.00800           0
     48110 TIP3     12732    TIP3     OH2      OT      -0.834000       15.9994           0
     48111 TIP3     12732    TIP3     H1       HT       0.417000       1.00800           0
     48112 TIP3     12732    TIP3     H2       HT       0.417000       1.00800           0
     48113 TIP3     12733    TIP3     OH2      OT      -0.834000       15.9994           0
     48114 TIP3     12733    TIP3     H1       HT       0.417000       1.00800           0
     48115 TIP3     12733    TIP3     H2       HT       0.417000       1.00800           0
     48116 TIP3     12734    TIP3     OH2      OT      -0.834000       15.9994           0
     48117 TIP3     12734    TIP3     H1       HT       0.417000       1.00800           0
     48118 TIP3     12734    TIP3     H2       HT       0.417000       1.00800           0
     48119 TIP3     12735    TIP3     OH2      OT      -0.834000       15.9994           0
     48120 TIP3     12735    TIP3     H1       HT       0.417000       1.00800           0
     48121 TIP3     12735    TIP3     H2       HT       0.417000       1.00800           0
     48122 TIP3     12736    TIP3     OH2      OT      -0.834000       15.9994           0
     48123 TIP3     12736    TIP3     H1       HT       0.417000       1.00800           0
     48124 TIP3     12736    TIP3     H2       HT       0.417000       1.00800           0
     48125 TIP3     12737    TIP3     OH2      OT      -0.834000       15.9994           0
     48126 TIP3     12737    TIP3     H1       HT       0.417000       1.00800           0
     48127 TIP3     12737    TIP3     H2       HT       0.417000       1.00800           0
     48128 TIP3     12738    TIP3     OH2      OT      -0.834000       15.9994           0
     48129 TIP3     12738    TIP3     H1       HT       0.417000       1.00800           0
     48130 TIP3     12738    TIP3     H2       HT       0.417000       1.00800           0
     48131 TIP3     12739    TIP3     OH2      OT      -0.834000       15.9994           0
     48132 TIP3     12739    TIP3     H1       HT       0.417000       1.00800           0
     48133 TIP3     12739    TIP3     H2       HT       0.417000       1.00800           0
     48134 TIP3     12740    TIP3     OH2      OT      -0.834000       15.9994           0
     48135 TIP3     12740    TIP3     H1       HT       0.417000       1.00800           0
     48136 TIP3     12740    TIP3     H2       HT       0.417000       1.00800           0
     48137 TIP3     12741    TIP3     OH2      OT      -0.834000       15.9994           0
     48138 TIP3     12741    TIP3     H1       HT       0.417000       1.00800           0
     48139 TIP3     12741    TIP3     H2       HT       0.417000       1.00800           0
     48140 TIP3     12742    TIP3     OH2      OT      -0.834000       15.9994           0
     48141 TIP3     12742    TIP3     H1       HT       0.417000       1.00800           0
     48142 TIP3     12742    TIP3     H2       HT       0.417000       1.00800           0
     48143 TIP3     12743    TIP3     OH2      OT      -0.834000       15.9994           0
     48144 TIP3     12743    TIP3     H1       HT       0.417000       1.00800           0
     48145 TIP3     12743    TIP3     H2       HT       0.417000       1.00800           0
     48146 TIP3     12744    TIP3     OH2      OT      -0.834000       15.9994           0
     48147 TIP3     12744    TIP3     H1       HT       0.417000       1.00800           0
     48148 TIP3     12744    TIP3     H2       HT       0.417000       1.00800           0
     48149 TIP3     12745    TIP3     OH2      OT      -0.834000       15.9994           0
     48150 TIP3     12745    TIP3     H1       HT       0.417000       1.00800           0
     48151 TIP3     12745    TIP3     H2       HT       0.417000       1.00800           0
     48152 TIP3     12746    TIP3     OH2      OT      -0.834000       15.9994           0
     48153 TIP3     12746    TIP3     H1       HT       0.417000       1.00800           0
     48154 TIP3     12746    TIP3     H2       HT       0.417000       1.00800           0
     48155 TIP3     12747    TIP3     OH2      OT      -0.834000       15.9994           0
     48156 TIP3     12747    TIP3     H1       HT       0.417000       1.00800           0
     48157 TIP3     12747    TIP3     H2       HT       0.417000       1.00800           0
     48158 TIP3     12748    TIP3     OH2      OT      -0.834000       15.9994           0
     48159 TIP3     12748    TIP3     H1       HT       0.417000       1.00800           0
     48160 TIP3     12748    TIP3     H2       HT       0.417000       1.00800           0
     48161 TIP3     12749    TIP3     OH2      OT      -0.834000       15.9994           0
     48162 TIP3     12749    TIP3     H1       HT       0.417000       1.00800           0
     48163 TIP3     12749    TIP3     H2       HT       0.417000       1.00800           0
     48164 TIP3     12750    TIP3     OH2      OT      -0.834000       15.9994           0
     48165 TIP3     12750    TIP3     H1       HT       0.417000       1.00800           0
     48166 TIP3     12750    TIP3     H2       HT       0.417000       1.00800           0
     48167 TIP3     12751    TIP3     OH2      OT      -0.834000       15.9994           0
     48168 TIP3     12751    TIP3     H1       HT       0.417000       1.00800           0
     48169 TIP3     12751    TIP3     H2       HT       0.417000       1.00800           0
     48170 TIP3     12752    TIP3     OH2      OT      -0.834000       15.9994           0
     48171 TIP3     12752    TIP3     H1       HT       0.417000       1.00800           0
     48172 TIP3     12752    TIP3     H2       HT       0.417000       1.00800           0
     48173 TIP3     12753    TIP3     OH2      OT      -0.834000       15.9994           0
     48174 TIP3     12753    TIP3     H1       HT       0.417000       1.00800           0
     48175 TIP3     12753    TIP3     H2       HT       0.417000       1.00800           0
     48176 TIP3     12754    TIP3     OH2      OT      -0.834000       15.9994           0
     48177 TIP3     12754    TIP3     H1       HT       0.417000       1.00800           0
     48178 TIP3     12754    TIP3     H2       HT       0.417000       1.00800           0
     48179 TIP3     12755    TIP3     OH2      OT      -0.834000       15.9994           0
     48180 TIP3     12755    TIP3     H1       HT       0.417000       1.00800           0
     48181 TIP3     12755    TIP3     H2       HT       0.417000       1.00800           0
     48182 TIP3     12756    TIP3     OH2      OT      -0.834000       15.9994           0
     48183 TIP3     12756    TIP3     H1       HT       0.417000       1.00800           0
     48184 TIP3     12756    TIP3     H2       HT       0.417000       1.00800           0
     48185 TIP3     12757    TIP3     OH2      OT      -0.834000       15.9994           0
     48186 TIP3     12757    TIP3     H1       HT       0.417000       1.00800           0
     48187 TIP3     12757    TIP3     H2       HT       0.417000       1.00800           0
     48188 TIP3     12758    TIP3     OH2      OT      -0.834000       15.9994           0
     48189 TIP3     12758    TIP3     H1       HT       0.417000       1.00800           0
     48190 TIP3     12758    TIP3     H2       HT       0.417000       1.00800           0
     48191 TIP3     12759    TIP3     OH2      OT      -0.834000       15.9994           0
     48192 TIP3     12759    TIP3     H1       HT       0.417000       1.00800           0
     48193 TIP3     12759    TIP3     H2       HT       0.417000       1.00800           0
     48194 TIP3     12760    TIP3     OH2      OT      -0.834000       15.9994           0
     48195 TIP3     12760    TIP3     H1       HT       0.417000       1.00800           0
     48196 TIP3     12760    TIP3     H2       HT       0.417000       1.00800           0
     48197 TIP3     12761    TIP3     OH2      OT      -0.834000       15.9994           0
     48198 TIP3     12761    TIP3     H1       HT       0.417000       1.00800           0
     48199 TIP3     12761    TIP3     H2       HT       0.417000       1.00800           0
     48200 TIP3     12762    TIP3     OH2      OT      -0.834000       15.9994           0
     48201 TIP3     12762    TIP3     H1       HT       0.417000       1.00800           0
     48202 TIP3     12762    TIP3     H2       HT       0.417000       1.00800           0
     48203 TIP3     12763    TIP3     OH2      OT      -0.834000       15.9994           0
     48204 TIP3     12763    TIP3     H1       HT       0.417000       1.00800           0
     48205 TIP3     12763    TIP3     H2       HT       0.417000       1.00800           0
     48206 TIP3     12764    TIP3     OH2      OT      -0.834000       15.9994           0
     48207 TIP3     12764    TIP3     H1       HT       0.417000       1.00800           0
     48208 TIP3     12764    TIP3     H2       HT       0.417000       1.00800           0
     48209 TIP3     12765    TIP3     OH2      OT      -0.834000       15.9994           0
     48210 TIP3     12765    TIP3     H1       HT       0.417000       1.00800           0
     48211 TIP3     12765    TIP3     H2       HT       0.417000       1.00800           0
     48212 TIP3     12766    TIP3     OH2      OT      -0.834000       15.9994           0
     48213 TIP3     12766    TIP3     H1       HT       0.417000       1.00800           0
     48214 TIP3     12766    TIP3     H2       HT       0.417000       1.00800           0
     48215 TIP3     12767    TIP3     OH2      OT      -0.834000       15.9994           0
     48216 TIP3     12767    TIP3     H1       HT       0.417000       1.00800           0
     48217 TIP3     12767    TIP3     H2       HT       0.417000       1.00800           0
     48218 TIP3     12768    TIP3     OH2      OT      -0.834000       15.9994           0
     48219 TIP3     12768    TIP3     H1       HT       0.417000       1.00800           0
     48220 TIP3     12768    TIP3     H2       HT       0.417000       1.00800           0
     48221 TIP3     12769    TIP3     OH2      OT      -0.834000       15.9994           0
     48222 TIP3     12769    TIP3     H1       HT       0.417000       1.00800           0
     48223 TIP3     12769    TIP3     H2       HT       0.417000       1.00800           0
     48224 TIP3     12770    TIP3     OH2      OT      -0.834000       15.9994           0
     48225 TIP3     12770    TIP3     H1       HT       0.417000       1.00800           0
     48226 TIP3     12770    TIP3     H2       HT       0.417000       1.00800           0
     48227 TIP3     12771    TIP3     OH2      OT      -0.834000       15.9994           0
     48228 TIP3     12771    TIP3     H1       HT       0.417000       1.00800           0
     48229 TIP3     12771    TIP3     H2       HT       0.417000       1.00800           0
     48230 TIP3     12772    TIP3     OH2      OT      -0.834000       15.9994           0
     48231 TIP3     12772    TIP3     H1       HT       0.417000       1.00800           0
     48232 TIP3     12772    TIP3     H2       HT       0.417000       1.00800           0
     48233 TIP3     12773    TIP3     OH2      OT      -0.834000       15.9994           0
     48234 TIP3     12773    TIP3     H1       HT       0.417000       1.00800           0
     48235 TIP3     12773    TIP3     H2       HT       0.417000       1.00800           0
     48236 TIP3     12774    TIP3     OH2      OT      -0.834000       15.9994           0
     48237 TIP3     12774    TIP3     H1       HT       0.417000       1.00800           0
     48238 TIP3     12774    TIP3     H2       HT       0.417000       1.00800           0
     48239 TIP3     12775    TIP3     OH2      OT      -0.834000       15.9994           0
     48240 TIP3     12775    TIP3     H1       HT       0.417000       1.00800           0
     48241 TIP3     12775    TIP3     H2       HT       0.417000       1.00800           0
     48242 TIP3     12776    TIP3     OH2      OT      -0.834000       15.9994           0
     48243 TIP3     12776    TIP3     H1       HT       0.417000       1.00800           0
     48244 TIP3     12776    TIP3     H2       HT       0.417000       1.00800           0
     48245 TIP3     12777    TIP3     OH2      OT      -0.834000       15.9994           0
     48246 TIP3     12777    TIP3     H1       HT       0.417000       1.00800           0
     48247 TIP3     12777    TIP3     H2       HT       0.417000       1.00800           0
     48248 TIP3     12778    TIP3     OH2      OT      -0.834000       15.9994           0
     48249 TIP3     12778    TIP3     H1       HT       0.417000       1.00800           0
     48250 TIP3     12778    TIP3     H2       HT       0.417000       1.00800           0
     48251 TIP3     12779    TIP3     OH2      OT      -0.834000       15.9994           0
     48252 TIP3     12779    TIP3     H1       HT       0.417000       1.00800           0
     48253 TIP3     12779    TIP3     H2       HT       0.417000       1.00800           0
     48254 TIP3     12780    TIP3     OH2      OT      -0.834000       15.9994           0
     48255 TIP3     12780    TIP3     H1       HT       0.417000       1.00800           0
     48256 TIP3     12780    TIP3     H2       HT       0.417000       1.00800           0
     48257 TIP3     12781    TIP3     OH2      OT      -0.834000       15.9994           0
     48258 TIP3     12781    TIP3     H1       HT       0.417000       1.00800           0
     48259 TIP3     12781    TIP3     H2       HT       0.417000       1.00800           0
     48260 TIP3     12782    TIP3     OH2      OT      -0.834000       15.9994           0
     48261 TIP3     12782    TIP3     H1       HT       0.417000       1.00800           0
     48262 TIP3     12782    TIP3     H2       HT       0.417000       1.00800           0
     48263 TIP3     12783    TIP3     OH2      OT      -0.834000       15.9994           0
     48264 TIP3     12783    TIP3     H1       HT       0.417000       1.00800           0
     48265 TIP3     12783    TIP3     H2       HT       0.417000       1.00800           0
     48266 TIP3     12784    TIP3     OH2      OT      -0.834000       15.9994           0
     48267 TIP3     12784    TIP3     H1       HT       0.417000       1.00800           0
     48268 TIP3     12784    TIP3     H2       HT       0.417000       1.00800           0
     48269 TIP3     12785    TIP3     OH2      OT      -0.834000       15.9994           0
     48270 TIP3     12785    TIP3     H1       HT       0.417000       1.00800           0
     48271 TIP3     12785    TIP3     H2       HT       0.417000       1.00800           0
     48272 TIP3     12786    TIP3     OH2      OT      -0.834000       15.9994           0
     48273 TIP3     12786    TIP3     H1       HT       0.417000       1.00800           0
     48274 TIP3     12786    TIP3     H2       HT       0.417000       1.00800           0
     48275 TIP3     12787    TIP3     OH2      OT      -0.834000       15.9994           0
     48276 TIP3     12787    TIP3     H1       HT       0.417000       1.00800           0
     48277 TIP3     12787    TIP3     H2       HT       0.417000       1.00800           0
     48278 TIP3     12788    TIP3     OH2      OT      -0.834000       15.9994           0
     48279 TIP3     12788    TIP3     H1       HT       0.417000       1.00800           0
     48280 TIP3     12788    TIP3     H2       HT       0.417000       1.00800           0
     48281 TIP3     12789    TIP3     OH2      OT      -0.834000       15.9994           0
     48282 TIP3     12789    TIP3     H1       HT       0.417000       1.00800           0
     48283 TIP3     12789    TIP3     H2       HT       0.417000       1.00800           0
     48284 TIP3     12790    TIP3     OH2      OT      -0.834000       15.9994           0
     48285 TIP3     12790    TIP3     H1       HT       0.417000       1.00800           0
     48286 TIP3     12790    TIP3     H2       HT       0.417000       1.00800           0
     48287 TIP3     12791    TIP3     OH2      OT      -0.834000       15.9994           0
     48288 TIP3     12791    TIP3     H1       HT       0.417000       1.00800           0
     48289 TIP3     12791    TIP3     H2       HT       0.417000       1.00800           0
     48290 TIP3     12792    TIP3     OH2      OT      -0.834000       15.9994           0
     48291 TIP3     12792    TIP3     H1       HT       0.417000       1.00800           0
     48292 TIP3     12792    TIP3     H2       HT       0.417000       1.00800           0
     48293 TIP3     12793    TIP3     OH2      OT      -0.834000       15.9994           0
     48294 TIP3     12793    TIP3     H1       HT       0.417000       1.00800           0
     48295 TIP3     12793    TIP3     H2       HT       0.417000       1.00800           0
     48296 TIP3     12794    TIP3     OH2      OT      -0.834000       15.9994           0
     48297 TIP3     12794    TIP3     H1       HT       0.417000       1.00800           0
     48298 TIP3     12794    TIP3     H2       HT       0.417000       1.00800           0
     48299 TIP3     12795    TIP3     OH2      OT      -0.834000       15.9994           0
     48300 TIP3     12795    TIP3     H1       HT       0.417000       1.00800           0
     48301 TIP3     12795    TIP3     H2       HT       0.417000       1.00800           0
     48302 TIP3     12796    TIP3     OH2      OT      -0.834000       15.9994           0
     48303 TIP3     12796    TIP3     H1       HT       0.417000       1.00800           0
     48304 TIP3     12796    TIP3     H2       HT       0.417000       1.00800           0
     48305 TIP3     12797    TIP3     OH2      OT      -0.834000       15.9994           0
     48306 TIP3     12797    TIP3     H1       HT       0.417000       1.00800           0
     48307 TIP3     12797    TIP3     H2       HT       0.417000       1.00800           0
     48308 TIP3     12798    TIP3     OH2      OT      -0.834000       15.9994           0
     48309 TIP3     12798    TIP3     H1       HT       0.417000       1.00800           0
     48310 TIP3     12798    TIP3     H2       HT       0.417000       1.00800           0
     48311 TIP3     12799    TIP3     OH2      OT      -0.834000       15.9994           0
     48312 TIP3     12799    TIP3     H1       HT       0.417000       1.00800           0
     48313 TIP3     12799    TIP3     H2       HT       0.417000       1.00800           0
     48314 TIP3     12800    TIP3     OH2      OT      -0.834000       15.9994           0
     48315 TIP3     12800    TIP3     H1       HT       0.417000       1.00800           0
     48316 TIP3     12800    TIP3     H2       HT       0.417000       1.00800           0
     48317 TIP3     12801    TIP3     OH2      OT      -0.834000       15.9994           0
     48318 TIP3     12801    TIP3     H1       HT       0.417000       1.00800           0
     48319 TIP3     12801    TIP3     H2       HT       0.417000       1.00800           0
     48320 TIP3     12802    TIP3     OH2      OT      -0.834000       15.9994           0
     48321 TIP3     12802    TIP3     H1       HT       0.417000       1.00800           0
     48322 TIP3     12802    TIP3     H2       HT       0.417000       1.00800           0
     48323 TIP3     12803    TIP3     OH2      OT      -0.834000       15.9994           0
     48324 TIP3     12803    TIP3     H1       HT       0.417000       1.00800           0
     48325 TIP3     12803    TIP3     H2       HT       0.417000       1.00800           0
     48326 TIP3     12804    TIP3     OH2      OT      -0.834000       15.9994           0
     48327 TIP3     12804    TIP3     H1       HT       0.417000       1.00800           0
     48328 TIP3     12804    TIP3     H2       HT       0.417000       1.00800           0
     48329 TIP3     12805    TIP3     OH2      OT      -0.834000       15.9994           0
     48330 TIP3     12805    TIP3     H1       HT       0.417000       1.00800           0
     48331 TIP3     12805    TIP3     H2       HT       0.417000       1.00800           0
     48332 TIP3     12806    TIP3     OH2      OT      -0.834000       15.9994           0
     48333 TIP3     12806    TIP3     H1       HT       0.417000       1.00800           0
     48334 TIP3     12806    TIP3     H2       HT       0.417000       1.00800           0
     48335 TIP3     12807    TIP3     OH2      OT      -0.834000       15.9994           0
     48336 TIP3     12807    TIP3     H1       HT       0.417000       1.00800           0
     48337 TIP3     12807    TIP3     H2       HT       0.417000       1.00800           0
     48338 TIP3     12808    TIP3     OH2      OT      -0.834000       15.9994           0
     48339 TIP3     12808    TIP3     H1       HT       0.417000       1.00800           0
     48340 TIP3     12808    TIP3     H2       HT       0.417000       1.00800           0
     48341 TIP3     12809    TIP3     OH2      OT      -0.834000       15.9994           0
     48342 TIP3     12809    TIP3     H1       HT       0.417000       1.00800           0
     48343 TIP3     12809    TIP3     H2       HT       0.417000       1.00800           0
     48344 TIP3     12810    TIP3     OH2      OT      -0.834000       15.9994           0
     48345 TIP3     12810    TIP3     H1       HT       0.417000       1.00800           0
     48346 TIP3     12810    TIP3     H2       HT       0.417000       1.00800           0
     48347 TIP3     12811    TIP3     OH2      OT      -0.834000       15.9994           0
     48348 TIP3     12811    TIP3     H1       HT       0.417000       1.00800           0
     48349 TIP3     12811    TIP3     H2       HT       0.417000       1.00800           0
     48350 TIP3     12812    TIP3     OH2      OT      -0.834000       15.9994           0
     48351 TIP3     12812    TIP3     H1       HT       0.417000       1.00800           0
     48352 TIP3     12812    TIP3     H2       HT       0.417000       1.00800           0
     48353 TIP3     12813    TIP3     OH2      OT      -0.834000       15.9994           0
     48354 TIP3     12813    TIP3     H1       HT       0.417000       1.00800           0
     48355 TIP3     12813    TIP3     H2       HT       0.417000       1.00800           0
     48356 TIP3     12814    TIP3     OH2      OT      -0.834000       15.9994           0
     48357 TIP3     12814    TIP3     H1       HT       0.417000       1.00800           0
     48358 TIP3     12814    TIP3     H2       HT       0.417000       1.00800           0
     48359 TIP3     12815    TIP3     OH2      OT      -0.834000       15.9994           0
     48360 TIP3     12815    TIP3     H1       HT       0.417000       1.00800           0
     48361 TIP3     12815    TIP3     H2       HT       0.417000       1.00800           0
     48362 TIP3     12816    TIP3     OH2      OT      -0.834000       15.9994           0
     48363 TIP3     12816    TIP3     H1       HT       0.417000       1.00800           0
     48364 TIP3     12816    TIP3     H2       HT       0.417000       1.00800           0
     48365 TIP3     12817    TIP3     OH2      OT      -0.834000       15.9994           0
     48366 TIP3     12817    TIP3     H1       HT       0.417000       1.00800           0
     48367 TIP3     12817    TIP3     H2       HT       0.417000       1.00800           0
     48368 TIP3     12818    TIP3     OH2      OT      -0.834000       15.9994           0
     48369 TIP3     12818    TIP3     H1       HT       0.417000       1.00800           0
     48370 TIP3     12818    TIP3     H2       HT       0.417000       1.00800           0
     48371 TIP3     12819    TIP3     OH2      OT      -0.834000       15.9994           0
     48372 TIP3     12819    TIP3     H1       HT       0.417000       1.00800           0
     48373 TIP3     12819    TIP3     H2       HT       0.417000       1.00800           0
     48374 TIP3     12820    TIP3     OH2      OT      -0.834000       15.9994           0
     48375 TIP3     12820    TIP3     H1       HT       0.417000       1.00800           0
     48376 TIP3     12820    TIP3     H2       HT       0.417000       1.00800           0
     48377 TIP3     12821    TIP3     OH2      OT      -0.834000       15.9994           0
     48378 TIP3     12821    TIP3     H1       HT       0.417000       1.00800           0
     48379 TIP3     12821    TIP3     H2       HT       0.417000       1.00800           0
     48380 TIP3     12822    TIP3     OH2      OT      -0.834000       15.9994           0
     48381 TIP3     12822    TIP3     H1       HT       0.417000       1.00800           0
     48382 TIP3     12822    TIP3     H2       HT       0.417000       1.00800           0
     48383 TIP3     12823    TIP3     OH2      OT      -0.834000       15.9994           0
     48384 TIP3     12823    TIP3     H1       HT       0.417000       1.00800           0
     48385 TIP3     12823    TIP3     H2       HT       0.417000       1.00800           0
     48386 TIP3     12824    TIP3     OH2      OT      -0.834000       15.9994           0
     48387 TIP3     12824    TIP3     H1       HT       0.417000       1.00800           0
     48388 TIP3     12824    TIP3     H2       HT       0.417000       1.00800           0
     48389 TIP3     12825    TIP3     OH2      OT      -0.834000       15.9994           0
     48390 TIP3     12825    TIP3     H1       HT       0.417000       1.00800           0
     48391 TIP3     12825    TIP3     H2       HT       0.417000       1.00800           0
     48392 TIP3     12826    TIP3     OH2      OT      -0.834000       15.9994           0
     48393 TIP3     12826    TIP3     H1       HT       0.417000       1.00800           0
     48394 TIP3     12826    TIP3     H2       HT       0.417000       1.00800           0
     48395 TIP3     12827    TIP3     OH2      OT      -0.834000       15.9994           0
     48396 TIP3     12827    TIP3     H1       HT       0.417000       1.00800           0
     48397 TIP3     12827    TIP3     H2       HT       0.417000       1.00800           0
     48398 TIP3     12828    TIP3     OH2      OT      -0.834000       15.9994           0
     48399 TIP3     12828    TIP3     H1       HT       0.417000       1.00800           0
     48400 TIP3     12828    TIP3     H2       HT       0.417000       1.00800           0
     48401 TIP3     12829    TIP3     OH2      OT      -0.834000       15.9994           0
     48402 TIP3     12829    TIP3     H1       HT       0.417000       1.00800           0
     48403 TIP3     12829    TIP3     H2       HT       0.417000       1.00800           0
     48404 TIP3     12830    TIP3     OH2      OT      -0.834000       15.9994           0
     48405 TIP3     12830    TIP3     H1       HT       0.417000       1.00800           0
     48406 TIP3     12830    TIP3     H2       HT       0.417000       1.00800           0
     48407 TIP3     12831    TIP3     OH2      OT      -0.834000       15.9994           0
     48408 TIP3     12831    TIP3     H1       HT       0.417000       1.00800           0
     48409 TIP3     12831    TIP3     H2       HT       0.417000       1.00800           0
     48410 TIP3     12832    TIP3     OH2      OT      -0.834000       15.9994           0
     48411 TIP3     12832    TIP3     H1       HT       0.417000       1.00800           0
     48412 TIP3     12832    TIP3     H2       HT       0.417000       1.00800           0
     48413 TIP3     12833    TIP3     OH2      OT      -0.834000       15.9994           0
     48414 TIP3     12833    TIP3     H1       HT       0.417000       1.00800           0
     48415 TIP3     12833    TIP3     H2       HT       0.417000       1.00800           0
     48416 TIP3     12834    TIP3     OH2      OT      -0.834000       15.9994           0
     48417 TIP3     12834    TIP3     H1       HT       0.417000       1.00800           0
     48418 TIP3     12834    TIP3     H2       HT       0.417000       1.00800           0
     48419 TIP3     12835    TIP3     OH2      OT      -0.834000       15.9994           0
     48420 TIP3     12835    TIP3     H1       HT       0.417000       1.00800           0
     48421 TIP3     12835    TIP3     H2       HT       0.417000       1.00800           0
     48422 TIP3     12836    TIP3     OH2      OT      -0.834000       15.9994           0
     48423 TIP3     12836    TIP3     H1       HT       0.417000       1.00800           0
     48424 TIP3     12836    TIP3     H2       HT       0.417000       1.00800           0
     48425 TIP3     12837    TIP3     OH2      OT      -0.834000       15.9994           0
     48426 TIP3     12837    TIP3     H1       HT       0.417000       1.00800           0
     48427 TIP3     12837    TIP3     H2       HT       0.417000       1.00800           0
     48428 TIP3     12838    TIP3     OH2      OT      -0.834000       15.9994           0
     48429 TIP3     12838    TIP3     H1       HT       0.417000       1.00800           0
     48430 TIP3     12838    TIP3     H2       HT       0.417000       1.00800           0
     48431 TIP3     12839    TIP3     OH2      OT      -0.834000       15.9994           0
     48432 TIP3     12839    TIP3     H1       HT       0.417000       1.00800           0
     48433 TIP3     12839    TIP3     H2       HT       0.417000       1.00800           0
     48434 TIP3     12840    TIP3     OH2      OT      -0.834000       15.9994           0
     48435 TIP3     12840    TIP3     H1       HT       0.417000       1.00800           0
     48436 TIP3     12840    TIP3     H2       HT       0.417000       1.00800           0
     48437 TIP3     12841    TIP3     OH2      OT      -0.834000       15.9994           0
     48438 TIP3     12841    TIP3     H1       HT       0.417000       1.00800           0
     48439 TIP3     12841    TIP3     H2       HT       0.417000       1.00800           0
     48440 TIP3     12842    TIP3     OH2      OT      -0.834000       15.9994           0
     48441 TIP3     12842    TIP3     H1       HT       0.417000       1.00800           0
     48442 TIP3     12842    TIP3     H2       HT       0.417000       1.00800           0
     48443 TIP3     12843    TIP3     OH2      OT      -0.834000       15.9994           0
     48444 TIP3     12843    TIP3     H1       HT       0.417000       1.00800           0
     48445 TIP3     12843    TIP3     H2       HT       0.417000       1.00800           0
     48446 TIP3     12844    TIP3     OH2      OT      -0.834000       15.9994           0
     48447 TIP3     12844    TIP3     H1       HT       0.417000       1.00800           0
     48448 TIP3     12844    TIP3     H2       HT       0.417000       1.00800           0
     48449 TIP3     12845    TIP3     OH2      OT      -0.834000       15.9994           0
     48450 TIP3     12845    TIP3     H1       HT       0.417000       1.00800           0
     48451 TIP3     12845    TIP3     H2       HT       0.417000       1.00800           0
     48452 TIP3     12846    TIP3     OH2      OT      -0.834000       15.9994           0
     48453 TIP3     12846    TIP3     H1       HT       0.417000       1.00800           0
     48454 TIP3     12846    TIP3     H2       HT       0.417000       1.00800           0
     48455 TIP3     12847    TIP3     OH2      OT      -0.834000       15.9994           0
     48456 TIP3     12847    TIP3     H1       HT       0.417000       1.00800           0
     48457 TIP3     12847    TIP3     H2       HT       0.417000       1.00800           0
     48458 TIP3     12848    TIP3     OH2      OT      -0.834000       15.9994           0
     48459 TIP3     12848    TIP3     H1       HT       0.417000       1.00800           0
     48460 TIP3     12848    TIP3     H2       HT       0.417000       1.00800           0
     48461 TIP3     12849    TIP3     OH2      OT      -0.834000       15.9994           0
     48462 TIP3     12849    TIP3     H1       HT       0.417000       1.00800           0
     48463 TIP3     12849    TIP3     H2       HT       0.417000       1.00800           0
     48464 TIP3     12850    TIP3     OH2      OT      -0.834000       15.9994           0
     48465 TIP3     12850    TIP3     H1       HT       0.417000       1.00800           0
     48466 TIP3     12850    TIP3     H2       HT       0.417000       1.00800           0
     48467 TIP3     12851    TIP3     OH2      OT      -0.834000       15.9994           0
     48468 TIP3     12851    TIP3     H1       HT       0.417000       1.00800           0
     48469 TIP3     12851    TIP3     H2       HT       0.417000       1.00800           0
     48470 TIP3     12852    TIP3     OH2      OT      -0.834000       15.9994           0
     48471 TIP3     12852    TIP3     H1       HT       0.417000       1.00800           0
     48472 TIP3     12852    TIP3     H2       HT       0.417000       1.00800           0
     48473 TIP3     12853    TIP3     OH2      OT      -0.834000       15.9994           0
     48474 TIP3     12853    TIP3     H1       HT       0.417000       1.00800           0
     48475 TIP3     12853    TIP3     H2       HT       0.417000       1.00800           0
     48476 TIP3     12854    TIP3     OH2      OT      -0.834000       15.9994           0
     48477 TIP3     12854    TIP3     H1       HT       0.417000       1.00800           0
     48478 TIP3     12854    TIP3     H2       HT       0.417000       1.00800           0
     48479 TIP3     12855    TIP3     OH2      OT      -0.834000       15.9994           0
     48480 TIP3     12855    TIP3     H1       HT       0.417000       1.00800           0
     48481 TIP3     12855    TIP3     H2       HT       0.417000       1.00800           0
     48482 TIP3     12856    TIP3     OH2      OT      -0.834000       15.9994           0
     48483 TIP3     12856    TIP3     H1       HT       0.417000       1.00800           0
     48484 TIP3     12856    TIP3     H2       HT       0.417000       1.00800           0
     48485 TIP3     12857    TIP3     OH2      OT      -0.834000       15.9994           0
     48486 TIP3     12857    TIP3     H1       HT       0.417000       1.00800           0
     48487 TIP3     12857    TIP3     H2       HT       0.417000       1.00800           0
     48488 TIP3     12858    TIP3     OH2      OT      -0.834000       15.9994           0
     48489 TIP3     12858    TIP3     H1       HT       0.417000       1.00800           0
     48490 TIP3     12858    TIP3     H2       HT       0.417000       1.00800           0
     48491 TIP3     12859    TIP3     OH2      OT      -0.834000       15.9994           0
     48492 TIP3     12859    TIP3     H1       HT       0.417000       1.00800           0
     48493 TIP3     12859    TIP3     H2       HT       0.417000       1.00800           0
     48494 TIP3     12860    TIP3     OH2      OT      -0.834000       15.9994           0
     48495 TIP3     12860    TIP3     H1       HT       0.417000       1.00800           0
     48496 TIP3     12860    TIP3     H2       HT       0.417000       1.00800           0
     48497 TIP3     12861    TIP3     OH2      OT      -0.834000       15.9994           0
     48498 TIP3     12861    TIP3     H1       HT       0.417000       1.00800           0
     48499 TIP3     12861    TIP3     H2       HT       0.417000       1.00800           0
     48500 TIP3     12862    TIP3     OH2      OT      -0.834000       15.9994           0
     48501 TIP3     12862    TIP3     H1       HT       0.417000       1.00800           0
     48502 TIP3     12862    TIP3     H2       HT       0.417000       1.00800           0
     48503 TIP3     12863    TIP3     OH2      OT      -0.834000       15.9994           0
     48504 TIP3     12863    TIP3     H1       HT       0.417000       1.00800           0
     48505 TIP3     12863    TIP3     H2       HT       0.417000       1.00800           0
     48506 TIP3     12864    TIP3     OH2      OT      -0.834000       15.9994           0
     48507 TIP3     12864    TIP3     H1       HT       0.417000       1.00800           0
     48508 TIP3     12864    TIP3     H2       HT       0.417000       1.00800           0
     48509 TIP3     12865    TIP3     OH2      OT      -0.834000       15.9994           0
     48510 TIP3     12865    TIP3     H1       HT       0.417000       1.00800           0
     48511 TIP3     12865    TIP3     H2       HT       0.417000       1.00800           0
     48512 TIP3     12866    TIP3     OH2      OT      -0.834000       15.9994           0
     48513 TIP3     12866    TIP3     H1       HT       0.417000       1.00800           0
     48514 TIP3     12866    TIP3     H2       HT       0.417000       1.00800           0
     48515 TIP3     12867    TIP3     OH2      OT      -0.834000       15.9994           0
     48516 TIP3     12867    TIP3     H1       HT       0.417000       1.00800           0
     48517 TIP3     12867    TIP3     H2       HT       0.417000       1.00800           0
     48518 TIP3     12868    TIP3     OH2      OT      -0.834000       15.9994           0
     48519 TIP3     12868    TIP3     H1       HT       0.417000       1.00800           0
     48520 TIP3     12868    TIP3     H2       HT       0.417000       1.00800           0
     48521 TIP3     12869    TIP3     OH2      OT      -0.834000       15.9994           0
     48522 TIP3     12869    TIP3     H1       HT       0.417000       1.00800           0
     48523 TIP3     12869    TIP3     H2       HT       0.417000       1.00800           0
     48524 TIP3     12870    TIP3     OH2      OT      -0.834000       15.9994           0
     48525 TIP3     12870    TIP3     H1       HT       0.417000       1.00800           0
     48526 TIP3     12870    TIP3     H2       HT       0.417000       1.00800           0
     48527 TIP3     12871    TIP3     OH2      OT      -0.834000       15.9994           0
     48528 TIP3     12871    TIP3     H1       HT       0.417000       1.00800           0
     48529 TIP3     12871    TIP3     H2       HT       0.417000       1.00800           0
     48530 TIP3     12872    TIP3     OH2      OT      -0.834000       15.9994           0
     48531 TIP3     12872    TIP3     H1       HT       0.417000       1.00800           0
     48532 TIP3     12872    TIP3     H2       HT       0.417000       1.00800           0
     48533 TIP3     12873    TIP3     OH2      OT      -0.834000       15.9994           0
     48534 TIP3     12873    TIP3     H1       HT       0.417000       1.00800           0
     48535 TIP3     12873    TIP3     H2       HT       0.417000       1.00800           0
     48536 TIP3     12874    TIP3     OH2      OT      -0.834000       15.9994           0
     48537 TIP3     12874    TIP3     H1       HT       0.417000       1.00800           0
     48538 TIP3     12874    TIP3     H2       HT       0.417000       1.00800           0
     48539 TIP3     12875    TIP3     OH2      OT      -0.834000       15.9994           0
     48540 TIP3     12875    TIP3     H1       HT       0.417000       1.00800           0
     48541 TIP3     12875    TIP3     H2       HT       0.417000       1.00800           0
     48542 TIP3     12876    TIP3     OH2      OT      -0.834000       15.9994           0
     48543 TIP3     12876    TIP3     H1       HT       0.417000       1.00800           0
     48544 TIP3     12876    TIP3     H2       HT       0.417000       1.00800           0
     48545 TIP3     12877    TIP3     OH2      OT      -0.834000       15.9994           0
     48546 TIP3     12877    TIP3     H1       HT       0.417000       1.00800           0
     48547 TIP3     12877    TIP3     H2       HT       0.417000       1.00800           0
     48548 TIP3     12878    TIP3     OH2      OT      -0.834000       15.9994           0
     48549 TIP3     12878    TIP3     H1       HT       0.417000       1.00800           0
     48550 TIP3     12878    TIP3     H2       HT       0.417000       1.00800           0
     48551 TIP3     12879    TIP3     OH2      OT      -0.834000       15.9994           0
     48552 TIP3     12879    TIP3     H1       HT       0.417000       1.00800           0
     48553 TIP3     12879    TIP3     H2       HT       0.417000       1.00800           0
     48554 TIP3     12880    TIP3     OH2      OT      -0.834000       15.9994           0
     48555 TIP3     12880    TIP3     H1       HT       0.417000       1.00800           0
     48556 TIP3     12880    TIP3     H2       HT       0.417000       1.00800           0
     48557 TIP3     12881    TIP3     OH2      OT      -0.834000       15.9994           0
     48558 TIP3     12881    TIP3     H1       HT       0.417000       1.00800           0
     48559 TIP3     12881    TIP3     H2       HT       0.417000       1.00800           0
     48560 TIP3     12882    TIP3     OH2      OT      -0.834000       15.9994           0
     48561 TIP3     12882    TIP3     H1       HT       0.417000       1.00800           0
     48562 TIP3     12882    TIP3     H2       HT       0.417000       1.00800           0
     48563 TIP3     12883    TIP3     OH2      OT      -0.834000       15.9994           0
     48564 TIP3     12883    TIP3     H1       HT       0.417000       1.00800           0
     48565 TIP3     12883    TIP3     H2       HT       0.417000       1.00800           0
     48566 TIP3     12884    TIP3     OH2      OT      -0.834000       15.9994           0
     48567 TIP3     12884    TIP3     H1       HT       0.417000       1.00800           0
     48568 TIP3     12884    TIP3     H2       HT       0.417000       1.00800           0
     48569 TIP3     12885    TIP3     OH2      OT      -0.834000       15.9994           0
     48570 TIP3     12885    TIP3     H1       HT       0.417000       1.00800           0
     48571 TIP3     12885    TIP3     H2       HT       0.417000       1.00800           0
     48572 TIP3     12886    TIP3     OH2      OT      -0.834000       15.9994           0
     48573 TIP3     12886    TIP3     H1       HT       0.417000       1.00800           0
     48574 TIP3     12886    TIP3     H2       HT       0.417000       1.00800           0
     48575 TIP3     12887    TIP3     OH2      OT      -0.834000       15.9994           0
     48576 TIP3     12887    TIP3     H1       HT       0.417000       1.00800           0
     48577 TIP3     12887    TIP3     H2       HT       0.417000       1.00800           0
     48578 TIP3     12888    TIP3     OH2      OT      -0.834000       15.9994           0
     48579 TIP3     12888    TIP3     H1       HT       0.417000       1.00800           0
     48580 TIP3     12888    TIP3     H2       HT       0.417000       1.00800           0
     48581 TIP3     12889    TIP3     OH2      OT      -0.834000       15.9994           0
     48582 TIP3     12889    TIP3     H1       HT       0.417000       1.00800           0
     48583 TIP3     12889    TIP3     H2       HT       0.417000       1.00800           0
     48584 TIP3     12890    TIP3     OH2      OT      -0.834000       15.9994           0
     48585 TIP3     12890    TIP3     H1       HT       0.417000       1.00800           0
     48586 TIP3     12890    TIP3     H2       HT       0.417000       1.00800           0
     48587 TIP3     12891    TIP3     OH2      OT      -0.834000       15.9994           0
     48588 TIP3     12891    TIP3     H1       HT       0.417000       1.00800           0
     48589 TIP3     12891    TIP3     H2       HT       0.417000       1.00800           0
     48590 TIP3     12892    TIP3     OH2      OT      -0.834000       15.9994           0
     48591 TIP3     12892    TIP3     H1       HT       0.417000       1.00800           0
     48592 TIP3     12892    TIP3     H2       HT       0.417000       1.00800           0
     48593 TIP3     12893    TIP3     OH2      OT      -0.834000       15.9994           0
     48594 TIP3     12893    TIP3     H1       HT       0.417000       1.00800           0
     48595 TIP3     12893    TIP3     H2       HT       0.417000       1.00800           0
     48596 TIP3     12894    TIP3     OH2      OT      -0.834000       15.9994           0
     48597 TIP3     12894    TIP3     H1       HT       0.417000       1.00800           0
     48598 TIP3     12894    TIP3     H2       HT       0.417000       1.00800           0
     48599 TIP3     12895    TIP3     OH2      OT      -0.834000       15.9994           0
     48600 TIP3     12895    TIP3     H1       HT       0.417000       1.00800           0
     48601 TIP3     12895    TIP3     H2       HT       0.417000       1.00800           0
     48602 TIP3     12896    TIP3     OH2      OT      -0.834000       15.9994           0
     48603 TIP3     12896    TIP3     H1       HT       0.417000       1.00800           0
     48604 TIP3     12896    TIP3     H2       HT       0.417000       1.00800           0
     48605 TIP3     12897    TIP3     OH2      OT      -0.834000       15.9994           0
     48606 TIP3     12897    TIP3     H1       HT       0.417000       1.00800           0
     48607 TIP3     12897    TIP3     H2       HT       0.417000       1.00800           0
     48608 TIP3     12898    TIP3     OH2      OT      -0.834000       15.9994           0
     48609 TIP3     12898    TIP3     H1       HT       0.417000       1.00800           0
     48610 TIP3     12898    TIP3     H2       HT       0.417000       1.00800           0
     48611 TIP3     12899    TIP3     OH2      OT      -0.834000       15.9994           0
     48612 TIP3     12899    TIP3     H1       HT       0.417000       1.00800           0
     48613 TIP3     12899    TIP3     H2       HT       0.417000       1.00800           0
     48614 TIP3     12900    TIP3     OH2      OT      -0.834000       15.9994           0
     48615 TIP3     12900    TIP3     H1       HT       0.417000       1.00800           0
     48616 TIP3     12900    TIP3     H2       HT       0.417000       1.00800           0
     48617 TIP3     12901    TIP3     OH2      OT      -0.834000       15.9994           0
     48618 TIP3     12901    TIP3     H1       HT       0.417000       1.00800           0
     48619 TIP3     12901    TIP3     H2       HT       0.417000       1.00800           0
     48620 TIP3     12902    TIP3     OH2      OT      -0.834000       15.9994           0
     48621 TIP3     12902    TIP3     H1       HT       0.417000       1.00800           0
     48622 TIP3     12902    TIP3     H2       HT       0.417000       1.00800           0
     48623 TIP3     12903    TIP3     OH2      OT      -0.834000       15.9994           0
     48624 TIP3     12903    TIP3     H1       HT       0.417000       1.00800           0
     48625 TIP3     12903    TIP3     H2       HT       0.417000       1.00800           0
     48626 TIP3     12904    TIP3     OH2      OT      -0.834000       15.9994           0
     48627 TIP3     12904    TIP3     H1       HT       0.417000       1.00800           0
     48628 TIP3     12904    TIP3     H2       HT       0.417000       1.00800           0
     48629 TIP3     12905    TIP3     OH2      OT      -0.834000       15.9994           0
     48630 TIP3     12905    TIP3     H1       HT       0.417000       1.00800           0
     48631 TIP3     12905    TIP3     H2       HT       0.417000       1.00800           0
     48632 TIP3     12906    TIP3     OH2      OT      -0.834000       15.9994           0
     48633 TIP3     12906    TIP3     H1       HT       0.417000       1.00800           0
     48634 TIP3     12906    TIP3     H2       HT       0.417000       1.00800           0
     48635 TIP3     12907    TIP3     OH2      OT      -0.834000       15.9994           0
     48636 TIP3     12907    TIP3     H1       HT       0.417000       1.00800           0
     48637 TIP3     12907    TIP3     H2       HT       0.417000       1.00800           0
     48638 TIP3     12908    TIP3     OH2      OT      -0.834000       15.9994           0
     48639 TIP3     12908    TIP3     H1       HT       0.417000       1.00800           0
     48640 TIP3     12908    TIP3     H2       HT       0.417000       1.00800           0
     48641 TIP3     12909    TIP3     OH2      OT      -0.834000       15.9994           0
     48642 TIP3     12909    TIP3     H1       HT       0.417000       1.00800           0
     48643 TIP3     12909    TIP3     H2       HT       0.417000       1.00800           0
     48644 TIP3     12910    TIP3     OH2      OT      -0.834000       15.9994           0
     48645 TIP3     12910    TIP3     H1       HT       0.417000       1.00800           0
     48646 TIP3     12910    TIP3     H2       HT       0.417000       1.00800           0
     48647 TIP3     12911    TIP3     OH2      OT      -0.834000       15.9994           0
     48648 TIP3     12911    TIP3     H1       HT       0.417000       1.00800           0
     48649 TIP3     12911    TIP3     H2       HT       0.417000       1.00800           0
     48650 TIP3     12912    TIP3     OH2      OT      -0.834000       15.9994           0
     48651 TIP3     12912    TIP3     H1       HT       0.417000       1.00800           0
     48652 TIP3     12912    TIP3     H2       HT       0.417000       1.00800           0
     48653 TIP3     12913    TIP3     OH2      OT      -0.834000       15.9994           0
     48654 TIP3     12913    TIP3     H1       HT       0.417000       1.00800           0
     48655 TIP3     12913    TIP3     H2       HT       0.417000       1.00800           0
     48656 TIP3     12914    TIP3     OH2      OT      -0.834000       15.9994           0
     48657 TIP3     12914    TIP3     H1       HT       0.417000       1.00800           0
     48658 TIP3     12914    TIP3     H2       HT       0.417000       1.00800           0
     48659 TIP3     12915    TIP3     OH2      OT      -0.834000       15.9994           0
     48660 TIP3     12915    TIP3     H1       HT       0.417000       1.00800           0
     48661 TIP3     12915    TIP3     H2       HT       0.417000       1.00800           0
     48662 TIP3     12916    TIP3     OH2      OT      -0.834000       15.9994           0
     48663 TIP3     12916    TIP3     H1       HT       0.417000       1.00800           0
     48664 TIP3     12916    TIP3     H2       HT       0.417000       1.00800           0
     48665 TIP3     12917    TIP3     OH2      OT      -0.834000       15.9994           0
     48666 TIP3     12917    TIP3     H1       HT       0.417000       1.00800           0
     48667 TIP3     12917    TIP3     H2       HT       0.417000       1.00800           0
     48668 TIP3     12918    TIP3     OH2      OT      -0.834000       15.9994           0
     48669 TIP3     12918    TIP3     H1       HT       0.417000       1.00800           0
     48670 TIP3     12918    TIP3     H2       HT       0.417000       1.00800           0
     48671 TIP3     12919    TIP3     OH2      OT      -0.834000       15.9994           0
     48672 TIP3     12919    TIP3     H1       HT       0.417000       1.00800           0
     48673 TIP3     12919    TIP3     H2       HT       0.417000       1.00800           0
     48674 TIP3     12920    TIP3     OH2      OT      -0.834000       15.9994           0
     48675 TIP3     12920    TIP3     H1       HT       0.417000       1.00800           0
     48676 TIP3     12920    TIP3     H2       HT       0.417000       1.00800           0
     48677 TIP3     12921    TIP3     OH2      OT      -0.834000       15.9994           0
     48678 TIP3     12921    TIP3     H1       HT       0.417000       1.00800           0
     48679 TIP3     12921    TIP3     H2       HT       0.417000       1.00800           0
     48680 TIP3     12922    TIP3     OH2      OT      -0.834000       15.9994           0
     48681 TIP3     12922    TIP3     H1       HT       0.417000       1.00800           0
     48682 TIP3     12922    TIP3     H2       HT       0.417000       1.00800           0
     48683 TIP3     12923    TIP3     OH2      OT      -0.834000       15.9994           0
     48684 TIP3     12923    TIP3     H1       HT       0.417000       1.00800           0
     48685 TIP3     12923    TIP3     H2       HT       0.417000       1.00800           0
     48686 TIP3     12924    TIP3     OH2      OT      -0.834000       15.9994           0
     48687 TIP3     12924    TIP3     H1       HT       0.417000       1.00800           0
     48688 TIP3     12924    TIP3     H2       HT       0.417000       1.00800           0
     48689 TIP3     12925    TIP3     OH2      OT      -0.834000       15.9994           0
     48690 TIP3     12925    TIP3     H1       HT       0.417000       1.00800           0
     48691 TIP3     12925    TIP3     H2       HT       0.417000       1.00800           0
     48692 TIP3     12926    TIP3     OH2      OT      -0.834000       15.9994           0
     48693 TIP3     12926    TIP3     H1       HT       0.417000       1.00800           0
     48694 TIP3     12926    TIP3     H2       HT       0.417000       1.00800           0
     48695 TIP3     12927    TIP3     OH2      OT      -0.834000       15.9994           0
     48696 TIP3     12927    TIP3     H1       HT       0.417000       1.00800           0
     48697 TIP3     12927    TIP3     H2       HT       0.417000       1.00800           0
     48698 TIP3     12928    TIP3     OH2      OT      -0.834000       15.9994           0
     48699 TIP3     12928    TIP3     H1       HT       0.417000       1.00800           0
     48700 TIP3     12928    TIP3     H2       HT       0.417000       1.00800           0
     48701 TIP3     12929    TIP3     OH2      OT      -0.834000       15.9994           0
     48702 TIP3     12929    TIP3     H1       HT       0.417000       1.00800           0
     48703 TIP3     12929    TIP3     H2       HT       0.417000       1.00800           0
     48704 TIP3     12930    TIP3     OH2      OT      -0.834000       15.9994           0
     48705 TIP3     12930    TIP3     H1       HT       0.417000       1.00800           0
     48706 TIP3     12930    TIP3     H2       HT       0.417000       1.00800           0
     48707 TIP3     12931    TIP3     OH2      OT      -0.834000       15.9994           0
     48708 TIP3     12931    TIP3     H1       HT       0.417000       1.00800           0
     48709 TIP3     12931    TIP3     H2       HT       0.417000       1.00800           0
     48710 TIP3     12932    TIP3     OH2      OT      -0.834000       15.9994           0
     48711 TIP3     12932    TIP3     H1       HT       0.417000       1.00800           0
     48712 TIP3     12932    TIP3     H2       HT       0.417000       1.00800           0
     48713 TIP3     12933    TIP3     OH2      OT      -0.834000       15.9994           0
     48714 TIP3     12933    TIP3     H1       HT       0.417000       1.00800           0
     48715 TIP3     12933    TIP3     H2       HT       0.417000       1.00800           0
     48716 TIP3     12934    TIP3     OH2      OT      -0.834000       15.9994           0
     48717 TIP3     12934    TIP3     H1       HT       0.417000       1.00800           0
     48718 TIP3     12934    TIP3     H2       HT       0.417000       1.00800           0
     48719 TIP3     12935    TIP3     OH2      OT      -0.834000       15.9994           0
     48720 TIP3     12935    TIP3     H1       HT       0.417000       1.00800           0
     48721 TIP3     12935    TIP3     H2       HT       0.417000       1.00800           0
     48722 TIP3     12936    TIP3     OH2      OT      -0.834000       15.9994           0
     48723 TIP3     12936    TIP3     H1       HT       0.417000       1.00800           0
     48724 TIP3     12936    TIP3     H2       HT       0.417000       1.00800           0
     48725 TIP3     12937    TIP3     OH2      OT      -0.834000       15.9994           0
     48726 TIP3     12937    TIP3     H1       HT       0.417000       1.00800           0
     48727 TIP3     12937    TIP3     H2       HT       0.417000       1.00800           0
     48728 TIP3     12938    TIP3     OH2      OT      -0.834000       15.9994           0
     48729 TIP3     12938    TIP3     H1       HT       0.417000       1.00800           0
     48730 TIP3     12938    TIP3     H2       HT       0.417000       1.00800           0
     48731 TIP3     12939    TIP3     OH2      OT      -0.834000       15.9994           0
     48732 TIP3     12939    TIP3     H1       HT       0.417000       1.00800           0
     48733 TIP3     12939    TIP3     H2       HT       0.417000       1.00800           0
     48734 TIP3     12940    TIP3     OH2      OT      -0.834000       15.9994           0
     48735 TIP3     12940    TIP3     H1       HT       0.417000       1.00800           0
     48736 TIP3     12940    TIP3     H2       HT       0.417000       1.00800           0
     48737 TIP3     12941    TIP3     OH2      OT      -0.834000       15.9994           0
     48738 TIP3     12941    TIP3     H1       HT       0.417000       1.00800           0
     48739 TIP3     12941    TIP3     H2       HT       0.417000       1.00800           0
     48740 TIP3     12942    TIP3     OH2      OT      -0.834000       15.9994           0
     48741 TIP3     12942    TIP3     H1       HT       0.417000       1.00800           0
     48742 TIP3     12942    TIP3     H2       HT       0.417000       1.00800           0
     48743 TIP3     12943    TIP3     OH2      OT      -0.834000       15.9994           0
     48744 TIP3     12943    TIP3     H1       HT       0.417000       1.00800           0
     48745 TIP3     12943    TIP3     H2       HT       0.417000       1.00800           0
     48746 TIP3     12944    TIP3     OH2      OT      -0.834000       15.9994           0
     48747 TIP3     12944    TIP3     H1       HT       0.417000       1.00800           0
     48748 TIP3     12944    TIP3     H2       HT       0.417000       1.00800           0
     48749 TIP3     12945    TIP3     OH2      OT      -0.834000       15.9994           0
     48750 TIP3     12945    TIP3     H1       HT       0.417000       1.00800           0
     48751 TIP3     12945    TIP3     H2       HT       0.417000       1.00800           0
     48752 TIP3     12946    TIP3     OH2      OT      -0.834000       15.9994           0
     48753 TIP3     12946    TIP3     H1       HT       0.417000       1.00800           0
     48754 TIP3     12946    TIP3     H2       HT       0.417000       1.00800           0
     48755 TIP3     12947    TIP3     OH2      OT      -0.834000       15.9994           0
     48756 TIP3     12947    TIP3     H1       HT       0.417000       1.00800           0
     48757 TIP3     12947    TIP3     H2       HT       0.417000       1.00800           0
     48758 TIP3     12948    TIP3     OH2      OT      -0.834000       15.9994           0
     48759 TIP3     12948    TIP3     H1       HT       0.417000       1.00800           0
     48760 TIP3     12948    TIP3     H2       HT       0.417000       1.00800           0
     48761 TIP3     12949    TIP3     OH2      OT      -0.834000       15.9994           0
     48762 TIP3     12949    TIP3     H1       HT       0.417000       1.00800           0
     48763 TIP3     12949    TIP3     H2       HT       0.417000       1.00800           0
     48764 TIP3     12950    TIP3     OH2      OT      -0.834000       15.9994           0
     48765 TIP3     12950    TIP3     H1       HT       0.417000       1.00800           0
     48766 TIP3     12950    TIP3     H2       HT       0.417000       1.00800           0
     48767 TIP3     12951    TIP3     OH2      OT      -0.834000       15.9994           0
     48768 TIP3     12951    TIP3     H1       HT       0.417000       1.00800           0
     48769 TIP3     12951    TIP3     H2       HT       0.417000       1.00800           0
     48770 TIP3     12952    TIP3     OH2      OT      -0.834000       15.9994           0
     48771 TIP3     12952    TIP3     H1       HT       0.417000       1.00800           0
     48772 TIP3     12952    TIP3     H2       HT       0.417000       1.00800           0
     48773 TIP3     12953    TIP3     OH2      OT      -0.834000       15.9994           0
     48774 TIP3     12953    TIP3     H1       HT       0.417000       1.00800           0
     48775 TIP3     12953    TIP3     H2       HT       0.417000       1.00800           0
     48776 TIP3     12954    TIP3     OH2      OT      -0.834000       15.9994           0
     48777 TIP3     12954    TIP3     H1       HT       0.417000       1.00800           0
     48778 TIP3     12954    TIP3     H2       HT       0.417000       1.00800           0
     48779 TIP3     12955    TIP3     OH2      OT      -0.834000       15.9994           0
     48780 TIP3     12955    TIP3     H1       HT       0.417000       1.00800           0
     48781 TIP3     12955    TIP3     H2       HT       0.417000       1.00800           0
     48782 TIP3     12956    TIP3     OH2      OT      -0.834000       15.9994           0
     48783 TIP3     12956    TIP3     H1       HT       0.417000       1.00800           0
     48784 TIP3     12956    TIP3     H2       HT       0.417000       1.00800           0
     48785 TIP3     12957    TIP3     OH2      OT      -0.834000       15.9994           0
     48786 TIP3     12957    TIP3     H1       HT       0.417000       1.00800           0
     48787 TIP3     12957    TIP3     H2       HT       0.417000       1.00800           0
     48788 TIP3     12958    TIP3     OH2      OT      -0.834000       15.9994           0
     48789 TIP3     12958    TIP3     H1       HT       0.417000       1.00800           0
     48790 TIP3     12958    TIP3     H2       HT       0.417000       1.00800           0
     48791 TIP3     12959    TIP3     OH2      OT      -0.834000       15.9994           0
     48792 TIP3     12959    TIP3     H1       HT       0.417000       1.00800           0
     48793 TIP3     12959    TIP3     H2       HT       0.417000       1.00800           0
     48794 TIP3     12960    TIP3     OH2      OT      -0.834000       15.9994           0
     48795 TIP3     12960    TIP3     H1       HT       0.417000       1.00800           0
     48796 TIP3     12960    TIP3     H2       HT       0.417000       1.00800           0
     48797 TIP3     12961    TIP3     OH2      OT      -0.834000       15.9994           0
     48798 TIP3     12961    TIP3     H1       HT       0.417000       1.00800           0
     48799 TIP3     12961    TIP3     H2       HT       0.417000       1.00800           0
     48800 TIP3     12962    TIP3     OH2      OT      -0.834000       15.9994           0
     48801 TIP3     12962    TIP3     H1       HT       0.417000       1.00800           0
     48802 TIP3     12962    TIP3     H2       HT       0.417000       1.00800           0
     48803 TIP3     12963    TIP3     OH2      OT      -0.834000       15.9994           0
     48804 TIP3     12963    TIP3     H1       HT       0.417000       1.00800           0
     48805 TIP3     12963    TIP3     H2       HT       0.417000       1.00800           0
     48806 TIP3     12964    TIP3     OH2      OT      -0.834000       15.9994           0
     48807 TIP3     12964    TIP3     H1       HT       0.417000       1.00800           0
     48808 TIP3     12964    TIP3     H2       HT       0.417000       1.00800           0
     48809 TIP3     12965    TIP3     OH2      OT      -0.834000       15.9994           0
     48810 TIP3     12965    TIP3     H1       HT       0.417000       1.00800           0
     48811 TIP3     12965    TIP3     H2       HT       0.417000       1.00800           0
     48812 TIP3     12966    TIP3     OH2      OT      -0.834000       15.9994           0
     48813 TIP3     12966    TIP3     H1       HT       0.417000       1.00800           0
     48814 TIP3     12966    TIP3     H2       HT       0.417000       1.00800           0
     48815 TIP3     12967    TIP3     OH2      OT      -0.834000       15.9994           0
     48816 TIP3     12967    TIP3     H1       HT       0.417000       1.00800           0
     48817 TIP3     12967    TIP3     H2       HT       0.417000       1.00800           0
     48818 TIP3     12968    TIP3     OH2      OT      -0.834000       15.9994           0
     48819 TIP3     12968    TIP3     H1       HT       0.417000       1.00800           0
     48820 TIP3     12968    TIP3     H2       HT       0.417000       1.00800           0
     48821 TIP3     12969    TIP3     OH2      OT      -0.834000       15.9994           0
     48822 TIP3     12969    TIP3     H1       HT       0.417000       1.00800           0
     48823 TIP3     12969    TIP3     H2       HT       0.417000       1.00800           0
     48824 TIP3     12970    TIP3     OH2      OT      -0.834000       15.9994           0
     48825 TIP3     12970    TIP3     H1       HT       0.417000       1.00800           0
     48826 TIP3     12970    TIP3     H2       HT       0.417000       1.00800           0
     48827 TIP3     12971    TIP3     OH2      OT      -0.834000       15.9994           0
     48828 TIP3     12971    TIP3     H1       HT       0.417000       1.00800           0
     48829 TIP3     12971    TIP3     H2       HT       0.417000       1.00800           0
     48830 TIP3     12972    TIP3     OH2      OT      -0.834000       15.9994           0
     48831 TIP3     12972    TIP3     H1       HT       0.417000       1.00800           0
     48832 TIP3     12972    TIP3     H2       HT       0.417000       1.00800           0
     48833 TIP3     12973    TIP3     OH2      OT      -0.834000       15.9994           0
     48834 TIP3     12973    TIP3     H1       HT       0.417000       1.00800           0
     48835 TIP3     12973    TIP3     H2       HT       0.417000       1.00800           0
     48836 TIP3     12974    TIP3     OH2      OT      -0.834000       15.9994           0
     48837 TIP3     12974    TIP3     H1       HT       0.417000       1.00800           0
     48838 TIP3     12974    TIP3     H2       HT       0.417000       1.00800           0
     48839 TIP3     12975    TIP3     OH2      OT      -0.834000       15.9994           0
     48840 TIP3     12975    TIP3     H1       HT       0.417000       1.00800           0
     48841 TIP3     12975    TIP3     H2       HT       0.417000       1.00800           0
     48842 TIP3     12976    TIP3     OH2      OT      -0.834000       15.9994           0
     48843 TIP3     12976    TIP3     H1       HT       0.417000       1.00800           0
     48844 TIP3     12976    TIP3     H2       HT       0.417000       1.00800           0
     48845 TIP3     12977    TIP3     OH2      OT      -0.834000       15.9994           0
     48846 TIP3     12977    TIP3     H1       HT       0.417000       1.00800           0
     48847 TIP3     12977    TIP3     H2       HT       0.417000       1.00800           0
     48848 TIP3     12978    TIP3     OH2      OT      -0.834000       15.9994           0
     48849 TIP3     12978    TIP3     H1       HT       0.417000       1.00800           0
     48850 TIP3     12978    TIP3     H2       HT       0.417000       1.00800           0
     48851 TIP3     12979    TIP3     OH2      OT      -0.834000       15.9994           0
     48852 TIP3     12979    TIP3     H1       HT       0.417000       1.00800           0
     48853 TIP3     12979    TIP3     H2       HT       0.417000       1.00800           0
     48854 TIP3     12980    TIP3     OH2      OT      -0.834000       15.9994           0
     48855 TIP3     12980    TIP3     H1       HT       0.417000       1.00800           0
     48856 TIP3     12980    TIP3     H2       HT       0.417000       1.00800           0
     48857 TIP3     12981    TIP3     OH2      OT      -0.834000       15.9994           0
     48858 TIP3     12981    TIP3     H1       HT       0.417000       1.00800           0
     48859 TIP3     12981    TIP3     H2       HT       0.417000       1.00800           0
     48860 TIP3     12982    TIP3     OH2      OT      -0.834000       15.9994           0
     48861 TIP3     12982    TIP3     H1       HT       0.417000       1.00800           0
     48862 TIP3     12982    TIP3     H2       HT       0.417000       1.00800           0
     48863 TIP3     12983    TIP3     OH2      OT      -0.834000       15.9994           0
     48864 TIP3     12983    TIP3     H1       HT       0.417000       1.00800           0
     48865 TIP3     12983    TIP3     H2       HT       0.417000       1.00800           0
     48866 TIP3     12984    TIP3     OH2      OT      -0.834000       15.9994           0
     48867 TIP3     12984    TIP3     H1       HT       0.417000       1.00800           0
     48868 TIP3     12984    TIP3     H2       HT       0.417000       1.00800           0
     48869 TIP3     12985    TIP3     OH2      OT      -0.834000       15.9994           0
     48870 TIP3     12985    TIP3     H1       HT       0.417000       1.00800           0
     48871 TIP3     12985    TIP3     H2       HT       0.417000       1.00800           0
     48872 TIP3     12986    TIP3     OH2      OT      -0.834000       15.9994           0
     48873 TIP3     12986    TIP3     H1       HT       0.417000       1.00800           0
     48874 TIP3     12986    TIP3     H2       HT       0.417000       1.00800           0
     48875 TIP3     12987    TIP3     OH2      OT      -0.834000       15.9994           0
     48876 TIP3     12987    TIP3     H1       HT       0.417000       1.00800           0
     48877 TIP3     12987    TIP3     H2       HT       0.417000       1.00800           0
     48878 TIP3     12988    TIP3     OH2      OT      -0.834000       15.9994           0
     48879 TIP3     12988    TIP3     H1       HT       0.417000       1.00800           0
     48880 TIP3     12988    TIP3     H2       HT       0.417000       1.00800           0
     48881 TIP3     12989    TIP3     OH2      OT      -0.834000       15.9994           0
     48882 TIP3     12989    TIP3     H1       HT       0.417000       1.00800           0
     48883 TIP3     12989    TIP3     H2       HT       0.417000       1.00800           0
     48884 TIP3     12990    TIP3     OH2      OT      -0.834000       15.9994           0
     48885 TIP3     12990    TIP3     H1       HT       0.417000       1.00800           0
     48886 TIP3     12990    TIP3     H2       HT       0.417000       1.00800           0
     48887 TIP3     12991    TIP3     OH2      OT      -0.834000       15.9994           0
     48888 TIP3     12991    TIP3     H1       HT       0.417000       1.00800           0
     48889 TIP3     12991    TIP3     H2       HT       0.417000       1.00800           0
     48890 TIP3     12992    TIP3     OH2      OT      -0.834000       15.9994           0
     48891 TIP3     12992    TIP3     H1       HT       0.417000       1.00800           0
     48892 TIP3     12992    TIP3     H2       HT       0.417000       1.00800           0
     48893 TIP3     12993    TIP3     OH2      OT      -0.834000       15.9994           0
     48894 TIP3     12993    TIP3     H1       HT       0.417000       1.00800           0
     48895 TIP3     12993    TIP3     H2       HT       0.417000       1.00800           0
     48896 TIP3     12994    TIP3     OH2      OT      -0.834000       15.9994           0
     48897 TIP3     12994    TIP3     H1       HT       0.417000       1.00800           0
     48898 TIP3     12994    TIP3     H2       HT       0.417000       1.00800           0
     48899 TIP3     12995    TIP3     OH2      OT      -0.834000       15.9994           0
     48900 TIP3     12995    TIP3     H1       HT       0.417000       1.00800           0
     48901 TIP3     12995    TIP3     H2       HT       0.417000       1.00800           0
     48902 TIP3     12996    TIP3     OH2      OT      -0.834000       15.9994           0
     48903 TIP3     12996    TIP3     H1       HT       0.417000       1.00800           0
     48904 TIP3     12996    TIP3     H2       HT       0.417000       1.00800           0
     48905 TIP3     12997    TIP3     OH2      OT      -0.834000       15.9994           0
     48906 TIP3     12997    TIP3     H1       HT       0.417000       1.00800           0
     48907 TIP3     12997    TIP3     H2       HT       0.417000       1.00800           0
     48908 TIP3     12998    TIP3     OH2      OT      -0.834000       15.9994           0
     48909 TIP3     12998    TIP3     H1       HT       0.417000       1.00800           0
     48910 TIP3     12998    TIP3     H2       HT       0.417000       1.00800           0
     48911 TIP3     12999    TIP3     OH2      OT      -0.834000       15.9994           0
     48912 TIP3     12999    TIP3     H1       HT       0.417000       1.00800           0
     48913 TIP3     12999    TIP3     H2       HT       0.417000       1.00800           0
     48914 TIP3     13000    TIP3     OH2      OT      -0.834000       15.9994           0
     48915 TIP3     13000    TIP3     H1       HT       0.417000       1.00800           0
     48916 TIP3     13000    TIP3     H2       HT       0.417000       1.00800           0
     48917 TIP3     13001    TIP3     OH2      OT      -0.834000       15.9994           0
     48918 TIP3     13001    TIP3     H1       HT       0.417000       1.00800           0
     48919 TIP3     13001    TIP3     H2       HT       0.417000       1.00800           0
     48920 TIP3     13002    TIP3     OH2      OT      -0.834000       15.9994           0
     48921 TIP3     13002    TIP3     H1       HT       0.417000       1.00800           0
     48922 TIP3     13002    TIP3     H2       HT       0.417000       1.00800           0
     48923 TIP3     13003    TIP3     OH2      OT      -0.834000       15.9994           0
     48924 TIP3     13003    TIP3     H1       HT       0.417000       1.00800           0
     48925 TIP3     13003    TIP3     H2       HT       0.417000       1.00800           0
     48926 TIP3     13004    TIP3     OH2      OT      -0.834000       15.9994           0
     48927 TIP3     13004    TIP3     H1       HT       0.417000       1.00800           0
     48928 TIP3     13004    TIP3     H2       HT       0.417000       1.00800           0
     48929 TIP3     13005    TIP3     OH2      OT      -0.834000       15.9994           0
     48930 TIP3     13005    TIP3     H1       HT       0.417000       1.00800           0
     48931 TIP3     13005    TIP3     H2       HT       0.417000       1.00800           0
     48932 TIP3     13006    TIP3     OH2      OT      -0.834000       15.9994           0
     48933 TIP3     13006    TIP3     H1       HT       0.417000       1.00800           0
     48934 TIP3     13006    TIP3     H2       HT       0.417000       1.00800           0
     48935 TIP3     13007    TIP3     OH2      OT      -0.834000       15.9994           0
     48936 TIP3     13007    TIP3     H1       HT       0.417000       1.00800           0
     48937 TIP3     13007    TIP3     H2       HT       0.417000       1.00800           0
     48938 TIP3     13008    TIP3     OH2      OT      -0.834000       15.9994           0
     48939 TIP3     13008    TIP3     H1       HT       0.417000       1.00800           0
     48940 TIP3     13008    TIP3     H2       HT       0.417000       1.00800           0
     48941 TIP3     13009    TIP3     OH2      OT      -0.834000       15.9994           0
     48942 TIP3     13009    TIP3     H1       HT       0.417000       1.00800           0
     48943 TIP3     13009    TIP3     H2       HT       0.417000       1.00800           0
     48944 TIP3     13010    TIP3     OH2      OT      -0.834000       15.9994           0
     48945 TIP3     13010    TIP3     H1       HT       0.417000       1.00800           0
     48946 TIP3     13010    TIP3     H2       HT       0.417000       1.00800           0
     48947 TIP3     13011    TIP3     OH2      OT      -0.834000       15.9994           0
     48948 TIP3     13011    TIP3     H1       HT       0.417000       1.00800           0
     48949 TIP3     13011    TIP3     H2       HT       0.417000       1.00800           0
     48950 TIP3     13012    TIP3     OH2      OT      -0.834000       15.9994           0
     48951 TIP3     13012    TIP3     H1       HT       0.417000       1.00800           0
     48952 TIP3     13012    TIP3     H2       HT       0.417000       1.00800           0
     48953 TIP3     13013    TIP3     OH2      OT      -0.834000       15.9994           0
     48954 TIP3     13013    TIP3     H1       HT       0.417000       1.00800           0
     48955 TIP3     13013    TIP3     H2       HT       0.417000       1.00800           0
     48956 TIP3     13014    TIP3     OH2      OT      -0.834000       15.9994           0
     48957 TIP3     13014    TIP3     H1       HT       0.417000       1.00800           0
     48958 TIP3     13014    TIP3     H2       HT       0.417000       1.00800           0
     48959 TIP3     13015    TIP3     OH2      OT      -0.834000       15.9994           0
     48960 TIP3     13015    TIP3     H1       HT       0.417000       1.00800           0
     48961 TIP3     13015    TIP3     H2       HT       0.417000       1.00800           0
     48962 TIP3     13016    TIP3     OH2      OT      -0.834000       15.9994           0
     48963 TIP3     13016    TIP3     H1       HT       0.417000       1.00800           0
     48964 TIP3     13016    TIP3     H2       HT       0.417000       1.00800           0
     48965 TIP3     13017    TIP3     OH2      OT      -0.834000       15.9994           0
     48966 TIP3     13017    TIP3     H1       HT       0.417000       1.00800           0
     48967 TIP3     13017    TIP3     H2       HT       0.417000       1.00800           0
     48968 TIP3     13018    TIP3     OH2      OT      -0.834000       15.9994           0
     48969 TIP3     13018    TIP3     H1       HT       0.417000       1.00800           0
     48970 TIP3     13018    TIP3     H2       HT       0.417000       1.00800           0
     48971 TIP3     13019    TIP3     OH2      OT      -0.834000       15.9994           0
     48972 TIP3     13019    TIP3     H1       HT       0.417000       1.00800           0
     48973 TIP3     13019    TIP3     H2       HT       0.417000       1.00800           0
     48974 TIP3     13020    TIP3     OH2      OT      -0.834000       15.9994           0
     48975 TIP3     13020    TIP3     H1       HT       0.417000       1.00800           0
     48976 TIP3     13020    TIP3     H2       HT       0.417000       1.00800           0
     48977 TIP3     13021    TIP3     OH2      OT      -0.834000       15.9994           0
     48978 TIP3     13021    TIP3     H1       HT       0.417000       1.00800           0
     48979 TIP3     13021    TIP3     H2       HT       0.417000       1.00800           0
     48980 TIP3     13022    TIP3     OH2      OT      -0.834000       15.9994           0
     48981 TIP3     13022    TIP3     H1       HT       0.417000       1.00800           0
     48982 TIP3     13022    TIP3     H2       HT       0.417000       1.00800           0
     48983 TIP3     13023    TIP3     OH2      OT      -0.834000       15.9994           0
     48984 TIP3     13023    TIP3     H1       HT       0.417000       1.00800           0
     48985 TIP3     13023    TIP3     H2       HT       0.417000       1.00800           0
     48986 TIP3     13024    TIP3     OH2      OT      -0.834000       15.9994           0
     48987 TIP3     13024    TIP3     H1       HT       0.417000       1.00800           0
     48988 TIP3     13024    TIP3     H2       HT       0.417000       1.00800           0
     48989 TIP3     13025    TIP3     OH2      OT      -0.834000       15.9994           0
     48990 TIP3     13025    TIP3     H1       HT       0.417000       1.00800           0
     48991 TIP3     13025    TIP3     H2       HT       0.417000       1.00800           0
     48992 TIP3     13026    TIP3     OH2      OT      -0.834000       15.9994           0
     48993 TIP3     13026    TIP3     H1       HT       0.417000       1.00800           0
     48994 TIP3     13026    TIP3     H2       HT       0.417000       1.00800           0
     48995 TIP3     13027    TIP3     OH2      OT      -0.834000       15.9994           0
     48996 TIP3     13027    TIP3     H1       HT       0.417000       1.00800           0
     48997 TIP3     13027    TIP3     H2       HT       0.417000       1.00800           0
     48998 TIP3     13028    TIP3     OH2      OT      -0.834000       15.9994           0
     48999 TIP3     13028    TIP3     H1       HT       0.417000       1.00800           0
     49000 TIP3     13028    TIP3     H2       HT       0.417000       1.00800           0
     49001 TIP3     13029    TIP3     OH2      OT      -0.834000       15.9994           0
     49002 TIP3     13029    TIP3     H1       HT       0.417000       1.00800           0
     49003 TIP3     13029    TIP3     H2       HT       0.417000       1.00800           0
     49004 TIP3     13030    TIP3     OH2      OT      -0.834000       15.9994           0
     49005 TIP3     13030    TIP3     H1       HT       0.417000       1.00800           0
     49006 TIP3     13030    TIP3     H2       HT       0.417000       1.00800           0
     49007 TIP3     13031    TIP3     OH2      OT      -0.834000       15.9994           0
     49008 TIP3     13031    TIP3     H1       HT       0.417000       1.00800           0
     49009 TIP3     13031    TIP3     H2       HT       0.417000       1.00800           0
     49010 TIP3     13032    TIP3     OH2      OT      -0.834000       15.9994           0
     49011 TIP3     13032    TIP3     H1       HT       0.417000       1.00800           0
     49012 TIP3     13032    TIP3     H2       HT       0.417000       1.00800           0
     49013 TIP3     13033    TIP3     OH2      OT      -0.834000       15.9994           0
     49014 TIP3     13033    TIP3     H1       HT       0.417000       1.00800           0
     49015 TIP3     13033    TIP3     H2       HT       0.417000       1.00800           0
     49016 TIP3     13034    TIP3     OH2      OT      -0.834000       15.9994           0
     49017 TIP3     13034    TIP3     H1       HT       0.417000       1.00800           0
     49018 TIP3     13034    TIP3     H2       HT       0.417000       1.00800           0
     49019 TIP3     13035    TIP3     OH2      OT      -0.834000       15.9994           0
     49020 TIP3     13035    TIP3     H1       HT       0.417000       1.00800           0
     49021 TIP3     13035    TIP3     H2       HT       0.417000       1.00800           0
     49022 TIP3     13036    TIP3     OH2      OT      -0.834000       15.9994           0
     49023 TIP3     13036    TIP3     H1       HT       0.417000       1.00800           0
     49024 TIP3     13036    TIP3     H2       HT       0.417000       1.00800           0
     49025 TIP3     13037    TIP3     OH2      OT      -0.834000       15.9994           0
     49026 TIP3     13037    TIP3     H1       HT       0.417000       1.00800           0
     49027 TIP3     13037    TIP3     H2       HT       0.417000       1.00800           0
     49028 TIP3     13038    TIP3     OH2      OT      -0.834000       15.9994           0
     49029 TIP3     13038    TIP3     H1       HT       0.417000       1.00800           0
     49030 TIP3     13038    TIP3     H2       HT       0.417000       1.00800           0
     49031 TIP3     13039    TIP3     OH2      OT      -0.834000       15.9994           0
     49032 TIP3     13039    TIP3     H1       HT       0.417000       1.00800           0
     49033 TIP3     13039    TIP3     H2       HT       0.417000       1.00800           0
     49034 TIP3     13040    TIP3     OH2      OT      -0.834000       15.9994           0
     49035 TIP3     13040    TIP3     H1       HT       0.417000       1.00800           0
     49036 TIP3     13040    TIP3     H2       HT       0.417000       1.00800           0
     49037 TIP3     13041    TIP3     OH2      OT      -0.834000       15.9994           0
     49038 TIP3     13041    TIP3     H1       HT       0.417000       1.00800           0
     49039 TIP3     13041    TIP3     H2       HT       0.417000       1.00800           0
     49040 TIP3     13042    TIP3     OH2      OT      -0.834000       15.9994           0
     49041 TIP3     13042    TIP3     H1       HT       0.417000       1.00800           0
     49042 TIP3     13042    TIP3     H2       HT       0.417000       1.00800           0
     49043 TIP3     13043    TIP3     OH2      OT      -0.834000       15.9994           0
     49044 TIP3     13043    TIP3     H1       HT       0.417000       1.00800           0
     49045 TIP3     13043    TIP3     H2       HT       0.417000       1.00800           0
     49046 TIP3     13044    TIP3     OH2      OT      -0.834000       15.9994           0
     49047 TIP3     13044    TIP3     H1       HT       0.417000       1.00800           0
     49048 TIP3     13044    TIP3     H2       HT       0.417000       1.00800           0
     49049 TIP3     13045    TIP3     OH2      OT      -0.834000       15.9994           0
     49050 TIP3     13045    TIP3     H1       HT       0.417000       1.00800           0
     49051 TIP3     13045    TIP3     H2       HT       0.417000       1.00800           0
     49052 TIP3     13046    TIP3     OH2      OT      -0.834000       15.9994           0
     49053 TIP3     13046    TIP3     H1       HT       0.417000       1.00800           0
     49054 TIP3     13046    TIP3     H2       HT       0.417000       1.00800           0
     49055 TIP3     13047    TIP3     OH2      OT      -0.834000       15.9994           0
     49056 TIP3     13047    TIP3     H1       HT       0.417000       1.00800           0
     49057 TIP3     13047    TIP3     H2       HT       0.417000       1.00800           0
     49058 TIP3     13048    TIP3     OH2      OT      -0.834000       15.9994           0
     49059 TIP3     13048    TIP3     H1       HT       0.417000       1.00800           0
     49060 TIP3     13048    TIP3     H2       HT       0.417000       1.00800           0
     49061 TIP3     13049    TIP3     OH2      OT      -0.834000       15.9994           0
     49062 TIP3     13049    TIP3     H1       HT       0.417000       1.00800           0
     49063 TIP3     13049    TIP3     H2       HT       0.417000       1.00800           0
     49064 TIP3     13050    TIP3     OH2      OT      -0.834000       15.9994           0
     49065 TIP3     13050    TIP3     H1       HT       0.417000       1.00800           0
     49066 TIP3     13050    TIP3     H2       HT       0.417000       1.00800           0
     49067 TIP3     13051    TIP3     OH2      OT      -0.834000       15.9994           0
     49068 TIP3     13051    TIP3     H1       HT       0.417000       1.00800           0
     49069 TIP3     13051    TIP3     H2       HT       0.417000       1.00800           0
     49070 TIP3     13052    TIP3     OH2      OT      -0.834000       15.9994           0
     49071 TIP3     13052    TIP3     H1       HT       0.417000       1.00800           0
     49072 TIP3     13052    TIP3     H2       HT       0.417000       1.00800           0
     49073 TIP3     13053    TIP3     OH2      OT      -0.834000       15.9994           0
     49074 TIP3     13053    TIP3     H1       HT       0.417000       1.00800           0
     49075 TIP3     13053    TIP3     H2       HT       0.417000       1.00800           0
     49076 TIP3     13054    TIP3     OH2      OT      -0.834000       15.9994           0
     49077 TIP3     13054    TIP3     H1       HT       0.417000       1.00800           0
     49078 TIP3     13054    TIP3     H2       HT       0.417000       1.00800           0
     49079 TIP3     13055    TIP3     OH2      OT      -0.834000       15.9994           0
     49080 TIP3     13055    TIP3     H1       HT       0.417000       1.00800           0
     49081 TIP3     13055    TIP3     H2       HT       0.417000       1.00800           0
     49082 TIP3     13056    TIP3     OH2      OT      -0.834000       15.9994           0
     49083 TIP3     13056    TIP3     H1       HT       0.417000       1.00800           0
     49084 TIP3     13056    TIP3     H2       HT       0.417000       1.00800           0
     49085 TIP3     13057    TIP3     OH2      OT      -0.834000       15.9994           0
     49086 TIP3     13057    TIP3     H1       HT       0.417000       1.00800           0
     49087 TIP3     13057    TIP3     H2       HT       0.417000       1.00800           0
     49088 TIP3     13058    TIP3     OH2      OT      -0.834000       15.9994           0
     49089 TIP3     13058    TIP3     H1       HT       0.417000       1.00800           0
     49090 TIP3     13058    TIP3     H2       HT       0.417000       1.00800           0
     49091 TIP3     13059    TIP3     OH2      OT      -0.834000       15.9994           0
     49092 TIP3     13059    TIP3     H1       HT       0.417000       1.00800           0
     49093 TIP3     13059    TIP3     H2       HT       0.417000       1.00800           0
     49094 TIP3     13060    TIP3     OH2      OT      -0.834000       15.9994           0
     49095 TIP3     13060    TIP3     H1       HT       0.417000       1.00800           0
     49096 TIP3     13060    TIP3     H2       HT       0.417000       1.00800           0
     49097 TIP3     13061    TIP3     OH2      OT      -0.834000       15.9994           0
     49098 TIP3     13061    TIP3     H1       HT       0.417000       1.00800           0
     49099 TIP3     13061    TIP3     H2       HT       0.417000       1.00800           0
     49100 TIP3     13062    TIP3     OH2      OT      -0.834000       15.9994           0
     49101 TIP3     13062    TIP3     H1       HT       0.417000       1.00800           0
     49102 TIP3     13062    TIP3     H2       HT       0.417000       1.00800           0
     49103 TIP3     13063    TIP3     OH2      OT      -0.834000       15.9994           0
     49104 TIP3     13063    TIP3     H1       HT       0.417000       1.00800           0
     49105 TIP3     13063    TIP3     H2       HT       0.417000       1.00800           0
     49106 TIP3     13064    TIP3     OH2      OT      -0.834000       15.9994           0
     49107 TIP3     13064    TIP3     H1       HT       0.417000       1.00800           0
     49108 TIP3     13064    TIP3     H2       HT       0.417000       1.00800           0
     49109 TIP3     13065    TIP3     OH2      OT      -0.834000       15.9994           0
     49110 TIP3     13065    TIP3     H1       HT       0.417000       1.00800           0
     49111 TIP3     13065    TIP3     H2       HT       0.417000       1.00800           0
     49112 TIP3     13066    TIP3     OH2      OT      -0.834000       15.9994           0
     49113 TIP3     13066    TIP3     H1       HT       0.417000       1.00800           0
     49114 TIP3     13066    TIP3     H2       HT       0.417000       1.00800           0
     49115 TIP3     13067    TIP3     OH2      OT      -0.834000       15.9994           0
     49116 TIP3     13067    TIP3     H1       HT       0.417000       1.00800           0
     49117 TIP3     13067    TIP3     H2       HT       0.417000       1.00800           0
     49118 TIP3     13068    TIP3     OH2      OT      -0.834000       15.9994           0
     49119 TIP3     13068    TIP3     H1       HT       0.417000       1.00800           0
     49120 TIP3     13068    TIP3     H2       HT       0.417000       1.00800           0
     49121 TIP3     13069    TIP3     OH2      OT      -0.834000       15.9994           0
     49122 TIP3     13069    TIP3     H1       HT       0.417000       1.00800           0
     49123 TIP3     13069    TIP3     H2       HT       0.417000       1.00800           0
     49124 TIP3     13070    TIP3     OH2      OT      -0.834000       15.9994           0
     49125 TIP3     13070    TIP3     H1       HT       0.417000       1.00800           0
     49126 TIP3     13070    TIP3     H2       HT       0.417000       1.00800           0
     49127 TIP3     13071    TIP3     OH2      OT      -0.834000       15.9994           0
     49128 TIP3     13071    TIP3     H1       HT       0.417000       1.00800           0
     49129 TIP3     13071    TIP3     H2       HT       0.417000       1.00800           0
     49130 TIP3     13072    TIP3     OH2      OT      -0.834000       15.9994           0
     49131 TIP3     13072    TIP3     H1       HT       0.417000       1.00800           0
     49132 TIP3     13072    TIP3     H2       HT       0.417000       1.00800           0
     49133 TIP3     13073    TIP3     OH2      OT      -0.834000       15.9994           0
     49134 TIP3     13073    TIP3     H1       HT       0.417000       1.00800           0
     49135 TIP3     13073    TIP3     H2       HT       0.417000       1.00800           0
     49136 TIP3     13074    TIP3     OH2      OT      -0.834000       15.9994           0
     49137 TIP3     13074    TIP3     H1       HT       0.417000       1.00800           0
     49138 TIP3     13074    TIP3     H2       HT       0.417000       1.00800           0
     49139 TIP3     13075    TIP3     OH2      OT      -0.834000       15.9994           0
     49140 TIP3     13075    TIP3     H1       HT       0.417000       1.00800           0
     49141 TIP3     13075    TIP3     H2       HT       0.417000       1.00800           0
     49142 TIP3     13076    TIP3     OH2      OT      -0.834000       15.9994           0
     49143 TIP3     13076    TIP3     H1       HT       0.417000       1.00800           0
     49144 TIP3     13076    TIP3     H2       HT       0.417000       1.00800           0
     49145 TIP3     13077    TIP3     OH2      OT      -0.834000       15.9994           0
     49146 TIP3     13077    TIP3     H1       HT       0.417000       1.00800           0
     49147 TIP3     13077    TIP3     H2       HT       0.417000       1.00800           0
     49148 TIP3     13078    TIP3     OH2      OT      -0.834000       15.9994           0
     49149 TIP3     13078    TIP3     H1       HT       0.417000       1.00800           0
     49150 TIP3     13078    TIP3     H2       HT       0.417000       1.00800           0
     49151 TIP3     13079    TIP3     OH2      OT      -0.834000       15.9994           0
     49152 TIP3     13079    TIP3     H1       HT       0.417000       1.00800           0
     49153 TIP3     13079    TIP3     H2       HT       0.417000       1.00800           0
     49154 TIP3     13080    TIP3     OH2      OT      -0.834000       15.9994           0
     49155 TIP3     13080    TIP3     H1       HT       0.417000       1.00800           0
     49156 TIP3     13080    TIP3     H2       HT       0.417000       1.00800           0
     49157 TIP3     13081    TIP3     OH2      OT      -0.834000       15.9994           0
     49158 TIP3     13081    TIP3     H1       HT       0.417000       1.00800           0
     49159 TIP3     13081    TIP3     H2       HT       0.417000       1.00800           0
     49160 TIP3     13082    TIP3     OH2      OT      -0.834000       15.9994           0
     49161 TIP3     13082    TIP3     H1       HT       0.417000       1.00800           0
     49162 TIP3     13082    TIP3     H2       HT       0.417000       1.00800           0
     49163 TIP3     13083    TIP3     OH2      OT      -0.834000       15.9994           0
     49164 TIP3     13083    TIP3     H1       HT       0.417000       1.00800           0
     49165 TIP3     13083    TIP3     H2       HT       0.417000       1.00800           0
     49166 TIP3     13084    TIP3     OH2      OT      -0.834000       15.9994           0
     49167 TIP3     13084    TIP3     H1       HT       0.417000       1.00800           0
     49168 TIP3     13084    TIP3     H2       HT       0.417000       1.00800           0
     49169 TIP3     13085    TIP3     OH2      OT      -0.834000       15.9994           0
     49170 TIP3     13085    TIP3     H1       HT       0.417000       1.00800           0
     49171 TIP3     13085    TIP3     H2       HT       0.417000       1.00800           0
     49172 TIP3     13086    TIP3     OH2      OT      -0.834000       15.9994           0
     49173 TIP3     13086    TIP3     H1       HT       0.417000       1.00800           0
     49174 TIP3     13086    TIP3     H2       HT       0.417000       1.00800           0
     49175 TIP3     13087    TIP3     OH2      OT      -0.834000       15.9994           0
     49176 TIP3     13087    TIP3     H1       HT       0.417000       1.00800           0
     49177 TIP3     13087    TIP3     H2       HT       0.417000       1.00800           0
     49178 TIP3     13088    TIP3     OH2      OT      -0.834000       15.9994           0
     49179 TIP3     13088    TIP3     H1       HT       0.417000       1.00800           0
     49180 TIP3     13088    TIP3     H2       HT       0.417000       1.00800           0
     49181 TIP3     13089    TIP3     OH2      OT      -0.834000       15.9994           0
     49182 TIP3     13089    TIP3     H1       HT       0.417000       1.00800           0
     49183 TIP3     13089    TIP3     H2       HT       0.417000       1.00800           0
     49184 TIP3     13090    TIP3     OH2      OT      -0.834000       15.9994           0
     49185 TIP3     13090    TIP3     H1       HT       0.417000       1.00800           0
     49186 TIP3     13090    TIP3     H2       HT       0.417000       1.00800           0
     49187 TIP3     13091    TIP3     OH2      OT      -0.834000       15.9994           0
     49188 TIP3     13091    TIP3     H1       HT       0.417000       1.00800           0
     49189 TIP3     13091    TIP3     H2       HT       0.417000       1.00800           0
     49190 TIP3     13092    TIP3     OH2      OT      -0.834000       15.9994           0
     49191 TIP3     13092    TIP3     H1       HT       0.417000       1.00800           0
     49192 TIP3     13092    TIP3     H2       HT       0.417000       1.00800           0
     49193 TIP3     13093    TIP3     OH2      OT      -0.834000       15.9994           0
     49194 TIP3     13093    TIP3     H1       HT       0.417000       1.00800           0
     49195 TIP3     13093    TIP3     H2       HT       0.417000       1.00800           0
     49196 TIP3     13094    TIP3     OH2      OT      -0.834000       15.9994           0
     49197 TIP3     13094    TIP3     H1       HT       0.417000       1.00800           0
     49198 TIP3     13094    TIP3     H2       HT       0.417000       1.00800           0
     49199 TIP3     13095    TIP3     OH2      OT      -0.834000       15.9994           0
     49200 TIP3     13095    TIP3     H1       HT       0.417000       1.00800           0
     49201 TIP3     13095    TIP3     H2       HT       0.417000       1.00800           0
     49202 TIP3     13096    TIP3     OH2      OT      -0.834000       15.9994           0
     49203 TIP3     13096    TIP3     H1       HT       0.417000       1.00800           0
     49204 TIP3     13096    TIP3     H2       HT       0.417000       1.00800           0
     49205 TIP3     13097    TIP3     OH2      OT      -0.834000       15.9994           0
     49206 TIP3     13097    TIP3     H1       HT       0.417000       1.00800           0
     49207 TIP3     13097    TIP3     H2       HT       0.417000       1.00800           0
     49208 TIP3     13098    TIP3     OH2      OT      -0.834000       15.9994           0
     49209 TIP3     13098    TIP3     H1       HT       0.417000       1.00800           0
     49210 TIP3     13098    TIP3     H2       HT       0.417000       1.00800           0
     49211 TIP3     13099    TIP3     OH2      OT      -0.834000       15.9994           0
     49212 TIP3     13099    TIP3     H1       HT       0.417000       1.00800           0
     49213 TIP3     13099    TIP3     H2       HT       0.417000       1.00800           0
     49214 TIP3     13100    TIP3     OH2      OT      -0.834000       15.9994           0
     49215 TIP3     13100    TIP3     H1       HT       0.417000       1.00800           0
     49216 TIP3     13100    TIP3     H2       HT       0.417000       1.00800           0
     49217 TIP3     13101    TIP3     OH2      OT      -0.834000       15.9994           0
     49218 TIP3     13101    TIP3     H1       HT       0.417000       1.00800           0
     49219 TIP3     13101    TIP3     H2       HT       0.417000       1.00800           0
     49220 TIP3     13102    TIP3     OH2      OT      -0.834000       15.9994           0
     49221 TIP3     13102    TIP3     H1       HT       0.417000       1.00800           0
     49222 TIP3     13102    TIP3     H2       HT       0.417000       1.00800           0
     49223 TIP3     13103    TIP3     OH2      OT      -0.834000       15.9994           0
     49224 TIP3     13103    TIP3     H1       HT       0.417000       1.00800           0
     49225 TIP3     13103    TIP3     H2       HT       0.417000       1.00800           0
     49226 TIP3     13104    TIP3     OH2      OT      -0.834000       15.9994           0
     49227 TIP3     13104    TIP3     H1       HT       0.417000       1.00800           0
     49228 TIP3     13104    TIP3     H2       HT       0.417000       1.00800           0
     49229 TIP3     13105    TIP3     OH2      OT      -0.834000       15.9994           0
     49230 TIP3     13105    TIP3     H1       HT       0.417000       1.00800           0
     49231 TIP3     13105    TIP3     H2       HT       0.417000       1.00800           0
     49232 TIP3     13106    TIP3     OH2      OT      -0.834000       15.9994           0
     49233 TIP3     13106    TIP3     H1       HT       0.417000       1.00800           0
     49234 TIP3     13106    TIP3     H2       HT       0.417000       1.00800           0
     49235 TIP3     13107    TIP3     OH2      OT      -0.834000       15.9994           0
     49236 TIP3     13107    TIP3     H1       HT       0.417000       1.00800           0
     49237 TIP3     13107    TIP3     H2       HT       0.417000       1.00800           0
     49238 TIP3     13108    TIP3     OH2      OT      -0.834000       15.9994           0
     49239 TIP3     13108    TIP3     H1       HT       0.417000       1.00800           0
     49240 TIP3     13108    TIP3     H2       HT       0.417000       1.00800           0
     49241 TIP3     13109    TIP3     OH2      OT      -0.834000       15.9994           0
     49242 TIP3     13109    TIP3     H1       HT       0.417000       1.00800           0
     49243 TIP3     13109    TIP3     H2       HT       0.417000       1.00800           0
     49244 TIP3     13110    TIP3     OH2      OT      -0.834000       15.9994           0
     49245 TIP3     13110    TIP3     H1       HT       0.417000       1.00800           0
     49246 TIP3     13110    TIP3     H2       HT       0.417000       1.00800           0
     49247 TIP3     13111    TIP3     OH2      OT      -0.834000       15.9994           0
     49248 TIP3     13111    TIP3     H1       HT       0.417000       1.00800           0
     49249 TIP3     13111    TIP3     H2       HT       0.417000       1.00800           0
     49250 TIP3     13112    TIP3     OH2      OT      -0.834000       15.9994           0
     49251 TIP3     13112    TIP3     H1       HT       0.417000       1.00800           0
     49252 TIP3     13112    TIP3     H2       HT       0.417000       1.00800           0
     49253 TIP3     13113    TIP3     OH2      OT      -0.834000       15.9994           0
     49254 TIP3     13113    TIP3     H1       HT       0.417000       1.00800           0
     49255 TIP3     13113    TIP3     H2       HT       0.417000       1.00800           0
     49256 TIP3     13114    TIP3     OH2      OT      -0.834000       15.9994           0
     49257 TIP3     13114    TIP3     H1       HT       0.417000       1.00800           0
     49258 TIP3     13114    TIP3     H2       HT       0.417000       1.00800           0
     49259 TIP3     13115    TIP3     OH2      OT      -0.834000       15.9994           0
     49260 TIP3     13115    TIP3     H1       HT       0.417000       1.00800           0
     49261 TIP3     13115    TIP3     H2       HT       0.417000       1.00800           0
     49262 TIP3     13116    TIP3     OH2      OT      -0.834000       15.9994           0
     49263 TIP3     13116    TIP3     H1       HT       0.417000       1.00800           0
     49264 TIP3     13116    TIP3     H2       HT       0.417000       1.00800           0
     49265 TIP3     13117    TIP3     OH2      OT      -0.834000       15.9994           0
     49266 TIP3     13117    TIP3     H1       HT       0.417000       1.00800           0
     49267 TIP3     13117    TIP3     H2       HT       0.417000       1.00800           0
     49268 TIP3     13118    TIP3     OH2      OT      -0.834000       15.9994           0
     49269 TIP3     13118    TIP3     H1       HT       0.417000       1.00800           0
     49270 TIP3     13118    TIP3     H2       HT       0.417000       1.00800           0
     49271 TIP3     13119    TIP3     OH2      OT      -0.834000       15.9994           0
     49272 TIP3     13119    TIP3     H1       HT       0.417000       1.00800           0
     49273 TIP3     13119    TIP3     H2       HT       0.417000       1.00800           0
     49274 TIP3     13120    TIP3     OH2      OT      -0.834000       15.9994           0
     49275 TIP3     13120    TIP3     H1       HT       0.417000       1.00800           0
     49276 TIP3     13120    TIP3     H2       HT       0.417000       1.00800           0
     49277 TIP3     13121    TIP3     OH2      OT      -0.834000       15.9994           0
     49278 TIP3     13121    TIP3     H1       HT       0.417000       1.00800           0
     49279 TIP3     13121    TIP3     H2       HT       0.417000       1.00800           0
     49280 TIP3     13122    TIP3     OH2      OT      -0.834000       15.9994           0
     49281 TIP3     13122    TIP3     H1       HT       0.417000       1.00800           0
     49282 TIP3     13122    TIP3     H2       HT       0.417000       1.00800           0
     49283 TIP3     13123    TIP3     OH2      OT      -0.834000       15.9994           0
     49284 TIP3     13123    TIP3     H1       HT       0.417000       1.00800           0
     49285 TIP3     13123    TIP3     H2       HT       0.417000       1.00800           0
     49286 TIP3     13124    TIP3     OH2      OT      -0.834000       15.9994           0
     49287 TIP3     13124    TIP3     H1       HT       0.417000       1.00800           0
     49288 TIP3     13124    TIP3     H2       HT       0.417000       1.00800           0
     49289 TIP3     13125    TIP3     OH2      OT      -0.834000       15.9994           0
     49290 TIP3     13125    TIP3     H1       HT       0.417000       1.00800           0
     49291 TIP3     13125    TIP3     H2       HT       0.417000       1.00800           0
     49292 TIP3     13126    TIP3     OH2      OT      -0.834000       15.9994           0
     49293 TIP3     13126    TIP3     H1       HT       0.417000       1.00800           0
     49294 TIP3     13126    TIP3     H2       HT       0.417000       1.00800           0
     49295 TIP3     13127    TIP3     OH2      OT      -0.834000       15.9994           0
     49296 TIP3     13127    TIP3     H1       HT       0.417000       1.00800           0
     49297 TIP3     13127    TIP3     H2       HT       0.417000       1.00800           0
     49298 TIP3     13128    TIP3     OH2      OT      -0.834000       15.9994           0
     49299 TIP3     13128    TIP3     H1       HT       0.417000       1.00800           0
     49300 TIP3     13128    TIP3     H2       HT       0.417000       1.00800           0
     49301 TIP3     13129    TIP3     OH2      OT      -0.834000       15.9994           0
     49302 TIP3     13129    TIP3     H1       HT       0.417000       1.00800           0
     49303 TIP3     13129    TIP3     H2       HT       0.417000       1.00800           0
     49304 TIP3     13130    TIP3     OH2      OT      -0.834000       15.9994           0
     49305 TIP3     13130    TIP3     H1       HT       0.417000       1.00800           0
     49306 TIP3     13130    TIP3     H2       HT       0.417000       1.00800           0
     49307 TIP3     13131    TIP3     OH2      OT      -0.834000       15.9994           0
     49308 TIP3     13131    TIP3     H1       HT       0.417000       1.00800           0
     49309 TIP3     13131    TIP3     H2       HT       0.417000       1.00800           0
     49310 TIP3     13132    TIP3     OH2      OT      -0.834000       15.9994           0
     49311 TIP3     13132    TIP3     H1       HT       0.417000       1.00800           0
     49312 TIP3     13132    TIP3     H2       HT       0.417000       1.00800           0
     49313 TIP3     13133    TIP3     OH2      OT      -0.834000       15.9994           0
     49314 TIP3     13133    TIP3     H1       HT       0.417000       1.00800           0
     49315 TIP3     13133    TIP3     H2       HT       0.417000       1.00800           0
     49316 TIP3     13134    TIP3     OH2      OT      -0.834000       15.9994           0
     49317 TIP3     13134    TIP3     H1       HT       0.417000       1.00800           0
     49318 TIP3     13134    TIP3     H2       HT       0.417000       1.00800           0
     49319 TIP3     13135    TIP3     OH2      OT      -0.834000       15.9994           0
     49320 TIP3     13135    TIP3     H1       HT       0.417000       1.00800           0
     49321 TIP3     13135    TIP3     H2       HT       0.417000       1.00800           0
     49322 TIP3     13136    TIP3     OH2      OT      -0.834000       15.9994           0
     49323 TIP3     13136    TIP3     H1       HT       0.417000       1.00800           0
     49324 TIP3     13136    TIP3     H2       HT       0.417000       1.00800           0
     49325 TIP3     13137    TIP3     OH2      OT      -0.834000       15.9994           0
     49326 TIP3     13137    TIP3     H1       HT       0.417000       1.00800           0
     49327 TIP3     13137    TIP3     H2       HT       0.417000       1.00800           0
     49328 TIP3     13138    TIP3     OH2      OT      -0.834000       15.9994           0
     49329 TIP3     13138    TIP3     H1       HT       0.417000       1.00800           0
     49330 TIP3     13138    TIP3     H2       HT       0.417000       1.00800           0
     49331 TIP3     13139    TIP3     OH2      OT      -0.834000       15.9994           0
     49332 TIP3     13139    TIP3     H1       HT       0.417000       1.00800           0
     49333 TIP3     13139    TIP3     H2       HT       0.417000       1.00800           0
     49334 TIP3     13140    TIP3     OH2      OT      -0.834000       15.9994           0
     49335 TIP3     13140    TIP3     H1       HT       0.417000       1.00800           0
     49336 TIP3     13140    TIP3     H2       HT       0.417000       1.00800           0
     49337 TIP3     13141    TIP3     OH2      OT      -0.834000       15.9994           0
     49338 TIP3     13141    TIP3     H1       HT       0.417000       1.00800           0
     49339 TIP3     13141    TIP3     H2       HT       0.417000       1.00800           0
     49340 TIP3     13142    TIP3     OH2      OT      -0.834000       15.9994           0
     49341 TIP3     13142    TIP3     H1       HT       0.417000       1.00800           0
     49342 TIP3     13142    TIP3     H2       HT       0.417000       1.00800           0
     49343 TIP3     13143    TIP3     OH2      OT      -0.834000       15.9994           0
     49344 TIP3     13143    TIP3     H1       HT       0.417000       1.00800           0
     49345 TIP3     13143    TIP3     H2       HT       0.417000       1.00800           0
     49346 TIP3     13144    TIP3     OH2      OT      -0.834000       15.9994           0
     49347 TIP3     13144    TIP3     H1       HT       0.417000       1.00800           0
     49348 TIP3     13144    TIP3     H2       HT       0.417000       1.00800           0
     49349 TIP3     13145    TIP3     OH2      OT      -0.834000       15.9994           0
     49350 TIP3     13145    TIP3     H1       HT       0.417000       1.00800           0
     49351 TIP3     13145    TIP3     H2       HT       0.417000       1.00800           0
     49352 TIP3     13146    TIP3     OH2      OT      -0.834000       15.9994           0
     49353 TIP3     13146    TIP3     H1       HT       0.417000       1.00800           0
     49354 TIP3     13146    TIP3     H2       HT       0.417000       1.00800           0
     49355 TIP3     13147    TIP3     OH2      OT      -0.834000       15.9994           0
     49356 TIP3     13147    TIP3     H1       HT       0.417000       1.00800           0
     49357 TIP3     13147    TIP3     H2       HT       0.417000       1.00800           0
     49358 TIP3     13148    TIP3     OH2      OT      -0.834000       15.9994           0
     49359 TIP3     13148    TIP3     H1       HT       0.417000       1.00800           0
     49360 TIP3     13148    TIP3     H2       HT       0.417000       1.00800           0
     49361 TIP3     13149    TIP3     OH2      OT      -0.834000       15.9994           0
     49362 TIP3     13149    TIP3     H1       HT       0.417000       1.00800           0
     49363 TIP3     13149    TIP3     H2       HT       0.417000       1.00800           0
     49364 TIP3     13150    TIP3     OH2      OT      -0.834000       15.9994           0
     49365 TIP3     13150    TIP3     H1       HT       0.417000       1.00800           0
     49366 TIP3     13150    TIP3     H2       HT       0.417000       1.00800           0
     49367 TIP3     13151    TIP3     OH2      OT      -0.834000       15.9994           0
     49368 TIP3     13151    TIP3     H1       HT       0.417000       1.00800           0
     49369 TIP3     13151    TIP3     H2       HT       0.417000       1.00800           0
     49370 TIP3     13152    TIP3     OH2      OT      -0.834000       15.9994           0
     49371 TIP3     13152    TIP3     H1       HT       0.417000       1.00800           0
     49372 TIP3     13152    TIP3     H2       HT       0.417000       1.00800           0
     49373 TIP3     13153    TIP3     OH2      OT      -0.834000       15.9994           0
     49374 TIP3     13153    TIP3     H1       HT       0.417000       1.00800           0
     49375 TIP3     13153    TIP3     H2       HT       0.417000       1.00800           0
     49376 TIP3     13154    TIP3     OH2      OT      -0.834000       15.9994           0
     49377 TIP3     13154    TIP3     H1       HT       0.417000       1.00800           0
     49378 TIP3     13154    TIP3     H2       HT       0.417000       1.00800           0
     49379 TIP3     13155    TIP3     OH2      OT      -0.834000       15.9994           0
     49380 TIP3     13155    TIP3     H1       HT       0.417000       1.00800           0
     49381 TIP3     13155    TIP3     H2       HT       0.417000       1.00800           0
     49382 TIP3     13156    TIP3     OH2      OT      -0.834000       15.9994           0
     49383 TIP3     13156    TIP3     H1       HT       0.417000       1.00800           0
     49384 TIP3     13156    TIP3     H2       HT       0.417000       1.00800           0
     49385 TIP3     13157    TIP3     OH2      OT      -0.834000       15.9994           0
     49386 TIP3     13157    TIP3     H1       HT       0.417000       1.00800           0
     49387 TIP3     13157    TIP3     H2       HT       0.417000       1.00800           0
     49388 TIP3     13158    TIP3     OH2      OT      -0.834000       15.9994           0
     49389 TIP3     13158    TIP3     H1       HT       0.417000       1.00800           0
     49390 TIP3     13158    TIP3     H2       HT       0.417000       1.00800           0
     49391 TIP3     13159    TIP3     OH2      OT      -0.834000       15.9994           0
     49392 TIP3     13159    TIP3     H1       HT       0.417000       1.00800           0
     49393 TIP3     13159    TIP3     H2       HT       0.417000       1.00800           0
     49394 TIP3     13160    TIP3     OH2      OT      -0.834000       15.9994           0
     49395 TIP3     13160    TIP3     H1       HT       0.417000       1.00800           0
     49396 TIP3     13160    TIP3     H2       HT       0.417000       1.00800           0
     49397 TIP3     13161    TIP3     OH2      OT      -0.834000       15.9994           0
     49398 TIP3     13161    TIP3     H1       HT       0.417000       1.00800           0
     49399 TIP3     13161    TIP3     H2       HT       0.417000       1.00800           0
     49400 TIP3     13162    TIP3     OH2      OT      -0.834000       15.9994           0
     49401 TIP3     13162    TIP3     H1       HT       0.417000       1.00800           0
     49402 TIP3     13162    TIP3     H2       HT       0.417000       1.00800           0
     49403 TIP3     13163    TIP3     OH2      OT      -0.834000       15.9994           0
     49404 TIP3     13163    TIP3     H1       HT       0.417000       1.00800           0
     49405 TIP3     13163    TIP3     H2       HT       0.417000       1.00800           0
     49406 TIP3     13164    TIP3     OH2      OT      -0.834000       15.9994           0
     49407 TIP3     13164    TIP3     H1       HT       0.417000       1.00800           0
     49408 TIP3     13164    TIP3     H2       HT       0.417000       1.00800           0
     49409 TIP3     13165    TIP3     OH2      OT      -0.834000       15.9994           0
     49410 TIP3     13165    TIP3     H1       HT       0.417000       1.00800           0
     49411 TIP3     13165    TIP3     H2       HT       0.417000       1.00800           0
     49412 TIP3     13166    TIP3     OH2      OT      -0.834000       15.9994           0
     49413 TIP3     13166    TIP3     H1       HT       0.417000       1.00800           0
     49414 TIP3     13166    TIP3     H2       HT       0.417000       1.00800           0
     49415 TIP3     13167    TIP3     OH2      OT      -0.834000       15.9994           0
     49416 TIP3     13167    TIP3     H1       HT       0.417000       1.00800           0
     49417 TIP3     13167    TIP3     H2       HT       0.417000       1.00800           0
     49418 TIP3     13168    TIP3     OH2      OT      -0.834000       15.9994           0
     49419 TIP3     13168    TIP3     H1       HT       0.417000       1.00800           0
     49420 TIP3     13168    TIP3     H2       HT       0.417000       1.00800           0
     49421 TIP3     13169    TIP3     OH2      OT      -0.834000       15.9994           0
     49422 TIP3     13169    TIP3     H1       HT       0.417000       1.00800           0
     49423 TIP3     13169    TIP3     H2       HT       0.417000       1.00800           0
     49424 TIP3     13170    TIP3     OH2      OT      -0.834000       15.9994           0
     49425 TIP3     13170    TIP3     H1       HT       0.417000       1.00800           0
     49426 TIP3     13170    TIP3     H2       HT       0.417000       1.00800           0
     49427 TIP3     13171    TIP3     OH2      OT      -0.834000       15.9994           0
     49428 TIP3     13171    TIP3     H1       HT       0.417000       1.00800           0
     49429 TIP3     13171    TIP3     H2       HT       0.417000       1.00800           0
     49430 TIP3     13172    TIP3     OH2      OT      -0.834000       15.9994           0
     49431 TIP3     13172    TIP3     H1       HT       0.417000       1.00800           0
     49432 TIP3     13172    TIP3     H2       HT       0.417000       1.00800           0
     49433 TIP3     13173    TIP3     OH2      OT      -0.834000       15.9994           0
     49434 TIP3     13173    TIP3     H1       HT       0.417000       1.00800           0
     49435 TIP3     13173    TIP3     H2       HT       0.417000       1.00800           0
     49436 TIP3     13174    TIP3     OH2      OT      -0.834000       15.9994           0
     49437 TIP3     13174    TIP3     H1       HT       0.417000       1.00800           0
     49438 TIP3     13174    TIP3     H2       HT       0.417000       1.00800           0
     49439 TIP3     13175    TIP3     OH2      OT      -0.834000       15.9994           0
     49440 TIP3     13175    TIP3     H1       HT       0.417000       1.00800           0
     49441 TIP3     13175    TIP3     H2       HT       0.417000       1.00800           0
     49442 TIP3     13176    TIP3     OH2      OT      -0.834000       15.9994           0
     49443 TIP3     13176    TIP3     H1       HT       0.417000       1.00800           0
     49444 TIP3     13176    TIP3     H2       HT       0.417000       1.00800           0
     49445 TIP3     13177    TIP3     OH2      OT      -0.834000       15.9994           0
     49446 TIP3     13177    TIP3     H1       HT       0.417000       1.00800           0
     49447 TIP3     13177    TIP3     H2       HT       0.417000       1.00800           0
     49448 TIP3     13178    TIP3     OH2      OT      -0.834000       15.9994           0
     49449 TIP3     13178    TIP3     H1       HT       0.417000       1.00800           0
     49450 TIP3     13178    TIP3     H2       HT       0.417000       1.00800           0
     49451 TIP3     13179    TIP3     OH2      OT      -0.834000       15.9994           0
     49452 TIP3     13179    TIP3     H1       HT       0.417000       1.00800           0
     49453 TIP3     13179    TIP3     H2       HT       0.417000       1.00800           0
     49454 TIP3     13180    TIP3     OH2      OT      -0.834000       15.9994           0
     49455 TIP3     13180    TIP3     H1       HT       0.417000       1.00800           0
     49456 TIP3     13180    TIP3     H2       HT       0.417000       1.00800           0
     49457 TIP3     13181    TIP3     OH2      OT      -0.834000       15.9994           0
     49458 TIP3     13181    TIP3     H1       HT       0.417000       1.00800           0
     49459 TIP3     13181    TIP3     H2       HT       0.417000       1.00800           0
     49460 TIP3     13182    TIP3     OH2      OT      -0.834000       15.9994           0
     49461 TIP3     13182    TIP3     H1       HT       0.417000       1.00800           0
     49462 TIP3     13182    TIP3     H2       HT       0.417000       1.00800           0
     49463 TIP3     13183    TIP3     OH2      OT      -0.834000       15.9994           0
     49464 TIP3     13183    TIP3     H1       HT       0.417000       1.00800           0
     49465 TIP3     13183    TIP3     H2       HT       0.417000       1.00800           0
     49466 TIP3     13184    TIP3     OH2      OT      -0.834000       15.9994           0
     49467 TIP3     13184    TIP3     H1       HT       0.417000       1.00800           0
     49468 TIP3     13184    TIP3     H2       HT       0.417000       1.00800           0
     49469 TIP3     13185    TIP3     OH2      OT      -0.834000       15.9994           0
     49470 TIP3     13185    TIP3     H1       HT       0.417000       1.00800           0
     49471 TIP3     13185    TIP3     H2       HT       0.417000       1.00800           0
     49472 TIP3     13186    TIP3     OH2      OT      -0.834000       15.9994           0
     49473 TIP3     13186    TIP3     H1       HT       0.417000       1.00800           0
     49474 TIP3     13186    TIP3     H2       HT       0.417000       1.00800           0
     49475 TIP3     13187    TIP3     OH2      OT      -0.834000       15.9994           0
     49476 TIP3     13187    TIP3     H1       HT       0.417000       1.00800           0
     49477 TIP3     13187    TIP3     H2       HT       0.417000       1.00800           0
     49478 TIP3     13188    TIP3     OH2      OT      -0.834000       15.9994           0
     49479 TIP3     13188    TIP3     H1       HT       0.417000       1.00800           0
     49480 TIP3     13188    TIP3     H2       HT       0.417000       1.00800           0
     49481 TIP3     13189    TIP3     OH2      OT      -0.834000       15.9994           0
     49482 TIP3     13189    TIP3     H1       HT       0.417000       1.00800           0
     49483 TIP3     13189    TIP3     H2       HT       0.417000       1.00800           0
     49484 TIP3     13190    TIP3     OH2      OT      -0.834000       15.9994           0
     49485 TIP3     13190    TIP3     H1       HT       0.417000       1.00800           0
     49486 TIP3     13190    TIP3     H2       HT       0.417000       1.00800           0
     49487 TIP3     13191    TIP3     OH2      OT      -0.834000       15.9994           0
     49488 TIP3     13191    TIP3     H1       HT       0.417000       1.00800           0
     49489 TIP3     13191    TIP3     H2       HT       0.417000       1.00800           0
     49490 TIP3     13192    TIP3     OH2      OT      -0.834000       15.9994           0
     49491 TIP3     13192    TIP3     H1       HT       0.417000       1.00800           0
     49492 TIP3     13192    TIP3     H2       HT       0.417000       1.00800           0
     49493 TIP3     13193    TIP3     OH2      OT      -0.834000       15.9994           0
     49494 TIP3     13193    TIP3     H1       HT       0.417000       1.00800           0
     49495 TIP3     13193    TIP3     H2       HT       0.417000       1.00800           0
     49496 TIP3     13194    TIP3     OH2      OT      -0.834000       15.9994           0
     49497 TIP3     13194    TIP3     H1       HT       0.417000       1.00800           0
     49498 TIP3     13194    TIP3     H2       HT       0.417000       1.00800           0
     49499 TIP3     13195    TIP3     OH2      OT      -0.834000       15.9994           0
     49500 TIP3     13195    TIP3     H1       HT       0.417000       1.00800           0
     49501 TIP3     13195    TIP3     H2       HT       0.417000       1.00800           0
     49502 TIP3     13196    TIP3     OH2      OT      -0.834000       15.9994           0
     49503 TIP3     13196    TIP3     H1       HT       0.417000       1.00800           0
     49504 TIP3     13196    TIP3     H2       HT       0.417000       1.00800           0
     49505 TIP3     13197    TIP3     OH2      OT      -0.834000       15.9994           0
     49506 TIP3     13197    TIP3     H1       HT       0.417000       1.00800           0
     49507 TIP3     13197    TIP3     H2       HT       0.417000       1.00800           0
     49508 TIP3     13198    TIP3     OH2      OT      -0.834000       15.9994           0
     49509 TIP3     13198    TIP3     H1       HT       0.417000       1.00800           0
     49510 TIP3     13198    TIP3     H2       HT       0.417000       1.00800           0
     49511 TIP3     13199    TIP3     OH2      OT      -0.834000       15.9994           0
     49512 TIP3     13199    TIP3     H1       HT       0.417000       1.00800           0
     49513 TIP3     13199    TIP3     H2       HT       0.417000       1.00800           0
     49514 TIP3     13200    TIP3     OH2      OT      -0.834000       15.9994           0
     49515 TIP3     13200    TIP3     H1       HT       0.417000       1.00800           0
     49516 TIP3     13200    TIP3     H2       HT       0.417000       1.00800           0
     49517 TIP3     13201    TIP3     OH2      OT      -0.834000       15.9994           0
     49518 TIP3     13201    TIP3     H1       HT       0.417000       1.00800           0
     49519 TIP3     13201    TIP3     H2       HT       0.417000       1.00800           0
     49520 TIP3     13202    TIP3     OH2      OT      -0.834000       15.9994           0
     49521 TIP3     13202    TIP3     H1       HT       0.417000       1.00800           0
     49522 TIP3     13202    TIP3     H2       HT       0.417000       1.00800           0
     49523 TIP3     13203    TIP3     OH2      OT      -0.834000       15.9994           0
     49524 TIP3     13203    TIP3     H1       HT       0.417000       1.00800           0
     49525 TIP3     13203    TIP3     H2       HT       0.417000       1.00800           0
     49526 TIP3     13204    TIP3     OH2      OT      -0.834000       15.9994           0
     49527 TIP3     13204    TIP3     H1       HT       0.417000       1.00800           0
     49528 TIP3     13204    TIP3     H2       HT       0.417000       1.00800           0
     49529 TIP3     13205    TIP3     OH2      OT      -0.834000       15.9994           0
     49530 TIP3     13205    TIP3     H1       HT       0.417000       1.00800           0
     49531 TIP3     13205    TIP3     H2       HT       0.417000       1.00800           0
     49532 TIP3     13206    TIP3     OH2      OT      -0.834000       15.9994           0
     49533 TIP3     13206    TIP3     H1       HT       0.417000       1.00800           0
     49534 TIP3     13206    TIP3     H2       HT       0.417000       1.00800           0
     49535 TIP3     13207    TIP3     OH2      OT      -0.834000       15.9994           0
     49536 TIP3     13207    TIP3     H1       HT       0.417000       1.00800           0
     49537 TIP3     13207    TIP3     H2       HT       0.417000       1.00800           0
     49538 TIP3     13208    TIP3     OH2      OT      -0.834000       15.9994           0
     49539 TIP3     13208    TIP3     H1       HT       0.417000       1.00800           0
     49540 TIP3     13208    TIP3     H2       HT       0.417000       1.00800           0
     49541 TIP3     13209    TIP3     OH2      OT      -0.834000       15.9994           0
     49542 TIP3     13209    TIP3     H1       HT       0.417000       1.00800           0
     49543 TIP3     13209    TIP3     H2       HT       0.417000       1.00800           0
     49544 TIP3     13210    TIP3     OH2      OT      -0.834000       15.9994           0
     49545 TIP3     13210    TIP3     H1       HT       0.417000       1.00800           0
     49546 TIP3     13210    TIP3     H2       HT       0.417000       1.00800           0
     49547 TIP3     13211    TIP3     OH2      OT      -0.834000       15.9994           0
     49548 TIP3     13211    TIP3     H1       HT       0.417000       1.00800           0
     49549 TIP3     13211    TIP3     H2       HT       0.417000       1.00800           0
     49550 TIP3     13212    TIP3     OH2      OT      -0.834000       15.9994           0
     49551 TIP3     13212    TIP3     H1       HT       0.417000       1.00800           0
     49552 TIP3     13212    TIP3     H2       HT       0.417000       1.00800           0
     49553 TIP3     13213    TIP3     OH2      OT      -0.834000       15.9994           0
     49554 TIP3     13213    TIP3     H1       HT       0.417000       1.00800           0
     49555 TIP3     13213    TIP3     H2       HT       0.417000       1.00800           0
     49556 TIP3     13214    TIP3     OH2      OT      -0.834000       15.9994           0
     49557 TIP3     13214    TIP3     H1       HT       0.417000       1.00800           0
     49558 TIP3     13214    TIP3     H2       HT       0.417000       1.00800           0
     49559 TIP3     13215    TIP3     OH2      OT      -0.834000       15.9994           0
     49560 TIP3     13215    TIP3     H1       HT       0.417000       1.00800           0
     49561 TIP3     13215    TIP3     H2       HT       0.417000       1.00800           0
     49562 TIP3     13216    TIP3     OH2      OT      -0.834000       15.9994           0
     49563 TIP3     13216    TIP3     H1       HT       0.417000       1.00800           0
     49564 TIP3     13216    TIP3     H2       HT       0.417000       1.00800           0
     49565 TIP3     13217    TIP3     OH2      OT      -0.834000       15.9994           0
     49566 TIP3     13217    TIP3     H1       HT       0.417000       1.00800           0
     49567 TIP3     13217    TIP3     H2       HT       0.417000       1.00800           0
     49568 TIP3     13218    TIP3     OH2      OT      -0.834000       15.9994           0
     49569 TIP3     13218    TIP3     H1       HT       0.417000       1.00800           0
     49570 TIP3     13218    TIP3     H2       HT       0.417000       1.00800           0
     49571 TIP3     13219    TIP3     OH2      OT      -0.834000       15.9994           0
     49572 TIP3     13219    TIP3     H1       HT       0.417000       1.00800           0
     49573 TIP3     13219    TIP3     H2       HT       0.417000       1.00800           0
     49574 TIP3     13220    TIP3     OH2      OT      -0.834000       15.9994           0
     49575 TIP3     13220    TIP3     H1       HT       0.417000       1.00800           0
     49576 TIP3     13220    TIP3     H2       HT       0.417000       1.00800           0
     49577 TIP3     13221    TIP3     OH2      OT      -0.834000       15.9994           0
     49578 TIP3     13221    TIP3     H1       HT       0.417000       1.00800           0
     49579 TIP3     13221    TIP3     H2       HT       0.417000       1.00800           0
     49580 TIP3     13222    TIP3     OH2      OT      -0.834000       15.9994           0
     49581 TIP3     13222    TIP3     H1       HT       0.417000       1.00800           0
     49582 TIP3     13222    TIP3     H2       HT       0.417000       1.00800           0
     49583 TIP3     13223    TIP3     OH2      OT      -0.834000       15.9994           0
     49584 TIP3     13223    TIP3     H1       HT       0.417000       1.00800           0
     49585 TIP3     13223    TIP3     H2       HT       0.417000       1.00800           0
     49586 TIP3     13224    TIP3     OH2      OT      -0.834000       15.9994           0
     49587 TIP3     13224    TIP3     H1       HT       0.417000       1.00800           0
     49588 TIP3     13224    TIP3     H2       HT       0.417000       1.00800           0
     49589 TIP3     13225    TIP3     OH2      OT      -0.834000       15.9994           0
     49590 TIP3     13225    TIP3     H1       HT       0.417000       1.00800           0
     49591 TIP3     13225    TIP3     H2       HT       0.417000       1.00800           0
     49592 TIP3     13226    TIP3     OH2      OT      -0.834000       15.9994           0
     49593 TIP3     13226    TIP3     H1       HT       0.417000       1.00800           0
     49594 TIP3     13226    TIP3     H2       HT       0.417000       1.00800           0
     49595 TIP3     13227    TIP3     OH2      OT      -0.834000       15.9994           0
     49596 TIP3     13227    TIP3     H1       HT       0.417000       1.00800           0
     49597 TIP3     13227    TIP3     H2       HT       0.417000       1.00800           0
     49598 TIP3     13228    TIP3     OH2      OT      -0.834000       15.9994           0
     49599 TIP3     13228    TIP3     H1       HT       0.417000       1.00800           0
     49600 TIP3     13228    TIP3     H2       HT       0.417000       1.00800           0
     49601 TIP3     13229    TIP3     OH2      OT      -0.834000       15.9994           0
     49602 TIP3     13229    TIP3     H1       HT       0.417000       1.00800           0
     49603 TIP3     13229    TIP3     H2       HT       0.417000       1.00800           0
     49604 TIP3     13230    TIP3     OH2      OT      -0.834000       15.9994           0
     49605 TIP3     13230    TIP3     H1       HT       0.417000       1.00800           0
     49606 TIP3     13230    TIP3     H2       HT       0.417000       1.00800           0
     49607 TIP3     13231    TIP3     OH2      OT      -0.834000       15.9994           0
     49608 TIP3     13231    TIP3     H1       HT       0.417000       1.00800           0
     49609 TIP3     13231    TIP3     H2       HT       0.417000       1.00800           0
     49610 TIP3     13232    TIP3     OH2      OT      -0.834000       15.9994           0
     49611 TIP3     13232    TIP3     H1       HT       0.417000       1.00800           0
     49612 TIP3     13232    TIP3     H2       HT       0.417000       1.00800           0
     49613 TIP3     13233    TIP3     OH2      OT      -0.834000       15.9994           0
     49614 TIP3     13233    TIP3     H1       HT       0.417000       1.00800           0
     49615 TIP3     13233    TIP3     H2       HT       0.417000       1.00800           0
     49616 TIP3     13234    TIP3     OH2      OT      -0.834000       15.9994           0
     49617 TIP3     13234    TIP3     H1       HT       0.417000       1.00800           0
     49618 TIP3     13234    TIP3     H2       HT       0.417000       1.00800           0
     49619 TIP3     13235    TIP3     OH2      OT      -0.834000       15.9994           0
     49620 TIP3     13235    TIP3     H1       HT       0.417000       1.00800           0
     49621 TIP3     13235    TIP3     H2       HT       0.417000       1.00800           0
     49622 TIP3     13236    TIP3     OH2      OT      -0.834000       15.9994           0
     49623 TIP3     13236    TIP3     H1       HT       0.417000       1.00800           0
     49624 TIP3     13236    TIP3     H2       HT       0.417000       1.00800           0
     49625 TIP3     13237    TIP3     OH2      OT      -0.834000       15.9994           0
     49626 TIP3     13237    TIP3     H1       HT       0.417000       1.00800           0
     49627 TIP3     13237    TIP3     H2       HT       0.417000       1.00800           0
     49628 TIP3     13238    TIP3     OH2      OT      -0.834000       15.9994           0
     49629 TIP3     13238    TIP3     H1       HT       0.417000       1.00800           0
     49630 TIP3     13238    TIP3     H2       HT       0.417000       1.00800           0
     49631 TIP3     13239    TIP3     OH2      OT      -0.834000       15.9994           0
     49632 TIP3     13239    TIP3     H1       HT       0.417000       1.00800           0
     49633 TIP3     13239    TIP3     H2       HT       0.417000       1.00800           0
     49634 TIP3     13240    TIP3     OH2      OT      -0.834000       15.9994           0
     49635 TIP3     13240    TIP3     H1       HT       0.417000       1.00800           0
     49636 TIP3     13240    TIP3     H2       HT       0.417000       1.00800           0
     49637 TIP3     13241    TIP3     OH2      OT      -0.834000       15.9994           0
     49638 TIP3     13241    TIP3     H1       HT       0.417000       1.00800           0
     49639 TIP3     13241    TIP3     H2       HT       0.417000       1.00800           0
     49640 TIP3     13242    TIP3     OH2      OT      -0.834000       15.9994           0
     49641 TIP3     13242    TIP3     H1       HT       0.417000       1.00800           0
     49642 TIP3     13242    TIP3     H2       HT       0.417000       1.00800           0
     49643 TIP3     13243    TIP3     OH2      OT      -0.834000       15.9994           0
     49644 TIP3     13243    TIP3     H1       HT       0.417000       1.00800           0
     49645 TIP3     13243    TIP3     H2       HT       0.417000       1.00800           0
     49646 TIP3     13244    TIP3     OH2      OT      -0.834000       15.9994           0
     49647 TIP3     13244    TIP3     H1       HT       0.417000       1.00800           0
     49648 TIP3     13244    TIP3     H2       HT       0.417000       1.00800           0
     49649 TIP3     13245    TIP3     OH2      OT      -0.834000       15.9994           0
     49650 TIP3     13245    TIP3     H1       HT       0.417000       1.00800           0
     49651 TIP3     13245    TIP3     H2       HT       0.417000       1.00800           0
     49652 TIP3     13246    TIP3     OH2      OT      -0.834000       15.9994           0
     49653 TIP3     13246    TIP3     H1       HT       0.417000       1.00800           0
     49654 TIP3     13246    TIP3     H2       HT       0.417000       1.00800           0
     49655 TIP3     13247    TIP3     OH2      OT      -0.834000       15.9994           0
     49656 TIP3     13247    TIP3     H1       HT       0.417000       1.00800           0
     49657 TIP3     13247    TIP3     H2       HT       0.417000       1.00800           0
     49658 TIP3     13248    TIP3     OH2      OT      -0.834000       15.9994           0
     49659 TIP3     13248    TIP3     H1       HT       0.417000       1.00800           0
     49660 TIP3     13248    TIP3     H2       HT       0.417000       1.00800           0
     49661 TIP3     13249    TIP3     OH2      OT      -0.834000       15.9994           0
     49662 TIP3     13249    TIP3     H1       HT       0.417000       1.00800           0
     49663 TIP3     13249    TIP3     H2       HT       0.417000       1.00800           0
     49664 TIP3     13250    TIP3     OH2      OT      -0.834000       15.9994           0
     49665 TIP3     13250    TIP3     H1       HT       0.417000       1.00800           0
     49666 TIP3     13250    TIP3     H2       HT       0.417000       1.00800           0
     49667 TIP3     13251    TIP3     OH2      OT      -0.834000       15.9994           0
     49668 TIP3     13251    TIP3     H1       HT       0.417000       1.00800           0
     49669 TIP3     13251    TIP3     H2       HT       0.417000       1.00800           0
     49670 TIP3     13252    TIP3     OH2      OT      -0.834000       15.9994           0
     49671 TIP3     13252    TIP3     H1       HT       0.417000       1.00800           0
     49672 TIP3     13252    TIP3     H2       HT       0.417000       1.00800           0
     49673 TIP3     13253    TIP3     OH2      OT      -0.834000       15.9994           0
     49674 TIP3     13253    TIP3     H1       HT       0.417000       1.00800           0
     49675 TIP3     13253    TIP3     H2       HT       0.417000       1.00800           0
     49676 TIP3     13254    TIP3     OH2      OT      -0.834000       15.9994           0
     49677 TIP3     13254    TIP3     H1       HT       0.417000       1.00800           0
     49678 TIP3     13254    TIP3     H2       HT       0.417000       1.00800           0
     49679 TIP3     13255    TIP3     OH2      OT      -0.834000       15.9994           0
     49680 TIP3     13255    TIP3     H1       HT       0.417000       1.00800           0
     49681 TIP3     13255    TIP3     H2       HT       0.417000       1.00800           0
     49682 TIP3     13256    TIP3     OH2      OT      -0.834000       15.9994           0
     49683 TIP3     13256    TIP3     H1       HT       0.417000       1.00800           0
     49684 TIP3     13256    TIP3     H2       HT       0.417000       1.00800           0
     49685 TIP3     13257    TIP3     OH2      OT      -0.834000       15.9994           0
     49686 TIP3     13257    TIP3     H1       HT       0.417000       1.00800           0
     49687 TIP3     13257    TIP3     H2       HT       0.417000       1.00800           0
     49688 TIP3     13258    TIP3     OH2      OT      -0.834000       15.9994           0
     49689 TIP3     13258    TIP3     H1       HT       0.417000       1.00800           0
     49690 TIP3     13258    TIP3     H2       HT       0.417000       1.00800           0
     49691 TIP3     13259    TIP3     OH2      OT      -0.834000       15.9994           0
     49692 TIP3     13259    TIP3     H1       HT       0.417000       1.00800           0
     49693 TIP3     13259    TIP3     H2       HT       0.417000       1.00800           0
     49694 TIP3     13260    TIP3     OH2      OT      -0.834000       15.9994           0
     49695 TIP3     13260    TIP3     H1       HT       0.417000       1.00800           0
     49696 TIP3     13260    TIP3     H2       HT       0.417000       1.00800           0
     49697 TIP3     13261    TIP3     OH2      OT      -0.834000       15.9994           0
     49698 TIP3     13261    TIP3     H1       HT       0.417000       1.00800           0
     49699 TIP3     13261    TIP3     H2       HT       0.417000       1.00800           0
     49700 TIP3     13262    TIP3     OH2      OT      -0.834000       15.9994           0
     49701 TIP3     13262    TIP3     H1       HT       0.417000       1.00800           0
     49702 TIP3     13262    TIP3     H2       HT       0.417000       1.00800           0
     49703 TIP3     13263    TIP3     OH2      OT      -0.834000       15.9994           0
     49704 TIP3     13263    TIP3     H1       HT       0.417000       1.00800           0
     49705 TIP3     13263    TIP3     H2       HT       0.417000       1.00800           0
     49706 TIP3     13264    TIP3     OH2      OT      -0.834000       15.9994           0
     49707 TIP3     13264    TIP3     H1       HT       0.417000       1.00800           0
     49708 TIP3     13264    TIP3     H2       HT       0.417000       1.00800           0
     49709 TIP3     13265    TIP3     OH2      OT      -0.834000       15.9994           0
     49710 TIP3     13265    TIP3     H1       HT       0.417000       1.00800           0
     49711 TIP3     13265    TIP3     H2       HT       0.417000       1.00800           0
     49712 TIP3     13266    TIP3     OH2      OT      -0.834000       15.9994           0
     49713 TIP3     13266    TIP3     H1       HT       0.417000       1.00800           0
     49714 TIP3     13266    TIP3     H2       HT       0.417000       1.00800           0
     49715 TIP3     13267    TIP3     OH2      OT      -0.834000       15.9994           0
     49716 TIP3     13267    TIP3     H1       HT       0.417000       1.00800           0
     49717 TIP3     13267    TIP3     H2       HT       0.417000       1.00800           0
     49718 TIP3     13268    TIP3     OH2      OT      -0.834000       15.9994           0
     49719 TIP3     13268    TIP3     H1       HT       0.417000       1.00800           0
     49720 TIP3     13268    TIP3     H2       HT       0.417000       1.00800           0
     49721 TIP3     13269    TIP3     OH2      OT      -0.834000       15.9994           0
     49722 TIP3     13269    TIP3     H1       HT       0.417000       1.00800           0
     49723 TIP3     13269    TIP3     H2       HT       0.417000       1.00800           0
     49724 TIP3     13270    TIP3     OH2      OT      -0.834000       15.9994           0
     49725 TIP3     13270    TIP3     H1       HT       0.417000       1.00800           0
     49726 TIP3     13270    TIP3     H2       HT       0.417000       1.00800           0
     49727 TIP3     13271    TIP3     OH2      OT      -0.834000       15.9994           0
     49728 TIP3     13271    TIP3     H1       HT       0.417000       1.00800           0
     49729 TIP3     13271    TIP3     H2       HT       0.417000       1.00800           0
     49730 TIP3     13272    TIP3     OH2      OT      -0.834000       15.9994           0
     49731 TIP3     13272    TIP3     H1       HT       0.417000       1.00800           0
     49732 TIP3     13272    TIP3     H2       HT       0.417000       1.00800           0
     49733 TIP3     13273    TIP3     OH2      OT      -0.834000       15.9994           0
     49734 TIP3     13273    TIP3     H1       HT       0.417000       1.00800           0
     49735 TIP3     13273    TIP3     H2       HT       0.417000       1.00800           0
     49736 TIP3     13274    TIP3     OH2      OT      -0.834000       15.9994           0
     49737 TIP3     13274    TIP3     H1       HT       0.417000       1.00800           0
     49738 TIP3     13274    TIP3     H2       HT       0.417000       1.00800           0
     49739 TIP3     13275    TIP3     OH2      OT      -0.834000       15.9994           0
     49740 TIP3     13275    TIP3     H1       HT       0.417000       1.00800           0
     49741 TIP3     13275    TIP3     H2       HT       0.417000       1.00800           0
     49742 TIP3     13276    TIP3     OH2      OT      -0.834000       15.9994           0
     49743 TIP3     13276    TIP3     H1       HT       0.417000       1.00800           0
     49744 TIP3     13276    TIP3     H2       HT       0.417000       1.00800           0
     49745 TIP3     13277    TIP3     OH2      OT      -0.834000       15.9994           0
     49746 TIP3     13277    TIP3     H1       HT       0.417000       1.00800           0
     49747 TIP3     13277    TIP3     H2       HT       0.417000       1.00800           0
     49748 TIP3     13278    TIP3     OH2      OT      -0.834000       15.9994           0
     49749 TIP3     13278    TIP3     H1       HT       0.417000       1.00800           0
     49750 TIP3     13278    TIP3     H2       HT       0.417000       1.00800           0
     49751 TIP3     13279    TIP3     OH2      OT      -0.834000       15.9994           0
     49752 TIP3     13279    TIP3     H1       HT       0.417000       1.00800           0
     49753 TIP3     13279    TIP3     H2       HT       0.417000       1.00800           0
     49754 TIP3     13280    TIP3     OH2      OT      -0.834000       15.9994           0
     49755 TIP3     13280    TIP3     H1       HT       0.417000       1.00800           0
     49756 TIP3     13280    TIP3     H2       HT       0.417000       1.00800           0
     49757 TIP3     13281    TIP3     OH2      OT      -0.834000       15.9994           0
     49758 TIP3     13281    TIP3     H1       HT       0.417000       1.00800           0
     49759 TIP3     13281    TIP3     H2       HT       0.417000       1.00800           0
     49760 TIP3     13282    TIP3     OH2      OT      -0.834000       15.9994           0
     49761 TIP3     13282    TIP3     H1       HT       0.417000       1.00800           0
     49762 TIP3     13282    TIP3     H2       HT       0.417000       1.00800           0
     49763 TIP3     13283    TIP3     OH2      OT      -0.834000       15.9994           0
     49764 TIP3     13283    TIP3     H1       HT       0.417000       1.00800           0
     49765 TIP3     13283    TIP3     H2       HT       0.417000       1.00800           0
     49766 TIP3     13284    TIP3     OH2      OT      -0.834000       15.9994           0
     49767 TIP3     13284    TIP3     H1       HT       0.417000       1.00800           0
     49768 TIP3     13284    TIP3     H2       HT       0.417000       1.00800           0
     49769 TIP3     13285    TIP3     OH2      OT      -0.834000       15.9994           0
     49770 TIP3     13285    TIP3     H1       HT       0.417000       1.00800           0
     49771 TIP3     13285    TIP3     H2       HT       0.417000       1.00800           0
     49772 TIP3     13286    TIP3     OH2      OT      -0.834000       15.9994           0
     49773 TIP3     13286    TIP3     H1       HT       0.417000       1.00800           0
     49774 TIP3     13286    TIP3     H2       HT       0.417000       1.00800           0
     49775 TIP3     13287    TIP3     OH2      OT      -0.834000       15.9994           0
     49776 TIP3     13287    TIP3     H1       HT       0.417000       1.00800           0
     49777 TIP3     13287    TIP3     H2       HT       0.417000       1.00800           0
     49778 TIP3     13288    TIP3     OH2      OT      -0.834000       15.9994           0
     49779 TIP3     13288    TIP3     H1       HT       0.417000       1.00800           0
     49780 TIP3     13288    TIP3     H2       HT       0.417000       1.00800           0
     49781 TIP3     13289    TIP3     OH2      OT      -0.834000       15.9994           0
     49782 TIP3     13289    TIP3     H1       HT       0.417000       1.00800           0
     49783 TIP3     13289    TIP3     H2       HT       0.417000       1.00800           0
     49784 TIP3     13290    TIP3     OH2      OT      -0.834000       15.9994           0
     49785 TIP3     13290    TIP3     H1       HT       0.417000       1.00800           0
     49786 TIP3     13290    TIP3     H2       HT       0.417000       1.00800           0
     49787 TIP3     13291    TIP3     OH2      OT      -0.834000       15.9994           0
     49788 TIP3     13291    TIP3     H1       HT       0.417000       1.00800           0
     49789 TIP3     13291    TIP3     H2       HT       0.417000       1.00800           0
     49790 TIP3     13292    TIP3     OH2      OT      -0.834000       15.9994           0
     49791 TIP3     13292    TIP3     H1       HT       0.417000       1.00800           0
     49792 TIP3     13292    TIP3     H2       HT       0.417000       1.00800           0
     49793 TIP3     13293    TIP3     OH2      OT      -0.834000       15.9994           0
     49794 TIP3     13293    TIP3     H1       HT       0.417000       1.00800           0
     49795 TIP3     13293    TIP3     H2       HT       0.417000       1.00800           0
     49796 TIP3     13294    TIP3     OH2      OT      -0.834000       15.9994           0
     49797 TIP3     13294    TIP3     H1       HT       0.417000       1.00800           0
     49798 TIP3     13294    TIP3     H2       HT       0.417000       1.00800           0
     49799 TIP3     13295    TIP3     OH2      OT      -0.834000       15.9994           0
     49800 TIP3     13295    TIP3     H1       HT       0.417000       1.00800           0
     49801 TIP3     13295    TIP3     H2       HT       0.417000       1.00800           0
     49802 TIP3     13296    TIP3     OH2      OT      -0.834000       15.9994           0
     49803 TIP3     13296    TIP3     H1       HT       0.417000       1.00800           0
     49804 TIP3     13296    TIP3     H2       HT       0.417000       1.00800           0
     49805 TIP3     13297    TIP3     OH2      OT      -0.834000       15.9994           0
     49806 TIP3     13297    TIP3     H1       HT       0.417000       1.00800           0
     49807 TIP3     13297    TIP3     H2       HT       0.417000       1.00800           0
     49808 TIP3     13298    TIP3     OH2      OT      -0.834000       15.9994           0
     49809 TIP3     13298    TIP3     H1       HT       0.417000       1.00800           0
     49810 TIP3     13298    TIP3     H2       HT       0.417000       1.00800           0
     49811 TIP3     13299    TIP3     OH2      OT      -0.834000       15.9994           0
     49812 TIP3     13299    TIP3     H1       HT       0.417000       1.00800           0
     49813 TIP3     13299    TIP3     H2       HT       0.417000       1.00800           0
     49814 TIP3     13300    TIP3     OH2      OT      -0.834000       15.9994           0
     49815 TIP3     13300    TIP3     H1       HT       0.417000       1.00800           0
     49816 TIP3     13300    TIP3     H2       HT       0.417000       1.00800           0
     49817 TIP3     13301    TIP3     OH2      OT      -0.834000       15.9994           0
     49818 TIP3     13301    TIP3     H1       HT       0.417000       1.00800           0
     49819 TIP3     13301    TIP3     H2       HT       0.417000       1.00800           0
     49820 TIP3     13302    TIP3     OH2      OT      -0.834000       15.9994           0
     49821 TIP3     13302    TIP3     H1       HT       0.417000       1.00800           0
     49822 TIP3     13302    TIP3     H2       HT       0.417000       1.00800           0
     49823 TIP3     13303    TIP3     OH2      OT      -0.834000       15.9994           0
     49824 TIP3     13303    TIP3     H1       HT       0.417000       1.00800           0
     49825 TIP3     13303    TIP3     H2       HT       0.417000       1.00800           0
     49826 TIP3     13304    TIP3     OH2      OT      -0.834000       15.9994           0
     49827 TIP3     13304    TIP3     H1       HT       0.417000       1.00800           0
     49828 TIP3     13304    TIP3     H2       HT       0.417000       1.00800           0
     49829 TIP3     13305    TIP3     OH2      OT      -0.834000       15.9994           0
     49830 TIP3     13305    TIP3     H1       HT       0.417000       1.00800           0
     49831 TIP3     13305    TIP3     H2       HT       0.417000       1.00800           0
     49832 TIP3     13306    TIP3     OH2      OT      -0.834000       15.9994           0
     49833 TIP3     13306    TIP3     H1       HT       0.417000       1.00800           0
     49834 TIP3     13306    TIP3     H2       HT       0.417000       1.00800           0
     49835 TIP3     13307    TIP3     OH2      OT      -0.834000       15.9994           0
     49836 TIP3     13307    TIP3     H1       HT       0.417000       1.00800           0
     49837 TIP3     13307    TIP3     H2       HT       0.417000       1.00800           0
     49838 TIP3     13308    TIP3     OH2      OT      -0.834000       15.9994           0
     49839 TIP3     13308    TIP3     H1       HT       0.417000       1.00800           0
     49840 TIP3     13308    TIP3     H2       HT       0.417000       1.00800           0
     49841 TIP3     13309    TIP3     OH2      OT      -0.834000       15.9994           0
     49842 TIP3     13309    TIP3     H1       HT       0.417000       1.00800           0
     49843 TIP3     13309    TIP3     H2       HT       0.417000       1.00800           0
     49844 TIP3     13310    TIP3     OH2      OT      -0.834000       15.9994           0
     49845 TIP3     13310    TIP3     H1       HT       0.417000       1.00800           0
     49846 TIP3     13310    TIP3     H2       HT       0.417000       1.00800           0
     49847 TIP3     13311    TIP3     OH2      OT      -0.834000       15.9994           0
     49848 TIP3     13311    TIP3     H1       HT       0.417000       1.00800           0
     49849 TIP3     13311    TIP3     H2       HT       0.417000       1.00800           0
     49850 TIP3     13312    TIP3     OH2      OT      -0.834000       15.9994           0
     49851 TIP3     13312    TIP3     H1       HT       0.417000       1.00800           0
     49852 TIP3     13312    TIP3     H2       HT       0.417000       1.00800           0
     49853 TIP3     13313    TIP3     OH2      OT      -0.834000       15.9994           0
     49854 TIP3     13313    TIP3     H1       HT       0.417000       1.00800           0
     49855 TIP3     13313    TIP3     H2       HT       0.417000       1.00800           0
     49856 TIP3     13314    TIP3     OH2      OT      -0.834000       15.9994           0
     49857 TIP3     13314    TIP3     H1       HT       0.417000       1.00800           0
     49858 TIP3     13314    TIP3     H2       HT       0.417000       1.00800           0
     49859 TIP3     13315    TIP3     OH2      OT      -0.834000       15.9994           0
     49860 TIP3     13315    TIP3     H1       HT       0.417000       1.00800           0
     49861 TIP3     13315    TIP3     H2       HT       0.417000       1.00800           0
     49862 TIP3     13316    TIP3     OH2      OT      -0.834000       15.9994           0
     49863 TIP3     13316    TIP3     H1       HT       0.417000       1.00800           0
     49864 TIP3     13316    TIP3     H2       HT       0.417000       1.00800           0
     49865 TIP3     13317    TIP3     OH2      OT      -0.834000       15.9994           0
     49866 TIP3     13317    TIP3     H1       HT       0.417000       1.00800           0
     49867 TIP3     13317    TIP3     H2       HT       0.417000       1.00800           0
     49868 TIP3     13318    TIP3     OH2      OT      -0.834000       15.9994           0
     49869 TIP3     13318    TIP3     H1       HT       0.417000       1.00800           0
     49870 TIP3     13318    TIP3     H2       HT       0.417000       1.00800           0
     49871 TIP3     13319    TIP3     OH2      OT      -0.834000       15.9994           0
     49872 TIP3     13319    TIP3     H1       HT       0.417000       1.00800           0
     49873 TIP3     13319    TIP3     H2       HT       0.417000       1.00800           0
     49874 TIP3     13320    TIP3     OH2      OT      -0.834000       15.9994           0
     49875 TIP3     13320    TIP3     H1       HT       0.417000       1.00800           0
     49876 TIP3     13320    TIP3     H2       HT       0.417000       1.00800           0
     49877 TIP3     13321    TIP3     OH2      OT      -0.834000       15.9994           0
     49878 TIP3     13321    TIP3     H1       HT       0.417000       1.00800           0
     49879 TIP3     13321    TIP3     H2       HT       0.417000       1.00800           0
     49880 TIP3     13322    TIP3     OH2      OT      -0.834000       15.9994           0
     49881 TIP3     13322    TIP3     H1       HT       0.417000       1.00800           0
     49882 TIP3     13322    TIP3     H2       HT       0.417000       1.00800           0
     49883 TIP3     13323    TIP3     OH2      OT      -0.834000       15.9994           0
     49884 TIP3     13323    TIP3     H1       HT       0.417000       1.00800           0
     49885 TIP3     13323    TIP3     H2       HT       0.417000       1.00800           0
     49886 TIP3     13324    TIP3     OH2      OT      -0.834000       15.9994           0
     49887 TIP3     13324    TIP3     H1       HT       0.417000       1.00800           0
     49888 TIP3     13324    TIP3     H2       HT       0.417000       1.00800           0
     49889 TIP3     13325    TIP3     OH2      OT      -0.834000       15.9994           0
     49890 TIP3     13325    TIP3     H1       HT       0.417000       1.00800           0
     49891 TIP3     13325    TIP3     H2       HT       0.417000       1.00800           0
     49892 TIP3     13326    TIP3     OH2      OT      -0.834000       15.9994           0
     49893 TIP3     13326    TIP3     H1       HT       0.417000       1.00800           0
     49894 TIP3     13326    TIP3     H2       HT       0.417000       1.00800           0
     49895 TIP3     13327    TIP3     OH2      OT      -0.834000       15.9994           0
     49896 TIP3     13327    TIP3     H1       HT       0.417000       1.00800           0
     49897 TIP3     13327    TIP3     H2       HT       0.417000       1.00800           0
     49898 TIP3     13328    TIP3     OH2      OT      -0.834000       15.9994           0
     49899 TIP3     13328    TIP3     H1       HT       0.417000       1.00800           0
     49900 TIP3     13328    TIP3     H2       HT       0.417000       1.00800           0
     49901 TIP3     13329    TIP3     OH2      OT      -0.834000       15.9994           0
     49902 TIP3     13329    TIP3     H1       HT       0.417000       1.00800           0
     49903 TIP3     13329    TIP3     H2       HT       0.417000       1.00800           0
     49904 TIP3     13330    TIP3     OH2      OT      -0.834000       15.9994           0
     49905 TIP3     13330    TIP3     H1       HT       0.417000       1.00800           0
     49906 TIP3     13330    TIP3     H2       HT       0.417000       1.00800           0
     49907 TIP3     13331    TIP3     OH2      OT      -0.834000       15.9994           0
     49908 TIP3     13331    TIP3     H1       HT       0.417000       1.00800           0
     49909 TIP3     13331    TIP3     H2       HT       0.417000       1.00800           0
     49910 TIP3     13332    TIP3     OH2      OT      -0.834000       15.9994           0
     49911 TIP3     13332    TIP3     H1       HT       0.417000       1.00800           0
     49912 TIP3     13332    TIP3     H2       HT       0.417000       1.00800           0
     49913 TIP3     13333    TIP3     OH2      OT      -0.834000       15.9994           0
     49914 TIP3     13333    TIP3     H1       HT       0.417000       1.00800           0
     49915 TIP3     13333    TIP3     H2       HT       0.417000       1.00800           0
     49916 TIP3     13334    TIP3     OH2      OT      -0.834000       15.9994           0
     49917 TIP3     13334    TIP3     H1       HT       0.417000       1.00800           0
     49918 TIP3     13334    TIP3     H2       HT       0.417000       1.00800           0
     49919 TIP3     13335    TIP3     OH2      OT      -0.834000       15.9994           0
     49920 TIP3     13335    TIP3     H1       HT       0.417000       1.00800           0
     49921 TIP3     13335    TIP3     H2       HT       0.417000       1.00800           0
     49922 TIP3     13336    TIP3     OH2      OT      -0.834000       15.9994           0
     49923 TIP3     13336    TIP3     H1       HT       0.417000       1.00800           0
     49924 TIP3     13336    TIP3     H2       HT       0.417000       1.00800           0
     49925 TIP3     13337    TIP3     OH2      OT      -0.834000       15.9994           0
     49926 TIP3     13337    TIP3     H1       HT       0.417000       1.00800           0
     49927 TIP3     13337    TIP3     H2       HT       0.417000       1.00800           0
     49928 TIP3     13338    TIP3     OH2      OT      -0.834000       15.9994           0
     49929 TIP3     13338    TIP3     H1       HT       0.417000       1.00800           0
     49930 TIP3     13338    TIP3     H2       HT       0.417000       1.00800           0
     49931 TIP3     13339    TIP3     OH2      OT      -0.834000       15.9994           0
     49932 TIP3     13339    TIP3     H1       HT       0.417000       1.00800           0
     49933 TIP3     13339    TIP3     H2       HT       0.417000       1.00800           0
     49934 TIP3     13340    TIP3     OH2      OT      -0.834000       15.9994           0
     49935 TIP3     13340    TIP3     H1       HT       0.417000       1.00800           0
     49936 TIP3     13340    TIP3     H2       HT       0.417000       1.00800           0
     49937 TIP3     13341    TIP3     OH2      OT      -0.834000       15.9994           0
     49938 TIP3     13341    TIP3     H1       HT       0.417000       1.00800           0
     49939 TIP3     13341    TIP3     H2       HT       0.417000       1.00800           0
     49940 TIP3     13342    TIP3     OH2      OT      -0.834000       15.9994           0
     49941 TIP3     13342    TIP3     H1       HT       0.417000       1.00800           0
     49942 TIP3     13342    TIP3     H2       HT       0.417000       1.00800           0
     49943 TIP3     13343    TIP3     OH2      OT      -0.834000       15.9994           0
     49944 TIP3     13343    TIP3     H1       HT       0.417000       1.00800           0
     49945 TIP3     13343    TIP3     H2       HT       0.417000       1.00800           0
     49946 TIP3     13344    TIP3     OH2      OT      -0.834000       15.9994           0
     49947 TIP3     13344    TIP3     H1       HT       0.417000       1.00800           0
     49948 TIP3     13344    TIP3     H2       HT       0.417000       1.00800           0
     49949 TIP3     13345    TIP3     OH2      OT      -0.834000       15.9994           0
     49950 TIP3     13345    TIP3     H1       HT       0.417000       1.00800           0
     49951 TIP3     13345    TIP3     H2       HT       0.417000       1.00800           0
     49952 TIP3     13346    TIP3     OH2      OT      -0.834000       15.9994           0
     49953 TIP3     13346    TIP3     H1       HT       0.417000       1.00800           0
     49954 TIP3     13346    TIP3     H2       HT       0.417000       1.00800           0
     49955 TIP3     13347    TIP3     OH2      OT      -0.834000       15.9994           0
     49956 TIP3     13347    TIP3     H1       HT       0.417000       1.00800           0
     49957 TIP3     13347    TIP3     H2       HT       0.417000       1.00800           0
     49958 TIP3     13348    TIP3     OH2      OT      -0.834000       15.9994           0
     49959 TIP3     13348    TIP3     H1       HT       0.417000       1.00800           0
     49960 TIP3     13348    TIP3     H2       HT       0.417000       1.00800           0
     49961 TIP3     13349    TIP3     OH2      OT      -0.834000       15.9994           0
     49962 TIP3     13349    TIP3     H1       HT       0.417000       1.00800           0
     49963 TIP3     13349    TIP3     H2       HT       0.417000       1.00800           0
     49964 TIP3     13350    TIP3     OH2      OT      -0.834000       15.9994           0
     49965 TIP3     13350    TIP3     H1       HT       0.417000       1.00800           0
     49966 TIP3     13350    TIP3     H2       HT       0.417000       1.00800           0
     49967 TIP3     13351    TIP3     OH2      OT      -0.834000       15.9994           0
     49968 TIP3     13351    TIP3     H1       HT       0.417000       1.00800           0
     49969 TIP3     13351    TIP3     H2       HT       0.417000       1.00800           0
     49970 TIP3     13352    TIP3     OH2      OT      -0.834000       15.9994           0
     49971 TIP3     13352    TIP3     H1       HT       0.417000       1.00800           0
     49972 TIP3     13352    TIP3     H2       HT       0.417000       1.00800           0
     49973 TIP3     13353    TIP3     OH2      OT      -0.834000       15.9994           0
     49974 TIP3     13353    TIP3     H1       HT       0.417000       1.00800           0
     49975 TIP3     13353    TIP3     H2       HT       0.417000       1.00800           0
     49976 TIP3     13354    TIP3     OH2      OT      -0.834000       15.9994           0
     49977 TIP3     13354    TIP3     H1       HT       0.417000       1.00800           0
     49978 TIP3     13354    TIP3     H2       HT       0.417000       1.00800           0
     49979 TIP3     13355    TIP3     OH2      OT      -0.834000       15.9994           0
     49980 TIP3     13355    TIP3     H1       HT       0.417000       1.00800           0
     49981 TIP3     13355    TIP3     H2       HT       0.417000       1.00800           0
     49982 TIP3     13356    TIP3     OH2      OT      -0.834000       15.9994           0
     49983 TIP3     13356    TIP3     H1       HT       0.417000       1.00800           0
     49984 TIP3     13356    TIP3     H2       HT       0.417000       1.00800           0
     49985 TIP3     13357    TIP3     OH2      OT      -0.834000       15.9994           0
     49986 TIP3     13357    TIP3     H1       HT       0.417000       1.00800           0
     49987 TIP3     13357    TIP3     H2       HT       0.417000       1.00800           0
     49988 TIP3     13358    TIP3     OH2      OT      -0.834000       15.9994           0
     49989 TIP3     13358    TIP3     H1       HT       0.417000       1.00800           0
     49990 TIP3     13358    TIP3     H2       HT       0.417000       1.00800           0
     49991 TIP3     13359    TIP3     OH2      OT      -0.834000       15.9994           0
     49992 TIP3     13359    TIP3     H1       HT       0.417000       1.00800           0
     49993 TIP3     13359    TIP3     H2       HT       0.417000       1.00800           0
     49994 TIP3     13360    TIP3     OH2      OT      -0.834000       15.9994           0
     49995 TIP3     13360    TIP3     H1       HT       0.417000       1.00800           0
     49996 TIP3     13360    TIP3     H2       HT       0.417000       1.00800           0
     49997 TIP3     13361    TIP3     OH2      OT      -0.834000       15.9994           0
     49998 TIP3     13361    TIP3     H1       HT       0.417000       1.00800           0
     49999 TIP3     13361    TIP3     H2       HT       0.417000       1.00800           0
     50000 TIP3     13362    TIP3     OH2      OT      -0.834000       15.9994           0
     50001 TIP3     13362    TIP3     H1       HT       0.417000       1.00800           0
     50002 TIP3     13362    TIP3     H2       HT       0.417000       1.00800           0
     50003 TIP3     13363    TIP3     OH2      OT      -0.834000       15.9994           0
     50004 TIP3     13363    TIP3     H1       HT       0.417000       1.00800           0
     50005 TIP3     13363    TIP3     H2       HT       0.417000       1.00800           0
     50006 TIP3     13364    TIP3     OH2      OT      -0.834000       15.9994           0
     50007 TIP3     13364    TIP3     H1       HT       0.417000       1.00800           0
     50008 TIP3     13364    TIP3     H2       HT       0.417000       1.00800           0
     50009 TIP3     13365    TIP3     OH2      OT      -0.834000       15.9994           0
     50010 TIP3     13365    TIP3     H1       HT       0.417000       1.00800           0
     50011 TIP3     13365    TIP3     H2       HT       0.417000       1.00800           0
     50012 TIP3     13366    TIP3     OH2      OT      -0.834000       15.9994           0
     50013 TIP3     13366    TIP3     H1       HT       0.417000       1.00800           0
     50014 TIP3     13366    TIP3     H2       HT       0.417000       1.00800           0
     50015 TIP3     13367    TIP3     OH2      OT      -0.834000       15.9994           0
     50016 TIP3     13367    TIP3     H1       HT       0.417000       1.00800           0
     50017 TIP3     13367    TIP3     H2       HT       0.417000       1.00800           0
     50018 TIP3     13368    TIP3     OH2      OT      -0.834000       15.9994           0
     50019 TIP3     13368    TIP3     H1       HT       0.417000       1.00800           0
     50020 TIP3     13368    TIP3     H2       HT       0.417000       1.00800           0
     50021 TIP3     13369    TIP3     OH2      OT      -0.834000       15.9994           0
     50022 TIP3     13369    TIP3     H1       HT       0.417000       1.00800           0
     50023 TIP3     13369    TIP3     H2       HT       0.417000       1.00800           0
     50024 TIP3     13370    TIP3     OH2      OT      -0.834000       15.9994           0
     50025 TIP3     13370    TIP3     H1       HT       0.417000       1.00800           0
     50026 TIP3     13370    TIP3     H2       HT       0.417000       1.00800           0
     50027 TIP3     13371    TIP3     OH2      OT      -0.834000       15.9994           0
     50028 TIP3     13371    TIP3     H1       HT       0.417000       1.00800           0
     50029 TIP3     13371    TIP3     H2       HT       0.417000       1.00800           0
     50030 TIP3     13372    TIP3     OH2      OT      -0.834000       15.9994           0
     50031 TIP3     13372    TIP3     H1       HT       0.417000       1.00800           0
     50032 TIP3     13372    TIP3     H2       HT       0.417000       1.00800           0
     50033 TIP3     13373    TIP3     OH2      OT      -0.834000       15.9994           0
     50034 TIP3     13373    TIP3     H1       HT       0.417000       1.00800           0
     50035 TIP3     13373    TIP3     H2       HT       0.417000       1.00800           0
     50036 TIP3     13374    TIP3     OH2      OT      -0.834000       15.9994           0
     50037 TIP3     13374    TIP3     H1       HT       0.417000       1.00800           0
     50038 TIP3     13374    TIP3     H2       HT       0.417000       1.00800           0
     50039 TIP3     13375    TIP3     OH2      OT      -0.834000       15.9994           0
     50040 TIP3     13375    TIP3     H1       HT       0.417000       1.00800           0
     50041 TIP3     13375    TIP3     H2       HT       0.417000       1.00800           0
     50042 TIP3     13376    TIP3     OH2      OT      -0.834000       15.9994           0
     50043 TIP3     13376    TIP3     H1       HT       0.417000       1.00800           0
     50044 TIP3     13376    TIP3     H2       HT       0.417000       1.00800           0
     50045 TIP3     13377    TIP3     OH2      OT      -0.834000       15.9994           0
     50046 TIP3     13377    TIP3     H1       HT       0.417000       1.00800           0
     50047 TIP3     13377    TIP3     H2       HT       0.417000       1.00800           0
     50048 TIP3     13378    TIP3     OH2      OT      -0.834000       15.9994           0
     50049 TIP3     13378    TIP3     H1       HT       0.417000       1.00800           0
     50050 TIP3     13378    TIP3     H2       HT       0.417000       1.00800           0
     50051 TIP3     13379    TIP3     OH2      OT      -0.834000       15.9994           0
     50052 TIP3     13379    TIP3     H1       HT       0.417000       1.00800           0
     50053 TIP3     13379    TIP3     H2       HT       0.417000       1.00800           0
     50054 TIP3     13380    TIP3     OH2      OT      -0.834000       15.9994           0
     50055 TIP3     13380    TIP3     H1       HT       0.417000       1.00800           0
     50056 TIP3     13380    TIP3     H2       HT       0.417000       1.00800           0
     50057 TIP3     13381    TIP3     OH2      OT      -0.834000       15.9994           0
     50058 TIP3     13381    TIP3     H1       HT       0.417000       1.00800           0
     50059 TIP3     13381    TIP3     H2       HT       0.417000       1.00800           0
     50060 TIP3     13382    TIP3     OH2      OT      -0.834000       15.9994           0
     50061 TIP3     13382    TIP3     H1       HT       0.417000       1.00800           0
     50062 TIP3     13382    TIP3     H2       HT       0.417000       1.00800           0
     50063 TIP3     13383    TIP3     OH2      OT      -0.834000       15.9994           0
     50064 TIP3     13383    TIP3     H1       HT       0.417000       1.00800           0
     50065 TIP3     13383    TIP3     H2       HT       0.417000       1.00800           0
     50066 TIP3     13384    TIP3     OH2      OT      -0.834000       15.9994           0
     50067 TIP3     13384    TIP3     H1       HT       0.417000       1.00800           0
     50068 TIP3     13384    TIP3     H2       HT       0.417000       1.00800           0
     50069 TIP3     13385    TIP3     OH2      OT      -0.834000       15.9994           0
     50070 TIP3     13385    TIP3     H1       HT       0.417000       1.00800           0
     50071 TIP3     13385    TIP3     H2       HT       0.417000       1.00800           0
     50072 TIP3     13386    TIP3     OH2      OT      -0.834000       15.9994           0
     50073 TIP3     13386    TIP3     H1       HT       0.417000       1.00800           0
     50074 TIP3     13386    TIP3     H2       HT       0.417000       1.00800           0
     50075 TIP3     13387    TIP3     OH2      OT      -0.834000       15.9994           0
     50076 TIP3     13387    TIP3     H1       HT       0.417000       1.00800           0
     50077 TIP3     13387    TIP3     H2       HT       0.417000       1.00800           0
     50078 TIP3     13388    TIP3     OH2      OT      -0.834000       15.9994           0
     50079 TIP3     13388    TIP3     H1       HT       0.417000       1.00800           0
     50080 TIP3     13388    TIP3     H2       HT       0.417000       1.00800           0
     50081 TIP3     13389    TIP3     OH2      OT      -0.834000       15.9994           0
     50082 TIP3     13389    TIP3     H1       HT       0.417000       1.00800           0
     50083 TIP3     13389    TIP3     H2       HT       0.417000       1.00800           0
     50084 TIP3     13390    TIP3     OH2      OT      -0.834000       15.9994           0
     50085 TIP3     13390    TIP3     H1       HT       0.417000       1.00800           0
     50086 TIP3     13390    TIP3     H2       HT       0.417000       1.00800           0
     50087 TIP3     13391    TIP3     OH2      OT      -0.834000       15.9994           0
     50088 TIP3     13391    TIP3     H1       HT       0.417000       1.00800           0
     50089 TIP3     13391    TIP3     H2       HT       0.417000       1.00800           0
     50090 TIP3     13392    TIP3     OH2      OT      -0.834000       15.9994           0
     50091 TIP3     13392    TIP3     H1       HT       0.417000       1.00800           0
     50092 TIP3     13392    TIP3     H2       HT       0.417000       1.00800           0
     50093 TIP3     13393    TIP3     OH2      OT      -0.834000       15.9994           0
     50094 TIP3     13393    TIP3     H1       HT       0.417000       1.00800           0
     50095 TIP3     13393    TIP3     H2       HT       0.417000       1.00800           0
     50096 TIP3     13394    TIP3     OH2      OT      -0.834000       15.9994           0
     50097 TIP3     13394    TIP3     H1       HT       0.417000       1.00800           0
     50098 TIP3     13394    TIP3     H2       HT       0.417000       1.00800           0
     50099 TIP3     13395    TIP3     OH2      OT      -0.834000       15.9994           0
     50100 TIP3     13395    TIP3     H1       HT       0.417000       1.00800           0
     50101 TIP3     13395    TIP3     H2       HT       0.417000       1.00800           0
     50102 TIP3     13396    TIP3     OH2      OT      -0.834000       15.9994           0
     50103 TIP3     13396    TIP3     H1       HT       0.417000       1.00800           0
     50104 TIP3     13396    TIP3     H2       HT       0.417000       1.00800           0
     50105 TIP3     13397    TIP3     OH2      OT      -0.834000       15.9994           0
     50106 TIP3     13397    TIP3     H1       HT       0.417000       1.00800           0
     50107 TIP3     13397    TIP3     H2       HT       0.417000       1.00800           0
     50108 TIP3     13398    TIP3     OH2      OT      -0.834000       15.9994           0
     50109 TIP3     13398    TIP3     H1       HT       0.417000       1.00800           0
     50110 TIP3     13398    TIP3     H2       HT       0.417000       1.00800           0
     50111 TIP3     13399    TIP3     OH2      OT      -0.834000       15.9994           0
     50112 TIP3     13399    TIP3     H1       HT       0.417000       1.00800           0
     50113 TIP3     13399    TIP3     H2       HT       0.417000       1.00800           0
     50114 TIP3     13400    TIP3     OH2      OT      -0.834000       15.9994           0
     50115 TIP3     13400    TIP3     H1       HT       0.417000       1.00800           0
     50116 TIP3     13400    TIP3     H2       HT       0.417000       1.00800           0
     50117 TIP3     13401    TIP3     OH2      OT      -0.834000       15.9994           0
     50118 TIP3     13401    TIP3     H1       HT       0.417000       1.00800           0
     50119 TIP3     13401    TIP3     H2       HT       0.417000       1.00800           0
     50120 TIP3     13402    TIP3     OH2      OT      -0.834000       15.9994           0
     50121 TIP3     13402    TIP3     H1       HT       0.417000       1.00800           0
     50122 TIP3     13402    TIP3     H2       HT       0.417000       1.00800           0
     50123 TIP3     13403    TIP3     OH2      OT      -0.834000       15.9994           0
     50124 TIP3     13403    TIP3     H1       HT       0.417000       1.00800           0
     50125 TIP3     13403    TIP3     H2       HT       0.417000       1.00800           0
     50126 TIP3     13404    TIP3     OH2      OT      -0.834000       15.9994           0
     50127 TIP3     13404    TIP3     H1       HT       0.417000       1.00800           0
     50128 TIP3     13404    TIP3     H2       HT       0.417000       1.00800           0
     50129 TIP3     13405    TIP3     OH2      OT      -0.834000       15.9994           0
     50130 TIP3     13405    TIP3     H1       HT       0.417000       1.00800           0
     50131 TIP3     13405    TIP3     H2       HT       0.417000       1.00800           0
     50132 TIP3     13406    TIP3     OH2      OT      -0.834000       15.9994           0
     50133 TIP3     13406    TIP3     H1       HT       0.417000       1.00800           0
     50134 TIP3     13406    TIP3     H2       HT       0.417000       1.00800           0
     50135 TIP3     13407    TIP3     OH2      OT      -0.834000       15.9994           0
     50136 TIP3     13407    TIP3     H1       HT       0.417000       1.00800           0
     50137 TIP3     13407    TIP3     H2       HT       0.417000       1.00800           0
     50138 TIP3     13408    TIP3     OH2      OT      -0.834000       15.9994           0
     50139 TIP3     13408    TIP3     H1       HT       0.417000       1.00800           0
     50140 TIP3     13408    TIP3     H2       HT       0.417000       1.00800           0
     50141 TIP3     13409    TIP3     OH2      OT      -0.834000       15.9994           0
     50142 TIP3     13409    TIP3     H1       HT       0.417000       1.00800           0
     50143 TIP3     13409    TIP3     H2       HT       0.417000       1.00800           0
     50144 TIP3     13410    TIP3     OH2      OT      -0.834000       15.9994           0
     50145 TIP3     13410    TIP3     H1       HT       0.417000       1.00800           0
     50146 TIP3     13410    TIP3     H2       HT       0.417000       1.00800           0
     50147 TIP3     13411    TIP3     OH2      OT      -0.834000       15.9994           0
     50148 TIP3     13411    TIP3     H1       HT       0.417000       1.00800           0
     50149 TIP3     13411    TIP3     H2       HT       0.417000       1.00800           0
     50150 TIP3     13412    TIP3     OH2      OT      -0.834000       15.9994           0
     50151 TIP3     13412    TIP3     H1       HT       0.417000       1.00800           0
     50152 TIP3     13412    TIP3     H2       HT       0.417000       1.00800           0
     50153 TIP3     13413    TIP3     OH2      OT      -0.834000       15.9994           0
     50154 TIP3     13413    TIP3     H1       HT       0.417000       1.00800           0
     50155 TIP3     13413    TIP3     H2       HT       0.417000       1.00800           0
     50156 TIP3     13414    TIP3     OH2      OT      -0.834000       15.9994           0
     50157 TIP3     13414    TIP3     H1       HT       0.417000       1.00800           0
     50158 TIP3     13414    TIP3     H2       HT       0.417000       1.00800           0
     50159 TIP3     13415    TIP3     OH2      OT      -0.834000       15.9994           0
     50160 TIP3     13415    TIP3     H1       HT       0.417000       1.00800           0
     50161 TIP3     13415    TIP3     H2       HT       0.417000       1.00800           0
     50162 TIP3     13416    TIP3     OH2      OT      -0.834000       15.9994           0
     50163 TIP3     13416    TIP3     H1       HT       0.417000       1.00800           0
     50164 TIP3     13416    TIP3     H2       HT       0.417000       1.00800           0
     50165 TIP3     13417    TIP3     OH2      OT      -0.834000       15.9994           0
     50166 TIP3     13417    TIP3     H1       HT       0.417000       1.00800           0
     50167 TIP3     13417    TIP3     H2       HT       0.417000       1.00800           0
     50168 TIP3     13418    TIP3     OH2      OT      -0.834000       15.9994           0
     50169 TIP3     13418    TIP3     H1       HT       0.417000       1.00800           0
     50170 TIP3     13418    TIP3     H2       HT       0.417000       1.00800           0
     50171 TIP3     13419    TIP3     OH2      OT      -0.834000       15.9994           0
     50172 TIP3     13419    TIP3     H1       HT       0.417000       1.00800           0
     50173 TIP3     13419    TIP3     H2       HT       0.417000       1.00800           0
     50174 TIP3     13420    TIP3     OH2      OT      -0.834000       15.9994           0
     50175 TIP3     13420    TIP3     H1       HT       0.417000       1.00800           0
     50176 TIP3     13420    TIP3     H2       HT       0.417000       1.00800           0
     50177 TIP3     13421    TIP3     OH2      OT      -0.834000       15.9994           0
     50178 TIP3     13421    TIP3     H1       HT       0.417000       1.00800           0
     50179 TIP3     13421    TIP3     H2       HT       0.417000       1.00800           0
     50180 TIP3     13422    TIP3     OH2      OT      -0.834000       15.9994           0
     50181 TIP3     13422    TIP3     H1       HT       0.417000       1.00800           0
     50182 TIP3     13422    TIP3     H2       HT       0.417000       1.00800           0
     50183 TIP3     13423    TIP3     OH2      OT      -0.834000       15.9994           0
     50184 TIP3     13423    TIP3     H1       HT       0.417000       1.00800           0
     50185 TIP3     13423    TIP3     H2       HT       0.417000       1.00800           0
     50186 TIP3     13424    TIP3     OH2      OT      -0.834000       15.9994           0
     50187 TIP3     13424    TIP3     H1       HT       0.417000       1.00800           0
     50188 TIP3     13424    TIP3     H2       HT       0.417000       1.00800           0
     50189 TIP3     13425    TIP3     OH2      OT      -0.834000       15.9994           0
     50190 TIP3     13425    TIP3     H1       HT       0.417000       1.00800           0
     50191 TIP3     13425    TIP3     H2       HT       0.417000       1.00800           0
     50192 TIP3     13426    TIP3     OH2      OT      -0.834000       15.9994           0
     50193 TIP3     13426    TIP3     H1       HT       0.417000       1.00800           0
     50194 TIP3     13426    TIP3     H2       HT       0.417000       1.00800           0
     50195 TIP3     13427    TIP3     OH2      OT      -0.834000       15.9994           0
     50196 TIP3     13427    TIP3     H1       HT       0.417000       1.00800           0
     50197 TIP3     13427    TIP3     H2       HT       0.417000       1.00800           0
     50198 TIP3     13428    TIP3     OH2      OT      -0.834000       15.9994           0
     50199 TIP3     13428    TIP3     H1       HT       0.417000       1.00800           0
     50200 TIP3     13428    TIP3     H2       HT       0.417000       1.00800           0
     50201 TIP3     13429    TIP3     OH2      OT      -0.834000       15.9994           0
     50202 TIP3     13429    TIP3     H1       HT       0.417000       1.00800           0
     50203 TIP3     13429    TIP3     H2       HT       0.417000       1.00800           0
     50204 TIP3     13430    TIP3     OH2      OT      -0.834000       15.9994           0
     50205 TIP3     13430    TIP3     H1       HT       0.417000       1.00800           0
     50206 TIP3     13430    TIP3     H2       HT       0.417000       1.00800           0
     50207 TIP3     13431    TIP3     OH2      OT      -0.834000       15.9994           0
     50208 TIP3     13431    TIP3     H1       HT       0.417000       1.00800           0
     50209 TIP3     13431    TIP3     H2       HT       0.417000       1.00800           0
     50210 TIP3     13432    TIP3     OH2      OT      -0.834000       15.9994           0
     50211 TIP3     13432    TIP3     H1       HT       0.417000       1.00800           0
     50212 TIP3     13432    TIP3     H2       HT       0.417000       1.00800           0
     50213 TIP3     13433    TIP3     OH2      OT      -0.834000       15.9994           0
     50214 TIP3     13433    TIP3     H1       HT       0.417000       1.00800           0
     50215 TIP3     13433    TIP3     H2       HT       0.417000       1.00800           0
     50216 TIP3     13434    TIP3     OH2      OT      -0.834000       15.9994           0
     50217 TIP3     13434    TIP3     H1       HT       0.417000       1.00800           0
     50218 TIP3     13434    TIP3     H2       HT       0.417000       1.00800           0
     50219 TIP3     13435    TIP3     OH2      OT      -0.834000       15.9994           0
     50220 TIP3     13435    TIP3     H1       HT       0.417000       1.00800           0
     50221 TIP3     13435    TIP3     H2       HT       0.417000       1.00800           0
     50222 TIP3     13436    TIP3     OH2      OT      -0.834000       15.9994           0
     50223 TIP3     13436    TIP3     H1       HT       0.417000       1.00800           0
     50224 TIP3     13436    TIP3     H2       HT       0.417000       1.00800           0
     50225 TIP3     13437    TIP3     OH2      OT      -0.834000       15.9994           0
     50226 TIP3     13437    TIP3     H1       HT       0.417000       1.00800           0
     50227 TIP3     13437    TIP3     H2       HT       0.417000       1.00800           0
     50228 TIP3     13438    TIP3     OH2      OT      -0.834000       15.9994           0
     50229 TIP3     13438    TIP3     H1       HT       0.417000       1.00800           0
     50230 TIP3     13438    TIP3     H2       HT       0.417000       1.00800           0
     50231 TIP3     13439    TIP3     OH2      OT      -0.834000       15.9994           0
     50232 TIP3     13439    TIP3     H1       HT       0.417000       1.00800           0
     50233 TIP3     13439    TIP3     H2       HT       0.417000       1.00800           0
     50234 TIP3     13440    TIP3     OH2      OT      -0.834000       15.9994           0
     50235 TIP3     13440    TIP3     H1       HT       0.417000       1.00800           0
     50236 TIP3     13440    TIP3     H2       HT       0.417000       1.00800           0
     50237 TIP3     13441    TIP3     OH2      OT      -0.834000       15.9994           0
     50238 TIP3     13441    TIP3     H1       HT       0.417000       1.00800           0
     50239 TIP3     13441    TIP3     H2       HT       0.417000       1.00800           0
     50240 TIP3     13442    TIP3     OH2      OT      -0.834000       15.9994           0
     50241 TIP3     13442    TIP3     H1       HT       0.417000       1.00800           0
     50242 TIP3     13442    TIP3     H2       HT       0.417000       1.00800           0
     50243 TIP3     13443    TIP3     OH2      OT      -0.834000       15.9994           0
     50244 TIP3     13443    TIP3     H1       HT       0.417000       1.00800           0
     50245 TIP3     13443    TIP3     H2       HT       0.417000       1.00800           0
     50246 TIP3     13444    TIP3     OH2      OT      -0.834000       15.9994           0
     50247 TIP3     13444    TIP3     H1       HT       0.417000       1.00800           0
     50248 TIP3     13444    TIP3     H2       HT       0.417000       1.00800           0
     50249 TIP3     13445    TIP3     OH2      OT      -0.834000       15.9994           0
     50250 TIP3     13445    TIP3     H1       HT       0.417000       1.00800           0
     50251 TIP3     13445    TIP3     H2       HT       0.417000       1.00800           0
     50252 TIP3     13446    TIP3     OH2      OT      -0.834000       15.9994           0
     50253 TIP3     13446    TIP3     H1       HT       0.417000       1.00800           0
     50254 TIP3     13446    TIP3     H2       HT       0.417000       1.00800           0
     50255 TIP3     13447    TIP3     OH2      OT      -0.834000       15.9994           0
     50256 TIP3     13447    TIP3     H1       HT       0.417000       1.00800           0
     50257 TIP3     13447    TIP3     H2       HT       0.417000       1.00800           0
     50258 TIP3     13448    TIP3     OH2      OT      -0.834000       15.9994           0
     50259 TIP3     13448    TIP3     H1       HT       0.417000       1.00800           0
     50260 TIP3     13448    TIP3     H2       HT       0.417000       1.00800           0
     50261 TIP3     13449    TIP3     OH2      OT      -0.834000       15.9994           0
     50262 TIP3     13449    TIP3     H1       HT       0.417000       1.00800           0
     50263 TIP3     13449    TIP3     H2       HT       0.417000       1.00800           0
     50264 TIP3     13450    TIP3     OH2      OT      -0.834000       15.9994           0
     50265 TIP3     13450    TIP3     H1       HT       0.417000       1.00800           0
     50266 TIP3     13450    TIP3     H2       HT       0.417000       1.00800           0
     50267 TIP3     13451    TIP3     OH2      OT      -0.834000       15.9994           0
     50268 TIP3     13451    TIP3     H1       HT       0.417000       1.00800           0
     50269 TIP3     13451    TIP3     H2       HT       0.417000       1.00800           0
     50270 TIP3     13452    TIP3     OH2      OT      -0.834000       15.9994           0
     50271 TIP3     13452    TIP3     H1       HT       0.417000       1.00800           0
     50272 TIP3     13452    TIP3     H2       HT       0.417000       1.00800           0
     50273 TIP3     13453    TIP3     OH2      OT      -0.834000       15.9994           0
     50274 TIP3     13453    TIP3     H1       HT       0.417000       1.00800           0
     50275 TIP3     13453    TIP3     H2       HT       0.417000       1.00800           0
     50276 TIP3     13454    TIP3     OH2      OT      -0.834000       15.9994           0
     50277 TIP3     13454    TIP3     H1       HT       0.417000       1.00800           0
     50278 TIP3     13454    TIP3     H2       HT       0.417000       1.00800           0
     50279 TIP3     13455    TIP3     OH2      OT      -0.834000       15.9994           0
     50280 TIP3     13455    TIP3     H1       HT       0.417000       1.00800           0
     50281 TIP3     13455    TIP3     H2       HT       0.417000       1.00800           0
     50282 TIP3     13456    TIP3     OH2      OT      -0.834000       15.9994           0
     50283 TIP3     13456    TIP3     H1       HT       0.417000       1.00800           0
     50284 TIP3     13456    TIP3     H2       HT       0.417000       1.00800           0
     50285 TIP3     13457    TIP3     OH2      OT      -0.834000       15.9994           0
     50286 TIP3     13457    TIP3     H1       HT       0.417000       1.00800           0
     50287 TIP3     13457    TIP3     H2       HT       0.417000       1.00800           0
     50288 TIP3     13458    TIP3     OH2      OT      -0.834000       15.9994           0
     50289 TIP3     13458    TIP3     H1       HT       0.417000       1.00800           0
     50290 TIP3     13458    TIP3     H2       HT       0.417000       1.00800           0
     50291 TIP3     13459    TIP3     OH2      OT      -0.834000       15.9994           0
     50292 TIP3     13459    TIP3     H1       HT       0.417000       1.00800           0
     50293 TIP3     13459    TIP3     H2       HT       0.417000       1.00800           0
     50294 TIP3     13460    TIP3     OH2      OT      -0.834000       15.9994           0
     50295 TIP3     13460    TIP3     H1       HT       0.417000       1.00800           0
     50296 TIP3     13460    TIP3     H2       HT       0.417000       1.00800           0
     50297 TIP3     13461    TIP3     OH2      OT      -0.834000       15.9994           0
     50298 TIP3     13461    TIP3     H1       HT       0.417000       1.00800           0
     50299 TIP3     13461    TIP3     H2       HT       0.417000       1.00800           0
     50300 TIP3     13462    TIP3     OH2      OT      -0.834000       15.9994           0
     50301 TIP3     13462    TIP3     H1       HT       0.417000       1.00800           0
     50302 TIP3     13462    TIP3     H2       HT       0.417000       1.00800           0
     50303 TIP3     13463    TIP3     OH2      OT      -0.834000       15.9994           0
     50304 TIP3     13463    TIP3     H1       HT       0.417000       1.00800           0
     50305 TIP3     13463    TIP3     H2       HT       0.417000       1.00800           0
     50306 TIP3     13464    TIP3     OH2      OT      -0.834000       15.9994           0
     50307 TIP3     13464    TIP3     H1       HT       0.417000       1.00800           0
     50308 TIP3     13464    TIP3     H2       HT       0.417000       1.00800           0
     50309 TIP3     13465    TIP3     OH2      OT      -0.834000       15.9994           0
     50310 TIP3     13465    TIP3     H1       HT       0.417000       1.00800           0
     50311 TIP3     13465    TIP3     H2       HT       0.417000       1.00800           0
     50312 TIP3     13466    TIP3     OH2      OT      -0.834000       15.9994           0
     50313 TIP3     13466    TIP3     H1       HT       0.417000       1.00800           0
     50314 TIP3     13466    TIP3     H2       HT       0.417000       1.00800           0
     50315 TIP3     13467    TIP3     OH2      OT      -0.834000       15.9994           0
     50316 TIP3     13467    TIP3     H1       HT       0.417000       1.00800           0
     50317 TIP3     13467    TIP3     H2       HT       0.417000       1.00800           0
     50318 TIP3     13468    TIP3     OH2      OT      -0.834000       15.9994           0
     50319 TIP3     13468    TIP3     H1       HT       0.417000       1.00800           0
     50320 TIP3     13468    TIP3     H2       HT       0.417000       1.00800           0
     50321 TIP3     13469    TIP3     OH2      OT      -0.834000       15.9994           0
     50322 TIP3     13469    TIP3     H1       HT       0.417000       1.00800           0
     50323 TIP3     13469    TIP3     H2       HT       0.417000       1.00800           0
     50324 TIP3     13470    TIP3     OH2      OT      -0.834000       15.9994           0
     50325 TIP3     13470    TIP3     H1       HT       0.417000       1.00800           0
     50326 TIP3     13470    TIP3     H2       HT       0.417000       1.00800           0
     50327 TIP3     13471    TIP3     OH2      OT      -0.834000       15.9994           0
     50328 TIP3     13471    TIP3     H1       HT       0.417000       1.00800           0
     50329 TIP3     13471    TIP3     H2       HT       0.417000       1.00800           0
     50330 TIP3     13472    TIP3     OH2      OT      -0.834000       15.9994           0
     50331 TIP3     13472    TIP3     H1       HT       0.417000       1.00800           0
     50332 TIP3     13472    TIP3     H2       HT       0.417000       1.00800           0
     50333 TIP3     13473    TIP3     OH2      OT      -0.834000       15.9994           0
     50334 TIP3     13473    TIP3     H1       HT       0.417000       1.00800           0
     50335 TIP3     13473    TIP3     H2       HT       0.417000       1.00800           0
     50336 TIP3     13474    TIP3     OH2      OT      -0.834000       15.9994           0
     50337 TIP3     13474    TIP3     H1       HT       0.417000       1.00800           0
     50338 TIP3     13474    TIP3     H2       HT       0.417000       1.00800           0
     50339 TIP3     13475    TIP3     OH2      OT      -0.834000       15.9994           0
     50340 TIP3     13475    TIP3     H1       HT       0.417000       1.00800           0
     50341 TIP3     13475    TIP3     H2       HT       0.417000       1.00800           0
     50342 TIP3     13476    TIP3     OH2      OT      -0.834000       15.9994           0
     50343 TIP3     13476    TIP3     H1       HT       0.417000       1.00800           0
     50344 TIP3     13476    TIP3     H2       HT       0.417000       1.00800           0
     50345 TIP3     13477    TIP3     OH2      OT      -0.834000       15.9994           0
     50346 TIP3     13477    TIP3     H1       HT       0.417000       1.00800           0
     50347 TIP3     13477    TIP3     H2       HT       0.417000       1.00800           0
     50348 TIP3     13478    TIP3     OH2      OT      -0.834000       15.9994           0
     50349 TIP3     13478    TIP3     H1       HT       0.417000       1.00800           0
     50350 TIP3     13478    TIP3     H2       HT       0.417000       1.00800           0
     50351 TIP3     13479    TIP3     OH2      OT      -0.834000       15.9994           0
     50352 TIP3     13479    TIP3     H1       HT       0.417000       1.00800           0
     50353 TIP3     13479    TIP3     H2       HT       0.417000       1.00800           0
     50354 TIP3     13480    TIP3     OH2      OT      -0.834000       15.9994           0
     50355 TIP3     13480    TIP3     H1       HT       0.417000       1.00800           0
     50356 TIP3     13480    TIP3     H2       HT       0.417000       1.00800           0
     50357 TIP3     13481    TIP3     OH2      OT      -0.834000       15.9994           0
     50358 TIP3     13481    TIP3     H1       HT       0.417000       1.00800           0
     50359 TIP3     13481    TIP3     H2       HT       0.417000       1.00800           0
     50360 TIP3     13482    TIP3     OH2      OT      -0.834000       15.9994           0
     50361 TIP3     13482    TIP3     H1       HT       0.417000       1.00800           0
     50362 TIP3     13482    TIP3     H2       HT       0.417000       1.00800           0
     50363 TIP3     13483    TIP3     OH2      OT      -0.834000       15.9994           0
     50364 TIP3     13483    TIP3     H1       HT       0.417000       1.00800           0
     50365 TIP3     13483    TIP3     H2       HT       0.417000       1.00800           0
     50366 TIP3     13484    TIP3     OH2      OT      -0.834000       15.9994           0
     50367 TIP3     13484    TIP3     H1       HT       0.417000       1.00800           0
     50368 TIP3     13484    TIP3     H2       HT       0.417000       1.00800           0
     50369 TIP3     13485    TIP3     OH2      OT      -0.834000       15.9994           0
     50370 TIP3     13485    TIP3     H1       HT       0.417000       1.00800           0
     50371 TIP3     13485    TIP3     H2       HT       0.417000       1.00800           0
     50372 TIP3     13486    TIP3     OH2      OT      -0.834000       15.9994           0
     50373 TIP3     13486    TIP3     H1       HT       0.417000       1.00800           0
     50374 TIP3     13486    TIP3     H2       HT       0.417000       1.00800           0
     50375 TIP3     13487    TIP3     OH2      OT      -0.834000       15.9994           0
     50376 TIP3     13487    TIP3     H1       HT       0.417000       1.00800           0
     50377 TIP3     13487    TIP3     H2       HT       0.417000       1.00800           0
     50378 TIP3     13488    TIP3     OH2      OT      -0.834000       15.9994           0
     50379 TIP3     13488    TIP3     H1       HT       0.417000       1.00800           0
     50380 TIP3     13488    TIP3     H2       HT       0.417000       1.00800           0
     50381 TIP3     13489    TIP3     OH2      OT      -0.834000       15.9994           0
     50382 TIP3     13489    TIP3     H1       HT       0.417000       1.00800           0
     50383 TIP3     13489    TIP3     H2       HT       0.417000       1.00800           0
     50384 TIP3     13490    TIP3     OH2      OT      -0.834000       15.9994           0
     50385 TIP3     13490    TIP3     H1       HT       0.417000       1.00800           0
     50386 TIP3     13490    TIP3     H2       HT       0.417000       1.00800           0
     50387 TIP3     13491    TIP3     OH2      OT      -0.834000       15.9994           0
     50388 TIP3     13491    TIP3     H1       HT       0.417000       1.00800           0
     50389 TIP3     13491    TIP3     H2       HT       0.417000       1.00800           0
     50390 TIP3     13492    TIP3     OH2      OT      -0.834000       15.9994           0
     50391 TIP3     13492    TIP3     H1       HT       0.417000       1.00800           0
     50392 TIP3     13492    TIP3     H2       HT       0.417000       1.00800           0
     50393 TIP3     13493    TIP3     OH2      OT      -0.834000       15.9994           0
     50394 TIP3     13493    TIP3     H1       HT       0.417000       1.00800           0
     50395 TIP3     13493    TIP3     H2       HT       0.417000       1.00800           0
     50396 TIP3     13494    TIP3     OH2      OT      -0.834000       15.9994           0
     50397 TIP3     13494    TIP3     H1       HT       0.417000       1.00800           0
     50398 TIP3     13494    TIP3     H2       HT       0.417000       1.00800           0
     50399 TIP3     13495    TIP3     OH2      OT      -0.834000       15.9994           0
     50400 TIP3     13495    TIP3     H1       HT       0.417000       1.00800           0
     50401 TIP3     13495    TIP3     H2       HT       0.417000       1.00800           0
     50402 TIP3     13496    TIP3     OH2      OT      -0.834000       15.9994           0
     50403 TIP3     13496    TIP3     H1       HT       0.417000       1.00800           0
     50404 TIP3     13496    TIP3     H2       HT       0.417000       1.00800           0
     50405 TIP3     13497    TIP3     OH2      OT      -0.834000       15.9994           0
     50406 TIP3     13497    TIP3     H1       HT       0.417000       1.00800           0
     50407 TIP3     13497    TIP3     H2       HT       0.417000       1.00800           0
     50408 TIP3     13498    TIP3     OH2      OT      -0.834000       15.9994           0
     50409 TIP3     13498    TIP3     H1       HT       0.417000       1.00800           0
     50410 TIP3     13498    TIP3     H2       HT       0.417000       1.00800           0
     50411 TIP3     13499    TIP3     OH2      OT      -0.834000       15.9994           0
     50412 TIP3     13499    TIP3     H1       HT       0.417000       1.00800           0
     50413 TIP3     13499    TIP3     H2       HT       0.417000       1.00800           0
     50414 TIP3     13500    TIP3     OH2      OT      -0.834000       15.9994           0
     50415 TIP3     13500    TIP3     H1       HT       0.417000       1.00800           0
     50416 TIP3     13500    TIP3     H2       HT       0.417000       1.00800           0
     50417 TIP3     13501    TIP3     OH2      OT      -0.834000       15.9994           0
     50418 TIP3     13501    TIP3     H1       HT       0.417000       1.00800           0
     50419 TIP3     13501    TIP3     H2       HT       0.417000       1.00800           0
     50420 TIP3     13502    TIP3     OH2      OT      -0.834000       15.9994           0
     50421 TIP3     13502    TIP3     H1       HT       0.417000       1.00800           0
     50422 TIP3     13502    TIP3     H2       HT       0.417000       1.00800           0
     50423 TIP3     13503    TIP3     OH2      OT      -0.834000       15.9994           0
     50424 TIP3     13503    TIP3     H1       HT       0.417000       1.00800           0
     50425 TIP3     13503    TIP3     H2       HT       0.417000       1.00800           0
     50426 TIP3     13504    TIP3     OH2      OT      -0.834000       15.9994           0
     50427 TIP3     13504    TIP3     H1       HT       0.417000       1.00800           0
     50428 TIP3     13504    TIP3     H2       HT       0.417000       1.00800           0
     50429 TIP3     13505    TIP3     OH2      OT      -0.834000       15.9994           0
     50430 TIP3     13505    TIP3     H1       HT       0.417000       1.00800           0
     50431 TIP3     13505    TIP3     H2       HT       0.417000       1.00800           0
     50432 TIP3     13506    TIP3     OH2      OT      -0.834000       15.9994           0
     50433 TIP3     13506    TIP3     H1       HT       0.417000       1.00800           0
     50434 TIP3     13506    TIP3     H2       HT       0.417000       1.00800           0
     50435 TIP3     13507    TIP3     OH2      OT      -0.834000       15.9994           0
     50436 TIP3     13507    TIP3     H1       HT       0.417000       1.00800           0
     50437 TIP3     13507    TIP3     H2       HT       0.417000       1.00800           0
     50438 TIP3     13508    TIP3     OH2      OT      -0.834000       15.9994           0
     50439 TIP3     13508    TIP3     H1       HT       0.417000       1.00800           0
     50440 TIP3     13508    TIP3     H2       HT       0.417000       1.00800           0
     50441 TIP3     13509    TIP3     OH2      OT      -0.834000       15.9994           0
     50442 TIP3     13509    TIP3     H1       HT       0.417000       1.00800           0
     50443 TIP3     13509    TIP3     H2       HT       0.417000       1.00800           0
     50444 TIP3     13510    TIP3     OH2      OT      -0.834000       15.9994           0
     50445 TIP3     13510    TIP3     H1       HT       0.417000       1.00800           0
     50446 TIP3     13510    TIP3     H2       HT       0.417000       1.00800           0
     50447 TIP3     13511    TIP3     OH2      OT      -0.834000       15.9994           0
     50448 TIP3     13511    TIP3     H1       HT       0.417000       1.00800           0
     50449 TIP3     13511    TIP3     H2       HT       0.417000       1.00800           0
     50450 TIP3     13512    TIP3     OH2      OT      -0.834000       15.9994           0
     50451 TIP3     13512    TIP3     H1       HT       0.417000       1.00800           0
     50452 TIP3     13512    TIP3     H2       HT       0.417000       1.00800           0
     50453 TIP3     13513    TIP3     OH2      OT      -0.834000       15.9994           0
     50454 TIP3     13513    TIP3     H1       HT       0.417000       1.00800           0
     50455 TIP3     13513    TIP3     H2       HT       0.417000       1.00800           0
     50456 TIP3     13514    TIP3     OH2      OT      -0.834000       15.9994           0
     50457 TIP3     13514    TIP3     H1       HT       0.417000       1.00800           0
     50458 TIP3     13514    TIP3     H2       HT       0.417000       1.00800           0
     50459 TIP3     13515    TIP3     OH2      OT      -0.834000       15.9994           0
     50460 TIP3     13515    TIP3     H1       HT       0.417000       1.00800           0
     50461 TIP3     13515    TIP3     H2       HT       0.417000       1.00800           0
     50462 TIP3     13516    TIP3     OH2      OT      -0.834000       15.9994           0
     50463 TIP3     13516    TIP3     H1       HT       0.417000       1.00800           0
     50464 TIP3     13516    TIP3     H2       HT       0.417000       1.00800           0
     50465 TIP3     13517    TIP3     OH2      OT      -0.834000       15.9994           0
     50466 TIP3     13517    TIP3     H1       HT       0.417000       1.00800           0
     50467 TIP3     13517    TIP3     H2       HT       0.417000       1.00800           0
     50468 TIP3     13518    TIP3     OH2      OT      -0.834000       15.9994           0
     50469 TIP3     13518    TIP3     H1       HT       0.417000       1.00800           0
     50470 TIP3     13518    TIP3     H2       HT       0.417000       1.00800           0
     50471 TIP3     13519    TIP3     OH2      OT      -0.834000       15.9994           0
     50472 TIP3     13519    TIP3     H1       HT       0.417000       1.00800           0
     50473 TIP3     13519    TIP3     H2       HT       0.417000       1.00800           0
     50474 TIP3     13520    TIP3     OH2      OT      -0.834000       15.9994           0
     50475 TIP3     13520    TIP3     H1       HT       0.417000       1.00800           0
     50476 TIP3     13520    TIP3     H2       HT       0.417000       1.00800           0
     50477 TIP3     13521    TIP3     OH2      OT      -0.834000       15.9994           0
     50478 TIP3     13521    TIP3     H1       HT       0.417000       1.00800           0
     50479 TIP3     13521    TIP3     H2       HT       0.417000       1.00800           0
     50480 TIP3     13522    TIP3     OH2      OT      -0.834000       15.9994           0
     50481 TIP3     13522    TIP3     H1       HT       0.417000       1.00800           0
     50482 TIP3     13522    TIP3     H2       HT       0.417000       1.00800           0
     50483 TIP3     13523    TIP3     OH2      OT      -0.834000       15.9994           0
     50484 TIP3     13523    TIP3     H1       HT       0.417000       1.00800           0
     50485 TIP3     13523    TIP3     H2       HT       0.417000       1.00800           0
     50486 TIP3     13524    TIP3     OH2      OT      -0.834000       15.9994           0
     50487 TIP3     13524    TIP3     H1       HT       0.417000       1.00800           0
     50488 TIP3     13524    TIP3     H2       HT       0.417000       1.00800           0
     50489 TIP3     13525    TIP3     OH2      OT      -0.834000       15.9994           0
     50490 TIP3     13525    TIP3     H1       HT       0.417000       1.00800           0
     50491 TIP3     13525    TIP3     H2       HT       0.417000       1.00800           0
     50492 TIP3     13526    TIP3     OH2      OT      -0.834000       15.9994           0
     50493 TIP3     13526    TIP3     H1       HT       0.417000       1.00800           0
     50494 TIP3     13526    TIP3     H2       HT       0.417000       1.00800           0
     50495 TIP3     13527    TIP3     OH2      OT      -0.834000       15.9994           0
     50496 TIP3     13527    TIP3     H1       HT       0.417000       1.00800           0
     50497 TIP3     13527    TIP3     H2       HT       0.417000       1.00800           0
     50498 TIP3     13528    TIP3     OH2      OT      -0.834000       15.9994           0
     50499 TIP3     13528    TIP3     H1       HT       0.417000       1.00800           0
     50500 TIP3     13528    TIP3     H2       HT       0.417000       1.00800           0
     50501 TIP3     13529    TIP3     OH2      OT      -0.834000       15.9994           0
     50502 TIP3     13529    TIP3     H1       HT       0.417000       1.00800           0
     50503 TIP3     13529    TIP3     H2       HT       0.417000       1.00800           0
     50504 TIP3     13530    TIP3     OH2      OT      -0.834000       15.9994           0
     50505 TIP3     13530    TIP3     H1       HT       0.417000       1.00800           0
     50506 TIP3     13530    TIP3     H2       HT       0.417000       1.00800           0
     50507 TIP3     13531    TIP3     OH2      OT      -0.834000       15.9994           0
     50508 TIP3     13531    TIP3     H1       HT       0.417000       1.00800           0
     50509 TIP3     13531    TIP3     H2       HT       0.417000       1.00800           0
     50510 TIP3     13532    TIP3     OH2      OT      -0.834000       15.9994           0
     50511 TIP3     13532    TIP3     H1       HT       0.417000       1.00800           0
     50512 TIP3     13532    TIP3     H2       HT       0.417000       1.00800           0
     50513 TIP3     13533    TIP3     OH2      OT      -0.834000       15.9994           0
     50514 TIP3     13533    TIP3     H1       HT       0.417000       1.00800           0
     50515 TIP3     13533    TIP3     H2       HT       0.417000       1.00800           0
     50516 TIP3     13534    TIP3     OH2      OT      -0.834000       15.9994           0
     50517 TIP3     13534    TIP3     H1       HT       0.417000       1.00800           0
     50518 TIP3     13534    TIP3     H2       HT       0.417000       1.00800           0
     50519 TIP3     13535    TIP3     OH2      OT      -0.834000       15.9994           0
     50520 TIP3     13535    TIP3     H1       HT       0.417000       1.00800           0
     50521 TIP3     13535    TIP3     H2       HT       0.417000       1.00800           0
     50522 TIP3     13536    TIP3     OH2      OT      -0.834000       15.9994           0
     50523 TIP3     13536    TIP3     H1       HT       0.417000       1.00800           0
     50524 TIP3     13536    TIP3     H2       HT       0.417000       1.00800           0
     50525 TIP3     13537    TIP3     OH2      OT      -0.834000       15.9994           0
     50526 TIP3     13537    TIP3     H1       HT       0.417000       1.00800           0
     50527 TIP3     13537    TIP3     H2       HT       0.417000       1.00800           0
     50528 TIP3     13538    TIP3     OH2      OT      -0.834000       15.9994           0
     50529 TIP3     13538    TIP3     H1       HT       0.417000       1.00800           0
     50530 TIP3     13538    TIP3     H2       HT       0.417000       1.00800           0
     50531 TIP3     13539    TIP3     OH2      OT      -0.834000       15.9994           0
     50532 TIP3     13539    TIP3     H1       HT       0.417000       1.00800           0
     50533 TIP3     13539    TIP3     H2       HT       0.417000       1.00800           0
     50534 TIP3     13540    TIP3     OH2      OT      -0.834000       15.9994           0
     50535 TIP3     13540    TIP3     H1       HT       0.417000       1.00800           0
     50536 TIP3     13540    TIP3     H2       HT       0.417000       1.00800           0
     50537 TIP3     13541    TIP3     OH2      OT      -0.834000       15.9994           0
     50538 TIP3     13541    TIP3     H1       HT       0.417000       1.00800           0
     50539 TIP3     13541    TIP3     H2       HT       0.417000       1.00800           0
     50540 TIP3     13542    TIP3     OH2      OT      -0.834000       15.9994           0
     50541 TIP3     13542    TIP3     H1       HT       0.417000       1.00800           0
     50542 TIP3     13542    TIP3     H2       HT       0.417000       1.00800           0
     50543 TIP3     13543    TIP3     OH2      OT      -0.834000       15.9994           0
     50544 TIP3     13543    TIP3     H1       HT       0.417000       1.00800           0
     50545 TIP3     13543    TIP3     H2       HT       0.417000       1.00800           0
     50546 TIP3     13544    TIP3     OH2      OT      -0.834000       15.9994           0
     50547 TIP3     13544    TIP3     H1       HT       0.417000       1.00800           0
     50548 TIP3     13544    TIP3     H2       HT       0.417000       1.00800           0
     50549 TIP3     13545    TIP3     OH2      OT      -0.834000       15.9994           0
     50550 TIP3     13545    TIP3     H1       HT       0.417000       1.00800           0
     50551 TIP3     13545    TIP3     H2       HT       0.417000       1.00800           0
     50552 TIP3     13546    TIP3     OH2      OT      -0.834000       15.9994           0
     50553 TIP3     13546    TIP3     H1       HT       0.417000       1.00800           0
     50554 TIP3     13546    TIP3     H2       HT       0.417000       1.00800           0
     50555 TIP3     13547    TIP3     OH2      OT      -0.834000       15.9994           0
     50556 TIP3     13547    TIP3     H1       HT       0.417000       1.00800           0
     50557 TIP3     13547    TIP3     H2       HT       0.417000       1.00800           0
     50558 TIP3     13548    TIP3     OH2      OT      -0.834000       15.9994           0
     50559 TIP3     13548    TIP3     H1       HT       0.417000       1.00800           0
     50560 TIP3     13548    TIP3     H2       HT       0.417000       1.00800           0
     50561 TIP3     13549    TIP3     OH2      OT      -0.834000       15.9994           0
     50562 TIP3     13549    TIP3     H1       HT       0.417000       1.00800           0
     50563 TIP3     13549    TIP3     H2       HT       0.417000       1.00800           0
     50564 TIP3     13550    TIP3     OH2      OT      -0.834000       15.9994           0
     50565 TIP3     13550    TIP3     H1       HT       0.417000       1.00800           0
     50566 TIP3     13550    TIP3     H2       HT       0.417000       1.00800           0
     50567 TIP3     13551    TIP3     OH2      OT      -0.834000       15.9994           0
     50568 TIP3     13551    TIP3     H1       HT       0.417000       1.00800           0
     50569 TIP3     13551    TIP3     H2       HT       0.417000       1.00800           0
     50570 TIP3     13552    TIP3     OH2      OT      -0.834000       15.9994           0
     50571 TIP3     13552    TIP3     H1       HT       0.417000       1.00800           0
     50572 TIP3     13552    TIP3     H2       HT       0.417000       1.00800           0
     50573 TIP3     13553    TIP3     OH2      OT      -0.834000       15.9994           0
     50574 TIP3     13553    TIP3     H1       HT       0.417000       1.00800           0
     50575 TIP3     13553    TIP3     H2       HT       0.417000       1.00800           0
     50576 TIP3     13554    TIP3     OH2      OT      -0.834000       15.9994           0
     50577 TIP3     13554    TIP3     H1       HT       0.417000       1.00800           0
     50578 TIP3     13554    TIP3     H2       HT       0.417000       1.00800           0
     50579 TIP3     13555    TIP3     OH2      OT      -0.834000       15.9994           0
     50580 TIP3     13555    TIP3     H1       HT       0.417000       1.00800           0
     50581 TIP3     13555    TIP3     H2       HT       0.417000       1.00800           0
     50582 TIP3     13556    TIP3     OH2      OT      -0.834000       15.9994           0
     50583 TIP3     13556    TIP3     H1       HT       0.417000       1.00800           0
     50584 TIP3     13556    TIP3     H2       HT       0.417000       1.00800           0
     50585 TIP3     13557    TIP3     OH2      OT      -0.834000       15.9994           0
     50586 TIP3     13557    TIP3     H1       HT       0.417000       1.00800           0
     50587 TIP3     13557    TIP3     H2       HT       0.417000       1.00800           0
     50588 TIP3     13558    TIP3     OH2      OT      -0.834000       15.9994           0
     50589 TIP3     13558    TIP3     H1       HT       0.417000       1.00800           0
     50590 TIP3     13558    TIP3     H2       HT       0.417000       1.00800           0
     50591 TIP3     13559    TIP3     OH2      OT      -0.834000       15.9994           0
     50592 TIP3     13559    TIP3     H1       HT       0.417000       1.00800           0
     50593 TIP3     13559    TIP3     H2       HT       0.417000       1.00800           0
     50594 TIP3     13560    TIP3     OH2      OT      -0.834000       15.9994           0
     50595 TIP3     13560    TIP3     H1       HT       0.417000       1.00800           0
     50596 TIP3     13560    TIP3     H2       HT       0.417000       1.00800           0
     50597 TIP3     13561    TIP3     OH2      OT      -0.834000       15.9994           0
     50598 TIP3     13561    TIP3     H1       HT       0.417000       1.00800           0
     50599 TIP3     13561    TIP3     H2       HT       0.417000       1.00800           0
     50600 TIP3     13562    TIP3     OH2      OT      -0.834000       15.9994           0
     50601 TIP3     13562    TIP3     H1       HT       0.417000       1.00800           0
     50602 TIP3     13562    TIP3     H2       HT       0.417000       1.00800           0
     50603 TIP3     13563    TIP3     OH2      OT      -0.834000       15.9994           0
     50604 TIP3     13563    TIP3     H1       HT       0.417000       1.00800           0
     50605 TIP3     13563    TIP3     H2       HT       0.417000       1.00800           0
     50606 TIP3     13564    TIP3     OH2      OT      -0.834000       15.9994           0
     50607 TIP3     13564    TIP3     H1       HT       0.417000       1.00800           0
     50608 TIP3     13564    TIP3     H2       HT       0.417000       1.00800           0
     50609 TIP3     13565    TIP3     OH2      OT      -0.834000       15.9994           0
     50610 TIP3     13565    TIP3     H1       HT       0.417000       1.00800           0
     50611 TIP3     13565    TIP3     H2       HT       0.417000       1.00800           0
     50612 TIP3     13566    TIP3     OH2      OT      -0.834000       15.9994           0
     50613 TIP3     13566    TIP3     H1       HT       0.417000       1.00800           0
     50614 TIP3     13566    TIP3     H2       HT       0.417000       1.00800           0
     50615 TIP3     13567    TIP3     OH2      OT      -0.834000       15.9994           0
     50616 TIP3     13567    TIP3     H1       HT       0.417000       1.00800           0
     50617 TIP3     13567    TIP3     H2       HT       0.417000       1.00800           0
     50618 TIP3     13568    TIP3     OH2      OT      -0.834000       15.9994           0
     50619 TIP3     13568    TIP3     H1       HT       0.417000       1.00800           0
     50620 TIP3     13568    TIP3     H2       HT       0.417000       1.00800           0
     50621 TIP3     13569    TIP3     OH2      OT      -0.834000       15.9994           0
     50622 TIP3     13569    TIP3     H1       HT       0.417000       1.00800           0
     50623 TIP3     13569    TIP3     H2       HT       0.417000       1.00800           0
     50624 TIP3     13570    TIP3     OH2      OT      -0.834000       15.9994           0
     50625 TIP3     13570    TIP3     H1       HT       0.417000       1.00800           0
     50626 TIP3     13570    TIP3     H2       HT       0.417000       1.00800           0
     50627 TIP3     13571    TIP3     OH2      OT      -0.834000       15.9994           0
     50628 TIP3     13571    TIP3     H1       HT       0.417000       1.00800           0
     50629 TIP3     13571    TIP3     H2       HT       0.417000       1.00800           0
     50630 TIP3     13572    TIP3     OH2      OT      -0.834000       15.9994           0
     50631 TIP3     13572    TIP3     H1       HT       0.417000       1.00800           0
     50632 TIP3     13572    TIP3     H2       HT       0.417000       1.00800           0
     50633 TIP3     13573    TIP3     OH2      OT      -0.834000       15.9994           0
     50634 TIP3     13573    TIP3     H1       HT       0.417000       1.00800           0
     50635 TIP3     13573    TIP3     H2       HT       0.417000       1.00800           0
     50636 TIP3     13574    TIP3     OH2      OT      -0.834000       15.9994           0
     50637 TIP3     13574    TIP3     H1       HT       0.417000       1.00800           0
     50638 TIP3     13574    TIP3     H2       HT       0.417000       1.00800           0
     50639 TIP3     13575    TIP3     OH2      OT      -0.834000       15.9994           0
     50640 TIP3     13575    TIP3     H1       HT       0.417000       1.00800           0
     50641 TIP3     13575    TIP3     H2       HT       0.417000       1.00800           0
     50642 TIP3     13576    TIP3     OH2      OT      -0.834000       15.9994           0
     50643 TIP3     13576    TIP3     H1       HT       0.417000       1.00800           0
     50644 TIP3     13576    TIP3     H2       HT       0.417000       1.00800           0
     50645 TIP3     13577    TIP3     OH2      OT      -0.834000       15.9994           0
     50646 TIP3     13577    TIP3     H1       HT       0.417000       1.00800           0
     50647 TIP3     13577    TIP3     H2       HT       0.417000       1.00800           0
     50648 TIP3     13578    TIP3     OH2      OT      -0.834000       15.9994           0
     50649 TIP3     13578    TIP3     H1       HT       0.417000       1.00800           0
     50650 TIP3     13578    TIP3     H2       HT       0.417000       1.00800           0
     50651 TIP3     13579    TIP3     OH2      OT      -0.834000       15.9994           0
     50652 TIP3     13579    TIP3     H1       HT       0.417000       1.00800           0
     50653 TIP3     13579    TIP3     H2       HT       0.417000       1.00800           0
     50654 TIP3     13580    TIP3     OH2      OT      -0.834000       15.9994           0
     50655 TIP3     13580    TIP3     H1       HT       0.417000       1.00800           0
     50656 TIP3     13580    TIP3     H2       HT       0.417000       1.00800           0
     50657 TIP3     13581    TIP3     OH2      OT      -0.834000       15.9994           0
     50658 TIP3     13581    TIP3     H1       HT       0.417000       1.00800           0
     50659 TIP3     13581    TIP3     H2       HT       0.417000       1.00800           0
     50660 TIP3     13582    TIP3     OH2      OT      -0.834000       15.9994           0
     50661 TIP3     13582    TIP3     H1       HT       0.417000       1.00800           0
     50662 TIP3     13582    TIP3     H2       HT       0.417000       1.00800           0
     50663 TIP3     13583    TIP3     OH2      OT      -0.834000       15.9994           0
     50664 TIP3     13583    TIP3     H1       HT       0.417000       1.00800           0
     50665 TIP3     13583    TIP3     H2       HT       0.417000       1.00800           0
     50666 TIP3     13584    TIP3     OH2      OT      -0.834000       15.9994           0
     50667 TIP3     13584    TIP3     H1       HT       0.417000       1.00800           0
     50668 TIP3     13584    TIP3     H2       HT       0.417000       1.00800           0
     50669 TIP3     13585    TIP3     OH2      OT      -0.834000       15.9994           0
     50670 TIP3     13585    TIP3     H1       HT       0.417000       1.00800           0
     50671 TIP3     13585    TIP3     H2       HT       0.417000       1.00800           0
     50672 TIP3     13586    TIP3     OH2      OT      -0.834000       15.9994           0
     50673 TIP3     13586    TIP3     H1       HT       0.417000       1.00800           0
     50674 TIP3     13586    TIP3     H2       HT       0.417000       1.00800           0
     50675 TIP3     13587    TIP3     OH2      OT      -0.834000       15.9994           0
     50676 TIP3     13587    TIP3     H1       HT       0.417000       1.00800           0
     50677 TIP3     13587    TIP3     H2       HT       0.417000       1.00800           0
     50678 TIP3     13588    TIP3     OH2      OT      -0.834000       15.9994           0
     50679 TIP3     13588    TIP3     H1       HT       0.417000       1.00800           0
     50680 TIP3     13588    TIP3     H2       HT       0.417000       1.00800           0
     50681 TIP3     13589    TIP3     OH2      OT      -0.834000       15.9994           0
     50682 TIP3     13589    TIP3     H1       HT       0.417000       1.00800           0
     50683 TIP3     13589    TIP3     H2       HT       0.417000       1.00800           0
     50684 TIP3     13590    TIP3     OH2      OT      -0.834000       15.9994           0
     50685 TIP3     13590    TIP3     H1       HT       0.417000       1.00800           0
     50686 TIP3     13590    TIP3     H2       HT       0.417000       1.00800           0
     50687 TIP3     13591    TIP3     OH2      OT      -0.834000       15.9994           0
     50688 TIP3     13591    TIP3     H1       HT       0.417000       1.00800           0
     50689 TIP3     13591    TIP3     H2       HT       0.417000       1.00800           0
     50690 TIP3     13592    TIP3     OH2      OT      -0.834000       15.9994           0
     50691 TIP3     13592    TIP3     H1       HT       0.417000       1.00800           0
     50692 TIP3     13592    TIP3     H2       HT       0.417000       1.00800           0
     50693 TIP3     13593    TIP3     OH2      OT      -0.834000       15.9994           0
     50694 TIP3     13593    TIP3     H1       HT       0.417000       1.00800           0
     50695 TIP3     13593    TIP3     H2       HT       0.417000       1.00800           0
     50696 TIP3     13594    TIP3     OH2      OT      -0.834000       15.9994           0
     50697 TIP3     13594    TIP3     H1       HT       0.417000       1.00800           0
     50698 TIP3     13594    TIP3     H2       HT       0.417000       1.00800           0
     50699 TIP3     13595    TIP3     OH2      OT      -0.834000       15.9994           0
     50700 TIP3     13595    TIP3     H1       HT       0.417000       1.00800           0
     50701 TIP3     13595    TIP3     H2       HT       0.417000       1.00800           0
     50702 TIP3     13596    TIP3     OH2      OT      -0.834000       15.9994           0
     50703 TIP3     13596    TIP3     H1       HT       0.417000       1.00800           0
     50704 TIP3     13596    TIP3     H2       HT       0.417000       1.00800           0
     50705 TIP3     13597    TIP3     OH2      OT      -0.834000       15.9994           0
     50706 TIP3     13597    TIP3     H1       HT       0.417000       1.00800           0
     50707 TIP3     13597    TIP3     H2       HT       0.417000       1.00800           0
     50708 TIP3     13598    TIP3     OH2      OT      -0.834000       15.9994           0
     50709 TIP3     13598    TIP3     H1       HT       0.417000       1.00800           0
     50710 TIP3     13598    TIP3     H2       HT       0.417000       1.00800           0
     50711 TIP3     13599    TIP3     OH2      OT      -0.834000       15.9994           0
     50712 TIP3     13599    TIP3     H1       HT       0.417000       1.00800           0
     50713 TIP3     13599    TIP3     H2       HT       0.417000       1.00800           0
     50714 TIP3     13600    TIP3     OH2      OT      -0.834000       15.9994           0
     50715 TIP3     13600    TIP3     H1       HT       0.417000       1.00800           0
     50716 TIP3     13600    TIP3     H2       HT       0.417000       1.00800           0
     50717 TIP3     13601    TIP3     OH2      OT      -0.834000       15.9994           0
     50718 TIP3     13601    TIP3     H1       HT       0.417000       1.00800           0
     50719 TIP3     13601    TIP3     H2       HT       0.417000       1.00800           0
     50720 TIP3     13602    TIP3     OH2      OT      -0.834000       15.9994           0
     50721 TIP3     13602    TIP3     H1       HT       0.417000       1.00800           0
     50722 TIP3     13602    TIP3     H2       HT       0.417000       1.00800           0
     50723 TIP3     13603    TIP3     OH2      OT      -0.834000       15.9994           0
     50724 TIP3     13603    TIP3     H1       HT       0.417000       1.00800           0
     50725 TIP3     13603    TIP3     H2       HT       0.417000       1.00800           0
     50726 TIP3     13604    TIP3     OH2      OT      -0.834000       15.9994           0
     50727 TIP3     13604    TIP3     H1       HT       0.417000       1.00800           0
     50728 TIP3     13604    TIP3     H2       HT       0.417000       1.00800           0
     50729 TIP3     13605    TIP3     OH2      OT      -0.834000       15.9994           0
     50730 TIP3     13605    TIP3     H1       HT       0.417000       1.00800           0
     50731 TIP3     13605    TIP3     H2       HT       0.417000       1.00800           0
     50732 TIP3     13606    TIP3     OH2      OT      -0.834000       15.9994           0
     50733 TIP3     13606    TIP3     H1       HT       0.417000       1.00800           0
     50734 TIP3     13606    TIP3     H2       HT       0.417000       1.00800           0
     50735 TIP3     13607    TIP3     OH2      OT      -0.834000       15.9994           0
     50736 TIP3     13607    TIP3     H1       HT       0.417000       1.00800           0
     50737 TIP3     13607    TIP3     H2       HT       0.417000       1.00800           0
     50738 TIP3     13608    TIP3     OH2      OT      -0.834000       15.9994           0
     50739 TIP3     13608    TIP3     H1       HT       0.417000       1.00800           0
     50740 TIP3     13608    TIP3     H2       HT       0.417000       1.00800           0
     50741 TIP3     13609    TIP3     OH2      OT      -0.834000       15.9994           0
     50742 TIP3     13609    TIP3     H1       HT       0.417000       1.00800           0
     50743 TIP3     13609    TIP3     H2       HT       0.417000       1.00800           0
     50744 TIP3     13610    TIP3     OH2      OT      -0.834000       15.9994           0
     50745 TIP3     13610    TIP3     H1       HT       0.417000       1.00800           0
     50746 TIP3     13610    TIP3     H2       HT       0.417000       1.00800           0
     50747 TIP3     13611    TIP3     OH2      OT      -0.834000       15.9994           0
     50748 TIP3     13611    TIP3     H1       HT       0.417000       1.00800           0
     50749 TIP3     13611    TIP3     H2       HT       0.417000       1.00800           0
     50750 TIP3     13612    TIP3     OH2      OT      -0.834000       15.9994           0
     50751 TIP3     13612    TIP3     H1       HT       0.417000       1.00800           0
     50752 TIP3     13612    TIP3     H2       HT       0.417000       1.00800           0
     50753 TIP3     13613    TIP3     OH2      OT      -0.834000       15.9994           0
     50754 TIP3     13613    TIP3     H1       HT       0.417000       1.00800           0
     50755 TIP3     13613    TIP3     H2       HT       0.417000       1.00800           0
     50756 TIP3     13614    TIP3     OH2      OT      -0.834000       15.9994           0
     50757 TIP3     13614    TIP3     H1       HT       0.417000       1.00800           0
     50758 TIP3     13614    TIP3     H2       HT       0.417000       1.00800           0
     50759 TIP3     13615    TIP3     OH2      OT      -0.834000       15.9994           0
     50760 TIP3     13615    TIP3     H1       HT       0.417000       1.00800           0
     50761 TIP3     13615    TIP3     H2       HT       0.417000       1.00800           0
     50762 TIP3     13616    TIP3     OH2      OT      -0.834000       15.9994           0
     50763 TIP3     13616    TIP3     H1       HT       0.417000       1.00800           0
     50764 TIP3     13616    TIP3     H2       HT       0.417000       1.00800           0
     50765 TIP3     13617    TIP3     OH2      OT      -0.834000       15.9994           0
     50766 TIP3     13617    TIP3     H1       HT       0.417000       1.00800           0
     50767 TIP3     13617    TIP3     H2       HT       0.417000       1.00800           0
     50768 TIP3     13618    TIP3     OH2      OT      -0.834000       15.9994           0
     50769 TIP3     13618    TIP3     H1       HT       0.417000       1.00800           0
     50770 TIP3     13618    TIP3     H2       HT       0.417000       1.00800           0
     50771 TIP3     13619    TIP3     OH2      OT      -0.834000       15.9994           0
     50772 TIP3     13619    TIP3     H1       HT       0.417000       1.00800           0
     50773 TIP3     13619    TIP3     H2       HT       0.417000       1.00800           0
     50774 TIP3     13620    TIP3     OH2      OT      -0.834000       15.9994           0
     50775 TIP3     13620    TIP3     H1       HT       0.417000       1.00800           0
     50776 TIP3     13620    TIP3     H2       HT       0.417000       1.00800           0
     50777 TIP3     13621    TIP3     OH2      OT      -0.834000       15.9994           0
     50778 TIP3     13621    TIP3     H1       HT       0.417000       1.00800           0
     50779 TIP3     13621    TIP3     H2       HT       0.417000       1.00800           0
     50780 TIP3     13622    TIP3     OH2      OT      -0.834000       15.9994           0
     50781 TIP3     13622    TIP3     H1       HT       0.417000       1.00800           0
     50782 TIP3     13622    TIP3     H2       HT       0.417000       1.00800           0
     50783 TIP3     13623    TIP3     OH2      OT      -0.834000       15.9994           0
     50784 TIP3     13623    TIP3     H1       HT       0.417000       1.00800           0
     50785 TIP3     13623    TIP3     H2       HT       0.417000       1.00800           0
     50786 TIP3     13624    TIP3     OH2      OT      -0.834000       15.9994           0
     50787 TIP3     13624    TIP3     H1       HT       0.417000       1.00800           0
     50788 TIP3     13624    TIP3     H2       HT       0.417000       1.00800           0
     50789 TIP3     13625    TIP3     OH2      OT      -0.834000       15.9994           0
     50790 TIP3     13625    TIP3     H1       HT       0.417000       1.00800           0
     50791 TIP3     13625    TIP3     H2       HT       0.417000       1.00800           0
     50792 TIP3     13626    TIP3     OH2      OT      -0.834000       15.9994           0
     50793 TIP3     13626    TIP3     H1       HT       0.417000       1.00800           0
     50794 TIP3     13626    TIP3     H2       HT       0.417000       1.00800           0
     50795 TIP3     13627    TIP3     OH2      OT      -0.834000       15.9994           0
     50796 TIP3     13627    TIP3     H1       HT       0.417000       1.00800           0
     50797 TIP3     13627    TIP3     H2       HT       0.417000       1.00800           0
     50798 TIP3     13628    TIP3     OH2      OT      -0.834000       15.9994           0
     50799 TIP3     13628    TIP3     H1       HT       0.417000       1.00800           0
     50800 TIP3     13628    TIP3     H2       HT       0.417000       1.00800           0
     50801 TIP3     13629    TIP3     OH2      OT      -0.834000       15.9994           0
     50802 TIP3     13629    TIP3     H1       HT       0.417000       1.00800           0
     50803 TIP3     13629    TIP3     H2       HT       0.417000       1.00800           0
     50804 TIP3     13630    TIP3     OH2      OT      -0.834000       15.9994           0
     50805 TIP3     13630    TIP3     H1       HT       0.417000       1.00800           0
     50806 TIP3     13630    TIP3     H2       HT       0.417000       1.00800           0
     50807 TIP3     13631    TIP3     OH2      OT      -0.834000       15.9994           0
     50808 TIP3     13631    TIP3     H1       HT       0.417000       1.00800           0
     50809 TIP3     13631    TIP3     H2       HT       0.417000       1.00800           0
     50810 TIP3     13632    TIP3     OH2      OT      -0.834000       15.9994           0
     50811 TIP3     13632    TIP3     H1       HT       0.417000       1.00800           0
     50812 TIP3     13632    TIP3     H2       HT       0.417000       1.00800           0
     50813 TIP3     13633    TIP3     OH2      OT      -0.834000       15.9994           0
     50814 TIP3     13633    TIP3     H1       HT       0.417000       1.00800           0
     50815 TIP3     13633    TIP3     H2       HT       0.417000       1.00800           0
     50816 TIP3     13634    TIP3     OH2      OT      -0.834000       15.9994           0
     50817 TIP3     13634    TIP3     H1       HT       0.417000       1.00800           0
     50818 TIP3     13634    TIP3     H2       HT       0.417000       1.00800           0
     50819 TIP3     13635    TIP3     OH2      OT      -0.834000       15.9994           0
     50820 TIP3     13635    TIP3     H1       HT       0.417000       1.00800           0
     50821 TIP3     13635    TIP3     H2       HT       0.417000       1.00800           0
     50822 TIP3     13636    TIP3     OH2      OT      -0.834000       15.9994           0
     50823 TIP3     13636    TIP3     H1       HT       0.417000       1.00800           0
     50824 TIP3     13636    TIP3     H2       HT       0.417000       1.00800           0
     50825 TIP3     13637    TIP3     OH2      OT      -0.834000       15.9994           0
     50826 TIP3     13637    TIP3     H1       HT       0.417000       1.00800           0
     50827 TIP3     13637    TIP3     H2       HT       0.417000       1.00800           0
     50828 TIP3     13638    TIP3     OH2      OT      -0.834000       15.9994           0
     50829 TIP3     13638    TIP3     H1       HT       0.417000       1.00800           0
     50830 TIP3     13638    TIP3     H2       HT       0.417000       1.00800           0
     50831 TIP3     13639    TIP3     OH2      OT      -0.834000       15.9994           0
     50832 TIP3     13639    TIP3     H1       HT       0.417000       1.00800           0
     50833 TIP3     13639    TIP3     H2       HT       0.417000       1.00800           0
     50834 TIP3     13640    TIP3     OH2      OT      -0.834000       15.9994           0
     50835 TIP3     13640    TIP3     H1       HT       0.417000       1.00800           0
     50836 TIP3     13640    TIP3     H2       HT       0.417000       1.00800           0
     50837 TIP3     13641    TIP3     OH2      OT      -0.834000       15.9994           0
     50838 TIP3     13641    TIP3     H1       HT       0.417000       1.00800           0
     50839 TIP3     13641    TIP3     H2       HT       0.417000       1.00800           0
     50840 TIP3     13642    TIP3     OH2      OT      -0.834000       15.9994           0
     50841 TIP3     13642    TIP3     H1       HT       0.417000       1.00800           0
     50842 TIP3     13642    TIP3     H2       HT       0.417000       1.00800           0
     50843 TIP3     13643    TIP3     OH2      OT      -0.834000       15.9994           0
     50844 TIP3     13643    TIP3     H1       HT       0.417000       1.00800           0
     50845 TIP3     13643    TIP3     H2       HT       0.417000       1.00800           0
     50846 TIP3     13644    TIP3     OH2      OT      -0.834000       15.9994           0
     50847 TIP3     13644    TIP3     H1       HT       0.417000       1.00800           0
     50848 TIP3     13644    TIP3     H2       HT       0.417000       1.00800           0
     50849 TIP3     13645    TIP3     OH2      OT      -0.834000       15.9994           0
     50850 TIP3     13645    TIP3     H1       HT       0.417000       1.00800           0
     50851 TIP3     13645    TIP3     H2       HT       0.417000       1.00800           0
     50852 TIP3     13646    TIP3     OH2      OT      -0.834000       15.9994           0
     50853 TIP3     13646    TIP3     H1       HT       0.417000       1.00800           0
     50854 TIP3     13646    TIP3     H2       HT       0.417000       1.00800           0
     50855 TIP3     13647    TIP3     OH2      OT      -0.834000       15.9994           0
     50856 TIP3     13647    TIP3     H1       HT       0.417000       1.00800           0
     50857 TIP3     13647    TIP3     H2       HT       0.417000       1.00800           0
     50858 TIP3     13648    TIP3     OH2      OT      -0.834000       15.9994           0
     50859 TIP3     13648    TIP3     H1       HT       0.417000       1.00800           0
     50860 TIP3     13648    TIP3     H2       HT       0.417000       1.00800           0
     50861 TIP3     13649    TIP3     OH2      OT      -0.834000       15.9994           0
     50862 TIP3     13649    TIP3     H1       HT       0.417000       1.00800           0
     50863 TIP3     13649    TIP3     H2       HT       0.417000       1.00800           0
     50864 TIP3     13650    TIP3     OH2      OT      -0.834000       15.9994           0
     50865 TIP3     13650    TIP3     H1       HT       0.417000       1.00800           0
     50866 TIP3     13650    TIP3     H2       HT       0.417000       1.00800           0
     50867 TIP3     13651    TIP3     OH2      OT      -0.834000       15.9994           0
     50868 TIP3     13651    TIP3     H1       HT       0.417000       1.00800           0
     50869 TIP3     13651    TIP3     H2       HT       0.417000       1.00800           0
     50870 TIP3     13652    TIP3     OH2      OT      -0.834000       15.9994           0
     50871 TIP3     13652    TIP3     H1       HT       0.417000       1.00800           0
     50872 TIP3     13652    TIP3     H2       HT       0.417000       1.00800           0
     50873 TIP3     13653    TIP3     OH2      OT      -0.834000       15.9994           0
     50874 TIP3     13653    TIP3     H1       HT       0.417000       1.00800           0
     50875 TIP3     13653    TIP3     H2       HT       0.417000       1.00800           0
     50876 TIP3     13654    TIP3     OH2      OT      -0.834000       15.9994           0
     50877 TIP3     13654    TIP3     H1       HT       0.417000       1.00800           0
     50878 TIP3     13654    TIP3     H2       HT       0.417000       1.00800           0
     50879 TIP3     13655    TIP3     OH2      OT      -0.834000       15.9994           0
     50880 TIP3     13655    TIP3     H1       HT       0.417000       1.00800           0
     50881 TIP3     13655    TIP3     H2       HT       0.417000       1.00800           0
     50882 TIP3     13656    TIP3     OH2      OT      -0.834000       15.9994           0
     50883 TIP3     13656    TIP3     H1       HT       0.417000       1.00800           0
     50884 TIP3     13656    TIP3     H2       HT       0.417000       1.00800           0
     50885 TIP3     13657    TIP3     OH2      OT      -0.834000       15.9994           0
     50886 TIP3     13657    TIP3     H1       HT       0.417000       1.00800           0
     50887 TIP3     13657    TIP3     H2       HT       0.417000       1.00800           0
     50888 TIP3     13658    TIP3     OH2      OT      -0.834000       15.9994           0
     50889 TIP3     13658    TIP3     H1       HT       0.417000       1.00800           0
     50890 TIP3     13658    TIP3     H2       HT       0.417000       1.00800           0
     50891 TIP3     13659    TIP3     OH2      OT      -0.834000       15.9994           0
     50892 TIP3     13659    TIP3     H1       HT       0.417000       1.00800           0
     50893 TIP3     13659    TIP3     H2       HT       0.417000       1.00800           0
     50894 TIP3     13660    TIP3     OH2      OT      -0.834000       15.9994           0
     50895 TIP3     13660    TIP3     H1       HT       0.417000       1.00800           0
     50896 TIP3     13660    TIP3     H2       HT       0.417000       1.00800           0
     50897 TIP3     13661    TIP3     OH2      OT      -0.834000       15.9994           0
     50898 TIP3     13661    TIP3     H1       HT       0.417000       1.00800           0
     50899 TIP3     13661    TIP3     H2       HT       0.417000       1.00800           0
     50900 TIP3     13662    TIP3     OH2      OT      -0.834000       15.9994           0
     50901 TIP3     13662    TIP3     H1       HT       0.417000       1.00800           0
     50902 TIP3     13662    TIP3     H2       HT       0.417000       1.00800           0
     50903 TIP3     13663    TIP3     OH2      OT      -0.834000       15.9994           0
     50904 TIP3     13663    TIP3     H1       HT       0.417000       1.00800           0
     50905 TIP3     13663    TIP3     H2       HT       0.417000       1.00800           0
     50906 TIP3     13664    TIP3     OH2      OT      -0.834000       15.9994           0
     50907 TIP3     13664    TIP3     H1       HT       0.417000       1.00800           0
     50908 TIP3     13664    TIP3     H2       HT       0.417000       1.00800           0
     50909 TIP3     13665    TIP3     OH2      OT      -0.834000       15.9994           0
     50910 TIP3     13665    TIP3     H1       HT       0.417000       1.00800           0
     50911 TIP3     13665    TIP3     H2       HT       0.417000       1.00800           0
     50912 TIP3     13666    TIP3     OH2      OT      -0.834000       15.9994           0
     50913 TIP3     13666    TIP3     H1       HT       0.417000       1.00800           0
     50914 TIP3     13666    TIP3     H2       HT       0.417000       1.00800           0
     50915 TIP3     13667    TIP3     OH2      OT      -0.834000       15.9994           0
     50916 TIP3     13667    TIP3     H1       HT       0.417000       1.00800           0
     50917 TIP3     13667    TIP3     H2       HT       0.417000       1.00800           0
     50918 TIP3     13668    TIP3     OH2      OT      -0.834000       15.9994           0
     50919 TIP3     13668    TIP3     H1       HT       0.417000       1.00800           0
     50920 TIP3     13668    TIP3     H2       HT       0.417000       1.00800           0
     50921 TIP3     13669    TIP3     OH2      OT      -0.834000       15.9994           0
     50922 TIP3     13669    TIP3     H1       HT       0.417000       1.00800           0
     50923 TIP3     13669    TIP3     H2       HT       0.417000       1.00800           0
     50924 TIP3     13670    TIP3     OH2      OT      -0.834000       15.9994           0
     50925 TIP3     13670    TIP3     H1       HT       0.417000       1.00800           0
     50926 TIP3     13670    TIP3     H2       HT       0.417000       1.00800           0
     50927 TIP3     13671    TIP3     OH2      OT      -0.834000       15.9994           0
     50928 TIP3     13671    TIP3     H1       HT       0.417000       1.00800           0
     50929 TIP3     13671    TIP3     H2       HT       0.417000       1.00800           0
     50930 TIP3     13672    TIP3     OH2      OT      -0.834000       15.9994           0
     50931 TIP3     13672    TIP3     H1       HT       0.417000       1.00800           0
     50932 TIP3     13672    TIP3     H2       HT       0.417000       1.00800           0
     50933 TIP3     13673    TIP3     OH2      OT      -0.834000       15.9994           0
     50934 TIP3     13673    TIP3     H1       HT       0.417000       1.00800           0
     50935 TIP3     13673    TIP3     H2       HT       0.417000       1.00800           0
     50936 TIP3     13674    TIP3     OH2      OT      -0.834000       15.9994           0
     50937 TIP3     13674    TIP3     H1       HT       0.417000       1.00800           0
     50938 TIP3     13674    TIP3     H2       HT       0.417000       1.00800           0
     50939 TIP3     13675    TIP3     OH2      OT      -0.834000       15.9994           0
     50940 TIP3     13675    TIP3     H1       HT       0.417000       1.00800           0
     50941 TIP3     13675    TIP3     H2       HT       0.417000       1.00800           0
     50942 TIP3     13676    TIP3     OH2      OT      -0.834000       15.9994           0
     50943 TIP3     13676    TIP3     H1       HT       0.417000       1.00800           0
     50944 TIP3     13676    TIP3     H2       HT       0.417000       1.00800           0
     50945 TIP3     13677    TIP3     OH2      OT      -0.834000       15.9994           0
     50946 TIP3     13677    TIP3     H1       HT       0.417000       1.00800           0
     50947 TIP3     13677    TIP3     H2       HT       0.417000       1.00800           0
     50948 TIP3     13678    TIP3     OH2      OT      -0.834000       15.9994           0
     50949 TIP3     13678    TIP3     H1       HT       0.417000       1.00800           0
     50950 TIP3     13678    TIP3     H2       HT       0.417000       1.00800           0
     50951 TIP3     13679    TIP3     OH2      OT      -0.834000       15.9994           0
     50952 TIP3     13679    TIP3     H1       HT       0.417000       1.00800           0
     50953 TIP3     13679    TIP3     H2       HT       0.417000       1.00800           0
     50954 TIP3     13680    TIP3     OH2      OT      -0.834000       15.9994           0
     50955 TIP3     13680    TIP3     H1       HT       0.417000       1.00800           0
     50956 TIP3     13680    TIP3     H2       HT       0.417000       1.00800           0
     50957 TIP3     13681    TIP3     OH2      OT      -0.834000       15.9994           0
     50958 TIP3     13681    TIP3     H1       HT       0.417000       1.00800           0
     50959 TIP3     13681    TIP3     H2       HT       0.417000       1.00800           0
     50960 TIP3     13682    TIP3     OH2      OT      -0.834000       15.9994           0
     50961 TIP3     13682    TIP3     H1       HT       0.417000       1.00800           0
     50962 TIP3     13682    TIP3     H2       HT       0.417000       1.00800           0
     50963 TIP3     13683    TIP3     OH2      OT      -0.834000       15.9994           0
     50964 TIP3     13683    TIP3     H1       HT       0.417000       1.00800           0
     50965 TIP3     13683    TIP3     H2       HT       0.417000       1.00800           0
     50966 TIP3     13684    TIP3     OH2      OT      -0.834000       15.9994           0
     50967 TIP3     13684    TIP3     H1       HT       0.417000       1.00800           0
     50968 TIP3     13684    TIP3     H2       HT       0.417000       1.00800           0
     50969 TIP3     13685    TIP3     OH2      OT      -0.834000       15.9994           0
     50970 TIP3     13685    TIP3     H1       HT       0.417000       1.00800           0
     50971 TIP3     13685    TIP3     H2       HT       0.417000       1.00800           0
     50972 TIP3     13686    TIP3     OH2      OT      -0.834000       15.9994           0
     50973 TIP3     13686    TIP3     H1       HT       0.417000       1.00800           0
     50974 TIP3     13686    TIP3     H2       HT       0.417000       1.00800           0
     50975 TIP3     13687    TIP3     OH2      OT      -0.834000       15.9994           0
     50976 TIP3     13687    TIP3     H1       HT       0.417000       1.00800           0
     50977 TIP3     13687    TIP3     H2       HT       0.417000       1.00800           0
     50978 TIP3     13688    TIP3     OH2      OT      -0.834000       15.9994           0
     50979 TIP3     13688    TIP3     H1       HT       0.417000       1.00800           0
     50980 TIP3     13688    TIP3     H2       HT       0.417000       1.00800           0
     50981 TIP3     13689    TIP3     OH2      OT      -0.834000       15.9994           0
     50982 TIP3     13689    TIP3     H1       HT       0.417000       1.00800           0
     50983 TIP3     13689    TIP3     H2       HT       0.417000       1.00800           0
     50984 TIP3     13690    TIP3     OH2      OT      -0.834000       15.9994           0
     50985 TIP3     13690    TIP3     H1       HT       0.417000       1.00800           0
     50986 TIP3     13690    TIP3     H2       HT       0.417000       1.00800           0
     50987 TIP3     13691    TIP3     OH2      OT      -0.834000       15.9994           0
     50988 TIP3     13691    TIP3     H1       HT       0.417000       1.00800           0
     50989 TIP3     13691    TIP3     H2       HT       0.417000       1.00800           0
     50990 TIP3     13692    TIP3     OH2      OT      -0.834000       15.9994           0
     50991 TIP3     13692    TIP3     H1       HT       0.417000       1.00800           0
     50992 TIP3     13692    TIP3     H2       HT       0.417000       1.00800           0
     50993 TIP3     13693    TIP3     OH2      OT      -0.834000       15.9994           0
     50994 TIP3     13693    TIP3     H1       HT       0.417000       1.00800           0
     50995 TIP3     13693    TIP3     H2       HT       0.417000       1.00800           0
     50996 TIP3     13694    TIP3     OH2      OT      -0.834000       15.9994           0
     50997 TIP3     13694    TIP3     H1       HT       0.417000       1.00800           0
     50998 TIP3     13694    TIP3     H2       HT       0.417000       1.00800           0
     50999 TIP3     13695    TIP3     OH2      OT      -0.834000       15.9994           0
     51000 TIP3     13695    TIP3     H1       HT       0.417000       1.00800           0
     51001 TIP3     13695    TIP3     H2       HT       0.417000       1.00800           0
     51002 TIP3     13696    TIP3     OH2      OT      -0.834000       15.9994           0
     51003 TIP3     13696    TIP3     H1       HT       0.417000       1.00800           0
     51004 TIP3     13696    TIP3     H2       HT       0.417000       1.00800           0
     51005 TIP3     13697    TIP3     OH2      OT      -0.834000       15.9994           0
     51006 TIP3     13697    TIP3     H1       HT       0.417000       1.00800           0
     51007 TIP3     13697    TIP3     H2       HT       0.417000       1.00800           0
     51008 TIP3     13698    TIP3     OH2      OT      -0.834000       15.9994           0
     51009 TIP3     13698    TIP3     H1       HT       0.417000       1.00800           0
     51010 TIP3     13698    TIP3     H2       HT       0.417000       1.00800           0
     51011 TIP3     13699    TIP3     OH2      OT      -0.834000       15.9994           0
     51012 TIP3     13699    TIP3     H1       HT       0.417000       1.00800           0
     51013 TIP3     13699    TIP3     H2       HT       0.417000       1.00800           0
     51014 TIP3     13700    TIP3     OH2      OT      -0.834000       15.9994           0
     51015 TIP3     13700    TIP3     H1       HT       0.417000       1.00800           0
     51016 TIP3     13700    TIP3     H2       HT       0.417000       1.00800           0
     51017 TIP3     13701    TIP3     OH2      OT      -0.834000       15.9994           0
     51018 TIP3     13701    TIP3     H1       HT       0.417000       1.00800           0
     51019 TIP3     13701    TIP3     H2       HT       0.417000       1.00800           0
     51020 TIP3     13702    TIP3     OH2      OT      -0.834000       15.9994           0
     51021 TIP3     13702    TIP3     H1       HT       0.417000       1.00800           0
     51022 TIP3     13702    TIP3     H2       HT       0.417000       1.00800           0
     51023 TIP3     13703    TIP3     OH2      OT      -0.834000       15.9994           0
     51024 TIP3     13703    TIP3     H1       HT       0.417000       1.00800           0
     51025 TIP3     13703    TIP3     H2       HT       0.417000       1.00800           0
     51026 TIP3     13704    TIP3     OH2      OT      -0.834000       15.9994           0
     51027 TIP3     13704    TIP3     H1       HT       0.417000       1.00800           0
     51028 TIP3     13704    TIP3     H2       HT       0.417000       1.00800           0
     51029 TIP3     13705    TIP3     OH2      OT      -0.834000       15.9994           0
     51030 TIP3     13705    TIP3     H1       HT       0.417000       1.00800           0
     51031 TIP3     13705    TIP3     H2       HT       0.417000       1.00800           0
     51032 TIP3     13706    TIP3     OH2      OT      -0.834000       15.9994           0
     51033 TIP3     13706    TIP3     H1       HT       0.417000       1.00800           0
     51034 TIP3     13706    TIP3     H2       HT       0.417000       1.00800           0
     51035 TIP3     13707    TIP3     OH2      OT      -0.834000       15.9994           0
     51036 TIP3     13707    TIP3     H1       HT       0.417000       1.00800           0
     51037 TIP3     13707    TIP3     H2       HT       0.417000       1.00800           0
     51038 TIP3     13708    TIP3     OH2      OT      -0.834000       15.9994           0
     51039 TIP3     13708    TIP3     H1       HT       0.417000       1.00800           0
     51040 TIP3     13708    TIP3     H2       HT       0.417000       1.00800           0
     51041 TIP3     13709    TIP3     OH2      OT      -0.834000       15.9994           0
     51042 TIP3     13709    TIP3     H1       HT       0.417000       1.00800           0
     51043 TIP3     13709    TIP3     H2       HT       0.417000       1.00800           0
     51044 TIP3     13710    TIP3     OH2      OT      -0.834000       15.9994           0
     51045 TIP3     13710    TIP3     H1       HT       0.417000       1.00800           0
     51046 TIP3     13710    TIP3     H2       HT       0.417000       1.00800           0
     51047 TIP3     13711    TIP3     OH2      OT      -0.834000       15.9994           0
     51048 TIP3     13711    TIP3     H1       HT       0.417000       1.00800           0
     51049 TIP3     13711    TIP3     H2       HT       0.417000       1.00800           0
     51050 TIP3     13712    TIP3     OH2      OT      -0.834000       15.9994           0
     51051 TIP3     13712    TIP3     H1       HT       0.417000       1.00800           0
     51052 TIP3     13712    TIP3     H2       HT       0.417000       1.00800           0
     51053 TIP3     13713    TIP3     OH2      OT      -0.834000       15.9994           0
     51054 TIP3     13713    TIP3     H1       HT       0.417000       1.00800           0
     51055 TIP3     13713    TIP3     H2       HT       0.417000       1.00800           0
     51056 TIP3     13714    TIP3     OH2      OT      -0.834000       15.9994           0
     51057 TIP3     13714    TIP3     H1       HT       0.417000       1.00800           0
     51058 TIP3     13714    TIP3     H2       HT       0.417000       1.00800           0
     51059 TIP3     13715    TIP3     OH2      OT      -0.834000       15.9994           0
     51060 TIP3     13715    TIP3     H1       HT       0.417000       1.00800           0
     51061 TIP3     13715    TIP3     H2       HT       0.417000       1.00800           0
     51062 TIP3     13716    TIP3     OH2      OT      -0.834000       15.9994           0
     51063 TIP3     13716    TIP3     H1       HT       0.417000       1.00800           0
     51064 TIP3     13716    TIP3     H2       HT       0.417000       1.00800           0
     51065 TIP3     13717    TIP3     OH2      OT      -0.834000       15.9994           0
     51066 TIP3     13717    TIP3     H1       HT       0.417000       1.00800           0
     51067 TIP3     13717    TIP3     H2       HT       0.417000       1.00800           0
     51068 TIP3     13718    TIP3     OH2      OT      -0.834000       15.9994           0
     51069 TIP3     13718    TIP3     H1       HT       0.417000       1.00800           0
     51070 TIP3     13718    TIP3     H2       HT       0.417000       1.00800           0
     51071 TIP3     13719    TIP3     OH2      OT      -0.834000       15.9994           0
     51072 TIP3     13719    TIP3     H1       HT       0.417000       1.00800           0
     51073 TIP3     13719    TIP3     H2       HT       0.417000       1.00800           0
     51074 TIP3     13720    TIP3     OH2      OT      -0.834000       15.9994           0
     51075 TIP3     13720    TIP3     H1       HT       0.417000       1.00800           0
     51076 TIP3     13720    TIP3     H2       HT       0.417000       1.00800           0
     51077 TIP3     13721    TIP3     OH2      OT      -0.834000       15.9994           0
     51078 TIP3     13721    TIP3     H1       HT       0.417000       1.00800           0
     51079 TIP3     13721    TIP3     H2       HT       0.417000       1.00800           0
     51080 TIP3     13722    TIP3     OH2      OT      -0.834000       15.9994           0
     51081 TIP3     13722    TIP3     H1       HT       0.417000       1.00800           0
     51082 TIP3     13722    TIP3     H2       HT       0.417000       1.00800           0
     51083 TIP3     13723    TIP3     OH2      OT      -0.834000       15.9994           0
     51084 TIP3     13723    TIP3     H1       HT       0.417000       1.00800           0
     51085 TIP3     13723    TIP3     H2       HT       0.417000       1.00800           0
     51086 TIP3     13724    TIP3     OH2      OT      -0.834000       15.9994           0
     51087 TIP3     13724    TIP3     H1       HT       0.417000       1.00800           0
     51088 TIP3     13724    TIP3     H2       HT       0.417000       1.00800           0
     51089 TIP3     13725    TIP3     OH2      OT      -0.834000       15.9994           0
     51090 TIP3     13725    TIP3     H1       HT       0.417000       1.00800           0
     51091 TIP3     13725    TIP3     H2       HT       0.417000       1.00800           0
     51092 TIP3     13726    TIP3     OH2      OT      -0.834000       15.9994           0
     51093 TIP3     13726    TIP3     H1       HT       0.417000       1.00800           0
     51094 TIP3     13726    TIP3     H2       HT       0.417000       1.00800           0
     51095 TIP3     13727    TIP3     OH2      OT      -0.834000       15.9994           0
     51096 TIP3     13727    TIP3     H1       HT       0.417000       1.00800           0
     51097 TIP3     13727    TIP3     H2       HT       0.417000       1.00800           0
     51098 TIP3     13728    TIP3     OH2      OT      -0.834000       15.9994           0
     51099 TIP3     13728    TIP3     H1       HT       0.417000       1.00800           0
     51100 TIP3     13728    TIP3     H2       HT       0.417000       1.00800           0
     51101 TIP3     13729    TIP3     OH2      OT      -0.834000       15.9994           0
     51102 TIP3     13729    TIP3     H1       HT       0.417000       1.00800           0
     51103 TIP3     13729    TIP3     H2       HT       0.417000       1.00800           0
     51104 TIP3     13730    TIP3     OH2      OT      -0.834000       15.9994           0
     51105 TIP3     13730    TIP3     H1       HT       0.417000       1.00800           0
     51106 TIP3     13730    TIP3     H2       HT       0.417000       1.00800           0
     51107 TIP3     13731    TIP3     OH2      OT      -0.834000       15.9994           0
     51108 TIP3     13731    TIP3     H1       HT       0.417000       1.00800           0
     51109 TIP3     13731    TIP3     H2       HT       0.417000       1.00800           0
     51110 TIP3     13732    TIP3     OH2      OT      -0.834000       15.9994           0
     51111 TIP3     13732    TIP3     H1       HT       0.417000       1.00800           0
     51112 TIP3     13732    TIP3     H2       HT       0.417000       1.00800           0
     51113 TIP3     13733    TIP3     OH2      OT      -0.834000       15.9994           0
     51114 TIP3     13733    TIP3     H1       HT       0.417000       1.00800           0
     51115 TIP3     13733    TIP3     H2       HT       0.417000       1.00800           0
     51116 TIP3     13734    TIP3     OH2      OT      -0.834000       15.9994           0
     51117 TIP3     13734    TIP3     H1       HT       0.417000       1.00800           0
     51118 TIP3     13734    TIP3     H2       HT       0.417000       1.00800           0
     51119 TIP3     13735    TIP3     OH2      OT      -0.834000       15.9994           0
     51120 TIP3     13735    TIP3     H1       HT       0.417000       1.00800           0
     51121 TIP3     13735    TIP3     H2       HT       0.417000       1.00800           0
     51122 TIP3     13736    TIP3     OH2      OT      -0.834000       15.9994           0
     51123 TIP3     13736    TIP3     H1       HT       0.417000       1.00800           0
     51124 TIP3     13736    TIP3     H2       HT       0.417000       1.00800           0
     51125 TIP3     13737    TIP3     OH2      OT      -0.834000       15.9994           0
     51126 TIP3     13737    TIP3     H1       HT       0.417000       1.00800           0
     51127 TIP3     13737    TIP3     H2       HT       0.417000       1.00800           0
     51128 TIP3     13738    TIP3     OH2      OT      -0.834000       15.9994           0
     51129 TIP3     13738    TIP3     H1       HT       0.417000       1.00800           0
     51130 TIP3     13738    TIP3     H2       HT       0.417000       1.00800           0
     51131 TIP3     13739    TIP3     OH2      OT      -0.834000       15.9994           0
     51132 TIP3     13739    TIP3     H1       HT       0.417000       1.00800           0
     51133 TIP3     13739    TIP3     H2       HT       0.417000       1.00800           0
     51134 TIP3     13740    TIP3     OH2      OT      -0.834000       15.9994           0
     51135 TIP3     13740    TIP3     H1       HT       0.417000       1.00800           0
     51136 TIP3     13740    TIP3     H2       HT       0.417000       1.00800           0
     51137 TIP3     13741    TIP3     OH2      OT      -0.834000       15.9994           0
     51138 TIP3     13741    TIP3     H1       HT       0.417000       1.00800           0
     51139 TIP3     13741    TIP3     H2       HT       0.417000       1.00800           0
     51140 TIP3     13742    TIP3     OH2      OT      -0.834000       15.9994           0
     51141 TIP3     13742    TIP3     H1       HT       0.417000       1.00800           0
     51142 TIP3     13742    TIP3     H2       HT       0.417000       1.00800           0
     51143 TIP3     13743    TIP3     OH2      OT      -0.834000       15.9994           0
     51144 TIP3     13743    TIP3     H1       HT       0.417000       1.00800           0
     51145 TIP3     13743    TIP3     H2       HT       0.417000       1.00800           0
     51146 TIP3     13744    TIP3     OH2      OT      -0.834000       15.9994           0
     51147 TIP3     13744    TIP3     H1       HT       0.417000       1.00800           0
     51148 TIP3     13744    TIP3     H2       HT       0.417000       1.00800           0
     51149 TIP3     13745    TIP3     OH2      OT      -0.834000       15.9994           0
     51150 TIP3     13745    TIP3     H1       HT       0.417000       1.00800           0
     51151 TIP3     13745    TIP3     H2       HT       0.417000       1.00800           0
     51152 TIP3     13746    TIP3     OH2      OT      -0.834000       15.9994           0
     51153 TIP3     13746    TIP3     H1       HT       0.417000       1.00800           0
     51154 TIP3     13746    TIP3     H2       HT       0.417000       1.00800           0
     51155 TIP3     13747    TIP3     OH2      OT      -0.834000       15.9994           0
     51156 TIP3     13747    TIP3     H1       HT       0.417000       1.00800           0
     51157 TIP3     13747    TIP3     H2       HT       0.417000       1.00800           0
     51158 TIP3     13748    TIP3     OH2      OT      -0.834000       15.9994           0
     51159 TIP3     13748    TIP3     H1       HT       0.417000       1.00800           0
     51160 TIP3     13748    TIP3     H2       HT       0.417000       1.00800           0
     51161 TIP3     13749    TIP3     OH2      OT      -0.834000       15.9994           0
     51162 TIP3     13749    TIP3     H1       HT       0.417000       1.00800           0
     51163 TIP3     13749    TIP3     H2       HT       0.417000       1.00800           0
     51164 TIP3     13750    TIP3     OH2      OT      -0.834000       15.9994           0
     51165 TIP3     13750    TIP3     H1       HT       0.417000       1.00800           0
     51166 TIP3     13750    TIP3     H2       HT       0.417000       1.00800           0
     51167 TIP3     13751    TIP3     OH2      OT      -0.834000       15.9994           0
     51168 TIP3     13751    TIP3     H1       HT       0.417000       1.00800           0
     51169 TIP3     13751    TIP3     H2       HT       0.417000       1.00800           0
     51170 TIP3     13752    TIP3     OH2      OT      -0.834000       15.9994           0
     51171 TIP3     13752    TIP3     H1       HT       0.417000       1.00800           0
     51172 TIP3     13752    TIP3     H2       HT       0.417000       1.00800           0
     51173 TIP3     13753    TIP3     OH2      OT      -0.834000       15.9994           0
     51174 TIP3     13753    TIP3     H1       HT       0.417000       1.00800           0
     51175 TIP3     13753    TIP3     H2       HT       0.417000       1.00800           0
     51176 TIP3     13754    TIP3     OH2      OT      -0.834000       15.9994           0
     51177 TIP3     13754    TIP3     H1       HT       0.417000       1.00800           0
     51178 TIP3     13754    TIP3     H2       HT       0.417000       1.00800           0
     51179 TIP3     13755    TIP3     OH2      OT      -0.834000       15.9994           0
     51180 TIP3     13755    TIP3     H1       HT       0.417000       1.00800           0
     51181 TIP3     13755    TIP3     H2       HT       0.417000       1.00800           0
     51182 TIP3     13756    TIP3     OH2      OT      -0.834000       15.9994           0
     51183 TIP3     13756    TIP3     H1       HT       0.417000       1.00800           0
     51184 TIP3     13756    TIP3     H2       HT       0.417000       1.00800           0
     51185 TIP3     13757    TIP3     OH2      OT      -0.834000       15.9994           0
     51186 TIP3     13757    TIP3     H1       HT       0.417000       1.00800           0
     51187 TIP3     13757    TIP3     H2       HT       0.417000       1.00800           0
     51188 TIP3     13758    TIP3     OH2      OT      -0.834000       15.9994           0
     51189 TIP3     13758    TIP3     H1       HT       0.417000       1.00800           0
     51190 TIP3     13758    TIP3     H2       HT       0.417000       1.00800           0
     51191 TIP3     13759    TIP3     OH2      OT      -0.834000       15.9994           0
     51192 TIP3     13759    TIP3     H1       HT       0.417000       1.00800           0
     51193 TIP3     13759    TIP3     H2       HT       0.417000       1.00800           0
     51194 TIP3     13760    TIP3     OH2      OT      -0.834000       15.9994           0
     51195 TIP3     13760    TIP3     H1       HT       0.417000       1.00800           0
     51196 TIP3     13760    TIP3     H2       HT       0.417000       1.00800           0
     51197 TIP3     13761    TIP3     OH2      OT      -0.834000       15.9994           0
     51198 TIP3     13761    TIP3     H1       HT       0.417000       1.00800           0
     51199 TIP3     13761    TIP3     H2       HT       0.417000       1.00800           0
     51200 TIP3     13762    TIP3     OH2      OT      -0.834000       15.9994           0
     51201 TIP3     13762    TIP3     H1       HT       0.417000       1.00800           0
     51202 TIP3     13762    TIP3     H2       HT       0.417000       1.00800           0
     51203 TIP3     13763    TIP3     OH2      OT      -0.834000       15.9994           0
     51204 TIP3     13763    TIP3     H1       HT       0.417000       1.00800           0
     51205 TIP3     13763    TIP3     H2       HT       0.417000       1.00800           0
     51206 TIP3     13764    TIP3     OH2      OT      -0.834000       15.9994           0
     51207 TIP3     13764    TIP3     H1       HT       0.417000       1.00800           0
     51208 TIP3     13764    TIP3     H2       HT       0.417000       1.00800           0
     51209 TIP3     13765    TIP3     OH2      OT      -0.834000       15.9994           0
     51210 TIP3     13765    TIP3     H1       HT       0.417000       1.00800           0
     51211 TIP3     13765    TIP3     H2       HT       0.417000       1.00800           0
     51212 TIP3     13766    TIP3     OH2      OT      -0.834000       15.9994           0
     51213 TIP3     13766    TIP3     H1       HT       0.417000       1.00800           0
     51214 TIP3     13766    TIP3     H2       HT       0.417000       1.00800           0
     51215 TIP3     13767    TIP3     OH2      OT      -0.834000       15.9994           0
     51216 TIP3     13767    TIP3     H1       HT       0.417000       1.00800           0
     51217 TIP3     13767    TIP3     H2       HT       0.417000       1.00800           0
     51218 TIP3     13768    TIP3     OH2      OT      -0.834000       15.9994           0
     51219 TIP3     13768    TIP3     H1       HT       0.417000       1.00800           0
     51220 TIP3     13768    TIP3     H2       HT       0.417000       1.00800           0
     51221 TIP3     13769    TIP3     OH2      OT      -0.834000       15.9994           0
     51222 TIP3     13769    TIP3     H1       HT       0.417000       1.00800           0
     51223 TIP3     13769    TIP3     H2       HT       0.417000       1.00800           0
     51224 TIP3     13770    TIP3     OH2      OT      -0.834000       15.9994           0
     51225 TIP3     13770    TIP3     H1       HT       0.417000       1.00800           0
     51226 TIP3     13770    TIP3     H2       HT       0.417000       1.00800           0
     51227 TIP3     13771    TIP3     OH2      OT      -0.834000       15.9994           0
     51228 TIP3     13771    TIP3     H1       HT       0.417000       1.00800           0
     51229 TIP3     13771    TIP3     H2       HT       0.417000       1.00800           0
     51230 TIP3     13772    TIP3     OH2      OT      -0.834000       15.9994           0
     51231 TIP3     13772    TIP3     H1       HT       0.417000       1.00800           0
     51232 TIP3     13772    TIP3     H2       HT       0.417000       1.00800           0
     51233 TIP3     13773    TIP3     OH2      OT      -0.834000       15.9994           0
     51234 TIP3     13773    TIP3     H1       HT       0.417000       1.00800           0
     51235 TIP3     13773    TIP3     H2       HT       0.417000       1.00800           0
     51236 TIP3     13774    TIP3     OH2      OT      -0.834000       15.9994           0
     51237 TIP3     13774    TIP3     H1       HT       0.417000       1.00800           0
     51238 TIP3     13774    TIP3     H2       HT       0.417000       1.00800           0
     51239 TIP3     13775    TIP3     OH2      OT      -0.834000       15.9994           0
     51240 TIP3     13775    TIP3     H1       HT       0.417000       1.00800           0
     51241 TIP3     13775    TIP3     H2       HT       0.417000       1.00800           0
     51242 TIP3     13776    TIP3     OH2      OT      -0.834000       15.9994           0
     51243 TIP3     13776    TIP3     H1       HT       0.417000       1.00800           0
     51244 TIP3     13776    TIP3     H2       HT       0.417000       1.00800           0
     51245 TIP3     13777    TIP3     OH2      OT      -0.834000       15.9994           0
     51246 TIP3     13777    TIP3     H1       HT       0.417000       1.00800           0
     51247 TIP3     13777    TIP3     H2       HT       0.417000       1.00800           0
     51248 TIP3     13778    TIP3     OH2      OT      -0.834000       15.9994           0
     51249 TIP3     13778    TIP3     H1       HT       0.417000       1.00800           0
     51250 TIP3     13778    TIP3     H2       HT       0.417000       1.00800           0
     51251 TIP3     13779    TIP3     OH2      OT      -0.834000       15.9994           0
     51252 TIP3     13779    TIP3     H1       HT       0.417000       1.00800           0
     51253 TIP3     13779    TIP3     H2       HT       0.417000       1.00800           0
     51254 TIP3     13780    TIP3     OH2      OT      -0.834000       15.9994           0
     51255 TIP3     13780    TIP3     H1       HT       0.417000       1.00800           0
     51256 TIP3     13780    TIP3     H2       HT       0.417000       1.00800           0
     51257 TIP3     13781    TIP3     OH2      OT      -0.834000       15.9994           0
     51258 TIP3     13781    TIP3     H1       HT       0.417000       1.00800           0
     51259 TIP3     13781    TIP3     H2       HT       0.417000       1.00800           0
     51260 TIP3     13782    TIP3     OH2      OT      -0.834000       15.9994           0
     51261 TIP3     13782    TIP3     H1       HT       0.417000       1.00800           0
     51262 TIP3     13782    TIP3     H2       HT       0.417000       1.00800           0
     51263 TIP3     13783    TIP3     OH2      OT      -0.834000       15.9994           0
     51264 TIP3     13783    TIP3     H1       HT       0.417000       1.00800           0
     51265 TIP3     13783    TIP3     H2       HT       0.417000       1.00800           0
     51266 TIP3     13784    TIP3     OH2      OT      -0.834000       15.9994           0
     51267 TIP3     13784    TIP3     H1       HT       0.417000       1.00800           0
     51268 TIP3     13784    TIP3     H2       HT       0.417000       1.00800           0
     51269 TIP3     13785    TIP3     OH2      OT      -0.834000       15.9994           0
     51270 TIP3     13785    TIP3     H1       HT       0.417000       1.00800           0
     51271 TIP3     13785    TIP3     H2       HT       0.417000       1.00800           0
     51272 TIP3     13786    TIP3     OH2      OT      -0.834000       15.9994           0
     51273 TIP3     13786    TIP3     H1       HT       0.417000       1.00800           0
     51274 TIP3     13786    TIP3     H2       HT       0.417000       1.00800           0
     51275 TIP3     13787    TIP3     OH2      OT      -0.834000       15.9994           0
     51276 TIP3     13787    TIP3     H1       HT       0.417000       1.00800           0
     51277 TIP3     13787    TIP3     H2       HT       0.417000       1.00800           0
     51278 TIP3     13788    TIP3     OH2      OT      -0.834000       15.9994           0
     51279 TIP3     13788    TIP3     H1       HT       0.417000       1.00800           0
     51280 TIP3     13788    TIP3     H2       HT       0.417000       1.00800           0
     51281 TIP3     13789    TIP3     OH2      OT      -0.834000       15.9994           0
     51282 TIP3     13789    TIP3     H1       HT       0.417000       1.00800           0
     51283 TIP3     13789    TIP3     H2       HT       0.417000       1.00800           0
     51284 TIP3     13790    TIP3     OH2      OT      -0.834000       15.9994           0
     51285 TIP3     13790    TIP3     H1       HT       0.417000       1.00800           0
     51286 TIP3     13790    TIP3     H2       HT       0.417000       1.00800           0
     51287 TIP3     13791    TIP3     OH2      OT      -0.834000       15.9994           0
     51288 TIP3     13791    TIP3     H1       HT       0.417000       1.00800           0
     51289 TIP3     13791    TIP3     H2       HT       0.417000       1.00800           0
     51290 TIP3     13792    TIP3     OH2      OT      -0.834000       15.9994           0
     51291 TIP3     13792    TIP3     H1       HT       0.417000       1.00800           0
     51292 TIP3     13792    TIP3     H2       HT       0.417000       1.00800           0
     51293 TIP3     13793    TIP3     OH2      OT      -0.834000       15.9994           0
     51294 TIP3     13793    TIP3     H1       HT       0.417000       1.00800           0
     51295 TIP3     13793    TIP3     H2       HT       0.417000       1.00800           0
     51296 TIP3     13794    TIP3     OH2      OT      -0.834000       15.9994           0
     51297 TIP3     13794    TIP3     H1       HT       0.417000       1.00800           0
     51298 TIP3     13794    TIP3     H2       HT       0.417000       1.00800           0
     51299 TIP3     13795    TIP3     OH2      OT      -0.834000       15.9994           0
     51300 TIP3     13795    TIP3     H1       HT       0.417000       1.00800           0
     51301 TIP3     13795    TIP3     H2       HT       0.417000       1.00800           0
     51302 TIP3     13796    TIP3     OH2      OT      -0.834000       15.9994           0
     51303 TIP3     13796    TIP3     H1       HT       0.417000       1.00800           0
     51304 TIP3     13796    TIP3     H2       HT       0.417000       1.00800           0
     51305 TIP3     13797    TIP3     OH2      OT      -0.834000       15.9994           0
     51306 TIP3     13797    TIP3     H1       HT       0.417000       1.00800           0
     51307 TIP3     13797    TIP3     H2       HT       0.417000       1.00800           0
     51308 TIP3     13798    TIP3     OH2      OT      -0.834000       15.9994           0
     51309 TIP3     13798    TIP3     H1       HT       0.417000       1.00800           0
     51310 TIP3     13798    TIP3     H2       HT       0.417000       1.00800           0
     51311 TIP3     13799    TIP3     OH2      OT      -0.834000       15.9994           0
     51312 TIP3     13799    TIP3     H1       HT       0.417000       1.00800           0
     51313 TIP3     13799    TIP3     H2       HT       0.417000       1.00800           0
     51314 TIP3     13800    TIP3     OH2      OT      -0.834000       15.9994           0
     51315 TIP3     13800    TIP3     H1       HT       0.417000       1.00800           0
     51316 TIP3     13800    TIP3     H2       HT       0.417000       1.00800           0
     51317 TIP3     13801    TIP3     OH2      OT      -0.834000       15.9994           0
     51318 TIP3     13801    TIP3     H1       HT       0.417000       1.00800           0
     51319 TIP3     13801    TIP3     H2       HT       0.417000       1.00800           0
     51320 TIP3     13802    TIP3     OH2      OT      -0.834000       15.9994           0
     51321 TIP3     13802    TIP3     H1       HT       0.417000       1.00800           0
     51322 TIP3     13802    TIP3     H2       HT       0.417000       1.00800           0
     51323 TIP3     13803    TIP3     OH2      OT      -0.834000       15.9994           0
     51324 TIP3     13803    TIP3     H1       HT       0.417000       1.00800           0
     51325 TIP3     13803    TIP3     H2       HT       0.417000       1.00800           0
     51326 TIP3     13804    TIP3     OH2      OT      -0.834000       15.9994           0
     51327 TIP3     13804    TIP3     H1       HT       0.417000       1.00800           0
     51328 TIP3     13804    TIP3     H2       HT       0.417000       1.00800           0
     51329 TIP3     13805    TIP3     OH2      OT      -0.834000       15.9994           0
     51330 TIP3     13805    TIP3     H1       HT       0.417000       1.00800           0
     51331 TIP3     13805    TIP3     H2       HT       0.417000       1.00800           0
     51332 TIP3     13806    TIP3     OH2      OT      -0.834000       15.9994           0
     51333 TIP3     13806    TIP3     H1       HT       0.417000       1.00800           0
     51334 TIP3     13806    TIP3     H2       HT       0.417000       1.00800           0
     51335 TIP3     13807    TIP3     OH2      OT      -0.834000       15.9994           0
     51336 TIP3     13807    TIP3     H1       HT       0.417000       1.00800           0
     51337 TIP3     13807    TIP3     H2       HT       0.417000       1.00800           0
     51338 TIP3     13808    TIP3     OH2      OT      -0.834000       15.9994           0
     51339 TIP3     13808    TIP3     H1       HT       0.417000       1.00800           0
     51340 TIP3     13808    TIP3     H2       HT       0.417000       1.00800           0
     51341 TIP3     13809    TIP3     OH2      OT      -0.834000       15.9994           0
     51342 TIP3     13809    TIP3     H1       HT       0.417000       1.00800           0
     51343 TIP3     13809    TIP3     H2       HT       0.417000       1.00800           0
     51344 TIP3     13810    TIP3     OH2      OT      -0.834000       15.9994           0
     51345 TIP3     13810    TIP3     H1       HT       0.417000       1.00800           0
     51346 TIP3     13810    TIP3     H2       HT       0.417000       1.00800           0
     51347 TIP3     13811    TIP3     OH2      OT      -0.834000       15.9994           0
     51348 TIP3     13811    TIP3     H1       HT       0.417000       1.00800           0
     51349 TIP3     13811    TIP3     H2       HT       0.417000       1.00800           0
     51350 TIP3     13812    TIP3     OH2      OT      -0.834000       15.9994           0
     51351 TIP3     13812    TIP3     H1       HT       0.417000       1.00800           0
     51352 TIP3     13812    TIP3     H2       HT       0.417000       1.00800           0
     51353 TIP3     13813    TIP3     OH2      OT      -0.834000       15.9994           0
     51354 TIP3     13813    TIP3     H1       HT       0.417000       1.00800           0
     51355 TIP3     13813    TIP3     H2       HT       0.417000       1.00800           0
     51356 TIP3     13814    TIP3     OH2      OT      -0.834000       15.9994           0
     51357 TIP3     13814    TIP3     H1       HT       0.417000       1.00800           0
     51358 TIP3     13814    TIP3     H2       HT       0.417000       1.00800           0
     51359 TIP3     13815    TIP3     OH2      OT      -0.834000       15.9994           0
     51360 TIP3     13815    TIP3     H1       HT       0.417000       1.00800           0
     51361 TIP3     13815    TIP3     H2       HT       0.417000       1.00800           0
     51362 TIP3     13816    TIP3     OH2      OT      -0.834000       15.9994           0
     51363 TIP3     13816    TIP3     H1       HT       0.417000       1.00800           0
     51364 TIP3     13816    TIP3     H2       HT       0.417000       1.00800           0
     51365 TIP3     13817    TIP3     OH2      OT      -0.834000       15.9994           0
     51366 TIP3     13817    TIP3     H1       HT       0.417000       1.00800           0
     51367 TIP3     13817    TIP3     H2       HT       0.417000       1.00800           0
     51368 TIP3     13818    TIP3     OH2      OT      -0.834000       15.9994           0
     51369 TIP3     13818    TIP3     H1       HT       0.417000       1.00800           0
     51370 TIP3     13818    TIP3     H2       HT       0.417000       1.00800           0
     51371 TIP3     13819    TIP3     OH2      OT      -0.834000       15.9994           0
     51372 TIP3     13819    TIP3     H1       HT       0.417000       1.00800           0
     51373 TIP3     13819    TIP3     H2       HT       0.417000       1.00800           0
     51374 TIP3     13820    TIP3     OH2      OT      -0.834000       15.9994           0
     51375 TIP3     13820    TIP3     H1       HT       0.417000       1.00800           0
     51376 TIP3     13820    TIP3     H2       HT       0.417000       1.00800           0
     51377 TIP3     13821    TIP3     OH2      OT      -0.834000       15.9994           0
     51378 TIP3     13821    TIP3     H1       HT       0.417000       1.00800           0
     51379 TIP3     13821    TIP3     H2       HT       0.417000       1.00800           0
     51380 TIP3     13822    TIP3     OH2      OT      -0.834000       15.9994           0
     51381 TIP3     13822    TIP3     H1       HT       0.417000       1.00800           0
     51382 TIP3     13822    TIP3     H2       HT       0.417000       1.00800           0
     51383 TIP3     13823    TIP3     OH2      OT      -0.834000       15.9994           0
     51384 TIP3     13823    TIP3     H1       HT       0.417000       1.00800           0
     51385 TIP3     13823    TIP3     H2       HT       0.417000       1.00800           0
     51386 TIP3     13824    TIP3     OH2      OT      -0.834000       15.9994           0
     51387 TIP3     13824    TIP3     H1       HT       0.417000       1.00800           0
     51388 TIP3     13824    TIP3     H2       HT       0.417000       1.00800           0
     51389 TIP3     13825    TIP3     OH2      OT      -0.834000       15.9994           0
     51390 TIP3     13825    TIP3     H1       HT       0.417000       1.00800           0
     51391 TIP3     13825    TIP3     H2       HT       0.417000       1.00800           0
     51392 TIP3     13826    TIP3     OH2      OT      -0.834000       15.9994           0
     51393 TIP3     13826    TIP3     H1       HT       0.417000       1.00800           0
     51394 TIP3     13826    TIP3     H2       HT       0.417000       1.00800           0
     51395 TIP3     13827    TIP3     OH2      OT      -0.834000       15.9994           0
     51396 TIP3     13827    TIP3     H1       HT       0.417000       1.00800           0
     51397 TIP3     13827    TIP3     H2       HT       0.417000       1.00800           0
     51398 TIP3     13828    TIP3     OH2      OT      -0.834000       15.9994           0
     51399 TIP3     13828    TIP3     H1       HT       0.417000       1.00800           0
     51400 TIP3     13828    TIP3     H2       HT       0.417000       1.00800           0
     51401 TIP3     13829    TIP3     OH2      OT      -0.834000       15.9994           0
     51402 TIP3     13829    TIP3     H1       HT       0.417000       1.00800           0
     51403 TIP3     13829    TIP3     H2       HT       0.417000       1.00800           0
     51404 TIP3     13830    TIP3     OH2      OT      -0.834000       15.9994           0
     51405 TIP3     13830    TIP3     H1       HT       0.417000       1.00800           0
     51406 TIP3     13830    TIP3     H2       HT       0.417000       1.00800           0
     51407 TIP3     13831    TIP3     OH2      OT      -0.834000       15.9994           0
     51408 TIP3     13831    TIP3     H1       HT       0.417000       1.00800           0
     51409 TIP3     13831    TIP3     H2       HT       0.417000       1.00800           0
     51410 TIP3     13832    TIP3     OH2      OT      -0.834000       15.9994           0
     51411 TIP3     13832    TIP3     H1       HT       0.417000       1.00800           0
     51412 TIP3     13832    TIP3     H2       HT       0.417000       1.00800           0
     51413 TIP3     13833    TIP3     OH2      OT      -0.834000       15.9994           0
     51414 TIP3     13833    TIP3     H1       HT       0.417000       1.00800           0
     51415 TIP3     13833    TIP3     H2       HT       0.417000       1.00800           0
     51416 TIP3     13834    TIP3     OH2      OT      -0.834000       15.9994           0
     51417 TIP3     13834    TIP3     H1       HT       0.417000       1.00800           0
     51418 TIP3     13834    TIP3     H2       HT       0.417000       1.00800           0
     51419 TIP3     13835    TIP3     OH2      OT      -0.834000       15.9994           0
     51420 TIP3     13835    TIP3     H1       HT       0.417000       1.00800           0
     51421 TIP3     13835    TIP3     H2       HT       0.417000       1.00800           0
     51422 TIP3     13836    TIP3     OH2      OT      -0.834000       15.9994           0
     51423 TIP3     13836    TIP3     H1       HT       0.417000       1.00800           0
     51424 TIP3     13836    TIP3     H2       HT       0.417000       1.00800           0
     51425 TIP3     13837    TIP3     OH2      OT      -0.834000       15.9994           0
     51426 TIP3     13837    TIP3     H1       HT       0.417000       1.00800           0
     51427 TIP3     13837    TIP3     H2       HT       0.417000       1.00800           0
     51428 TIP3     13838    TIP3     OH2      OT      -0.834000       15.9994           0
     51429 TIP3     13838    TIP3     H1       HT       0.417000       1.00800           0
     51430 TIP3     13838    TIP3     H2       HT       0.417000       1.00800           0
     51431 TIP3     13839    TIP3     OH2      OT      -0.834000       15.9994           0
     51432 TIP3     13839    TIP3     H1       HT       0.417000       1.00800           0
     51433 TIP3     13839    TIP3     H2       HT       0.417000       1.00800           0
     51434 TIP3     13840    TIP3     OH2      OT      -0.834000       15.9994           0
     51435 TIP3     13840    TIP3     H1       HT       0.417000       1.00800           0
     51436 TIP3     13840    TIP3     H2       HT       0.417000       1.00800           0
     51437 TIP3     13841    TIP3     OH2      OT      -0.834000       15.9994           0
     51438 TIP3     13841    TIP3     H1       HT       0.417000       1.00800           0
     51439 TIP3     13841    TIP3     H2       HT       0.417000       1.00800           0
     51440 TIP3     13842    TIP3     OH2      OT      -0.834000       15.9994           0
     51441 TIP3     13842    TIP3     H1       HT       0.417000       1.00800           0
     51442 TIP3     13842    TIP3     H2       HT       0.417000       1.00800           0
     51443 TIP3     13843    TIP3     OH2      OT      -0.834000       15.9994           0
     51444 TIP3     13843    TIP3     H1       HT       0.417000       1.00800           0
     51445 TIP3     13843    TIP3     H2       HT       0.417000       1.00800           0
     51446 TIP3     13844    TIP3     OH2      OT      -0.834000       15.9994           0
     51447 TIP3     13844    TIP3     H1       HT       0.417000       1.00800           0
     51448 TIP3     13844    TIP3     H2       HT       0.417000       1.00800           0
     51449 TIP3     13845    TIP3     OH2      OT      -0.834000       15.9994           0
     51450 TIP3     13845    TIP3     H1       HT       0.417000       1.00800           0
     51451 TIP3     13845    TIP3     H2       HT       0.417000       1.00800           0
     51452 TIP3     13846    TIP3     OH2      OT      -0.834000       15.9994           0
     51453 TIP3     13846    TIP3     H1       HT       0.417000       1.00800           0
     51454 TIP3     13846    TIP3     H2       HT       0.417000       1.00800           0
     51455 TIP3     13847    TIP3     OH2      OT      -0.834000       15.9994           0
     51456 TIP3     13847    TIP3     H1       HT       0.417000       1.00800           0
     51457 TIP3     13847    TIP3     H2       HT       0.417000       1.00800           0
     51458 TIP3     13848    TIP3     OH2      OT      -0.834000       15.9994           0
     51459 TIP3     13848    TIP3     H1       HT       0.417000       1.00800           0
     51460 TIP3     13848    TIP3     H2       HT       0.417000       1.00800           0
     51461 TIP3     13849    TIP3     OH2      OT      -0.834000       15.9994           0
     51462 TIP3     13849    TIP3     H1       HT       0.417000       1.00800           0
     51463 TIP3     13849    TIP3     H2       HT       0.417000       1.00800           0
     51464 TIP3     13850    TIP3     OH2      OT      -0.834000       15.9994           0
     51465 TIP3     13850    TIP3     H1       HT       0.417000       1.00800           0
     51466 TIP3     13850    TIP3     H2       HT       0.417000       1.00800           0
     51467 TIP3     13851    TIP3     OH2      OT      -0.834000       15.9994           0
     51468 TIP3     13851    TIP3     H1       HT       0.417000       1.00800           0
     51469 TIP3     13851    TIP3     H2       HT       0.417000       1.00800           0
     51470 TIP3     13852    TIP3     OH2      OT      -0.834000       15.9994           0
     51471 TIP3     13852    TIP3     H1       HT       0.417000       1.00800           0
     51472 TIP3     13852    TIP3     H2       HT       0.417000       1.00800           0
     51473 TIP3     13853    TIP3     OH2      OT      -0.834000       15.9994           0
     51474 TIP3     13853    TIP3     H1       HT       0.417000       1.00800           0
     51475 TIP3     13853    TIP3     H2       HT       0.417000       1.00800           0
     51476 TIP3     13854    TIP3     OH2      OT      -0.834000       15.9994           0
     51477 TIP3     13854    TIP3     H1       HT       0.417000       1.00800           0
     51478 TIP3     13854    TIP3     H2       HT       0.417000       1.00800           0
     51479 TIP3     13855    TIP3     OH2      OT      -0.834000       15.9994           0
     51480 TIP3     13855    TIP3     H1       HT       0.417000       1.00800           0
     51481 TIP3     13855    TIP3     H2       HT       0.417000       1.00800           0
     51482 TIP3     13856    TIP3     OH2      OT      -0.834000       15.9994           0
     51483 TIP3     13856    TIP3     H1       HT       0.417000       1.00800           0
     51484 TIP3     13856    TIP3     H2       HT       0.417000       1.00800           0
     51485 TIP3     13857    TIP3     OH2      OT      -0.834000       15.9994           0
     51486 TIP3     13857    TIP3     H1       HT       0.417000       1.00800           0
     51487 TIP3     13857    TIP3     H2       HT       0.417000       1.00800           0
     51488 TIP3     13858    TIP3     OH2      OT      -0.834000       15.9994           0
     51489 TIP3     13858    TIP3     H1       HT       0.417000       1.00800           0
     51490 TIP3     13858    TIP3     H2       HT       0.417000       1.00800           0
     51491 TIP3     13859    TIP3     OH2      OT      -0.834000       15.9994           0
     51492 TIP3     13859    TIP3     H1       HT       0.417000       1.00800           0
     51493 TIP3     13859    TIP3     H2       HT       0.417000       1.00800           0
     51494 TIP3     13860    TIP3     OH2      OT      -0.834000       15.9994           0
     51495 TIP3     13860    TIP3     H1       HT       0.417000       1.00800           0
     51496 TIP3     13860    TIP3     H2       HT       0.417000       1.00800           0
     51497 TIP3     13861    TIP3     OH2      OT      -0.834000       15.9994           0
     51498 TIP3     13861    TIP3     H1       HT       0.417000       1.00800           0
     51499 TIP3     13861    TIP3     H2       HT       0.417000       1.00800           0
     51500 TIP3     13862    TIP3     OH2      OT      -0.834000       15.9994           0
     51501 TIP3     13862    TIP3     H1       HT       0.417000       1.00800           0
     51502 TIP3     13862    TIP3     H2       HT       0.417000       1.00800           0
     51503 TIP3     13863    TIP3     OH2      OT      -0.834000       15.9994           0
     51504 TIP3     13863    TIP3     H1       HT       0.417000       1.00800           0
     51505 TIP3     13863    TIP3     H2       HT       0.417000       1.00800           0
     51506 TIP3     13864    TIP3     OH2      OT      -0.834000       15.9994           0
     51507 TIP3     13864    TIP3     H1       HT       0.417000       1.00800           0
     51508 TIP3     13864    TIP3     H2       HT       0.417000       1.00800           0
     51509 TIP3     13865    TIP3     OH2      OT      -0.834000       15.9994           0
     51510 TIP3     13865    TIP3     H1       HT       0.417000       1.00800           0
     51511 TIP3     13865    TIP3     H2       HT       0.417000       1.00800           0
     51512 TIP3     13866    TIP3     OH2      OT      -0.834000       15.9994           0
     51513 TIP3     13866    TIP3     H1       HT       0.417000       1.00800           0
     51514 TIP3     13866    TIP3     H2       HT       0.417000       1.00800           0
     51515 TIP3     13867    TIP3     OH2      OT      -0.834000       15.9994           0
     51516 TIP3     13867    TIP3     H1       HT       0.417000       1.00800           0
     51517 TIP3     13867    TIP3     H2       HT       0.417000       1.00800           0
     51518 TIP3     13868    TIP3     OH2      OT      -0.834000       15.9994           0
     51519 TIP3     13868    TIP3     H1       HT       0.417000       1.00800           0
     51520 TIP3     13868    TIP3     H2       HT       0.417000       1.00800           0
     51521 TIP3     13869    TIP3     OH2      OT      -0.834000       15.9994           0
     51522 TIP3     13869    TIP3     H1       HT       0.417000       1.00800           0
     51523 TIP3     13869    TIP3     H2       HT       0.417000       1.00800           0
     51524 TIP3     13870    TIP3     OH2      OT      -0.834000       15.9994           0
     51525 TIP3     13870    TIP3     H1       HT       0.417000       1.00800           0
     51526 TIP3     13870    TIP3     H2       HT       0.417000       1.00800           0
     51527 TIP3     13871    TIP3     OH2      OT      -0.834000       15.9994           0
     51528 TIP3     13871    TIP3     H1       HT       0.417000       1.00800           0
     51529 TIP3     13871    TIP3     H2       HT       0.417000       1.00800           0
     51530 TIP3     13872    TIP3     OH2      OT      -0.834000       15.9994           0
     51531 TIP3     13872    TIP3     H1       HT       0.417000       1.00800           0
     51532 TIP3     13872    TIP3     H2       HT       0.417000       1.00800           0
     51533 TIP3     13873    TIP3     OH2      OT      -0.834000       15.9994           0
     51534 TIP3     13873    TIP3     H1       HT       0.417000       1.00800           0
     51535 TIP3     13873    TIP3     H2       HT       0.417000       1.00800           0
     51536 TIP3     13874    TIP3     OH2      OT      -0.834000       15.9994           0
     51537 TIP3     13874    TIP3     H1       HT       0.417000       1.00800           0
     51538 TIP3     13874    TIP3     H2       HT       0.417000       1.00800           0
     51539 TIP3     13875    TIP3     OH2      OT      -0.834000       15.9994           0
     51540 TIP3     13875    TIP3     H1       HT       0.417000       1.00800           0
     51541 TIP3     13875    TIP3     H2       HT       0.417000       1.00800           0
     51542 TIP3     13876    TIP3     OH2      OT      -0.834000       15.9994           0
     51543 TIP3     13876    TIP3     H1       HT       0.417000       1.00800           0
     51544 TIP3     13876    TIP3     H2       HT       0.417000       1.00800           0
     51545 TIP3     13877    TIP3     OH2      OT      -0.834000       15.9994           0
     51546 TIP3     13877    TIP3     H1       HT       0.417000       1.00800           0
     51547 TIP3     13877    TIP3     H2       HT       0.417000       1.00800           0
     51548 TIP3     13878    TIP3     OH2      OT      -0.834000       15.9994           0
     51549 TIP3     13878    TIP3     H1       HT       0.417000       1.00800           0
     51550 TIP3     13878    TIP3     H2       HT       0.417000       1.00800           0
     51551 TIP3     13879    TIP3     OH2      OT      -0.834000       15.9994           0
     51552 TIP3     13879    TIP3     H1       HT       0.417000       1.00800           0
     51553 TIP3     13879    TIP3     H2       HT       0.417000       1.00800           0
     51554 TIP3     13880    TIP3     OH2      OT      -0.834000       15.9994           0
     51555 TIP3     13880    TIP3     H1       HT       0.417000       1.00800           0
     51556 TIP3     13880    TIP3     H2       HT       0.417000       1.00800           0
     51557 TIP3     13881    TIP3     OH2      OT      -0.834000       15.9994           0
     51558 TIP3     13881    TIP3     H1       HT       0.417000       1.00800           0
     51559 TIP3     13881    TIP3     H2       HT       0.417000       1.00800           0
     51560 TIP3     13882    TIP3     OH2      OT      -0.834000       15.9994           0
     51561 TIP3     13882    TIP3     H1       HT       0.417000       1.00800           0
     51562 TIP3     13882    TIP3     H2       HT       0.417000       1.00800           0
     51563 TIP3     13883    TIP3     OH2      OT      -0.834000       15.9994           0
     51564 TIP3     13883    TIP3     H1       HT       0.417000       1.00800           0
     51565 TIP3     13883    TIP3     H2       HT       0.417000       1.00800           0
     51566 TIP3     13884    TIP3     OH2      OT      -0.834000       15.9994           0
     51567 TIP3     13884    TIP3     H1       HT       0.417000       1.00800           0
     51568 TIP3     13884    TIP3     H2       HT       0.417000       1.00800           0
     51569 TIP3     13885    TIP3     OH2      OT      -0.834000       15.9994           0
     51570 TIP3     13885    TIP3     H1       HT       0.417000       1.00800           0
     51571 TIP3     13885    TIP3     H2       HT       0.417000       1.00800           0
     51572 TIP3     13886    TIP3     OH2      OT      -0.834000       15.9994           0
     51573 TIP3     13886    TIP3     H1       HT       0.417000       1.00800           0
     51574 TIP3     13886    TIP3     H2       HT       0.417000       1.00800           0
     51575 TIP3     13887    TIP3     OH2      OT      -0.834000       15.9994           0
     51576 TIP3     13887    TIP3     H1       HT       0.417000       1.00800           0
     51577 TIP3     13887    TIP3     H2       HT       0.417000       1.00800           0
     51578 TIP3     13888    TIP3     OH2      OT      -0.834000       15.9994           0
     51579 TIP3     13888    TIP3     H1       HT       0.417000       1.00800           0
     51580 TIP3     13888    TIP3     H2       HT       0.417000       1.00800           0
     51581 TIP3     13889    TIP3     OH2      OT      -0.834000       15.9994           0
     51582 TIP3     13889    TIP3     H1       HT       0.417000       1.00800           0
     51583 TIP3     13889    TIP3     H2       HT       0.417000       1.00800           0
     51584 TIP3     13890    TIP3     OH2      OT      -0.834000       15.9994           0
     51585 TIP3     13890    TIP3     H1       HT       0.417000       1.00800           0
     51586 TIP3     13890    TIP3     H2       HT       0.417000       1.00800           0
     51587 TIP3     13891    TIP3     OH2      OT      -0.834000       15.9994           0
     51588 TIP3     13891    TIP3     H1       HT       0.417000       1.00800           0
     51589 TIP3     13891    TIP3     H2       HT       0.417000       1.00800           0
     51590 TIP3     13892    TIP3     OH2      OT      -0.834000       15.9994           0
     51591 TIP3     13892    TIP3     H1       HT       0.417000       1.00800           0
     51592 TIP3     13892    TIP3     H2       HT       0.417000       1.00800           0
     51593 TIP3     13893    TIP3     OH2      OT      -0.834000       15.9994           0
     51594 TIP3     13893    TIP3     H1       HT       0.417000       1.00800           0
     51595 TIP3     13893    TIP3     H2       HT       0.417000       1.00800           0
     51596 TIP3     13894    TIP3     OH2      OT      -0.834000       15.9994           0
     51597 TIP3     13894    TIP3     H1       HT       0.417000       1.00800           0
     51598 TIP3     13894    TIP3     H2       HT       0.417000       1.00800           0
     51599 TIP3     13895    TIP3     OH2      OT      -0.834000       15.9994           0
     51600 TIP3     13895    TIP3     H1       HT       0.417000       1.00800           0
     51601 TIP3     13895    TIP3     H2       HT       0.417000       1.00800           0
     51602 TIP3     13896    TIP3     OH2      OT      -0.834000       15.9994           0
     51603 TIP3     13896    TIP3     H1       HT       0.417000       1.00800           0
     51604 TIP3     13896    TIP3     H2       HT       0.417000       1.00800           0
     51605 TIP3     13897    TIP3     OH2      OT      -0.834000       15.9994           0
     51606 TIP3     13897    TIP3     H1       HT       0.417000       1.00800           0
     51607 TIP3     13897    TIP3     H2       HT       0.417000       1.00800           0
     51608 TIP3     13898    TIP3     OH2      OT      -0.834000       15.9994           0
     51609 TIP3     13898    TIP3     H1       HT       0.417000       1.00800           0
     51610 TIP3     13898    TIP3     H2       HT       0.417000       1.00800           0
     51611 TIP3     13899    TIP3     OH2      OT      -0.834000       15.9994           0
     51612 TIP3     13899    TIP3     H1       HT       0.417000       1.00800           0
     51613 TIP3     13899    TIP3     H2       HT       0.417000       1.00800           0
     51614 TIP3     13900    TIP3     OH2      OT      -0.834000       15.9994           0
     51615 TIP3     13900    TIP3     H1       HT       0.417000       1.00800           0
     51616 TIP3     13900    TIP3     H2       HT       0.417000       1.00800           0
     51617 TIP3     13901    TIP3     OH2      OT      -0.834000       15.9994           0
     51618 TIP3     13901    TIP3     H1       HT       0.417000       1.00800           0
     51619 TIP3     13901    TIP3     H2       HT       0.417000       1.00800           0
     51620 TIP3     13902    TIP3     OH2      OT      -0.834000       15.9994           0
     51621 TIP3     13902    TIP3     H1       HT       0.417000       1.00800           0
     51622 TIP3     13902    TIP3     H2       HT       0.417000       1.00800           0
     51623 TIP3     13903    TIP3     OH2      OT      -0.834000       15.9994           0
     51624 TIP3     13903    TIP3     H1       HT       0.417000       1.00800           0
     51625 TIP3     13903    TIP3     H2       HT       0.417000       1.00800           0
     51626 TIP3     13904    TIP3     OH2      OT      -0.834000       15.9994           0
     51627 TIP3     13904    TIP3     H1       HT       0.417000       1.00800           0
     51628 TIP3     13904    TIP3     H2       HT       0.417000       1.00800           0
     51629 TIP3     13905    TIP3     OH2      OT      -0.834000       15.9994           0
     51630 TIP3     13905    TIP3     H1       HT       0.417000       1.00800           0
     51631 TIP3     13905    TIP3     H2       HT       0.417000       1.00800           0
     51632 TIP3     13906    TIP3     OH2      OT      -0.834000       15.9994           0
     51633 TIP3     13906    TIP3     H1       HT       0.417000       1.00800           0
     51634 TIP3     13906    TIP3     H2       HT       0.417000       1.00800           0
     51635 TIP3     13907    TIP3     OH2      OT      -0.834000       15.9994           0
     51636 TIP3     13907    TIP3     H1       HT       0.417000       1.00800           0
     51637 TIP3     13907    TIP3     H2       HT       0.417000       1.00800           0
     51638 TIP3     13908    TIP3     OH2      OT      -0.834000       15.9994           0
     51639 TIP3     13908    TIP3     H1       HT       0.417000       1.00800           0
     51640 TIP3     13908    TIP3     H2       HT       0.417000       1.00800           0
     51641 TIP3     13909    TIP3     OH2      OT      -0.834000       15.9994           0
     51642 TIP3     13909    TIP3     H1       HT       0.417000       1.00800           0
     51643 TIP3     13909    TIP3     H2       HT       0.417000       1.00800           0
     51644 TIP3     13910    TIP3     OH2      OT      -0.834000       15.9994           0
     51645 TIP3     13910    TIP3     H1       HT       0.417000       1.00800           0
     51646 TIP3     13910    TIP3     H2       HT       0.417000       1.00800           0
     51647 TIP3     13911    TIP3     OH2      OT      -0.834000       15.9994           0
     51648 TIP3     13911    TIP3     H1       HT       0.417000       1.00800           0
     51649 TIP3     13911    TIP3     H2       HT       0.417000       1.00800           0
     51650 TIP3     13912    TIP3     OH2      OT      -0.834000       15.9994           0
     51651 TIP3     13912    TIP3     H1       HT       0.417000       1.00800           0
     51652 TIP3     13912    TIP3     H2       HT       0.417000       1.00800           0
     51653 TIP3     13913    TIP3     OH2      OT      -0.834000       15.9994           0
     51654 TIP3     13913    TIP3     H1       HT       0.417000       1.00800           0
     51655 TIP3     13913    TIP3     H2       HT       0.417000       1.00800           0
     51656 TIP3     13914    TIP3     OH2      OT      -0.834000       15.9994           0
     51657 TIP3     13914    TIP3     H1       HT       0.417000       1.00800           0
     51658 TIP3     13914    TIP3     H2       HT       0.417000       1.00800           0
     51659 TIP3     13915    TIP3     OH2      OT      -0.834000       15.9994           0
     51660 TIP3     13915    TIP3     H1       HT       0.417000       1.00800           0
     51661 TIP3     13915    TIP3     H2       HT       0.417000       1.00800           0
     51662 TIP3     13916    TIP3     OH2      OT      -0.834000       15.9994           0
     51663 TIP3     13916    TIP3     H1       HT       0.417000       1.00800           0
     51664 TIP3     13916    TIP3     H2       HT       0.417000       1.00800           0
     51665 TIP3     13917    TIP3     OH2      OT      -0.834000       15.9994           0
     51666 TIP3     13917    TIP3     H1       HT       0.417000       1.00800           0
     51667 TIP3     13917    TIP3     H2       HT       0.417000       1.00800           0
     51668 TIP3     13918    TIP3     OH2      OT      -0.834000       15.9994           0
     51669 TIP3     13918    TIP3     H1       HT       0.417000       1.00800           0
     51670 TIP3     13918    TIP3     H2       HT       0.417000       1.00800           0
     51671 TIP3     13919    TIP3     OH2      OT      -0.834000       15.9994           0
     51672 TIP3     13919    TIP3     H1       HT       0.417000       1.00800           0
     51673 TIP3     13919    TIP3     H2       HT       0.417000       1.00800           0
     51674 TIP3     13920    TIP3     OH2      OT      -0.834000       15.9994           0
     51675 TIP3     13920    TIP3     H1       HT       0.417000       1.00800           0
     51676 TIP3     13920    TIP3     H2       HT       0.417000       1.00800           0
     51677 TIP3     13921    TIP3     OH2      OT      -0.834000       15.9994           0
     51678 TIP3     13921    TIP3     H1       HT       0.417000       1.00800           0
     51679 TIP3     13921    TIP3     H2       HT       0.417000       1.00800           0
     51680 TIP3     13922    TIP3     OH2      OT      -0.834000       15.9994           0
     51681 TIP3     13922    TIP3     H1       HT       0.417000       1.00800           0
     51682 TIP3     13922    TIP3     H2       HT       0.417000       1.00800           0
     51683 TIP3     13923    TIP3     OH2      OT      -0.834000       15.9994           0
     51684 TIP3     13923    TIP3     H1       HT       0.417000       1.00800           0
     51685 TIP3     13923    TIP3     H2       HT       0.417000       1.00800           0
     51686 TIP3     13924    TIP3     OH2      OT      -0.834000       15.9994           0
     51687 TIP3     13924    TIP3     H1       HT       0.417000       1.00800           0
     51688 TIP3     13924    TIP3     H2       HT       0.417000       1.00800           0
     51689 TIP3     13925    TIP3     OH2      OT      -0.834000       15.9994           0
     51690 TIP3     13925    TIP3     H1       HT       0.417000       1.00800           0
     51691 TIP3     13925    TIP3     H2       HT       0.417000       1.00800           0
     51692 TIP3     13926    TIP3     OH2      OT      -0.834000       15.9994           0
     51693 TIP3     13926    TIP3     H1       HT       0.417000       1.00800           0
     51694 TIP3     13926    TIP3     H2       HT       0.417000       1.00800           0
     51695 TIP3     13927    TIP3     OH2      OT      -0.834000       15.9994           0
     51696 TIP3     13927    TIP3     H1       HT       0.417000       1.00800           0
     51697 TIP3     13927    TIP3     H2       HT       0.417000       1.00800           0
     51698 TIP3     13928    TIP3     OH2      OT      -0.834000       15.9994           0
     51699 TIP3     13928    TIP3     H1       HT       0.417000       1.00800           0
     51700 TIP3     13928    TIP3     H2       HT       0.417000       1.00800           0
     51701 TIP3     13929    TIP3     OH2      OT      -0.834000       15.9994           0
     51702 TIP3     13929    TIP3     H1       HT       0.417000       1.00800           0
     51703 TIP3     13929    TIP3     H2       HT       0.417000       1.00800           0
     51704 TIP3     13930    TIP3     OH2      OT      -0.834000       15.9994           0
     51705 TIP3     13930    TIP3     H1       HT       0.417000       1.00800           0
     51706 TIP3     13930    TIP3     H2       HT       0.417000       1.00800           0
     51707 TIP3     13931    TIP3     OH2      OT      -0.834000       15.9994           0
     51708 TIP3     13931    TIP3     H1       HT       0.417000       1.00800           0
     51709 TIP3     13931    TIP3     H2       HT       0.417000       1.00800           0
     51710 TIP3     13932    TIP3     OH2      OT      -0.834000       15.9994           0
     51711 TIP3     13932    TIP3     H1       HT       0.417000       1.00800           0
     51712 TIP3     13932    TIP3     H2       HT       0.417000       1.00800           0
     51713 TIP3     13933    TIP3     OH2      OT      -0.834000       15.9994           0
     51714 TIP3     13933    TIP3     H1       HT       0.417000       1.00800           0
     51715 TIP3     13933    TIP3     H2       HT       0.417000       1.00800           0
     51716 TIP3     13934    TIP3     OH2      OT      -0.834000       15.9994           0
     51717 TIP3     13934    TIP3     H1       HT       0.417000       1.00800           0
     51718 TIP3     13934    TIP3     H2       HT       0.417000       1.00800           0
     51719 TIP3     13935    TIP3     OH2      OT      -0.834000       15.9994           0
     51720 TIP3     13935    TIP3     H1       HT       0.417000       1.00800           0
     51721 TIP3     13935    TIP3     H2       HT       0.417000       1.00800           0
     51722 TIP3     13936    TIP3     OH2      OT      -0.834000       15.9994           0
     51723 TIP3     13936    TIP3     H1       HT       0.417000       1.00800           0
     51724 TIP3     13936    TIP3     H2       HT       0.417000       1.00800           0
     51725 TIP3     13937    TIP3     OH2      OT      -0.834000       15.9994           0
     51726 TIP3     13937    TIP3     H1       HT       0.417000       1.00800           0
     51727 TIP3     13937    TIP3     H2       HT       0.417000       1.00800           0
     51728 TIP3     13938    TIP3     OH2      OT      -0.834000       15.9994           0
     51729 TIP3     13938    TIP3     H1       HT       0.417000       1.00800           0
     51730 TIP3     13938    TIP3     H2       HT       0.417000       1.00800           0
     51731 TIP3     13939    TIP3     OH2      OT      -0.834000       15.9994           0
     51732 TIP3     13939    TIP3     H1       HT       0.417000       1.00800           0
     51733 TIP3     13939    TIP3     H2       HT       0.417000       1.00800           0
     51734 TIP3     13940    TIP3     OH2      OT      -0.834000       15.9994           0
     51735 TIP3     13940    TIP3     H1       HT       0.417000       1.00800           0
     51736 TIP3     13940    TIP3     H2       HT       0.417000       1.00800           0
     51737 TIP3     13941    TIP3     OH2      OT      -0.834000       15.9994           0
     51738 TIP3     13941    TIP3     H1       HT       0.417000       1.00800           0
     51739 TIP3     13941    TIP3     H2       HT       0.417000       1.00800           0
     51740 TIP3     13942    TIP3     OH2      OT      -0.834000       15.9994           0
     51741 TIP3     13942    TIP3     H1       HT       0.417000       1.00800           0
     51742 TIP3     13942    TIP3     H2       HT       0.417000       1.00800           0
     51743 TIP3     13943    TIP3     OH2      OT      -0.834000       15.9994           0
     51744 TIP3     13943    TIP3     H1       HT       0.417000       1.00800           0
     51745 TIP3     13943    TIP3     H2       HT       0.417000       1.00800           0
     51746 TIP3     13944    TIP3     OH2      OT      -0.834000       15.9994           0
     51747 TIP3     13944    TIP3     H1       HT       0.417000       1.00800           0
     51748 TIP3     13944    TIP3     H2       HT       0.417000       1.00800           0
     51749 TIP3     13945    TIP3     OH2      OT      -0.834000       15.9994           0
     51750 TIP3     13945    TIP3     H1       HT       0.417000       1.00800           0
     51751 TIP3     13945    TIP3     H2       HT       0.417000       1.00800           0
     51752 TIP3     13946    TIP3     OH2      OT      -0.834000       15.9994           0
     51753 TIP3     13946    TIP3     H1       HT       0.417000       1.00800           0
     51754 TIP3     13946    TIP3     H2       HT       0.417000       1.00800           0
     51755 TIP3     13947    TIP3     OH2      OT      -0.834000       15.9994           0
     51756 TIP3     13947    TIP3     H1       HT       0.417000       1.00800           0
     51757 TIP3     13947    TIP3     H2       HT       0.417000       1.00800           0
     51758 TIP3     13948    TIP3     OH2      OT      -0.834000       15.9994           0
     51759 TIP3     13948    TIP3     H1       HT       0.417000       1.00800           0
     51760 TIP3     13948    TIP3     H2       HT       0.417000       1.00800           0
     51761 TIP3     13949    TIP3     OH2      OT      -0.834000       15.9994           0
     51762 TIP3     13949    TIP3     H1       HT       0.417000       1.00800           0
     51763 TIP3     13949    TIP3     H2       HT       0.417000       1.00800           0
     51764 TIP3     13950    TIP3     OH2      OT      -0.834000       15.9994           0
     51765 TIP3     13950    TIP3     H1       HT       0.417000       1.00800           0
     51766 TIP3     13950    TIP3     H2       HT       0.417000       1.00800           0
     51767 TIP3     13951    TIP3     OH2      OT      -0.834000       15.9994           0
     51768 TIP3     13951    TIP3     H1       HT       0.417000       1.00800           0
     51769 TIP3     13951    TIP3     H2       HT       0.417000       1.00800           0
     51770 TIP3     13952    TIP3     OH2      OT      -0.834000       15.9994           0
     51771 TIP3     13952    TIP3     H1       HT       0.417000       1.00800           0
     51772 TIP3     13952    TIP3     H2       HT       0.417000       1.00800           0
     51773 TIP3     13953    TIP3     OH2      OT      -0.834000       15.9994           0
     51774 TIP3     13953    TIP3     H1       HT       0.417000       1.00800           0
     51775 TIP3     13953    TIP3     H2       HT       0.417000       1.00800           0
     51776 TIP3     13954    TIP3     OH2      OT      -0.834000       15.9994           0
     51777 TIP3     13954    TIP3     H1       HT       0.417000       1.00800           0
     51778 TIP3     13954    TIP3     H2       HT       0.417000       1.00800           0
     51779 TIP3     13955    TIP3     OH2      OT      -0.834000       15.9994           0
     51780 TIP3     13955    TIP3     H1       HT       0.417000       1.00800           0
     51781 TIP3     13955    TIP3     H2       HT       0.417000       1.00800           0
     51782 TIP3     13956    TIP3     OH2      OT      -0.834000       15.9994           0
     51783 TIP3     13956    TIP3     H1       HT       0.417000       1.00800           0
     51784 TIP3     13956    TIP3     H2       HT       0.417000       1.00800           0
     51785 TIP3     13957    TIP3     OH2      OT      -0.834000       15.9994           0
     51786 TIP3     13957    TIP3     H1       HT       0.417000       1.00800           0
     51787 TIP3     13957    TIP3     H2       HT       0.417000       1.00800           0
     51788 TIP3     13958    TIP3     OH2      OT      -0.834000       15.9994           0
     51789 TIP3     13958    TIP3     H1       HT       0.417000       1.00800           0
     51790 TIP3     13958    TIP3     H2       HT       0.417000       1.00800           0
     51791 TIP3     13959    TIP3     OH2      OT      -0.834000       15.9994           0
     51792 TIP3     13959    TIP3     H1       HT       0.417000       1.00800           0
     51793 TIP3     13959    TIP3     H2       HT       0.417000       1.00800           0
     51794 TIP3     13960    TIP3     OH2      OT      -0.834000       15.9994           0
     51795 TIP3     13960    TIP3     H1       HT       0.417000       1.00800           0
     51796 TIP3     13960    TIP3     H2       HT       0.417000       1.00800           0
     51797 TIP3     13961    TIP3     OH2      OT      -0.834000       15.9994           0
     51798 TIP3     13961    TIP3     H1       HT       0.417000       1.00800           0
     51799 TIP3     13961    TIP3     H2       HT       0.417000       1.00800           0
     51800 TIP3     13962    TIP3     OH2      OT      -0.834000       15.9994           0
     51801 TIP3     13962    TIP3     H1       HT       0.417000       1.00800           0
     51802 TIP3     13962    TIP3     H2       HT       0.417000       1.00800           0
     51803 TIP3     13963    TIP3     OH2      OT      -0.834000       15.9994           0
     51804 TIP3     13963    TIP3     H1       HT       0.417000       1.00800           0
     51805 TIP3     13963    TIP3     H2       HT       0.417000       1.00800           0
     51806 TIP3     13964    TIP3     OH2      OT      -0.834000       15.9994           0
     51807 TIP3     13964    TIP3     H1       HT       0.417000       1.00800           0
     51808 TIP3     13964    TIP3     H2       HT       0.417000       1.00800           0
     51809 TIP3     13965    TIP3     OH2      OT      -0.834000       15.9994           0
     51810 TIP3     13965    TIP3     H1       HT       0.417000       1.00800           0
     51811 TIP3     13965    TIP3     H2       HT       0.417000       1.00800           0
     51812 TIP3     13966    TIP3     OH2      OT      -0.834000       15.9994           0
     51813 TIP3     13966    TIP3     H1       HT       0.417000       1.00800           0
     51814 TIP3     13966    TIP3     H2       HT       0.417000       1.00800           0
     51815 TIP3     13967    TIP3     OH2      OT      -0.834000       15.9994           0
     51816 TIP3     13967    TIP3     H1       HT       0.417000       1.00800           0
     51817 TIP3     13967    TIP3     H2       HT       0.417000       1.00800           0
     51818 TIP3     13968    TIP3     OH2      OT      -0.834000       15.9994           0
     51819 TIP3     13968    TIP3     H1       HT       0.417000       1.00800           0
     51820 TIP3     13968    TIP3     H2       HT       0.417000       1.00800           0
     51821 TIP3     13969    TIP3     OH2      OT      -0.834000       15.9994           0
     51822 TIP3     13969    TIP3     H1       HT       0.417000       1.00800           0
     51823 TIP3     13969    TIP3     H2       HT       0.417000       1.00800           0
     51824 TIP3     13970    TIP3     OH2      OT      -0.834000       15.9994           0
     51825 TIP3     13970    TIP3     H1       HT       0.417000       1.00800           0
     51826 TIP3     13970    TIP3     H2       HT       0.417000       1.00800           0
     51827 TIP3     13971    TIP3     OH2      OT      -0.834000       15.9994           0
     51828 TIP3     13971    TIP3     H1       HT       0.417000       1.00800           0
     51829 TIP3     13971    TIP3     H2       HT       0.417000       1.00800           0
     51830 TIP3     13972    TIP3     OH2      OT      -0.834000       15.9994           0
     51831 TIP3     13972    TIP3     H1       HT       0.417000       1.00800           0
     51832 TIP3     13972    TIP3     H2       HT       0.417000       1.00800           0
     51833 TIP3     13973    TIP3     OH2      OT      -0.834000       15.9994           0
     51834 TIP3     13973    TIP3     H1       HT       0.417000       1.00800           0
     51835 TIP3     13973    TIP3     H2       HT       0.417000       1.00800           0
     51836 TIP3     13974    TIP3     OH2      OT      -0.834000       15.9994           0
     51837 TIP3     13974    TIP3     H1       HT       0.417000       1.00800           0
     51838 TIP3     13974    TIP3     H2       HT       0.417000       1.00800           0
     51839 TIP3     13975    TIP3     OH2      OT      -0.834000       15.9994           0
     51840 TIP3     13975    TIP3     H1       HT       0.417000       1.00800           0
     51841 TIP3     13975    TIP3     H2       HT       0.417000       1.00800           0
     51842 TIP3     13976    TIP3     OH2      OT      -0.834000       15.9994           0
     51843 TIP3     13976    TIP3     H1       HT       0.417000       1.00800           0
     51844 TIP3     13976    TIP3     H2       HT       0.417000       1.00800           0
     51845 TIP3     13977    TIP3     OH2      OT      -0.834000       15.9994           0
     51846 TIP3     13977    TIP3     H1       HT       0.417000       1.00800           0
     51847 TIP3     13977    TIP3     H2       HT       0.417000       1.00800           0
     51848 TIP3     13978    TIP3     OH2      OT      -0.834000       15.9994           0
     51849 TIP3     13978    TIP3     H1       HT       0.417000       1.00800           0
     51850 TIP3     13978    TIP3     H2       HT       0.417000       1.00800           0
     51851 TIP3     13979    TIP3     OH2      OT      -0.834000       15.9994           0
     51852 TIP3     13979    TIP3     H1       HT       0.417000       1.00800           0
     51853 TIP3     13979    TIP3     H2       HT       0.417000       1.00800           0
     51854 TIP3     13980    TIP3     OH2      OT      -0.834000       15.9994           0
     51855 TIP3     13980    TIP3     H1       HT       0.417000       1.00800           0
     51856 TIP3     13980    TIP3     H2       HT       0.417000       1.00800           0
     51857 TIP3     13981    TIP3     OH2      OT      -0.834000       15.9994           0
     51858 TIP3     13981    TIP3     H1       HT       0.417000       1.00800           0
     51859 TIP3     13981    TIP3     H2       HT       0.417000       1.00800           0
     51860 TIP3     13982    TIP3     OH2      OT      -0.834000       15.9994           0
     51861 TIP3     13982    TIP3     H1       HT       0.417000       1.00800           0
     51862 TIP3     13982    TIP3     H2       HT       0.417000       1.00800           0
     51863 TIP3     13983    TIP3     OH2      OT      -0.834000       15.9994           0
     51864 TIP3     13983    TIP3     H1       HT       0.417000       1.00800           0
     51865 TIP3     13983    TIP3     H2       HT       0.417000       1.00800           0
     51866 TIP3     13984    TIP3     OH2      OT      -0.834000       15.9994           0
     51867 TIP3     13984    TIP3     H1       HT       0.417000       1.00800           0
     51868 TIP3     13984    TIP3     H2       HT       0.417000       1.00800           0
     51869 TIP3     13985    TIP3     OH2      OT      -0.834000       15.9994           0
     51870 TIP3     13985    TIP3     H1       HT       0.417000       1.00800           0
     51871 TIP3     13985    TIP3     H2       HT       0.417000       1.00800           0
     51872 TIP3     13986    TIP3     OH2      OT      -0.834000       15.9994           0
     51873 TIP3     13986    TIP3     H1       HT       0.417000       1.00800           0
     51874 TIP3     13986    TIP3     H2       HT       0.417000       1.00800           0
     51875 TIP3     13987    TIP3     OH2      OT      -0.834000       15.9994           0
     51876 TIP3     13987    TIP3     H1       HT       0.417000       1.00800           0
     51877 TIP3     13987    TIP3     H2       HT       0.417000       1.00800           0
     51878 TIP3     13988    TIP3     OH2      OT      -0.834000       15.9994           0
     51879 TIP3     13988    TIP3     H1       HT       0.417000       1.00800           0
     51880 TIP3     13988    TIP3     H2       HT       0.417000       1.00800           0
     51881 TIP3     13989    TIP3     OH2      OT      -0.834000       15.9994           0
     51882 TIP3     13989    TIP3     H1       HT       0.417000       1.00800           0
     51883 TIP3     13989    TIP3     H2       HT       0.417000       1.00800           0
     51884 TIP3     13990    TIP3     OH2      OT      -0.834000       15.9994           0
     51885 TIP3     13990    TIP3     H1       HT       0.417000       1.00800           0
     51886 TIP3     13990    TIP3     H2       HT       0.417000       1.00800           0
     51887 TIP3     13991    TIP3     OH2      OT      -0.834000       15.9994           0
     51888 TIP3     13991    TIP3     H1       HT       0.417000       1.00800           0
     51889 TIP3     13991    TIP3     H2       HT       0.417000       1.00800           0
     51890 TIP3     13992    TIP3     OH2      OT      -0.834000       15.9994           0
     51891 TIP3     13992    TIP3     H1       HT       0.417000       1.00800           0
     51892 TIP3     13992    TIP3     H2       HT       0.417000       1.00800           0
     51893 TIP3     13993    TIP3     OH2      OT      -0.834000       15.9994           0
     51894 TIP3     13993    TIP3     H1       HT       0.417000       1.00800           0
     51895 TIP3     13993    TIP3     H2       HT       0.417000       1.00800           0
     51896 TIP3     13994    TIP3     OH2      OT      -0.834000       15.9994           0
     51897 TIP3     13994    TIP3     H1       HT       0.417000       1.00800           0
     51898 TIP3     13994    TIP3     H2       HT       0.417000       1.00800           0
     51899 TIP3     13995    TIP3     OH2      OT      -0.834000       15.9994           0
     51900 TIP3     13995    TIP3     H1       HT       0.417000       1.00800           0
     51901 TIP3     13995    TIP3     H2       HT       0.417000       1.00800           0
     51902 TIP3     13996    TIP3     OH2      OT      -0.834000       15.9994           0
     51903 TIP3     13996    TIP3     H1       HT       0.417000       1.00800           0
     51904 TIP3     13996    TIP3     H2       HT       0.417000       1.00800           0
     51905 TIP3     13997    TIP3     OH2      OT      -0.834000       15.9994           0
     51906 TIP3     13997    TIP3     H1       HT       0.417000       1.00800           0
     51907 TIP3     13997    TIP3     H2       HT       0.417000       1.00800           0
     51908 TIP3     13998    TIP3     OH2      OT      -0.834000       15.9994           0
     51909 TIP3     13998    TIP3     H1       HT       0.417000       1.00800           0
     51910 TIP3     13998    TIP3     H2       HT       0.417000       1.00800           0
     51911 TIP3     13999    TIP3     OH2      OT      -0.834000       15.9994           0
     51912 TIP3     13999    TIP3     H1       HT       0.417000       1.00800           0
     51913 TIP3     13999    TIP3     H2       HT       0.417000       1.00800           0
     51914 TIP3     14000    TIP3     OH2      OT      -0.834000       15.9994           0
     51915 TIP3     14000    TIP3     H1       HT       0.417000       1.00800           0
     51916 TIP3     14000    TIP3     H2       HT       0.417000       1.00800           0
     51917 TIP3     14001    TIP3     OH2      OT      -0.834000       15.9994           0
     51918 TIP3     14001    TIP3     H1       HT       0.417000       1.00800           0
     51919 TIP3     14001    TIP3     H2       HT       0.417000       1.00800           0
     51920 TIP3     14002    TIP3     OH2      OT      -0.834000       15.9994           0
     51921 TIP3     14002    TIP3     H1       HT       0.417000       1.00800           0
     51922 TIP3     14002    TIP3     H2       HT       0.417000       1.00800           0
     51923 TIP3     14003    TIP3     OH2      OT      -0.834000       15.9994           0
     51924 TIP3     14003    TIP3     H1       HT       0.417000       1.00800           0
     51925 TIP3     14003    TIP3     H2       HT       0.417000       1.00800           0
     51926 TIP3     14004    TIP3     OH2      OT      -0.834000       15.9994           0
     51927 TIP3     14004    TIP3     H1       HT       0.417000       1.00800           0
     51928 TIP3     14004    TIP3     H2       HT       0.417000       1.00800           0
     51929 TIP3     14005    TIP3     OH2      OT      -0.834000       15.9994           0
     51930 TIP3     14005    TIP3     H1       HT       0.417000       1.00800           0
     51931 TIP3     14005    TIP3     H2       HT       0.417000       1.00800           0
     51932 TIP3     14006    TIP3     OH2      OT      -0.834000       15.9994           0
     51933 TIP3     14006    TIP3     H1       HT       0.417000       1.00800           0
     51934 TIP3     14006    TIP3     H2       HT       0.417000       1.00800           0
     51935 TIP3     14007    TIP3     OH2      OT      -0.834000       15.9994           0
     51936 TIP3     14007    TIP3     H1       HT       0.417000       1.00800           0
     51937 TIP3     14007    TIP3     H2       HT       0.417000       1.00800           0
     51938 TIP3     14008    TIP3     OH2      OT      -0.834000       15.9994           0
     51939 TIP3     14008    TIP3     H1       HT       0.417000       1.00800           0
     51940 TIP3     14008    TIP3     H2       HT       0.417000       1.00800           0
     51941 TIP3     14009    TIP3     OH2      OT      -0.834000       15.9994           0
     51942 TIP3     14009    TIP3     H1       HT       0.417000       1.00800           0
     51943 TIP3     14009    TIP3     H2       HT       0.417000       1.00800           0
     51944 TIP3     14010    TIP3     OH2      OT      -0.834000       15.9994           0
     51945 TIP3     14010    TIP3     H1       HT       0.417000       1.00800           0
     51946 TIP3     14010    TIP3     H2       HT       0.417000       1.00800           0
     51947 TIP3     14011    TIP3     OH2      OT      -0.834000       15.9994           0
     51948 TIP3     14011    TIP3     H1       HT       0.417000       1.00800           0
     51949 TIP3     14011    TIP3     H2       HT       0.417000       1.00800           0
     51950 TIP3     14012    TIP3     OH2      OT      -0.834000       15.9994           0
     51951 TIP3     14012    TIP3     H1       HT       0.417000       1.00800           0
     51952 TIP3     14012    TIP3     H2       HT       0.417000       1.00800           0
     51953 TIP3     14013    TIP3     OH2      OT      -0.834000       15.9994           0
     51954 TIP3     14013    TIP3     H1       HT       0.417000       1.00800           0
     51955 TIP3     14013    TIP3     H2       HT       0.417000       1.00800           0
     51956 TIP3     14014    TIP3     OH2      OT      -0.834000       15.9994           0
     51957 TIP3     14014    TIP3     H1       HT       0.417000       1.00800           0
     51958 TIP3     14014    TIP3     H2       HT       0.417000       1.00800           0
     51959 TIP3     14015    TIP3     OH2      OT      -0.834000       15.9994           0
     51960 TIP3     14015    TIP3     H1       HT       0.417000       1.00800           0
     51961 TIP3     14015    TIP3     H2       HT       0.417000       1.00800           0
     51962 TIP3     14016    TIP3     OH2      OT      -0.834000       15.9994           0
     51963 TIP3     14016    TIP3     H1       HT       0.417000       1.00800           0
     51964 TIP3     14016    TIP3     H2       HT       0.417000       1.00800           0
     51965 TIP3     14017    TIP3     OH2      OT      -0.834000       15.9994           0
     51966 TIP3     14017    TIP3     H1       HT       0.417000       1.00800           0
     51967 TIP3     14017    TIP3     H2       HT       0.417000       1.00800           0
     51968 TIP3     14018    TIP3     OH2      OT      -0.834000       15.9994           0
     51969 TIP3     14018    TIP3     H1       HT       0.417000       1.00800           0
     51970 TIP3     14018    TIP3     H2       HT       0.417000       1.00800           0
     51971 TIP3     14019    TIP3     OH2      OT      -0.834000       15.9994           0
     51972 TIP3     14019    TIP3     H1       HT       0.417000       1.00800           0
     51973 TIP3     14019    TIP3     H2       HT       0.417000       1.00800           0
     51974 TIP3     14020    TIP3     OH2      OT      -0.834000       15.9994           0
     51975 TIP3     14020    TIP3     H1       HT       0.417000       1.00800           0
     51976 TIP3     14020    TIP3     H2       HT       0.417000       1.00800           0
     51977 TIP3     14021    TIP3     OH2      OT      -0.834000       15.9994           0
     51978 TIP3     14021    TIP3     H1       HT       0.417000       1.00800           0
     51979 TIP3     14021    TIP3     H2       HT       0.417000       1.00800           0
     51980 TIP3     14022    TIP3     OH2      OT      -0.834000       15.9994           0
     51981 TIP3     14022    TIP3     H1       HT       0.417000       1.00800           0
     51982 TIP3     14022    TIP3     H2       HT       0.417000       1.00800           0
     51983 TIP3     14023    TIP3     OH2      OT      -0.834000       15.9994           0
     51984 TIP3     14023    TIP3     H1       HT       0.417000       1.00800           0
     51985 TIP3     14023    TIP3     H2       HT       0.417000       1.00800           0
     51986 TIP3     14024    TIP3     OH2      OT      -0.834000       15.9994           0
     51987 TIP3     14024    TIP3     H1       HT       0.417000       1.00800           0
     51988 TIP3     14024    TIP3     H2       HT       0.417000       1.00800           0
     51989 TIP3     14025    TIP3     OH2      OT      -0.834000       15.9994           0
     51990 TIP3     14025    TIP3     H1       HT       0.417000       1.00800           0
     51991 TIP3     14025    TIP3     H2       HT       0.417000       1.00800           0
     51992 TIP3     14026    TIP3     OH2      OT      -0.834000       15.9994           0
     51993 TIP3     14026    TIP3     H1       HT       0.417000       1.00800           0
     51994 TIP3     14026    TIP3     H2       HT       0.417000       1.00800           0
     51995 TIP3     14027    TIP3     OH2      OT      -0.834000       15.9994           0
     51996 TIP3     14027    TIP3     H1       HT       0.417000       1.00800           0
     51997 TIP3     14027    TIP3     H2       HT       0.417000       1.00800           0
     51998 TIP3     14028    TIP3     OH2      OT      -0.834000       15.9994           0
     51999 TIP3     14028    TIP3     H1       HT       0.417000       1.00800           0
     52000 TIP3     14028    TIP3     H2       HT       0.417000       1.00800           0
     52001 TIP3     14029    TIP3     OH2      OT      -0.834000       15.9994           0
     52002 TIP3     14029    TIP3     H1       HT       0.417000       1.00800           0
     52003 TIP3     14029    TIP3     H2       HT       0.417000       1.00800           0
     52004 TIP3     14030    TIP3     OH2      OT      -0.834000       15.9994           0
     52005 TIP3     14030    TIP3     H1       HT       0.417000       1.00800           0
     52006 TIP3     14030    TIP3     H2       HT       0.417000       1.00800           0
     52007 TIP3     14031    TIP3     OH2      OT      -0.834000       15.9994           0
     52008 TIP3     14031    TIP3     H1       HT       0.417000       1.00800           0
     52009 TIP3     14031    TIP3     H2       HT       0.417000       1.00800           0
     52010 TIP3     14032    TIP3     OH2      OT      -0.834000       15.9994           0
     52011 TIP3     14032    TIP3     H1       HT       0.417000       1.00800           0
     52012 TIP3     14032    TIP3     H2       HT       0.417000       1.00800           0
     52013 TIP3     14033    TIP3     OH2      OT      -0.834000       15.9994           0
     52014 TIP3     14033    TIP3     H1       HT       0.417000       1.00800           0
     52015 TIP3     14033    TIP3     H2       HT       0.417000       1.00800           0
     52016 TIP3     14034    TIP3     OH2      OT      -0.834000       15.9994           0
     52017 TIP3     14034    TIP3     H1       HT       0.417000       1.00800           0
     52018 TIP3     14034    TIP3     H2       HT       0.417000       1.00800           0
     52019 TIP3     14035    TIP3     OH2      OT      -0.834000       15.9994           0
     52020 TIP3     14035    TIP3     H1       HT       0.417000       1.00800           0
     52021 TIP3     14035    TIP3     H2       HT       0.417000       1.00800           0
     52022 TIP3     14036    TIP3     OH2      OT      -0.834000       15.9994           0
     52023 TIP3     14036    TIP3     H1       HT       0.417000       1.00800           0
     52024 TIP3     14036    TIP3     H2       HT       0.417000       1.00800           0
     52025 TIP3     14037    TIP3     OH2      OT      -0.834000       15.9994           0
     52026 TIP3     14037    TIP3     H1       HT       0.417000       1.00800           0
     52027 TIP3     14037    TIP3     H2       HT       0.417000       1.00800           0
     52028 TIP3     14038    TIP3     OH2      OT      -0.834000       15.9994           0
     52029 TIP3     14038    TIP3     H1       HT       0.417000       1.00800           0
     52030 TIP3     14038    TIP3     H2       HT       0.417000       1.00800           0
     52031 TIP3     14039    TIP3     OH2      OT      -0.834000       15.9994           0
     52032 TIP3     14039    TIP3     H1       HT       0.417000       1.00800           0
     52033 TIP3     14039    TIP3     H2       HT       0.417000       1.00800           0
     52034 TIP3     14040    TIP3     OH2      OT      -0.834000       15.9994           0
     52035 TIP3     14040    TIP3     H1       HT       0.417000       1.00800           0
     52036 TIP3     14040    TIP3     H2       HT       0.417000       1.00800           0
     52037 TIP3     14041    TIP3     OH2      OT      -0.834000       15.9994           0
     52038 TIP3     14041    TIP3     H1       HT       0.417000       1.00800           0
     52039 TIP3     14041    TIP3     H2       HT       0.417000       1.00800           0
     52040 TIP3     14042    TIP3     OH2      OT      -0.834000       15.9994           0
     52041 TIP3     14042    TIP3     H1       HT       0.417000       1.00800           0
     52042 TIP3     14042    TIP3     H2       HT       0.417000       1.00800           0
     52043 TIP3     14043    TIP3     OH2      OT      -0.834000       15.9994           0
     52044 TIP3     14043    TIP3     H1       HT       0.417000       1.00800           0
     52045 TIP3     14043    TIP3     H2       HT       0.417000       1.00800           0
     52046 TIP3     14044    TIP3     OH2      OT      -0.834000       15.9994           0
     52047 TIP3     14044    TIP3     H1       HT       0.417000       1.00800           0
     52048 TIP3     14044    TIP3     H2       HT       0.417000       1.00800           0
     52049 TIP3     14045    TIP3     OH2      OT      -0.834000       15.9994           0
     52050 TIP3     14045    TIP3     H1       HT       0.417000       1.00800           0
     52051 TIP3     14045    TIP3     H2       HT       0.417000       1.00800           0
     52052 TIP3     14046    TIP3     OH2      OT      -0.834000       15.9994           0
     52053 TIP3     14046    TIP3     H1       HT       0.417000       1.00800           0
     52054 TIP3     14046    TIP3     H2       HT       0.417000       1.00800           0
     52055 TIP3     14047    TIP3     OH2      OT      -0.834000       15.9994           0
     52056 TIP3     14047    TIP3     H1       HT       0.417000       1.00800           0
     52057 TIP3     14047    TIP3     H2       HT       0.417000       1.00800           0
     52058 TIP3     14048    TIP3     OH2      OT      -0.834000       15.9994           0
     52059 TIP3     14048    TIP3     H1       HT       0.417000       1.00800           0
     52060 TIP3     14048    TIP3     H2       HT       0.417000       1.00800           0
     52061 TIP3     14049    TIP3     OH2      OT      -0.834000       15.9994           0
     52062 TIP3     14049    TIP3     H1       HT       0.417000       1.00800           0
     52063 TIP3     14049    TIP3     H2       HT       0.417000       1.00800           0
     52064 TIP3     14050    TIP3     OH2      OT      -0.834000       15.9994           0
     52065 TIP3     14050    TIP3     H1       HT       0.417000       1.00800           0
     52066 TIP3     14050    TIP3     H2       HT       0.417000       1.00800           0
     52067 TIP3     14051    TIP3     OH2      OT      -0.834000       15.9994           0
     52068 TIP3     14051    TIP3     H1       HT       0.417000       1.00800           0
     52069 TIP3     14051    TIP3     H2       HT       0.417000       1.00800           0
     52070 TIP3     14052    TIP3     OH2      OT      -0.834000       15.9994           0
     52071 TIP3     14052    TIP3     H1       HT       0.417000       1.00800           0
     52072 TIP3     14052    TIP3     H2       HT       0.417000       1.00800           0
     52073 TIP3     14053    TIP3     OH2      OT      -0.834000       15.9994           0
     52074 TIP3     14053    TIP3     H1       HT       0.417000       1.00800           0
     52075 TIP3     14053    TIP3     H2       HT       0.417000       1.00800           0
     52076 TIP3     14054    TIP3     OH2      OT      -0.834000       15.9994           0
     52077 TIP3     14054    TIP3     H1       HT       0.417000       1.00800           0
     52078 TIP3     14054    TIP3     H2       HT       0.417000       1.00800           0
     52079 TIP3     14055    TIP3     OH2      OT      -0.834000       15.9994           0
     52080 TIP3     14055    TIP3     H1       HT       0.417000       1.00800           0
     52081 TIP3     14055    TIP3     H2       HT       0.417000       1.00800           0
     52082 TIP3     14056    TIP3     OH2      OT      -0.834000       15.9994           0
     52083 TIP3     14056    TIP3     H1       HT       0.417000       1.00800           0
     52084 TIP3     14056    TIP3     H2       HT       0.417000       1.00800           0
     52085 TIP3     14057    TIP3     OH2      OT      -0.834000       15.9994           0
     52086 TIP3     14057    TIP3     H1       HT       0.417000       1.00800           0
     52087 TIP3     14057    TIP3     H2       HT       0.417000       1.00800           0
     52088 TIP3     14058    TIP3     OH2      OT      -0.834000       15.9994           0
     52089 TIP3     14058    TIP3     H1       HT       0.417000       1.00800           0
     52090 TIP3     14058    TIP3     H2       HT       0.417000       1.00800           0
     52091 TIP3     14059    TIP3     OH2      OT      -0.834000       15.9994           0
     52092 TIP3     14059    TIP3     H1       HT       0.417000       1.00800           0
     52093 TIP3     14059    TIP3     H2       HT       0.417000       1.00800           0
     52094 TIP3     14060    TIP3     OH2      OT      -0.834000       15.9994           0
     52095 TIP3     14060    TIP3     H1       HT       0.417000       1.00800           0
     52096 TIP3     14060    TIP3     H2       HT       0.417000       1.00800           0
     52097 TIP3     14061    TIP3     OH2      OT      -0.834000       15.9994           0
     52098 TIP3     14061    TIP3     H1       HT       0.417000       1.00800           0
     52099 TIP3     14061    TIP3     H2       HT       0.417000       1.00800           0
     52100 TIP3     14062    TIP3     OH2      OT      -0.834000       15.9994           0
     52101 TIP3     14062    TIP3     H1       HT       0.417000       1.00800           0
     52102 TIP3     14062    TIP3     H2       HT       0.417000       1.00800           0
     52103 TIP3     14063    TIP3     OH2      OT      -0.834000       15.9994           0
     52104 TIP3     14063    TIP3     H1       HT       0.417000       1.00800           0
     52105 TIP3     14063    TIP3     H2       HT       0.417000       1.00800           0
     52106 TIP3     14064    TIP3     OH2      OT      -0.834000       15.9994           0
     52107 TIP3     14064    TIP3     H1       HT       0.417000       1.00800           0
     52108 TIP3     14064    TIP3     H2       HT       0.417000       1.00800           0
     52109 TIP3     14065    TIP3     OH2      OT      -0.834000       15.9994           0
     52110 TIP3     14065    TIP3     H1       HT       0.417000       1.00800           0
     52111 TIP3     14065    TIP3     H2       HT       0.417000       1.00800           0
     52112 TIP3     14066    TIP3     OH2      OT      -0.834000       15.9994           0
     52113 TIP3     14066    TIP3     H1       HT       0.417000       1.00800           0
     52114 TIP3     14066    TIP3     H2       HT       0.417000       1.00800           0
     52115 TIP3     14067    TIP3     OH2      OT      -0.834000       15.9994           0
     52116 TIP3     14067    TIP3     H1       HT       0.417000       1.00800           0
     52117 TIP3     14067    TIP3     H2       HT       0.417000       1.00800           0
     52118 TIP3     14068    TIP3     OH2      OT      -0.834000       15.9994           0
     52119 TIP3     14068    TIP3     H1       HT       0.417000       1.00800           0
     52120 TIP3     14068    TIP3     H2       HT       0.417000       1.00800           0
     52121 TIP3     14069    TIP3     OH2      OT      -0.834000       15.9994           0
     52122 TIP3     14069    TIP3     H1       HT       0.417000       1.00800           0
     52123 TIP3     14069    TIP3     H2       HT       0.417000       1.00800           0
     52124 TIP3     14070    TIP3     OH2      OT      -0.834000       15.9994           0
     52125 TIP3     14070    TIP3     H1       HT       0.417000       1.00800           0
     52126 TIP3     14070    TIP3     H2       HT       0.417000       1.00800           0
     52127 TIP3     14071    TIP3     OH2      OT      -0.834000       15.9994           0
     52128 TIP3     14071    TIP3     H1       HT       0.417000       1.00800           0
     52129 TIP3     14071    TIP3     H2       HT       0.417000       1.00800           0
     52130 TIP3     14072    TIP3     OH2      OT      -0.834000       15.9994           0
     52131 TIP3     14072    TIP3     H1       HT       0.417000       1.00800           0
     52132 TIP3     14072    TIP3     H2       HT       0.417000       1.00800           0
     52133 TIP3     14073    TIP3     OH2      OT      -0.834000       15.9994           0
     52134 TIP3     14073    TIP3     H1       HT       0.417000       1.00800           0
     52135 TIP3     14073    TIP3     H2       HT       0.417000       1.00800           0
     52136 TIP3     14074    TIP3     OH2      OT      -0.834000       15.9994           0
     52137 TIP3     14074    TIP3     H1       HT       0.417000       1.00800           0
     52138 TIP3     14074    TIP3     H2       HT       0.417000       1.00800           0
     52139 TIP3     14075    TIP3     OH2      OT      -0.834000       15.9994           0
     52140 TIP3     14075    TIP3     H1       HT       0.417000       1.00800           0
     52141 TIP3     14075    TIP3     H2       HT       0.417000       1.00800           0
     52142 TIP3     14076    TIP3     OH2      OT      -0.834000       15.9994           0
     52143 TIP3     14076    TIP3     H1       HT       0.417000       1.00800           0
     52144 TIP3     14076    TIP3     H2       HT       0.417000       1.00800           0
     52145 TIP3     14077    TIP3     OH2      OT      -0.834000       15.9994           0
     52146 TIP3     14077    TIP3     H1       HT       0.417000       1.00800           0
     52147 TIP3     14077    TIP3     H2       HT       0.417000       1.00800           0
     52148 TIP3     14078    TIP3     OH2      OT      -0.834000       15.9994           0
     52149 TIP3     14078    TIP3     H1       HT       0.417000       1.00800           0
     52150 TIP3     14078    TIP3     H2       HT       0.417000       1.00800           0
     52151 TIP3     14079    TIP3     OH2      OT      -0.834000       15.9994           0
     52152 TIP3     14079    TIP3     H1       HT       0.417000       1.00800           0
     52153 TIP3     14079    TIP3     H2       HT       0.417000       1.00800           0
     52154 TIP3     14080    TIP3     OH2      OT      -0.834000       15.9994           0
     52155 TIP3     14080    TIP3     H1       HT       0.417000       1.00800           0
     52156 TIP3     14080    TIP3     H2       HT       0.417000       1.00800           0
     52157 TIP3     14081    TIP3     OH2      OT      -0.834000       15.9994           0
     52158 TIP3     14081    TIP3     H1       HT       0.417000       1.00800           0
     52159 TIP3     14081    TIP3     H2       HT       0.417000       1.00800           0
     52160 TIP3     14082    TIP3     OH2      OT      -0.834000       15.9994           0
     52161 TIP3     14082    TIP3     H1       HT       0.417000       1.00800           0
     52162 TIP3     14082    TIP3     H2       HT       0.417000       1.00800           0
     52163 TIP3     14083    TIP3     OH2      OT      -0.834000       15.9994           0
     52164 TIP3     14083    TIP3     H1       HT       0.417000       1.00800           0
     52165 TIP3     14083    TIP3     H2       HT       0.417000       1.00800           0
     52166 TIP3     14084    TIP3     OH2      OT      -0.834000       15.9994           0
     52167 TIP3     14084    TIP3     H1       HT       0.417000       1.00800           0
     52168 TIP3     14084    TIP3     H2       HT       0.417000       1.00800           0
     52169 TIP3     14085    TIP3     OH2      OT      -0.834000       15.9994           0
     52170 TIP3     14085    TIP3     H1       HT       0.417000       1.00800           0
     52171 TIP3     14085    TIP3     H2       HT       0.417000       1.00800           0
     52172 TIP3     14086    TIP3     OH2      OT      -0.834000       15.9994           0
     52173 TIP3     14086    TIP3     H1       HT       0.417000       1.00800           0
     52174 TIP3     14086    TIP3     H2       HT       0.417000       1.00800           0
     52175 TIP3     14087    TIP3     OH2      OT      -0.834000       15.9994           0
     52176 TIP3     14087    TIP3     H1       HT       0.417000       1.00800           0
     52177 TIP3     14087    TIP3     H2       HT       0.417000       1.00800           0
     52178 TIP3     14088    TIP3     OH2      OT      -0.834000       15.9994           0
     52179 TIP3     14088    TIP3     H1       HT       0.417000       1.00800           0
     52180 TIP3     14088    TIP3     H2       HT       0.417000       1.00800           0
     52181 TIP3     14089    TIP3     OH2      OT      -0.834000       15.9994           0
     52182 TIP3     14089    TIP3     H1       HT       0.417000       1.00800           0
     52183 TIP3     14089    TIP3     H2       HT       0.417000       1.00800           0
     52184 TIP3     14090    TIP3     OH2      OT      -0.834000       15.9994           0
     52185 TIP3     14090    TIP3     H1       HT       0.417000       1.00800           0
     52186 TIP3     14090    TIP3     H2       HT       0.417000       1.00800           0
     52187 TIP3     14091    TIP3     OH2      OT      -0.834000       15.9994           0
     52188 TIP3     14091    TIP3     H1       HT       0.417000       1.00800           0
     52189 TIP3     14091    TIP3     H2       HT       0.417000       1.00800           0
     52190 TIP3     14092    TIP3     OH2      OT      -0.834000       15.9994           0
     52191 TIP3     14092    TIP3     H1       HT       0.417000       1.00800           0
     52192 TIP3     14092    TIP3     H2       HT       0.417000       1.00800           0
     52193 TIP3     14093    TIP3     OH2      OT      -0.834000       15.9994           0
     52194 TIP3     14093    TIP3     H1       HT       0.417000       1.00800           0
     52195 TIP3     14093    TIP3     H2       HT       0.417000       1.00800           0
     52196 TIP3     14094    TIP3     OH2      OT      -0.834000       15.9994           0
     52197 TIP3     14094    TIP3     H1       HT       0.417000       1.00800           0
     52198 TIP3     14094    TIP3     H2       HT       0.417000       1.00800           0
     52199 TIP3     14095    TIP3     OH2      OT      -0.834000       15.9994           0
     52200 TIP3     14095    TIP3     H1       HT       0.417000       1.00800           0
     52201 TIP3     14095    TIP3     H2       HT       0.417000       1.00800           0
     52202 TIP3     14096    TIP3     OH2      OT      -0.834000       15.9994           0
     52203 TIP3     14096    TIP3     H1       HT       0.417000       1.00800           0
     52204 TIP3     14096    TIP3     H2       HT       0.417000       1.00800           0
     52205 TIP3     14097    TIP3     OH2      OT      -0.834000       15.9994           0
     52206 TIP3     14097    TIP3     H1       HT       0.417000       1.00800           0
     52207 TIP3     14097    TIP3     H2       HT       0.417000       1.00800           0
     52208 TIP3     14098    TIP3     OH2      OT      -0.834000       15.9994           0
     52209 TIP3     14098    TIP3     H1       HT       0.417000       1.00800           0
     52210 TIP3     14098    TIP3     H2       HT       0.417000       1.00800           0
     52211 TIP3     14099    TIP3     OH2      OT      -0.834000       15.9994           0
     52212 TIP3     14099    TIP3     H1       HT       0.417000       1.00800           0
     52213 TIP3     14099    TIP3     H2       HT       0.417000       1.00800           0
     52214 TIP3     14100    TIP3     OH2      OT      -0.834000       15.9994           0
     52215 TIP3     14100    TIP3     H1       HT       0.417000       1.00800           0
     52216 TIP3     14100    TIP3     H2       HT       0.417000       1.00800           0
     52217 TIP3     14101    TIP3     OH2      OT      -0.834000       15.9994           0
     52218 TIP3     14101    TIP3     H1       HT       0.417000       1.00800           0
     52219 TIP3     14101    TIP3     H2       HT       0.417000       1.00800           0
     52220 TIP3     14102    TIP3     OH2      OT      -0.834000       15.9994           0
     52221 TIP3     14102    TIP3     H1       HT       0.417000       1.00800           0
     52222 TIP3     14102    TIP3     H2       HT       0.417000       1.00800           0
     52223 TIP3     14103    TIP3     OH2      OT      -0.834000       15.9994           0
     52224 TIP3     14103    TIP3     H1       HT       0.417000       1.00800           0
     52225 TIP3     14103    TIP3     H2       HT       0.417000       1.00800           0
     52226 TIP3     14104    TIP3     OH2      OT      -0.834000       15.9994           0
     52227 TIP3     14104    TIP3     H1       HT       0.417000       1.00800           0
     52228 TIP3     14104    TIP3     H2       HT       0.417000       1.00800           0
     52229 TIP3     14105    TIP3     OH2      OT      -0.834000       15.9994           0
     52230 TIP3     14105    TIP3     H1       HT       0.417000       1.00800           0
     52231 TIP3     14105    TIP3     H2       HT       0.417000       1.00800           0
     52232 TIP3     14106    TIP3     OH2      OT      -0.834000       15.9994           0
     52233 TIP3     14106    TIP3     H1       HT       0.417000       1.00800           0
     52234 TIP3     14106    TIP3     H2       HT       0.417000       1.00800           0
     52235 TIP3     14107    TIP3     OH2      OT      -0.834000       15.9994           0
     52236 TIP3     14107    TIP3     H1       HT       0.417000       1.00800           0
     52237 TIP3     14107    TIP3     H2       HT       0.417000       1.00800           0
     52238 TIP3     14108    TIP3     OH2      OT      -0.834000       15.9994           0
     52239 TIP3     14108    TIP3     H1       HT       0.417000       1.00800           0
     52240 TIP3     14108    TIP3     H2       HT       0.417000       1.00800           0
     52241 TIP3     14109    TIP3     OH2      OT      -0.834000       15.9994           0
     52242 TIP3     14109    TIP3     H1       HT       0.417000       1.00800           0
     52243 TIP3     14109    TIP3     H2       HT       0.417000       1.00800           0
     52244 TIP3     14110    TIP3     OH2      OT      -0.834000       15.9994           0
     52245 TIP3     14110    TIP3     H1       HT       0.417000       1.00800           0
     52246 TIP3     14110    TIP3     H2       HT       0.417000       1.00800           0
     52247 TIP3     14111    TIP3     OH2      OT      -0.834000       15.9994           0
     52248 TIP3     14111    TIP3     H1       HT       0.417000       1.00800           0
     52249 TIP3     14111    TIP3     H2       HT       0.417000       1.00800           0
     52250 TIP3     14112    TIP3     OH2      OT      -0.834000       15.9994           0
     52251 TIP3     14112    TIP3     H1       HT       0.417000       1.00800           0
     52252 TIP3     14112    TIP3     H2       HT       0.417000       1.00800           0
     52253 TIP3     14113    TIP3     OH2      OT      -0.834000       15.9994           0
     52254 TIP3     14113    TIP3     H1       HT       0.417000       1.00800           0
     52255 TIP3     14113    TIP3     H2       HT       0.417000       1.00800           0
     52256 TIP3     14114    TIP3     OH2      OT      -0.834000       15.9994           0
     52257 TIP3     14114    TIP3     H1       HT       0.417000       1.00800           0
     52258 TIP3     14114    TIP3     H2       HT       0.417000       1.00800           0
     52259 TIP3     14115    TIP3     OH2      OT      -0.834000       15.9994           0
     52260 TIP3     14115    TIP3     H1       HT       0.417000       1.00800           0
     52261 TIP3     14115    TIP3     H2       HT       0.417000       1.00800           0
     52262 TIP3     14116    TIP3     OH2      OT      -0.834000       15.9994           0
     52263 TIP3     14116    TIP3     H1       HT       0.417000       1.00800           0
     52264 TIP3     14116    TIP3     H2       HT       0.417000       1.00800           0
     52265 TIP3     14117    TIP3     OH2      OT      -0.834000       15.9994           0
     52266 TIP3     14117    TIP3     H1       HT       0.417000       1.00800           0
     52267 TIP3     14117    TIP3     H2       HT       0.417000       1.00800           0
     52268 TIP3     14118    TIP3     OH2      OT      -0.834000       15.9994           0
     52269 TIP3     14118    TIP3     H1       HT       0.417000       1.00800           0
     52270 TIP3     14118    TIP3     H2       HT       0.417000       1.00800           0
     52271 TIP3     14119    TIP3     OH2      OT      -0.834000       15.9994           0
     52272 TIP3     14119    TIP3     H1       HT       0.417000       1.00800           0
     52273 TIP3     14119    TIP3     H2       HT       0.417000       1.00800           0
     52274 TIP3     14120    TIP3     OH2      OT      -0.834000       15.9994           0
     52275 TIP3     14120    TIP3     H1       HT       0.417000       1.00800           0
     52276 TIP3     14120    TIP3     H2       HT       0.417000       1.00800           0
     52277 TIP3     14121    TIP3     OH2      OT      -0.834000       15.9994           0
     52278 TIP3     14121    TIP3     H1       HT       0.417000       1.00800           0
     52279 TIP3     14121    TIP3     H2       HT       0.417000       1.00800           0
     52280 TIP3     14122    TIP3     OH2      OT      -0.834000       15.9994           0
     52281 TIP3     14122    TIP3     H1       HT       0.417000       1.00800           0
     52282 TIP3     14122    TIP3     H2       HT       0.417000       1.00800           0
     52283 TIP3     14123    TIP3     OH2      OT      -0.834000       15.9994           0
     52284 TIP3     14123    TIP3     H1       HT       0.417000       1.00800           0
     52285 TIP3     14123    TIP3     H2       HT       0.417000       1.00800           0
     52286 TIP3     14124    TIP3     OH2      OT      -0.834000       15.9994           0
     52287 TIP3     14124    TIP3     H1       HT       0.417000       1.00800           0
     52288 TIP3     14124    TIP3     H2       HT       0.417000       1.00800           0
     52289 TIP3     14125    TIP3     OH2      OT      -0.834000       15.9994           0
     52290 TIP3     14125    TIP3     H1       HT       0.417000       1.00800           0
     52291 TIP3     14125    TIP3     H2       HT       0.417000       1.00800           0
     52292 TIP3     14126    TIP3     OH2      OT      -0.834000       15.9994           0
     52293 TIP3     14126    TIP3     H1       HT       0.417000       1.00800           0
     52294 TIP3     14126    TIP3     H2       HT       0.417000       1.00800           0
     52295 TIP3     14127    TIP3     OH2      OT      -0.834000       15.9994           0
     52296 TIP3     14127    TIP3     H1       HT       0.417000       1.00800           0
     52297 TIP3     14127    TIP3     H2       HT       0.417000       1.00800           0
     52298 TIP3     14128    TIP3     OH2      OT      -0.834000       15.9994           0
     52299 TIP3     14128    TIP3     H1       HT       0.417000       1.00800           0
     52300 TIP3     14128    TIP3     H2       HT       0.417000       1.00800           0
     52301 TIP3     14129    TIP3     OH2      OT      -0.834000       15.9994           0
     52302 TIP3     14129    TIP3     H1       HT       0.417000       1.00800           0
     52303 TIP3     14129    TIP3     H2       HT       0.417000       1.00800           0
     52304 TIP3     14130    TIP3     OH2      OT      -0.834000       15.9994           0
     52305 TIP3     14130    TIP3     H1       HT       0.417000       1.00800           0
     52306 TIP3     14130    TIP3     H2       HT       0.417000       1.00800           0
     52307 TIP3     14131    TIP3     OH2      OT      -0.834000       15.9994           0
     52308 TIP3     14131    TIP3     H1       HT       0.417000       1.00800           0
     52309 TIP3     14131    TIP3     H2       HT       0.417000       1.00800           0
     52310 TIP3     14132    TIP3     OH2      OT      -0.834000       15.9994           0
     52311 TIP3     14132    TIP3     H1       HT       0.417000       1.00800           0
     52312 TIP3     14132    TIP3     H2       HT       0.417000       1.00800           0
     52313 TIP3     14133    TIP3     OH2      OT      -0.834000       15.9994           0
     52314 TIP3     14133    TIP3     H1       HT       0.417000       1.00800           0
     52315 TIP3     14133    TIP3     H2       HT       0.417000       1.00800           0
     52316 TIP3     14134    TIP3     OH2      OT      -0.834000       15.9994           0
     52317 TIP3     14134    TIP3     H1       HT       0.417000       1.00800           0
     52318 TIP3     14134    TIP3     H2       HT       0.417000       1.00800           0
     52319 TIP3     14135    TIP3     OH2      OT      -0.834000       15.9994           0
     52320 TIP3     14135    TIP3     H1       HT       0.417000       1.00800           0
     52321 TIP3     14135    TIP3     H2       HT       0.417000       1.00800           0
     52322 TIP3     14136    TIP3     OH2      OT      -0.834000       15.9994           0
     52323 TIP3     14136    TIP3     H1       HT       0.417000       1.00800           0
     52324 TIP3     14136    TIP3     H2       HT       0.417000       1.00800           0
     52325 TIP3     14137    TIP3     OH2      OT      -0.834000       15.9994           0
     52326 TIP3     14137    TIP3     H1       HT       0.417000       1.00800           0
     52327 TIP3     14137    TIP3     H2       HT       0.417000       1.00800           0
     52328 TIP3     14138    TIP3     OH2      OT      -0.834000       15.9994           0
     52329 TIP3     14138    TIP3     H1       HT       0.417000       1.00800           0
     52330 TIP3     14138    TIP3     H2       HT       0.417000       1.00800           0
     52331 TIP3     14139    TIP3     OH2      OT      -0.834000       15.9994           0
     52332 TIP3     14139    TIP3     H1       HT       0.417000       1.00800           0
     52333 TIP3     14139    TIP3     H2       HT       0.417000       1.00800           0
     52334 TIP3     14140    TIP3     OH2      OT      -0.834000       15.9994           0
     52335 TIP3     14140    TIP3     H1       HT       0.417000       1.00800           0
     52336 TIP3     14140    TIP3     H2       HT       0.417000       1.00800           0
     52337 TIP3     14141    TIP3     OH2      OT      -0.834000       15.9994           0
     52338 TIP3     14141    TIP3     H1       HT       0.417000       1.00800           0
     52339 TIP3     14141    TIP3     H2       HT       0.417000       1.00800           0
     52340 TIP3     14142    TIP3     OH2      OT      -0.834000       15.9994           0
     52341 TIP3     14142    TIP3     H1       HT       0.417000       1.00800           0
     52342 TIP3     14142    TIP3     H2       HT       0.417000       1.00800           0
     52343 TIP3     14143    TIP3     OH2      OT      -0.834000       15.9994           0
     52344 TIP3     14143    TIP3     H1       HT       0.417000       1.00800           0
     52345 TIP3     14143    TIP3     H2       HT       0.417000       1.00800           0
     52346 TIP3     14144    TIP3     OH2      OT      -0.834000       15.9994           0
     52347 TIP3     14144    TIP3     H1       HT       0.417000       1.00800           0
     52348 TIP3     14144    TIP3     H2       HT       0.417000       1.00800           0
     52349 TIP3     14145    TIP3     OH2      OT      -0.834000       15.9994           0
     52350 TIP3     14145    TIP3     H1       HT       0.417000       1.00800           0
     52351 TIP3     14145    TIP3     H2       HT       0.417000       1.00800           0
     52352 TIP3     14146    TIP3     OH2      OT      -0.834000       15.9994           0
     52353 TIP3     14146    TIP3     H1       HT       0.417000       1.00800           0
     52354 TIP3     14146    TIP3     H2       HT       0.417000       1.00800           0
     52355 TIP3     14147    TIP3     OH2      OT      -0.834000       15.9994           0
     52356 TIP3     14147    TIP3     H1       HT       0.417000       1.00800           0
     52357 TIP3     14147    TIP3     H2       HT       0.417000       1.00800           0
     52358 TIP3     14148    TIP3     OH2      OT      -0.834000       15.9994           0
     52359 TIP3     14148    TIP3     H1       HT       0.417000       1.00800           0
     52360 TIP3     14148    TIP3     H2       HT       0.417000       1.00800           0
     52361 TIP3     14149    TIP3     OH2      OT      -0.834000       15.9994           0
     52362 TIP3     14149    TIP3     H1       HT       0.417000       1.00800           0
     52363 TIP3     14149    TIP3     H2       HT       0.417000       1.00800           0
     52364 TIP3     14150    TIP3     OH2      OT      -0.834000       15.9994           0
     52365 TIP3     14150    TIP3     H1       HT       0.417000       1.00800           0
     52366 TIP3     14150    TIP3     H2       HT       0.417000       1.00800           0
     52367 TIP3     14151    TIP3     OH2      OT      -0.834000       15.9994           0
     52368 TIP3     14151    TIP3     H1       HT       0.417000       1.00800           0
     52369 TIP3     14151    TIP3     H2       HT       0.417000       1.00800           0
     52370 TIP3     14152    TIP3     OH2      OT      -0.834000       15.9994           0
     52371 TIP3     14152    TIP3     H1       HT       0.417000       1.00800           0
     52372 TIP3     14152    TIP3     H2       HT       0.417000       1.00800           0
     52373 TIP3     14153    TIP3     OH2      OT      -0.834000       15.9994           0
     52374 TIP3     14153    TIP3     H1       HT       0.417000       1.00800           0
     52375 TIP3     14153    TIP3     H2       HT       0.417000       1.00800           0
     52376 TIP3     14154    TIP3     OH2      OT      -0.834000       15.9994           0
     52377 TIP3     14154    TIP3     H1       HT       0.417000       1.00800           0
     52378 TIP3     14154    TIP3     H2       HT       0.417000       1.00800           0
     52379 TIP3     14155    TIP3     OH2      OT      -0.834000       15.9994           0
     52380 TIP3     14155    TIP3     H1       HT       0.417000       1.00800           0
     52381 TIP3     14155    TIP3     H2       HT       0.417000       1.00800           0
     52382 TIP3     14156    TIP3     OH2      OT      -0.834000       15.9994           0
     52383 TIP3     14156    TIP3     H1       HT       0.417000       1.00800           0
     52384 TIP3     14156    TIP3     H2       HT       0.417000       1.00800           0
     52385 TIP3     14157    TIP3     OH2      OT      -0.834000       15.9994           0
     52386 TIP3     14157    TIP3     H1       HT       0.417000       1.00800           0
     52387 TIP3     14157    TIP3     H2       HT       0.417000       1.00800           0
     52388 TIP3     14158    TIP3     OH2      OT      -0.834000       15.9994           0
     52389 TIP3     14158    TIP3     H1       HT       0.417000       1.00800           0
     52390 TIP3     14158    TIP3     H2       HT       0.417000       1.00800           0
     52391 TIP3     14159    TIP3     OH2      OT      -0.834000       15.9994           0
     52392 TIP3     14159    TIP3     H1       HT       0.417000       1.00800           0
     52393 TIP3     14159    TIP3     H2       HT       0.417000       1.00800           0
     52394 TIP3     14160    TIP3     OH2      OT      -0.834000       15.9994           0
     52395 TIP3     14160    TIP3     H1       HT       0.417000       1.00800           0
     52396 TIP3     14160    TIP3     H2       HT       0.417000       1.00800           0
     52397 TIP3     14161    TIP3     OH2      OT      -0.834000       15.9994           0
     52398 TIP3     14161    TIP3     H1       HT       0.417000       1.00800           0
     52399 TIP3     14161    TIP3     H2       HT       0.417000       1.00800           0
     52400 TIP3     14162    TIP3     OH2      OT      -0.834000       15.9994           0
     52401 TIP3     14162    TIP3     H1       HT       0.417000       1.00800           0
     52402 TIP3     14162    TIP3     H2       HT       0.417000       1.00800           0
     52403 TIP3     14163    TIP3     OH2      OT      -0.834000       15.9994           0
     52404 TIP3     14163    TIP3     H1       HT       0.417000       1.00800           0
     52405 TIP3     14163    TIP3     H2       HT       0.417000       1.00800           0
     52406 TIP3     14164    TIP3     OH2      OT      -0.834000       15.9994           0
     52407 TIP3     14164    TIP3     H1       HT       0.417000       1.00800           0
     52408 TIP3     14164    TIP3     H2       HT       0.417000       1.00800           0
     52409 TIP3     14165    TIP3     OH2      OT      -0.834000       15.9994           0
     52410 TIP3     14165    TIP3     H1       HT       0.417000       1.00800           0
     52411 TIP3     14165    TIP3     H2       HT       0.417000       1.00800           0
     52412 TIP3     14166    TIP3     OH2      OT      -0.834000       15.9994           0
     52413 TIP3     14166    TIP3     H1       HT       0.417000       1.00800           0
     52414 TIP3     14166    TIP3     H2       HT       0.417000       1.00800           0
     52415 TIP3     14167    TIP3     OH2      OT      -0.834000       15.9994           0
     52416 TIP3     14167    TIP3     H1       HT       0.417000       1.00800           0
     52417 TIP3     14167    TIP3     H2       HT       0.417000       1.00800           0
     52418 TIP3     14168    TIP3     OH2      OT      -0.834000       15.9994           0
     52419 TIP3     14168    TIP3     H1       HT       0.417000       1.00800           0
     52420 TIP3     14168    TIP3     H2       HT       0.417000       1.00800           0
     52421 TIP3     14169    TIP3     OH2      OT      -0.834000       15.9994           0
     52422 TIP3     14169    TIP3     H1       HT       0.417000       1.00800           0
     52423 TIP3     14169    TIP3     H2       HT       0.417000       1.00800           0
     52424 TIP3     14170    TIP3     OH2      OT      -0.834000       15.9994           0
     52425 TIP3     14170    TIP3     H1       HT       0.417000       1.00800           0
     52426 TIP3     14170    TIP3     H2       HT       0.417000       1.00800           0
     52427 TIP3     14171    TIP3     OH2      OT      -0.834000       15.9994           0
     52428 TIP3     14171    TIP3     H1       HT       0.417000       1.00800           0
     52429 TIP3     14171    TIP3     H2       HT       0.417000       1.00800           0
     52430 TIP3     14172    TIP3     OH2      OT      -0.834000       15.9994           0
     52431 TIP3     14172    TIP3     H1       HT       0.417000       1.00800           0
     52432 TIP3     14172    TIP3     H2       HT       0.417000       1.00800           0
     52433 TIP3     14173    TIP3     OH2      OT      -0.834000       15.9994           0
     52434 TIP3     14173    TIP3     H1       HT       0.417000       1.00800           0
     52435 TIP3     14173    TIP3     H2       HT       0.417000       1.00800           0
     52436 TIP3     14174    TIP3     OH2      OT      -0.834000       15.9994           0
     52437 TIP3     14174    TIP3     H1       HT       0.417000       1.00800           0
     52438 TIP3     14174    TIP3     H2       HT       0.417000       1.00800           0
     52439 TIP3     14175    TIP3     OH2      OT      -0.834000       15.9994           0
     52440 TIP3     14175    TIP3     H1       HT       0.417000       1.00800           0
     52441 TIP3     14175    TIP3     H2       HT       0.417000       1.00800           0
     52442 TIP3     14176    TIP3     OH2      OT      -0.834000       15.9994           0
     52443 TIP3     14176    TIP3     H1       HT       0.417000       1.00800           0
     52444 TIP3     14176    TIP3     H2       HT       0.417000       1.00800           0
     52445 TIP3     14177    TIP3     OH2      OT      -0.834000       15.9994           0
     52446 TIP3     14177    TIP3     H1       HT       0.417000       1.00800           0
     52447 TIP3     14177    TIP3     H2       HT       0.417000       1.00800           0
     52448 TIP3     14178    TIP3     OH2      OT      -0.834000       15.9994           0
     52449 TIP3     14178    TIP3     H1       HT       0.417000       1.00800           0
     52450 TIP3     14178    TIP3     H2       HT       0.417000       1.00800           0
     52451 TIP3     14179    TIP3     OH2      OT      -0.834000       15.9994           0
     52452 TIP3     14179    TIP3     H1       HT       0.417000       1.00800           0
     52453 TIP3     14179    TIP3     H2       HT       0.417000       1.00800           0
     52454 TIP3     14180    TIP3     OH2      OT      -0.834000       15.9994           0
     52455 TIP3     14180    TIP3     H1       HT       0.417000       1.00800           0
     52456 TIP3     14180    TIP3     H2       HT       0.417000       1.00800           0
     52457 TIP3     14181    TIP3     OH2      OT      -0.834000       15.9994           0
     52458 TIP3     14181    TIP3     H1       HT       0.417000       1.00800           0
     52459 TIP3     14181    TIP3     H2       HT       0.417000       1.00800           0
     52460 TIP3     14182    TIP3     OH2      OT      -0.834000       15.9994           0
     52461 TIP3     14182    TIP3     H1       HT       0.417000       1.00800           0
     52462 TIP3     14182    TIP3     H2       HT       0.417000       1.00800           0
     52463 TIP3     14183    TIP3     OH2      OT      -0.834000       15.9994           0
     52464 TIP3     14183    TIP3     H1       HT       0.417000       1.00800           0
     52465 TIP3     14183    TIP3     H2       HT       0.417000       1.00800           0
     52466 TIP3     14184    TIP3     OH2      OT      -0.834000       15.9994           0
     52467 TIP3     14184    TIP3     H1       HT       0.417000       1.00800           0
     52468 TIP3     14184    TIP3     H2       HT       0.417000       1.00800           0
     52469 TIP3     14185    TIP3     OH2      OT      -0.834000       15.9994           0
     52470 TIP3     14185    TIP3     H1       HT       0.417000       1.00800           0
     52471 TIP3     14185    TIP3     H2       HT       0.417000       1.00800           0
     52472 TIP3     14186    TIP3     OH2      OT      -0.834000       15.9994           0
     52473 TIP3     14186    TIP3     H1       HT       0.417000       1.00800           0
     52474 TIP3     14186    TIP3     H2       HT       0.417000       1.00800           0
     52475 TIP3     14187    TIP3     OH2      OT      -0.834000       15.9994           0
     52476 TIP3     14187    TIP3     H1       HT       0.417000       1.00800           0
     52477 TIP3     14187    TIP3     H2       HT       0.417000       1.00800           0
     52478 TIP3     14188    TIP3     OH2      OT      -0.834000       15.9994           0
     52479 TIP3     14188    TIP3     H1       HT       0.417000       1.00800           0
     52480 TIP3     14188    TIP3     H2       HT       0.417000       1.00800           0
     52481 TIP3     14189    TIP3     OH2      OT      -0.834000       15.9994           0
     52482 TIP3     14189    TIP3     H1       HT       0.417000       1.00800           0
     52483 TIP3     14189    TIP3     H2       HT       0.417000       1.00800           0
     52484 TIP3     14190    TIP3     OH2      OT      -0.834000       15.9994           0
     52485 TIP3     14190    TIP3     H1       HT       0.417000       1.00800           0
     52486 TIP3     14190    TIP3     H2       HT       0.417000       1.00800           0
     52487 TIP3     14191    TIP3     OH2      OT      -0.834000       15.9994           0
     52488 TIP3     14191    TIP3     H1       HT       0.417000       1.00800           0
     52489 TIP3     14191    TIP3     H2       HT       0.417000       1.00800           0
     52490 TIP3     14192    TIP3     OH2      OT      -0.834000       15.9994           0
     52491 TIP3     14192    TIP3     H1       HT       0.417000       1.00800           0
     52492 TIP3     14192    TIP3     H2       HT       0.417000       1.00800           0
     52493 TIP3     14193    TIP3     OH2      OT      -0.834000       15.9994           0
     52494 TIP3     14193    TIP3     H1       HT       0.417000       1.00800           0
     52495 TIP3     14193    TIP3     H2       HT       0.417000       1.00800           0
     52496 TIP3     14194    TIP3     OH2      OT      -0.834000       15.9994           0
     52497 TIP3     14194    TIP3     H1       HT       0.417000       1.00800           0
     52498 TIP3     14194    TIP3     H2       HT       0.417000       1.00800           0
     52499 TIP3     14195    TIP3     OH2      OT      -0.834000       15.9994           0
     52500 TIP3     14195    TIP3     H1       HT       0.417000       1.00800           0
     52501 TIP3     14195    TIP3     H2       HT       0.417000       1.00800           0
     52502 TIP3     14196    TIP3     OH2      OT      -0.834000       15.9994           0
     52503 TIP3     14196    TIP3     H1       HT       0.417000       1.00800           0
     52504 TIP3     14196    TIP3     H2       HT       0.417000       1.00800           0
     52505 TIP3     14197    TIP3     OH2      OT      -0.834000       15.9994           0
     52506 TIP3     14197    TIP3     H1       HT       0.417000       1.00800           0
     52507 TIP3     14197    TIP3     H2       HT       0.417000       1.00800           0
     52508 TIP3     14198    TIP3     OH2      OT      -0.834000       15.9994           0
     52509 TIP3     14198    TIP3     H1       HT       0.417000       1.00800           0
     52510 TIP3     14198    TIP3     H2       HT       0.417000       1.00800           0
     52511 TIP3     14199    TIP3     OH2      OT      -0.834000       15.9994           0
     52512 TIP3     14199    TIP3     H1       HT       0.417000       1.00800           0
     52513 TIP3     14199    TIP3     H2       HT       0.417000       1.00800           0
     52514 TIP3     14200    TIP3     OH2      OT      -0.834000       15.9994           0
     52515 TIP3     14200    TIP3     H1       HT       0.417000       1.00800           0
     52516 TIP3     14200    TIP3     H2       HT       0.417000       1.00800           0
     52517 TIP3     14201    TIP3     OH2      OT      -0.834000       15.9994           0
     52518 TIP3     14201    TIP3     H1       HT       0.417000       1.00800           0
     52519 TIP3     14201    TIP3     H2       HT       0.417000       1.00800           0
     52520 TIP3     14202    TIP3     OH2      OT      -0.834000       15.9994           0
     52521 TIP3     14202    TIP3     H1       HT       0.417000       1.00800           0
     52522 TIP3     14202    TIP3     H2       HT       0.417000       1.00800           0
     52523 TIP3     14203    TIP3     OH2      OT      -0.834000       15.9994           0
     52524 TIP3     14203    TIP3     H1       HT       0.417000       1.00800           0
     52525 TIP3     14203    TIP3     H2       HT       0.417000       1.00800           0
     52526 TIP3     14204    TIP3     OH2      OT      -0.834000       15.9994           0
     52527 TIP3     14204    TIP3     H1       HT       0.417000       1.00800           0
     52528 TIP3     14204    TIP3     H2       HT       0.417000       1.00800           0
     52529 TIP3     14205    TIP3     OH2      OT      -0.834000       15.9994           0
     52530 TIP3     14205    TIP3     H1       HT       0.417000       1.00800           0
     52531 TIP3     14205    TIP3     H2       HT       0.417000       1.00800           0
     52532 TIP3     14206    TIP3     OH2      OT      -0.834000       15.9994           0
     52533 TIP3     14206    TIP3     H1       HT       0.417000       1.00800           0
     52534 TIP3     14206    TIP3     H2       HT       0.417000       1.00800           0
     52535 TIP3     14207    TIP3     OH2      OT      -0.834000       15.9994           0
     52536 TIP3     14207    TIP3     H1       HT       0.417000       1.00800           0
     52537 TIP3     14207    TIP3     H2       HT       0.417000       1.00800           0
     52538 TIP3     14208    TIP3     OH2      OT      -0.834000       15.9994           0
     52539 TIP3     14208    TIP3     H1       HT       0.417000       1.00800           0
     52540 TIP3     14208    TIP3     H2       HT       0.417000       1.00800           0
     52541 TIP3     14209    TIP3     OH2      OT      -0.834000       15.9994           0
     52542 TIP3     14209    TIP3     H1       HT       0.417000       1.00800           0
     52543 TIP3     14209    TIP3     H2       HT       0.417000       1.00800           0
     52544 TIP3     14210    TIP3     OH2      OT      -0.834000       15.9994           0
     52545 TIP3     14210    TIP3     H1       HT       0.417000       1.00800           0
     52546 TIP3     14210    TIP3     H2       HT       0.417000       1.00800           0
     52547 TIP3     14211    TIP3     OH2      OT      -0.834000       15.9994           0
     52548 TIP3     14211    TIP3     H1       HT       0.417000       1.00800           0
     52549 TIP3     14211    TIP3     H2       HT       0.417000       1.00800           0
     52550 TIP3     14212    TIP3     OH2      OT      -0.834000       15.9994           0
     52551 TIP3     14212    TIP3     H1       HT       0.417000       1.00800           0
     52552 TIP3     14212    TIP3     H2       HT       0.417000       1.00800           0
     52553 TIP3     14213    TIP3     OH2      OT      -0.834000       15.9994           0
     52554 TIP3     14213    TIP3     H1       HT       0.417000       1.00800           0
     52555 TIP3     14213    TIP3     H2       HT       0.417000       1.00800           0
     52556 TIP3     14214    TIP3     OH2      OT      -0.834000       15.9994           0
     52557 TIP3     14214    TIP3     H1       HT       0.417000       1.00800           0
     52558 TIP3     14214    TIP3     H2       HT       0.417000       1.00800           0
     52559 TIP3     14215    TIP3     OH2      OT      -0.834000       15.9994           0
     52560 TIP3     14215    TIP3     H1       HT       0.417000       1.00800           0
     52561 TIP3     14215    TIP3     H2       HT       0.417000       1.00800           0
     52562 TIP3     14216    TIP3     OH2      OT      -0.834000       15.9994           0
     52563 TIP3     14216    TIP3     H1       HT       0.417000       1.00800           0
     52564 TIP3     14216    TIP3     H2       HT       0.417000       1.00800           0
     52565 TIP3     14217    TIP3     OH2      OT      -0.834000       15.9994           0
     52566 TIP3     14217    TIP3     H1       HT       0.417000       1.00800           0
     52567 TIP3     14217    TIP3     H2       HT       0.417000       1.00800           0
     52568 TIP3     14218    TIP3     OH2      OT      -0.834000       15.9994           0
     52569 TIP3     14218    TIP3     H1       HT       0.417000       1.00800           0
     52570 TIP3     14218    TIP3     H2       HT       0.417000       1.00800           0
     52571 TIP3     14219    TIP3     OH2      OT      -0.834000       15.9994           0
     52572 TIP3     14219    TIP3     H1       HT       0.417000       1.00800           0
     52573 TIP3     14219    TIP3     H2       HT       0.417000       1.00800           0
     52574 TIP3     14220    TIP3     OH2      OT      -0.834000       15.9994           0
     52575 TIP3     14220    TIP3     H1       HT       0.417000       1.00800           0
     52576 TIP3     14220    TIP3     H2       HT       0.417000       1.00800           0
     52577 TIP3     14221    TIP3     OH2      OT      -0.834000       15.9994           0
     52578 TIP3     14221    TIP3     H1       HT       0.417000       1.00800           0
     52579 TIP3     14221    TIP3     H2       HT       0.417000       1.00800           0
     52580 TIP3     14222    TIP3     OH2      OT      -0.834000       15.9994           0
     52581 TIP3     14222    TIP3     H1       HT       0.417000       1.00800           0
     52582 TIP3     14222    TIP3     H2       HT       0.417000       1.00800           0
     52583 TIP3     14223    TIP3     OH2      OT      -0.834000       15.9994           0
     52584 TIP3     14223    TIP3     H1       HT       0.417000       1.00800           0
     52585 TIP3     14223    TIP3     H2       HT       0.417000       1.00800           0
     52586 TIP3     14224    TIP3     OH2      OT      -0.834000       15.9994           0
     52587 TIP3     14224    TIP3     H1       HT       0.417000       1.00800           0
     52588 TIP3     14224    TIP3     H2       HT       0.417000       1.00800           0
     52589 TIP3     14225    TIP3     OH2      OT      -0.834000       15.9994           0
     52590 TIP3     14225    TIP3     H1       HT       0.417000       1.00800           0
     52591 TIP3     14225    TIP3     H2       HT       0.417000       1.00800           0
     52592 TIP3     14226    TIP3     OH2      OT      -0.834000       15.9994           0
     52593 TIP3     14226    TIP3     H1       HT       0.417000       1.00800           0
     52594 TIP3     14226    TIP3     H2       HT       0.417000       1.00800           0
     52595 TIP3     14227    TIP3     OH2      OT      -0.834000       15.9994           0
     52596 TIP3     14227    TIP3     H1       HT       0.417000       1.00800           0
     52597 TIP3     14227    TIP3     H2       HT       0.417000       1.00800           0
     52598 TIP3     14228    TIP3     OH2      OT      -0.834000       15.9994           0
     52599 TIP3     14228    TIP3     H1       HT       0.417000       1.00800           0
     52600 TIP3     14228    TIP3     H2       HT       0.417000       1.00800           0
     52601 TIP3     14229    TIP3     OH2      OT      -0.834000       15.9994           0
     52602 TIP3     14229    TIP3     H1       HT       0.417000       1.00800           0
     52603 TIP3     14229    TIP3     H2       HT       0.417000       1.00800           0
     52604 TIP3     14230    TIP3     OH2      OT      -0.834000       15.9994           0
     52605 TIP3     14230    TIP3     H1       HT       0.417000       1.00800           0
     52606 TIP3     14230    TIP3     H2       HT       0.417000       1.00800           0
     52607 TIP3     14231    TIP3     OH2      OT      -0.834000       15.9994           0
     52608 TIP3     14231    TIP3     H1       HT       0.417000       1.00800           0
     52609 TIP3     14231    TIP3     H2       HT       0.417000       1.00800           0
     52610 TIP3     14232    TIP3     OH2      OT      -0.834000       15.9994           0
     52611 TIP3     14232    TIP3     H1       HT       0.417000       1.00800           0
     52612 TIP3     14232    TIP3     H2       HT       0.417000       1.00800           0
     52613 TIP3     14233    TIP3     OH2      OT      -0.834000       15.9994           0
     52614 TIP3     14233    TIP3     H1       HT       0.417000       1.00800           0
     52615 TIP3     14233    TIP3     H2       HT       0.417000       1.00800           0
     52616 TIP3     14234    TIP3     OH2      OT      -0.834000       15.9994           0
     52617 TIP3     14234    TIP3     H1       HT       0.417000       1.00800           0
     52618 TIP3     14234    TIP3     H2       HT       0.417000       1.00800           0
     52619 TIP3     14235    TIP3     OH2      OT      -0.834000       15.9994           0
     52620 TIP3     14235    TIP3     H1       HT       0.417000       1.00800           0
     52621 TIP3     14235    TIP3     H2       HT       0.417000       1.00800           0
     52622 TIP3     14236    TIP3     OH2      OT      -0.834000       15.9994           0
     52623 TIP3     14236    TIP3     H1       HT       0.417000       1.00800           0
     52624 TIP3     14236    TIP3     H2       HT       0.417000       1.00800           0
     52625 TIP3     14237    TIP3     OH2      OT      -0.834000       15.9994           0
     52626 TIP3     14237    TIP3     H1       HT       0.417000       1.00800           0
     52627 TIP3     14237    TIP3     H2       HT       0.417000       1.00800           0
     52628 TIP3     14238    TIP3     OH2      OT      -0.834000       15.9994           0
     52629 TIP3     14238    TIP3     H1       HT       0.417000       1.00800           0
     52630 TIP3     14238    TIP3     H2       HT       0.417000       1.00800           0
     52631 TIP3     14239    TIP3     OH2      OT      -0.834000       15.9994           0
     52632 TIP3     14239    TIP3     H1       HT       0.417000       1.00800           0
     52633 TIP3     14239    TIP3     H2       HT       0.417000       1.00800           0
     52634 TIP3     14240    TIP3     OH2      OT      -0.834000       15.9994           0
     52635 TIP3     14240    TIP3     H1       HT       0.417000       1.00800           0
     52636 TIP3     14240    TIP3     H2       HT       0.417000       1.00800           0
     52637 TIP3     14241    TIP3     OH2      OT      -0.834000       15.9994           0
     52638 TIP3     14241    TIP3     H1       HT       0.417000       1.00800           0
     52639 TIP3     14241    TIP3     H2       HT       0.417000       1.00800           0
     52640 TIP3     14242    TIP3     OH2      OT      -0.834000       15.9994           0
     52641 TIP3     14242    TIP3     H1       HT       0.417000       1.00800           0
     52642 TIP3     14242    TIP3     H2       HT       0.417000       1.00800           0
     52643 TIP3     14243    TIP3     OH2      OT      -0.834000       15.9994           0
     52644 TIP3     14243    TIP3     H1       HT       0.417000       1.00800           0
     52645 TIP3     14243    TIP3     H2       HT       0.417000       1.00800           0
     52646 TIP3     14244    TIP3     OH2      OT      -0.834000       15.9994           0
     52647 TIP3     14244    TIP3     H1       HT       0.417000       1.00800           0
     52648 TIP3     14244    TIP3     H2       HT       0.417000       1.00800           0
     52649 TIP3     14245    TIP3     OH2      OT      -0.834000       15.9994           0
     52650 TIP3     14245    TIP3     H1       HT       0.417000       1.00800           0
     52651 TIP3     14245    TIP3     H2       HT       0.417000       1.00800           0
     52652 TIP3     14246    TIP3     OH2      OT      -0.834000       15.9994           0
     52653 TIP3     14246    TIP3     H1       HT       0.417000       1.00800           0
     52654 TIP3     14246    TIP3     H2       HT       0.417000       1.00800           0
     52655 TIP3     14247    TIP3     OH2      OT      -0.834000       15.9994           0
     52656 TIP3     14247    TIP3     H1       HT       0.417000       1.00800           0
     52657 TIP3     14247    TIP3     H2       HT       0.417000       1.00800           0
     52658 TIP3     14248    TIP3     OH2      OT      -0.834000       15.9994           0
     52659 TIP3     14248    TIP3     H1       HT       0.417000       1.00800           0
     52660 TIP3     14248    TIP3     H2       HT       0.417000       1.00800           0
     52661 TIP3     14249    TIP3     OH2      OT      -0.834000       15.9994           0
     52662 TIP3     14249    TIP3     H1       HT       0.417000       1.00800           0
     52663 TIP3     14249    TIP3     H2       HT       0.417000       1.00800           0
     52664 TIP3     14250    TIP3     OH2      OT      -0.834000       15.9994           0
     52665 TIP3     14250    TIP3     H1       HT       0.417000       1.00800           0
     52666 TIP3     14250    TIP3     H2       HT       0.417000       1.00800           0
     52667 TIP3     14251    TIP3     OH2      OT      -0.834000       15.9994           0
     52668 TIP3     14251    TIP3     H1       HT       0.417000       1.00800           0
     52669 TIP3     14251    TIP3     H2       HT       0.417000       1.00800           0
     52670 TIP3     14252    TIP3     OH2      OT      -0.834000       15.9994           0
     52671 TIP3     14252    TIP3     H1       HT       0.417000       1.00800           0
     52672 TIP3     14252    TIP3     H2       HT       0.417000       1.00800           0
     52673 TIP3     14253    TIP3     OH2      OT      -0.834000       15.9994           0
     52674 TIP3     14253    TIP3     H1       HT       0.417000       1.00800           0
     52675 TIP3     14253    TIP3     H2       HT       0.417000       1.00800           0
     52676 TIP3     14254    TIP3     OH2      OT      -0.834000       15.9994           0
     52677 TIP3     14254    TIP3     H1       HT       0.417000       1.00800           0
     52678 TIP3     14254    TIP3     H2       HT       0.417000       1.00800           0
     52679 TIP3     14255    TIP3     OH2      OT      -0.834000       15.9994           0
     52680 TIP3     14255    TIP3     H1       HT       0.417000       1.00800           0
     52681 TIP3     14255    TIP3     H2       HT       0.417000       1.00800           0
     52682 TIP3     14256    TIP3     OH2      OT      -0.834000       15.9994           0
     52683 TIP3     14256    TIP3     H1       HT       0.417000       1.00800           0
     52684 TIP3     14256    TIP3     H2       HT       0.417000       1.00800           0
     52685 TIP3     14257    TIP3     OH2      OT      -0.834000       15.9994           0
     52686 TIP3     14257    TIP3     H1       HT       0.417000       1.00800           0
     52687 TIP3     14257    TIP3     H2       HT       0.417000       1.00800           0
     52688 TIP3     14258    TIP3     OH2      OT      -0.834000       15.9994           0
     52689 TIP3     14258    TIP3     H1       HT       0.417000       1.00800           0
     52690 TIP3     14258    TIP3     H2       HT       0.417000       1.00800           0
     52691 TIP3     14259    TIP3     OH2      OT      -0.834000       15.9994           0
     52692 TIP3     14259    TIP3     H1       HT       0.417000       1.00800           0
     52693 TIP3     14259    TIP3     H2       HT       0.417000       1.00800           0
     52694 TIP3     14260    TIP3     OH2      OT      -0.834000       15.9994           0
     52695 TIP3     14260    TIP3     H1       HT       0.417000       1.00800           0
     52696 TIP3     14260    TIP3     H2       HT       0.417000       1.00800           0
     52697 TIP3     14261    TIP3     OH2      OT      -0.834000       15.9994           0
     52698 TIP3     14261    TIP3     H1       HT       0.417000       1.00800           0
     52699 TIP3     14261    TIP3     H2       HT       0.417000       1.00800           0
     52700 TIP3     14262    TIP3     OH2      OT      -0.834000       15.9994           0
     52701 TIP3     14262    TIP3     H1       HT       0.417000       1.00800           0
     52702 TIP3     14262    TIP3     H2       HT       0.417000       1.00800           0
     52703 TIP3     14263    TIP3     OH2      OT      -0.834000       15.9994           0
     52704 TIP3     14263    TIP3     H1       HT       0.417000       1.00800           0
     52705 TIP3     14263    TIP3     H2       HT       0.417000       1.00800           0
     52706 TIP3     14264    TIP3     OH2      OT      -0.834000       15.9994           0
     52707 TIP3     14264    TIP3     H1       HT       0.417000       1.00800           0
     52708 TIP3     14264    TIP3     H2       HT       0.417000       1.00800           0
     52709 TIP3     14265    TIP3     OH2      OT      -0.834000       15.9994           0
     52710 TIP3     14265    TIP3     H1       HT       0.417000       1.00800           0
     52711 TIP3     14265    TIP3     H2       HT       0.417000       1.00800           0
     52712 TIP3     14266    TIP3     OH2      OT      -0.834000       15.9994           0
     52713 TIP3     14266    TIP3     H1       HT       0.417000       1.00800           0
     52714 TIP3     14266    TIP3     H2       HT       0.417000       1.00800           0
     52715 TIP3     14267    TIP3     OH2      OT      -0.834000       15.9994           0
     52716 TIP3     14267    TIP3     H1       HT       0.417000       1.00800           0
     52717 TIP3     14267    TIP3     H2       HT       0.417000       1.00800           0
     52718 TIP3     14268    TIP3     OH2      OT      -0.834000       15.9994           0
     52719 TIP3     14268    TIP3     H1       HT       0.417000       1.00800           0
     52720 TIP3     14268    TIP3     H2       HT       0.417000       1.00800           0
     52721 TIP3     14269    TIP3     OH2      OT      -0.834000       15.9994           0
     52722 TIP3     14269    TIP3     H1       HT       0.417000       1.00800           0
     52723 TIP3     14269    TIP3     H2       HT       0.417000       1.00800           0
     52724 TIP3     14270    TIP3     OH2      OT      -0.834000       15.9994           0
     52725 TIP3     14270    TIP3     H1       HT       0.417000       1.00800           0
     52726 TIP3     14270    TIP3     H2       HT       0.417000       1.00800           0
     52727 TIP3     14271    TIP3     OH2      OT      -0.834000       15.9994           0
     52728 TIP3     14271    TIP3     H1       HT       0.417000       1.00800           0
     52729 TIP3     14271    TIP3     H2       HT       0.417000       1.00800           0
     52730 TIP3     14272    TIP3     OH2      OT      -0.834000       15.9994           0
     52731 TIP3     14272    TIP3     H1       HT       0.417000       1.00800           0
     52732 TIP3     14272    TIP3     H2       HT       0.417000       1.00800           0
     52733 TIP3     14273    TIP3     OH2      OT      -0.834000       15.9994           0
     52734 TIP3     14273    TIP3     H1       HT       0.417000       1.00800           0
     52735 TIP3     14273    TIP3     H2       HT       0.417000       1.00800           0
     52736 TIP3     14274    TIP3     OH2      OT      -0.834000       15.9994           0
     52737 TIP3     14274    TIP3     H1       HT       0.417000       1.00800           0
     52738 TIP3     14274    TIP3     H2       HT       0.417000       1.00800           0
     52739 TIP3     14275    TIP3     OH2      OT      -0.834000       15.9994           0
     52740 TIP3     14275    TIP3     H1       HT       0.417000       1.00800           0
     52741 TIP3     14275    TIP3     H2       HT       0.417000       1.00800           0
     52742 TIP3     14276    TIP3     OH2      OT      -0.834000       15.9994           0
     52743 TIP3     14276    TIP3     H1       HT       0.417000       1.00800           0
     52744 TIP3     14276    TIP3     H2       HT       0.417000       1.00800           0
     52745 TIP3     14277    TIP3     OH2      OT      -0.834000       15.9994           0
     52746 TIP3     14277    TIP3     H1       HT       0.417000       1.00800           0
     52747 TIP3     14277    TIP3     H2       HT       0.417000       1.00800           0
     52748 TIP3     14278    TIP3     OH2      OT      -0.834000       15.9994           0
     52749 TIP3     14278    TIP3     H1       HT       0.417000       1.00800           0
     52750 TIP3     14278    TIP3     H2       HT       0.417000       1.00800           0
     52751 TIP3     14279    TIP3     OH2      OT      -0.834000       15.9994           0
     52752 TIP3     14279    TIP3     H1       HT       0.417000       1.00800           0
     52753 TIP3     14279    TIP3     H2       HT       0.417000       1.00800           0
     52754 TIP3     14280    TIP3     OH2      OT      -0.834000       15.9994           0
     52755 TIP3     14280    TIP3     H1       HT       0.417000       1.00800           0
     52756 TIP3     14280    TIP3     H2       HT       0.417000       1.00800           0
     52757 TIP3     14281    TIP3     OH2      OT      -0.834000       15.9994           0
     52758 TIP3     14281    TIP3     H1       HT       0.417000       1.00800           0
     52759 TIP3     14281    TIP3     H2       HT       0.417000       1.00800           0
     52760 TIP3     14282    TIP3     OH2      OT      -0.834000       15.9994           0
     52761 TIP3     14282    TIP3     H1       HT       0.417000       1.00800           0
     52762 TIP3     14282    TIP3     H2       HT       0.417000       1.00800           0
     52763 TIP3     14283    TIP3     OH2      OT      -0.834000       15.9994           0
     52764 TIP3     14283    TIP3     H1       HT       0.417000       1.00800           0
     52765 TIP3     14283    TIP3     H2       HT       0.417000       1.00800           0
     52766 TIP3     14284    TIP3     OH2      OT      -0.834000       15.9994           0
     52767 TIP3     14284    TIP3     H1       HT       0.417000       1.00800           0
     52768 TIP3     14284    TIP3     H2       HT       0.417000       1.00800           0
     52769 TIP3     14285    TIP3     OH2      OT      -0.834000       15.9994           0
     52770 TIP3     14285    TIP3     H1       HT       0.417000       1.00800           0
     52771 TIP3     14285    TIP3     H2       HT       0.417000       1.00800           0
     52772 TIP3     14286    TIP3     OH2      OT      -0.834000       15.9994           0
     52773 TIP3     14286    TIP3     H1       HT       0.417000       1.00800           0
     52774 TIP3     14286    TIP3     H2       HT       0.417000       1.00800           0
     52775 TIP3     14287    TIP3     OH2      OT      -0.834000       15.9994           0
     52776 TIP3     14287    TIP3     H1       HT       0.417000       1.00800           0
     52777 TIP3     14287    TIP3     H2       HT       0.417000       1.00800           0
     52778 TIP3     14288    TIP3     OH2      OT      -0.834000       15.9994           0
     52779 TIP3     14288    TIP3     H1       HT       0.417000       1.00800           0
     52780 TIP3     14288    TIP3     H2       HT       0.417000       1.00800           0
     52781 TIP3     14289    TIP3     OH2      OT      -0.834000       15.9994           0
     52782 TIP3     14289    TIP3     H1       HT       0.417000       1.00800           0
     52783 TIP3     14289    TIP3     H2       HT       0.417000       1.00800           0
     52784 TIP3     14290    TIP3     OH2      OT      -0.834000       15.9994           0
     52785 TIP3     14290    TIP3     H1       HT       0.417000       1.00800           0
     52786 TIP3     14290    TIP3     H2       HT       0.417000       1.00800           0
     52787 TIP3     14291    TIP3     OH2      OT      -0.834000       15.9994           0
     52788 TIP3     14291    TIP3     H1       HT       0.417000       1.00800           0
     52789 TIP3     14291    TIP3     H2       HT       0.417000       1.00800           0
     52790 TIP3     14292    TIP3     OH2      OT      -0.834000       15.9994           0
     52791 TIP3     14292    TIP3     H1       HT       0.417000       1.00800           0
     52792 TIP3     14292    TIP3     H2       HT       0.417000       1.00800           0
     52793 TIP3     14293    TIP3     OH2      OT      -0.834000       15.9994           0
     52794 TIP3     14293    TIP3     H1       HT       0.417000       1.00800           0
     52795 TIP3     14293    TIP3     H2       HT       0.417000       1.00800           0
     52796 TIP3     14294    TIP3     OH2      OT      -0.834000       15.9994           0
     52797 TIP3     14294    TIP3     H1       HT       0.417000       1.00800           0
     52798 TIP3     14294    TIP3     H2       HT       0.417000       1.00800           0
     52799 TIP3     14295    TIP3     OH2      OT      -0.834000       15.9994           0
     52800 TIP3     14295    TIP3     H1       HT       0.417000       1.00800           0
     52801 TIP3     14295    TIP3     H2       HT       0.417000       1.00800           0
     52802 TIP3     14296    TIP3     OH2      OT      -0.834000       15.9994           0
     52803 TIP3     14296    TIP3     H1       HT       0.417000       1.00800           0
     52804 TIP3     14296    TIP3     H2       HT       0.417000       1.00800           0
     52805 TIP3     14297    TIP3     OH2      OT      -0.834000       15.9994           0
     52806 TIP3     14297    TIP3     H1       HT       0.417000       1.00800           0
     52807 TIP3     14297    TIP3     H2       HT       0.417000       1.00800           0
     52808 TIP3     14298    TIP3     OH2      OT      -0.834000       15.9994           0
     52809 TIP3     14298    TIP3     H1       HT       0.417000       1.00800           0
     52810 TIP3     14298    TIP3     H2       HT       0.417000       1.00800           0
     52811 TIP3     14299    TIP3     OH2      OT      -0.834000       15.9994           0
     52812 TIP3     14299    TIP3     H1       HT       0.417000       1.00800           0
     52813 TIP3     14299    TIP3     H2       HT       0.417000       1.00800           0
     52814 TIP3     14300    TIP3     OH2      OT      -0.834000       15.9994           0
     52815 TIP3     14300    TIP3     H1       HT       0.417000       1.00800           0
     52816 TIP3     14300    TIP3     H2       HT       0.417000       1.00800           0
     52817 TIP3     14301    TIP3     OH2      OT      -0.834000       15.9994           0
     52818 TIP3     14301    TIP3     H1       HT       0.417000       1.00800           0
     52819 TIP3     14301    TIP3     H2       HT       0.417000       1.00800           0
     52820 TIP3     14302    TIP3     OH2      OT      -0.834000       15.9994           0
     52821 TIP3     14302    TIP3     H1       HT       0.417000       1.00800           0
     52822 TIP3     14302    TIP3     H2       HT       0.417000       1.00800           0
     52823 TIP3     14303    TIP3     OH2      OT      -0.834000       15.9994           0
     52824 TIP3     14303    TIP3     H1       HT       0.417000       1.00800           0
     52825 TIP3     14303    TIP3     H2       HT       0.417000       1.00800           0
     52826 TIP3     14304    TIP3     OH2      OT      -0.834000       15.9994           0
     52827 TIP3     14304    TIP3     H1       HT       0.417000       1.00800           0
     52828 TIP3     14304    TIP3     H2       HT       0.417000       1.00800           0
     52829 TIP3     14305    TIP3     OH2      OT      -0.834000       15.9994           0
     52830 TIP3     14305    TIP3     H1       HT       0.417000       1.00800           0
     52831 TIP3     14305    TIP3     H2       HT       0.417000       1.00800           0
     52832 TIP3     14306    TIP3     OH2      OT      -0.834000       15.9994           0
     52833 TIP3     14306    TIP3     H1       HT       0.417000       1.00800           0
     52834 TIP3     14306    TIP3     H2       HT       0.417000       1.00800           0
     52835 TIP3     14307    TIP3     OH2      OT      -0.834000       15.9994           0
     52836 TIP3     14307    TIP3     H1       HT       0.417000       1.00800           0
     52837 TIP3     14307    TIP3     H2       HT       0.417000       1.00800           0
     52838 TIP3     14308    TIP3     OH2      OT      -0.834000       15.9994           0
     52839 TIP3     14308    TIP3     H1       HT       0.417000       1.00800           0
     52840 TIP3     14308    TIP3     H2       HT       0.417000       1.00800           0
     52841 TIP3     14309    TIP3     OH2      OT      -0.834000       15.9994           0
     52842 TIP3     14309    TIP3     H1       HT       0.417000       1.00800           0
     52843 TIP3     14309    TIP3     H2       HT       0.417000       1.00800           0
     52844 TIP3     14310    TIP3     OH2      OT      -0.834000       15.9994           0
     52845 TIP3     14310    TIP3     H1       HT       0.417000       1.00800           0
     52846 TIP3     14310    TIP3     H2       HT       0.417000       1.00800           0
     52847 TIP3     14311    TIP3     OH2      OT      -0.834000       15.9994           0
     52848 TIP3     14311    TIP3     H1       HT       0.417000       1.00800           0
     52849 TIP3     14311    TIP3     H2       HT       0.417000       1.00800           0
     52850 TIP3     14312    TIP3     OH2      OT      -0.834000       15.9994           0
     52851 TIP3     14312    TIP3     H1       HT       0.417000       1.00800           0
     52852 TIP3     14312    TIP3     H2       HT       0.417000       1.00800           0
     52853 TIP3     14313    TIP3     OH2      OT      -0.834000       15.9994           0
     52854 TIP3     14313    TIP3     H1       HT       0.417000       1.00800           0
     52855 TIP3     14313    TIP3     H2       HT       0.417000       1.00800           0
     52856 TIP3     14314    TIP3     OH2      OT      -0.834000       15.9994           0
     52857 TIP3     14314    TIP3     H1       HT       0.417000       1.00800           0
     52858 TIP3     14314    TIP3     H2       HT       0.417000       1.00800           0
     52859 TIP3     14315    TIP3     OH2      OT      -0.834000       15.9994           0
     52860 TIP3     14315    TIP3     H1       HT       0.417000       1.00800           0
     52861 TIP3     14315    TIP3     H2       HT       0.417000       1.00800           0
     52862 TIP3     14316    TIP3     OH2      OT      -0.834000       15.9994           0
     52863 TIP3     14316    TIP3     H1       HT       0.417000       1.00800           0
     52864 TIP3     14316    TIP3     H2       HT       0.417000       1.00800           0
     52865 TIP3     14317    TIP3     OH2      OT      -0.834000       15.9994           0
     52866 TIP3     14317    TIP3     H1       HT       0.417000       1.00800           0
     52867 TIP3     14317    TIP3     H2       HT       0.417000       1.00800           0
     52868 TIP3     14318    TIP3     OH2      OT      -0.834000       15.9994           0
     52869 TIP3     14318    TIP3     H1       HT       0.417000       1.00800           0
     52870 TIP3     14318    TIP3     H2       HT       0.417000       1.00800           0
     52871 TIP3     14319    TIP3     OH2      OT      -0.834000       15.9994           0
     52872 TIP3     14319    TIP3     H1       HT       0.417000       1.00800           0
     52873 TIP3     14319    TIP3     H2       HT       0.417000       1.00800           0
     52874 TIP3     14320    TIP3     OH2      OT      -0.834000       15.9994           0
     52875 TIP3     14320    TIP3     H1       HT       0.417000       1.00800           0
     52876 TIP3     14320    TIP3     H2       HT       0.417000       1.00800           0
     52877 TIP3     14321    TIP3     OH2      OT      -0.834000       15.9994           0
     52878 TIP3     14321    TIP3     H1       HT       0.417000       1.00800           0
     52879 TIP3     14321    TIP3     H2       HT       0.417000       1.00800           0
     52880 TIP3     14322    TIP3     OH2      OT      -0.834000       15.9994           0
     52881 TIP3     14322    TIP3     H1       HT       0.417000       1.00800           0
     52882 TIP3     14322    TIP3     H2       HT       0.417000       1.00800           0
     52883 TIP3     14323    TIP3     OH2      OT      -0.834000       15.9994           0
     52884 TIP3     14323    TIP3     H1       HT       0.417000       1.00800           0
     52885 TIP3     14323    TIP3     H2       HT       0.417000       1.00800           0
     52886 TIP3     14324    TIP3     OH2      OT      -0.834000       15.9994           0
     52887 TIP3     14324    TIP3     H1       HT       0.417000       1.00800           0
     52888 TIP3     14324    TIP3     H2       HT       0.417000       1.00800           0
     52889 TIP3     14325    TIP3     OH2      OT      -0.834000       15.9994           0
     52890 TIP3     14325    TIP3     H1       HT       0.417000       1.00800           0
     52891 TIP3     14325    TIP3     H2       HT       0.417000       1.00800           0
     52892 TIP3     14326    TIP3     OH2      OT      -0.834000       15.9994           0
     52893 TIP3     14326    TIP3     H1       HT       0.417000       1.00800           0
     52894 TIP3     14326    TIP3     H2       HT       0.417000       1.00800           0
     52895 TIP3     14327    TIP3     OH2      OT      -0.834000       15.9994           0
     52896 TIP3     14327    TIP3     H1       HT       0.417000       1.00800           0
     52897 TIP3     14327    TIP3     H2       HT       0.417000       1.00800           0
     52898 TIP3     14328    TIP3     OH2      OT      -0.834000       15.9994           0
     52899 TIP3     14328    TIP3     H1       HT       0.417000       1.00800           0
     52900 TIP3     14328    TIP3     H2       HT       0.417000       1.00800           0
     52901 TIP3     14329    TIP3     OH2      OT      -0.834000       15.9994           0
     52902 TIP3     14329    TIP3     H1       HT       0.417000       1.00800           0
     52903 TIP3     14329    TIP3     H2       HT       0.417000       1.00800           0
     52904 TIP3     14330    TIP3     OH2      OT      -0.834000       15.9994           0
     52905 TIP3     14330    TIP3     H1       HT       0.417000       1.00800           0
     52906 TIP3     14330    TIP3     H2       HT       0.417000       1.00800           0
     52907 TIP3     14331    TIP3     OH2      OT      -0.834000       15.9994           0
     52908 TIP3     14331    TIP3     H1       HT       0.417000       1.00800           0
     52909 TIP3     14331    TIP3     H2       HT       0.417000       1.00800           0
     52910 TIP3     14332    TIP3     OH2      OT      -0.834000       15.9994           0
     52911 TIP3     14332    TIP3     H1       HT       0.417000       1.00800           0
     52912 TIP3     14332    TIP3     H2       HT       0.417000       1.00800           0
     52913 TIP3     14333    TIP3     OH2      OT      -0.834000       15.9994           0
     52914 TIP3     14333    TIP3     H1       HT       0.417000       1.00800           0
     52915 TIP3     14333    TIP3     H2       HT       0.417000       1.00800           0
     52916 TIP3     14334    TIP3     OH2      OT      -0.834000       15.9994           0
     52917 TIP3     14334    TIP3     H1       HT       0.417000       1.00800           0
     52918 TIP3     14334    TIP3     H2       HT       0.417000       1.00800           0
     52919 TIP3     14335    TIP3     OH2      OT      -0.834000       15.9994           0
     52920 TIP3     14335    TIP3     H1       HT       0.417000       1.00800           0
     52921 TIP3     14335    TIP3     H2       HT       0.417000       1.00800           0
     52922 TIP3     14336    TIP3     OH2      OT      -0.834000       15.9994           0
     52923 TIP3     14336    TIP3     H1       HT       0.417000       1.00800           0
     52924 TIP3     14336    TIP3     H2       HT       0.417000       1.00800           0
     52925 TIP3     14337    TIP3     OH2      OT      -0.834000       15.9994           0
     52926 TIP3     14337    TIP3     H1       HT       0.417000       1.00800           0
     52927 TIP3     14337    TIP3     H2       HT       0.417000       1.00800           0
     52928 TIP3     14338    TIP3     OH2      OT      -0.834000       15.9994           0
     52929 TIP3     14338    TIP3     H1       HT       0.417000       1.00800           0
     52930 TIP3     14338    TIP3     H2       HT       0.417000       1.00800           0
     52931 TIP3     14339    TIP3     OH2      OT      -0.834000       15.9994           0
     52932 TIP3     14339    TIP3     H1       HT       0.417000       1.00800           0
     52933 TIP3     14339    TIP3     H2       HT       0.417000       1.00800           0
     52934 TIP3     14340    TIP3     OH2      OT      -0.834000       15.9994           0
     52935 TIP3     14340    TIP3     H1       HT       0.417000       1.00800           0
     52936 TIP3     14340    TIP3     H2       HT       0.417000       1.00800           0
     52937 TIP3     14341    TIP3     OH2      OT      -0.834000       15.9994           0
     52938 TIP3     14341    TIP3     H1       HT       0.417000       1.00800           0
     52939 TIP3     14341    TIP3     H2       HT       0.417000       1.00800           0
     52940 TIP3     14342    TIP3     OH2      OT      -0.834000       15.9994           0
     52941 TIP3     14342    TIP3     H1       HT       0.417000       1.00800           0
     52942 TIP3     14342    TIP3     H2       HT       0.417000       1.00800           0
     52943 TIP3     14343    TIP3     OH2      OT      -0.834000       15.9994           0
     52944 TIP3     14343    TIP3     H1       HT       0.417000       1.00800           0
     52945 TIP3     14343    TIP3     H2       HT       0.417000       1.00800           0
     52946 TIP3     14344    TIP3     OH2      OT      -0.834000       15.9994           0
     52947 TIP3     14344    TIP3     H1       HT       0.417000       1.00800           0
     52948 TIP3     14344    TIP3     H2       HT       0.417000       1.00800           0
     52949 TIP3     14345    TIP3     OH2      OT      -0.834000       15.9994           0
     52950 TIP3     14345    TIP3     H1       HT       0.417000       1.00800           0
     52951 TIP3     14345    TIP3     H2       HT       0.417000       1.00800           0
     52952 TIP3     14346    TIP3     OH2      OT      -0.834000       15.9994           0
     52953 TIP3     14346    TIP3     H1       HT       0.417000       1.00800           0
     52954 TIP3     14346    TIP3     H2       HT       0.417000       1.00800           0
     52955 TIP3     14347    TIP3     OH2      OT      -0.834000       15.9994           0
     52956 TIP3     14347    TIP3     H1       HT       0.417000       1.00800           0
     52957 TIP3     14347    TIP3     H2       HT       0.417000       1.00800           0
     52958 TIP3     14348    TIP3     OH2      OT      -0.834000       15.9994           0
     52959 TIP3     14348    TIP3     H1       HT       0.417000       1.00800           0
     52960 TIP3     14348    TIP3     H2       HT       0.417000       1.00800           0
     52961 TIP3     14349    TIP3     OH2      OT      -0.834000       15.9994           0
     52962 TIP3     14349    TIP3     H1       HT       0.417000       1.00800           0
     52963 TIP3     14349    TIP3     H2       HT       0.417000       1.00800           0
     52964 TIP3     14350    TIP3     OH2      OT      -0.834000       15.9994           0
     52965 TIP3     14350    TIP3     H1       HT       0.417000       1.00800           0
     52966 TIP3     14350    TIP3     H2       HT       0.417000       1.00800           0
     52967 TIP3     14351    TIP3     OH2      OT      -0.834000       15.9994           0
     52968 TIP3     14351    TIP3     H1       HT       0.417000       1.00800           0
     52969 TIP3     14351    TIP3     H2       HT       0.417000       1.00800           0
     52970 TIP3     14352    TIP3     OH2      OT      -0.834000       15.9994           0
     52971 TIP3     14352    TIP3     H1       HT       0.417000       1.00800           0
     52972 TIP3     14352    TIP3     H2       HT       0.417000       1.00800           0
     52973 TIP3     14353    TIP3     OH2      OT      -0.834000       15.9994           0
     52974 TIP3     14353    TIP3     H1       HT       0.417000       1.00800           0
     52975 TIP3     14353    TIP3     H2       HT       0.417000       1.00800           0
     52976 TIP3     14354    TIP3     OH2      OT      -0.834000       15.9994           0
     52977 TIP3     14354    TIP3     H1       HT       0.417000       1.00800           0
     52978 TIP3     14354    TIP3     H2       HT       0.417000       1.00800           0
     52979 TIP3     14355    TIP3     OH2      OT      -0.834000       15.9994           0
     52980 TIP3     14355    TIP3     H1       HT       0.417000       1.00800           0
     52981 TIP3     14355    TIP3     H2       HT       0.417000       1.00800           0
     52982 TIP3     14356    TIP3     OH2      OT      -0.834000       15.9994           0
     52983 TIP3     14356    TIP3     H1       HT       0.417000       1.00800           0
     52984 TIP3     14356    TIP3     H2       HT       0.417000       1.00800           0
     52985 TIP3     14357    TIP3     OH2      OT      -0.834000       15.9994           0
     52986 TIP3     14357    TIP3     H1       HT       0.417000       1.00800           0
     52987 TIP3     14357    TIP3     H2       HT       0.417000       1.00800           0
     52988 TIP3     14358    TIP3     OH2      OT      -0.834000       15.9994           0
     52989 TIP3     14358    TIP3     H1       HT       0.417000       1.00800           0
     52990 TIP3     14358    TIP3     H2       HT       0.417000       1.00800           0
     52991 TIP3     14359    TIP3     OH2      OT      -0.834000       15.9994           0
     52992 TIP3     14359    TIP3     H1       HT       0.417000       1.00800           0
     52993 TIP3     14359    TIP3     H2       HT       0.417000       1.00800           0
     52994 TIP3     14360    TIP3     OH2      OT      -0.834000       15.9994           0
     52995 TIP3     14360    TIP3     H1       HT       0.417000       1.00800           0
     52996 TIP3     14360    TIP3     H2       HT       0.417000       1.00800           0
     52997 TIP3     14361    TIP3     OH2      OT      -0.834000       15.9994           0
     52998 TIP3     14361    TIP3     H1       HT       0.417000       1.00800           0
     52999 TIP3     14361    TIP3     H2       HT       0.417000       1.00800           0
     53000 TIP3     14362    TIP3     OH2      OT      -0.834000       15.9994           0
     53001 TIP3     14362    TIP3     H1       HT       0.417000       1.00800           0
     53002 TIP3     14362    TIP3     H2       HT       0.417000       1.00800           0
     53003 TIP3     14363    TIP3     OH2      OT      -0.834000       15.9994           0
     53004 TIP3     14363    TIP3     H1       HT       0.417000       1.00800           0
     53005 TIP3     14363    TIP3     H2       HT       0.417000       1.00800           0
     53006 TIP3     14364    TIP3     OH2      OT      -0.834000       15.9994           0
     53007 TIP3     14364    TIP3     H1       HT       0.417000       1.00800           0
     53008 TIP3     14364    TIP3     H2       HT       0.417000       1.00800           0
     53009 TIP3     14365    TIP3     OH2      OT      -0.834000       15.9994           0
     53010 TIP3     14365    TIP3     H1       HT       0.417000       1.00800           0
     53011 TIP3     14365    TIP3     H2       HT       0.417000       1.00800           0
     53012 TIP3     14366    TIP3     OH2      OT      -0.834000       15.9994           0
     53013 TIP3     14366    TIP3     H1       HT       0.417000       1.00800           0
     53014 TIP3     14366    TIP3     H2       HT       0.417000       1.00800           0
     53015 TIP3     14367    TIP3     OH2      OT      -0.834000       15.9994           0
     53016 TIP3     14367    TIP3     H1       HT       0.417000       1.00800           0
     53017 TIP3     14367    TIP3     H2       HT       0.417000       1.00800           0
     53018 TIP3     14368    TIP3     OH2      OT      -0.834000       15.9994           0
     53019 TIP3     14368    TIP3     H1       HT       0.417000       1.00800           0
     53020 TIP3     14368    TIP3     H2       HT       0.417000       1.00800           0
     53021 TIP3     14369    TIP3     OH2      OT      -0.834000       15.9994           0
     53022 TIP3     14369    TIP3     H1       HT       0.417000       1.00800           0
     53023 TIP3     14369    TIP3     H2       HT       0.417000       1.00800           0
     53024 TIP3     14370    TIP3     OH2      OT      -0.834000       15.9994           0
     53025 TIP3     14370    TIP3     H1       HT       0.417000       1.00800           0
     53026 TIP3     14370    TIP3     H2       HT       0.417000       1.00800           0
     53027 TIP3     14371    TIP3     OH2      OT      -0.834000       15.9994           0
     53028 TIP3     14371    TIP3     H1       HT       0.417000       1.00800           0
     53029 TIP3     14371    TIP3     H2       HT       0.417000       1.00800           0
     53030 TIP3     14372    TIP3     OH2      OT      -0.834000       15.9994           0
     53031 TIP3     14372    TIP3     H1       HT       0.417000       1.00800           0
     53032 TIP3     14372    TIP3     H2       HT       0.417000       1.00800           0
     53033 TIP3     14373    TIP3     OH2      OT      -0.834000       15.9994           0
     53034 TIP3     14373    TIP3     H1       HT       0.417000       1.00800           0
     53035 TIP3     14373    TIP3     H2       HT       0.417000       1.00800           0
     53036 TIP3     14374    TIP3     OH2      OT      -0.834000       15.9994           0
     53037 TIP3     14374    TIP3     H1       HT       0.417000       1.00800           0
     53038 TIP3     14374    TIP3     H2       HT       0.417000       1.00800           0
     53039 TIP3     14375    TIP3     OH2      OT      -0.834000       15.9994           0
     53040 TIP3     14375    TIP3     H1       HT       0.417000       1.00800           0
     53041 TIP3     14375    TIP3     H2       HT       0.417000       1.00800           0
     53042 TIP3     14376    TIP3     OH2      OT      -0.834000       15.9994           0
     53043 TIP3     14376    TIP3     H1       HT       0.417000       1.00800           0
     53044 TIP3     14376    TIP3     H2       HT       0.417000       1.00800           0
     53045 TIP3     14377    TIP3     OH2      OT      -0.834000       15.9994           0
     53046 TIP3     14377    TIP3     H1       HT       0.417000       1.00800           0
     53047 TIP3     14377    TIP3     H2       HT       0.417000       1.00800           0
     53048 TIP3     14378    TIP3     OH2      OT      -0.834000       15.9994           0
     53049 TIP3     14378    TIP3     H1       HT       0.417000       1.00800           0
     53050 TIP3     14378    TIP3     H2       HT       0.417000       1.00800           0
     53051 TIP3     14379    TIP3     OH2      OT      -0.834000       15.9994           0
     53052 TIP3     14379    TIP3     H1       HT       0.417000       1.00800           0
     53053 TIP3     14379    TIP3     H2       HT       0.417000       1.00800           0
     53054 TIP3     14380    TIP3     OH2      OT      -0.834000       15.9994           0
     53055 TIP3     14380    TIP3     H1       HT       0.417000       1.00800           0
     53056 TIP3     14380    TIP3     H2       HT       0.417000       1.00800           0
     53057 TIP3     14381    TIP3     OH2      OT      -0.834000       15.9994           0
     53058 TIP3     14381    TIP3     H1       HT       0.417000       1.00800           0
     53059 TIP3     14381    TIP3     H2       HT       0.417000       1.00800           0
     53060 TIP3     14382    TIP3     OH2      OT      -0.834000       15.9994           0
     53061 TIP3     14382    TIP3     H1       HT       0.417000       1.00800           0
     53062 TIP3     14382    TIP3     H2       HT       0.417000       1.00800           0
     53063 TIP3     14383    TIP3     OH2      OT      -0.834000       15.9994           0
     53064 TIP3     14383    TIP3     H1       HT       0.417000       1.00800           0
     53065 TIP3     14383    TIP3     H2       HT       0.417000       1.00800           0
     53066 TIP3     14384    TIP3     OH2      OT      -0.834000       15.9994           0
     53067 TIP3     14384    TIP3     H1       HT       0.417000       1.00800           0
     53068 TIP3     14384    TIP3     H2       HT       0.417000       1.00800           0
     53069 TIP3     14385    TIP3     OH2      OT      -0.834000       15.9994           0
     53070 TIP3     14385    TIP3     H1       HT       0.417000       1.00800           0
     53071 TIP3     14385    TIP3     H2       HT       0.417000       1.00800           0
     53072 TIP3     14386    TIP3     OH2      OT      -0.834000       15.9994           0
     53073 TIP3     14386    TIP3     H1       HT       0.417000       1.00800           0
     53074 TIP3     14386    TIP3     H2       HT       0.417000       1.00800           0
     53075 TIP3     14387    TIP3     OH2      OT      -0.834000       15.9994           0
     53076 TIP3     14387    TIP3     H1       HT       0.417000       1.00800           0
     53077 TIP3     14387    TIP3     H2       HT       0.417000       1.00800           0
     53078 TIP3     14388    TIP3     OH2      OT      -0.834000       15.9994           0
     53079 TIP3     14388    TIP3     H1       HT       0.417000       1.00800           0
     53080 TIP3     14388    TIP3     H2       HT       0.417000       1.00800           0
     53081 TIP3     14389    TIP3     OH2      OT      -0.834000       15.9994           0
     53082 TIP3     14389    TIP3     H1       HT       0.417000       1.00800           0
     53083 TIP3     14389    TIP3     H2       HT       0.417000       1.00800           0
     53084 TIP3     14390    TIP3     OH2      OT      -0.834000       15.9994           0
     53085 TIP3     14390    TIP3     H1       HT       0.417000       1.00800           0
     53086 TIP3     14390    TIP3     H2       HT       0.417000       1.00800           0
     53087 TIP3     14391    TIP3     OH2      OT      -0.834000       15.9994           0
     53088 TIP3     14391    TIP3     H1       HT       0.417000       1.00800           0
     53089 TIP3     14391    TIP3     H2       HT       0.417000       1.00800           0
     53090 TIP3     14392    TIP3     OH2      OT      -0.834000       15.9994           0
     53091 TIP3     14392    TIP3     H1       HT       0.417000       1.00800           0
     53092 TIP3     14392    TIP3     H2       HT       0.417000       1.00800           0
     53093 TIP3     14393    TIP3     OH2      OT      -0.834000       15.9994           0
     53094 TIP3     14393    TIP3     H1       HT       0.417000       1.00800           0
     53095 TIP3     14393    TIP3     H2       HT       0.417000       1.00800           0
     53096 TIP3     14394    TIP3     OH2      OT      -0.834000       15.9994           0
     53097 TIP3     14394    TIP3     H1       HT       0.417000       1.00800           0
     53098 TIP3     14394    TIP3     H2       HT       0.417000       1.00800           0
     53099 TIP3     14395    TIP3     OH2      OT      -0.834000       15.9994           0
     53100 TIP3     14395    TIP3     H1       HT       0.417000       1.00800           0
     53101 TIP3     14395    TIP3     H2       HT       0.417000       1.00800           0
     53102 TIP3     14396    TIP3     OH2      OT      -0.834000       15.9994           0
     53103 TIP3     14396    TIP3     H1       HT       0.417000       1.00800           0
     53104 TIP3     14396    TIP3     H2       HT       0.417000       1.00800           0
     53105 TIP3     14397    TIP3     OH2      OT      -0.834000       15.9994           0
     53106 TIP3     14397    TIP3     H1       HT       0.417000       1.00800           0
     53107 TIP3     14397    TIP3     H2       HT       0.417000       1.00800           0
     53108 TIP3     14398    TIP3     OH2      OT      -0.834000       15.9994           0
     53109 TIP3     14398    TIP3     H1       HT       0.417000       1.00800           0
     53110 TIP3     14398    TIP3     H2       HT       0.417000       1.00800           0
     53111 TIP3     14399    TIP3     OH2      OT      -0.834000       15.9994           0
     53112 TIP3     14399    TIP3     H1       HT       0.417000       1.00800           0
     53113 TIP3     14399    TIP3     H2       HT       0.417000       1.00800           0
     53114 TIP3     14400    TIP3     OH2      OT      -0.834000       15.9994           0
     53115 TIP3     14400    TIP3     H1       HT       0.417000       1.00800           0
     53116 TIP3     14400    TIP3     H2       HT       0.417000       1.00800           0
     53117 TIP3     14401    TIP3     OH2      OT      -0.834000       15.9994           0
     53118 TIP3     14401    TIP3     H1       HT       0.417000       1.00800           0
     53119 TIP3     14401    TIP3     H2       HT       0.417000       1.00800           0
     53120 TIP3     14402    TIP3     OH2      OT      -0.834000       15.9994           0
     53121 TIP3     14402    TIP3     H1       HT       0.417000       1.00800           0
     53122 TIP3     14402    TIP3     H2       HT       0.417000       1.00800           0
     53123 TIP3     14403    TIP3     OH2      OT      -0.834000       15.9994           0
     53124 TIP3     14403    TIP3     H1       HT       0.417000       1.00800           0
     53125 TIP3     14403    TIP3     H2       HT       0.417000       1.00800           0
     53126 TIP3     14404    TIP3     OH2      OT      -0.834000       15.9994           0
     53127 TIP3     14404    TIP3     H1       HT       0.417000       1.00800           0
     53128 TIP3     14404    TIP3     H2       HT       0.417000       1.00800           0
     53129 TIP3     14405    TIP3     OH2      OT      -0.834000       15.9994           0
     53130 TIP3     14405    TIP3     H1       HT       0.417000       1.00800           0
     53131 TIP3     14405    TIP3     H2       HT       0.417000       1.00800           0
     53132 TIP3     14406    TIP3     OH2      OT      -0.834000       15.9994           0
     53133 TIP3     14406    TIP3     H1       HT       0.417000       1.00800           0
     53134 TIP3     14406    TIP3     H2       HT       0.417000       1.00800           0
     53135 TIP3     14407    TIP3     OH2      OT      -0.834000       15.9994           0
     53136 TIP3     14407    TIP3     H1       HT       0.417000       1.00800           0
     53137 TIP3     14407    TIP3     H2       HT       0.417000       1.00800           0
     53138 TIP3     14408    TIP3     OH2      OT      -0.834000       15.9994           0
     53139 TIP3     14408    TIP3     H1       HT       0.417000       1.00800           0
     53140 TIP3     14408    TIP3     H2       HT       0.417000       1.00800           0
     53141 TIP3     14409    TIP3     OH2      OT      -0.834000       15.9994           0
     53142 TIP3     14409    TIP3     H1       HT       0.417000       1.00800           0
     53143 TIP3     14409    TIP3     H2       HT       0.417000       1.00800           0
     53144 TIP3     14410    TIP3     OH2      OT      -0.834000       15.9994           0
     53145 TIP3     14410    TIP3     H1       HT       0.417000       1.00800           0
     53146 TIP3     14410    TIP3     H2       HT       0.417000       1.00800           0
     53147 TIP3     14411    TIP3     OH2      OT      -0.834000       15.9994           0
     53148 TIP3     14411    TIP3     H1       HT       0.417000       1.00800           0
     53149 TIP3     14411    TIP3     H2       HT       0.417000       1.00800           0
     53150 TIP3     14412    TIP3     OH2      OT      -0.834000       15.9994           0
     53151 TIP3     14412    TIP3     H1       HT       0.417000       1.00800           0
     53152 TIP3     14412    TIP3     H2       HT       0.417000       1.00800           0
     53153 TIP3     14413    TIP3     OH2      OT      -0.834000       15.9994           0
     53154 TIP3     14413    TIP3     H1       HT       0.417000       1.00800           0
     53155 TIP3     14413    TIP3     H2       HT       0.417000       1.00800           0
     53156 TIP3     14414    TIP3     OH2      OT      -0.834000       15.9994           0
     53157 TIP3     14414    TIP3     H1       HT       0.417000       1.00800           0
     53158 TIP3     14414    TIP3     H2       HT       0.417000       1.00800           0
     53159 TIP3     14415    TIP3     OH2      OT      -0.834000       15.9994           0
     53160 TIP3     14415    TIP3     H1       HT       0.417000       1.00800           0
     53161 TIP3     14415    TIP3     H2       HT       0.417000       1.00800           0
     53162 TIP3     14416    TIP3     OH2      OT      -0.834000       15.9994           0
     53163 TIP3     14416    TIP3     H1       HT       0.417000       1.00800           0
     53164 TIP3     14416    TIP3     H2       HT       0.417000       1.00800           0
     53165 TIP3     14417    TIP3     OH2      OT      -0.834000       15.9994           0
     53166 TIP3     14417    TIP3     H1       HT       0.417000       1.00800           0
     53167 TIP3     14417    TIP3     H2       HT       0.417000       1.00800           0
     53168 TIP3     14418    TIP3     OH2      OT      -0.834000       15.9994           0
     53169 TIP3     14418    TIP3     H1       HT       0.417000       1.00800           0
     53170 TIP3     14418    TIP3     H2       HT       0.417000       1.00800           0
     53171 TIP3     14419    TIP3     OH2      OT      -0.834000       15.9994           0
     53172 TIP3     14419    TIP3     H1       HT       0.417000       1.00800           0
     53173 TIP3     14419    TIP3     H2       HT       0.417000       1.00800           0
     53174 TIP3     14420    TIP3     OH2      OT      -0.834000       15.9994           0
     53175 TIP3     14420    TIP3     H1       HT       0.417000       1.00800           0
     53176 TIP3     14420    TIP3     H2       HT       0.417000       1.00800           0
     53177 TIP3     14421    TIP3     OH2      OT      -0.834000       15.9994           0
     53178 TIP3     14421    TIP3     H1       HT       0.417000       1.00800           0
     53179 TIP3     14421    TIP3     H2       HT       0.417000       1.00800           0
     53180 TIP3     14422    TIP3     OH2      OT      -0.834000       15.9994           0
     53181 TIP3     14422    TIP3     H1       HT       0.417000       1.00800           0
     53182 TIP3     14422    TIP3     H2       HT       0.417000       1.00800           0
     53183 TIP3     14423    TIP3     OH2      OT      -0.834000       15.9994           0
     53184 TIP3     14423    TIP3     H1       HT       0.417000       1.00800           0
     53185 TIP3     14423    TIP3     H2       HT       0.417000       1.00800           0
     53186 TIP3     14424    TIP3     OH2      OT      -0.834000       15.9994           0
     53187 TIP3     14424    TIP3     H1       HT       0.417000       1.00800           0
     53188 TIP3     14424    TIP3     H2       HT       0.417000       1.00800           0
     53189 TIP3     14425    TIP3     OH2      OT      -0.834000       15.9994           0
     53190 TIP3     14425    TIP3     H1       HT       0.417000       1.00800           0
     53191 TIP3     14425    TIP3     H2       HT       0.417000       1.00800           0
     53192 TIP3     14426    TIP3     OH2      OT      -0.834000       15.9994           0
     53193 TIP3     14426    TIP3     H1       HT       0.417000       1.00800           0
     53194 TIP3     14426    TIP3     H2       HT       0.417000       1.00800           0
     53195 TIP3     14427    TIP3     OH2      OT      -0.834000       15.9994           0
     53196 TIP3     14427    TIP3     H1       HT       0.417000       1.00800           0
     53197 TIP3     14427    TIP3     H2       HT       0.417000       1.00800           0
     53198 TIP3     14428    TIP3     OH2      OT      -0.834000       15.9994           0
     53199 TIP3     14428    TIP3     H1       HT       0.417000       1.00800           0
     53200 TIP3     14428    TIP3     H2       HT       0.417000       1.00800           0
     53201 TIP3     14429    TIP3     OH2      OT      -0.834000       15.9994           0
     53202 TIP3     14429    TIP3     H1       HT       0.417000       1.00800           0
     53203 TIP3     14429    TIP3     H2       HT       0.417000       1.00800           0
     53204 TIP3     14430    TIP3     OH2      OT      -0.834000       15.9994           0
     53205 TIP3     14430    TIP3     H1       HT       0.417000       1.00800           0
     53206 TIP3     14430    TIP3     H2       HT       0.417000       1.00800           0
     53207 TIP3     14431    TIP3     OH2      OT      -0.834000       15.9994           0
     53208 TIP3     14431    TIP3     H1       HT       0.417000       1.00800           0
     53209 TIP3     14431    TIP3     H2       HT       0.417000       1.00800           0
     53210 TIP3     14432    TIP3     OH2      OT      -0.834000       15.9994           0
     53211 TIP3     14432    TIP3     H1       HT       0.417000       1.00800           0
     53212 TIP3     14432    TIP3     H2       HT       0.417000       1.00800           0
     53213 TIP3     14433    TIP3     OH2      OT      -0.834000       15.9994           0
     53214 TIP3     14433    TIP3     H1       HT       0.417000       1.00800           0
     53215 TIP3     14433    TIP3     H2       HT       0.417000       1.00800           0
     53216 TIP3     14434    TIP3     OH2      OT      -0.834000       15.9994           0
     53217 TIP3     14434    TIP3     H1       HT       0.417000       1.00800           0
     53218 TIP3     14434    TIP3     H2       HT       0.417000       1.00800           0
     53219 TIP3     14435    TIP3     OH2      OT      -0.834000       15.9994           0
     53220 TIP3     14435    TIP3     H1       HT       0.417000       1.00800           0
     53221 TIP3     14435    TIP3     H2       HT       0.417000       1.00800           0
     53222 TIP3     14436    TIP3     OH2      OT      -0.834000       15.9994           0
     53223 TIP3     14436    TIP3     H1       HT       0.417000       1.00800           0
     53224 TIP3     14436    TIP3     H2       HT       0.417000       1.00800           0
     53225 TIP3     14437    TIP3     OH2      OT      -0.834000       15.9994           0
     53226 TIP3     14437    TIP3     H1       HT       0.417000       1.00800           0
     53227 TIP3     14437    TIP3     H2       HT       0.417000       1.00800           0
     53228 TIP3     14438    TIP3     OH2      OT      -0.834000       15.9994           0
     53229 TIP3     14438    TIP3     H1       HT       0.417000       1.00800           0
     53230 TIP3     14438    TIP3     H2       HT       0.417000       1.00800           0
     53231 TIP3     14439    TIP3     OH2      OT      -0.834000       15.9994           0
     53232 TIP3     14439    TIP3     H1       HT       0.417000       1.00800           0
     53233 TIP3     14439    TIP3     H2       HT       0.417000       1.00800           0
     53234 TIP3     14440    TIP3     OH2      OT      -0.834000       15.9994           0
     53235 TIP3     14440    TIP3     H1       HT       0.417000       1.00800           0
     53236 TIP3     14440    TIP3     H2       HT       0.417000       1.00800           0
     53237 TIP3     14441    TIP3     OH2      OT      -0.834000       15.9994           0
     53238 TIP3     14441    TIP3     H1       HT       0.417000       1.00800           0
     53239 TIP3     14441    TIP3     H2       HT       0.417000       1.00800           0
     53240 TIP3     14442    TIP3     OH2      OT      -0.834000       15.9994           0
     53241 TIP3     14442    TIP3     H1       HT       0.417000       1.00800           0
     53242 TIP3     14442    TIP3     H2       HT       0.417000       1.00800           0
     53243 TIP3     14443    TIP3     OH2      OT      -0.834000       15.9994           0
     53244 TIP3     14443    TIP3     H1       HT       0.417000       1.00800           0
     53245 TIP3     14443    TIP3     H2       HT       0.417000       1.00800           0
     53246 TIP3     14444    TIP3     OH2      OT      -0.834000       15.9994           0
     53247 TIP3     14444    TIP3     H1       HT       0.417000       1.00800           0
     53248 TIP3     14444    TIP3     H2       HT       0.417000       1.00800           0
     53249 TIP3     14445    TIP3     OH2      OT      -0.834000       15.9994           0
     53250 TIP3     14445    TIP3     H1       HT       0.417000       1.00800           0
     53251 TIP3     14445    TIP3     H2       HT       0.417000       1.00800           0
     53252 TIP3     14446    TIP3     OH2      OT      -0.834000       15.9994           0
     53253 TIP3     14446    TIP3     H1       HT       0.417000       1.00800           0
     53254 TIP3     14446    TIP3     H2       HT       0.417000       1.00800           0
     53255 TIP3     14447    TIP3     OH2      OT      -0.834000       15.9994           0
     53256 TIP3     14447    TIP3     H1       HT       0.417000       1.00800           0
     53257 TIP3     14447    TIP3     H2       HT       0.417000       1.00800           0
     53258 TIP3     14448    TIP3     OH2      OT      -0.834000       15.9994           0
     53259 TIP3     14448    TIP3     H1       HT       0.417000       1.00800           0
     53260 TIP3     14448    TIP3     H2       HT       0.417000       1.00800           0
     53261 TIP3     14449    TIP3     OH2      OT      -0.834000       15.9994           0
     53262 TIP3     14449    TIP3     H1       HT       0.417000       1.00800           0
     53263 TIP3     14449    TIP3     H2       HT       0.417000       1.00800           0
     53264 TIP3     14450    TIP3     OH2      OT      -0.834000       15.9994           0
     53265 TIP3     14450    TIP3     H1       HT       0.417000       1.00800           0
     53266 TIP3     14450    TIP3     H2       HT       0.417000       1.00800           0
     53267 TIP3     14451    TIP3     OH2      OT      -0.834000       15.9994           0
     53268 TIP3     14451    TIP3     H1       HT       0.417000       1.00800           0
     53269 TIP3     14451    TIP3     H2       HT       0.417000       1.00800           0
     53270 TIP3     14452    TIP3     OH2      OT      -0.834000       15.9994           0
     53271 TIP3     14452    TIP3     H1       HT       0.417000       1.00800           0
     53272 TIP3     14452    TIP3     H2       HT       0.417000       1.00800           0
     53273 TIP3     14453    TIP3     OH2      OT      -0.834000       15.9994           0
     53274 TIP3     14453    TIP3     H1       HT       0.417000       1.00800           0
     53275 TIP3     14453    TIP3     H2       HT       0.417000       1.00800           0
     53276 TIP3     14454    TIP3     OH2      OT      -0.834000       15.9994           0
     53277 TIP3     14454    TIP3     H1       HT       0.417000       1.00800           0
     53278 TIP3     14454    TIP3     H2       HT       0.417000       1.00800           0
     53279 TIP3     14455    TIP3     OH2      OT      -0.834000       15.9994           0
     53280 TIP3     14455    TIP3     H1       HT       0.417000       1.00800           0
     53281 TIP3     14455    TIP3     H2       HT       0.417000       1.00800           0
     53282 TIP3     14456    TIP3     OH2      OT      -0.834000       15.9994           0
     53283 TIP3     14456    TIP3     H1       HT       0.417000       1.00800           0
     53284 TIP3     14456    TIP3     H2       HT       0.417000       1.00800           0
     53285 TIP3     14457    TIP3     OH2      OT      -0.834000       15.9994           0
     53286 TIP3     14457    TIP3     H1       HT       0.417000       1.00800           0
     53287 TIP3     14457    TIP3     H2       HT       0.417000       1.00800           0
     53288 TIP3     14458    TIP3     OH2      OT      -0.834000       15.9994           0
     53289 TIP3     14458    TIP3     H1       HT       0.417000       1.00800           0
     53290 TIP3     14458    TIP3     H2       HT       0.417000       1.00800           0
     53291 TIP3     14459    TIP3     OH2      OT      -0.834000       15.9994           0
     53292 TIP3     14459    TIP3     H1       HT       0.417000       1.00800           0
     53293 TIP3     14459    TIP3     H2       HT       0.417000       1.00800           0
     53294 TIP3     14460    TIP3     OH2      OT      -0.834000       15.9994           0
     53295 TIP3     14460    TIP3     H1       HT       0.417000       1.00800           0
     53296 TIP3     14460    TIP3     H2       HT       0.417000       1.00800           0
     53297 TIP3     14461    TIP3     OH2      OT      -0.834000       15.9994           0
     53298 TIP3     14461    TIP3     H1       HT       0.417000       1.00800           0
     53299 TIP3     14461    TIP3     H2       HT       0.417000       1.00800           0
     53300 TIP3     14462    TIP3     OH2      OT      -0.834000       15.9994           0
     53301 TIP3     14462    TIP3     H1       HT       0.417000       1.00800           0
     53302 TIP3     14462    TIP3     H2       HT       0.417000       1.00800           0
     53303 TIP3     14463    TIP3     OH2      OT      -0.834000       15.9994           0
     53304 TIP3     14463    TIP3     H1       HT       0.417000       1.00800           0
     53305 TIP3     14463    TIP3     H2       HT       0.417000       1.00800           0
     53306 TIP3     14464    TIP3     OH2      OT      -0.834000       15.9994           0
     53307 TIP3     14464    TIP3     H1       HT       0.417000       1.00800           0
     53308 TIP3     14464    TIP3     H2       HT       0.417000       1.00800           0
     53309 TIP3     14465    TIP3     OH2      OT      -0.834000       15.9994           0
     53310 TIP3     14465    TIP3     H1       HT       0.417000       1.00800           0
     53311 TIP3     14465    TIP3     H2       HT       0.417000       1.00800           0
     53312 TIP3     14466    TIP3     OH2      OT      -0.834000       15.9994           0
     53313 TIP3     14466    TIP3     H1       HT       0.417000       1.00800           0
     53314 TIP3     14466    TIP3     H2       HT       0.417000       1.00800           0
     53315 TIP3     14467    TIP3     OH2      OT      -0.834000       15.9994           0
     53316 TIP3     14467    TIP3     H1       HT       0.417000       1.00800           0
     53317 TIP3     14467    TIP3     H2       HT       0.417000       1.00800           0
     53318 TIP3     14468    TIP3     OH2      OT      -0.834000       15.9994           0
     53319 TIP3     14468    TIP3     H1       HT       0.417000       1.00800           0
     53320 TIP3     14468    TIP3     H2       HT       0.417000       1.00800           0
     53321 TIP3     14469    TIP3     OH2      OT      -0.834000       15.9994           0
     53322 TIP3     14469    TIP3     H1       HT       0.417000       1.00800           0
     53323 TIP3     14469    TIP3     H2       HT       0.417000       1.00800           0
     53324 TIP3     14470    TIP3     OH2      OT      -0.834000       15.9994           0
     53325 TIP3     14470    TIP3     H1       HT       0.417000       1.00800           0
     53326 TIP3     14470    TIP3     H2       HT       0.417000       1.00800           0
     53327 TIP3     14471    TIP3     OH2      OT      -0.834000       15.9994           0
     53328 TIP3     14471    TIP3     H1       HT       0.417000       1.00800           0
     53329 TIP3     14471    TIP3     H2       HT       0.417000       1.00800           0
     53330 TIP3     14472    TIP3     OH2      OT      -0.834000       15.9994           0
     53331 TIP3     14472    TIP3     H1       HT       0.417000       1.00800           0
     53332 TIP3     14472    TIP3     H2       HT       0.417000       1.00800           0
     53333 TIP3     14473    TIP3     OH2      OT      -0.834000       15.9994           0
     53334 TIP3     14473    TIP3     H1       HT       0.417000       1.00800           0
     53335 TIP3     14473    TIP3     H2       HT       0.417000       1.00800           0
     53336 TIP3     14474    TIP3     OH2      OT      -0.834000       15.9994           0
     53337 TIP3     14474    TIP3     H1       HT       0.417000       1.00800           0
     53338 TIP3     14474    TIP3     H2       HT       0.417000       1.00800           0
     53339 TIP3     14475    TIP3     OH2      OT      -0.834000       15.9994           0
     53340 TIP3     14475    TIP3     H1       HT       0.417000       1.00800           0
     53341 TIP3     14475    TIP3     H2       HT       0.417000       1.00800           0
     53342 TIP3     14476    TIP3     OH2      OT      -0.834000       15.9994           0
     53343 TIP3     14476    TIP3     H1       HT       0.417000       1.00800           0
     53344 TIP3     14476    TIP3     H2       HT       0.417000       1.00800           0
     53345 TIP3     14477    TIP3     OH2      OT      -0.834000       15.9994           0
     53346 TIP3     14477    TIP3     H1       HT       0.417000       1.00800           0
     53347 TIP3     14477    TIP3     H2       HT       0.417000       1.00800           0
     53348 TIP3     14478    TIP3     OH2      OT      -0.834000       15.9994           0
     53349 TIP3     14478    TIP3     H1       HT       0.417000       1.00800           0
     53350 TIP3     14478    TIP3     H2       HT       0.417000       1.00800           0
     53351 TIP3     14479    TIP3     OH2      OT      -0.834000       15.9994           0
     53352 TIP3     14479    TIP3     H1       HT       0.417000       1.00800           0
     53353 TIP3     14479    TIP3     H2       HT       0.417000       1.00800           0
     53354 TIP3     14480    TIP3     OH2      OT      -0.834000       15.9994           0
     53355 TIP3     14480    TIP3     H1       HT       0.417000       1.00800           0
     53356 TIP3     14480    TIP3     H2       HT       0.417000       1.00800           0
     53357 TIP3     14481    TIP3     OH2      OT      -0.834000       15.9994           0
     53358 TIP3     14481    TIP3     H1       HT       0.417000       1.00800           0
     53359 TIP3     14481    TIP3     H2       HT       0.417000       1.00800           0
     53360 TIP3     14482    TIP3     OH2      OT      -0.834000       15.9994           0
     53361 TIP3     14482    TIP3     H1       HT       0.417000       1.00800           0
     53362 TIP3     14482    TIP3     H2       HT       0.417000       1.00800           0
     53363 TIP3     14483    TIP3     OH2      OT      -0.834000       15.9994           0
     53364 TIP3     14483    TIP3     H1       HT       0.417000       1.00800           0
     53365 TIP3     14483    TIP3     H2       HT       0.417000       1.00800           0
     53366 TIP3     14484    TIP3     OH2      OT      -0.834000       15.9994           0
     53367 TIP3     14484    TIP3     H1       HT       0.417000       1.00800           0
     53368 TIP3     14484    TIP3     H2       HT       0.417000       1.00800           0
     53369 TIP3     14485    TIP3     OH2      OT      -0.834000       15.9994           0
     53370 TIP3     14485    TIP3     H1       HT       0.417000       1.00800           0
     53371 TIP3     14485    TIP3     H2       HT       0.417000       1.00800           0
     53372 TIP3     14486    TIP3     OH2      OT      -0.834000       15.9994           0
     53373 TIP3     14486    TIP3     H1       HT       0.417000       1.00800           0
     53374 TIP3     14486    TIP3     H2       HT       0.417000       1.00800           0
     53375 TIP3     14487    TIP3     OH2      OT      -0.834000       15.9994           0
     53376 TIP3     14487    TIP3     H1       HT       0.417000       1.00800           0
     53377 TIP3     14487    TIP3     H2       HT       0.417000       1.00800           0
     53378 TIP3     14488    TIP3     OH2      OT      -0.834000       15.9994           0
     53379 TIP3     14488    TIP3     H1       HT       0.417000       1.00800           0
     53380 TIP3     14488    TIP3     H2       HT       0.417000       1.00800           0
     53381 TIP3     14489    TIP3     OH2      OT      -0.834000       15.9994           0
     53382 TIP3     14489    TIP3     H1       HT       0.417000       1.00800           0
     53383 TIP3     14489    TIP3     H2       HT       0.417000       1.00800           0
     53384 TIP3     14490    TIP3     OH2      OT      -0.834000       15.9994           0
     53385 TIP3     14490    TIP3     H1       HT       0.417000       1.00800           0
     53386 TIP3     14490    TIP3     H2       HT       0.417000       1.00800           0
     53387 TIP3     14491    TIP3     OH2      OT      -0.834000       15.9994           0
     53388 TIP3     14491    TIP3     H1       HT       0.417000       1.00800           0
     53389 TIP3     14491    TIP3     H2       HT       0.417000       1.00800           0
     53390 TIP3     14492    TIP3     OH2      OT      -0.834000       15.9994           0
     53391 TIP3     14492    TIP3     H1       HT       0.417000       1.00800           0
     53392 TIP3     14492    TIP3     H2       HT       0.417000       1.00800           0
     53393 TIP3     14493    TIP3     OH2      OT      -0.834000       15.9994           0
     53394 TIP3     14493    TIP3     H1       HT       0.417000       1.00800           0
     53395 TIP3     14493    TIP3     H2       HT       0.417000       1.00800           0
     53396 TIP3     14494    TIP3     OH2      OT      -0.834000       15.9994           0
     53397 TIP3     14494    TIP3     H1       HT       0.417000       1.00800           0
     53398 TIP3     14494    TIP3     H2       HT       0.417000       1.00800           0
     53399 TIP3     14495    TIP3     OH2      OT      -0.834000       15.9994           0
     53400 TIP3     14495    TIP3     H1       HT       0.417000       1.00800           0
     53401 TIP3     14495    TIP3     H2       HT       0.417000       1.00800           0
     53402 TIP3     14496    TIP3     OH2      OT      -0.834000       15.9994           0
     53403 TIP3     14496    TIP3     H1       HT       0.417000       1.00800           0
     53404 TIP3     14496    TIP3     H2       HT       0.417000       1.00800           0
     53405 TIP3     14497    TIP3     OH2      OT      -0.834000       15.9994           0
     53406 TIP3     14497    TIP3     H1       HT       0.417000       1.00800           0
     53407 TIP3     14497    TIP3     H2       HT       0.417000       1.00800           0
     53408 TIP3     14498    TIP3     OH2      OT      -0.834000       15.9994           0
     53409 TIP3     14498    TIP3     H1       HT       0.417000       1.00800           0
     53410 TIP3     14498    TIP3     H2       HT       0.417000       1.00800           0
     53411 TIP3     14499    TIP3     OH2      OT      -0.834000       15.9994           0
     53412 TIP3     14499    TIP3     H1       HT       0.417000       1.00800           0
     53413 TIP3     14499    TIP3     H2       HT       0.417000       1.00800           0
     53414 TIP3     14500    TIP3     OH2      OT      -0.834000       15.9994           0
     53415 TIP3     14500    TIP3     H1       HT       0.417000       1.00800           0
     53416 TIP3     14500    TIP3     H2       HT       0.417000       1.00800           0
     53417 TIP3     14501    TIP3     OH2      OT      -0.834000       15.9994           0
     53418 TIP3     14501    TIP3     H1       HT       0.417000       1.00800           0
     53419 TIP3     14501    TIP3     H2       HT       0.417000       1.00800           0
     53420 TIP3     14502    TIP3     OH2      OT      -0.834000       15.9994           0
     53421 TIP3     14502    TIP3     H1       HT       0.417000       1.00800           0
     53422 TIP3     14502    TIP3     H2       HT       0.417000       1.00800           0
     53423 TIP3     14503    TIP3     OH2      OT      -0.834000       15.9994           0
     53424 TIP3     14503    TIP3     H1       HT       0.417000       1.00800           0
     53425 TIP3     14503    TIP3     H2       HT       0.417000       1.00800           0
     53426 TIP3     14504    TIP3     OH2      OT      -0.834000       15.9994           0
     53427 TIP3     14504    TIP3     H1       HT       0.417000       1.00800           0
     53428 TIP3     14504    TIP3     H2       HT       0.417000       1.00800           0
     53429 TIP3     14505    TIP3     OH2      OT      -0.834000       15.9994           0
     53430 TIP3     14505    TIP3     H1       HT       0.417000       1.00800           0
     53431 TIP3     14505    TIP3     H2       HT       0.417000       1.00800           0
     53432 TIP3     14506    TIP3     OH2      OT      -0.834000       15.9994           0
     53433 TIP3     14506    TIP3     H1       HT       0.417000       1.00800           0
     53434 TIP3     14506    TIP3     H2       HT       0.417000       1.00800           0
     53435 TIP3     14507    TIP3     OH2      OT      -0.834000       15.9994           0
     53436 TIP3     14507    TIP3     H1       HT       0.417000       1.00800           0
     53437 TIP3     14507    TIP3     H2       HT       0.417000       1.00800           0
     53438 TIP3     14508    TIP3     OH2      OT      -0.834000       15.9994           0
     53439 TIP3     14508    TIP3     H1       HT       0.417000       1.00800           0
     53440 TIP3     14508    TIP3     H2       HT       0.417000       1.00800           0
     53441 TIP3     14509    TIP3     OH2      OT      -0.834000       15.9994           0
     53442 TIP3     14509    TIP3     H1       HT       0.417000       1.00800           0
     53443 TIP3     14509    TIP3     H2       HT       0.417000       1.00800           0
     53444 TIP3     14510    TIP3     OH2      OT      -0.834000       15.9994           0
     53445 TIP3     14510    TIP3     H1       HT       0.417000       1.00800           0
     53446 TIP3     14510    TIP3     H2       HT       0.417000       1.00800           0
     53447 TIP3     14511    TIP3     OH2      OT      -0.834000       15.9994           0
     53448 TIP3     14511    TIP3     H1       HT       0.417000       1.00800           0
     53449 TIP3     14511    TIP3     H2       HT       0.417000       1.00800           0
     53450 TIP3     14512    TIP3     OH2      OT      -0.834000       15.9994           0
     53451 TIP3     14512    TIP3     H1       HT       0.417000       1.00800           0
     53452 TIP3     14512    TIP3     H2       HT       0.417000       1.00800           0
     53453 TIP3     14513    TIP3     OH2      OT      -0.834000       15.9994           0
     53454 TIP3     14513    TIP3     H1       HT       0.417000       1.00800           0
     53455 TIP3     14513    TIP3     H2       HT       0.417000       1.00800           0
     53456 TIP3     14514    TIP3     OH2      OT      -0.834000       15.9994           0
     53457 TIP3     14514    TIP3     H1       HT       0.417000       1.00800           0
     53458 TIP3     14514    TIP3     H2       HT       0.417000       1.00800           0
     53459 TIP3     14515    TIP3     OH2      OT      -0.834000       15.9994           0
     53460 TIP3     14515    TIP3     H1       HT       0.417000       1.00800           0
     53461 TIP3     14515    TIP3     H2       HT       0.417000       1.00800           0
     53462 TIP3     14516    TIP3     OH2      OT      -0.834000       15.9994           0
     53463 TIP3     14516    TIP3     H1       HT       0.417000       1.00800           0
     53464 TIP3     14516    TIP3     H2       HT       0.417000       1.00800           0
     53465 TIP3     14517    TIP3     OH2      OT      -0.834000       15.9994           0
     53466 TIP3     14517    TIP3     H1       HT       0.417000       1.00800           0
     53467 TIP3     14517    TIP3     H2       HT       0.417000       1.00800           0
     53468 TIP3     14518    TIP3     OH2      OT      -0.834000       15.9994           0
     53469 TIP3     14518    TIP3     H1       HT       0.417000       1.00800           0
     53470 TIP3     14518    TIP3     H2       HT       0.417000       1.00800           0
     53471 TIP3     14519    TIP3     OH2      OT      -0.834000       15.9994           0
     53472 TIP3     14519    TIP3     H1       HT       0.417000       1.00800           0
     53473 TIP3     14519    TIP3     H2       HT       0.417000       1.00800           0
     53474 TIP3     14520    TIP3     OH2      OT      -0.834000       15.9994           0
     53475 TIP3     14520    TIP3     H1       HT       0.417000       1.00800           0
     53476 TIP3     14520    TIP3     H2       HT       0.417000       1.00800           0
     53477 TIP3     14521    TIP3     OH2      OT      -0.834000       15.9994           0
     53478 TIP3     14521    TIP3     H1       HT       0.417000       1.00800           0
     53479 TIP3     14521    TIP3     H2       HT       0.417000       1.00800           0
     53480 TIP3     14522    TIP3     OH2      OT      -0.834000       15.9994           0
     53481 TIP3     14522    TIP3     H1       HT       0.417000       1.00800           0
     53482 TIP3     14522    TIP3     H2       HT       0.417000       1.00800           0
     53483 TIP3     14523    TIP3     OH2      OT      -0.834000       15.9994           0
     53484 TIP3     14523    TIP3     H1       HT       0.417000       1.00800           0
     53485 TIP3     14523    TIP3     H2       HT       0.417000       1.00800           0
     53486 TIP3     14524    TIP3     OH2      OT      -0.834000       15.9994           0
     53487 TIP3     14524    TIP3     H1       HT       0.417000       1.00800           0
     53488 TIP3     14524    TIP3     H2       HT       0.417000       1.00800           0
     53489 TIP3     14525    TIP3     OH2      OT      -0.834000       15.9994           0
     53490 TIP3     14525    TIP3     H1       HT       0.417000       1.00800           0
     53491 TIP3     14525    TIP3     H2       HT       0.417000       1.00800           0
     53492 TIP3     14526    TIP3     OH2      OT      -0.834000       15.9994           0
     53493 TIP3     14526    TIP3     H1       HT       0.417000       1.00800           0
     53494 TIP3     14526    TIP3     H2       HT       0.417000       1.00800           0
     53495 TIP3     14527    TIP3     OH2      OT      -0.834000       15.9994           0
     53496 TIP3     14527    TIP3     H1       HT       0.417000       1.00800           0
     53497 TIP3     14527    TIP3     H2       HT       0.417000       1.00800           0
     53498 TIP3     14528    TIP3     OH2      OT      -0.834000       15.9994           0
     53499 TIP3     14528    TIP3     H1       HT       0.417000       1.00800           0
     53500 TIP3     14528    TIP3     H2       HT       0.417000       1.00800           0
     53501 TIP3     14529    TIP3     OH2      OT      -0.834000       15.9994           0
     53502 TIP3     14529    TIP3     H1       HT       0.417000       1.00800           0
     53503 TIP3     14529    TIP3     H2       HT       0.417000       1.00800           0
     53504 TIP3     14530    TIP3     OH2      OT      -0.834000       15.9994           0
     53505 TIP3     14530    TIP3     H1       HT       0.417000       1.00800           0
     53506 TIP3     14530    TIP3     H2       HT       0.417000       1.00800           0
     53507 TIP3     14531    TIP3     OH2      OT      -0.834000       15.9994           0
     53508 TIP3     14531    TIP3     H1       HT       0.417000       1.00800           0
     53509 TIP3     14531    TIP3     H2       HT       0.417000       1.00800           0
     53510 TIP3     14532    TIP3     OH2      OT      -0.834000       15.9994           0
     53511 TIP3     14532    TIP3     H1       HT       0.417000       1.00800           0
     53512 TIP3     14532    TIP3     H2       HT       0.417000       1.00800           0
     53513 TIP3     14533    TIP3     OH2      OT      -0.834000       15.9994           0
     53514 TIP3     14533    TIP3     H1       HT       0.417000       1.00800           0
     53515 TIP3     14533    TIP3     H2       HT       0.417000       1.00800           0
     53516 TIP3     14534    TIP3     OH2      OT      -0.834000       15.9994           0
     53517 TIP3     14534    TIP3     H1       HT       0.417000       1.00800           0
     53518 TIP3     14534    TIP3     H2       HT       0.417000       1.00800           0
     53519 TIP3     14535    TIP3     OH2      OT      -0.834000       15.9994           0
     53520 TIP3     14535    TIP3     H1       HT       0.417000       1.00800           0
     53521 TIP3     14535    TIP3     H2       HT       0.417000       1.00800           0
     53522 TIP3     14536    TIP3     OH2      OT      -0.834000       15.9994           0
     53523 TIP3     14536    TIP3     H1       HT       0.417000       1.00800           0
     53524 TIP3     14536    TIP3     H2       HT       0.417000       1.00800           0
     53525 TIP3     14537    TIP3     OH2      OT      -0.834000       15.9994           0
     53526 TIP3     14537    TIP3     H1       HT       0.417000       1.00800           0
     53527 TIP3     14537    TIP3     H2       HT       0.417000       1.00800           0
     53528 TIP3     14538    TIP3     OH2      OT      -0.834000       15.9994           0
     53529 TIP3     14538    TIP3     H1       HT       0.417000       1.00800           0
     53530 TIP3     14538    TIP3     H2       HT       0.417000       1.00800           0
     53531 TIP3     14539    TIP3     OH2      OT      -0.834000       15.9994           0
     53532 TIP3     14539    TIP3     H1       HT       0.417000       1.00800           0
     53533 TIP3     14539    TIP3     H2       HT       0.417000       1.00800           0
     53534 TIP3     14540    TIP3     OH2      OT      -0.834000       15.9994           0
     53535 TIP3     14540    TIP3     H1       HT       0.417000       1.00800           0
     53536 TIP3     14540    TIP3     H2       HT       0.417000       1.00800           0
     53537 TIP3     14541    TIP3     OH2      OT      -0.834000       15.9994           0
     53538 TIP3     14541    TIP3     H1       HT       0.417000       1.00800           0
     53539 TIP3     14541    TIP3     H2       HT       0.417000       1.00800           0
     53540 TIP3     14542    TIP3     OH2      OT      -0.834000       15.9994           0
     53541 TIP3     14542    TIP3     H1       HT       0.417000       1.00800           0
     53542 TIP3     14542    TIP3     H2       HT       0.417000       1.00800           0
     53543 TIP3     14543    TIP3     OH2      OT      -0.834000       15.9994           0
     53544 TIP3     14543    TIP3     H1       HT       0.417000       1.00800           0
     53545 TIP3     14543    TIP3     H2       HT       0.417000       1.00800           0
     53546 TIP3     14544    TIP3     OH2      OT      -0.834000       15.9994           0
     53547 TIP3     14544    TIP3     H1       HT       0.417000       1.00800           0
     53548 TIP3     14544    TIP3     H2       HT       0.417000       1.00800           0
     53549 TIP3     14545    TIP3     OH2      OT      -0.834000       15.9994           0
     53550 TIP3     14545    TIP3     H1       HT       0.417000       1.00800           0
     53551 TIP3     14545    TIP3     H2       HT       0.417000       1.00800           0
     53552 TIP3     14546    TIP3     OH2      OT      -0.834000       15.9994           0
     53553 TIP3     14546    TIP3     H1       HT       0.417000       1.00800           0
     53554 TIP3     14546    TIP3     H2       HT       0.417000       1.00800           0
     53555 TIP3     14547    TIP3     OH2      OT      -0.834000       15.9994           0
     53556 TIP3     14547    TIP3     H1       HT       0.417000       1.00800           0
     53557 TIP3     14547    TIP3     H2       HT       0.417000       1.00800           0
     53558 TIP3     14548    TIP3     OH2      OT      -0.834000       15.9994           0
     53559 TIP3     14548    TIP3     H1       HT       0.417000       1.00800           0
     53560 TIP3     14548    TIP3     H2       HT       0.417000       1.00800           0
     53561 TIP3     14549    TIP3     OH2      OT      -0.834000       15.9994           0
     53562 TIP3     14549    TIP3     H1       HT       0.417000       1.00800           0
     53563 TIP3     14549    TIP3     H2       HT       0.417000       1.00800           0
     53564 TIP3     14550    TIP3     OH2      OT      -0.834000       15.9994           0
     53565 TIP3     14550    TIP3     H1       HT       0.417000       1.00800           0
     53566 TIP3     14550    TIP3     H2       HT       0.417000       1.00800           0
     53567 TIP3     14551    TIP3     OH2      OT      -0.834000       15.9994           0
     53568 TIP3     14551    TIP3     H1       HT       0.417000       1.00800           0
     53569 TIP3     14551    TIP3     H2       HT       0.417000       1.00800           0
     53570 TIP3     14552    TIP3     OH2      OT      -0.834000       15.9994           0
     53571 TIP3     14552    TIP3     H1       HT       0.417000       1.00800           0
     53572 TIP3     14552    TIP3     H2       HT       0.417000       1.00800           0
     53573 TIP3     14553    TIP3     OH2      OT      -0.834000       15.9994           0
     53574 TIP3     14553    TIP3     H1       HT       0.417000       1.00800           0
     53575 TIP3     14553    TIP3     H2       HT       0.417000       1.00800           0
     53576 TIP3     14554    TIP3     OH2      OT      -0.834000       15.9994           0
     53577 TIP3     14554    TIP3     H1       HT       0.417000       1.00800           0
     53578 TIP3     14554    TIP3     H2       HT       0.417000       1.00800           0
     53579 TIP3     14555    TIP3     OH2      OT      -0.834000       15.9994           0
     53580 TIP3     14555    TIP3     H1       HT       0.417000       1.00800           0
     53581 TIP3     14555    TIP3     H2       HT       0.417000       1.00800           0
     53582 TIP3     14556    TIP3     OH2      OT      -0.834000       15.9994           0
     53583 TIP3     14556    TIP3     H1       HT       0.417000       1.00800           0
     53584 TIP3     14556    TIP3     H2       HT       0.417000       1.00800           0
     53585 TIP3     14557    TIP3     OH2      OT      -0.834000       15.9994           0
     53586 TIP3     14557    TIP3     H1       HT       0.417000       1.00800           0
     53587 TIP3     14557    TIP3     H2       HT       0.417000       1.00800           0
     53588 TIP3     14558    TIP3     OH2      OT      -0.834000       15.9994           0
     53589 TIP3     14558    TIP3     H1       HT       0.417000       1.00800           0
     53590 TIP3     14558    TIP3     H2       HT       0.417000       1.00800           0
     53591 TIP3     14559    TIP3     OH2      OT      -0.834000       15.9994           0
     53592 TIP3     14559    TIP3     H1       HT       0.417000       1.00800           0
     53593 TIP3     14559    TIP3     H2       HT       0.417000       1.00800           0
     53594 TIP3     14560    TIP3     OH2      OT      -0.834000       15.9994           0
     53595 TIP3     14560    TIP3     H1       HT       0.417000       1.00800           0
     53596 TIP3     14560    TIP3     H2       HT       0.417000       1.00800           0
     53597 TIP3     14561    TIP3     OH2      OT      -0.834000       15.9994           0
     53598 TIP3     14561    TIP3     H1       HT       0.417000       1.00800           0
     53599 TIP3     14561    TIP3     H2       HT       0.417000       1.00800           0
     53600 TIP3     14562    TIP3     OH2      OT      -0.834000       15.9994           0
     53601 TIP3     14562    TIP3     H1       HT       0.417000       1.00800           0
     53602 TIP3     14562    TIP3     H2       HT       0.417000       1.00800           0
     53603 TIP3     14563    TIP3     OH2      OT      -0.834000       15.9994           0
     53604 TIP3     14563    TIP3     H1       HT       0.417000       1.00800           0
     53605 TIP3     14563    TIP3     H2       HT       0.417000       1.00800           0
     53606 TIP3     14564    TIP3     OH2      OT      -0.834000       15.9994           0
     53607 TIP3     14564    TIP3     H1       HT       0.417000       1.00800           0
     53608 TIP3     14564    TIP3     H2       HT       0.417000       1.00800           0
     53609 TIP3     14565    TIP3     OH2      OT      -0.834000       15.9994           0
     53610 TIP3     14565    TIP3     H1       HT       0.417000       1.00800           0
     53611 TIP3     14565    TIP3     H2       HT       0.417000       1.00800           0
     53612 TIP3     14566    TIP3     OH2      OT      -0.834000       15.9994           0
     53613 TIP3     14566    TIP3     H1       HT       0.417000       1.00800           0
     53614 TIP3     14566    TIP3     H2       HT       0.417000       1.00800           0
     53615 TIP3     14567    TIP3     OH2      OT      -0.834000       15.9994           0
     53616 TIP3     14567    TIP3     H1       HT       0.417000       1.00800           0
     53617 TIP3     14567    TIP3     H2       HT       0.417000       1.00800           0
     53618 TIP3     14568    TIP3     OH2      OT      -0.834000       15.9994           0
     53619 TIP3     14568    TIP3     H1       HT       0.417000       1.00800           0
     53620 TIP3     14568    TIP3     H2       HT       0.417000       1.00800           0
     53621 TIP3     14569    TIP3     OH2      OT      -0.834000       15.9994           0
     53622 TIP3     14569    TIP3     H1       HT       0.417000       1.00800           0
     53623 TIP3     14569    TIP3     H2       HT       0.417000       1.00800           0
     53624 TIP3     14570    TIP3     OH2      OT      -0.834000       15.9994           0
     53625 TIP3     14570    TIP3     H1       HT       0.417000       1.00800           0
     53626 TIP3     14570    TIP3     H2       HT       0.417000       1.00800           0
     53627 TIP3     14571    TIP3     OH2      OT      -0.834000       15.9994           0
     53628 TIP3     14571    TIP3     H1       HT       0.417000       1.00800           0
     53629 TIP3     14571    TIP3     H2       HT       0.417000       1.00800           0
     53630 TIP3     14572    TIP3     OH2      OT      -0.834000       15.9994           0
     53631 TIP3     14572    TIP3     H1       HT       0.417000       1.00800           0
     53632 TIP3     14572    TIP3     H2       HT       0.417000       1.00800           0
     53633 TIP3     14573    TIP3     OH2      OT      -0.834000       15.9994           0
     53634 TIP3     14573    TIP3     H1       HT       0.417000       1.00800           0
     53635 TIP3     14573    TIP3     H2       HT       0.417000       1.00800           0
     53636 TIP3     14574    TIP3     OH2      OT      -0.834000       15.9994           0
     53637 TIP3     14574    TIP3     H1       HT       0.417000       1.00800           0
     53638 TIP3     14574    TIP3     H2       HT       0.417000       1.00800           0
     53639 TIP3     14575    TIP3     OH2      OT      -0.834000       15.9994           0
     53640 TIP3     14575    TIP3     H1       HT       0.417000       1.00800           0
     53641 TIP3     14575    TIP3     H2       HT       0.417000       1.00800           0
     53642 TIP3     14576    TIP3     OH2      OT      -0.834000       15.9994           0
     53643 TIP3     14576    TIP3     H1       HT       0.417000       1.00800           0
     53644 TIP3     14576    TIP3     H2       HT       0.417000       1.00800           0
     53645 TIP3     14577    TIP3     OH2      OT      -0.834000       15.9994           0
     53646 TIP3     14577    TIP3     H1       HT       0.417000       1.00800           0
     53647 TIP3     14577    TIP3     H2       HT       0.417000       1.00800           0
     53648 TIP3     14578    TIP3     OH2      OT      -0.834000       15.9994           0
     53649 TIP3     14578    TIP3     H1       HT       0.417000       1.00800           0
     53650 TIP3     14578    TIP3     H2       HT       0.417000       1.00800           0
     53651 TIP3     14579    TIP3     OH2      OT      -0.834000       15.9994           0
     53652 TIP3     14579    TIP3     H1       HT       0.417000       1.00800           0
     53653 TIP3     14579    TIP3     H2       HT       0.417000       1.00800           0
     53654 TIP3     14580    TIP3     OH2      OT      -0.834000       15.9994           0
     53655 TIP3     14580    TIP3     H1       HT       0.417000       1.00800           0
     53656 TIP3     14580    TIP3     H2       HT       0.417000       1.00800           0
     53657 TIP3     14581    TIP3     OH2      OT      -0.834000       15.9994           0
     53658 TIP3     14581    TIP3     H1       HT       0.417000       1.00800           0
     53659 TIP3     14581    TIP3     H2       HT       0.417000       1.00800           0
     53660 TIP3     14582    TIP3     OH2      OT      -0.834000       15.9994           0
     53661 TIP3     14582    TIP3     H1       HT       0.417000       1.00800           0
     53662 TIP3     14582    TIP3     H2       HT       0.417000       1.00800           0
     53663 TIP3     14583    TIP3     OH2      OT      -0.834000       15.9994           0
     53664 TIP3     14583    TIP3     H1       HT       0.417000       1.00800           0
     53665 TIP3     14583    TIP3     H2       HT       0.417000       1.00800           0
     53666 TIP3     14584    TIP3     OH2      OT      -0.834000       15.9994           0
     53667 TIP3     14584    TIP3     H1       HT       0.417000       1.00800           0
     53668 TIP3     14584    TIP3     H2       HT       0.417000       1.00800           0
     53669 TIP3     14585    TIP3     OH2      OT      -0.834000       15.9994           0
     53670 TIP3     14585    TIP3     H1       HT       0.417000       1.00800           0
     53671 TIP3     14585    TIP3     H2       HT       0.417000       1.00800           0
     53672 TIP3     14586    TIP3     OH2      OT      -0.834000       15.9994           0
     53673 TIP3     14586    TIP3     H1       HT       0.417000       1.00800           0
     53674 TIP3     14586    TIP3     H2       HT       0.417000       1.00800           0
     53675 TIP3     14587    TIP3     OH2      OT      -0.834000       15.9994           0
     53676 TIP3     14587    TIP3     H1       HT       0.417000       1.00800           0
     53677 TIP3     14587    TIP3     H2       HT       0.417000       1.00800           0
     53678 TIP3     14588    TIP3     OH2      OT      -0.834000       15.9994           0
     53679 TIP3     14588    TIP3     H1       HT       0.417000       1.00800           0
     53680 TIP3     14588    TIP3     H2       HT       0.417000       1.00800           0
     53681 TIP3     14589    TIP3     OH2      OT      -0.834000       15.9994           0
     53682 TIP3     14589    TIP3     H1       HT       0.417000       1.00800           0
     53683 TIP3     14589    TIP3     H2       HT       0.417000       1.00800           0
     53684 TIP3     14590    TIP3     OH2      OT      -0.834000       15.9994           0
     53685 TIP3     14590    TIP3     H1       HT       0.417000       1.00800           0
     53686 TIP3     14590    TIP3     H2       HT       0.417000       1.00800           0
     53687 TIP3     14591    TIP3     OH2      OT      -0.834000       15.9994           0
     53688 TIP3     14591    TIP3     H1       HT       0.417000       1.00800           0
     53689 TIP3     14591    TIP3     H2       HT       0.417000       1.00800           0
     53690 TIP3     14592    TIP3     OH2      OT      -0.834000       15.9994           0
     53691 TIP3     14592    TIP3     H1       HT       0.417000       1.00800           0
     53692 TIP3     14592    TIP3     H2       HT       0.417000       1.00800           0
     53693 TIP3     14593    TIP3     OH2      OT      -0.834000       15.9994           0
     53694 TIP3     14593    TIP3     H1       HT       0.417000       1.00800           0
     53695 TIP3     14593    TIP3     H2       HT       0.417000       1.00800           0
     53696 TIP3     14594    TIP3     OH2      OT      -0.834000       15.9994           0
     53697 TIP3     14594    TIP3     H1       HT       0.417000       1.00800           0
     53698 TIP3     14594    TIP3     H2       HT       0.417000       1.00800           0
     53699 TIP3     14595    TIP3     OH2      OT      -0.834000       15.9994           0
     53700 TIP3     14595    TIP3     H1       HT       0.417000       1.00800           0
     53701 TIP3     14595    TIP3     H2       HT       0.417000       1.00800           0
     53702 TIP3     14596    TIP3     OH2      OT      -0.834000       15.9994           0
     53703 TIP3     14596    TIP3     H1       HT       0.417000       1.00800           0
     53704 TIP3     14596    TIP3     H2       HT       0.417000       1.00800           0
     53705 TIP3     14597    TIP3     OH2      OT      -0.834000       15.9994           0
     53706 TIP3     14597    TIP3     H1       HT       0.417000       1.00800           0
     53707 TIP3     14597    TIP3     H2       HT       0.417000       1.00800           0
     53708 TIP3     14598    TIP3     OH2      OT      -0.834000       15.9994           0
     53709 TIP3     14598    TIP3     H1       HT       0.417000       1.00800           0
     53710 TIP3     14598    TIP3     H2       HT       0.417000       1.00800           0
     53711 TIP3     14599    TIP3     OH2      OT      -0.834000       15.9994           0
     53712 TIP3     14599    TIP3     H1       HT       0.417000       1.00800           0
     53713 TIP3     14599    TIP3     H2       HT       0.417000       1.00800           0
     53714 TIP3     14600    TIP3     OH2      OT      -0.834000       15.9994           0
     53715 TIP3     14600    TIP3     H1       HT       0.417000       1.00800           0
     53716 TIP3     14600    TIP3     H2       HT       0.417000       1.00800           0
     53717 TIP3     14601    TIP3     OH2      OT      -0.834000       15.9994           0
     53718 TIP3     14601    TIP3     H1       HT       0.417000       1.00800           0
     53719 TIP3     14601    TIP3     H2       HT       0.417000       1.00800           0
     53720 TIP3     14602    TIP3     OH2      OT      -0.834000       15.9994           0
     53721 TIP3     14602    TIP3     H1       HT       0.417000       1.00800           0
     53722 TIP3     14602    TIP3     H2       HT       0.417000       1.00800           0
     53723 TIP3     14603    TIP3     OH2      OT      -0.834000       15.9994           0
     53724 TIP3     14603    TIP3     H1       HT       0.417000       1.00800           0
     53725 TIP3     14603    TIP3     H2       HT       0.417000       1.00800           0
     53726 TIP3     14604    TIP3     OH2      OT      -0.834000       15.9994           0
     53727 TIP3     14604    TIP3     H1       HT       0.417000       1.00800           0
     53728 TIP3     14604    TIP3     H2       HT       0.417000       1.00800           0
     53729 TIP3     14605    TIP3     OH2      OT      -0.834000       15.9994           0
     53730 TIP3     14605    TIP3     H1       HT       0.417000       1.00800           0
     53731 TIP3     14605    TIP3     H2       HT       0.417000       1.00800           0
     53732 TIP3     14606    TIP3     OH2      OT      -0.834000       15.9994           0
     53733 TIP3     14606    TIP3     H1       HT       0.417000       1.00800           0
     53734 TIP3     14606    TIP3     H2       HT       0.417000       1.00800           0
     53735 TIP3     14607    TIP3     OH2      OT      -0.834000       15.9994           0
     53736 TIP3     14607    TIP3     H1       HT       0.417000       1.00800           0
     53737 TIP3     14607    TIP3     H2       HT       0.417000       1.00800           0
     53738 TIP3     14608    TIP3     OH2      OT      -0.834000       15.9994           0
     53739 TIP3     14608    TIP3     H1       HT       0.417000       1.00800           0
     53740 TIP3     14608    TIP3     H2       HT       0.417000       1.00800           0
     53741 TIP3     14609    TIP3     OH2      OT      -0.834000       15.9994           0
     53742 TIP3     14609    TIP3     H1       HT       0.417000       1.00800           0
     53743 TIP3     14609    TIP3     H2       HT       0.417000       1.00800           0
     53744 TIP3     14610    TIP3     OH2      OT      -0.834000       15.9994           0
     53745 TIP3     14610    TIP3     H1       HT       0.417000       1.00800           0
     53746 TIP3     14610    TIP3     H2       HT       0.417000       1.00800           0
     53747 TIP3     14611    TIP3     OH2      OT      -0.834000       15.9994           0
     53748 TIP3     14611    TIP3     H1       HT       0.417000       1.00800           0
     53749 TIP3     14611    TIP3     H2       HT       0.417000       1.00800           0
     53750 TIP3     14612    TIP3     OH2      OT      -0.834000       15.9994           0
     53751 TIP3     14612    TIP3     H1       HT       0.417000       1.00800           0
     53752 TIP3     14612    TIP3     H2       HT       0.417000       1.00800           0
     53753 TIP3     14613    TIP3     OH2      OT      -0.834000       15.9994           0
     53754 TIP3     14613    TIP3     H1       HT       0.417000       1.00800           0
     53755 TIP3     14613    TIP3     H2       HT       0.417000       1.00800           0
     53756 TIP3     14614    TIP3     OH2      OT      -0.834000       15.9994           0
     53757 TIP3     14614    TIP3     H1       HT       0.417000       1.00800           0
     53758 TIP3     14614    TIP3     H2       HT       0.417000       1.00800           0
     53759 TIP3     14615    TIP3     OH2      OT      -0.834000       15.9994           0
     53760 TIP3     14615    TIP3     H1       HT       0.417000       1.00800           0
     53761 TIP3     14615    TIP3     H2       HT       0.417000       1.00800           0
     53762 TIP3     14616    TIP3     OH2      OT      -0.834000       15.9994           0
     53763 TIP3     14616    TIP3     H1       HT       0.417000       1.00800           0
     53764 TIP3     14616    TIP3     H2       HT       0.417000       1.00800           0
     53765 TIP3     14617    TIP3     OH2      OT      -0.834000       15.9994           0
     53766 TIP3     14617    TIP3     H1       HT       0.417000       1.00800           0
     53767 TIP3     14617    TIP3     H2       HT       0.417000       1.00800           0
     53768 TIP3     14618    TIP3     OH2      OT      -0.834000       15.9994           0
     53769 TIP3     14618    TIP3     H1       HT       0.417000       1.00800           0
     53770 TIP3     14618    TIP3     H2       HT       0.417000       1.00800           0
     53771 TIP3     14619    TIP3     OH2      OT      -0.834000       15.9994           0
     53772 TIP3     14619    TIP3     H1       HT       0.417000       1.00800           0
     53773 TIP3     14619    TIP3     H2       HT       0.417000       1.00800           0
     53774 TIP3     14620    TIP3     OH2      OT      -0.834000       15.9994           0
     53775 TIP3     14620    TIP3     H1       HT       0.417000       1.00800           0
     53776 TIP3     14620    TIP3     H2       HT       0.417000       1.00800           0
     53777 TIP3     14621    TIP3     OH2      OT      -0.834000       15.9994           0
     53778 TIP3     14621    TIP3     H1       HT       0.417000       1.00800           0
     53779 TIP3     14621    TIP3     H2       HT       0.417000       1.00800           0
     53780 TIP3     14622    TIP3     OH2      OT      -0.834000       15.9994           0
     53781 TIP3     14622    TIP3     H1       HT       0.417000       1.00800           0
     53782 TIP3     14622    TIP3     H2       HT       0.417000       1.00800           0
     53783 TIP3     14623    TIP3     OH2      OT      -0.834000       15.9994           0
     53784 TIP3     14623    TIP3     H1       HT       0.417000       1.00800           0
     53785 TIP3     14623    TIP3     H2       HT       0.417000       1.00800           0
     53786 TIP3     14624    TIP3     OH2      OT      -0.834000       15.9994           0
     53787 TIP3     14624    TIP3     H1       HT       0.417000       1.00800           0
     53788 TIP3     14624    TIP3     H2       HT       0.417000       1.00800           0
     53789 TIP3     14625    TIP3     OH2      OT      -0.834000       15.9994           0
     53790 TIP3     14625    TIP3     H1       HT       0.417000       1.00800           0
     53791 TIP3     14625    TIP3     H2       HT       0.417000       1.00800           0
     53792 TIP3     14626    TIP3     OH2      OT      -0.834000       15.9994           0
     53793 TIP3     14626    TIP3     H1       HT       0.417000       1.00800           0
     53794 TIP3     14626    TIP3     H2       HT       0.417000       1.00800           0
     53795 TIP3     14627    TIP3     OH2      OT      -0.834000       15.9994           0
     53796 TIP3     14627    TIP3     H1       HT       0.417000       1.00800           0
     53797 TIP3     14627    TIP3     H2       HT       0.417000       1.00800           0
     53798 TIP3     14628    TIP3     OH2      OT      -0.834000       15.9994           0
     53799 TIP3     14628    TIP3     H1       HT       0.417000       1.00800           0
     53800 TIP3     14628    TIP3     H2       HT       0.417000       1.00800           0
     53801 TIP3     14629    TIP3     OH2      OT      -0.834000       15.9994           0
     53802 TIP3     14629    TIP3     H1       HT       0.417000       1.00800           0
     53803 TIP3     14629    TIP3     H2       HT       0.417000       1.00800           0
     53804 TIP3     14630    TIP3     OH2      OT      -0.834000       15.9994           0
     53805 TIP3     14630    TIP3     H1       HT       0.417000       1.00800           0
     53806 TIP3     14630    TIP3     H2       HT       0.417000       1.00800           0
     53807 TIP3     14631    TIP3     OH2      OT      -0.834000       15.9994           0
     53808 TIP3     14631    TIP3     H1       HT       0.417000       1.00800           0
     53809 TIP3     14631    TIP3     H2       HT       0.417000       1.00800           0
     53810 TIP3     14632    TIP3     OH2      OT      -0.834000       15.9994           0
     53811 TIP3     14632    TIP3     H1       HT       0.417000       1.00800           0
     53812 TIP3     14632    TIP3     H2       HT       0.417000       1.00800           0
     53813 TIP3     14633    TIP3     OH2      OT      -0.834000       15.9994           0
     53814 TIP3     14633    TIP3     H1       HT       0.417000       1.00800           0
     53815 TIP3     14633    TIP3     H2       HT       0.417000       1.00800           0
     53816 TIP3     14634    TIP3     OH2      OT      -0.834000       15.9994           0
     53817 TIP3     14634    TIP3     H1       HT       0.417000       1.00800           0
     53818 TIP3     14634    TIP3     H2       HT       0.417000       1.00800           0
     53819 TIP3     14635    TIP3     OH2      OT      -0.834000       15.9994           0
     53820 TIP3     14635    TIP3     H1       HT       0.417000       1.00800           0
     53821 TIP3     14635    TIP3     H2       HT       0.417000       1.00800           0
     53822 TIP3     14636    TIP3     OH2      OT      -0.834000       15.9994           0
     53823 TIP3     14636    TIP3     H1       HT       0.417000       1.00800           0
     53824 TIP3     14636    TIP3     H2       HT       0.417000       1.00800           0
     53825 TIP3     14637    TIP3     OH2      OT      -0.834000       15.9994           0
     53826 TIP3     14637    TIP3     H1       HT       0.417000       1.00800           0
     53827 TIP3     14637    TIP3     H2       HT       0.417000       1.00800           0
     53828 TIP3     14638    TIP3     OH2      OT      -0.834000       15.9994           0
     53829 TIP3     14638    TIP3     H1       HT       0.417000       1.00800           0
     53830 TIP3     14638    TIP3     H2       HT       0.417000       1.00800           0
     53831 TIP3     14639    TIP3     OH2      OT      -0.834000       15.9994           0
     53832 TIP3     14639    TIP3     H1       HT       0.417000       1.00800           0
     53833 TIP3     14639    TIP3     H2       HT       0.417000       1.00800           0
     53834 TIP3     14640    TIP3     OH2      OT      -0.834000       15.9994           0
     53835 TIP3     14640    TIP3     H1       HT       0.417000       1.00800           0
     53836 TIP3     14640    TIP3     H2       HT       0.417000       1.00800           0
     53837 TIP3     14641    TIP3     OH2      OT      -0.834000       15.9994           0
     53838 TIP3     14641    TIP3     H1       HT       0.417000       1.00800           0
     53839 TIP3     14641    TIP3     H2       HT       0.417000       1.00800           0
     53840 TIP3     14642    TIP3     OH2      OT      -0.834000       15.9994           0
     53841 TIP3     14642    TIP3     H1       HT       0.417000       1.00800           0
     53842 TIP3     14642    TIP3     H2       HT       0.417000       1.00800           0
     53843 TIP3     14643    TIP3     OH2      OT      -0.834000       15.9994           0
     53844 TIP3     14643    TIP3     H1       HT       0.417000       1.00800           0
     53845 TIP3     14643    TIP3     H2       HT       0.417000       1.00800           0
     53846 TIP3     14644    TIP3     OH2      OT      -0.834000       15.9994           0
     53847 TIP3     14644    TIP3     H1       HT       0.417000       1.00800           0
     53848 TIP3     14644    TIP3     H2       HT       0.417000       1.00800           0
     53849 TIP3     14645    TIP3     OH2      OT      -0.834000       15.9994           0
     53850 TIP3     14645    TIP3     H1       HT       0.417000       1.00800           0
     53851 TIP3     14645    TIP3     H2       HT       0.417000       1.00800           0
     53852 TIP3     14646    TIP3     OH2      OT      -0.834000       15.9994           0
     53853 TIP3     14646    TIP3     H1       HT       0.417000       1.00800           0
     53854 TIP3     14646    TIP3     H2       HT       0.417000       1.00800           0
     53855 TIP3     14647    TIP3     OH2      OT      -0.834000       15.9994           0
     53856 TIP3     14647    TIP3     H1       HT       0.417000       1.00800           0
     53857 TIP3     14647    TIP3     H2       HT       0.417000       1.00800           0
     53858 TIP3     14648    TIP3     OH2      OT      -0.834000       15.9994           0
     53859 TIP3     14648    TIP3     H1       HT       0.417000       1.00800           0
     53860 TIP3     14648    TIP3     H2       HT       0.417000       1.00800           0
     53861 TIP3     14649    TIP3     OH2      OT      -0.834000       15.9994           0
     53862 TIP3     14649    TIP3     H1       HT       0.417000       1.00800           0
     53863 TIP3     14649    TIP3     H2       HT       0.417000       1.00800           0
     53864 TIP3     14650    TIP3     OH2      OT      -0.834000       15.9994           0
     53865 TIP3     14650    TIP3     H1       HT       0.417000       1.00800           0
     53866 TIP3     14650    TIP3     H2       HT       0.417000       1.00800           0
     53867 TIP3     14651    TIP3     OH2      OT      -0.834000       15.9994           0
     53868 TIP3     14651    TIP3     H1       HT       0.417000       1.00800           0
     53869 TIP3     14651    TIP3     H2       HT       0.417000       1.00800           0
     53870 TIP3     14652    TIP3     OH2      OT      -0.834000       15.9994           0
     53871 TIP3     14652    TIP3     H1       HT       0.417000       1.00800           0
     53872 TIP3     14652    TIP3     H2       HT       0.417000       1.00800           0
     53873 TIP3     14653    TIP3     OH2      OT      -0.834000       15.9994           0
     53874 TIP3     14653    TIP3     H1       HT       0.417000       1.00800           0
     53875 TIP3     14653    TIP3     H2       HT       0.417000       1.00800           0
     53876 TIP3     14654    TIP3     OH2      OT      -0.834000       15.9994           0
     53877 TIP3     14654    TIP3     H1       HT       0.417000       1.00800           0
     53878 TIP3     14654    TIP3     H2       HT       0.417000       1.00800           0
     53879 TIP3     14655    TIP3     OH2      OT      -0.834000       15.9994           0
     53880 TIP3     14655    TIP3     H1       HT       0.417000       1.00800           0
     53881 TIP3     14655    TIP3     H2       HT       0.417000       1.00800           0
     53882 TIP3     14656    TIP3     OH2      OT      -0.834000       15.9994           0
     53883 TIP3     14656    TIP3     H1       HT       0.417000       1.00800           0
     53884 TIP3     14656    TIP3     H2       HT       0.417000       1.00800           0
     53885 TIP3     14657    TIP3     OH2      OT      -0.834000       15.9994           0
     53886 TIP3     14657    TIP3     H1       HT       0.417000       1.00800           0
     53887 TIP3     14657    TIP3     H2       HT       0.417000       1.00800           0
     53888 TIP3     14658    TIP3     OH2      OT      -0.834000       15.9994           0
     53889 TIP3     14658    TIP3     H1       HT       0.417000       1.00800           0
     53890 TIP3     14658    TIP3     H2       HT       0.417000       1.00800           0
     53891 TIP3     14659    TIP3     OH2      OT      -0.834000       15.9994           0
     53892 TIP3     14659    TIP3     H1       HT       0.417000       1.00800           0
     53893 TIP3     14659    TIP3     H2       HT       0.417000       1.00800           0
     53894 TIP3     14660    TIP3     OH2      OT      -0.834000       15.9994           0
     53895 TIP3     14660    TIP3     H1       HT       0.417000       1.00800           0
     53896 TIP3     14660    TIP3     H2       HT       0.417000       1.00800           0
     53897 TIP3     14661    TIP3     OH2      OT      -0.834000       15.9994           0
     53898 TIP3     14661    TIP3     H1       HT       0.417000       1.00800           0
     53899 TIP3     14661    TIP3     H2       HT       0.417000       1.00800           0
     53900 TIP3     14662    TIP3     OH2      OT      -0.834000       15.9994           0
     53901 TIP3     14662    TIP3     H1       HT       0.417000       1.00800           0
     53902 TIP3     14662    TIP3     H2       HT       0.417000       1.00800           0
     53903 TIP3     14663    TIP3     OH2      OT      -0.834000       15.9994           0
     53904 TIP3     14663    TIP3     H1       HT       0.417000       1.00800           0
     53905 TIP3     14663    TIP3     H2       HT       0.417000       1.00800           0
     53906 TIP3     14664    TIP3     OH2      OT      -0.834000       15.9994           0
     53907 TIP3     14664    TIP3     H1       HT       0.417000       1.00800           0
     53908 TIP3     14664    TIP3     H2       HT       0.417000       1.00800           0
     53909 TIP3     14665    TIP3     OH2      OT      -0.834000       15.9994           0
     53910 TIP3     14665    TIP3     H1       HT       0.417000       1.00800           0
     53911 TIP3     14665    TIP3     H2       HT       0.417000       1.00800           0
     53912 TIP3     14666    TIP3     OH2      OT      -0.834000       15.9994           0
     53913 TIP3     14666    TIP3     H1       HT       0.417000       1.00800           0
     53914 TIP3     14666    TIP3     H2       HT       0.417000       1.00800           0
     53915 TIP3     14667    TIP3     OH2      OT      -0.834000       15.9994           0
     53916 TIP3     14667    TIP3     H1       HT       0.417000       1.00800           0
     53917 TIP3     14667    TIP3     H2       HT       0.417000       1.00800           0
     53918 TIP3     14668    TIP3     OH2      OT      -0.834000       15.9994           0
     53919 TIP3     14668    TIP3     H1       HT       0.417000       1.00800           0
     53920 TIP3     14668    TIP3     H2       HT       0.417000       1.00800           0
     53921 TIP3     14669    TIP3     OH2      OT      -0.834000       15.9994           0
     53922 TIP3     14669    TIP3     H1       HT       0.417000       1.00800           0
     53923 TIP3     14669    TIP3     H2       HT       0.417000       1.00800           0
     53924 TIP3     14670    TIP3     OH2      OT      -0.834000       15.9994           0
     53925 TIP3     14670    TIP3     H1       HT       0.417000       1.00800           0
     53926 TIP3     14670    TIP3     H2       HT       0.417000       1.00800           0
     53927 TIP3     14671    TIP3     OH2      OT      -0.834000       15.9994           0
     53928 TIP3     14671    TIP3     H1       HT       0.417000       1.00800           0
     53929 TIP3     14671    TIP3     H2       HT       0.417000       1.00800           0
     53930 TIP3     14672    TIP3     OH2      OT      -0.834000       15.9994           0
     53931 TIP3     14672    TIP3     H1       HT       0.417000       1.00800           0
     53932 TIP3     14672    TIP3     H2       HT       0.417000       1.00800           0
     53933 TIP3     14673    TIP3     OH2      OT      -0.834000       15.9994           0
     53934 TIP3     14673    TIP3     H1       HT       0.417000       1.00800           0
     53935 TIP3     14673    TIP3     H2       HT       0.417000       1.00800           0
     53936 TIP3     14674    TIP3     OH2      OT      -0.834000       15.9994           0
     53937 TIP3     14674    TIP3     H1       HT       0.417000       1.00800           0
     53938 TIP3     14674    TIP3     H2       HT       0.417000       1.00800           0
     53939 TIP3     14675    TIP3     OH2      OT      -0.834000       15.9994           0
     53940 TIP3     14675    TIP3     H1       HT       0.417000       1.00800           0
     53941 TIP3     14675    TIP3     H2       HT       0.417000       1.00800           0
     53942 TIP3     14676    TIP3     OH2      OT      -0.834000       15.9994           0
     53943 TIP3     14676    TIP3     H1       HT       0.417000       1.00800           0
     53944 TIP3     14676    TIP3     H2       HT       0.417000       1.00800           0
     53945 TIP3     14677    TIP3     OH2      OT      -0.834000       15.9994           0
     53946 TIP3     14677    TIP3     H1       HT       0.417000       1.00800           0
     53947 TIP3     14677    TIP3     H2       HT       0.417000       1.00800           0
     53948 TIP3     14678    TIP3     OH2      OT      -0.834000       15.9994           0
     53949 TIP3     14678    TIP3     H1       HT       0.417000       1.00800           0
     53950 TIP3     14678    TIP3     H2       HT       0.417000       1.00800           0
     53951 TIP3     14679    TIP3     OH2      OT      -0.834000       15.9994           0
     53952 TIP3     14679    TIP3     H1       HT       0.417000       1.00800           0
     53953 TIP3     14679    TIP3     H2       HT       0.417000       1.00800           0
     53954 TIP3     14680    TIP3     OH2      OT      -0.834000       15.9994           0
     53955 TIP3     14680    TIP3     H1       HT       0.417000       1.00800           0
     53956 TIP3     14680    TIP3     H2       HT       0.417000       1.00800           0
     53957 TIP3     14681    TIP3     OH2      OT      -0.834000       15.9994           0
     53958 TIP3     14681    TIP3     H1       HT       0.417000       1.00800           0
     53959 TIP3     14681    TIP3     H2       HT       0.417000       1.00800           0
     53960 TIP3     14682    TIP3     OH2      OT      -0.834000       15.9994           0
     53961 TIP3     14682    TIP3     H1       HT       0.417000       1.00800           0
     53962 TIP3     14682    TIP3     H2       HT       0.417000       1.00800           0
     53963 TIP3     14683    TIP3     OH2      OT      -0.834000       15.9994           0
     53964 TIP3     14683    TIP3     H1       HT       0.417000       1.00800           0
     53965 TIP3     14683    TIP3     H2       HT       0.417000       1.00800           0
     53966 TIP3     14684    TIP3     OH2      OT      -0.834000       15.9994           0
     53967 TIP3     14684    TIP3     H1       HT       0.417000       1.00800           0
     53968 TIP3     14684    TIP3     H2       HT       0.417000       1.00800           0
     53969 TIP3     14685    TIP3     OH2      OT      -0.834000       15.9994           0
     53970 TIP3     14685    TIP3     H1       HT       0.417000       1.00800           0
     53971 TIP3     14685    TIP3     H2       HT       0.417000       1.00800           0
     53972 TIP3     14686    TIP3     OH2      OT      -0.834000       15.9994           0
     53973 TIP3     14686    TIP3     H1       HT       0.417000       1.00800           0
     53974 TIP3     14686    TIP3     H2       HT       0.417000       1.00800           0
     53975 TIP3     14687    TIP3     OH2      OT      -0.834000       15.9994           0
     53976 TIP3     14687    TIP3     H1       HT       0.417000       1.00800           0
     53977 TIP3     14687    TIP3     H2       HT       0.417000       1.00800           0
     53978 TIP3     14688    TIP3     OH2      OT      -0.834000       15.9994           0
     53979 TIP3     14688    TIP3     H1       HT       0.417000       1.00800           0
     53980 TIP3     14688    TIP3     H2       HT       0.417000       1.00800           0
     53981 TIP3     14689    TIP3     OH2      OT      -0.834000       15.9994           0
     53982 TIP3     14689    TIP3     H1       HT       0.417000       1.00800           0
     53983 TIP3     14689    TIP3     H2       HT       0.417000       1.00800           0
     53984 TIP3     14690    TIP3     OH2      OT      -0.834000       15.9994           0
     53985 TIP3     14690    TIP3     H1       HT       0.417000       1.00800           0
     53986 TIP3     14690    TIP3     H2       HT       0.417000       1.00800           0
     53987 TIP3     14691    TIP3     OH2      OT      -0.834000       15.9994           0
     53988 TIP3     14691    TIP3     H1       HT       0.417000       1.00800           0
     53989 TIP3     14691    TIP3     H2       HT       0.417000       1.00800           0
     53990 TIP3     14692    TIP3     OH2      OT      -0.834000       15.9994           0
     53991 TIP3     14692    TIP3     H1       HT       0.417000       1.00800           0
     53992 TIP3     14692    TIP3     H2       HT       0.417000       1.00800           0
     53993 TIP3     14693    TIP3     OH2      OT      -0.834000       15.9994           0
     53994 TIP3     14693    TIP3     H1       HT       0.417000       1.00800           0
     53995 TIP3     14693    TIP3     H2       HT       0.417000       1.00800           0
     53996 TIP3     14694    TIP3     OH2      OT      -0.834000       15.9994           0
     53997 TIP3     14694    TIP3     H1       HT       0.417000       1.00800           0
     53998 TIP3     14694    TIP3     H2       HT       0.417000       1.00800           0
     53999 TIP3     14695    TIP3     OH2      OT      -0.834000       15.9994           0
     54000 TIP3     14695    TIP3     H1       HT       0.417000       1.00800           0
     54001 TIP3     14695    TIP3     H2       HT       0.417000       1.00800           0
     54002 TIP3     14696    TIP3     OH2      OT      -0.834000       15.9994           0
     54003 TIP3     14696    TIP3     H1       HT       0.417000       1.00800           0
     54004 TIP3     14696    TIP3     H2       HT       0.417000       1.00800           0
     54005 TIP3     14697    TIP3     OH2      OT      -0.834000       15.9994           0
     54006 TIP3     14697    TIP3     H1       HT       0.417000       1.00800           0
     54007 TIP3     14697    TIP3     H2       HT       0.417000       1.00800           0
     54008 TIP3     14698    TIP3     OH2      OT      -0.834000       15.9994           0
     54009 TIP3     14698    TIP3     H1       HT       0.417000       1.00800           0
     54010 TIP3     14698    TIP3     H2       HT       0.417000       1.00800           0
     54011 TIP3     14699    TIP3     OH2      OT      -0.834000       15.9994           0
     54012 TIP3     14699    TIP3     H1       HT       0.417000       1.00800           0
     54013 TIP3     14699    TIP3     H2       HT       0.417000       1.00800           0
     54014 TIP3     14700    TIP3     OH2      OT      -0.834000       15.9994           0
     54015 TIP3     14700    TIP3     H1       HT       0.417000       1.00800           0
     54016 TIP3     14700    TIP3     H2       HT       0.417000       1.00800           0
     54017 TIP3     14701    TIP3     OH2      OT      -0.834000       15.9994           0
     54018 TIP3     14701    TIP3     H1       HT       0.417000       1.00800           0
     54019 TIP3     14701    TIP3     H2       HT       0.417000       1.00800           0
     54020 TIP3     14702    TIP3     OH2      OT      -0.834000       15.9994           0
     54021 TIP3     14702    TIP3     H1       HT       0.417000       1.00800           0
     54022 TIP3     14702    TIP3     H2       HT       0.417000       1.00800           0
     54023 TIP3     14703    TIP3     OH2      OT      -0.834000       15.9994           0
     54024 TIP3     14703    TIP3     H1       HT       0.417000       1.00800           0
     54025 TIP3     14703    TIP3     H2       HT       0.417000       1.00800           0
     54026 TIP3     14704    TIP3     OH2      OT      -0.834000       15.9994           0
     54027 TIP3     14704    TIP3     H1       HT       0.417000       1.00800           0
     54028 TIP3     14704    TIP3     H2       HT       0.417000       1.00800           0
     54029 TIP3     14705    TIP3     OH2      OT      -0.834000       15.9994           0
     54030 TIP3     14705    TIP3     H1       HT       0.417000       1.00800           0
     54031 TIP3     14705    TIP3     H2       HT       0.417000       1.00800           0
     54032 TIP3     14706    TIP3     OH2      OT      -0.834000       15.9994           0
     54033 TIP3     14706    TIP3     H1       HT       0.417000       1.00800           0
     54034 TIP3     14706    TIP3     H2       HT       0.417000       1.00800           0
     54035 TIP3     14707    TIP3     OH2      OT      -0.834000       15.9994           0
     54036 TIP3     14707    TIP3     H1       HT       0.417000       1.00800           0
     54037 TIP3     14707    TIP3     H2       HT       0.417000       1.00800           0
     54038 TIP3     14708    TIP3     OH2      OT      -0.834000       15.9994           0
     54039 TIP3     14708    TIP3     H1       HT       0.417000       1.00800           0
     54040 TIP3     14708    TIP3     H2       HT       0.417000       1.00800           0
     54041 TIP3     14709    TIP3     OH2      OT      -0.834000       15.9994           0
     54042 TIP3     14709    TIP3     H1       HT       0.417000       1.00800           0
     54043 TIP3     14709    TIP3     H2       HT       0.417000       1.00800           0
     54044 TIP3     14710    TIP3     OH2      OT      -0.834000       15.9994           0
     54045 TIP3     14710    TIP3     H1       HT       0.417000       1.00800           0
     54046 TIP3     14710    TIP3     H2       HT       0.417000       1.00800           0
     54047 TIP3     14711    TIP3     OH2      OT      -0.834000       15.9994           0
     54048 TIP3     14711    TIP3     H1       HT       0.417000       1.00800           0
     54049 TIP3     14711    TIP3     H2       HT       0.417000       1.00800           0
     54050 TIP3     14712    TIP3     OH2      OT      -0.834000       15.9994           0
     54051 TIP3     14712    TIP3     H1       HT       0.417000       1.00800           0
     54052 TIP3     14712    TIP3     H2       HT       0.417000       1.00800           0
     54053 TIP3     14713    TIP3     OH2      OT      -0.834000       15.9994           0
     54054 TIP3     14713    TIP3     H1       HT       0.417000       1.00800           0
     54055 TIP3     14713    TIP3     H2       HT       0.417000       1.00800           0
     54056 TIP3     14714    TIP3     OH2      OT      -0.834000       15.9994           0
     54057 TIP3     14714    TIP3     H1       HT       0.417000       1.00800           0
     54058 TIP3     14714    TIP3     H2       HT       0.417000       1.00800           0
     54059 TIP3     14715    TIP3     OH2      OT      -0.834000       15.9994           0
     54060 TIP3     14715    TIP3     H1       HT       0.417000       1.00800           0
     54061 TIP3     14715    TIP3     H2       HT       0.417000       1.00800           0
     54062 TIP3     14716    TIP3     OH2      OT      -0.834000       15.9994           0
     54063 TIP3     14716    TIP3     H1       HT       0.417000       1.00800           0
     54064 TIP3     14716    TIP3     H2       HT       0.417000       1.00800           0
     54065 TIP3     14717    TIP3     OH2      OT      -0.834000       15.9994           0
     54066 TIP3     14717    TIP3     H1       HT       0.417000       1.00800           0
     54067 TIP3     14717    TIP3     H2       HT       0.417000       1.00800           0
     54068 TIP3     14718    TIP3     OH2      OT      -0.834000       15.9994           0
     54069 TIP3     14718    TIP3     H1       HT       0.417000       1.00800           0
     54070 TIP3     14718    TIP3     H2       HT       0.417000       1.00800           0
     54071 TIP3     14719    TIP3     OH2      OT      -0.834000       15.9994           0
     54072 TIP3     14719    TIP3     H1       HT       0.417000       1.00800           0
     54073 TIP3     14719    TIP3     H2       HT       0.417000       1.00800           0
     54074 TIP3     14720    TIP3     OH2      OT      -0.834000       15.9994           0
     54075 TIP3     14720    TIP3     H1       HT       0.417000       1.00800           0
     54076 TIP3     14720    TIP3     H2       HT       0.417000       1.00800           0
     54077 TIP3     14721    TIP3     OH2      OT      -0.834000       15.9994           0
     54078 TIP3     14721    TIP3     H1       HT       0.417000       1.00800           0
     54079 TIP3     14721    TIP3     H2       HT       0.417000       1.00800           0
     54080 TIP3     14722    TIP3     OH2      OT      -0.834000       15.9994           0
     54081 TIP3     14722    TIP3     H1       HT       0.417000       1.00800           0
     54082 TIP3     14722    TIP3     H2       HT       0.417000       1.00800           0
     54083 TIP3     14723    TIP3     OH2      OT      -0.834000       15.9994           0
     54084 TIP3     14723    TIP3     H1       HT       0.417000       1.00800           0
     54085 TIP3     14723    TIP3     H2       HT       0.417000       1.00800           0
     54086 TIP3     14724    TIP3     OH2      OT      -0.834000       15.9994           0
     54087 TIP3     14724    TIP3     H1       HT       0.417000       1.00800           0
     54088 TIP3     14724    TIP3     H2       HT       0.417000       1.00800           0
     54089 TIP3     14725    TIP3     OH2      OT      -0.834000       15.9994           0
     54090 TIP3     14725    TIP3     H1       HT       0.417000       1.00800           0
     54091 TIP3     14725    TIP3     H2       HT       0.417000       1.00800           0
     54092 TIP3     14726    TIP3     OH2      OT      -0.834000       15.9994           0
     54093 TIP3     14726    TIP3     H1       HT       0.417000       1.00800           0
     54094 TIP3     14726    TIP3     H2       HT       0.417000       1.00800           0
     54095 TIP3     14727    TIP3     OH2      OT      -0.834000       15.9994           0
     54096 TIP3     14727    TIP3     H1       HT       0.417000       1.00800           0
     54097 TIP3     14727    TIP3     H2       HT       0.417000       1.00800           0
     54098 TIP3     14728    TIP3     OH2      OT      -0.834000       15.9994           0
     54099 TIP3     14728    TIP3     H1       HT       0.417000       1.00800           0
     54100 TIP3     14728    TIP3     H2       HT       0.417000       1.00800           0
     54101 TIP3     14729    TIP3     OH2      OT      -0.834000       15.9994           0
     54102 TIP3     14729    TIP3     H1       HT       0.417000       1.00800           0
     54103 TIP3     14729    TIP3     H2       HT       0.417000       1.00800           0
     54104 TIP3     14730    TIP3     OH2      OT      -0.834000       15.9994           0
     54105 TIP3     14730    TIP3     H1       HT       0.417000       1.00800           0
     54106 TIP3     14730    TIP3     H2       HT       0.417000       1.00800           0
     54107 TIP3     14731    TIP3     OH2      OT      -0.834000       15.9994           0
     54108 TIP3     14731    TIP3     H1       HT       0.417000       1.00800           0
     54109 TIP3     14731    TIP3     H2       HT       0.417000       1.00800           0
     54110 TIP3     14732    TIP3     OH2      OT      -0.834000       15.9994           0
     54111 TIP3     14732    TIP3     H1       HT       0.417000       1.00800           0
     54112 TIP3     14732    TIP3     H2       HT       0.417000       1.00800           0
     54113 TIP3     14733    TIP3     OH2      OT      -0.834000       15.9994           0
     54114 TIP3     14733    TIP3     H1       HT       0.417000       1.00800           0
     54115 TIP3     14733    TIP3     H2       HT       0.417000       1.00800           0
     54116 TIP3     14734    TIP3     OH2      OT      -0.834000       15.9994           0
     54117 TIP3     14734    TIP3     H1       HT       0.417000       1.00800           0
     54118 TIP3     14734    TIP3     H2       HT       0.417000       1.00800           0
     54119 TIP3     14735    TIP3     OH2      OT      -0.834000       15.9994           0
     54120 TIP3     14735    TIP3     H1       HT       0.417000       1.00800           0
     54121 TIP3     14735    TIP3     H2       HT       0.417000       1.00800           0
     54122 TIP3     14736    TIP3     OH2      OT      -0.834000       15.9994           0
     54123 TIP3     14736    TIP3     H1       HT       0.417000       1.00800           0
     54124 TIP3     14736    TIP3     H2       HT       0.417000       1.00800           0
     54125 TIP3     14737    TIP3     OH2      OT      -0.834000       15.9994           0
     54126 TIP3     14737    TIP3     H1       HT       0.417000       1.00800           0
     54127 TIP3     14737    TIP3     H2       HT       0.417000       1.00800           0
     54128 TIP3     14738    TIP3     OH2      OT      -0.834000       15.9994           0
     54129 TIP3     14738    TIP3     H1       HT       0.417000       1.00800           0
     54130 TIP3     14738    TIP3     H2       HT       0.417000       1.00800           0
     54131 TIP3     14739    TIP3     OH2      OT      -0.834000       15.9994           0
     54132 TIP3     14739    TIP3     H1       HT       0.417000       1.00800           0
     54133 TIP3     14739    TIP3     H2       HT       0.417000       1.00800           0
     54134 TIP3     14740    TIP3     OH2      OT      -0.834000       15.9994           0
     54135 TIP3     14740    TIP3     H1       HT       0.417000       1.00800           0
     54136 TIP3     14740    TIP3     H2       HT       0.417000       1.00800           0
     54137 TIP3     14741    TIP3     OH2      OT      -0.834000       15.9994           0
     54138 TIP3     14741    TIP3     H1       HT       0.417000       1.00800           0
     54139 TIP3     14741    TIP3     H2       HT       0.417000       1.00800           0
     54140 TIP3     14742    TIP3     OH2      OT      -0.834000       15.9994           0
     54141 TIP3     14742    TIP3     H1       HT       0.417000       1.00800           0
     54142 TIP3     14742    TIP3     H2       HT       0.417000       1.00800           0
     54143 TIP3     14743    TIP3     OH2      OT      -0.834000       15.9994           0
     54144 TIP3     14743    TIP3     H1       HT       0.417000       1.00800           0
     54145 TIP3     14743    TIP3     H2       HT       0.417000       1.00800           0
     54146 TIP3     14744    TIP3     OH2      OT      -0.834000       15.9994           0
     54147 TIP3     14744    TIP3     H1       HT       0.417000       1.00800           0
     54148 TIP3     14744    TIP3     H2       HT       0.417000       1.00800           0
     54149 TIP3     14745    TIP3     OH2      OT      -0.834000       15.9994           0
     54150 TIP3     14745    TIP3     H1       HT       0.417000       1.00800           0
     54151 TIP3     14745    TIP3     H2       HT       0.417000       1.00800           0
     54152 TIP3     14746    TIP3     OH2      OT      -0.834000       15.9994           0
     54153 TIP3     14746    TIP3     H1       HT       0.417000       1.00800           0
     54154 TIP3     14746    TIP3     H2       HT       0.417000       1.00800           0
     54155 TIP3     14747    TIP3     OH2      OT      -0.834000       15.9994           0
     54156 TIP3     14747    TIP3     H1       HT       0.417000       1.00800           0
     54157 TIP3     14747    TIP3     H2       HT       0.417000       1.00800           0
     54158 TIP3     14748    TIP3     OH2      OT      -0.834000       15.9994           0
     54159 TIP3     14748    TIP3     H1       HT       0.417000       1.00800           0
     54160 TIP3     14748    TIP3     H2       HT       0.417000       1.00800           0
     54161 TIP3     14749    TIP3     OH2      OT      -0.834000       15.9994           0
     54162 TIP3     14749    TIP3     H1       HT       0.417000       1.00800           0
     54163 TIP3     14749    TIP3     H2       HT       0.417000       1.00800           0
     54164 TIP3     14750    TIP3     OH2      OT      -0.834000       15.9994           0
     54165 TIP3     14750    TIP3     H1       HT       0.417000       1.00800           0
     54166 TIP3     14750    TIP3     H2       HT       0.417000       1.00800           0
     54167 TIP3     14751    TIP3     OH2      OT      -0.834000       15.9994           0
     54168 TIP3     14751    TIP3     H1       HT       0.417000       1.00800           0
     54169 TIP3     14751    TIP3     H2       HT       0.417000       1.00800           0
     54170 TIP3     14752    TIP3     OH2      OT      -0.834000       15.9994           0
     54171 TIP3     14752    TIP3     H1       HT       0.417000       1.00800           0
     54172 TIP3     14752    TIP3     H2       HT       0.417000       1.00800           0
     54173 TIP3     14753    TIP3     OH2      OT      -0.834000       15.9994           0
     54174 TIP3     14753    TIP3     H1       HT       0.417000       1.00800           0
     54175 TIP3     14753    TIP3     H2       HT       0.417000       1.00800           0
     54176 TIP3     14754    TIP3     OH2      OT      -0.834000       15.9994           0
     54177 TIP3     14754    TIP3     H1       HT       0.417000       1.00800           0
     54178 TIP3     14754    TIP3     H2       HT       0.417000       1.00800           0
     54179 TIP3     14755    TIP3     OH2      OT      -0.834000       15.9994           0
     54180 TIP3     14755    TIP3     H1       HT       0.417000       1.00800           0
     54181 TIP3     14755    TIP3     H2       HT       0.417000       1.00800           0
     54182 TIP3     14756    TIP3     OH2      OT      -0.834000       15.9994           0
     54183 TIP3     14756    TIP3     H1       HT       0.417000       1.00800           0
     54184 TIP3     14756    TIP3     H2       HT       0.417000       1.00800           0
     54185 TIP3     14757    TIP3     OH2      OT      -0.834000       15.9994           0
     54186 TIP3     14757    TIP3     H1       HT       0.417000       1.00800           0
     54187 TIP3     14757    TIP3     H2       HT       0.417000       1.00800           0
     54188 TIP3     14758    TIP3     OH2      OT      -0.834000       15.9994           0
     54189 TIP3     14758    TIP3     H1       HT       0.417000       1.00800           0
     54190 TIP3     14758    TIP3     H2       HT       0.417000       1.00800           0
     54191 TIP3     14759    TIP3     OH2      OT      -0.834000       15.9994           0
     54192 TIP3     14759    TIP3     H1       HT       0.417000       1.00800           0
     54193 TIP3     14759    TIP3     H2       HT       0.417000       1.00800           0
     54194 TIP3     14760    TIP3     OH2      OT      -0.834000       15.9994           0
     54195 TIP3     14760    TIP3     H1       HT       0.417000       1.00800           0
     54196 TIP3     14760    TIP3     H2       HT       0.417000       1.00800           0
     54197 TIP3     14761    TIP3     OH2      OT      -0.834000       15.9994           0
     54198 TIP3     14761    TIP3     H1       HT       0.417000       1.00800           0
     54199 TIP3     14761    TIP3     H2       HT       0.417000       1.00800           0
     54200 TIP3     14762    TIP3     OH2      OT      -0.834000       15.9994           0
     54201 TIP3     14762    TIP3     H1       HT       0.417000       1.00800           0
     54202 TIP3     14762    TIP3     H2       HT       0.417000       1.00800           0
     54203 TIP3     14763    TIP3     OH2      OT      -0.834000       15.9994           0
     54204 TIP3     14763    TIP3     H1       HT       0.417000       1.00800           0
     54205 TIP3     14763    TIP3     H2       HT       0.417000       1.00800           0
     54206 TIP3     14764    TIP3     OH2      OT      -0.834000       15.9994           0
     54207 TIP3     14764    TIP3     H1       HT       0.417000       1.00800           0
     54208 TIP3     14764    TIP3     H2       HT       0.417000       1.00800           0
     54209 TIP3     14765    TIP3     OH2      OT      -0.834000       15.9994           0
     54210 TIP3     14765    TIP3     H1       HT       0.417000       1.00800           0
     54211 TIP3     14765    TIP3     H2       HT       0.417000       1.00800           0
     54212 TIP3     14766    TIP3     OH2      OT      -0.834000       15.9994           0
     54213 TIP3     14766    TIP3     H1       HT       0.417000       1.00800           0
     54214 TIP3     14766    TIP3     H2       HT       0.417000       1.00800           0
     54215 TIP3     14767    TIP3     OH2      OT      -0.834000       15.9994           0
     54216 TIP3     14767    TIP3     H1       HT       0.417000       1.00800           0
     54217 TIP3     14767    TIP3     H2       HT       0.417000       1.00800           0
     54218 TIP3     14768    TIP3     OH2      OT      -0.834000       15.9994           0
     54219 TIP3     14768    TIP3     H1       HT       0.417000       1.00800           0
     54220 TIP3     14768    TIP3     H2       HT       0.417000       1.00800           0
     54221 TIP3     14769    TIP3     OH2      OT      -0.834000       15.9994           0
     54222 TIP3     14769    TIP3     H1       HT       0.417000       1.00800           0
     54223 TIP3     14769    TIP3     H2       HT       0.417000       1.00800           0
     54224 TIP3     14770    TIP3     OH2      OT      -0.834000       15.9994           0
     54225 TIP3     14770    TIP3     H1       HT       0.417000       1.00800           0
     54226 TIP3     14770    TIP3     H2       HT       0.417000       1.00800           0
     54227 TIP3     14771    TIP3     OH2      OT      -0.834000       15.9994           0
     54228 TIP3     14771    TIP3     H1       HT       0.417000       1.00800           0
     54229 TIP3     14771    TIP3     H2       HT       0.417000       1.00800           0
     54230 TIP3     14772    TIP3     OH2      OT      -0.834000       15.9994           0
     54231 TIP3     14772    TIP3     H1       HT       0.417000       1.00800           0
     54232 TIP3     14772    TIP3     H2       HT       0.417000       1.00800           0
     54233 TIP3     14773    TIP3     OH2      OT      -0.834000       15.9994           0
     54234 TIP3     14773    TIP3     H1       HT       0.417000       1.00800           0
     54235 TIP3     14773    TIP3     H2       HT       0.417000       1.00800           0
     54236 TIP3     14774    TIP3     OH2      OT      -0.834000       15.9994           0
     54237 TIP3     14774    TIP3     H1       HT       0.417000       1.00800           0
     54238 TIP3     14774    TIP3     H2       HT       0.417000       1.00800           0
     54239 TIP3     14775    TIP3     OH2      OT      -0.834000       15.9994           0
     54240 TIP3     14775    TIP3     H1       HT       0.417000       1.00800           0
     54241 TIP3     14775    TIP3     H2       HT       0.417000       1.00800           0
     54242 TIP3     14776    TIP3     OH2      OT      -0.834000       15.9994           0
     54243 TIP3     14776    TIP3     H1       HT       0.417000       1.00800           0
     54244 TIP3     14776    TIP3     H2       HT       0.417000       1.00800           0
     54245 TIP3     14777    TIP3     OH2      OT      -0.834000       15.9994           0
     54246 TIP3     14777    TIP3     H1       HT       0.417000       1.00800           0
     54247 TIP3     14777    TIP3     H2       HT       0.417000       1.00800           0
     54248 TIP3     14778    TIP3     OH2      OT      -0.834000       15.9994           0
     54249 TIP3     14778    TIP3     H1       HT       0.417000       1.00800           0
     54250 TIP3     14778    TIP3     H2       HT       0.417000       1.00800           0
     54251 TIP3     14779    TIP3     OH2      OT      -0.834000       15.9994           0
     54252 TIP3     14779    TIP3     H1       HT       0.417000       1.00800           0
     54253 TIP3     14779    TIP3     H2       HT       0.417000       1.00800           0
     54254 TIP3     14780    TIP3     OH2      OT      -0.834000       15.9994           0
     54255 TIP3     14780    TIP3     H1       HT       0.417000       1.00800           0
     54256 TIP3     14780    TIP3     H2       HT       0.417000       1.00800           0
     54257 TIP3     14781    TIP3     OH2      OT      -0.834000       15.9994           0
     54258 TIP3     14781    TIP3     H1       HT       0.417000       1.00800           0
     54259 TIP3     14781    TIP3     H2       HT       0.417000       1.00800           0
     54260 TIP3     14782    TIP3     OH2      OT      -0.834000       15.9994           0
     54261 TIP3     14782    TIP3     H1       HT       0.417000       1.00800           0
     54262 TIP3     14782    TIP3     H2       HT       0.417000       1.00800           0
     54263 TIP3     14783    TIP3     OH2      OT      -0.834000       15.9994           0
     54264 TIP3     14783    TIP3     H1       HT       0.417000       1.00800           0
     54265 TIP3     14783    TIP3     H2       HT       0.417000       1.00800           0
     54266 TIP3     14784    TIP3     OH2      OT      -0.834000       15.9994           0
     54267 TIP3     14784    TIP3     H1       HT       0.417000       1.00800           0
     54268 TIP3     14784    TIP3     H2       HT       0.417000       1.00800           0
     54269 TIP3     14785    TIP3     OH2      OT      -0.834000       15.9994           0
     54270 TIP3     14785    TIP3     H1       HT       0.417000       1.00800           0
     54271 TIP3     14785    TIP3     H2       HT       0.417000       1.00800           0
     54272 TIP3     14786    TIP3     OH2      OT      -0.834000       15.9994           0
     54273 TIP3     14786    TIP3     H1       HT       0.417000       1.00800           0
     54274 TIP3     14786    TIP3     H2       HT       0.417000       1.00800           0
     54275 TIP3     14787    TIP3     OH2      OT      -0.834000       15.9994           0
     54276 TIP3     14787    TIP3     H1       HT       0.417000       1.00800           0
     54277 TIP3     14787    TIP3     H2       HT       0.417000       1.00800           0
     54278 TIP3     14788    TIP3     OH2      OT      -0.834000       15.9994           0
     54279 TIP3     14788    TIP3     H1       HT       0.417000       1.00800           0
     54280 TIP3     14788    TIP3     H2       HT       0.417000       1.00800           0
     54281 TIP3     14789    TIP3     OH2      OT      -0.834000       15.9994           0
     54282 TIP3     14789    TIP3     H1       HT       0.417000       1.00800           0
     54283 TIP3     14789    TIP3     H2       HT       0.417000       1.00800           0
     54284 TIP3     14790    TIP3     OH2      OT      -0.834000       15.9994           0
     54285 TIP3     14790    TIP3     H1       HT       0.417000       1.00800           0
     54286 TIP3     14790    TIP3     H2       HT       0.417000       1.00800           0
     54287 TIP3     14791    TIP3     OH2      OT      -0.834000       15.9994           0
     54288 TIP3     14791    TIP3     H1       HT       0.417000       1.00800           0
     54289 TIP3     14791    TIP3     H2       HT       0.417000       1.00800           0
     54290 TIP3     14792    TIP3     OH2      OT      -0.834000       15.9994           0
     54291 TIP3     14792    TIP3     H1       HT       0.417000       1.00800           0
     54292 TIP3     14792    TIP3     H2       HT       0.417000       1.00800           0
     54293 TIP3     14793    TIP3     OH2      OT      -0.834000       15.9994           0
     54294 TIP3     14793    TIP3     H1       HT       0.417000       1.00800           0
     54295 TIP3     14793    TIP3     H2       HT       0.417000       1.00800           0
     54296 TIP3     14794    TIP3     OH2      OT      -0.834000       15.9994           0
     54297 TIP3     14794    TIP3     H1       HT       0.417000       1.00800           0
     54298 TIP3     14794    TIP3     H2       HT       0.417000       1.00800           0
     54299 TIP3     14795    TIP3     OH2      OT      -0.834000       15.9994           0
     54300 TIP3     14795    TIP3     H1       HT       0.417000       1.00800           0
     54301 TIP3     14795    TIP3     H2       HT       0.417000       1.00800           0
     54302 TIP3     14796    TIP3     OH2      OT      -0.834000       15.9994           0
     54303 TIP3     14796    TIP3     H1       HT       0.417000       1.00800           0
     54304 TIP3     14796    TIP3     H2       HT       0.417000       1.00800           0
     54305 TIP3     14797    TIP3     OH2      OT      -0.834000       15.9994           0
     54306 TIP3     14797    TIP3     H1       HT       0.417000       1.00800           0
     54307 TIP3     14797    TIP3     H2       HT       0.417000       1.00800           0
     54308 TIP3     14798    TIP3     OH2      OT      -0.834000       15.9994           0
     54309 TIP3     14798    TIP3     H1       HT       0.417000       1.00800           0
     54310 TIP3     14798    TIP3     H2       HT       0.417000       1.00800           0
     54311 TIP3     14799    TIP3     OH2      OT      -0.834000       15.9994           0
     54312 TIP3     14799    TIP3     H1       HT       0.417000       1.00800           0
     54313 TIP3     14799    TIP3     H2       HT       0.417000       1.00800           0
     54314 TIP3     14800    TIP3     OH2      OT      -0.834000       15.9994           0
     54315 TIP3     14800    TIP3     H1       HT       0.417000       1.00800           0
     54316 TIP3     14800    TIP3     H2       HT       0.417000       1.00800           0
     54317 TIP3     14801    TIP3     OH2      OT      -0.834000       15.9994           0
     54318 TIP3     14801    TIP3     H1       HT       0.417000       1.00800           0
     54319 TIP3     14801    TIP3     H2       HT       0.417000       1.00800           0
     54320 TIP3     14802    TIP3     OH2      OT      -0.834000       15.9994           0
     54321 TIP3     14802    TIP3     H1       HT       0.417000       1.00800           0
     54322 TIP3     14802    TIP3     H2       HT       0.417000       1.00800           0
     54323 TIP3     14803    TIP3     OH2      OT      -0.834000       15.9994           0
     54324 TIP3     14803    TIP3     H1       HT       0.417000       1.00800           0
     54325 TIP3     14803    TIP3     H2       HT       0.417000       1.00800           0
     54326 TIP3     14804    TIP3     OH2      OT      -0.834000       15.9994           0
     54327 TIP3     14804    TIP3     H1       HT       0.417000       1.00800           0
     54328 TIP3     14804    TIP3     H2       HT       0.417000       1.00800           0
     54329 TIP3     14805    TIP3     OH2      OT      -0.834000       15.9994           0
     54330 TIP3     14805    TIP3     H1       HT       0.417000       1.00800           0
     54331 TIP3     14805    TIP3     H2       HT       0.417000       1.00800           0
     54332 TIP3     14806    TIP3     OH2      OT      -0.834000       15.9994           0
     54333 TIP3     14806    TIP3     H1       HT       0.417000       1.00800           0
     54334 TIP3     14806    TIP3     H2       HT       0.417000       1.00800           0
     54335 TIP3     14807    TIP3     OH2      OT      -0.834000       15.9994           0
     54336 TIP3     14807    TIP3     H1       HT       0.417000       1.00800           0
     54337 TIP3     14807    TIP3     H2       HT       0.417000       1.00800           0
     54338 TIP3     14808    TIP3     OH2      OT      -0.834000       15.9994           0
     54339 TIP3     14808    TIP3     H1       HT       0.417000       1.00800           0
     54340 TIP3     14808    TIP3     H2       HT       0.417000       1.00800           0
     54341 TIP3     14809    TIP3     OH2      OT      -0.834000       15.9994           0
     54342 TIP3     14809    TIP3     H1       HT       0.417000       1.00800           0
     54343 TIP3     14809    TIP3     H2       HT       0.417000       1.00800           0
     54344 TIP3     14810    TIP3     OH2      OT      -0.834000       15.9994           0
     54345 TIP3     14810    TIP3     H1       HT       0.417000       1.00800           0
     54346 TIP3     14810    TIP3     H2       HT       0.417000       1.00800           0
     54347 TIP3     14811    TIP3     OH2      OT      -0.834000       15.9994           0
     54348 TIP3     14811    TIP3     H1       HT       0.417000       1.00800           0
     54349 TIP3     14811    TIP3     H2       HT       0.417000       1.00800           0
     54350 TIP3     14812    TIP3     OH2      OT      -0.834000       15.9994           0
     54351 TIP3     14812    TIP3     H1       HT       0.417000       1.00800           0
     54352 TIP3     14812    TIP3     H2       HT       0.417000       1.00800           0
     54353 TIP3     14813    TIP3     OH2      OT      -0.834000       15.9994           0
     54354 TIP3     14813    TIP3     H1       HT       0.417000       1.00800           0
     54355 TIP3     14813    TIP3     H2       HT       0.417000       1.00800           0
     54356 TIP3     14814    TIP3     OH2      OT      -0.834000       15.9994           0
     54357 TIP3     14814    TIP3     H1       HT       0.417000       1.00800           0
     54358 TIP3     14814    TIP3     H2       HT       0.417000       1.00800           0
     54359 TIP3     14815    TIP3     OH2      OT      -0.834000       15.9994           0
     54360 TIP3     14815    TIP3     H1       HT       0.417000       1.00800           0
     54361 TIP3     14815    TIP3     H2       HT       0.417000       1.00800           0
     54362 TIP3     14816    TIP3     OH2      OT      -0.834000       15.9994           0
     54363 TIP3     14816    TIP3     H1       HT       0.417000       1.00800           0
     54364 TIP3     14816    TIP3     H2       HT       0.417000       1.00800           0
     54365 TIP3     14817    TIP3     OH2      OT      -0.834000       15.9994           0
     54366 TIP3     14817    TIP3     H1       HT       0.417000       1.00800           0
     54367 TIP3     14817    TIP3     H2       HT       0.417000       1.00800           0
     54368 TIP3     14818    TIP3     OH2      OT      -0.834000       15.9994           0
     54369 TIP3     14818    TIP3     H1       HT       0.417000       1.00800           0
     54370 TIP3     14818    TIP3     H2       HT       0.417000       1.00800           0
     54371 TIP3     14819    TIP3     OH2      OT      -0.834000       15.9994           0
     54372 TIP3     14819    TIP3     H1       HT       0.417000       1.00800           0
     54373 TIP3     14819    TIP3     H2       HT       0.417000       1.00800           0
     54374 TIP3     14820    TIP3     OH2      OT      -0.834000       15.9994           0
     54375 TIP3     14820    TIP3     H1       HT       0.417000       1.00800           0
     54376 TIP3     14820    TIP3     H2       HT       0.417000       1.00800           0
     54377 TIP3     14821    TIP3     OH2      OT      -0.834000       15.9994           0
     54378 TIP3     14821    TIP3     H1       HT       0.417000       1.00800           0
     54379 TIP3     14821    TIP3     H2       HT       0.417000       1.00800           0
     54380 TIP3     14822    TIP3     OH2      OT      -0.834000       15.9994           0
     54381 TIP3     14822    TIP3     H1       HT       0.417000       1.00800           0
     54382 TIP3     14822    TIP3     H2       HT       0.417000       1.00800           0
     54383 TIP3     14823    TIP3     OH2      OT      -0.834000       15.9994           0
     54384 TIP3     14823    TIP3     H1       HT       0.417000       1.00800           0
     54385 TIP3     14823    TIP3     H2       HT       0.417000       1.00800           0
     54386 TIP3     14824    TIP3     OH2      OT      -0.834000       15.9994           0
     54387 TIP3     14824    TIP3     H1       HT       0.417000       1.00800           0
     54388 TIP3     14824    TIP3     H2       HT       0.417000       1.00800           0
     54389 TIP3     14825    TIP3     OH2      OT      -0.834000       15.9994           0
     54390 TIP3     14825    TIP3     H1       HT       0.417000       1.00800           0
     54391 TIP3     14825    TIP3     H2       HT       0.417000       1.00800           0
     54392 TIP3     14826    TIP3     OH2      OT      -0.834000       15.9994           0
     54393 TIP3     14826    TIP3     H1       HT       0.417000       1.00800           0
     54394 TIP3     14826    TIP3     H2       HT       0.417000       1.00800           0
     54395 TIP3     14827    TIP3     OH2      OT      -0.834000       15.9994           0
     54396 TIP3     14827    TIP3     H1       HT       0.417000       1.00800           0
     54397 TIP3     14827    TIP3     H2       HT       0.417000       1.00800           0
     54398 TIP3     14828    TIP3     OH2      OT      -0.834000       15.9994           0
     54399 TIP3     14828    TIP3     H1       HT       0.417000       1.00800           0
     54400 TIP3     14828    TIP3     H2       HT       0.417000       1.00800           0
     54401 TIP3     14829    TIP3     OH2      OT      -0.834000       15.9994           0
     54402 TIP3     14829    TIP3     H1       HT       0.417000       1.00800           0
     54403 TIP3     14829    TIP3     H2       HT       0.417000       1.00800           0
     54404 TIP3     14830    TIP3     OH2      OT      -0.834000       15.9994           0
     54405 TIP3     14830    TIP3     H1       HT       0.417000       1.00800           0
     54406 TIP3     14830    TIP3     H2       HT       0.417000       1.00800           0
     54407 TIP3     14831    TIP3     OH2      OT      -0.834000       15.9994           0
     54408 TIP3     14831    TIP3     H1       HT       0.417000       1.00800           0
     54409 TIP3     14831    TIP3     H2       HT       0.417000       1.00800           0
     54410 TIP3     14832    TIP3     OH2      OT      -0.834000       15.9994           0
     54411 TIP3     14832    TIP3     H1       HT       0.417000       1.00800           0
     54412 TIP3     14832    TIP3     H2       HT       0.417000       1.00800           0
     54413 TIP3     14833    TIP3     OH2      OT      -0.834000       15.9994           0
     54414 TIP3     14833    TIP3     H1       HT       0.417000       1.00800           0
     54415 TIP3     14833    TIP3     H2       HT       0.417000       1.00800           0
     54416 TIP3     14834    TIP3     OH2      OT      -0.834000       15.9994           0
     54417 TIP3     14834    TIP3     H1       HT       0.417000       1.00800           0
     54418 TIP3     14834    TIP3     H2       HT       0.417000       1.00800           0
     54419 TIP3     14835    TIP3     OH2      OT      -0.834000       15.9994           0
     54420 TIP3     14835    TIP3     H1       HT       0.417000       1.00800           0
     54421 TIP3     14835    TIP3     H2       HT       0.417000       1.00800           0
     54422 TIP3     14836    TIP3     OH2      OT      -0.834000       15.9994           0
     54423 TIP3     14836    TIP3     H1       HT       0.417000       1.00800           0
     54424 TIP3     14836    TIP3     H2       HT       0.417000       1.00800           0
     54425 TIP3     14837    TIP3     OH2      OT      -0.834000       15.9994           0
     54426 TIP3     14837    TIP3     H1       HT       0.417000       1.00800           0
     54427 TIP3     14837    TIP3     H2       HT       0.417000       1.00800           0
     54428 TIP3     14838    TIP3     OH2      OT      -0.834000       15.9994           0
     54429 TIP3     14838    TIP3     H1       HT       0.417000       1.00800           0
     54430 TIP3     14838    TIP3     H2       HT       0.417000       1.00800           0
     54431 TIP3     14839    TIP3     OH2      OT      -0.834000       15.9994           0
     54432 TIP3     14839    TIP3     H1       HT       0.417000       1.00800           0
     54433 TIP3     14839    TIP3     H2       HT       0.417000       1.00800           0
     54434 TIP3     14840    TIP3     OH2      OT      -0.834000       15.9994           0
     54435 TIP3     14840    TIP3     H1       HT       0.417000       1.00800           0
     54436 TIP3     14840    TIP3     H2       HT       0.417000       1.00800           0
     54437 TIP3     14841    TIP3     OH2      OT      -0.834000       15.9994           0
     54438 TIP3     14841    TIP3     H1       HT       0.417000       1.00800           0
     54439 TIP3     14841    TIP3     H2       HT       0.417000       1.00800           0
     54440 TIP3     14842    TIP3     OH2      OT      -0.834000       15.9994           0
     54441 TIP3     14842    TIP3     H1       HT       0.417000       1.00800           0
     54442 TIP3     14842    TIP3     H2       HT       0.417000       1.00800           0
     54443 TIP3     14843    TIP3     OH2      OT      -0.834000       15.9994           0
     54444 TIP3     14843    TIP3     H1       HT       0.417000       1.00800           0
     54445 TIP3     14843    TIP3     H2       HT       0.417000       1.00800           0
     54446 TIP3     14844    TIP3     OH2      OT      -0.834000       15.9994           0
     54447 TIP3     14844    TIP3     H1       HT       0.417000       1.00800           0
     54448 TIP3     14844    TIP3     H2       HT       0.417000       1.00800           0
     54449 TIP3     14845    TIP3     OH2      OT      -0.834000       15.9994           0
     54450 TIP3     14845    TIP3     H1       HT       0.417000       1.00800           0
     54451 TIP3     14845    TIP3     H2       HT       0.417000       1.00800           0
     54452 TIP3     14846    TIP3     OH2      OT      -0.834000       15.9994           0
     54453 TIP3     14846    TIP3     H1       HT       0.417000       1.00800           0
     54454 TIP3     14846    TIP3     H2       HT       0.417000       1.00800           0
     54455 TIP3     14847    TIP3     OH2      OT      -0.834000       15.9994           0
     54456 TIP3     14847    TIP3     H1       HT       0.417000       1.00800           0
     54457 TIP3     14847    TIP3     H2       HT       0.417000       1.00800           0
     54458 TIP3     14848    TIP3     OH2      OT      -0.834000       15.9994           0
     54459 TIP3     14848    TIP3     H1       HT       0.417000       1.00800           0
     54460 TIP3     14848    TIP3     H2       HT       0.417000       1.00800           0
     54461 TIP3     14849    TIP3     OH2      OT      -0.834000       15.9994           0
     54462 TIP3     14849    TIP3     H1       HT       0.417000       1.00800           0
     54463 TIP3     14849    TIP3     H2       HT       0.417000       1.00800           0
     54464 TIP3     14850    TIP3     OH2      OT      -0.834000       15.9994           0
     54465 TIP3     14850    TIP3     H1       HT       0.417000       1.00800           0
     54466 TIP3     14850    TIP3     H2       HT       0.417000       1.00800           0
     54467 TIP3     14851    TIP3     OH2      OT      -0.834000       15.9994           0
     54468 TIP3     14851    TIP3     H1       HT       0.417000       1.00800           0
     54469 TIP3     14851    TIP3     H2       HT       0.417000       1.00800           0
     54470 TIP3     14852    TIP3     OH2      OT      -0.834000       15.9994           0
     54471 TIP3     14852    TIP3     H1       HT       0.417000       1.00800           0
     54472 TIP3     14852    TIP3     H2       HT       0.417000       1.00800           0
     54473 TIP3     14853    TIP3     OH2      OT      -0.834000       15.9994           0
     54474 TIP3     14853    TIP3     H1       HT       0.417000       1.00800           0
     54475 TIP3     14853    TIP3     H2       HT       0.417000       1.00800           0
     54476 TIP3     14854    TIP3     OH2      OT      -0.834000       15.9994           0
     54477 TIP3     14854    TIP3     H1       HT       0.417000       1.00800           0
     54478 TIP3     14854    TIP3     H2       HT       0.417000       1.00800           0
     54479 TIP3     14855    TIP3     OH2      OT      -0.834000       15.9994           0
     54480 TIP3     14855    TIP3     H1       HT       0.417000       1.00800           0
     54481 TIP3     14855    TIP3     H2       HT       0.417000       1.00800           0
     54482 TIP3     14856    TIP3     OH2      OT      -0.834000       15.9994           0
     54483 TIP3     14856    TIP3     H1       HT       0.417000       1.00800           0
     54484 TIP3     14856    TIP3     H2       HT       0.417000       1.00800           0
     54485 TIP3     14857    TIP3     OH2      OT      -0.834000       15.9994           0
     54486 TIP3     14857    TIP3     H1       HT       0.417000       1.00800           0
     54487 TIP3     14857    TIP3     H2       HT       0.417000       1.00800           0
     54488 TIP3     14858    TIP3     OH2      OT      -0.834000       15.9994           0
     54489 TIP3     14858    TIP3     H1       HT       0.417000       1.00800           0
     54490 TIP3     14858    TIP3     H2       HT       0.417000       1.00800           0
     54491 TIP3     14859    TIP3     OH2      OT      -0.834000       15.9994           0
     54492 TIP3     14859    TIP3     H1       HT       0.417000       1.00800           0
     54493 TIP3     14859    TIP3     H2       HT       0.417000       1.00800           0
     54494 TIP3     14860    TIP3     OH2      OT      -0.834000       15.9994           0
     54495 TIP3     14860    TIP3     H1       HT       0.417000       1.00800           0
     54496 TIP3     14860    TIP3     H2       HT       0.417000       1.00800           0
     54497 TIP3     14861    TIP3     OH2      OT      -0.834000       15.9994           0
     54498 TIP3     14861    TIP3     H1       HT       0.417000       1.00800           0
     54499 TIP3     14861    TIP3     H2       HT       0.417000       1.00800           0
     54500 TIP3     14862    TIP3     OH2      OT      -0.834000       15.9994           0
     54501 TIP3     14862    TIP3     H1       HT       0.417000       1.00800           0
     54502 TIP3     14862    TIP3     H2       HT       0.417000       1.00800           0
     54503 TIP3     14863    TIP3     OH2      OT      -0.834000       15.9994           0
     54504 TIP3     14863    TIP3     H1       HT       0.417000       1.00800           0
     54505 TIP3     14863    TIP3     H2       HT       0.417000       1.00800           0
     54506 TIP3     14864    TIP3     OH2      OT      -0.834000       15.9994           0
     54507 TIP3     14864    TIP3     H1       HT       0.417000       1.00800           0
     54508 TIP3     14864    TIP3     H2       HT       0.417000       1.00800           0
     54509 TIP3     14865    TIP3     OH2      OT      -0.834000       15.9994           0
     54510 TIP3     14865    TIP3     H1       HT       0.417000       1.00800           0
     54511 TIP3     14865    TIP3     H2       HT       0.417000       1.00800           0
     54512 TIP3     14866    TIP3     OH2      OT      -0.834000       15.9994           0
     54513 TIP3     14866    TIP3     H1       HT       0.417000       1.00800           0
     54514 TIP3     14866    TIP3     H2       HT       0.417000       1.00800           0
     54515 TIP3     14867    TIP3     OH2      OT      -0.834000       15.9994           0
     54516 TIP3     14867    TIP3     H1       HT       0.417000       1.00800           0
     54517 TIP3     14867    TIP3     H2       HT       0.417000       1.00800           0
     54518 TIP3     14868    TIP3     OH2      OT      -0.834000       15.9994           0
     54519 TIP3     14868    TIP3     H1       HT       0.417000       1.00800           0
     54520 TIP3     14868    TIP3     H2       HT       0.417000       1.00800           0
     54521 TIP3     14869    TIP3     OH2      OT      -0.834000       15.9994           0
     54522 TIP3     14869    TIP3     H1       HT       0.417000       1.00800           0
     54523 TIP3     14869    TIP3     H2       HT       0.417000       1.00800           0
     54524 TIP3     14870    TIP3     OH2      OT      -0.834000       15.9994           0
     54525 TIP3     14870    TIP3     H1       HT       0.417000       1.00800           0
     54526 TIP3     14870    TIP3     H2       HT       0.417000       1.00800           0
     54527 TIP3     14871    TIP3     OH2      OT      -0.834000       15.9994           0
     54528 TIP3     14871    TIP3     H1       HT       0.417000       1.00800           0
     54529 TIP3     14871    TIP3     H2       HT       0.417000       1.00800           0
     54530 TIP3     14872    TIP3     OH2      OT      -0.834000       15.9994           0
     54531 TIP3     14872    TIP3     H1       HT       0.417000       1.00800           0
     54532 TIP3     14872    TIP3     H2       HT       0.417000       1.00800           0
     54533 TIP3     14873    TIP3     OH2      OT      -0.834000       15.9994           0
     54534 TIP3     14873    TIP3     H1       HT       0.417000       1.00800           0
     54535 TIP3     14873    TIP3     H2       HT       0.417000       1.00800           0
     54536 TIP3     14874    TIP3     OH2      OT      -0.834000       15.9994           0
     54537 TIP3     14874    TIP3     H1       HT       0.417000       1.00800           0
     54538 TIP3     14874    TIP3     H2       HT       0.417000       1.00800           0
     54539 TIP3     14875    TIP3     OH2      OT      -0.834000       15.9994           0
     54540 TIP3     14875    TIP3     H1       HT       0.417000       1.00800           0
     54541 TIP3     14875    TIP3     H2       HT       0.417000       1.00800           0
     54542 TIP3     14876    TIP3     OH2      OT      -0.834000       15.9994           0
     54543 TIP3     14876    TIP3     H1       HT       0.417000       1.00800           0
     54544 TIP3     14876    TIP3     H2       HT       0.417000       1.00800           0
     54545 TIP3     14877    TIP3     OH2      OT      -0.834000       15.9994           0
     54546 TIP3     14877    TIP3     H1       HT       0.417000       1.00800           0
     54547 TIP3     14877    TIP3     H2       HT       0.417000       1.00800           0
     54548 TIP3     14878    TIP3     OH2      OT      -0.834000       15.9994           0
     54549 TIP3     14878    TIP3     H1       HT       0.417000       1.00800           0
     54550 TIP3     14878    TIP3     H2       HT       0.417000       1.00800           0
     54551 TIP3     14879    TIP3     OH2      OT      -0.834000       15.9994           0
     54552 TIP3     14879    TIP3     H1       HT       0.417000       1.00800           0
     54553 TIP3     14879    TIP3     H2       HT       0.417000       1.00800           0
     54554 TIP3     14880    TIP3     OH2      OT      -0.834000       15.9994           0
     54555 TIP3     14880    TIP3     H1       HT       0.417000       1.00800           0
     54556 TIP3     14880    TIP3     H2       HT       0.417000       1.00800           0
     54557 TIP3     14881    TIP3     OH2      OT      -0.834000       15.9994           0
     54558 TIP3     14881    TIP3     H1       HT       0.417000       1.00800           0
     54559 TIP3     14881    TIP3     H2       HT       0.417000       1.00800           0
     54560 TIP3     14882    TIP3     OH2      OT      -0.834000       15.9994           0
     54561 TIP3     14882    TIP3     H1       HT       0.417000       1.00800           0
     54562 TIP3     14882    TIP3     H2       HT       0.417000       1.00800           0
     54563 TIP3     14883    TIP3     OH2      OT      -0.834000       15.9994           0
     54564 TIP3     14883    TIP3     H1       HT       0.417000       1.00800           0
     54565 TIP3     14883    TIP3     H2       HT       0.417000       1.00800           0
     54566 TIP3     14884    TIP3     OH2      OT      -0.834000       15.9994           0
     54567 TIP3     14884    TIP3     H1       HT       0.417000       1.00800           0
     54568 TIP3     14884    TIP3     H2       HT       0.417000       1.00800           0
     54569 TIP3     14885    TIP3     OH2      OT      -0.834000       15.9994           0
     54570 TIP3     14885    TIP3     H1       HT       0.417000       1.00800           0
     54571 TIP3     14885    TIP3     H2       HT       0.417000       1.00800           0
     54572 TIP3     14886    TIP3     OH2      OT      -0.834000       15.9994           0
     54573 TIP3     14886    TIP3     H1       HT       0.417000       1.00800           0
     54574 TIP3     14886    TIP3     H2       HT       0.417000       1.00800           0
     54575 TIP3     14887    TIP3     OH2      OT      -0.834000       15.9994           0
     54576 TIP3     14887    TIP3     H1       HT       0.417000       1.00800           0
     54577 TIP3     14887    TIP3     H2       HT       0.417000       1.00800           0
     54578 TIP3     14888    TIP3     OH2      OT      -0.834000       15.9994           0
     54579 TIP3     14888    TIP3     H1       HT       0.417000       1.00800           0
     54580 TIP3     14888    TIP3     H2       HT       0.417000       1.00800           0
     54581 TIP3     14889    TIP3     OH2      OT      -0.834000       15.9994           0
     54582 TIP3     14889    TIP3     H1       HT       0.417000       1.00800           0
     54583 TIP3     14889    TIP3     H2       HT       0.417000       1.00800           0
     54584 TIP3     14890    TIP3     OH2      OT      -0.834000       15.9994           0
     54585 TIP3     14890    TIP3     H1       HT       0.417000       1.00800           0
     54586 TIP3     14890    TIP3     H2       HT       0.417000       1.00800           0
     54587 TIP3     14891    TIP3     OH2      OT      -0.834000       15.9994           0
     54588 TIP3     14891    TIP3     H1       HT       0.417000       1.00800           0
     54589 TIP3     14891    TIP3     H2       HT       0.417000       1.00800           0
     54590 TIP3     14892    TIP3     OH2      OT      -0.834000       15.9994           0
     54591 TIP3     14892    TIP3     H1       HT       0.417000       1.00800           0
     54592 TIP3     14892    TIP3     H2       HT       0.417000       1.00800           0
     54593 TIP3     14893    TIP3     OH2      OT      -0.834000       15.9994           0
     54594 TIP3     14893    TIP3     H1       HT       0.417000       1.00800           0
     54595 TIP3     14893    TIP3     H2       HT       0.417000       1.00800           0
     54596 TIP3     14894    TIP3     OH2      OT      -0.834000       15.9994           0
     54597 TIP3     14894    TIP3     H1       HT       0.417000       1.00800           0
     54598 TIP3     14894    TIP3     H2       HT       0.417000       1.00800           0
     54599 TIP3     14895    TIP3     OH2      OT      -0.834000       15.9994           0
     54600 TIP3     14895    TIP3     H1       HT       0.417000       1.00800           0
     54601 TIP3     14895    TIP3     H2       HT       0.417000       1.00800           0
     54602 TIP3     14896    TIP3     OH2      OT      -0.834000       15.9994           0
     54603 TIP3     14896    TIP3     H1       HT       0.417000       1.00800           0
     54604 TIP3     14896    TIP3     H2       HT       0.417000       1.00800           0
     54605 TIP3     14897    TIP3     OH2      OT      -0.834000       15.9994           0
     54606 TIP3     14897    TIP3     H1       HT       0.417000       1.00800           0
     54607 TIP3     14897    TIP3     H2       HT       0.417000       1.00800           0
     54608 TIP3     14898    TIP3     OH2      OT      -0.834000       15.9994           0
     54609 TIP3     14898    TIP3     H1       HT       0.417000       1.00800           0
     54610 TIP3     14898    TIP3     H2       HT       0.417000       1.00800           0
     54611 TIP3     14899    TIP3     OH2      OT      -0.834000       15.9994           0
     54612 TIP3     14899    TIP3     H1       HT       0.417000       1.00800           0
     54613 TIP3     14899    TIP3     H2       HT       0.417000       1.00800           0
     54614 TIP3     14900    TIP3     OH2      OT      -0.834000       15.9994           0
     54615 TIP3     14900    TIP3     H1       HT       0.417000       1.00800           0
     54616 TIP3     14900    TIP3     H2       HT       0.417000       1.00800           0
     54617 TIP3     14901    TIP3     OH2      OT      -0.834000       15.9994           0
     54618 TIP3     14901    TIP3     H1       HT       0.417000       1.00800           0
     54619 TIP3     14901    TIP3     H2       HT       0.417000       1.00800           0
     54620 TIP3     14902    TIP3     OH2      OT      -0.834000       15.9994           0
     54621 TIP3     14902    TIP3     H1       HT       0.417000       1.00800           0
     54622 TIP3     14902    TIP3     H2       HT       0.417000       1.00800           0
     54623 TIP3     14903    TIP3     OH2      OT      -0.834000       15.9994           0
     54624 TIP3     14903    TIP3     H1       HT       0.417000       1.00800           0
     54625 TIP3     14903    TIP3     H2       HT       0.417000       1.00800           0
     54626 TIP3     14904    TIP3     OH2      OT      -0.834000       15.9994           0
     54627 TIP3     14904    TIP3     H1       HT       0.417000       1.00800           0
     54628 TIP3     14904    TIP3     H2       HT       0.417000       1.00800           0
     54629 TIP3     14905    TIP3     OH2      OT      -0.834000       15.9994           0
     54630 TIP3     14905    TIP3     H1       HT       0.417000       1.00800           0
     54631 TIP3     14905    TIP3     H2       HT       0.417000       1.00800           0
     54632 TIP3     14906    TIP3     OH2      OT      -0.834000       15.9994           0
     54633 TIP3     14906    TIP3     H1       HT       0.417000       1.00800           0
     54634 TIP3     14906    TIP3     H2       HT       0.417000       1.00800           0
     54635 TIP3     14907    TIP3     OH2      OT      -0.834000       15.9994           0
     54636 TIP3     14907    TIP3     H1       HT       0.417000       1.00800           0
     54637 TIP3     14907    TIP3     H2       HT       0.417000       1.00800           0
     54638 TIP3     14908    TIP3     OH2      OT      -0.834000       15.9994           0
     54639 TIP3     14908    TIP3     H1       HT       0.417000       1.00800           0
     54640 TIP3     14908    TIP3     H2       HT       0.417000       1.00800           0
     54641 TIP3     14909    TIP3     OH2      OT      -0.834000       15.9994           0
     54642 TIP3     14909    TIP3     H1       HT       0.417000       1.00800           0
     54643 TIP3     14909    TIP3     H2       HT       0.417000       1.00800           0
     54644 TIP3     14910    TIP3     OH2      OT      -0.834000       15.9994           0
     54645 TIP3     14910    TIP3     H1       HT       0.417000       1.00800           0
     54646 TIP3     14910    TIP3     H2       HT       0.417000       1.00800           0
     54647 TIP3     14911    TIP3     OH2      OT      -0.834000       15.9994           0
     54648 TIP3     14911    TIP3     H1       HT       0.417000       1.00800           0
     54649 TIP3     14911    TIP3     H2       HT       0.417000       1.00800           0
     54650 TIP3     14912    TIP3     OH2      OT      -0.834000       15.9994           0
     54651 TIP3     14912    TIP3     H1       HT       0.417000       1.00800           0
     54652 TIP3     14912    TIP3     H2       HT       0.417000       1.00800           0
     54653 TIP3     14913    TIP3     OH2      OT      -0.834000       15.9994           0
     54654 TIP3     14913    TIP3     H1       HT       0.417000       1.00800           0
     54655 TIP3     14913    TIP3     H2       HT       0.417000       1.00800           0
     54656 TIP3     14914    TIP3     OH2      OT      -0.834000       15.9994           0
     54657 TIP3     14914    TIP3     H1       HT       0.417000       1.00800           0
     54658 TIP3     14914    TIP3     H2       HT       0.417000       1.00800           0
     54659 TIP3     14915    TIP3     OH2      OT      -0.834000       15.9994           0
     54660 TIP3     14915    TIP3     H1       HT       0.417000       1.00800           0
     54661 TIP3     14915    TIP3     H2       HT       0.417000       1.00800           0
     54662 TIP3     14916    TIP3     OH2      OT      -0.834000       15.9994           0
     54663 TIP3     14916    TIP3     H1       HT       0.417000       1.00800           0
     54664 TIP3     14916    TIP3     H2       HT       0.417000       1.00800           0
     54665 TIP3     14917    TIP3     OH2      OT      -0.834000       15.9994           0
     54666 TIP3     14917    TIP3     H1       HT       0.417000       1.00800           0
     54667 TIP3     14917    TIP3     H2       HT       0.417000       1.00800           0
     54668 TIP3     14918    TIP3     OH2      OT      -0.834000       15.9994           0
     54669 TIP3     14918    TIP3     H1       HT       0.417000       1.00800           0
     54670 TIP3     14918    TIP3     H2       HT       0.417000       1.00800           0
     54671 TIP3     14919    TIP3     OH2      OT      -0.834000       15.9994           0
     54672 TIP3     14919    TIP3     H1       HT       0.417000       1.00800           0
     54673 TIP3     14919    TIP3     H2       HT       0.417000       1.00800           0
     54674 TIP3     14920    TIP3     OH2      OT      -0.834000       15.9994           0
     54675 TIP3     14920    TIP3     H1       HT       0.417000       1.00800           0
     54676 TIP3     14920    TIP3     H2       HT       0.417000       1.00800           0
     54677 TIP3     14921    TIP3     OH2      OT      -0.834000       15.9994           0
     54678 TIP3     14921    TIP3     H1       HT       0.417000       1.00800           0
     54679 TIP3     14921    TIP3     H2       HT       0.417000       1.00800           0
     54680 TIP3     14922    TIP3     OH2      OT      -0.834000       15.9994           0
     54681 TIP3     14922    TIP3     H1       HT       0.417000       1.00800           0
     54682 TIP3     14922    TIP3     H2       HT       0.417000       1.00800           0
     54683 TIP3     14923    TIP3     OH2      OT      -0.834000       15.9994           0
     54684 TIP3     14923    TIP3     H1       HT       0.417000       1.00800           0
     54685 TIP3     14923    TIP3     H2       HT       0.417000       1.00800           0
     54686 TIP3     14924    TIP3     OH2      OT      -0.834000       15.9994           0
     54687 TIP3     14924    TIP3     H1       HT       0.417000       1.00800           0
     54688 TIP3     14924    TIP3     H2       HT       0.417000       1.00800           0
     54689 TIP3     14925    TIP3     OH2      OT      -0.834000       15.9994           0
     54690 TIP3     14925    TIP3     H1       HT       0.417000       1.00800           0
     54691 TIP3     14925    TIP3     H2       HT       0.417000       1.00800           0
     54692 TIP3     14926    TIP3     OH2      OT      -0.834000       15.9994           0
     54693 TIP3     14926    TIP3     H1       HT       0.417000       1.00800           0
     54694 TIP3     14926    TIP3     H2       HT       0.417000       1.00800           0
     54695 TIP3     14927    TIP3     OH2      OT      -0.834000       15.9994           0
     54696 TIP3     14927    TIP3     H1       HT       0.417000       1.00800           0
     54697 TIP3     14927    TIP3     H2       HT       0.417000       1.00800           0
     54698 TIP3     14928    TIP3     OH2      OT      -0.834000       15.9994           0
     54699 TIP3     14928    TIP3     H1       HT       0.417000       1.00800           0
     54700 TIP3     14928    TIP3     H2       HT       0.417000       1.00800           0
     54701 TIP3     14929    TIP3     OH2      OT      -0.834000       15.9994           0
     54702 TIP3     14929    TIP3     H1       HT       0.417000       1.00800           0
     54703 TIP3     14929    TIP3     H2       HT       0.417000       1.00800           0
     54704 TIP3     14930    TIP3     OH2      OT      -0.834000       15.9994           0
     54705 TIP3     14930    TIP3     H1       HT       0.417000       1.00800           0
     54706 TIP3     14930    TIP3     H2       HT       0.417000       1.00800           0
     54707 TIP3     14931    TIP3     OH2      OT      -0.834000       15.9994           0
     54708 TIP3     14931    TIP3     H1       HT       0.417000       1.00800           0
     54709 TIP3     14931    TIP3     H2       HT       0.417000       1.00800           0
     54710 TIP3     14932    TIP3     OH2      OT      -0.834000       15.9994           0
     54711 TIP3     14932    TIP3     H1       HT       0.417000       1.00800           0
     54712 TIP3     14932    TIP3     H2       HT       0.417000       1.00800           0
     54713 TIP3     14933    TIP3     OH2      OT      -0.834000       15.9994           0
     54714 TIP3     14933    TIP3     H1       HT       0.417000       1.00800           0
     54715 TIP3     14933    TIP3     H2       HT       0.417000       1.00800           0
     54716 TIP3     14934    TIP3     OH2      OT      -0.834000       15.9994           0
     54717 TIP3     14934    TIP3     H1       HT       0.417000       1.00800           0
     54718 TIP3     14934    TIP3     H2       HT       0.417000       1.00800           0
     54719 TIP3     14935    TIP3     OH2      OT      -0.834000       15.9994           0
     54720 TIP3     14935    TIP3     H1       HT       0.417000       1.00800           0
     54721 TIP3     14935    TIP3     H2       HT       0.417000       1.00800           0
     54722 TIP3     14936    TIP3     OH2      OT      -0.834000       15.9994           0
     54723 TIP3     14936    TIP3     H1       HT       0.417000       1.00800           0
     54724 TIP3     14936    TIP3     H2       HT       0.417000       1.00800           0
     54725 TIP3     14937    TIP3     OH2      OT      -0.834000       15.9994           0
     54726 TIP3     14937    TIP3     H1       HT       0.417000       1.00800           0
     54727 TIP3     14937    TIP3     H2       HT       0.417000       1.00800           0
     54728 TIP3     14938    TIP3     OH2      OT      -0.834000       15.9994           0
     54729 TIP3     14938    TIP3     H1       HT       0.417000       1.00800           0
     54730 TIP3     14938    TIP3     H2       HT       0.417000       1.00800           0
     54731 TIP3     14939    TIP3     OH2      OT      -0.834000       15.9994           0
     54732 TIP3     14939    TIP3     H1       HT       0.417000       1.00800           0
     54733 TIP3     14939    TIP3     H2       HT       0.417000       1.00800           0
     54734 TIP3     14940    TIP3     OH2      OT      -0.834000       15.9994           0
     54735 TIP3     14940    TIP3     H1       HT       0.417000       1.00800           0
     54736 TIP3     14940    TIP3     H2       HT       0.417000       1.00800           0
     54737 TIP3     14941    TIP3     OH2      OT      -0.834000       15.9994           0
     54738 TIP3     14941    TIP3     H1       HT       0.417000       1.00800           0
     54739 TIP3     14941    TIP3     H2       HT       0.417000       1.00800           0
     54740 TIP3     14942    TIP3     OH2      OT      -0.834000       15.9994           0
     54741 TIP3     14942    TIP3     H1       HT       0.417000       1.00800           0
     54742 TIP3     14942    TIP3     H2       HT       0.417000       1.00800           0
     54743 TIP3     14943    TIP3     OH2      OT      -0.834000       15.9994           0
     54744 TIP3     14943    TIP3     H1       HT       0.417000       1.00800           0
     54745 TIP3     14943    TIP3     H2       HT       0.417000       1.00800           0
     54746 TIP3     14944    TIP3     OH2      OT      -0.834000       15.9994           0
     54747 TIP3     14944    TIP3     H1       HT       0.417000       1.00800           0
     54748 TIP3     14944    TIP3     H2       HT       0.417000       1.00800           0
     54749 TIP3     14945    TIP3     OH2      OT      -0.834000       15.9994           0
     54750 TIP3     14945    TIP3     H1       HT       0.417000       1.00800           0
     54751 TIP3     14945    TIP3     H2       HT       0.417000       1.00800           0
     54752 TIP3     14946    TIP3     OH2      OT      -0.834000       15.9994           0
     54753 TIP3     14946    TIP3     H1       HT       0.417000       1.00800           0
     54754 TIP3     14946    TIP3     H2       HT       0.417000       1.00800           0
     54755 TIP3     14947    TIP3     OH2      OT      -0.834000       15.9994           0
     54756 TIP3     14947    TIP3     H1       HT       0.417000       1.00800           0
     54757 TIP3     14947    TIP3     H2       HT       0.417000       1.00800           0
     54758 TIP3     14948    TIP3     OH2      OT      -0.834000       15.9994           0
     54759 TIP3     14948    TIP3     H1       HT       0.417000       1.00800           0
     54760 TIP3     14948    TIP3     H2       HT       0.417000       1.00800           0
     54761 TIP3     14949    TIP3     OH2      OT      -0.834000       15.9994           0
     54762 TIP3     14949    TIP3     H1       HT       0.417000       1.00800           0
     54763 TIP3     14949    TIP3     H2       HT       0.417000       1.00800           0
     54764 TIP3     14950    TIP3     OH2      OT      -0.834000       15.9994           0
     54765 TIP3     14950    TIP3     H1       HT       0.417000       1.00800           0
     54766 TIP3     14950    TIP3     H2       HT       0.417000       1.00800           0
     54767 TIP3     14951    TIP3     OH2      OT      -0.834000       15.9994           0
     54768 TIP3     14951    TIP3     H1       HT       0.417000       1.00800           0
     54769 TIP3     14951    TIP3     H2       HT       0.417000       1.00800           0
     54770 TIP3     14952    TIP3     OH2      OT      -0.834000       15.9994           0
     54771 TIP3     14952    TIP3     H1       HT       0.417000       1.00800           0
     54772 TIP3     14952    TIP3     H2       HT       0.417000       1.00800           0
     54773 TIP3     14953    TIP3     OH2      OT      -0.834000       15.9994           0
     54774 TIP3     14953    TIP3     H1       HT       0.417000       1.00800           0
     54775 TIP3     14953    TIP3     H2       HT       0.417000       1.00800           0
     54776 TIP3     14954    TIP3     OH2      OT      -0.834000       15.9994           0
     54777 TIP3     14954    TIP3     H1       HT       0.417000       1.00800           0
     54778 TIP3     14954    TIP3     H2       HT       0.417000       1.00800           0
     54779 TIP3     14955    TIP3     OH2      OT      -0.834000       15.9994           0
     54780 TIP3     14955    TIP3     H1       HT       0.417000       1.00800           0
     54781 TIP3     14955    TIP3     H2       HT       0.417000       1.00800           0
     54782 TIP3     14956    TIP3     OH2      OT      -0.834000       15.9994           0
     54783 TIP3     14956    TIP3     H1       HT       0.417000       1.00800           0
     54784 TIP3     14956    TIP3     H2       HT       0.417000       1.00800           0
     54785 TIP3     14957    TIP3     OH2      OT      -0.834000       15.9994           0
     54786 TIP3     14957    TIP3     H1       HT       0.417000       1.00800           0
     54787 TIP3     14957    TIP3     H2       HT       0.417000       1.00800           0
     54788 TIP3     14958    TIP3     OH2      OT      -0.834000       15.9994           0
     54789 TIP3     14958    TIP3     H1       HT       0.417000       1.00800           0
     54790 TIP3     14958    TIP3     H2       HT       0.417000       1.00800           0
     54791 TIP3     14959    TIP3     OH2      OT      -0.834000       15.9994           0
     54792 TIP3     14959    TIP3     H1       HT       0.417000       1.00800           0
     54793 TIP3     14959    TIP3     H2       HT       0.417000       1.00800           0
     54794 TIP3     14960    TIP3     OH2      OT      -0.834000       15.9994           0
     54795 TIP3     14960    TIP3     H1       HT       0.417000       1.00800           0
     54796 TIP3     14960    TIP3     H2       HT       0.417000       1.00800           0
     54797 TIP3     14961    TIP3     OH2      OT      -0.834000       15.9994           0
     54798 TIP3     14961    TIP3     H1       HT       0.417000       1.00800           0
     54799 TIP3     14961    TIP3     H2       HT       0.417000       1.00800           0
     54800 TIP3     14962    TIP3     OH2      OT      -0.834000       15.9994           0
     54801 TIP3     14962    TIP3     H1       HT       0.417000       1.00800           0
     54802 TIP3     14962    TIP3     H2       HT       0.417000       1.00800           0
     54803 TIP3     14963    TIP3     OH2      OT      -0.834000       15.9994           0
     54804 TIP3     14963    TIP3     H1       HT       0.417000       1.00800           0
     54805 TIP3     14963    TIP3     H2       HT       0.417000       1.00800           0
     54806 TIP3     14964    TIP3     OH2      OT      -0.834000       15.9994           0
     54807 TIP3     14964    TIP3     H1       HT       0.417000       1.00800           0
     54808 TIP3     14964    TIP3     H2       HT       0.417000       1.00800           0
     54809 TIP3     14965    TIP3     OH2      OT      -0.834000       15.9994           0
     54810 TIP3     14965    TIP3     H1       HT       0.417000       1.00800           0
     54811 TIP3     14965    TIP3     H2       HT       0.417000       1.00800           0
     54812 TIP3     14966    TIP3     OH2      OT      -0.834000       15.9994           0
     54813 TIP3     14966    TIP3     H1       HT       0.417000       1.00800           0
     54814 TIP3     14966    TIP3     H2       HT       0.417000       1.00800           0
     54815 TIP3     14967    TIP3     OH2      OT      -0.834000       15.9994           0
     54816 TIP3     14967    TIP3     H1       HT       0.417000       1.00800           0
     54817 TIP3     14967    TIP3     H2       HT       0.417000       1.00800           0
     54818 TIP3     14968    TIP3     OH2      OT      -0.834000       15.9994           0
     54819 TIP3     14968    TIP3     H1       HT       0.417000       1.00800           0
     54820 TIP3     14968    TIP3     H2       HT       0.417000       1.00800           0
     54821 TIP3     14969    TIP3     OH2      OT      -0.834000       15.9994           0
     54822 TIP3     14969    TIP3     H1       HT       0.417000       1.00800           0
     54823 TIP3     14969    TIP3     H2       HT       0.417000       1.00800           0
     54824 TIP3     14970    TIP3     OH2      OT      -0.834000       15.9994           0
     54825 TIP3     14970    TIP3     H1       HT       0.417000       1.00800           0
     54826 TIP3     14970    TIP3     H2       HT       0.417000       1.00800           0
     54827 TIP3     14971    TIP3     OH2      OT      -0.834000       15.9994           0
     54828 TIP3     14971    TIP3     H1       HT       0.417000       1.00800           0
     54829 TIP3     14971    TIP3     H2       HT       0.417000       1.00800           0
     54830 TIP3     14972    TIP3     OH2      OT      -0.834000       15.9994           0
     54831 TIP3     14972    TIP3     H1       HT       0.417000       1.00800           0
     54832 TIP3     14972    TIP3     H2       HT       0.417000       1.00800           0
     54833 TIP3     14973    TIP3     OH2      OT      -0.834000       15.9994           0
     54834 TIP3     14973    TIP3     H1       HT       0.417000       1.00800           0
     54835 TIP3     14973    TIP3     H2       HT       0.417000       1.00800           0
     54836 TIP3     14974    TIP3     OH2      OT      -0.834000       15.9994           0
     54837 TIP3     14974    TIP3     H1       HT       0.417000       1.00800           0
     54838 TIP3     14974    TIP3     H2       HT       0.417000       1.00800           0
     54839 TIP3     14975    TIP3     OH2      OT      -0.834000       15.9994           0
     54840 TIP3     14975    TIP3     H1       HT       0.417000       1.00800           0
     54841 TIP3     14975    TIP3     H2       HT       0.417000       1.00800           0
     54842 TIP3     14976    TIP3     OH2      OT      -0.834000       15.9994           0
     54843 TIP3     14976    TIP3     H1       HT       0.417000       1.00800           0
     54844 TIP3     14976    TIP3     H2       HT       0.417000       1.00800           0
     54845 TIP3     14977    TIP3     OH2      OT      -0.834000       15.9994           0
     54846 TIP3     14977    TIP3     H1       HT       0.417000       1.00800           0
     54847 TIP3     14977    TIP3     H2       HT       0.417000       1.00800           0
     54848 TIP3     14978    TIP3     OH2      OT      -0.834000       15.9994           0
     54849 TIP3     14978    TIP3     H1       HT       0.417000       1.00800           0
     54850 TIP3     14978    TIP3     H2       HT       0.417000       1.00800           0
     54851 TIP3     14979    TIP3     OH2      OT      -0.834000       15.9994           0
     54852 TIP3     14979    TIP3     H1       HT       0.417000       1.00800           0
     54853 TIP3     14979    TIP3     H2       HT       0.417000       1.00800           0
     54854 TIP3     14980    TIP3     OH2      OT      -0.834000       15.9994           0
     54855 TIP3     14980    TIP3     H1       HT       0.417000       1.00800           0
     54856 TIP3     14980    TIP3     H2       HT       0.417000       1.00800           0
     54857 TIP3     14981    TIP3     OH2      OT      -0.834000       15.9994           0
     54858 TIP3     14981    TIP3     H1       HT       0.417000       1.00800           0
     54859 TIP3     14981    TIP3     H2       HT       0.417000       1.00800           0
     54860 TIP3     14982    TIP3     OH2      OT      -0.834000       15.9994           0
     54861 TIP3     14982    TIP3     H1       HT       0.417000       1.00800           0
     54862 TIP3     14982    TIP3     H2       HT       0.417000       1.00800           0
     54863 TIP3     14983    TIP3     OH2      OT      -0.834000       15.9994           0
     54864 TIP3     14983    TIP3     H1       HT       0.417000       1.00800           0
     54865 TIP3     14983    TIP3     H2       HT       0.417000       1.00800           0
     54866 TIP3     14984    TIP3     OH2      OT      -0.834000       15.9994           0
     54867 TIP3     14984    TIP3     H1       HT       0.417000       1.00800           0
     54868 TIP3     14984    TIP3     H2       HT       0.417000       1.00800           0
     54869 TIP3     14985    TIP3     OH2      OT      -0.834000       15.9994           0
     54870 TIP3     14985    TIP3     H1       HT       0.417000       1.00800           0
     54871 TIP3     14985    TIP3     H2       HT       0.417000       1.00800           0
     54872 TIP3     14986    TIP3     OH2      OT      -0.834000       15.9994           0
     54873 TIP3     14986    TIP3     H1       HT       0.417000       1.00800           0
     54874 TIP3     14986    TIP3     H2       HT       0.417000       1.00800           0
     54875 TIP3     14987    TIP3     OH2      OT      -0.834000       15.9994           0
     54876 TIP3     14987    TIP3     H1       HT       0.417000       1.00800           0
     54877 TIP3     14987    TIP3     H2       HT       0.417000       1.00800           0
     54878 TIP3     14988    TIP3     OH2      OT      -0.834000       15.9994           0
     54879 TIP3     14988    TIP3     H1       HT       0.417000       1.00800           0
     54880 TIP3     14988    TIP3     H2       HT       0.417000       1.00800           0
     54881 TIP3     14989    TIP3     OH2      OT      -0.834000       15.9994           0
     54882 TIP3     14989    TIP3     H1       HT       0.417000       1.00800           0
     54883 TIP3     14989    TIP3     H2       HT       0.417000       1.00800           0
     54884 TIP3     14990    TIP3     OH2      OT      -0.834000       15.9994           0
     54885 TIP3     14990    TIP3     H1       HT       0.417000       1.00800           0
     54886 TIP3     14990    TIP3     H2       HT       0.417000       1.00800           0
     54887 TIP3     14991    TIP3     OH2      OT      -0.834000       15.9994           0
     54888 TIP3     14991    TIP3     H1       HT       0.417000       1.00800           0
     54889 TIP3     14991    TIP3     H2       HT       0.417000       1.00800           0
     54890 TIP3     14992    TIP3     OH2      OT      -0.834000       15.9994           0
     54891 TIP3     14992    TIP3     H1       HT       0.417000       1.00800           0
     54892 TIP3     14992    TIP3     H2       HT       0.417000       1.00800           0
     54893 TIP3     14993    TIP3     OH2      OT      -0.834000       15.9994           0
     54894 TIP3     14993    TIP3     H1       HT       0.417000       1.00800           0
     54895 TIP3     14993    TIP3     H2       HT       0.417000       1.00800           0
     54896 TIP3     14994    TIP3     OH2      OT      -0.834000       15.9994           0
     54897 TIP3     14994    TIP3     H1       HT       0.417000       1.00800           0
     54898 TIP3     14994    TIP3     H2       HT       0.417000       1.00800           0
     54899 TIP3     14995    TIP3     OH2      OT      -0.834000       15.9994           0
     54900 TIP3     14995    TIP3     H1       HT       0.417000       1.00800           0
     54901 TIP3     14995    TIP3     H2       HT       0.417000       1.00800           0
     54902 TIP3     14996    TIP3     OH2      OT      -0.834000       15.9994           0
     54903 TIP3     14996    TIP3     H1       HT       0.417000       1.00800           0
     54904 TIP3     14996    TIP3     H2       HT       0.417000       1.00800           0
     54905 TIP3     14997    TIP3     OH2      OT      -0.834000       15.9994           0
     54906 TIP3     14997    TIP3     H1       HT       0.417000       1.00800           0
     54907 TIP3     14997    TIP3     H2       HT       0.417000       1.00800           0
     54908 TIP3     14998    TIP3     OH2      OT      -0.834000       15.9994           0
     54909 TIP3     14998    TIP3     H1       HT       0.417000       1.00800           0
     54910 TIP3     14998    TIP3     H2       HT       0.417000       1.00800           0
     54911 TIP3     14999    TIP3     OH2      OT      -0.834000       15.9994           0
     54912 TIP3     14999    TIP3     H1       HT       0.417000       1.00800           0
     54913 TIP3     14999    TIP3     H2       HT       0.417000       1.00800           0
     54914 TIP3     15000    TIP3     OH2      OT      -0.834000       15.9994           0
     54915 TIP3     15000    TIP3     H1       HT       0.417000       1.00800           0
     54916 TIP3     15000    TIP3     H2       HT       0.417000       1.00800           0
     54917 TIP3     15001    TIP3     OH2      OT      -0.834000       15.9994           0
     54918 TIP3     15001    TIP3     H1       HT       0.417000       1.00800           0
     54919 TIP3     15001    TIP3     H2       HT       0.417000       1.00800           0
     54920 TIP3     15002    TIP3     OH2      OT      -0.834000       15.9994           0
     54921 TIP3     15002    TIP3     H1       HT       0.417000       1.00800           0
     54922 TIP3     15002    TIP3     H2       HT       0.417000       1.00800           0
     54923 TIP3     15003    TIP3     OH2      OT      -0.834000       15.9994           0
     54924 TIP3     15003    TIP3     H1       HT       0.417000       1.00800           0
     54925 TIP3     15003    TIP3     H2       HT       0.417000       1.00800           0
     54926 TIP3     15004    TIP3     OH2      OT      -0.834000       15.9994           0
     54927 TIP3     15004    TIP3     H1       HT       0.417000       1.00800           0
     54928 TIP3     15004    TIP3     H2       HT       0.417000       1.00800           0
     54929 TIP3     15005    TIP3     OH2      OT      -0.834000       15.9994           0
     54930 TIP3     15005    TIP3     H1       HT       0.417000       1.00800           0
     54931 TIP3     15005    TIP3     H2       HT       0.417000       1.00800           0
     54932 TIP3     15006    TIP3     OH2      OT      -0.834000       15.9994           0
     54933 TIP3     15006    TIP3     H1       HT       0.417000       1.00800           0
     54934 TIP3     15006    TIP3     H2       HT       0.417000       1.00800           0
     54935 TIP3     15007    TIP3     OH2      OT      -0.834000       15.9994           0
     54936 TIP3     15007    TIP3     H1       HT       0.417000       1.00800           0
     54937 TIP3     15007    TIP3     H2       HT       0.417000       1.00800           0
     54938 TIP3     15008    TIP3     OH2      OT      -0.834000       15.9994           0
     54939 TIP3     15008    TIP3     H1       HT       0.417000       1.00800           0
     54940 TIP3     15008    TIP3     H2       HT       0.417000       1.00800           0
     54941 TIP3     15009    TIP3     OH2      OT      -0.834000       15.9994           0
     54942 TIP3     15009    TIP3     H1       HT       0.417000       1.00800           0
     54943 TIP3     15009    TIP3     H2       HT       0.417000       1.00800           0
     54944 TIP3     15010    TIP3     OH2      OT      -0.834000       15.9994           0
     54945 TIP3     15010    TIP3     H1       HT       0.417000       1.00800           0
     54946 TIP3     15010    TIP3     H2       HT       0.417000       1.00800           0
     54947 TIP3     15011    TIP3     OH2      OT      -0.834000       15.9994           0
     54948 TIP3     15011    TIP3     H1       HT       0.417000       1.00800           0
     54949 TIP3     15011    TIP3     H2       HT       0.417000       1.00800           0
     54950 TIP3     15012    TIP3     OH2      OT      -0.834000       15.9994           0
     54951 TIP3     15012    TIP3     H1       HT       0.417000       1.00800           0
     54952 TIP3     15012    TIP3     H2       HT       0.417000       1.00800           0
     54953 TIP3     15013    TIP3     OH2      OT      -0.834000       15.9994           0
     54954 TIP3     15013    TIP3     H1       HT       0.417000       1.00800           0
     54955 TIP3     15013    TIP3     H2       HT       0.417000       1.00800           0
     54956 TIP3     15014    TIP3     OH2      OT      -0.834000       15.9994           0
     54957 TIP3     15014    TIP3     H1       HT       0.417000       1.00800           0
     54958 TIP3     15014    TIP3     H2       HT       0.417000       1.00800           0
     54959 TIP3     15015    TIP3     OH2      OT      -0.834000       15.9994           0
     54960 TIP3     15015    TIP3     H1       HT       0.417000       1.00800           0
     54961 TIP3     15015    TIP3     H2       HT       0.417000       1.00800           0
     54962 TIP3     15016    TIP3     OH2      OT      -0.834000       15.9994           0
     54963 TIP3     15016    TIP3     H1       HT       0.417000       1.00800           0
     54964 TIP3     15016    TIP3     H2       HT       0.417000       1.00800           0
     54965 TIP3     15017    TIP3     OH2      OT      -0.834000       15.9994           0
     54966 TIP3     15017    TIP3     H1       HT       0.417000       1.00800           0
     54967 TIP3     15017    TIP3     H2       HT       0.417000       1.00800           0
     54968 TIP3     15018    TIP3     OH2      OT      -0.834000       15.9994           0
     54969 TIP3     15018    TIP3     H1       HT       0.417000       1.00800           0
     54970 TIP3     15018    TIP3     H2       HT       0.417000       1.00800           0
     54971 TIP3     15019    TIP3     OH2      OT      -0.834000       15.9994           0
     54972 TIP3     15019    TIP3     H1       HT       0.417000       1.00800           0
     54973 TIP3     15019    TIP3     H2       HT       0.417000       1.00800           0
     54974 TIP3     15020    TIP3     OH2      OT      -0.834000       15.9994           0
     54975 TIP3     15020    TIP3     H1       HT       0.417000       1.00800           0
     54976 TIP3     15020    TIP3     H2       HT       0.417000       1.00800           0
     54977 TIP3     15021    TIP3     OH2      OT      -0.834000       15.9994           0
     54978 TIP3     15021    TIP3     H1       HT       0.417000       1.00800           0
     54979 TIP3     15021    TIP3     H2       HT       0.417000       1.00800           0
     54980 TIP3     15022    TIP3     OH2      OT      -0.834000       15.9994           0
     54981 TIP3     15022    TIP3     H1       HT       0.417000       1.00800           0
     54982 TIP3     15022    TIP3     H2       HT       0.417000       1.00800           0
     54983 TIP3     15023    TIP3     OH2      OT      -0.834000       15.9994           0
     54984 TIP3     15023    TIP3     H1       HT       0.417000       1.00800           0
     54985 TIP3     15023    TIP3     H2       HT       0.417000       1.00800           0
     54986 TIP3     15024    TIP3     OH2      OT      -0.834000       15.9994           0
     54987 TIP3     15024    TIP3     H1       HT       0.417000       1.00800           0
     54988 TIP3     15024    TIP3     H2       HT       0.417000       1.00800           0
     54989 TIP3     15025    TIP3     OH2      OT      -0.834000       15.9994           0
     54990 TIP3     15025    TIP3     H1       HT       0.417000       1.00800           0
     54991 TIP3     15025    TIP3     H2       HT       0.417000       1.00800           0
     54992 TIP3     15026    TIP3     OH2      OT      -0.834000       15.9994           0
     54993 TIP3     15026    TIP3     H1       HT       0.417000       1.00800           0
     54994 TIP3     15026    TIP3     H2       HT       0.417000       1.00800           0
     54995 TIP3     15027    TIP3     OH2      OT      -0.834000       15.9994           0
     54996 TIP3     15027    TIP3     H1       HT       0.417000       1.00800           0
     54997 TIP3     15027    TIP3     H2       HT       0.417000       1.00800           0
     54998 TIP3     15028    TIP3     OH2      OT      -0.834000       15.9994           0
     54999 TIP3     15028    TIP3     H1       HT       0.417000       1.00800           0
     55000 TIP3     15028    TIP3     H2       HT       0.417000       1.00800           0
     55001 TIP3     15029    TIP3     OH2      OT      -0.834000       15.9994           0
     55002 TIP3     15029    TIP3     H1       HT       0.417000       1.00800           0
     55003 TIP3     15029    TIP3     H2       HT       0.417000       1.00800           0
     55004 TIP3     15030    TIP3     OH2      OT      -0.834000       15.9994           0
     55005 TIP3     15030    TIP3     H1       HT       0.417000       1.00800           0
     55006 TIP3     15030    TIP3     H2       HT       0.417000       1.00800           0
     55007 TIP3     15031    TIP3     OH2      OT      -0.834000       15.9994           0
     55008 TIP3     15031    TIP3     H1       HT       0.417000       1.00800           0
     55009 TIP3     15031    TIP3     H2       HT       0.417000       1.00800           0
     55010 TIP3     15032    TIP3     OH2      OT      -0.834000       15.9994           0
     55011 TIP3     15032    TIP3     H1       HT       0.417000       1.00800           0
     55012 TIP3     15032    TIP3     H2       HT       0.417000       1.00800           0
     55013 TIP3     15033    TIP3     OH2      OT      -0.834000       15.9994           0
     55014 TIP3     15033    TIP3     H1       HT       0.417000       1.00800           0
     55015 TIP3     15033    TIP3     H2       HT       0.417000       1.00800           0
     55016 TIP3     15034    TIP3     OH2      OT      -0.834000       15.9994           0
     55017 TIP3     15034    TIP3     H1       HT       0.417000       1.00800           0
     55018 TIP3     15034    TIP3     H2       HT       0.417000       1.00800           0
     55019 TIP3     15035    TIP3     OH2      OT      -0.834000       15.9994           0
     55020 TIP3     15035    TIP3     H1       HT       0.417000       1.00800           0
     55021 TIP3     15035    TIP3     H2       HT       0.417000       1.00800           0
     55022 TIP3     15036    TIP3     OH2      OT      -0.834000       15.9994           0
     55023 TIP3     15036    TIP3     H1       HT       0.417000       1.00800           0
     55024 TIP3     15036    TIP3     H2       HT       0.417000       1.00800           0
     55025 TIP3     15037    TIP3     OH2      OT      -0.834000       15.9994           0
     55026 TIP3     15037    TIP3     H1       HT       0.417000       1.00800           0
     55027 TIP3     15037    TIP3     H2       HT       0.417000       1.00800           0
     55028 TIP3     15038    TIP3     OH2      OT      -0.834000       15.9994           0
     55029 TIP3     15038    TIP3     H1       HT       0.417000       1.00800           0
     55030 TIP3     15038    TIP3     H2       HT       0.417000       1.00800           0
     55031 TIP3     15039    TIP3     OH2      OT      -0.834000       15.9994           0
     55032 TIP3     15039    TIP3     H1       HT       0.417000       1.00800           0
     55033 TIP3     15039    TIP3     H2       HT       0.417000       1.00800           0
     55034 TIP3     15040    TIP3     OH2      OT      -0.834000       15.9994           0
     55035 TIP3     15040    TIP3     H1       HT       0.417000       1.00800           0
     55036 TIP3     15040    TIP3     H2       HT       0.417000       1.00800           0
     55037 TIP3     15041    TIP3     OH2      OT      -0.834000       15.9994           0
     55038 TIP3     15041    TIP3     H1       HT       0.417000       1.00800           0
     55039 TIP3     15041    TIP3     H2       HT       0.417000       1.00800           0
     55040 TIP3     15042    TIP3     OH2      OT      -0.834000       15.9994           0
     55041 TIP3     15042    TIP3     H1       HT       0.417000       1.00800           0
     55042 TIP3     15042    TIP3     H2       HT       0.417000       1.00800           0
     55043 TIP3     15043    TIP3     OH2      OT      -0.834000       15.9994           0
     55044 TIP3     15043    TIP3     H1       HT       0.417000       1.00800           0
     55045 TIP3     15043    TIP3     H2       HT       0.417000       1.00800           0
     55046 TIP3     15044    TIP3     OH2      OT      -0.834000       15.9994           0
     55047 TIP3     15044    TIP3     H1       HT       0.417000       1.00800           0
     55048 TIP3     15044    TIP3     H2       HT       0.417000       1.00800           0
     55049 TIP3     15045    TIP3     OH2      OT      -0.834000       15.9994           0
     55050 TIP3     15045    TIP3     H1       HT       0.417000       1.00800           0
     55051 TIP3     15045    TIP3     H2       HT       0.417000       1.00800           0
     55052 TIP3     15046    TIP3     OH2      OT      -0.834000       15.9994           0
     55053 TIP3     15046    TIP3     H1       HT       0.417000       1.00800           0
     55054 TIP3     15046    TIP3     H2       HT       0.417000       1.00800           0
     55055 TIP3     15047    TIP3     OH2      OT      -0.834000       15.9994           0
     55056 TIP3     15047    TIP3     H1       HT       0.417000       1.00800           0
     55057 TIP3     15047    TIP3     H2       HT       0.417000       1.00800           0
     55058 TIP3     15048    TIP3     OH2      OT      -0.834000       15.9994           0
     55059 TIP3     15048    TIP3     H1       HT       0.417000       1.00800           0
     55060 TIP3     15048    TIP3     H2       HT       0.417000       1.00800           0
     55061 TIP3     15049    TIP3     OH2      OT      -0.834000       15.9994           0
     55062 TIP3     15049    TIP3     H1       HT       0.417000       1.00800           0
     55063 TIP3     15049    TIP3     H2       HT       0.417000       1.00800           0
     55064 TIP3     15050    TIP3     OH2      OT      -0.834000       15.9994           0
     55065 TIP3     15050    TIP3     H1       HT       0.417000       1.00800           0
     55066 TIP3     15050    TIP3     H2       HT       0.417000       1.00800           0
     55067 TIP3     15051    TIP3     OH2      OT      -0.834000       15.9994           0
     55068 TIP3     15051    TIP3     H1       HT       0.417000       1.00800           0
     55069 TIP3     15051    TIP3     H2       HT       0.417000       1.00800           0
     55070 TIP3     15052    TIP3     OH2      OT      -0.834000       15.9994           0
     55071 TIP3     15052    TIP3     H1       HT       0.417000       1.00800           0
     55072 TIP3     15052    TIP3     H2       HT       0.417000       1.00800           0
     55073 TIP3     15053    TIP3     OH2      OT      -0.834000       15.9994           0
     55074 TIP3     15053    TIP3     H1       HT       0.417000       1.00800           0
     55075 TIP3     15053    TIP3     H2       HT       0.417000       1.00800           0
     55076 TIP3     15054    TIP3     OH2      OT      -0.834000       15.9994           0
     55077 TIP3     15054    TIP3     H1       HT       0.417000       1.00800           0
     55078 TIP3     15054    TIP3     H2       HT       0.417000       1.00800           0
     55079 TIP3     15055    TIP3     OH2      OT      -0.834000       15.9994           0
     55080 TIP3     15055    TIP3     H1       HT       0.417000       1.00800           0
     55081 TIP3     15055    TIP3     H2       HT       0.417000       1.00800           0
     55082 TIP3     15056    TIP3     OH2      OT      -0.834000       15.9994           0
     55083 TIP3     15056    TIP3     H1       HT       0.417000       1.00800           0
     55084 TIP3     15056    TIP3     H2       HT       0.417000       1.00800           0
     55085 TIP3     15057    TIP3     OH2      OT      -0.834000       15.9994           0
     55086 TIP3     15057    TIP3     H1       HT       0.417000       1.00800           0
     55087 TIP3     15057    TIP3     H2       HT       0.417000       1.00800           0
     55088 TIP3     15058    TIP3     OH2      OT      -0.834000       15.9994           0
     55089 TIP3     15058    TIP3     H1       HT       0.417000       1.00800           0
     55090 TIP3     15058    TIP3     H2       HT       0.417000       1.00800           0
     55091 TIP3     15059    TIP3     OH2      OT      -0.834000       15.9994           0
     55092 TIP3     15059    TIP3     H1       HT       0.417000       1.00800           0
     55093 TIP3     15059    TIP3     H2       HT       0.417000       1.00800           0
     55094 TIP3     15060    TIP3     OH2      OT      -0.834000       15.9994           0
     55095 TIP3     15060    TIP3     H1       HT       0.417000       1.00800           0
     55096 TIP3     15060    TIP3     H2       HT       0.417000       1.00800           0
     55097 TIP3     15061    TIP3     OH2      OT      -0.834000       15.9994           0
     55098 TIP3     15061    TIP3     H1       HT       0.417000       1.00800           0
     55099 TIP3     15061    TIP3     H2       HT       0.417000       1.00800           0
     55100 TIP3     15062    TIP3     OH2      OT      -0.834000       15.9994           0
     55101 TIP3     15062    TIP3     H1       HT       0.417000       1.00800           0
     55102 TIP3     15062    TIP3     H2       HT       0.417000       1.00800           0
     55103 TIP3     15063    TIP3     OH2      OT      -0.834000       15.9994           0
     55104 TIP3     15063    TIP3     H1       HT       0.417000       1.00800           0
     55105 TIP3     15063    TIP3     H2       HT       0.417000       1.00800           0
     55106 TIP3     15064    TIP3     OH2      OT      -0.834000       15.9994           0
     55107 TIP3     15064    TIP3     H1       HT       0.417000       1.00800           0
     55108 TIP3     15064    TIP3     H2       HT       0.417000       1.00800           0
     55109 TIP3     15065    TIP3     OH2      OT      -0.834000       15.9994           0
     55110 TIP3     15065    TIP3     H1       HT       0.417000       1.00800           0
     55111 TIP3     15065    TIP3     H2       HT       0.417000       1.00800           0
     55112 TIP3     15066    TIP3     OH2      OT      -0.834000       15.9994           0
     55113 TIP3     15066    TIP3     H1       HT       0.417000       1.00800           0
     55114 TIP3     15066    TIP3     H2       HT       0.417000       1.00800           0
     55115 TIP3     15067    TIP3     OH2      OT      -0.834000       15.9994           0
     55116 TIP3     15067    TIP3     H1       HT       0.417000       1.00800           0
     55117 TIP3     15067    TIP3     H2       HT       0.417000       1.00800           0
     55118 TIP3     15068    TIP3     OH2      OT      -0.834000       15.9994           0
     55119 TIP3     15068    TIP3     H1       HT       0.417000       1.00800           0
     55120 TIP3     15068    TIP3     H2       HT       0.417000       1.00800           0
     55121 TIP3     15069    TIP3     OH2      OT      -0.834000       15.9994           0
     55122 TIP3     15069    TIP3     H1       HT       0.417000       1.00800           0
     55123 TIP3     15069    TIP3     H2       HT       0.417000       1.00800           0
     55124 TIP3     15070    TIP3     OH2      OT      -0.834000       15.9994           0
     55125 TIP3     15070    TIP3     H1       HT       0.417000       1.00800           0
     55126 TIP3     15070    TIP3     H2       HT       0.417000       1.00800           0
     55127 TIP3     15071    TIP3     OH2      OT      -0.834000       15.9994           0
     55128 TIP3     15071    TIP3     H1       HT       0.417000       1.00800           0
     55129 TIP3     15071    TIP3     H2       HT       0.417000       1.00800           0
     55130 TIP3     15072    TIP3     OH2      OT      -0.834000       15.9994           0
     55131 TIP3     15072    TIP3     H1       HT       0.417000       1.00800           0
     55132 TIP3     15072    TIP3     H2       HT       0.417000       1.00800           0
     55133 TIP3     15073    TIP3     OH2      OT      -0.834000       15.9994           0
     55134 TIP3     15073    TIP3     H1       HT       0.417000       1.00800           0
     55135 TIP3     15073    TIP3     H2       HT       0.417000       1.00800           0
     55136 TIP3     15074    TIP3     OH2      OT      -0.834000       15.9994           0
     55137 TIP3     15074    TIP3     H1       HT       0.417000       1.00800           0
     55138 TIP3     15074    TIP3     H2       HT       0.417000       1.00800           0
     55139 TIP3     15075    TIP3     OH2      OT      -0.834000       15.9994           0
     55140 TIP3     15075    TIP3     H1       HT       0.417000       1.00800           0
     55141 TIP3     15075    TIP3     H2       HT       0.417000       1.00800           0
     55142 TIP3     15076    TIP3     OH2      OT      -0.834000       15.9994           0
     55143 TIP3     15076    TIP3     H1       HT       0.417000       1.00800           0
     55144 TIP3     15076    TIP3     H2       HT       0.417000       1.00800           0
     55145 TIP3     15077    TIP3     OH2      OT      -0.834000       15.9994           0
     55146 TIP3     15077    TIP3     H1       HT       0.417000       1.00800           0
     55147 TIP3     15077    TIP3     H2       HT       0.417000       1.00800           0
     55148 TIP3     15078    TIP3     OH2      OT      -0.834000       15.9994           0
     55149 TIP3     15078    TIP3     H1       HT       0.417000       1.00800           0
     55150 TIP3     15078    TIP3     H2       HT       0.417000       1.00800           0
     55151 TIP3     15079    TIP3     OH2      OT      -0.834000       15.9994           0
     55152 TIP3     15079    TIP3     H1       HT       0.417000       1.00800           0
     55153 TIP3     15079    TIP3     H2       HT       0.417000       1.00800           0
     55154 TIP3     15080    TIP3     OH2      OT      -0.834000       15.9994           0
     55155 TIP3     15080    TIP3     H1       HT       0.417000       1.00800           0
     55156 TIP3     15080    TIP3     H2       HT       0.417000       1.00800           0
     55157 TIP3     15081    TIP3     OH2      OT      -0.834000       15.9994           0
     55158 TIP3     15081    TIP3     H1       HT       0.417000       1.00800           0
     55159 TIP3     15081    TIP3     H2       HT       0.417000       1.00800           0
     55160 TIP3     15082    TIP3     OH2      OT      -0.834000       15.9994           0
     55161 TIP3     15082    TIP3     H1       HT       0.417000       1.00800           0
     55162 TIP3     15082    TIP3     H2       HT       0.417000       1.00800           0
     55163 TIP3     15083    TIP3     OH2      OT      -0.834000       15.9994           0
     55164 TIP3     15083    TIP3     H1       HT       0.417000       1.00800           0
     55165 TIP3     15083    TIP3     H2       HT       0.417000       1.00800           0
     55166 TIP3     15084    TIP3     OH2      OT      -0.834000       15.9994           0
     55167 TIP3     15084    TIP3     H1       HT       0.417000       1.00800           0
     55168 TIP3     15084    TIP3     H2       HT       0.417000       1.00800           0
     55169 TIP3     15085    TIP3     OH2      OT      -0.834000       15.9994           0
     55170 TIP3     15085    TIP3     H1       HT       0.417000       1.00800           0
     55171 TIP3     15085    TIP3     H2       HT       0.417000       1.00800           0
     55172 TIP3     15086    TIP3     OH2      OT      -0.834000       15.9994           0
     55173 TIP3     15086    TIP3     H1       HT       0.417000       1.00800           0
     55174 TIP3     15086    TIP3     H2       HT       0.417000       1.00800           0
     55175 TIP3     15087    TIP3     OH2      OT      -0.834000       15.9994           0
     55176 TIP3     15087    TIP3     H1       HT       0.417000       1.00800           0
     55177 TIP3     15087    TIP3     H2       HT       0.417000       1.00800           0
     55178 TIP3     15088    TIP3     OH2      OT      -0.834000       15.9994           0
     55179 TIP3     15088    TIP3     H1       HT       0.417000       1.00800           0
     55180 TIP3     15088    TIP3     H2       HT       0.417000       1.00800           0
     55181 TIP3     15089    TIP3     OH2      OT      -0.834000       15.9994           0
     55182 TIP3     15089    TIP3     H1       HT       0.417000       1.00800           0
     55183 TIP3     15089    TIP3     H2       HT       0.417000       1.00800           0
     55184 TIP3     15090    TIP3     OH2      OT      -0.834000       15.9994           0
     55185 TIP3     15090    TIP3     H1       HT       0.417000       1.00800           0
     55186 TIP3     15090    TIP3     H2       HT       0.417000       1.00800           0
     55187 TIP3     15091    TIP3     OH2      OT      -0.834000       15.9994           0
     55188 TIP3     15091    TIP3     H1       HT       0.417000       1.00800           0
     55189 TIP3     15091    TIP3     H2       HT       0.417000       1.00800           0
     55190 TIP3     15092    TIP3     OH2      OT      -0.834000       15.9994           0
     55191 TIP3     15092    TIP3     H1       HT       0.417000       1.00800           0
     55192 TIP3     15092    TIP3     H2       HT       0.417000       1.00800           0
     55193 TIP3     15093    TIP3     OH2      OT      -0.834000       15.9994           0
     55194 TIP3     15093    TIP3     H1       HT       0.417000       1.00800           0
     55195 TIP3     15093    TIP3     H2       HT       0.417000       1.00800           0
     55196 TIP3     15094    TIP3     OH2      OT      -0.834000       15.9994           0
     55197 TIP3     15094    TIP3     H1       HT       0.417000       1.00800           0
     55198 TIP3     15094    TIP3     H2       HT       0.417000       1.00800           0
     55199 TIP3     15095    TIP3     OH2      OT      -0.834000       15.9994           0
     55200 TIP3     15095    TIP3     H1       HT       0.417000       1.00800           0
     55201 TIP3     15095    TIP3     H2       HT       0.417000       1.00800           0
     55202 TIP3     15096    TIP3     OH2      OT      -0.834000       15.9994           0
     55203 TIP3     15096    TIP3     H1       HT       0.417000       1.00800           0
     55204 TIP3     15096    TIP3     H2       HT       0.417000       1.00800           0
     55205 TIP3     15097    TIP3     OH2      OT      -0.834000       15.9994           0
     55206 TIP3     15097    TIP3     H1       HT       0.417000       1.00800           0
     55207 TIP3     15097    TIP3     H2       HT       0.417000       1.00800           0
     55208 TIP3     15098    TIP3     OH2      OT      -0.834000       15.9994           0
     55209 TIP3     15098    TIP3     H1       HT       0.417000       1.00800           0
     55210 TIP3     15098    TIP3     H2       HT       0.417000       1.00800           0
     55211 TIP3     15099    TIP3     OH2      OT      -0.834000       15.9994           0
     55212 TIP3     15099    TIP3     H1       HT       0.417000       1.00800           0
     55213 TIP3     15099    TIP3     H2       HT       0.417000       1.00800           0
     55214 TIP3     15100    TIP3     OH2      OT      -0.834000       15.9994           0
     55215 TIP3     15100    TIP3     H1       HT       0.417000       1.00800           0
     55216 TIP3     15100    TIP3     H2       HT       0.417000       1.00800           0
     55217 TIP3     15101    TIP3     OH2      OT      -0.834000       15.9994           0
     55218 TIP3     15101    TIP3     H1       HT       0.417000       1.00800           0
     55219 TIP3     15101    TIP3     H2       HT       0.417000       1.00800           0
     55220 TIP3     15102    TIP3     OH2      OT      -0.834000       15.9994           0
     55221 TIP3     15102    TIP3     H1       HT       0.417000       1.00800           0
     55222 TIP3     15102    TIP3     H2       HT       0.417000       1.00800           0
     55223 TIP3     15103    TIP3     OH2      OT      -0.834000       15.9994           0
     55224 TIP3     15103    TIP3     H1       HT       0.417000       1.00800           0
     55225 TIP3     15103    TIP3     H2       HT       0.417000       1.00800           0
     55226 TIP3     15104    TIP3     OH2      OT      -0.834000       15.9994           0
     55227 TIP3     15104    TIP3     H1       HT       0.417000       1.00800           0
     55228 TIP3     15104    TIP3     H2       HT       0.417000       1.00800           0
     55229 TIP3     15105    TIP3     OH2      OT      -0.834000       15.9994           0
     55230 TIP3     15105    TIP3     H1       HT       0.417000       1.00800           0
     55231 TIP3     15105    TIP3     H2       HT       0.417000       1.00800           0
     55232 TIP3     15106    TIP3     OH2      OT      -0.834000       15.9994           0
     55233 TIP3     15106    TIP3     H1       HT       0.417000       1.00800           0
     55234 TIP3     15106    TIP3     H2       HT       0.417000       1.00800           0
     55235 TIP3     15107    TIP3     OH2      OT      -0.834000       15.9994           0
     55236 TIP3     15107    TIP3     H1       HT       0.417000       1.00800           0
     55237 TIP3     15107    TIP3     H2       HT       0.417000       1.00800           0
     55238 TIP3     15108    TIP3     OH2      OT      -0.834000       15.9994           0
     55239 TIP3     15108    TIP3     H1       HT       0.417000       1.00800           0
     55240 TIP3     15108    TIP3     H2       HT       0.417000       1.00800           0
     55241 TIP3     15109    TIP3     OH2      OT      -0.834000       15.9994           0
     55242 TIP3     15109    TIP3     H1       HT       0.417000       1.00800           0
     55243 TIP3     15109    TIP3     H2       HT       0.417000       1.00800           0
     55244 TIP3     15110    TIP3     OH2      OT      -0.834000       15.9994           0
     55245 TIP3     15110    TIP3     H1       HT       0.417000       1.00800           0
     55246 TIP3     15110    TIP3     H2       HT       0.417000       1.00800           0
     55247 TIP3     15111    TIP3     OH2      OT      -0.834000       15.9994           0
     55248 TIP3     15111    TIP3     H1       HT       0.417000       1.00800           0
     55249 TIP3     15111    TIP3     H2       HT       0.417000       1.00800           0
     55250 TIP3     15112    TIP3     OH2      OT      -0.834000       15.9994           0
     55251 TIP3     15112    TIP3     H1       HT       0.417000       1.00800           0
     55252 TIP3     15112    TIP3     H2       HT       0.417000       1.00800           0
     55253 TIP3     15113    TIP3     OH2      OT      -0.834000       15.9994           0
     55254 TIP3     15113    TIP3     H1       HT       0.417000       1.00800           0
     55255 TIP3     15113    TIP3     H2       HT       0.417000       1.00800           0
     55256 TIP3     15114    TIP3     OH2      OT      -0.834000       15.9994           0
     55257 TIP3     15114    TIP3     H1       HT       0.417000       1.00800           0
     55258 TIP3     15114    TIP3     H2       HT       0.417000       1.00800           0
     55259 TIP3     15115    TIP3     OH2      OT      -0.834000       15.9994           0
     55260 TIP3     15115    TIP3     H1       HT       0.417000       1.00800           0
     55261 TIP3     15115    TIP3     H2       HT       0.417000       1.00800           0
     55262 TIP3     15116    TIP3     OH2      OT      -0.834000       15.9994           0
     55263 TIP3     15116    TIP3     H1       HT       0.417000       1.00800           0
     55264 TIP3     15116    TIP3     H2       HT       0.417000       1.00800           0
     55265 TIP3     15117    TIP3     OH2      OT      -0.834000       15.9994           0
     55266 TIP3     15117    TIP3     H1       HT       0.417000       1.00800           0
     55267 TIP3     15117    TIP3     H2       HT       0.417000       1.00800           0
     55268 TIP3     15118    TIP3     OH2      OT      -0.834000       15.9994           0
     55269 TIP3     15118    TIP3     H1       HT       0.417000       1.00800           0
     55270 TIP3     15118    TIP3     H2       HT       0.417000       1.00800           0
     55271 TIP3     15119    TIP3     OH2      OT      -0.834000       15.9994           0
     55272 TIP3     15119    TIP3     H1       HT       0.417000       1.00800           0
     55273 TIP3     15119    TIP3     H2       HT       0.417000       1.00800           0
     55274 TIP3     15120    TIP3     OH2      OT      -0.834000       15.9994           0
     55275 TIP3     15120    TIP3     H1       HT       0.417000       1.00800           0
     55276 TIP3     15120    TIP3     H2       HT       0.417000       1.00800           0
     55277 TIP3     15121    TIP3     OH2      OT      -0.834000       15.9994           0
     55278 TIP3     15121    TIP3     H1       HT       0.417000       1.00800           0
     55279 TIP3     15121    TIP3     H2       HT       0.417000       1.00800           0
     55280 TIP3     15122    TIP3     OH2      OT      -0.834000       15.9994           0
     55281 TIP3     15122    TIP3     H1       HT       0.417000       1.00800           0
     55282 TIP3     15122    TIP3     H2       HT       0.417000       1.00800           0
     55283 TIP3     15123    TIP3     OH2      OT      -0.834000       15.9994           0
     55284 TIP3     15123    TIP3     H1       HT       0.417000       1.00800           0
     55285 TIP3     15123    TIP3     H2       HT       0.417000       1.00800           0
     55286 TIP3     15124    TIP3     OH2      OT      -0.834000       15.9994           0
     55287 TIP3     15124    TIP3     H1       HT       0.417000       1.00800           0
     55288 TIP3     15124    TIP3     H2       HT       0.417000       1.00800           0
     55289 TIP3     15125    TIP3     OH2      OT      -0.834000       15.9994           0
     55290 TIP3     15125    TIP3     H1       HT       0.417000       1.00800           0
     55291 TIP3     15125    TIP3     H2       HT       0.417000       1.00800           0
     55292 TIP3     15126    TIP3     OH2      OT      -0.834000       15.9994           0
     55293 TIP3     15126    TIP3     H1       HT       0.417000       1.00800           0
     55294 TIP3     15126    TIP3     H2       HT       0.417000       1.00800           0
     55295 TIP3     15127    TIP3     OH2      OT      -0.834000       15.9994           0
     55296 TIP3     15127    TIP3     H1       HT       0.417000       1.00800           0
     55297 TIP3     15127    TIP3     H2       HT       0.417000       1.00800           0
     55298 TIP3     15128    TIP3     OH2      OT      -0.834000       15.9994           0
     55299 TIP3     15128    TIP3     H1       HT       0.417000       1.00800           0
     55300 TIP3     15128    TIP3     H2       HT       0.417000       1.00800           0
     55301 TIP3     15129    TIP3     OH2      OT      -0.834000       15.9994           0
     55302 TIP3     15129    TIP3     H1       HT       0.417000       1.00800           0
     55303 TIP3     15129    TIP3     H2       HT       0.417000       1.00800           0
     55304 TIP3     15130    TIP3     OH2      OT      -0.834000       15.9994           0
     55305 TIP3     15130    TIP3     H1       HT       0.417000       1.00800           0
     55306 TIP3     15130    TIP3     H2       HT       0.417000       1.00800           0
     55307 TIP3     15131    TIP3     OH2      OT      -0.834000       15.9994           0
     55308 TIP3     15131    TIP3     H1       HT       0.417000       1.00800           0
     55309 TIP3     15131    TIP3     H2       HT       0.417000       1.00800           0
     55310 TIP3     15132    TIP3     OH2      OT      -0.834000       15.9994           0
     55311 TIP3     15132    TIP3     H1       HT       0.417000       1.00800           0
     55312 TIP3     15132    TIP3     H2       HT       0.417000       1.00800           0
     55313 TIP3     15133    TIP3     OH2      OT      -0.834000       15.9994           0
     55314 TIP3     15133    TIP3     H1       HT       0.417000       1.00800           0
     55315 TIP3     15133    TIP3     H2       HT       0.417000       1.00800           0
     55316 TIP3     15134    TIP3     OH2      OT      -0.834000       15.9994           0
     55317 TIP3     15134    TIP3     H1       HT       0.417000       1.00800           0
     55318 TIP3     15134    TIP3     H2       HT       0.417000       1.00800           0
     55319 TIP3     15135    TIP3     OH2      OT      -0.834000       15.9994           0
     55320 TIP3     15135    TIP3     H1       HT       0.417000       1.00800           0
     55321 TIP3     15135    TIP3     H2       HT       0.417000       1.00800           0
     55322 TIP3     15136    TIP3     OH2      OT      -0.834000       15.9994           0
     55323 TIP3     15136    TIP3     H1       HT       0.417000       1.00800           0
     55324 TIP3     15136    TIP3     H2       HT       0.417000       1.00800           0
     55325 TIP3     15137    TIP3     OH2      OT      -0.834000       15.9994           0
     55326 TIP3     15137    TIP3     H1       HT       0.417000       1.00800           0
     55327 TIP3     15137    TIP3     H2       HT       0.417000       1.00800           0
     55328 TIP3     15138    TIP3     OH2      OT      -0.834000       15.9994           0
     55329 TIP3     15138    TIP3     H1       HT       0.417000       1.00800           0
     55330 TIP3     15138    TIP3     H2       HT       0.417000       1.00800           0
     55331 TIP3     15139    TIP3     OH2      OT      -0.834000       15.9994           0
     55332 TIP3     15139    TIP3     H1       HT       0.417000       1.00800           0
     55333 TIP3     15139    TIP3     H2       HT       0.417000       1.00800           0
     55334 TIP3     15140    TIP3     OH2      OT      -0.834000       15.9994           0
     55335 TIP3     15140    TIP3     H1       HT       0.417000       1.00800           0
     55336 TIP3     15140    TIP3     H2       HT       0.417000       1.00800           0
     55337 TIP3     15141    TIP3     OH2      OT      -0.834000       15.9994           0
     55338 TIP3     15141    TIP3     H1       HT       0.417000       1.00800           0
     55339 TIP3     15141    TIP3     H2       HT       0.417000       1.00800           0
     55340 TIP3     15142    TIP3     OH2      OT      -0.834000       15.9994           0
     55341 TIP3     15142    TIP3     H1       HT       0.417000       1.00800           0
     55342 TIP3     15142    TIP3     H2       HT       0.417000       1.00800           0
     55343 TIP3     15143    TIP3     OH2      OT      -0.834000       15.9994           0
     55344 TIP3     15143    TIP3     H1       HT       0.417000       1.00800           0
     55345 TIP3     15143    TIP3     H2       HT       0.417000       1.00800           0
     55346 TIP3     15144    TIP3     OH2      OT      -0.834000       15.9994           0
     55347 TIP3     15144    TIP3     H1       HT       0.417000       1.00800           0
     55348 TIP3     15144    TIP3     H2       HT       0.417000       1.00800           0
     55349 TIP3     15145    TIP3     OH2      OT      -0.834000       15.9994           0
     55350 TIP3     15145    TIP3     H1       HT       0.417000       1.00800           0
     55351 TIP3     15145    TIP3     H2       HT       0.417000       1.00800           0
     55352 TIP3     15146    TIP3     OH2      OT      -0.834000       15.9994           0
     55353 TIP3     15146    TIP3     H1       HT       0.417000       1.00800           0
     55354 TIP3     15146    TIP3     H2       HT       0.417000       1.00800           0
     55355 TIP3     15147    TIP3     OH2      OT      -0.834000       15.9994           0
     55356 TIP3     15147    TIP3     H1       HT       0.417000       1.00800           0
     55357 TIP3     15147    TIP3     H2       HT       0.417000       1.00800           0
     55358 TIP3     15148    TIP3     OH2      OT      -0.834000       15.9994           0
     55359 TIP3     15148    TIP3     H1       HT       0.417000       1.00800           0
     55360 TIP3     15148    TIP3     H2       HT       0.417000       1.00800           0
     55361 TIP3     15149    TIP3     OH2      OT      -0.834000       15.9994           0
     55362 TIP3     15149    TIP3     H1       HT       0.417000       1.00800           0
     55363 TIP3     15149    TIP3     H2       HT       0.417000       1.00800           0
     55364 TIP3     15150    TIP3     OH2      OT      -0.834000       15.9994           0
     55365 TIP3     15150    TIP3     H1       HT       0.417000       1.00800           0
     55366 TIP3     15150    TIP3     H2       HT       0.417000       1.00800           0
     55367 TIP3     15151    TIP3     OH2      OT      -0.834000       15.9994           0
     55368 TIP3     15151    TIP3     H1       HT       0.417000       1.00800           0
     55369 TIP3     15151    TIP3     H2       HT       0.417000       1.00800           0
     55370 TIP3     15152    TIP3     OH2      OT      -0.834000       15.9994           0
     55371 TIP3     15152    TIP3     H1       HT       0.417000       1.00800           0
     55372 TIP3     15152    TIP3     H2       HT       0.417000       1.00800           0
     55373 TIP3     15153    TIP3     OH2      OT      -0.834000       15.9994           0
     55374 TIP3     15153    TIP3     H1       HT       0.417000       1.00800           0
     55375 TIP3     15153    TIP3     H2       HT       0.417000       1.00800           0
     55376 TIP3     15154    TIP3     OH2      OT      -0.834000       15.9994           0
     55377 TIP3     15154    TIP3     H1       HT       0.417000       1.00800           0
     55378 TIP3     15154    TIP3     H2       HT       0.417000       1.00800           0
     55379 TIP3     15155    TIP3     OH2      OT      -0.834000       15.9994           0
     55380 TIP3     15155    TIP3     H1       HT       0.417000       1.00800           0
     55381 TIP3     15155    TIP3     H2       HT       0.417000       1.00800           0
     55382 TIP3     15156    TIP3     OH2      OT      -0.834000       15.9994           0
     55383 TIP3     15156    TIP3     H1       HT       0.417000       1.00800           0
     55384 TIP3     15156    TIP3     H2       HT       0.417000       1.00800           0
     55385 TIP3     15157    TIP3     OH2      OT      -0.834000       15.9994           0
     55386 TIP3     15157    TIP3     H1       HT       0.417000       1.00800           0
     55387 TIP3     15157    TIP3     H2       HT       0.417000       1.00800           0
     55388 TIP3     15158    TIP3     OH2      OT      -0.834000       15.9994           0
     55389 TIP3     15158    TIP3     H1       HT       0.417000       1.00800           0
     55390 TIP3     15158    TIP3     H2       HT       0.417000       1.00800           0
     55391 TIP3     15159    TIP3     OH2      OT      -0.834000       15.9994           0
     55392 TIP3     15159    TIP3     H1       HT       0.417000       1.00800           0
     55393 TIP3     15159    TIP3     H2       HT       0.417000       1.00800           0
     55394 TIP3     15160    TIP3     OH2      OT      -0.834000       15.9994           0
     55395 TIP3     15160    TIP3     H1       HT       0.417000       1.00800           0
     55396 TIP3     15160    TIP3     H2       HT       0.417000       1.00800           0
     55397 TIP3     15161    TIP3     OH2      OT      -0.834000       15.9994           0
     55398 TIP3     15161    TIP3     H1       HT       0.417000       1.00800           0
     55399 TIP3     15161    TIP3     H2       HT       0.417000       1.00800           0
     55400 TIP3     15162    TIP3     OH2      OT      -0.834000       15.9994           0
     55401 TIP3     15162    TIP3     H1       HT       0.417000       1.00800           0
     55402 TIP3     15162    TIP3     H2       HT       0.417000       1.00800           0
     55403 TIP3     15163    TIP3     OH2      OT      -0.834000       15.9994           0
     55404 TIP3     15163    TIP3     H1       HT       0.417000       1.00800           0
     55405 TIP3     15163    TIP3     H2       HT       0.417000       1.00800           0
     55406 TIP3     15164    TIP3     OH2      OT      -0.834000       15.9994           0
     55407 TIP3     15164    TIP3     H1       HT       0.417000       1.00800           0
     55408 TIP3     15164    TIP3     H2       HT       0.417000       1.00800           0
     55409 TIP3     15165    TIP3     OH2      OT      -0.834000       15.9994           0
     55410 TIP3     15165    TIP3     H1       HT       0.417000       1.00800           0
     55411 TIP3     15165    TIP3     H2       HT       0.417000       1.00800           0
     55412 TIP3     15166    TIP3     OH2      OT      -0.834000       15.9994           0
     55413 TIP3     15166    TIP3     H1       HT       0.417000       1.00800           0
     55414 TIP3     15166    TIP3     H2       HT       0.417000       1.00800           0
     55415 TIP3     15167    TIP3     OH2      OT      -0.834000       15.9994           0
     55416 TIP3     15167    TIP3     H1       HT       0.417000       1.00800           0
     55417 TIP3     15167    TIP3     H2       HT       0.417000       1.00800           0
     55418 TIP3     15168    TIP3     OH2      OT      -0.834000       15.9994           0
     55419 TIP3     15168    TIP3     H1       HT       0.417000       1.00800           0
     55420 TIP3     15168    TIP3     H2       HT       0.417000       1.00800           0
     55421 TIP3     15169    TIP3     OH2      OT      -0.834000       15.9994           0
     55422 TIP3     15169    TIP3     H1       HT       0.417000       1.00800           0
     55423 TIP3     15169    TIP3     H2       HT       0.417000       1.00800           0
     55424 TIP3     15170    TIP3     OH2      OT      -0.834000       15.9994           0
     55425 TIP3     15170    TIP3     H1       HT       0.417000       1.00800           0
     55426 TIP3     15170    TIP3     H2       HT       0.417000       1.00800           0
     55427 TIP3     15171    TIP3     OH2      OT      -0.834000       15.9994           0
     55428 TIP3     15171    TIP3     H1       HT       0.417000       1.00800           0
     55429 TIP3     15171    TIP3     H2       HT       0.417000       1.00800           0
     55430 TIP3     15172    TIP3     OH2      OT      -0.834000       15.9994           0
     55431 TIP3     15172    TIP3     H1       HT       0.417000       1.00800           0
     55432 TIP3     15172    TIP3     H2       HT       0.417000       1.00800           0
     55433 TIP3     15173    TIP3     OH2      OT      -0.834000       15.9994           0
     55434 TIP3     15173    TIP3     H1       HT       0.417000       1.00800           0
     55435 TIP3     15173    TIP3     H2       HT       0.417000       1.00800           0
     55436 TIP3     15174    TIP3     OH2      OT      -0.834000       15.9994           0
     55437 TIP3     15174    TIP3     H1       HT       0.417000       1.00800           0
     55438 TIP3     15174    TIP3     H2       HT       0.417000       1.00800           0
     55439 TIP3     15175    TIP3     OH2      OT      -0.834000       15.9994           0
     55440 TIP3     15175    TIP3     H1       HT       0.417000       1.00800           0
     55441 TIP3     15175    TIP3     H2       HT       0.417000       1.00800           0
     55442 TIP3     15176    TIP3     OH2      OT      -0.834000       15.9994           0
     55443 TIP3     15176    TIP3     H1       HT       0.417000       1.00800           0
     55444 TIP3     15176    TIP3     H2       HT       0.417000       1.00800           0
     55445 TIP3     15177    TIP3     OH2      OT      -0.834000       15.9994           0
     55446 TIP3     15177    TIP3     H1       HT       0.417000       1.00800           0
     55447 TIP3     15177    TIP3     H2       HT       0.417000       1.00800           0
     55448 TIP3     15178    TIP3     OH2      OT      -0.834000       15.9994           0
     55449 TIP3     15178    TIP3     H1       HT       0.417000       1.00800           0
     55450 TIP3     15178    TIP3     H2       HT       0.417000       1.00800           0
     55451 TIP3     15179    TIP3     OH2      OT      -0.834000       15.9994           0
     55452 TIP3     15179    TIP3     H1       HT       0.417000       1.00800           0
     55453 TIP3     15179    TIP3     H2       HT       0.417000       1.00800           0
     55454 TIP3     15180    TIP3     OH2      OT      -0.834000       15.9994           0
     55455 TIP3     15180    TIP3     H1       HT       0.417000       1.00800           0
     55456 TIP3     15180    TIP3     H2       HT       0.417000       1.00800           0
     55457 TIP3     15181    TIP3     OH2      OT      -0.834000       15.9994           0
     55458 TIP3     15181    TIP3     H1       HT       0.417000       1.00800           0
     55459 TIP3     15181    TIP3     H2       HT       0.417000       1.00800           0
     55460 TIP3     15182    TIP3     OH2      OT      -0.834000       15.9994           0
     55461 TIP3     15182    TIP3     H1       HT       0.417000       1.00800           0
     55462 TIP3     15182    TIP3     H2       HT       0.417000       1.00800           0
     55463 TIP3     15183    TIP3     OH2      OT      -0.834000       15.9994           0
     55464 TIP3     15183    TIP3     H1       HT       0.417000       1.00800           0
     55465 TIP3     15183    TIP3     H2       HT       0.417000       1.00800           0
     55466 TIP3     15184    TIP3     OH2      OT      -0.834000       15.9994           0
     55467 TIP3     15184    TIP3     H1       HT       0.417000       1.00800           0
     55468 TIP3     15184    TIP3     H2       HT       0.417000       1.00800           0
     55469 TIP3     15185    TIP3     OH2      OT      -0.834000       15.9994           0
     55470 TIP3     15185    TIP3     H1       HT       0.417000       1.00800           0
     55471 TIP3     15185    TIP3     H2       HT       0.417000       1.00800           0
     55472 TIP3     15186    TIP3     OH2      OT      -0.834000       15.9994           0
     55473 TIP3     15186    TIP3     H1       HT       0.417000       1.00800           0
     55474 TIP3     15186    TIP3     H2       HT       0.417000       1.00800           0
     55475 TIP3     15187    TIP3     OH2      OT      -0.834000       15.9994           0
     55476 TIP3     15187    TIP3     H1       HT       0.417000       1.00800           0
     55477 TIP3     15187    TIP3     H2       HT       0.417000       1.00800           0
     55478 TIP3     15188    TIP3     OH2      OT      -0.834000       15.9994           0
     55479 TIP3     15188    TIP3     H1       HT       0.417000       1.00800           0
     55480 TIP3     15188    TIP3     H2       HT       0.417000       1.00800           0
     55481 TIP3     15189    TIP3     OH2      OT      -0.834000       15.9994           0
     55482 TIP3     15189    TIP3     H1       HT       0.417000       1.00800           0
     55483 TIP3     15189    TIP3     H2       HT       0.417000       1.00800           0
     55484 TIP3     15190    TIP3     OH2      OT      -0.834000       15.9994           0
     55485 TIP3     15190    TIP3     H1       HT       0.417000       1.00800           0
     55486 TIP3     15190    TIP3     H2       HT       0.417000       1.00800           0
     55487 TIP3     15191    TIP3     OH2      OT      -0.834000       15.9994           0
     55488 TIP3     15191    TIP3     H1       HT       0.417000       1.00800           0
     55489 TIP3     15191    TIP3     H2       HT       0.417000       1.00800           0
     55490 TIP3     15192    TIP3     OH2      OT      -0.834000       15.9994           0
     55491 TIP3     15192    TIP3     H1       HT       0.417000       1.00800           0
     55492 TIP3     15192    TIP3     H2       HT       0.417000       1.00800           0
     55493 TIP3     15193    TIP3     OH2      OT      -0.834000       15.9994           0
     55494 TIP3     15193    TIP3     H1       HT       0.417000       1.00800           0
     55495 TIP3     15193    TIP3     H2       HT       0.417000       1.00800           0
     55496 TIP3     15194    TIP3     OH2      OT      -0.834000       15.9994           0
     55497 TIP3     15194    TIP3     H1       HT       0.417000       1.00800           0
     55498 TIP3     15194    TIP3     H2       HT       0.417000       1.00800           0
     55499 TIP3     15195    TIP3     OH2      OT      -0.834000       15.9994           0
     55500 TIP3     15195    TIP3     H1       HT       0.417000       1.00800           0
     55501 TIP3     15195    TIP3     H2       HT       0.417000       1.00800           0
     55502 TIP3     15196    TIP3     OH2      OT      -0.834000       15.9994           0
     55503 TIP3     15196    TIP3     H1       HT       0.417000       1.00800           0
     55504 TIP3     15196    TIP3     H2       HT       0.417000       1.00800           0
     55505 TIP3     15197    TIP3     OH2      OT      -0.834000       15.9994           0
     55506 TIP3     15197    TIP3     H1       HT       0.417000       1.00800           0
     55507 TIP3     15197    TIP3     H2       HT       0.417000       1.00800           0
     55508 TIP3     15198    TIP3     OH2      OT      -0.834000       15.9994           0
     55509 TIP3     15198    TIP3     H1       HT       0.417000       1.00800           0
     55510 TIP3     15198    TIP3     H2       HT       0.417000       1.00800           0
     55511 TIP3     15199    TIP3     OH2      OT      -0.834000       15.9994           0
     55512 TIP3     15199    TIP3     H1       HT       0.417000       1.00800           0
     55513 TIP3     15199    TIP3     H2       HT       0.417000       1.00800           0
     55514 TIP3     15200    TIP3     OH2      OT      -0.834000       15.9994           0
     55515 TIP3     15200    TIP3     H1       HT       0.417000       1.00800           0
     55516 TIP3     15200    TIP3     H2       HT       0.417000       1.00800           0
     55517 TIP3     15201    TIP3     OH2      OT      -0.834000       15.9994           0
     55518 TIP3     15201    TIP3     H1       HT       0.417000       1.00800           0
     55519 TIP3     15201    TIP3     H2       HT       0.417000       1.00800           0
     55520 TIP3     15202    TIP3     OH2      OT      -0.834000       15.9994           0
     55521 TIP3     15202    TIP3     H1       HT       0.417000       1.00800           0
     55522 TIP3     15202    TIP3     H2       HT       0.417000       1.00800           0
     55523 TIP3     15203    TIP3     OH2      OT      -0.834000       15.9994           0
     55524 TIP3     15203    TIP3     H1       HT       0.417000       1.00800           0
     55525 TIP3     15203    TIP3     H2       HT       0.417000       1.00800           0
     55526 TIP3     15204    TIP3     OH2      OT      -0.834000       15.9994           0
     55527 TIP3     15204    TIP3     H1       HT       0.417000       1.00800           0
     55528 TIP3     15204    TIP3     H2       HT       0.417000       1.00800           0
     55529 TIP3     15205    TIP3     OH2      OT      -0.834000       15.9994           0
     55530 TIP3     15205    TIP3     H1       HT       0.417000       1.00800           0
     55531 TIP3     15205    TIP3     H2       HT       0.417000       1.00800           0
     55532 TIP3     15206    TIP3     OH2      OT      -0.834000       15.9994           0
     55533 TIP3     15206    TIP3     H1       HT       0.417000       1.00800           0
     55534 TIP3     15206    TIP3     H2       HT       0.417000       1.00800           0
     55535 TIP3     15207    TIP3     OH2      OT      -0.834000       15.9994           0
     55536 TIP3     15207    TIP3     H1       HT       0.417000       1.00800           0
     55537 TIP3     15207    TIP3     H2       HT       0.417000       1.00800           0
     55538 TIP3     15208    TIP3     OH2      OT      -0.834000       15.9994           0
     55539 TIP3     15208    TIP3     H1       HT       0.417000       1.00800           0
     55540 TIP3     15208    TIP3     H2       HT       0.417000       1.00800           0
     55541 TIP3     15209    TIP3     OH2      OT      -0.834000       15.9994           0
     55542 TIP3     15209    TIP3     H1       HT       0.417000       1.00800           0
     55543 TIP3     15209    TIP3     H2       HT       0.417000       1.00800           0
     55544 TIP3     15210    TIP3     OH2      OT      -0.834000       15.9994           0
     55545 TIP3     15210    TIP3     H1       HT       0.417000       1.00800           0
     55546 TIP3     15210    TIP3     H2       HT       0.417000       1.00800           0
     55547 TIP3     15211    TIP3     OH2      OT      -0.834000       15.9994           0
     55548 TIP3     15211    TIP3     H1       HT       0.417000       1.00800           0
     55549 TIP3     15211    TIP3     H2       HT       0.417000       1.00800           0
     55550 TIP3     15212    TIP3     OH2      OT      -0.834000       15.9994           0
     55551 TIP3     15212    TIP3     H1       HT       0.417000       1.00800           0
     55552 TIP3     15212    TIP3     H2       HT       0.417000       1.00800           0
     55553 TIP3     15213    TIP3     OH2      OT      -0.834000       15.9994           0
     55554 TIP3     15213    TIP3     H1       HT       0.417000       1.00800           0
     55555 TIP3     15213    TIP3     H2       HT       0.417000       1.00800           0
     55556 TIP3     15214    TIP3     OH2      OT      -0.834000       15.9994           0
     55557 TIP3     15214    TIP3     H1       HT       0.417000       1.00800           0
     55558 TIP3     15214    TIP3     H2       HT       0.417000       1.00800           0
     55559 TIP3     15215    TIP3     OH2      OT      -0.834000       15.9994           0
     55560 TIP3     15215    TIP3     H1       HT       0.417000       1.00800           0
     55561 TIP3     15215    TIP3     H2       HT       0.417000       1.00800           0
     55562 TIP3     15216    TIP3     OH2      OT      -0.834000       15.9994           0
     55563 TIP3     15216    TIP3     H1       HT       0.417000       1.00800           0
     55564 TIP3     15216    TIP3     H2       HT       0.417000       1.00800           0
     55565 TIP3     15217    TIP3     OH2      OT      -0.834000       15.9994           0
     55566 TIP3     15217    TIP3     H1       HT       0.417000       1.00800           0
     55567 TIP3     15217    TIP3     H2       HT       0.417000       1.00800           0
     55568 TIP3     15218    TIP3     OH2      OT      -0.834000       15.9994           0
     55569 TIP3     15218    TIP3     H1       HT       0.417000       1.00800           0
     55570 TIP3     15218    TIP3     H2       HT       0.417000       1.00800           0
     55571 TIP3     15219    TIP3     OH2      OT      -0.834000       15.9994           0
     55572 TIP3     15219    TIP3     H1       HT       0.417000       1.00800           0
     55573 TIP3     15219    TIP3     H2       HT       0.417000       1.00800           0
     55574 TIP3     15220    TIP3     OH2      OT      -0.834000       15.9994           0
     55575 TIP3     15220    TIP3     H1       HT       0.417000       1.00800           0
     55576 TIP3     15220    TIP3     H2       HT       0.417000       1.00800           0
     55577 TIP3     15221    TIP3     OH2      OT      -0.834000       15.9994           0
     55578 TIP3     15221    TIP3     H1       HT       0.417000       1.00800           0
     55579 TIP3     15221    TIP3     H2       HT       0.417000       1.00800           0
     55580 TIP3     15222    TIP3     OH2      OT      -0.834000       15.9994           0
     55581 TIP3     15222    TIP3     H1       HT       0.417000       1.00800           0
     55582 TIP3     15222    TIP3     H2       HT       0.417000       1.00800           0
     55583 TIP3     15223    TIP3     OH2      OT      -0.834000       15.9994           0
     55584 TIP3     15223    TIP3     H1       HT       0.417000       1.00800           0
     55585 TIP3     15223    TIP3     H2       HT       0.417000       1.00800           0
     55586 TIP3     15224    TIP3     OH2      OT      -0.834000       15.9994           0
     55587 TIP3     15224    TIP3     H1       HT       0.417000       1.00800           0
     55588 TIP3     15224    TIP3     H2       HT       0.417000       1.00800           0
     55589 TIP3     15225    TIP3     OH2      OT      -0.834000       15.9994           0
     55590 TIP3     15225    TIP3     H1       HT       0.417000       1.00800           0
     55591 TIP3     15225    TIP3     H2       HT       0.417000       1.00800           0
     55592 TIP3     15226    TIP3     OH2      OT      -0.834000       15.9994           0
     55593 TIP3     15226    TIP3     H1       HT       0.417000       1.00800           0
     55594 TIP3     15226    TIP3     H2       HT       0.417000       1.00800           0
     55595 TIP3     15227    TIP3     OH2      OT      -0.834000       15.9994           0
     55596 TIP3     15227    TIP3     H1       HT       0.417000       1.00800           0
     55597 TIP3     15227    TIP3     H2       HT       0.417000       1.00800           0
     55598 TIP3     15228    TIP3     OH2      OT      -0.834000       15.9994           0
     55599 TIP3     15228    TIP3     H1       HT       0.417000       1.00800           0
     55600 TIP3     15228    TIP3     H2       HT       0.417000       1.00800           0
     55601 TIP3     15229    TIP3     OH2      OT      -0.834000       15.9994           0
     55602 TIP3     15229    TIP3     H1       HT       0.417000       1.00800           0
     55603 TIP3     15229    TIP3     H2       HT       0.417000       1.00800           0
     55604 TIP3     15230    TIP3     OH2      OT      -0.834000       15.9994           0
     55605 TIP3     15230    TIP3     H1       HT       0.417000       1.00800           0
     55606 TIP3     15230    TIP3     H2       HT       0.417000       1.00800           0
     55607 TIP3     15231    TIP3     OH2      OT      -0.834000       15.9994           0
     55608 TIP3     15231    TIP3     H1       HT       0.417000       1.00800           0
     55609 TIP3     15231    TIP3     H2       HT       0.417000       1.00800           0
     55610 TIP3     15232    TIP3     OH2      OT      -0.834000       15.9994           0
     55611 TIP3     15232    TIP3     H1       HT       0.417000       1.00800           0
     55612 TIP3     15232    TIP3     H2       HT       0.417000       1.00800           0
     55613 TIP3     15233    TIP3     OH2      OT      -0.834000       15.9994           0
     55614 TIP3     15233    TIP3     H1       HT       0.417000       1.00800           0
     55615 TIP3     15233    TIP3     H2       HT       0.417000       1.00800           0
     55616 TIP3     15234    TIP3     OH2      OT      -0.834000       15.9994           0
     55617 TIP3     15234    TIP3     H1       HT       0.417000       1.00800           0
     55618 TIP3     15234    TIP3     H2       HT       0.417000       1.00800           0
     55619 TIP3     15235    TIP3     OH2      OT      -0.834000       15.9994           0
     55620 TIP3     15235    TIP3     H1       HT       0.417000       1.00800           0
     55621 TIP3     15235    TIP3     H2       HT       0.417000       1.00800           0
     55622 TIP3     15236    TIP3     OH2      OT      -0.834000       15.9994           0
     55623 TIP3     15236    TIP3     H1       HT       0.417000       1.00800           0
     55624 TIP3     15236    TIP3     H2       HT       0.417000       1.00800           0
     55625 TIP3     15237    TIP3     OH2      OT      -0.834000       15.9994           0
     55626 TIP3     15237    TIP3     H1       HT       0.417000       1.00800           0
     55627 TIP3     15237    TIP3     H2       HT       0.417000       1.00800           0
     55628 TIP3     15238    TIP3     OH2      OT      -0.834000       15.9994           0
     55629 TIP3     15238    TIP3     H1       HT       0.417000       1.00800           0
     55630 TIP3     15238    TIP3     H2       HT       0.417000       1.00800           0
     55631 TIP3     15239    TIP3     OH2      OT      -0.834000       15.9994           0
     55632 TIP3     15239    TIP3     H1       HT       0.417000       1.00800           0
     55633 TIP3     15239    TIP3     H2       HT       0.417000       1.00800           0
     55634 TIP3     15240    TIP3     OH2      OT      -0.834000       15.9994           0
     55635 TIP3     15240    TIP3     H1       HT       0.417000       1.00800           0
     55636 TIP3     15240    TIP3     H2       HT       0.417000       1.00800           0
     55637 TIP3     15241    TIP3     OH2      OT      -0.834000       15.9994           0
     55638 TIP3     15241    TIP3     H1       HT       0.417000       1.00800           0
     55639 TIP3     15241    TIP3     H2       HT       0.417000       1.00800           0
     55640 TIP3     15242    TIP3     OH2      OT      -0.834000       15.9994           0
     55641 TIP3     15242    TIP3     H1       HT       0.417000       1.00800           0
     55642 TIP3     15242    TIP3     H2       HT       0.417000       1.00800           0
     55643 TIP3     15243    TIP3     OH2      OT      -0.834000       15.9994           0
     55644 TIP3     15243    TIP3     H1       HT       0.417000       1.00800           0
     55645 TIP3     15243    TIP3     H2       HT       0.417000       1.00800           0
     55646 TIP3     15244    TIP3     OH2      OT      -0.834000       15.9994           0
     55647 TIP3     15244    TIP3     H1       HT       0.417000       1.00800           0
     55648 TIP3     15244    TIP3     H2       HT       0.417000       1.00800           0
     55649 TIP3     15245    TIP3     OH2      OT      -0.834000       15.9994           0
     55650 TIP3     15245    TIP3     H1       HT       0.417000       1.00800           0
     55651 TIP3     15245    TIP3     H2       HT       0.417000       1.00800           0
     55652 TIP3     15246    TIP3     OH2      OT      -0.834000       15.9994           0
     55653 TIP3     15246    TIP3     H1       HT       0.417000       1.00800           0
     55654 TIP3     15246    TIP3     H2       HT       0.417000       1.00800           0
     55655 TIP3     15247    TIP3     OH2      OT      -0.834000       15.9994           0
     55656 TIP3     15247    TIP3     H1       HT       0.417000       1.00800           0
     55657 TIP3     15247    TIP3     H2       HT       0.417000       1.00800           0
     55658 TIP3     15248    TIP3     OH2      OT      -0.834000       15.9994           0
     55659 TIP3     15248    TIP3     H1       HT       0.417000       1.00800           0
     55660 TIP3     15248    TIP3     H2       HT       0.417000       1.00800           0
     55661 TIP3     15249    TIP3     OH2      OT      -0.834000       15.9994           0
     55662 TIP3     15249    TIP3     H1       HT       0.417000       1.00800           0
     55663 TIP3     15249    TIP3     H2       HT       0.417000       1.00800           0
     55664 TIP3     15250    TIP3     OH2      OT      -0.834000       15.9994           0
     55665 TIP3     15250    TIP3     H1       HT       0.417000       1.00800           0
     55666 TIP3     15250    TIP3     H2       HT       0.417000       1.00800           0
     55667 TIP3     15251    TIP3     OH2      OT      -0.834000       15.9994           0
     55668 TIP3     15251    TIP3     H1       HT       0.417000       1.00800           0
     55669 TIP3     15251    TIP3     H2       HT       0.417000       1.00800           0
     55670 TIP3     15252    TIP3     OH2      OT      -0.834000       15.9994           0
     55671 TIP3     15252    TIP3     H1       HT       0.417000       1.00800           0
     55672 TIP3     15252    TIP3     H2       HT       0.417000       1.00800           0
     55673 TIP3     15253    TIP3     OH2      OT      -0.834000       15.9994           0
     55674 TIP3     15253    TIP3     H1       HT       0.417000       1.00800           0
     55675 TIP3     15253    TIP3     H2       HT       0.417000       1.00800           0
     55676 TIP3     15254    TIP3     OH2      OT      -0.834000       15.9994           0
     55677 TIP3     15254    TIP3     H1       HT       0.417000       1.00800           0
     55678 TIP3     15254    TIP3     H2       HT       0.417000       1.00800           0
     55679 TIP3     15255    TIP3     OH2      OT      -0.834000       15.9994           0
     55680 TIP3     15255    TIP3     H1       HT       0.417000       1.00800           0
     55681 TIP3     15255    TIP3     H2       HT       0.417000       1.00800           0
     55682 TIP3     15256    TIP3     OH2      OT      -0.834000       15.9994           0
     55683 TIP3     15256    TIP3     H1       HT       0.417000       1.00800           0
     55684 TIP3     15256    TIP3     H2       HT       0.417000       1.00800           0
     55685 TIP3     15257    TIP3     OH2      OT      -0.834000       15.9994           0
     55686 TIP3     15257    TIP3     H1       HT       0.417000       1.00800           0
     55687 TIP3     15257    TIP3     H2       HT       0.417000       1.00800           0
     55688 TIP3     15258    TIP3     OH2      OT      -0.834000       15.9994           0
     55689 TIP3     15258    TIP3     H1       HT       0.417000       1.00800           0
     55690 TIP3     15258    TIP3     H2       HT       0.417000       1.00800           0
     55691 TIP3     15259    TIP3     OH2      OT      -0.834000       15.9994           0
     55692 TIP3     15259    TIP3     H1       HT       0.417000       1.00800           0
     55693 TIP3     15259    TIP3     H2       HT       0.417000       1.00800           0
     55694 TIP3     15260    TIP3     OH2      OT      -0.834000       15.9994           0
     55695 TIP3     15260    TIP3     H1       HT       0.417000       1.00800           0
     55696 TIP3     15260    TIP3     H2       HT       0.417000       1.00800           0
     55697 TIP3     15261    TIP3     OH2      OT      -0.834000       15.9994           0
     55698 TIP3     15261    TIP3     H1       HT       0.417000       1.00800           0
     55699 TIP3     15261    TIP3     H2       HT       0.417000       1.00800           0
     55700 TIP3     15262    TIP3     OH2      OT      -0.834000       15.9994           0
     55701 TIP3     15262    TIP3     H1       HT       0.417000       1.00800           0
     55702 TIP3     15262    TIP3     H2       HT       0.417000       1.00800           0
     55703 TIP3     15263    TIP3     OH2      OT      -0.834000       15.9994           0
     55704 TIP3     15263    TIP3     H1       HT       0.417000       1.00800           0
     55705 TIP3     15263    TIP3     H2       HT       0.417000       1.00800           0
     55706 TIP3     15264    TIP3     OH2      OT      -0.834000       15.9994           0
     55707 TIP3     15264    TIP3     H1       HT       0.417000       1.00800           0
     55708 TIP3     15264    TIP3     H2       HT       0.417000       1.00800           0
     55709 TIP3     15265    TIP3     OH2      OT      -0.834000       15.9994           0
     55710 TIP3     15265    TIP3     H1       HT       0.417000       1.00800           0
     55711 TIP3     15265    TIP3     H2       HT       0.417000       1.00800           0
     55712 TIP3     15266    TIP3     OH2      OT      -0.834000       15.9994           0
     55713 TIP3     15266    TIP3     H1       HT       0.417000       1.00800           0
     55714 TIP3     15266    TIP3     H2       HT       0.417000       1.00800           0
     55715 TIP3     15267    TIP3     OH2      OT      -0.834000       15.9994           0
     55716 TIP3     15267    TIP3     H1       HT       0.417000       1.00800           0
     55717 TIP3     15267    TIP3     H2       HT       0.417000       1.00800           0
     55718 TIP3     15268    TIP3     OH2      OT      -0.834000       15.9994           0
     55719 TIP3     15268    TIP3     H1       HT       0.417000       1.00800           0
     55720 TIP3     15268    TIP3     H2       HT       0.417000       1.00800           0
     55721 TIP3     15269    TIP3     OH2      OT      -0.834000       15.9994           0
     55722 TIP3     15269    TIP3     H1       HT       0.417000       1.00800           0
     55723 TIP3     15269    TIP3     H2       HT       0.417000       1.00800           0
     55724 TIP3     15270    TIP3     OH2      OT      -0.834000       15.9994           0
     55725 TIP3     15270    TIP3     H1       HT       0.417000       1.00800           0
     55726 TIP3     15270    TIP3     H2       HT       0.417000       1.00800           0
     55727 TIP3     15271    TIP3     OH2      OT      -0.834000       15.9994           0
     55728 TIP3     15271    TIP3     H1       HT       0.417000       1.00800           0
     55729 TIP3     15271    TIP3     H2       HT       0.417000       1.00800           0
     55730 TIP3     15272    TIP3     OH2      OT      -0.834000       15.9994           0
     55731 TIP3     15272    TIP3     H1       HT       0.417000       1.00800           0
     55732 TIP3     15272    TIP3     H2       HT       0.417000       1.00800           0
     55733 TIP3     15273    TIP3     OH2      OT      -0.834000       15.9994           0
     55734 TIP3     15273    TIP3     H1       HT       0.417000       1.00800           0
     55735 TIP3     15273    TIP3     H2       HT       0.417000       1.00800           0
     55736 TIP3     15274    TIP3     OH2      OT      -0.834000       15.9994           0
     55737 TIP3     15274    TIP3     H1       HT       0.417000       1.00800           0
     55738 TIP3     15274    TIP3     H2       HT       0.417000       1.00800           0
     55739 TIP3     15275    TIP3     OH2      OT      -0.834000       15.9994           0
     55740 TIP3     15275    TIP3     H1       HT       0.417000       1.00800           0
     55741 TIP3     15275    TIP3     H2       HT       0.417000       1.00800           0
     55742 TIP3     15276    TIP3     OH2      OT      -0.834000       15.9994           0
     55743 TIP3     15276    TIP3     H1       HT       0.417000       1.00800           0
     55744 TIP3     15276    TIP3     H2       HT       0.417000       1.00800           0
     55745 TIP3     15277    TIP3     OH2      OT      -0.834000       15.9994           0
     55746 TIP3     15277    TIP3     H1       HT       0.417000       1.00800           0
     55747 TIP3     15277    TIP3     H2       HT       0.417000       1.00800           0
     55748 TIP3     15278    TIP3     OH2      OT      -0.834000       15.9994           0
     55749 TIP3     15278    TIP3     H1       HT       0.417000       1.00800           0
     55750 TIP3     15278    TIP3     H2       HT       0.417000       1.00800           0
     55751 TIP3     15279    TIP3     OH2      OT      -0.834000       15.9994           0
     55752 TIP3     15279    TIP3     H1       HT       0.417000       1.00800           0
     55753 TIP3     15279    TIP3     H2       HT       0.417000       1.00800           0
     55754 TIP3     15280    TIP3     OH2      OT      -0.834000       15.9994           0
     55755 TIP3     15280    TIP3     H1       HT       0.417000       1.00800           0
     55756 TIP3     15280    TIP3     H2       HT       0.417000       1.00800           0
     55757 TIP3     15281    TIP3     OH2      OT      -0.834000       15.9994           0
     55758 TIP3     15281    TIP3     H1       HT       0.417000       1.00800           0
     55759 TIP3     15281    TIP3     H2       HT       0.417000       1.00800           0
     55760 TIP3     15282    TIP3     OH2      OT      -0.834000       15.9994           0
     55761 TIP3     15282    TIP3     H1       HT       0.417000       1.00800           0
     55762 TIP3     15282    TIP3     H2       HT       0.417000       1.00800           0
     55763 TIP3     15283    TIP3     OH2      OT      -0.834000       15.9994           0
     55764 TIP3     15283    TIP3     H1       HT       0.417000       1.00800           0
     55765 TIP3     15283    TIP3     H2       HT       0.417000       1.00800           0
     55766 TIP3     15284    TIP3     OH2      OT      -0.834000       15.9994           0
     55767 TIP3     15284    TIP3     H1       HT       0.417000       1.00800           0
     55768 TIP3     15284    TIP3     H2       HT       0.417000       1.00800           0
     55769 TIP3     15285    TIP3     OH2      OT      -0.834000       15.9994           0
     55770 TIP3     15285    TIP3     H1       HT       0.417000       1.00800           0
     55771 TIP3     15285    TIP3     H2       HT       0.417000       1.00800           0
     55772 TIP3     15286    TIP3     OH2      OT      -0.834000       15.9994           0
     55773 TIP3     15286    TIP3     H1       HT       0.417000       1.00800           0
     55774 TIP3     15286    TIP3     H2       HT       0.417000       1.00800           0
     55775 TIP3     15287    TIP3     OH2      OT      -0.834000       15.9994           0
     55776 TIP3     15287    TIP3     H1       HT       0.417000       1.00800           0
     55777 TIP3     15287    TIP3     H2       HT       0.417000       1.00800           0
     55778 TIP3     15288    TIP3     OH2      OT      -0.834000       15.9994           0
     55779 TIP3     15288    TIP3     H1       HT       0.417000       1.00800           0
     55780 TIP3     15288    TIP3     H2       HT       0.417000       1.00800           0
     55781 TIP3     15289    TIP3     OH2      OT      -0.834000       15.9994           0
     55782 TIP3     15289    TIP3     H1       HT       0.417000       1.00800           0
     55783 TIP3     15289    TIP3     H2       HT       0.417000       1.00800           0
     55784 TIP3     15290    TIP3     OH2      OT      -0.834000       15.9994           0
     55785 TIP3     15290    TIP3     H1       HT       0.417000       1.00800           0
     55786 TIP3     15290    TIP3     H2       HT       0.417000       1.00800           0
     55787 TIP3     15291    TIP3     OH2      OT      -0.834000       15.9994           0
     55788 TIP3     15291    TIP3     H1       HT       0.417000       1.00800           0
     55789 TIP3     15291    TIP3     H2       HT       0.417000       1.00800           0
     55790 TIP3     15292    TIP3     OH2      OT      -0.834000       15.9994           0
     55791 TIP3     15292    TIP3     H1       HT       0.417000       1.00800           0
     55792 TIP3     15292    TIP3     H2       HT       0.417000       1.00800           0
     55793 TIP3     15293    TIP3     OH2      OT      -0.834000       15.9994           0
     55794 TIP3     15293    TIP3     H1       HT       0.417000       1.00800           0
     55795 TIP3     15293    TIP3     H2       HT       0.417000       1.00800           0
     55796 TIP3     15294    TIP3     OH2      OT      -0.834000       15.9994           0
     55797 TIP3     15294    TIP3     H1       HT       0.417000       1.00800           0
     55798 TIP3     15294    TIP3     H2       HT       0.417000       1.00800           0
     55799 TIP3     15295    TIP3     OH2      OT      -0.834000       15.9994           0
     55800 TIP3     15295    TIP3     H1       HT       0.417000       1.00800           0
     55801 TIP3     15295    TIP3     H2       HT       0.417000       1.00800           0
     55802 TIP3     15296    TIP3     OH2      OT      -0.834000       15.9994           0
     55803 TIP3     15296    TIP3     H1       HT       0.417000       1.00800           0
     55804 TIP3     15296    TIP3     H2       HT       0.417000       1.00800           0
     55805 TIP3     15297    TIP3     OH2      OT      -0.834000       15.9994           0
     55806 TIP3     15297    TIP3     H1       HT       0.417000       1.00800           0
     55807 TIP3     15297    TIP3     H2       HT       0.417000       1.00800           0
     55808 TIP3     15298    TIP3     OH2      OT      -0.834000       15.9994           0
     55809 TIP3     15298    TIP3     H1       HT       0.417000       1.00800           0
     55810 TIP3     15298    TIP3     H2       HT       0.417000       1.00800           0
     55811 TIP3     15299    TIP3     OH2      OT      -0.834000       15.9994           0
     55812 TIP3     15299    TIP3     H1       HT       0.417000       1.00800           0
     55813 TIP3     15299    TIP3     H2       HT       0.417000       1.00800           0
     55814 TIP3     15300    TIP3     OH2      OT      -0.834000       15.9994           0
     55815 TIP3     15300    TIP3     H1       HT       0.417000       1.00800           0
     55816 TIP3     15300    TIP3     H2       HT       0.417000       1.00800           0
     55817 TIP3     15301    TIP3     OH2      OT      -0.834000       15.9994           0
     55818 TIP3     15301    TIP3     H1       HT       0.417000       1.00800           0
     55819 TIP3     15301    TIP3     H2       HT       0.417000       1.00800           0
     55820 TIP3     15302    TIP3     OH2      OT      -0.834000       15.9994           0
     55821 TIP3     15302    TIP3     H1       HT       0.417000       1.00800           0
     55822 TIP3     15302    TIP3     H2       HT       0.417000       1.00800           0
     55823 TIP3     15303    TIP3     OH2      OT      -0.834000       15.9994           0
     55824 TIP3     15303    TIP3     H1       HT       0.417000       1.00800           0
     55825 TIP3     15303    TIP3     H2       HT       0.417000       1.00800           0
     55826 TIP3     15304    TIP3     OH2      OT      -0.834000       15.9994           0
     55827 TIP3     15304    TIP3     H1       HT       0.417000       1.00800           0
     55828 TIP3     15304    TIP3     H2       HT       0.417000       1.00800           0
     55829 TIP3     15305    TIP3     OH2      OT      -0.834000       15.9994           0
     55830 TIP3     15305    TIP3     H1       HT       0.417000       1.00800           0
     55831 TIP3     15305    TIP3     H2       HT       0.417000       1.00800           0
     55832 TIP3     15306    TIP3     OH2      OT      -0.834000       15.9994           0
     55833 TIP3     15306    TIP3     H1       HT       0.417000       1.00800           0
     55834 TIP3     15306    TIP3     H2       HT       0.417000       1.00800           0
     55835 TIP3     15307    TIP3     OH2      OT      -0.834000       15.9994           0
     55836 TIP3     15307    TIP3     H1       HT       0.417000       1.00800           0
     55837 TIP3     15307    TIP3     H2       HT       0.417000       1.00800           0
     55838 TIP3     15308    TIP3     OH2      OT      -0.834000       15.9994           0
     55839 TIP3     15308    TIP3     H1       HT       0.417000       1.00800           0
     55840 TIP3     15308    TIP3     H2       HT       0.417000       1.00800           0
     55841 TIP3     15309    TIP3     OH2      OT      -0.834000       15.9994           0
     55842 TIP3     15309    TIP3     H1       HT       0.417000       1.00800           0
     55843 TIP3     15309    TIP3     H2       HT       0.417000       1.00800           0
     55844 TIP3     15310    TIP3     OH2      OT      -0.834000       15.9994           0
     55845 TIP3     15310    TIP3     H1       HT       0.417000       1.00800           0
     55846 TIP3     15310    TIP3     H2       HT       0.417000       1.00800           0
     55847 TIP3     15311    TIP3     OH2      OT      -0.834000       15.9994           0
     55848 TIP3     15311    TIP3     H1       HT       0.417000       1.00800           0
     55849 TIP3     15311    TIP3     H2       HT       0.417000       1.00800           0
     55850 TIP3     15312    TIP3     OH2      OT      -0.834000       15.9994           0
     55851 TIP3     15312    TIP3     H1       HT       0.417000       1.00800           0
     55852 TIP3     15312    TIP3     H2       HT       0.417000       1.00800           0
     55853 TIP3     15313    TIP3     OH2      OT      -0.834000       15.9994           0
     55854 TIP3     15313    TIP3     H1       HT       0.417000       1.00800           0
     55855 TIP3     15313    TIP3     H2       HT       0.417000       1.00800           0
     55856 TIP3     15314    TIP3     OH2      OT      -0.834000       15.9994           0
     55857 TIP3     15314    TIP3     H1       HT       0.417000       1.00800           0
     55858 TIP3     15314    TIP3     H2       HT       0.417000       1.00800           0
     55859 TIP3     15315    TIP3     OH2      OT      -0.834000       15.9994           0
     55860 TIP3     15315    TIP3     H1       HT       0.417000       1.00800           0
     55861 TIP3     15315    TIP3     H2       HT       0.417000       1.00800           0
     55862 TIP3     15316    TIP3     OH2      OT      -0.834000       15.9994           0
     55863 TIP3     15316    TIP3     H1       HT       0.417000       1.00800           0
     55864 TIP3     15316    TIP3     H2       HT       0.417000       1.00800           0
     55865 TIP3     15317    TIP3     OH2      OT      -0.834000       15.9994           0
     55866 TIP3     15317    TIP3     H1       HT       0.417000       1.00800           0
     55867 TIP3     15317    TIP3     H2       HT       0.417000       1.00800           0
     55868 TIP3     15318    TIP3     OH2      OT      -0.834000       15.9994           0
     55869 TIP3     15318    TIP3     H1       HT       0.417000       1.00800           0
     55870 TIP3     15318    TIP3     H2       HT       0.417000       1.00800           0
     55871 TIP3     15319    TIP3     OH2      OT      -0.834000       15.9994           0
     55872 TIP3     15319    TIP3     H1       HT       0.417000       1.00800           0
     55873 TIP3     15319    TIP3     H2       HT       0.417000       1.00800           0
     55874 TIP3     15320    TIP3     OH2      OT      -0.834000       15.9994           0
     55875 TIP3     15320    TIP3     H1       HT       0.417000       1.00800           0
     55876 TIP3     15320    TIP3     H2       HT       0.417000       1.00800           0
     55877 TIP3     15321    TIP3     OH2      OT      -0.834000       15.9994           0
     55878 TIP3     15321    TIP3     H1       HT       0.417000       1.00800           0
     55879 TIP3     15321    TIP3     H2       HT       0.417000       1.00800           0
     55880 TIP3     15322    TIP3     OH2      OT      -0.834000       15.9994           0
     55881 TIP3     15322    TIP3     H1       HT       0.417000       1.00800           0
     55882 TIP3     15322    TIP3     H2       HT       0.417000       1.00800           0
     55883 TIP3     15323    TIP3     OH2      OT      -0.834000       15.9994           0
     55884 TIP3     15323    TIP3     H1       HT       0.417000       1.00800           0
     55885 TIP3     15323    TIP3     H2       HT       0.417000       1.00800           0
     55886 TIP3     15324    TIP3     OH2      OT      -0.834000       15.9994           0
     55887 TIP3     15324    TIP3     H1       HT       0.417000       1.00800           0
     55888 TIP3     15324    TIP3     H2       HT       0.417000       1.00800           0
     55889 TIP3     15325    TIP3     OH2      OT      -0.834000       15.9994           0
     55890 TIP3     15325    TIP3     H1       HT       0.417000       1.00800           0
     55891 TIP3     15325    TIP3     H2       HT       0.417000       1.00800           0
     55892 TIP3     15326    TIP3     OH2      OT      -0.834000       15.9994           0
     55893 TIP3     15326    TIP3     H1       HT       0.417000       1.00800           0
     55894 TIP3     15326    TIP3     H2       HT       0.417000       1.00800           0
     55895 TIP3     15327    TIP3     OH2      OT      -0.834000       15.9994           0
     55896 TIP3     15327    TIP3     H1       HT       0.417000       1.00800           0
     55897 TIP3     15327    TIP3     H2       HT       0.417000       1.00800           0
     55898 TIP3     15328    TIP3     OH2      OT      -0.834000       15.9994           0
     55899 TIP3     15328    TIP3     H1       HT       0.417000       1.00800           0
     55900 TIP3     15328    TIP3     H2       HT       0.417000       1.00800           0
     55901 TIP3     15329    TIP3     OH2      OT      -0.834000       15.9994           0
     55902 TIP3     15329    TIP3     H1       HT       0.417000       1.00800           0
     55903 TIP3     15329    TIP3     H2       HT       0.417000       1.00800           0
     55904 TIP3     15330    TIP3     OH2      OT      -0.834000       15.9994           0
     55905 TIP3     15330    TIP3     H1       HT       0.417000       1.00800           0
     55906 TIP3     15330    TIP3     H2       HT       0.417000       1.00800           0
     55907 TIP3     15331    TIP3     OH2      OT      -0.834000       15.9994           0
     55908 TIP3     15331    TIP3     H1       HT       0.417000       1.00800           0
     55909 TIP3     15331    TIP3     H2       HT       0.417000       1.00800           0
     55910 TIP3     15332    TIP3     OH2      OT      -0.834000       15.9994           0
     55911 TIP3     15332    TIP3     H1       HT       0.417000       1.00800           0
     55912 TIP3     15332    TIP3     H2       HT       0.417000       1.00800           0
     55913 TIP3     15333    TIP3     OH2      OT      -0.834000       15.9994           0
     55914 TIP3     15333    TIP3     H1       HT       0.417000       1.00800           0
     55915 TIP3     15333    TIP3     H2       HT       0.417000       1.00800           0
     55916 TIP3     15334    TIP3     OH2      OT      -0.834000       15.9994           0
     55917 TIP3     15334    TIP3     H1       HT       0.417000       1.00800           0
     55918 TIP3     15334    TIP3     H2       HT       0.417000       1.00800           0
     55919 TIP3     15335    TIP3     OH2      OT      -0.834000       15.9994           0
     55920 TIP3     15335    TIP3     H1       HT       0.417000       1.00800           0
     55921 TIP3     15335    TIP3     H2       HT       0.417000       1.00800           0
     55922 TIP3     15336    TIP3     OH2      OT      -0.834000       15.9994           0
     55923 TIP3     15336    TIP3     H1       HT       0.417000       1.00800           0
     55924 TIP3     15336    TIP3     H2       HT       0.417000       1.00800           0
     55925 TIP3     15337    TIP3     OH2      OT      -0.834000       15.9994           0
     55926 TIP3     15337    TIP3     H1       HT       0.417000       1.00800           0
     55927 TIP3     15337    TIP3     H2       HT       0.417000       1.00800           0
     55928 TIP3     15338    TIP3     OH2      OT      -0.834000       15.9994           0
     55929 TIP3     15338    TIP3     H1       HT       0.417000       1.00800           0
     55930 TIP3     15338    TIP3     H2       HT       0.417000       1.00800           0
     55931 TIP3     15339    TIP3     OH2      OT      -0.834000       15.9994           0
     55932 TIP3     15339    TIP3     H1       HT       0.417000       1.00800           0
     55933 TIP3     15339    TIP3     H2       HT       0.417000       1.00800           0
     55934 TIP3     15340    TIP3     OH2      OT      -0.834000       15.9994           0
     55935 TIP3     15340    TIP3     H1       HT       0.417000       1.00800           0
     55936 TIP3     15340    TIP3     H2       HT       0.417000       1.00800           0
     55937 TIP3     15341    TIP3     OH2      OT      -0.834000       15.9994           0
     55938 TIP3     15341    TIP3     H1       HT       0.417000       1.00800           0
     55939 TIP3     15341    TIP3     H2       HT       0.417000       1.00800           0
     55940 TIP3     15342    TIP3     OH2      OT      -0.834000       15.9994           0
     55941 TIP3     15342    TIP3     H1       HT       0.417000       1.00800           0
     55942 TIP3     15342    TIP3     H2       HT       0.417000       1.00800           0
     55943 TIP3     15343    TIP3     OH2      OT      -0.834000       15.9994           0
     55944 TIP3     15343    TIP3     H1       HT       0.417000       1.00800           0
     55945 TIP3     15343    TIP3     H2       HT       0.417000       1.00800           0
     55946 TIP3     15344    TIP3     OH2      OT      -0.834000       15.9994           0
     55947 TIP3     15344    TIP3     H1       HT       0.417000       1.00800           0
     55948 TIP3     15344    TIP3     H2       HT       0.417000       1.00800           0
     55949 TIP3     15345    TIP3     OH2      OT      -0.834000       15.9994           0
     55950 TIP3     15345    TIP3     H1       HT       0.417000       1.00800           0
     55951 TIP3     15345    TIP3     H2       HT       0.417000       1.00800           0
     55952 TIP3     15346    TIP3     OH2      OT      -0.834000       15.9994           0
     55953 TIP3     15346    TIP3     H1       HT       0.417000       1.00800           0
     55954 TIP3     15346    TIP3     H2       HT       0.417000       1.00800           0
     55955 TIP3     15347    TIP3     OH2      OT      -0.834000       15.9994           0
     55956 TIP3     15347    TIP3     H1       HT       0.417000       1.00800           0
     55957 TIP3     15347    TIP3     H2       HT       0.417000       1.00800           0
     55958 TIP3     15348    TIP3     OH2      OT      -0.834000       15.9994           0
     55959 TIP3     15348    TIP3     H1       HT       0.417000       1.00800           0
     55960 TIP3     15348    TIP3     H2       HT       0.417000       1.00800           0
     55961 TIP3     15349    TIP3     OH2      OT      -0.834000       15.9994           0
     55962 TIP3     15349    TIP3     H1       HT       0.417000       1.00800           0
     55963 TIP3     15349    TIP3     H2       HT       0.417000       1.00800           0
     55964 TIP3     15350    TIP3     OH2      OT      -0.834000       15.9994           0
     55965 TIP3     15350    TIP3     H1       HT       0.417000       1.00800           0
     55966 TIP3     15350    TIP3     H2       HT       0.417000       1.00800           0
     55967 TIP3     15351    TIP3     OH2      OT      -0.834000       15.9994           0
     55968 TIP3     15351    TIP3     H1       HT       0.417000       1.00800           0
     55969 TIP3     15351    TIP3     H2       HT       0.417000       1.00800           0
     55970 TIP3     15352    TIP3     OH2      OT      -0.834000       15.9994           0
     55971 TIP3     15352    TIP3     H1       HT       0.417000       1.00800           0
     55972 TIP3     15352    TIP3     H2       HT       0.417000       1.00800           0
     55973 TIP3     15353    TIP3     OH2      OT      -0.834000       15.9994           0
     55974 TIP3     15353    TIP3     H1       HT       0.417000       1.00800           0
     55975 TIP3     15353    TIP3     H2       HT       0.417000       1.00800           0
     55976 TIP3     15354    TIP3     OH2      OT      -0.834000       15.9994           0
     55977 TIP3     15354    TIP3     H1       HT       0.417000       1.00800           0
     55978 TIP3     15354    TIP3     H2       HT       0.417000       1.00800           0
     55979 TIP3     15355    TIP3     OH2      OT      -0.834000       15.9994           0
     55980 TIP3     15355    TIP3     H1       HT       0.417000       1.00800           0
     55981 TIP3     15355    TIP3     H2       HT       0.417000       1.00800           0
     55982 TIP3     15356    TIP3     OH2      OT      -0.834000       15.9994           0
     55983 TIP3     15356    TIP3     H1       HT       0.417000       1.00800           0
     55984 TIP3     15356    TIP3     H2       HT       0.417000       1.00800           0
     55985 TIP3     15357    TIP3     OH2      OT      -0.834000       15.9994           0
     55986 TIP3     15357    TIP3     H1       HT       0.417000       1.00800           0
     55987 TIP3     15357    TIP3     H2       HT       0.417000       1.00800           0
     55988 TIP3     15358    TIP3     OH2      OT      -0.834000       15.9994           0
     55989 TIP3     15358    TIP3     H1       HT       0.417000       1.00800           0
     55990 TIP3     15358    TIP3     H2       HT       0.417000       1.00800           0
     55991 TIP3     15359    TIP3     OH2      OT      -0.834000       15.9994           0
     55992 TIP3     15359    TIP3     H1       HT       0.417000       1.00800           0
     55993 TIP3     15359    TIP3     H2       HT       0.417000       1.00800           0
     55994 TIP3     15360    TIP3     OH2      OT      -0.834000       15.9994           0
     55995 TIP3     15360    TIP3     H1       HT       0.417000       1.00800           0
     55996 TIP3     15360    TIP3     H2       HT       0.417000       1.00800           0
     55997 TIP3     15361    TIP3     OH2      OT      -0.834000       15.9994           0
     55998 TIP3     15361    TIP3     H1       HT       0.417000       1.00800           0
     55999 TIP3     15361    TIP3     H2       HT       0.417000       1.00800           0
     56000 TIP3     15362    TIP3     OH2      OT      -0.834000       15.9994           0
     56001 TIP3     15362    TIP3     H1       HT       0.417000       1.00800           0
     56002 TIP3     15362    TIP3     H2       HT       0.417000       1.00800           0
     56003 TIP3     15363    TIP3     OH2      OT      -0.834000       15.9994           0
     56004 TIP3     15363    TIP3     H1       HT       0.417000       1.00800           0
     56005 TIP3     15363    TIP3     H2       HT       0.417000       1.00800           0
     56006 TIP3     15364    TIP3     OH2      OT      -0.834000       15.9994           0
     56007 TIP3     15364    TIP3     H1       HT       0.417000       1.00800           0
     56008 TIP3     15364    TIP3     H2       HT       0.417000       1.00800           0
     56009 TIP3     15365    TIP3     OH2      OT      -0.834000       15.9994           0
     56010 TIP3     15365    TIP3     H1       HT       0.417000       1.00800           0
     56011 TIP3     15365    TIP3     H2       HT       0.417000       1.00800           0
     56012 TIP3     15366    TIP3     OH2      OT      -0.834000       15.9994           0
     56013 TIP3     15366    TIP3     H1       HT       0.417000       1.00800           0
     56014 TIP3     15366    TIP3     H2       HT       0.417000       1.00800           0
     56015 TIP3     15367    TIP3     OH2      OT      -0.834000       15.9994           0
     56016 TIP3     15367    TIP3     H1       HT       0.417000       1.00800           0
     56017 TIP3     15367    TIP3     H2       HT       0.417000       1.00800           0
     56018 TIP3     15368    TIP3     OH2      OT      -0.834000       15.9994           0
     56019 TIP3     15368    TIP3     H1       HT       0.417000       1.00800           0
     56020 TIP3     15368    TIP3     H2       HT       0.417000       1.00800           0
     56021 TIP3     15369    TIP3     OH2      OT      -0.834000       15.9994           0
     56022 TIP3     15369    TIP3     H1       HT       0.417000       1.00800           0
     56023 TIP3     15369    TIP3     H2       HT       0.417000       1.00800           0
     56024 TIP3     15370    TIP3     OH2      OT      -0.834000       15.9994           0
     56025 TIP3     15370    TIP3     H1       HT       0.417000       1.00800           0
     56026 TIP3     15370    TIP3     H2       HT       0.417000       1.00800           0
     56027 TIP3     15371    TIP3     OH2      OT      -0.834000       15.9994           0
     56028 TIP3     15371    TIP3     H1       HT       0.417000       1.00800           0
     56029 TIP3     15371    TIP3     H2       HT       0.417000       1.00800           0
     56030 TIP3     15372    TIP3     OH2      OT      -0.834000       15.9994           0
     56031 TIP3     15372    TIP3     H1       HT       0.417000       1.00800           0
     56032 TIP3     15372    TIP3     H2       HT       0.417000       1.00800           0
     56033 TIP3     15373    TIP3     OH2      OT      -0.834000       15.9994           0
     56034 TIP3     15373    TIP3     H1       HT       0.417000       1.00800           0
     56035 TIP3     15373    TIP3     H2       HT       0.417000       1.00800           0
     56036 TIP3     15374    TIP3     OH2      OT      -0.834000       15.9994           0
     56037 TIP3     15374    TIP3     H1       HT       0.417000       1.00800           0
     56038 TIP3     15374    TIP3     H2       HT       0.417000       1.00800           0
     56039 TIP3     15375    TIP3     OH2      OT      -0.834000       15.9994           0
     56040 TIP3     15375    TIP3     H1       HT       0.417000       1.00800           0
     56041 TIP3     15375    TIP3     H2       HT       0.417000       1.00800           0
     56042 TIP3     15376    TIP3     OH2      OT      -0.834000       15.9994           0
     56043 TIP3     15376    TIP3     H1       HT       0.417000       1.00800           0
     56044 TIP3     15376    TIP3     H2       HT       0.417000       1.00800           0
     56045 TIP3     15377    TIP3     OH2      OT      -0.834000       15.9994           0
     56046 TIP3     15377    TIP3     H1       HT       0.417000       1.00800           0
     56047 TIP3     15377    TIP3     H2       HT       0.417000       1.00800           0
     56048 TIP3     15378    TIP3     OH2      OT      -0.834000       15.9994           0
     56049 TIP3     15378    TIP3     H1       HT       0.417000       1.00800           0
     56050 TIP3     15378    TIP3     H2       HT       0.417000       1.00800           0
     56051 TIP3     15379    TIP3     OH2      OT      -0.834000       15.9994           0
     56052 TIP3     15379    TIP3     H1       HT       0.417000       1.00800           0
     56053 TIP3     15379    TIP3     H2       HT       0.417000       1.00800           0
     56054 TIP3     15380    TIP3     OH2      OT      -0.834000       15.9994           0
     56055 TIP3     15380    TIP3     H1       HT       0.417000       1.00800           0
     56056 TIP3     15380    TIP3     H2       HT       0.417000       1.00800           0
     56057 TIP3     15381    TIP3     OH2      OT      -0.834000       15.9994           0
     56058 TIP3     15381    TIP3     H1       HT       0.417000       1.00800           0
     56059 TIP3     15381    TIP3     H2       HT       0.417000       1.00800           0
     56060 TIP3     15382    TIP3     OH2      OT      -0.834000       15.9994           0
     56061 TIP3     15382    TIP3     H1       HT       0.417000       1.00800           0
     56062 TIP3     15382    TIP3     H2       HT       0.417000       1.00800           0
     56063 TIP3     15383    TIP3     OH2      OT      -0.834000       15.9994           0
     56064 TIP3     15383    TIP3     H1       HT       0.417000       1.00800           0
     56065 TIP3     15383    TIP3     H2       HT       0.417000       1.00800           0
     56066 TIP3     15384    TIP3     OH2      OT      -0.834000       15.9994           0
     56067 TIP3     15384    TIP3     H1       HT       0.417000       1.00800           0
     56068 TIP3     15384    TIP3     H2       HT       0.417000       1.00800           0
     56069 TIP3     15385    TIP3     OH2      OT      -0.834000       15.9994           0
     56070 TIP3     15385    TIP3     H1       HT       0.417000       1.00800           0
     56071 TIP3     15385    TIP3     H2       HT       0.417000       1.00800           0
     56072 TIP3     15386    TIP3     OH2      OT      -0.834000       15.9994           0
     56073 TIP3     15386    TIP3     H1       HT       0.417000       1.00800           0
     56074 TIP3     15386    TIP3     H2       HT       0.417000       1.00800           0
     56075 TIP3     15387    TIP3     OH2      OT      -0.834000       15.9994           0
     56076 TIP3     15387    TIP3     H1       HT       0.417000       1.00800           0
     56077 TIP3     15387    TIP3     H2       HT       0.417000       1.00800           0
     56078 TIP3     15388    TIP3     OH2      OT      -0.834000       15.9994           0
     56079 TIP3     15388    TIP3     H1       HT       0.417000       1.00800           0
     56080 TIP3     15388    TIP3     H2       HT       0.417000       1.00800           0
     56081 TIP3     15389    TIP3     OH2      OT      -0.834000       15.9994           0
     56082 TIP3     15389    TIP3     H1       HT       0.417000       1.00800           0
     56083 TIP3     15389    TIP3     H2       HT       0.417000       1.00800           0
     56084 TIP3     15390    TIP3     OH2      OT      -0.834000       15.9994           0
     56085 TIP3     15390    TIP3     H1       HT       0.417000       1.00800           0
     56086 TIP3     15390    TIP3     H2       HT       0.417000       1.00800           0
     56087 TIP3     15391    TIP3     OH2      OT      -0.834000       15.9994           0
     56088 TIP3     15391    TIP3     H1       HT       0.417000       1.00800           0
     56089 TIP3     15391    TIP3     H2       HT       0.417000       1.00800           0
     56090 TIP3     15392    TIP3     OH2      OT      -0.834000       15.9994           0
     56091 TIP3     15392    TIP3     H1       HT       0.417000       1.00800           0
     56092 TIP3     15392    TIP3     H2       HT       0.417000       1.00800           0
     56093 TIP3     15393    TIP3     OH2      OT      -0.834000       15.9994           0
     56094 TIP3     15393    TIP3     H1       HT       0.417000       1.00800           0
     56095 TIP3     15393    TIP3     H2       HT       0.417000       1.00800           0
     56096 TIP3     15394    TIP3     OH2      OT      -0.834000       15.9994           0
     56097 TIP3     15394    TIP3     H1       HT       0.417000       1.00800           0
     56098 TIP3     15394    TIP3     H2       HT       0.417000       1.00800           0
     56099 TIP3     15395    TIP3     OH2      OT      -0.834000       15.9994           0
     56100 TIP3     15395    TIP3     H1       HT       0.417000       1.00800           0
     56101 TIP3     15395    TIP3     H2       HT       0.417000       1.00800           0
     56102 TIP3     15396    TIP3     OH2      OT      -0.834000       15.9994           0
     56103 TIP3     15396    TIP3     H1       HT       0.417000       1.00800           0
     56104 TIP3     15396    TIP3     H2       HT       0.417000       1.00800           0
     56105 TIP3     15397    TIP3     OH2      OT      -0.834000       15.9994           0
     56106 TIP3     15397    TIP3     H1       HT       0.417000       1.00800           0
     56107 TIP3     15397    TIP3     H2       HT       0.417000       1.00800           0
     56108 TIP3     15398    TIP3     OH2      OT      -0.834000       15.9994           0
     56109 TIP3     15398    TIP3     H1       HT       0.417000       1.00800           0
     56110 TIP3     15398    TIP3     H2       HT       0.417000       1.00800           0
     56111 TIP3     15399    TIP3     OH2      OT      -0.834000       15.9994           0
     56112 TIP3     15399    TIP3     H1       HT       0.417000       1.00800           0
     56113 TIP3     15399    TIP3     H2       HT       0.417000       1.00800           0
     56114 TIP3     15400    TIP3     OH2      OT      -0.834000       15.9994           0
     56115 TIP3     15400    TIP3     H1       HT       0.417000       1.00800           0
     56116 TIP3     15400    TIP3     H2       HT       0.417000       1.00800           0
     56117 TIP3     15401    TIP3     OH2      OT      -0.834000       15.9994           0
     56118 TIP3     15401    TIP3     H1       HT       0.417000       1.00800           0
     56119 TIP3     15401    TIP3     H2       HT       0.417000       1.00800           0
     56120 TIP3     15402    TIP3     OH2      OT      -0.834000       15.9994           0
     56121 TIP3     15402    TIP3     H1       HT       0.417000       1.00800           0
     56122 TIP3     15402    TIP3     H2       HT       0.417000       1.00800           0
     56123 TIP3     15403    TIP3     OH2      OT      -0.834000       15.9994           0
     56124 TIP3     15403    TIP3     H1       HT       0.417000       1.00800           0
     56125 TIP3     15403    TIP3     H2       HT       0.417000       1.00800           0
     56126 TIP3     15404    TIP3     OH2      OT      -0.834000       15.9994           0
     56127 TIP3     15404    TIP3     H1       HT       0.417000       1.00800           0
     56128 TIP3     15404    TIP3     H2       HT       0.417000       1.00800           0
     56129 TIP3     15405    TIP3     OH2      OT      -0.834000       15.9994           0
     56130 TIP3     15405    TIP3     H1       HT       0.417000       1.00800           0
     56131 TIP3     15405    TIP3     H2       HT       0.417000       1.00800           0
     56132 TIP3     15406    TIP3     OH2      OT      -0.834000       15.9994           0
     56133 TIP3     15406    TIP3     H1       HT       0.417000       1.00800           0
     56134 TIP3     15406    TIP3     H2       HT       0.417000       1.00800           0
     56135 TIP3     15407    TIP3     OH2      OT      -0.834000       15.9994           0
     56136 TIP3     15407    TIP3     H1       HT       0.417000       1.00800           0
     56137 TIP3     15407    TIP3     H2       HT       0.417000       1.00800           0
     56138 TIP3     15408    TIP3     OH2      OT      -0.834000       15.9994           0
     56139 TIP3     15408    TIP3     H1       HT       0.417000       1.00800           0
     56140 TIP3     15408    TIP3     H2       HT       0.417000       1.00800           0
     56141 TIP3     15409    TIP3     OH2      OT      -0.834000       15.9994           0
     56142 TIP3     15409    TIP3     H1       HT       0.417000       1.00800           0
     56143 TIP3     15409    TIP3     H2       HT       0.417000       1.00800           0
     56144 TIP3     15410    TIP3     OH2      OT      -0.834000       15.9994           0
     56145 TIP3     15410    TIP3     H1       HT       0.417000       1.00800           0
     56146 TIP3     15410    TIP3     H2       HT       0.417000       1.00800           0
     56147 TIP3     15411    TIP3     OH2      OT      -0.834000       15.9994           0
     56148 TIP3     15411    TIP3     H1       HT       0.417000       1.00800           0
     56149 TIP3     15411    TIP3     H2       HT       0.417000       1.00800           0
     56150 TIP3     15412    TIP3     OH2      OT      -0.834000       15.9994           0
     56151 TIP3     15412    TIP3     H1       HT       0.417000       1.00800           0
     56152 TIP3     15412    TIP3     H2       HT       0.417000       1.00800           0
     56153 TIP3     15413    TIP3     OH2      OT      -0.834000       15.9994           0
     56154 TIP3     15413    TIP3     H1       HT       0.417000       1.00800           0
     56155 TIP3     15413    TIP3     H2       HT       0.417000       1.00800           0
     56156 TIP3     15414    TIP3     OH2      OT      -0.834000       15.9994           0
     56157 TIP3     15414    TIP3     H1       HT       0.417000       1.00800           0
     56158 TIP3     15414    TIP3     H2       HT       0.417000       1.00800           0
     56159 TIP3     15415    TIP3     OH2      OT      -0.834000       15.9994           0
     56160 TIP3     15415    TIP3     H1       HT       0.417000       1.00800           0
     56161 TIP3     15415    TIP3     H2       HT       0.417000       1.00800           0
     56162 TIP3     15416    TIP3     OH2      OT      -0.834000       15.9994           0
     56163 TIP3     15416    TIP3     H1       HT       0.417000       1.00800           0
     56164 TIP3     15416    TIP3     H2       HT       0.417000       1.00800           0
     56165 TIP3     15417    TIP3     OH2      OT      -0.834000       15.9994           0
     56166 TIP3     15417    TIP3     H1       HT       0.417000       1.00800           0
     56167 TIP3     15417    TIP3     H2       HT       0.417000       1.00800           0
     56168 TIP3     15418    TIP3     OH2      OT      -0.834000       15.9994           0
     56169 TIP3     15418    TIP3     H1       HT       0.417000       1.00800           0
     56170 TIP3     15418    TIP3     H2       HT       0.417000       1.00800           0
     56171 TIP3     15419    TIP3     OH2      OT      -0.834000       15.9994           0
     56172 TIP3     15419    TIP3     H1       HT       0.417000       1.00800           0
     56173 TIP3     15419    TIP3     H2       HT       0.417000       1.00800           0
     56174 TIP3     15420    TIP3     OH2      OT      -0.834000       15.9994           0
     56175 TIP3     15420    TIP3     H1       HT       0.417000       1.00800           0
     56176 TIP3     15420    TIP3     H2       HT       0.417000       1.00800           0
     56177 TIP3     15421    TIP3     OH2      OT      -0.834000       15.9994           0
     56178 TIP3     15421    TIP3     H1       HT       0.417000       1.00800           0
     56179 TIP3     15421    TIP3     H2       HT       0.417000       1.00800           0
     56180 TIP3     15422    TIP3     OH2      OT      -0.834000       15.9994           0
     56181 TIP3     15422    TIP3     H1       HT       0.417000       1.00800           0
     56182 TIP3     15422    TIP3     H2       HT       0.417000       1.00800           0
     56183 TIP3     15423    TIP3     OH2      OT      -0.834000       15.9994           0
     56184 TIP3     15423    TIP3     H1       HT       0.417000       1.00800           0
     56185 TIP3     15423    TIP3     H2       HT       0.417000       1.00800           0
     56186 TIP3     15424    TIP3     OH2      OT      -0.834000       15.9994           0
     56187 TIP3     15424    TIP3     H1       HT       0.417000       1.00800           0
     56188 TIP3     15424    TIP3     H2       HT       0.417000       1.00800           0
     56189 TIP3     15425    TIP3     OH2      OT      -0.834000       15.9994           0
     56190 TIP3     15425    TIP3     H1       HT       0.417000       1.00800           0
     56191 TIP3     15425    TIP3     H2       HT       0.417000       1.00800           0
     56192 TIP3     15426    TIP3     OH2      OT      -0.834000       15.9994           0
     56193 TIP3     15426    TIP3     H1       HT       0.417000       1.00800           0
     56194 TIP3     15426    TIP3     H2       HT       0.417000       1.00800           0
     56195 TIP3     15427    TIP3     OH2      OT      -0.834000       15.9994           0
     56196 TIP3     15427    TIP3     H1       HT       0.417000       1.00800           0
     56197 TIP3     15427    TIP3     H2       HT       0.417000       1.00800           0
     56198 TIP3     15428    TIP3     OH2      OT      -0.834000       15.9994           0
     56199 TIP3     15428    TIP3     H1       HT       0.417000       1.00800           0
     56200 TIP3     15428    TIP3     H2       HT       0.417000       1.00800           0
     56201 TIP3     15429    TIP3     OH2      OT      -0.834000       15.9994           0
     56202 TIP3     15429    TIP3     H1       HT       0.417000       1.00800           0
     56203 TIP3     15429    TIP3     H2       HT       0.417000       1.00800           0
     56204 TIP3     15430    TIP3     OH2      OT      -0.834000       15.9994           0
     56205 TIP3     15430    TIP3     H1       HT       0.417000       1.00800           0
     56206 TIP3     15430    TIP3     H2       HT       0.417000       1.00800           0
     56207 TIP3     15431    TIP3     OH2      OT      -0.834000       15.9994           0
     56208 TIP3     15431    TIP3     H1       HT       0.417000       1.00800           0
     56209 TIP3     15431    TIP3     H2       HT       0.417000       1.00800           0
     56210 TIP3     15432    TIP3     OH2      OT      -0.834000       15.9994           0
     56211 TIP3     15432    TIP3     H1       HT       0.417000       1.00800           0
     56212 TIP3     15432    TIP3     H2       HT       0.417000       1.00800           0
     56213 TIP3     15433    TIP3     OH2      OT      -0.834000       15.9994           0
     56214 TIP3     15433    TIP3     H1       HT       0.417000       1.00800           0
     56215 TIP3     15433    TIP3     H2       HT       0.417000       1.00800           0
     56216 TIP3     15434    TIP3     OH2      OT      -0.834000       15.9994           0
     56217 TIP3     15434    TIP3     H1       HT       0.417000       1.00800           0
     56218 TIP3     15434    TIP3     H2       HT       0.417000       1.00800           0
     56219 TIP3     15435    TIP3     OH2      OT      -0.834000       15.9994           0
     56220 TIP3     15435    TIP3     H1       HT       0.417000       1.00800           0
     56221 TIP3     15435    TIP3     H2       HT       0.417000       1.00800           0
     56222 TIP3     15436    TIP3     OH2      OT      -0.834000       15.9994           0
     56223 TIP3     15436    TIP3     H1       HT       0.417000       1.00800           0
     56224 TIP3     15436    TIP3     H2       HT       0.417000       1.00800           0
     56225 TIP3     15437    TIP3     OH2      OT      -0.834000       15.9994           0
     56226 TIP3     15437    TIP3     H1       HT       0.417000       1.00800           0
     56227 TIP3     15437    TIP3     H2       HT       0.417000       1.00800           0
     56228 TIP3     15438    TIP3     OH2      OT      -0.834000       15.9994           0
     56229 TIP3     15438    TIP3     H1       HT       0.417000       1.00800           0
     56230 TIP3     15438    TIP3     H2       HT       0.417000       1.00800           0
     56231 TIP3     15439    TIP3     OH2      OT      -0.834000       15.9994           0
     56232 TIP3     15439    TIP3     H1       HT       0.417000       1.00800           0
     56233 TIP3     15439    TIP3     H2       HT       0.417000       1.00800           0
     56234 TIP3     15440    TIP3     OH2      OT      -0.834000       15.9994           0
     56235 TIP3     15440    TIP3     H1       HT       0.417000       1.00800           0
     56236 TIP3     15440    TIP3     H2       HT       0.417000       1.00800           0
     56237 TIP3     15441    TIP3     OH2      OT      -0.834000       15.9994           0
     56238 TIP3     15441    TIP3     H1       HT       0.417000       1.00800           0
     56239 TIP3     15441    TIP3     H2       HT       0.417000       1.00800           0
     56240 TIP3     15442    TIP3     OH2      OT      -0.834000       15.9994           0
     56241 TIP3     15442    TIP3     H1       HT       0.417000       1.00800           0
     56242 TIP3     15442    TIP3     H2       HT       0.417000       1.00800           0
     56243 TIP3     15443    TIP3     OH2      OT      -0.834000       15.9994           0
     56244 TIP3     15443    TIP3     H1       HT       0.417000       1.00800           0
     56245 TIP3     15443    TIP3     H2       HT       0.417000       1.00800           0
     56246 TIP3     15444    TIP3     OH2      OT      -0.834000       15.9994           0
     56247 TIP3     15444    TIP3     H1       HT       0.417000       1.00800           0
     56248 TIP3     15444    TIP3     H2       HT       0.417000       1.00800           0
     56249 TIP3     15445    TIP3     OH2      OT      -0.834000       15.9994           0
     56250 TIP3     15445    TIP3     H1       HT       0.417000       1.00800           0
     56251 TIP3     15445    TIP3     H2       HT       0.417000       1.00800           0
     56252 TIP3     15446    TIP3     OH2      OT      -0.834000       15.9994           0
     56253 TIP3     15446    TIP3     H1       HT       0.417000       1.00800           0
     56254 TIP3     15446    TIP3     H2       HT       0.417000       1.00800           0
     56255 TIP3     15447    TIP3     OH2      OT      -0.834000       15.9994           0
     56256 TIP3     15447    TIP3     H1       HT       0.417000       1.00800           0
     56257 TIP3     15447    TIP3     H2       HT       0.417000       1.00800           0
     56258 TIP3     15448    TIP3     OH2      OT      -0.834000       15.9994           0
     56259 TIP3     15448    TIP3     H1       HT       0.417000       1.00800           0
     56260 TIP3     15448    TIP3     H2       HT       0.417000       1.00800           0
     56261 TIP3     15449    TIP3     OH2      OT      -0.834000       15.9994           0
     56262 TIP3     15449    TIP3     H1       HT       0.417000       1.00800           0
     56263 TIP3     15449    TIP3     H2       HT       0.417000       1.00800           0
     56264 TIP3     15450    TIP3     OH2      OT      -0.834000       15.9994           0
     56265 TIP3     15450    TIP3     H1       HT       0.417000       1.00800           0
     56266 TIP3     15450    TIP3     H2       HT       0.417000       1.00800           0
     56267 TIP3     15451    TIP3     OH2      OT      -0.834000       15.9994           0
     56268 TIP3     15451    TIP3     H1       HT       0.417000       1.00800           0
     56269 TIP3     15451    TIP3     H2       HT       0.417000       1.00800           0
     56270 TIP3     15452    TIP3     OH2      OT      -0.834000       15.9994           0
     56271 TIP3     15452    TIP3     H1       HT       0.417000       1.00800           0
     56272 TIP3     15452    TIP3     H2       HT       0.417000       1.00800           0
     56273 TIP3     15453    TIP3     OH2      OT      -0.834000       15.9994           0
     56274 TIP3     15453    TIP3     H1       HT       0.417000       1.00800           0
     56275 TIP3     15453    TIP3     H2       HT       0.417000       1.00800           0
     56276 TIP3     15454    TIP3     OH2      OT      -0.834000       15.9994           0
     56277 TIP3     15454    TIP3     H1       HT       0.417000       1.00800           0
     56278 TIP3     15454    TIP3     H2       HT       0.417000       1.00800           0
     56279 TIP3     15455    TIP3     OH2      OT      -0.834000       15.9994           0
     56280 TIP3     15455    TIP3     H1       HT       0.417000       1.00800           0
     56281 TIP3     15455    TIP3     H2       HT       0.417000       1.00800           0
     56282 TIP3     15456    TIP3     OH2      OT      -0.834000       15.9994           0
     56283 TIP3     15456    TIP3     H1       HT       0.417000       1.00800           0
     56284 TIP3     15456    TIP3     H2       HT       0.417000       1.00800           0
     56285 TIP3     15457    TIP3     OH2      OT      -0.834000       15.9994           0
     56286 TIP3     15457    TIP3     H1       HT       0.417000       1.00800           0
     56287 TIP3     15457    TIP3     H2       HT       0.417000       1.00800           0
     56288 TIP3     15458    TIP3     OH2      OT      -0.834000       15.9994           0
     56289 TIP3     15458    TIP3     H1       HT       0.417000       1.00800           0
     56290 TIP3     15458    TIP3     H2       HT       0.417000       1.00800           0
     56291 TIP3     15459    TIP3     OH2      OT      -0.834000       15.9994           0
     56292 TIP3     15459    TIP3     H1       HT       0.417000       1.00800           0
     56293 TIP3     15459    TIP3     H2       HT       0.417000       1.00800           0
     56294 TIP3     15460    TIP3     OH2      OT      -0.834000       15.9994           0
     56295 TIP3     15460    TIP3     H1       HT       0.417000       1.00800           0
     56296 TIP3     15460    TIP3     H2       HT       0.417000       1.00800           0
     56297 TIP3     15461    TIP3     OH2      OT      -0.834000       15.9994           0
     56298 TIP3     15461    TIP3     H1       HT       0.417000       1.00800           0
     56299 TIP3     15461    TIP3     H2       HT       0.417000       1.00800           0
     56300 TIP3     15462    TIP3     OH2      OT      -0.834000       15.9994           0
     56301 TIP3     15462    TIP3     H1       HT       0.417000       1.00800           0
     56302 TIP3     15462    TIP3     H2       HT       0.417000       1.00800           0
     56303 TIP3     15463    TIP3     OH2      OT      -0.834000       15.9994           0
     56304 TIP3     15463    TIP3     H1       HT       0.417000       1.00800           0
     56305 TIP3     15463    TIP3     H2       HT       0.417000       1.00800           0
     56306 TIP3     15464    TIP3     OH2      OT      -0.834000       15.9994           0
     56307 TIP3     15464    TIP3     H1       HT       0.417000       1.00800           0
     56308 TIP3     15464    TIP3     H2       HT       0.417000       1.00800           0
     56309 TIP3     15465    TIP3     OH2      OT      -0.834000       15.9994           0
     56310 TIP3     15465    TIP3     H1       HT       0.417000       1.00800           0
     56311 TIP3     15465    TIP3     H2       HT       0.417000       1.00800           0
     56312 TIP3     15466    TIP3     OH2      OT      -0.834000       15.9994           0
     56313 TIP3     15466    TIP3     H1       HT       0.417000       1.00800           0
     56314 TIP3     15466    TIP3     H2       HT       0.417000       1.00800           0
     56315 TIP3     15467    TIP3     OH2      OT      -0.834000       15.9994           0
     56316 TIP3     15467    TIP3     H1       HT       0.417000       1.00800           0
     56317 TIP3     15467    TIP3     H2       HT       0.417000       1.00800           0
     56318 TIP3     15468    TIP3     OH2      OT      -0.834000       15.9994           0
     56319 TIP3     15468    TIP3     H1       HT       0.417000       1.00800           0
     56320 TIP3     15468    TIP3     H2       HT       0.417000       1.00800           0
     56321 TIP3     15469    TIP3     OH2      OT      -0.834000       15.9994           0
     56322 TIP3     15469    TIP3     H1       HT       0.417000       1.00800           0
     56323 TIP3     15469    TIP3     H2       HT       0.417000       1.00800           0
     56324 TIP3     15470    TIP3     OH2      OT      -0.834000       15.9994           0
     56325 TIP3     15470    TIP3     H1       HT       0.417000       1.00800           0
     56326 TIP3     15470    TIP3     H2       HT       0.417000       1.00800           0
     56327 TIP3     15471    TIP3     OH2      OT      -0.834000       15.9994           0
     56328 TIP3     15471    TIP3     H1       HT       0.417000       1.00800           0
     56329 TIP3     15471    TIP3     H2       HT       0.417000       1.00800           0
     56330 TIP3     15472    TIP3     OH2      OT      -0.834000       15.9994           0
     56331 TIP3     15472    TIP3     H1       HT       0.417000       1.00800           0
     56332 TIP3     15472    TIP3     H2       HT       0.417000       1.00800           0
     56333 TIP3     15473    TIP3     OH2      OT      -0.834000       15.9994           0
     56334 TIP3     15473    TIP3     H1       HT       0.417000       1.00800           0
     56335 TIP3     15473    TIP3     H2       HT       0.417000       1.00800           0
     56336 TIP3     15474    TIP3     OH2      OT      -0.834000       15.9994           0
     56337 TIP3     15474    TIP3     H1       HT       0.417000       1.00800           0
     56338 TIP3     15474    TIP3     H2       HT       0.417000       1.00800           0
     56339 TIP3     15475    TIP3     OH2      OT      -0.834000       15.9994           0
     56340 TIP3     15475    TIP3     H1       HT       0.417000       1.00800           0
     56341 TIP3     15475    TIP3     H2       HT       0.417000       1.00800           0
     56342 TIP3     15476    TIP3     OH2      OT      -0.834000       15.9994           0
     56343 TIP3     15476    TIP3     H1       HT       0.417000       1.00800           0
     56344 TIP3     15476    TIP3     H2       HT       0.417000       1.00800           0
     56345 TIP3     15477    TIP3     OH2      OT      -0.834000       15.9994           0
     56346 TIP3     15477    TIP3     H1       HT       0.417000       1.00800           0
     56347 TIP3     15477    TIP3     H2       HT       0.417000       1.00800           0
     56348 TIP3     15478    TIP3     OH2      OT      -0.834000       15.9994           0
     56349 TIP3     15478    TIP3     H1       HT       0.417000       1.00800           0
     56350 TIP3     15478    TIP3     H2       HT       0.417000       1.00800           0
     56351 TIP3     15479    TIP3     OH2      OT      -0.834000       15.9994           0
     56352 TIP3     15479    TIP3     H1       HT       0.417000       1.00800           0
     56353 TIP3     15479    TIP3     H2       HT       0.417000       1.00800           0
     56354 TIP3     15480    TIP3     OH2      OT      -0.834000       15.9994           0
     56355 TIP3     15480    TIP3     H1       HT       0.417000       1.00800           0
     56356 TIP3     15480    TIP3     H2       HT       0.417000       1.00800           0
     56357 TIP3     15481    TIP3     OH2      OT      -0.834000       15.9994           0
     56358 TIP3     15481    TIP3     H1       HT       0.417000       1.00800           0
     56359 TIP3     15481    TIP3     H2       HT       0.417000       1.00800           0
     56360 TIP3     15482    TIP3     OH2      OT      -0.834000       15.9994           0
     56361 TIP3     15482    TIP3     H1       HT       0.417000       1.00800           0
     56362 TIP3     15482    TIP3     H2       HT       0.417000       1.00800           0
     56363 TIP3     15483    TIP3     OH2      OT      -0.834000       15.9994           0
     56364 TIP3     15483    TIP3     H1       HT       0.417000       1.00800           0
     56365 TIP3     15483    TIP3     H2       HT       0.417000       1.00800           0
     56366 TIP3     15484    TIP3     OH2      OT      -0.834000       15.9994           0
     56367 TIP3     15484    TIP3     H1       HT       0.417000       1.00800           0
     56368 TIP3     15484    TIP3     H2       HT       0.417000       1.00800           0
     56369 TIP3     15485    TIP3     OH2      OT      -0.834000       15.9994           0
     56370 TIP3     15485    TIP3     H1       HT       0.417000       1.00800           0
     56371 TIP3     15485    TIP3     H2       HT       0.417000       1.00800           0
     56372 TIP3     15486    TIP3     OH2      OT      -0.834000       15.9994           0
     56373 TIP3     15486    TIP3     H1       HT       0.417000       1.00800           0
     56374 TIP3     15486    TIP3     H2       HT       0.417000       1.00800           0
     56375 TIP3     15487    TIP3     OH2      OT      -0.834000       15.9994           0
     56376 TIP3     15487    TIP3     H1       HT       0.417000       1.00800           0
     56377 TIP3     15487    TIP3     H2       HT       0.417000       1.00800           0
     56378 TIP3     15488    TIP3     OH2      OT      -0.834000       15.9994           0
     56379 TIP3     15488    TIP3     H1       HT       0.417000       1.00800           0
     56380 TIP3     15488    TIP3     H2       HT       0.417000       1.00800           0
     56381 TIP3     15489    TIP3     OH2      OT      -0.834000       15.9994           0
     56382 TIP3     15489    TIP3     H1       HT       0.417000       1.00800           0
     56383 TIP3     15489    TIP3     H2       HT       0.417000       1.00800           0
     56384 TIP3     15490    TIP3     OH2      OT      -0.834000       15.9994           0
     56385 TIP3     15490    TIP3     H1       HT       0.417000       1.00800           0
     56386 TIP3     15490    TIP3     H2       HT       0.417000       1.00800           0
     56387 TIP3     15491    TIP3     OH2      OT      -0.834000       15.9994           0
     56388 TIP3     15491    TIP3     H1       HT       0.417000       1.00800           0
     56389 TIP3     15491    TIP3     H2       HT       0.417000       1.00800           0
     56390 TIP3     15492    TIP3     OH2      OT      -0.834000       15.9994           0
     56391 TIP3     15492    TIP3     H1       HT       0.417000       1.00800           0
     56392 TIP3     15492    TIP3     H2       HT       0.417000       1.00800           0
     56393 TIP3     15493    TIP3     OH2      OT      -0.834000       15.9994           0
     56394 TIP3     15493    TIP3     H1       HT       0.417000       1.00800           0
     56395 TIP3     15493    TIP3     H2       HT       0.417000       1.00800           0
     56396 TIP3     15494    TIP3     OH2      OT      -0.834000       15.9994           0
     56397 TIP3     15494    TIP3     H1       HT       0.417000       1.00800           0
     56398 TIP3     15494    TIP3     H2       HT       0.417000       1.00800           0
     56399 TIP3     15495    TIP3     OH2      OT      -0.834000       15.9994           0
     56400 TIP3     15495    TIP3     H1       HT       0.417000       1.00800           0
     56401 TIP3     15495    TIP3     H2       HT       0.417000       1.00800           0
     56402 TIP3     15496    TIP3     OH2      OT      -0.834000       15.9994           0
     56403 TIP3     15496    TIP3     H1       HT       0.417000       1.00800           0
     56404 TIP3     15496    TIP3     H2       HT       0.417000       1.00800           0
     56405 TIP3     15497    TIP3     OH2      OT      -0.834000       15.9994           0
     56406 TIP3     15497    TIP3     H1       HT       0.417000       1.00800           0
     56407 TIP3     15497    TIP3     H2       HT       0.417000       1.00800           0
     56408 TIP3     15498    TIP3     OH2      OT      -0.834000       15.9994           0
     56409 TIP3     15498    TIP3     H1       HT       0.417000       1.00800           0
     56410 TIP3     15498    TIP3     H2       HT       0.417000       1.00800           0
     56411 TIP3     15499    TIP3     OH2      OT      -0.834000       15.9994           0
     56412 TIP3     15499    TIP3     H1       HT       0.417000       1.00800           0
     56413 TIP3     15499    TIP3     H2       HT       0.417000       1.00800           0
     56414 TIP3     15500    TIP3     OH2      OT      -0.834000       15.9994           0
     56415 TIP3     15500    TIP3     H1       HT       0.417000       1.00800           0
     56416 TIP3     15500    TIP3     H2       HT       0.417000       1.00800           0
     56417 TIP3     15501    TIP3     OH2      OT      -0.834000       15.9994           0
     56418 TIP3     15501    TIP3     H1       HT       0.417000       1.00800           0
     56419 TIP3     15501    TIP3     H2       HT       0.417000       1.00800           0
     56420 TIP3     15502    TIP3     OH2      OT      -0.834000       15.9994           0
     56421 TIP3     15502    TIP3     H1       HT       0.417000       1.00800           0
     56422 TIP3     15502    TIP3     H2       HT       0.417000       1.00800           0
     56423 TIP3     15503    TIP3     OH2      OT      -0.834000       15.9994           0
     56424 TIP3     15503    TIP3     H1       HT       0.417000       1.00800           0
     56425 TIP3     15503    TIP3     H2       HT       0.417000       1.00800           0
     56426 TIP3     15504    TIP3     OH2      OT      -0.834000       15.9994           0
     56427 TIP3     15504    TIP3     H1       HT       0.417000       1.00800           0
     56428 TIP3     15504    TIP3     H2       HT       0.417000       1.00800           0
     56429 TIP3     15505    TIP3     OH2      OT      -0.834000       15.9994           0
     56430 TIP3     15505    TIP3     H1       HT       0.417000       1.00800           0
     56431 TIP3     15505    TIP3     H2       HT       0.417000       1.00800           0
     56432 TIP3     15506    TIP3     OH2      OT      -0.834000       15.9994           0
     56433 TIP3     15506    TIP3     H1       HT       0.417000       1.00800           0
     56434 TIP3     15506    TIP3     H2       HT       0.417000       1.00800           0
     56435 TIP3     15507    TIP3     OH2      OT      -0.834000       15.9994           0
     56436 TIP3     15507    TIP3     H1       HT       0.417000       1.00800           0
     56437 TIP3     15507    TIP3     H2       HT       0.417000       1.00800           0
     56438 TIP3     15508    TIP3     OH2      OT      -0.834000       15.9994           0
     56439 TIP3     15508    TIP3     H1       HT       0.417000       1.00800           0
     56440 TIP3     15508    TIP3     H2       HT       0.417000       1.00800           0
     56441 TIP3     15509    TIP3     OH2      OT      -0.834000       15.9994           0
     56442 TIP3     15509    TIP3     H1       HT       0.417000       1.00800           0
     56443 TIP3     15509    TIP3     H2       HT       0.417000       1.00800           0
     56444 TIP3     15510    TIP3     OH2      OT      -0.834000       15.9994           0
     56445 TIP3     15510    TIP3     H1       HT       0.417000       1.00800           0
     56446 TIP3     15510    TIP3     H2       HT       0.417000       1.00800           0
     56447 TIP3     15511    TIP3     OH2      OT      -0.834000       15.9994           0
     56448 TIP3     15511    TIP3     H1       HT       0.417000       1.00800           0
     56449 TIP3     15511    TIP3     H2       HT       0.417000       1.00800           0
     56450 TIP3     15512    TIP3     OH2      OT      -0.834000       15.9994           0
     56451 TIP3     15512    TIP3     H1       HT       0.417000       1.00800           0
     56452 TIP3     15512    TIP3     H2       HT       0.417000       1.00800           0
     56453 TIP3     15513    TIP3     OH2      OT      -0.834000       15.9994           0
     56454 TIP3     15513    TIP3     H1       HT       0.417000       1.00800           0
     56455 TIP3     15513    TIP3     H2       HT       0.417000       1.00800           0
     56456 TIP3     15514    TIP3     OH2      OT      -0.834000       15.9994           0
     56457 TIP3     15514    TIP3     H1       HT       0.417000       1.00800           0
     56458 TIP3     15514    TIP3     H2       HT       0.417000       1.00800           0
     56459 TIP3     15515    TIP3     OH2      OT      -0.834000       15.9994           0
     56460 TIP3     15515    TIP3     H1       HT       0.417000       1.00800           0
     56461 TIP3     15515    TIP3     H2       HT       0.417000       1.00800           0
     56462 TIP3     15516    TIP3     OH2      OT      -0.834000       15.9994           0
     56463 TIP3     15516    TIP3     H1       HT       0.417000       1.00800           0
     56464 TIP3     15516    TIP3     H2       HT       0.417000       1.00800           0
     56465 TIP3     15517    TIP3     OH2      OT      -0.834000       15.9994           0
     56466 TIP3     15517    TIP3     H1       HT       0.417000       1.00800           0
     56467 TIP3     15517    TIP3     H2       HT       0.417000       1.00800           0
     56468 TIP3     15518    TIP3     OH2      OT      -0.834000       15.9994           0
     56469 TIP3     15518    TIP3     H1       HT       0.417000       1.00800           0
     56470 TIP3     15518    TIP3     H2       HT       0.417000       1.00800           0
     56471 TIP3     15519    TIP3     OH2      OT      -0.834000       15.9994           0
     56472 TIP3     15519    TIP3     H1       HT       0.417000       1.00800           0
     56473 TIP3     15519    TIP3     H2       HT       0.417000       1.00800           0
     56474 TIP3     15520    TIP3     OH2      OT      -0.834000       15.9994           0
     56475 TIP3     15520    TIP3     H1       HT       0.417000       1.00800           0
     56476 TIP3     15520    TIP3     H2       HT       0.417000       1.00800           0
     56477 TIP3     15521    TIP3     OH2      OT      -0.834000       15.9994           0
     56478 TIP3     15521    TIP3     H1       HT       0.417000       1.00800           0
     56479 TIP3     15521    TIP3     H2       HT       0.417000       1.00800           0
     56480 TIP3     15522    TIP3     OH2      OT      -0.834000       15.9994           0
     56481 TIP3     15522    TIP3     H1       HT       0.417000       1.00800           0
     56482 TIP3     15522    TIP3     H2       HT       0.417000       1.00800           0
     56483 TIP3     15523    TIP3     OH2      OT      -0.834000       15.9994           0
     56484 TIP3     15523    TIP3     H1       HT       0.417000       1.00800           0
     56485 TIP3     15523    TIP3     H2       HT       0.417000       1.00800           0
     56486 TIP3     15524    TIP3     OH2      OT      -0.834000       15.9994           0
     56487 TIP3     15524    TIP3     H1       HT       0.417000       1.00800           0
     56488 TIP3     15524    TIP3     H2       HT       0.417000       1.00800           0
     56489 TIP3     15525    TIP3     OH2      OT      -0.834000       15.9994           0
     56490 TIP3     15525    TIP3     H1       HT       0.417000       1.00800           0
     56491 TIP3     15525    TIP3     H2       HT       0.417000       1.00800           0
     56492 TIP3     15526    TIP3     OH2      OT      -0.834000       15.9994           0
     56493 TIP3     15526    TIP3     H1       HT       0.417000       1.00800           0
     56494 TIP3     15526    TIP3     H2       HT       0.417000       1.00800           0
     56495 TIP3     15527    TIP3     OH2      OT      -0.834000       15.9994           0
     56496 TIP3     15527    TIP3     H1       HT       0.417000       1.00800           0
     56497 TIP3     15527    TIP3     H2       HT       0.417000       1.00800           0
     56498 TIP3     15528    TIP3     OH2      OT      -0.834000       15.9994           0
     56499 TIP3     15528    TIP3     H1       HT       0.417000       1.00800           0
     56500 TIP3     15528    TIP3     H2       HT       0.417000       1.00800           0
     56501 TIP3     15529    TIP3     OH2      OT      -0.834000       15.9994           0
     56502 TIP3     15529    TIP3     H1       HT       0.417000       1.00800           0
     56503 TIP3     15529    TIP3     H2       HT       0.417000       1.00800           0
     56504 TIP3     15530    TIP3     OH2      OT      -0.834000       15.9994           0
     56505 TIP3     15530    TIP3     H1       HT       0.417000       1.00800           0
     56506 TIP3     15530    TIP3     H2       HT       0.417000       1.00800           0
     56507 TIP3     15531    TIP3     OH2      OT      -0.834000       15.9994           0
     56508 TIP3     15531    TIP3     H1       HT       0.417000       1.00800           0
     56509 TIP3     15531    TIP3     H2       HT       0.417000       1.00800           0
     56510 TIP3     15532    TIP3     OH2      OT      -0.834000       15.9994           0
     56511 TIP3     15532    TIP3     H1       HT       0.417000       1.00800           0
     56512 TIP3     15532    TIP3     H2       HT       0.417000       1.00800           0
     56513 TIP3     15533    TIP3     OH2      OT      -0.834000       15.9994           0
     56514 TIP3     15533    TIP3     H1       HT       0.417000       1.00800           0
     56515 TIP3     15533    TIP3     H2       HT       0.417000       1.00800           0
     56516 TIP3     15534    TIP3     OH2      OT      -0.834000       15.9994           0
     56517 TIP3     15534    TIP3     H1       HT       0.417000       1.00800           0
     56518 TIP3     15534    TIP3     H2       HT       0.417000       1.00800           0
     56519 TIP3     15535    TIP3     OH2      OT      -0.834000       15.9994           0
     56520 TIP3     15535    TIP3     H1       HT       0.417000       1.00800           0
     56521 TIP3     15535    TIP3     H2       HT       0.417000       1.00800           0
     56522 TIP3     15536    TIP3     OH2      OT      -0.834000       15.9994           0
     56523 TIP3     15536    TIP3     H1       HT       0.417000       1.00800           0
     56524 TIP3     15536    TIP3     H2       HT       0.417000       1.00800           0
     56525 TIP3     15537    TIP3     OH2      OT      -0.834000       15.9994           0
     56526 TIP3     15537    TIP3     H1       HT       0.417000       1.00800           0
     56527 TIP3     15537    TIP3     H2       HT       0.417000       1.00800           0
     56528 TIP3     15538    TIP3     OH2      OT      -0.834000       15.9994           0
     56529 TIP3     15538    TIP3     H1       HT       0.417000       1.00800           0
     56530 TIP3     15538    TIP3     H2       HT       0.417000       1.00800           0
     56531 TIP3     15539    TIP3     OH2      OT      -0.834000       15.9994           0
     56532 TIP3     15539    TIP3     H1       HT       0.417000       1.00800           0
     56533 TIP3     15539    TIP3     H2       HT       0.417000       1.00800           0
     56534 TIP3     15540    TIP3     OH2      OT      -0.834000       15.9994           0
     56535 TIP3     15540    TIP3     H1       HT       0.417000       1.00800           0
     56536 TIP3     15540    TIP3     H2       HT       0.417000       1.00800           0
     56537 TIP3     15541    TIP3     OH2      OT      -0.834000       15.9994           0
     56538 TIP3     15541    TIP3     H1       HT       0.417000       1.00800           0
     56539 TIP3     15541    TIP3     H2       HT       0.417000       1.00800           0
     56540 TIP3     15542    TIP3     OH2      OT      -0.834000       15.9994           0
     56541 TIP3     15542    TIP3     H1       HT       0.417000       1.00800           0
     56542 TIP3     15542    TIP3     H2       HT       0.417000       1.00800           0
     56543 TIP3     15543    TIP3     OH2      OT      -0.834000       15.9994           0
     56544 TIP3     15543    TIP3     H1       HT       0.417000       1.00800           0
     56545 TIP3     15543    TIP3     H2       HT       0.417000       1.00800           0
     56546 TIP3     15544    TIP3     OH2      OT      -0.834000       15.9994           0
     56547 TIP3     15544    TIP3     H1       HT       0.417000       1.00800           0
     56548 TIP3     15544    TIP3     H2       HT       0.417000       1.00800           0
     56549 TIP3     15545    TIP3     OH2      OT      -0.834000       15.9994           0
     56550 TIP3     15545    TIP3     H1       HT       0.417000       1.00800           0
     56551 TIP3     15545    TIP3     H2       HT       0.417000       1.00800           0
     56552 TIP3     15546    TIP3     OH2      OT      -0.834000       15.9994           0
     56553 TIP3     15546    TIP3     H1       HT       0.417000       1.00800           0
     56554 TIP3     15546    TIP3     H2       HT       0.417000       1.00800           0
     56555 TIP3     15547    TIP3     OH2      OT      -0.834000       15.9994           0
     56556 TIP3     15547    TIP3     H1       HT       0.417000       1.00800           0
     56557 TIP3     15547    TIP3     H2       HT       0.417000       1.00800           0
     56558 TIP3     15548    TIP3     OH2      OT      -0.834000       15.9994           0
     56559 TIP3     15548    TIP3     H1       HT       0.417000       1.00800           0
     56560 TIP3     15548    TIP3     H2       HT       0.417000       1.00800           0
     56561 TIP3     15549    TIP3     OH2      OT      -0.834000       15.9994           0
     56562 TIP3     15549    TIP3     H1       HT       0.417000       1.00800           0
     56563 TIP3     15549    TIP3     H2       HT       0.417000       1.00800           0
     56564 TIP3     15550    TIP3     OH2      OT      -0.834000       15.9994           0
     56565 TIP3     15550    TIP3     H1       HT       0.417000       1.00800           0
     56566 TIP3     15550    TIP3     H2       HT       0.417000       1.00800           0
     56567 TIP3     15551    TIP3     OH2      OT      -0.834000       15.9994           0
     56568 TIP3     15551    TIP3     H1       HT       0.417000       1.00800           0
     56569 TIP3     15551    TIP3     H2       HT       0.417000       1.00800           0
     56570 TIP3     15552    TIP3     OH2      OT      -0.834000       15.9994           0
     56571 TIP3     15552    TIP3     H1       HT       0.417000       1.00800           0
     56572 TIP3     15552    TIP3     H2       HT       0.417000       1.00800           0
     56573 TIP3     15553    TIP3     OH2      OT      -0.834000       15.9994           0
     56574 TIP3     15553    TIP3     H1       HT       0.417000       1.00800           0
     56575 TIP3     15553    TIP3     H2       HT       0.417000       1.00800           0
     56576 TIP3     15554    TIP3     OH2      OT      -0.834000       15.9994           0
     56577 TIP3     15554    TIP3     H1       HT       0.417000       1.00800           0
     56578 TIP3     15554    TIP3     H2       HT       0.417000       1.00800           0
     56579 TIP3     15555    TIP3     OH2      OT      -0.834000       15.9994           0
     56580 TIP3     15555    TIP3     H1       HT       0.417000       1.00800           0
     56581 TIP3     15555    TIP3     H2       HT       0.417000       1.00800           0
     56582 TIP3     15556    TIP3     OH2      OT      -0.834000       15.9994           0
     56583 TIP3     15556    TIP3     H1       HT       0.417000       1.00800           0
     56584 TIP3     15556    TIP3     H2       HT       0.417000       1.00800           0
     56585 TIP3     15557    TIP3     OH2      OT      -0.834000       15.9994           0
     56586 TIP3     15557    TIP3     H1       HT       0.417000       1.00800           0
     56587 TIP3     15557    TIP3     H2       HT       0.417000       1.00800           0
     56588 TIP3     15558    TIP3     OH2      OT      -0.834000       15.9994           0
     56589 TIP3     15558    TIP3     H1       HT       0.417000       1.00800           0
     56590 TIP3     15558    TIP3     H2       HT       0.417000       1.00800           0
     56591 TIP3     15559    TIP3     OH2      OT      -0.834000       15.9994           0
     56592 TIP3     15559    TIP3     H1       HT       0.417000       1.00800           0
     56593 TIP3     15559    TIP3     H2       HT       0.417000       1.00800           0
     56594 TIP3     15560    TIP3     OH2      OT      -0.834000       15.9994           0
     56595 TIP3     15560    TIP3     H1       HT       0.417000       1.00800           0
     56596 TIP3     15560    TIP3     H2       HT       0.417000       1.00800           0
     56597 TIP3     15561    TIP3     OH2      OT      -0.834000       15.9994           0
     56598 TIP3     15561    TIP3     H1       HT       0.417000       1.00800           0
     56599 TIP3     15561    TIP3     H2       HT       0.417000       1.00800           0
     56600 TIP3     15562    TIP3     OH2      OT      -0.834000       15.9994           0
     56601 TIP3     15562    TIP3     H1       HT       0.417000       1.00800           0
     56602 TIP3     15562    TIP3     H2       HT       0.417000       1.00800           0
     56603 TIP3     15563    TIP3     OH2      OT      -0.834000       15.9994           0
     56604 TIP3     15563    TIP3     H1       HT       0.417000       1.00800           0
     56605 TIP3     15563    TIP3     H2       HT       0.417000       1.00800           0
     56606 TIP3     15564    TIP3     OH2      OT      -0.834000       15.9994           0
     56607 TIP3     15564    TIP3     H1       HT       0.417000       1.00800           0
     56608 TIP3     15564    TIP3     H2       HT       0.417000       1.00800           0
     56609 TIP3     15565    TIP3     OH2      OT      -0.834000       15.9994           0
     56610 TIP3     15565    TIP3     H1       HT       0.417000       1.00800           0
     56611 TIP3     15565    TIP3     H2       HT       0.417000       1.00800           0
     56612 TIP3     15566    TIP3     OH2      OT      -0.834000       15.9994           0
     56613 TIP3     15566    TIP3     H1       HT       0.417000       1.00800           0
     56614 TIP3     15566    TIP3     H2       HT       0.417000       1.00800           0
     56615 TIP3     15567    TIP3     OH2      OT      -0.834000       15.9994           0
     56616 TIP3     15567    TIP3     H1       HT       0.417000       1.00800           0
     56617 TIP3     15567    TIP3     H2       HT       0.417000       1.00800           0
     56618 TIP3     15568    TIP3     OH2      OT      -0.834000       15.9994           0
     56619 TIP3     15568    TIP3     H1       HT       0.417000       1.00800           0
     56620 TIP3     15568    TIP3     H2       HT       0.417000       1.00800           0
     56621 TIP3     15569    TIP3     OH2      OT      -0.834000       15.9994           0
     56622 TIP3     15569    TIP3     H1       HT       0.417000       1.00800           0
     56623 TIP3     15569    TIP3     H2       HT       0.417000       1.00800           0
     56624 TIP3     15570    TIP3     OH2      OT      -0.834000       15.9994           0
     56625 TIP3     15570    TIP3     H1       HT       0.417000       1.00800           0
     56626 TIP3     15570    TIP3     H2       HT       0.417000       1.00800           0
     56627 TIP3     15571    TIP3     OH2      OT      -0.834000       15.9994           0
     56628 TIP3     15571    TIP3     H1       HT       0.417000       1.00800           0
     56629 TIP3     15571    TIP3     H2       HT       0.417000       1.00800           0
     56630 TIP3     15572    TIP3     OH2      OT      -0.834000       15.9994           0
     56631 TIP3     15572    TIP3     H1       HT       0.417000       1.00800           0
     56632 TIP3     15572    TIP3     H2       HT       0.417000       1.00800           0
     56633 TIP3     15573    TIP3     OH2      OT      -0.834000       15.9994           0
     56634 TIP3     15573    TIP3     H1       HT       0.417000       1.00800           0
     56635 TIP3     15573    TIP3     H2       HT       0.417000       1.00800           0
     56636 TIP3     15574    TIP3     OH2      OT      -0.834000       15.9994           0
     56637 TIP3     15574    TIP3     H1       HT       0.417000       1.00800           0
     56638 TIP3     15574    TIP3     H2       HT       0.417000       1.00800           0
     56639 TIP3     15575    TIP3     OH2      OT      -0.834000       15.9994           0
     56640 TIP3     15575    TIP3     H1       HT       0.417000       1.00800           0
     56641 TIP3     15575    TIP3     H2       HT       0.417000       1.00800           0
     56642 TIP3     15576    TIP3     OH2      OT      -0.834000       15.9994           0
     56643 TIP3     15576    TIP3     H1       HT       0.417000       1.00800           0
     56644 TIP3     15576    TIP3     H2       HT       0.417000       1.00800           0
     56645 TIP3     15577    TIP3     OH2      OT      -0.834000       15.9994           0
     56646 TIP3     15577    TIP3     H1       HT       0.417000       1.00800           0
     56647 TIP3     15577    TIP3     H2       HT       0.417000       1.00800           0
     56648 TIP3     15578    TIP3     OH2      OT      -0.834000       15.9994           0
     56649 TIP3     15578    TIP3     H1       HT       0.417000       1.00800           0
     56650 TIP3     15578    TIP3     H2       HT       0.417000       1.00800           0
     56651 TIP3     15579    TIP3     OH2      OT      -0.834000       15.9994           0
     56652 TIP3     15579    TIP3     H1       HT       0.417000       1.00800           0
     56653 TIP3     15579    TIP3     H2       HT       0.417000       1.00800           0
     56654 TIP3     15580    TIP3     OH2      OT      -0.834000       15.9994           0
     56655 TIP3     15580    TIP3     H1       HT       0.417000       1.00800           0
     56656 TIP3     15580    TIP3     H2       HT       0.417000       1.00800           0
     56657 TIP3     15581    TIP3     OH2      OT      -0.834000       15.9994           0
     56658 TIP3     15581    TIP3     H1       HT       0.417000       1.00800           0
     56659 TIP3     15581    TIP3     H2       HT       0.417000       1.00800           0
     56660 TIP3     15582    TIP3     OH2      OT      -0.834000       15.9994           0
     56661 TIP3     15582    TIP3     H1       HT       0.417000       1.00800           0
     56662 TIP3     15582    TIP3     H2       HT       0.417000       1.00800           0
     56663 TIP3     15583    TIP3     OH2      OT      -0.834000       15.9994           0
     56664 TIP3     15583    TIP3     H1       HT       0.417000       1.00800           0
     56665 TIP3     15583    TIP3     H2       HT       0.417000       1.00800           0
     56666 TIP3     15584    TIP3     OH2      OT      -0.834000       15.9994           0
     56667 TIP3     15584    TIP3     H1       HT       0.417000       1.00800           0
     56668 TIP3     15584    TIP3     H2       HT       0.417000       1.00800           0
     56669 TIP3     15585    TIP3     OH2      OT      -0.834000       15.9994           0
     56670 TIP3     15585    TIP3     H1       HT       0.417000       1.00800           0
     56671 TIP3     15585    TIP3     H2       HT       0.417000       1.00800           0
     56672 TIP3     15586    TIP3     OH2      OT      -0.834000       15.9994           0
     56673 TIP3     15586    TIP3     H1       HT       0.417000       1.00800           0
     56674 TIP3     15586    TIP3     H2       HT       0.417000       1.00800           0
     56675 TIP3     15587    TIP3     OH2      OT      -0.834000       15.9994           0
     56676 TIP3     15587    TIP3     H1       HT       0.417000       1.00800           0
     56677 TIP3     15587    TIP3     H2       HT       0.417000       1.00800           0
     56678 TIP3     15588    TIP3     OH2      OT      -0.834000       15.9994           0
     56679 TIP3     15588    TIP3     H1       HT       0.417000       1.00800           0
     56680 TIP3     15588    TIP3     H2       HT       0.417000       1.00800           0
     56681 TIP3     15589    TIP3     OH2      OT      -0.834000       15.9994           0
     56682 TIP3     15589    TIP3     H1       HT       0.417000       1.00800           0
     56683 TIP3     15589    TIP3     H2       HT       0.417000       1.00800           0
     56684 TIP3     15590    TIP3     OH2      OT      -0.834000       15.9994           0
     56685 TIP3     15590    TIP3     H1       HT       0.417000       1.00800           0
     56686 TIP3     15590    TIP3     H2       HT       0.417000       1.00800           0
     56687 TIP3     15591    TIP3     OH2      OT      -0.834000       15.9994           0
     56688 TIP3     15591    TIP3     H1       HT       0.417000       1.00800           0
     56689 TIP3     15591    TIP3     H2       HT       0.417000       1.00800           0
     56690 TIP3     15592    TIP3     OH2      OT      -0.834000       15.9994           0
     56691 TIP3     15592    TIP3     H1       HT       0.417000       1.00800           0
     56692 TIP3     15592    TIP3     H2       HT       0.417000       1.00800           0
     56693 TIP3     15593    TIP3     OH2      OT      -0.834000       15.9994           0
     56694 TIP3     15593    TIP3     H1       HT       0.417000       1.00800           0
     56695 TIP3     15593    TIP3     H2       HT       0.417000       1.00800           0
     56696 TIP3     15594    TIP3     OH2      OT      -0.834000       15.9994           0
     56697 TIP3     15594    TIP3     H1       HT       0.417000       1.00800           0
     56698 TIP3     15594    TIP3     H2       HT       0.417000       1.00800           0
     56699 TIP3     15595    TIP3     OH2      OT      -0.834000       15.9994           0
     56700 TIP3     15595    TIP3     H1       HT       0.417000       1.00800           0
     56701 TIP3     15595    TIP3     H2       HT       0.417000       1.00800           0
     56702 TIP3     15596    TIP3     OH2      OT      -0.834000       15.9994           0
     56703 TIP3     15596    TIP3     H1       HT       0.417000       1.00800           0
     56704 TIP3     15596    TIP3     H2       HT       0.417000       1.00800           0
     56705 TIP3     15597    TIP3     OH2      OT      -0.834000       15.9994           0
     56706 TIP3     15597    TIP3     H1       HT       0.417000       1.00800           0
     56707 TIP3     15597    TIP3     H2       HT       0.417000       1.00800           0
     56708 TIP3     15598    TIP3     OH2      OT      -0.834000       15.9994           0
     56709 TIP3     15598    TIP3     H1       HT       0.417000       1.00800           0
     56710 TIP3     15598    TIP3     H2       HT       0.417000       1.00800           0
     56711 TIP3     15599    TIP3     OH2      OT      -0.834000       15.9994           0
     56712 TIP3     15599    TIP3     H1       HT       0.417000       1.00800           0
     56713 TIP3     15599    TIP3     H2       HT       0.417000       1.00800           0
     56714 TIP3     15600    TIP3     OH2      OT      -0.834000       15.9994           0
     56715 TIP3     15600    TIP3     H1       HT       0.417000       1.00800           0
     56716 TIP3     15600    TIP3     H2       HT       0.417000       1.00800           0
     56717 TIP3     15601    TIP3     OH2      OT      -0.834000       15.9994           0
     56718 TIP3     15601    TIP3     H1       HT       0.417000       1.00800           0
     56719 TIP3     15601    TIP3     H2       HT       0.417000       1.00800           0
     56720 TIP3     15602    TIP3     OH2      OT      -0.834000       15.9994           0
     56721 TIP3     15602    TIP3     H1       HT       0.417000       1.00800           0
     56722 TIP3     15602    TIP3     H2       HT       0.417000       1.00800           0
     56723 TIP3     15603    TIP3     OH2      OT      -0.834000       15.9994           0
     56724 TIP3     15603    TIP3     H1       HT       0.417000       1.00800           0
     56725 TIP3     15603    TIP3     H2       HT       0.417000       1.00800           0
     56726 TIP3     15604    TIP3     OH2      OT      -0.834000       15.9994           0
     56727 TIP3     15604    TIP3     H1       HT       0.417000       1.00800           0
     56728 TIP3     15604    TIP3     H2       HT       0.417000       1.00800           0
     56729 TIP3     15605    TIP3     OH2      OT      -0.834000       15.9994           0
     56730 TIP3     15605    TIP3     H1       HT       0.417000       1.00800           0
     56731 TIP3     15605    TIP3     H2       HT       0.417000       1.00800           0
     56732 TIP3     15606    TIP3     OH2      OT      -0.834000       15.9994           0
     56733 TIP3     15606    TIP3     H1       HT       0.417000       1.00800           0
     56734 TIP3     15606    TIP3     H2       HT       0.417000       1.00800           0
     56735 TIP3     15607    TIP3     OH2      OT      -0.834000       15.9994           0
     56736 TIP3     15607    TIP3     H1       HT       0.417000       1.00800           0
     56737 TIP3     15607    TIP3     H2       HT       0.417000       1.00800           0
     56738 TIP3     15608    TIP3     OH2      OT      -0.834000       15.9994           0
     56739 TIP3     15608    TIP3     H1       HT       0.417000       1.00800           0
     56740 TIP3     15608    TIP3     H2       HT       0.417000       1.00800           0
     56741 TIP3     15609    TIP3     OH2      OT      -0.834000       15.9994           0
     56742 TIP3     15609    TIP3     H1       HT       0.417000       1.00800           0
     56743 TIP3     15609    TIP3     H2       HT       0.417000       1.00800           0
     56744 TIP3     15610    TIP3     OH2      OT      -0.834000       15.9994           0
     56745 TIP3     15610    TIP3     H1       HT       0.417000       1.00800           0
     56746 TIP3     15610    TIP3     H2       HT       0.417000       1.00800           0
     56747 TIP3     15611    TIP3     OH2      OT      -0.834000       15.9994           0
     56748 TIP3     15611    TIP3     H1       HT       0.417000       1.00800           0
     56749 TIP3     15611    TIP3     H2       HT       0.417000       1.00800           0
     56750 TIP3     15612    TIP3     OH2      OT      -0.834000       15.9994           0
     56751 TIP3     15612    TIP3     H1       HT       0.417000       1.00800           0
     56752 TIP3     15612    TIP3     H2       HT       0.417000       1.00800           0
     56753 TIP3     15613    TIP3     OH2      OT      -0.834000       15.9994           0
     56754 TIP3     15613    TIP3     H1       HT       0.417000       1.00800           0
     56755 TIP3     15613    TIP3     H2       HT       0.417000       1.00800           0
     56756 TIP3     15614    TIP3     OH2      OT      -0.834000       15.9994           0
     56757 TIP3     15614    TIP3     H1       HT       0.417000       1.00800           0
     56758 TIP3     15614    TIP3     H2       HT       0.417000       1.00800           0
     56759 TIP3     15615    TIP3     OH2      OT      -0.834000       15.9994           0
     56760 TIP3     15615    TIP3     H1       HT       0.417000       1.00800           0
     56761 TIP3     15615    TIP3     H2       HT       0.417000       1.00800           0
     56762 TIP3     15616    TIP3     OH2      OT      -0.834000       15.9994           0
     56763 TIP3     15616    TIP3     H1       HT       0.417000       1.00800           0
     56764 TIP3     15616    TIP3     H2       HT       0.417000       1.00800           0
     56765 TIP3     15617    TIP3     OH2      OT      -0.834000       15.9994           0
     56766 TIP3     15617    TIP3     H1       HT       0.417000       1.00800           0
     56767 TIP3     15617    TIP3     H2       HT       0.417000       1.00800           0
     56768 TIP3     15618    TIP3     OH2      OT      -0.834000       15.9994           0
     56769 TIP3     15618    TIP3     H1       HT       0.417000       1.00800           0
     56770 TIP3     15618    TIP3     H2       HT       0.417000       1.00800           0
     56771 TIP3     15619    TIP3     OH2      OT      -0.834000       15.9994           0
     56772 TIP3     15619    TIP3     H1       HT       0.417000       1.00800           0
     56773 TIP3     15619    TIP3     H2       HT       0.417000       1.00800           0
     56774 TIP3     15620    TIP3     OH2      OT      -0.834000       15.9994           0
     56775 TIP3     15620    TIP3     H1       HT       0.417000       1.00800           0
     56776 TIP3     15620    TIP3     H2       HT       0.417000       1.00800           0
     56777 TIP3     15621    TIP3     OH2      OT      -0.834000       15.9994           0
     56778 TIP3     15621    TIP3     H1       HT       0.417000       1.00800           0
     56779 TIP3     15621    TIP3     H2       HT       0.417000       1.00800           0
     56780 TIP3     15622    TIP3     OH2      OT      -0.834000       15.9994           0
     56781 TIP3     15622    TIP3     H1       HT       0.417000       1.00800           0
     56782 TIP3     15622    TIP3     H2       HT       0.417000       1.00800           0
     56783 TIP3     15623    TIP3     OH2      OT      -0.834000       15.9994           0
     56784 TIP3     15623    TIP3     H1       HT       0.417000       1.00800           0
     56785 TIP3     15623    TIP3     H2       HT       0.417000       1.00800           0
     56786 TIP3     15624    TIP3     OH2      OT      -0.834000       15.9994           0
     56787 TIP3     15624    TIP3     H1       HT       0.417000       1.00800           0
     56788 TIP3     15624    TIP3     H2       HT       0.417000       1.00800           0
     56789 TIP3     15625    TIP3     OH2      OT      -0.834000       15.9994           0
     56790 TIP3     15625    TIP3     H1       HT       0.417000       1.00800           0
     56791 TIP3     15625    TIP3     H2       HT       0.417000       1.00800           0
     56792 TIP3     15626    TIP3     OH2      OT      -0.834000       15.9994           0
     56793 TIP3     15626    TIP3     H1       HT       0.417000       1.00800           0
     56794 TIP3     15626    TIP3     H2       HT       0.417000       1.00800           0
     56795 TIP3     15627    TIP3     OH2      OT      -0.834000       15.9994           0
     56796 TIP3     15627    TIP3     H1       HT       0.417000       1.00800           0
     56797 TIP3     15627    TIP3     H2       HT       0.417000       1.00800           0
     56798 TIP3     15628    TIP3     OH2      OT      -0.834000       15.9994           0
     56799 TIP3     15628    TIP3     H1       HT       0.417000       1.00800           0
     56800 TIP3     15628    TIP3     H2       HT       0.417000       1.00800           0
     56801 TIP3     15629    TIP3     OH2      OT      -0.834000       15.9994           0
     56802 TIP3     15629    TIP3     H1       HT       0.417000       1.00800           0
     56803 TIP3     15629    TIP3     H2       HT       0.417000       1.00800           0
     56804 TIP3     15630    TIP3     OH2      OT      -0.834000       15.9994           0
     56805 TIP3     15630    TIP3     H1       HT       0.417000       1.00800           0
     56806 TIP3     15630    TIP3     H2       HT       0.417000       1.00800           0
     56807 TIP3     15631    TIP3     OH2      OT      -0.834000       15.9994           0
     56808 TIP3     15631    TIP3     H1       HT       0.417000       1.00800           0
     56809 TIP3     15631    TIP3     H2       HT       0.417000       1.00800           0
     56810 TIP3     15632    TIP3     OH2      OT      -0.834000       15.9994           0
     56811 TIP3     15632    TIP3     H1       HT       0.417000       1.00800           0
     56812 TIP3     15632    TIP3     H2       HT       0.417000       1.00800           0
     56813 TIP3     15633    TIP3     OH2      OT      -0.834000       15.9994           0
     56814 TIP3     15633    TIP3     H1       HT       0.417000       1.00800           0
     56815 TIP3     15633    TIP3     H2       HT       0.417000       1.00800           0
     56816 TIP3     15634    TIP3     OH2      OT      -0.834000       15.9994           0
     56817 TIP3     15634    TIP3     H1       HT       0.417000       1.00800           0
     56818 TIP3     15634    TIP3     H2       HT       0.417000       1.00800           0
     56819 TIP3     15635    TIP3     OH2      OT      -0.834000       15.9994           0
     56820 TIP3     15635    TIP3     H1       HT       0.417000       1.00800           0
     56821 TIP3     15635    TIP3     H2       HT       0.417000       1.00800           0
     56822 TIP3     15636    TIP3     OH2      OT      -0.834000       15.9994           0
     56823 TIP3     15636    TIP3     H1       HT       0.417000       1.00800           0
     56824 TIP3     15636    TIP3     H2       HT       0.417000       1.00800           0
     56825 TIP3     15637    TIP3     OH2      OT      -0.834000       15.9994           0
     56826 TIP3     15637    TIP3     H1       HT       0.417000       1.00800           0
     56827 TIP3     15637    TIP3     H2       HT       0.417000       1.00800           0
     56828 TIP3     15638    TIP3     OH2      OT      -0.834000       15.9994           0
     56829 TIP3     15638    TIP3     H1       HT       0.417000       1.00800           0
     56830 TIP3     15638    TIP3     H2       HT       0.417000       1.00800           0
     56831 TIP3     15639    TIP3     OH2      OT      -0.834000       15.9994           0
     56832 TIP3     15639    TIP3     H1       HT       0.417000       1.00800           0
     56833 TIP3     15639    TIP3     H2       HT       0.417000       1.00800           0
     56834 TIP3     15640    TIP3     OH2      OT      -0.834000       15.9994           0
     56835 TIP3     15640    TIP3     H1       HT       0.417000       1.00800           0
     56836 TIP3     15640    TIP3     H2       HT       0.417000       1.00800           0
     56837 TIP3     15641    TIP3     OH2      OT      -0.834000       15.9994           0
     56838 TIP3     15641    TIP3     H1       HT       0.417000       1.00800           0
     56839 TIP3     15641    TIP3     H2       HT       0.417000       1.00800           0
     56840 TIP3     15642    TIP3     OH2      OT      -0.834000       15.9994           0
     56841 TIP3     15642    TIP3     H1       HT       0.417000       1.00800           0
     56842 TIP3     15642    TIP3     H2       HT       0.417000       1.00800           0
     56843 TIP3     15643    TIP3     OH2      OT      -0.834000       15.9994           0
     56844 TIP3     15643    TIP3     H1       HT       0.417000       1.00800           0
     56845 TIP3     15643    TIP3     H2       HT       0.417000       1.00800           0
     56846 TIP3     15644    TIP3     OH2      OT      -0.834000       15.9994           0
     56847 TIP3     15644    TIP3     H1       HT       0.417000       1.00800           0
     56848 TIP3     15644    TIP3     H2       HT       0.417000       1.00800           0
     56849 TIP3     15645    TIP3     OH2      OT      -0.834000       15.9994           0
     56850 TIP3     15645    TIP3     H1       HT       0.417000       1.00800           0
     56851 TIP3     15645    TIP3     H2       HT       0.417000       1.00800           0
     56852 TIP3     15646    TIP3     OH2      OT      -0.834000       15.9994           0
     56853 TIP3     15646    TIP3     H1       HT       0.417000       1.00800           0
     56854 TIP3     15646    TIP3     H2       HT       0.417000       1.00800           0
     56855 TIP3     15647    TIP3     OH2      OT      -0.834000       15.9994           0
     56856 TIP3     15647    TIP3     H1       HT       0.417000       1.00800           0
     56857 TIP3     15647    TIP3     H2       HT       0.417000       1.00800           0
     56858 TIP3     15648    TIP3     OH2      OT      -0.834000       15.9994           0
     56859 TIP3     15648    TIP3     H1       HT       0.417000       1.00800           0
     56860 TIP3     15648    TIP3     H2       HT       0.417000       1.00800           0
     56861 TIP3     15649    TIP3     OH2      OT      -0.834000       15.9994           0
     56862 TIP3     15649    TIP3     H1       HT       0.417000       1.00800           0
     56863 TIP3     15649    TIP3     H2       HT       0.417000       1.00800           0
     56864 TIP3     15650    TIP3     OH2      OT      -0.834000       15.9994           0
     56865 TIP3     15650    TIP3     H1       HT       0.417000       1.00800           0
     56866 TIP3     15650    TIP3     H2       HT       0.417000       1.00800           0
     56867 TIP3     15651    TIP3     OH2      OT      -0.834000       15.9994           0
     56868 TIP3     15651    TIP3     H1       HT       0.417000       1.00800           0
     56869 TIP3     15651    TIP3     H2       HT       0.417000       1.00800           0
     56870 TIP3     15652    TIP3     OH2      OT      -0.834000       15.9994           0
     56871 TIP3     15652    TIP3     H1       HT       0.417000       1.00800           0
     56872 TIP3     15652    TIP3     H2       HT       0.417000       1.00800           0
     56873 TIP3     15653    TIP3     OH2      OT      -0.834000       15.9994           0
     56874 TIP3     15653    TIP3     H1       HT       0.417000       1.00800           0
     56875 TIP3     15653    TIP3     H2       HT       0.417000       1.00800           0
     56876 TIP3     15654    TIP3     OH2      OT      -0.834000       15.9994           0
     56877 TIP3     15654    TIP3     H1       HT       0.417000       1.00800           0
     56878 TIP3     15654    TIP3     H2       HT       0.417000       1.00800           0
     56879 TIP3     15655    TIP3     OH2      OT      -0.834000       15.9994           0
     56880 TIP3     15655    TIP3     H1       HT       0.417000       1.00800           0
     56881 TIP3     15655    TIP3     H2       HT       0.417000       1.00800           0
     56882 TIP3     15656    TIP3     OH2      OT      -0.834000       15.9994           0
     56883 TIP3     15656    TIP3     H1       HT       0.417000       1.00800           0
     56884 TIP3     15656    TIP3     H2       HT       0.417000       1.00800           0
     56885 TIP3     15657    TIP3     OH2      OT      -0.834000       15.9994           0
     56886 TIP3     15657    TIP3     H1       HT       0.417000       1.00800           0
     56887 TIP3     15657    TIP3     H2       HT       0.417000       1.00800           0
     56888 TIP3     15658    TIP3     OH2      OT      -0.834000       15.9994           0
     56889 TIP3     15658    TIP3     H1       HT       0.417000       1.00800           0
     56890 TIP3     15658    TIP3     H2       HT       0.417000       1.00800           0
     56891 TIP3     15659    TIP3     OH2      OT      -0.834000       15.9994           0
     56892 TIP3     15659    TIP3     H1       HT       0.417000       1.00800           0
     56893 TIP3     15659    TIP3     H2       HT       0.417000       1.00800           0
     56894 TIP3     15660    TIP3     OH2      OT      -0.834000       15.9994           0
     56895 TIP3     15660    TIP3     H1       HT       0.417000       1.00800           0
     56896 TIP3     15660    TIP3     H2       HT       0.417000       1.00800           0
     56897 TIP3     15661    TIP3     OH2      OT      -0.834000       15.9994           0
     56898 TIP3     15661    TIP3     H1       HT       0.417000       1.00800           0
     56899 TIP3     15661    TIP3     H2       HT       0.417000       1.00800           0
     56900 TIP3     15662    TIP3     OH2      OT      -0.834000       15.9994           0
     56901 TIP3     15662    TIP3     H1       HT       0.417000       1.00800           0
     56902 TIP3     15662    TIP3     H2       HT       0.417000       1.00800           0
     56903 TIP3     15663    TIP3     OH2      OT      -0.834000       15.9994           0
     56904 TIP3     15663    TIP3     H1       HT       0.417000       1.00800           0
     56905 TIP3     15663    TIP3     H2       HT       0.417000       1.00800           0
     56906 TIP3     15664    TIP3     OH2      OT      -0.834000       15.9994           0
     56907 TIP3     15664    TIP3     H1       HT       0.417000       1.00800           0
     56908 TIP3     15664    TIP3     H2       HT       0.417000       1.00800           0
     56909 TIP3     15665    TIP3     OH2      OT      -0.834000       15.9994           0
     56910 TIP3     15665    TIP3     H1       HT       0.417000       1.00800           0
     56911 TIP3     15665    TIP3     H2       HT       0.417000       1.00800           0
     56912 TIP3     15666    TIP3     OH2      OT      -0.834000       15.9994           0
     56913 TIP3     15666    TIP3     H1       HT       0.417000       1.00800           0
     56914 TIP3     15666    TIP3     H2       HT       0.417000       1.00800           0
     56915 TIP3     15667    TIP3     OH2      OT      -0.834000       15.9994           0
     56916 TIP3     15667    TIP3     H1       HT       0.417000       1.00800           0
     56917 TIP3     15667    TIP3     H2       HT       0.417000       1.00800           0
     56918 TIP3     15668    TIP3     OH2      OT      -0.834000       15.9994           0
     56919 TIP3     15668    TIP3     H1       HT       0.417000       1.00800           0
     56920 TIP3     15668    TIP3     H2       HT       0.417000       1.00800           0
     56921 TIP3     15669    TIP3     OH2      OT      -0.834000       15.9994           0
     56922 TIP3     15669    TIP3     H1       HT       0.417000       1.00800           0
     56923 TIP3     15669    TIP3     H2       HT       0.417000       1.00800           0
     56924 TIP3     15670    TIP3     OH2      OT      -0.834000       15.9994           0
     56925 TIP3     15670    TIP3     H1       HT       0.417000       1.00800           0
     56926 TIP3     15670    TIP3     H2       HT       0.417000       1.00800           0
     56927 TIP3     15671    TIP3     OH2      OT      -0.834000       15.9994           0
     56928 TIP3     15671    TIP3     H1       HT       0.417000       1.00800           0
     56929 TIP3     15671    TIP3     H2       HT       0.417000       1.00800           0
     56930 TIP3     15672    TIP3     OH2      OT      -0.834000       15.9994           0
     56931 TIP3     15672    TIP3     H1       HT       0.417000       1.00800           0
     56932 TIP3     15672    TIP3     H2       HT       0.417000       1.00800           0
     56933 TIP3     15673    TIP3     OH2      OT      -0.834000       15.9994           0
     56934 TIP3     15673    TIP3     H1       HT       0.417000       1.00800           0
     56935 TIP3     15673    TIP3     H2       HT       0.417000       1.00800           0
     56936 TIP3     15674    TIP3     OH2      OT      -0.834000       15.9994           0
     56937 TIP3     15674    TIP3     H1       HT       0.417000       1.00800           0
     56938 TIP3     15674    TIP3     H2       HT       0.417000       1.00800           0
     56939 TIP3     15675    TIP3     OH2      OT      -0.834000       15.9994           0
     56940 TIP3     15675    TIP3     H1       HT       0.417000       1.00800           0
     56941 TIP3     15675    TIP3     H2       HT       0.417000       1.00800           0
     56942 TIP3     15676    TIP3     OH2      OT      -0.834000       15.9994           0
     56943 TIP3     15676    TIP3     H1       HT       0.417000       1.00800           0
     56944 TIP3     15676    TIP3     H2       HT       0.417000       1.00800           0
     56945 TIP3     15677    TIP3     OH2      OT      -0.834000       15.9994           0
     56946 TIP3     15677    TIP3     H1       HT       0.417000       1.00800           0
     56947 TIP3     15677    TIP3     H2       HT       0.417000       1.00800           0
     56948 TIP3     15678    TIP3     OH2      OT      -0.834000       15.9994           0
     56949 TIP3     15678    TIP3     H1       HT       0.417000       1.00800           0
     56950 TIP3     15678    TIP3     H2       HT       0.417000       1.00800           0
     56951 TIP3     15679    TIP3     OH2      OT      -0.834000       15.9994           0
     56952 TIP3     15679    TIP3     H1       HT       0.417000       1.00800           0
     56953 TIP3     15679    TIP3     H2       HT       0.417000       1.00800           0
     56954 TIP3     15680    TIP3     OH2      OT      -0.834000       15.9994           0
     56955 TIP3     15680    TIP3     H1       HT       0.417000       1.00800           0
     56956 TIP3     15680    TIP3     H2       HT       0.417000       1.00800           0
     56957 TIP3     15681    TIP3     OH2      OT      -0.834000       15.9994           0
     56958 TIP3     15681    TIP3     H1       HT       0.417000       1.00800           0
     56959 TIP3     15681    TIP3     H2       HT       0.417000       1.00800           0
     56960 TIP3     15682    TIP3     OH2      OT      -0.834000       15.9994           0
     56961 TIP3     15682    TIP3     H1       HT       0.417000       1.00800           0
     56962 TIP3     15682    TIP3     H2       HT       0.417000       1.00800           0
     56963 TIP3     15683    TIP3     OH2      OT      -0.834000       15.9994           0
     56964 TIP3     15683    TIP3     H1       HT       0.417000       1.00800           0
     56965 TIP3     15683    TIP3     H2       HT       0.417000       1.00800           0
     56966 TIP3     15684    TIP3     OH2      OT      -0.834000       15.9994           0
     56967 TIP3     15684    TIP3     H1       HT       0.417000       1.00800           0
     56968 TIP3     15684    TIP3     H2       HT       0.417000       1.00800           0
     56969 TIP3     15685    TIP3     OH2      OT      -0.834000       15.9994           0
     56970 TIP3     15685    TIP3     H1       HT       0.417000       1.00800           0
     56971 TIP3     15685    TIP3     H2       HT       0.417000       1.00800           0
     56972 TIP3     15686    TIP3     OH2      OT      -0.834000       15.9994           0
     56973 TIP3     15686    TIP3     H1       HT       0.417000       1.00800           0
     56974 TIP3     15686    TIP3     H2       HT       0.417000       1.00800           0
     56975 TIP3     15687    TIP3     OH2      OT      -0.834000       15.9994           0
     56976 TIP3     15687    TIP3     H1       HT       0.417000       1.00800           0
     56977 TIP3     15687    TIP3     H2       HT       0.417000       1.00800           0
     56978 TIP3     15688    TIP3     OH2      OT      -0.834000       15.9994           0
     56979 TIP3     15688    TIP3     H1       HT       0.417000       1.00800           0
     56980 TIP3     15688    TIP3     H2       HT       0.417000       1.00800           0
     56981 TIP3     15689    TIP3     OH2      OT      -0.834000       15.9994           0
     56982 TIP3     15689    TIP3     H1       HT       0.417000       1.00800           0
     56983 TIP3     15689    TIP3     H2       HT       0.417000       1.00800           0
     56984 TIP3     15690    TIP3     OH2      OT      -0.834000       15.9994           0
     56985 TIP3     15690    TIP3     H1       HT       0.417000       1.00800           0
     56986 TIP3     15690    TIP3     H2       HT       0.417000       1.00800           0
     56987 TIP3     15691    TIP3     OH2      OT      -0.834000       15.9994           0
     56988 TIP3     15691    TIP3     H1       HT       0.417000       1.00800           0
     56989 TIP3     15691    TIP3     H2       HT       0.417000       1.00800           0
     56990 TIP3     15692    TIP3     OH2      OT      -0.834000       15.9994           0
     56991 TIP3     15692    TIP3     H1       HT       0.417000       1.00800           0
     56992 TIP3     15692    TIP3     H2       HT       0.417000       1.00800           0
     56993 TIP3     15693    TIP3     OH2      OT      -0.834000       15.9994           0
     56994 TIP3     15693    TIP3     H1       HT       0.417000       1.00800           0
     56995 TIP3     15693    TIP3     H2       HT       0.417000       1.00800           0
     56996 TIP3     15694    TIP3     OH2      OT      -0.834000       15.9994           0
     56997 TIP3     15694    TIP3     H1       HT       0.417000       1.00800           0
     56998 TIP3     15694    TIP3     H2       HT       0.417000       1.00800           0
     56999 TIP3     15695    TIP3     OH2      OT      -0.834000       15.9994           0
     57000 TIP3     15695    TIP3     H1       HT       0.417000       1.00800           0
     57001 TIP3     15695    TIP3     H2       HT       0.417000       1.00800           0
     57002 TIP3     15696    TIP3     OH2      OT      -0.834000       15.9994           0
     57003 TIP3     15696    TIP3     H1       HT       0.417000       1.00800           0
     57004 TIP3     15696    TIP3     H2       HT       0.417000       1.00800           0
     57005 TIP3     15697    TIP3     OH2      OT      -0.834000       15.9994           0
     57006 TIP3     15697    TIP3     H1       HT       0.417000       1.00800           0
     57007 TIP3     15697    TIP3     H2       HT       0.417000       1.00800           0
     57008 TIP3     15698    TIP3     OH2      OT      -0.834000       15.9994           0
     57009 TIP3     15698    TIP3     H1       HT       0.417000       1.00800           0
     57010 TIP3     15698    TIP3     H2       HT       0.417000       1.00800           0
     57011 TIP3     15699    TIP3     OH2      OT      -0.834000       15.9994           0
     57012 TIP3     15699    TIP3     H1       HT       0.417000       1.00800           0
     57013 TIP3     15699    TIP3     H2       HT       0.417000       1.00800           0
     57014 TIP3     15700    TIP3     OH2      OT      -0.834000       15.9994           0
     57015 TIP3     15700    TIP3     H1       HT       0.417000       1.00800           0
     57016 TIP3     15700    TIP3     H2       HT       0.417000       1.00800           0
     57017 TIP3     15701    TIP3     OH2      OT      -0.834000       15.9994           0
     57018 TIP3     15701    TIP3     H1       HT       0.417000       1.00800           0
     57019 TIP3     15701    TIP3     H2       HT       0.417000       1.00800           0
     57020 TIP3     15702    TIP3     OH2      OT      -0.834000       15.9994           0
     57021 TIP3     15702    TIP3     H1       HT       0.417000       1.00800           0
     57022 TIP3     15702    TIP3     H2       HT       0.417000       1.00800           0
     57023 TIP3     15703    TIP3     OH2      OT      -0.834000       15.9994           0
     57024 TIP3     15703    TIP3     H1       HT       0.417000       1.00800           0
     57025 TIP3     15703    TIP3     H2       HT       0.417000       1.00800           0
     57026 TIP3     15704    TIP3     OH2      OT      -0.834000       15.9994           0
     57027 TIP3     15704    TIP3     H1       HT       0.417000       1.00800           0
     57028 TIP3     15704    TIP3     H2       HT       0.417000       1.00800           0
     57029 TIP3     15705    TIP3     OH2      OT      -0.834000       15.9994           0
     57030 TIP3     15705    TIP3     H1       HT       0.417000       1.00800           0
     57031 TIP3     15705    TIP3     H2       HT       0.417000       1.00800           0
     57032 TIP3     15706    TIP3     OH2      OT      -0.834000       15.9994           0
     57033 TIP3     15706    TIP3     H1       HT       0.417000       1.00800           0
     57034 TIP3     15706    TIP3     H2       HT       0.417000       1.00800           0
     57035 TIP3     15707    TIP3     OH2      OT      -0.834000       15.9994           0
     57036 TIP3     15707    TIP3     H1       HT       0.417000       1.00800           0
     57037 TIP3     15707    TIP3     H2       HT       0.417000       1.00800           0
     57038 TIP3     15708    TIP3     OH2      OT      -0.834000       15.9994           0
     57039 TIP3     15708    TIP3     H1       HT       0.417000       1.00800           0
     57040 TIP3     15708    TIP3     H2       HT       0.417000       1.00800           0
     57041 TIP3     15709    TIP3     OH2      OT      -0.834000       15.9994           0
     57042 TIP3     15709    TIP3     H1       HT       0.417000       1.00800           0
     57043 TIP3     15709    TIP3     H2       HT       0.417000       1.00800           0
     57044 TIP3     15710    TIP3     OH2      OT      -0.834000       15.9994           0
     57045 TIP3     15710    TIP3     H1       HT       0.417000       1.00800           0
     57046 TIP3     15710    TIP3     H2       HT       0.417000       1.00800           0
     57047 TIP3     15711    TIP3     OH2      OT      -0.834000       15.9994           0
     57048 TIP3     15711    TIP3     H1       HT       0.417000       1.00800           0
     57049 TIP3     15711    TIP3     H2       HT       0.417000       1.00800           0
     57050 TIP3     15712    TIP3     OH2      OT      -0.834000       15.9994           0
     57051 TIP3     15712    TIP3     H1       HT       0.417000       1.00800           0
     57052 TIP3     15712    TIP3     H2       HT       0.417000       1.00800           0
     57053 TIP3     15713    TIP3     OH2      OT      -0.834000       15.9994           0
     57054 TIP3     15713    TIP3     H1       HT       0.417000       1.00800           0
     57055 TIP3     15713    TIP3     H2       HT       0.417000       1.00800           0
     57056 TIP3     15714    TIP3     OH2      OT      -0.834000       15.9994           0
     57057 TIP3     15714    TIP3     H1       HT       0.417000       1.00800           0
     57058 TIP3     15714    TIP3     H2       HT       0.417000       1.00800           0
     57059 TIP3     15715    TIP3     OH2      OT      -0.834000       15.9994           0
     57060 TIP3     15715    TIP3     H1       HT       0.417000       1.00800           0
     57061 TIP3     15715    TIP3     H2       HT       0.417000       1.00800           0
     57062 TIP3     15716    TIP3     OH2      OT      -0.834000       15.9994           0
     57063 TIP3     15716    TIP3     H1       HT       0.417000       1.00800           0
     57064 TIP3     15716    TIP3     H2       HT       0.417000       1.00800           0
     57065 TIP3     15717    TIP3     OH2      OT      -0.834000       15.9994           0
     57066 TIP3     15717    TIP3     H1       HT       0.417000       1.00800           0
     57067 TIP3     15717    TIP3     H2       HT       0.417000       1.00800           0
     57068 TIP3     15718    TIP3     OH2      OT      -0.834000       15.9994           0
     57069 TIP3     15718    TIP3     H1       HT       0.417000       1.00800           0
     57070 TIP3     15718    TIP3     H2       HT       0.417000       1.00800           0
     57071 TIP3     15719    TIP3     OH2      OT      -0.834000       15.9994           0
     57072 TIP3     15719    TIP3     H1       HT       0.417000       1.00800           0
     57073 TIP3     15719    TIP3     H2       HT       0.417000       1.00800           0
     57074 TIP3     15720    TIP3     OH2      OT      -0.834000       15.9994           0
     57075 TIP3     15720    TIP3     H1       HT       0.417000       1.00800           0
     57076 TIP3     15720    TIP3     H2       HT       0.417000       1.00800           0
     57077 TIP3     15721    TIP3     OH2      OT      -0.834000       15.9994           0
     57078 TIP3     15721    TIP3     H1       HT       0.417000       1.00800           0
     57079 TIP3     15721    TIP3     H2       HT       0.417000       1.00800           0
     57080 TIP3     15722    TIP3     OH2      OT      -0.834000       15.9994           0
     57081 TIP3     15722    TIP3     H1       HT       0.417000       1.00800           0
     57082 TIP3     15722    TIP3     H2       HT       0.417000       1.00800           0
     57083 TIP3     15723    TIP3     OH2      OT      -0.834000       15.9994           0
     57084 TIP3     15723    TIP3     H1       HT       0.417000       1.00800           0
     57085 TIP3     15723    TIP3     H2       HT       0.417000       1.00800           0
     57086 TIP3     15724    TIP3     OH2      OT      -0.834000       15.9994           0
     57087 TIP3     15724    TIP3     H1       HT       0.417000       1.00800           0
     57088 TIP3     15724    TIP3     H2       HT       0.417000       1.00800           0
     57089 TIP3     15725    TIP3     OH2      OT      -0.834000       15.9994           0
     57090 TIP3     15725    TIP3     H1       HT       0.417000       1.00800           0
     57091 TIP3     15725    TIP3     H2       HT       0.417000       1.00800           0
     57092 TIP3     15726    TIP3     OH2      OT      -0.834000       15.9994           0
     57093 TIP3     15726    TIP3     H1       HT       0.417000       1.00800           0
     57094 TIP3     15726    TIP3     H2       HT       0.417000       1.00800           0
     57095 TIP3     15727    TIP3     OH2      OT      -0.834000       15.9994           0
     57096 TIP3     15727    TIP3     H1       HT       0.417000       1.00800           0
     57097 TIP3     15727    TIP3     H2       HT       0.417000       1.00800           0
     57098 TIP3     15728    TIP3     OH2      OT      -0.834000       15.9994           0
     57099 TIP3     15728    TIP3     H1       HT       0.417000       1.00800           0
     57100 TIP3     15728    TIP3     H2       HT       0.417000       1.00800           0
     57101 TIP3     15729    TIP3     OH2      OT      -0.834000       15.9994           0
     57102 TIP3     15729    TIP3     H1       HT       0.417000       1.00800           0
     57103 TIP3     15729    TIP3     H2       HT       0.417000       1.00800           0
     57104 TIP3     15730    TIP3     OH2      OT      -0.834000       15.9994           0
     57105 TIP3     15730    TIP3     H1       HT       0.417000       1.00800           0
     57106 TIP3     15730    TIP3     H2       HT       0.417000       1.00800           0
     57107 TIP3     15731    TIP3     OH2      OT      -0.834000       15.9994           0
     57108 TIP3     15731    TIP3     H1       HT       0.417000       1.00800           0
     57109 TIP3     15731    TIP3     H2       HT       0.417000       1.00800           0
     57110 TIP3     15732    TIP3     OH2      OT      -0.834000       15.9994           0
     57111 TIP3     15732    TIP3     H1       HT       0.417000       1.00800           0
     57112 TIP3     15732    TIP3     H2       HT       0.417000       1.00800           0
     57113 TIP3     15733    TIP3     OH2      OT      -0.834000       15.9994           0
     57114 TIP3     15733    TIP3     H1       HT       0.417000       1.00800           0
     57115 TIP3     15733    TIP3     H2       HT       0.417000       1.00800           0
     57116 TIP3     15734    TIP3     OH2      OT      -0.834000       15.9994           0
     57117 TIP3     15734    TIP3     H1       HT       0.417000       1.00800           0
     57118 TIP3     15734    TIP3     H2       HT       0.417000       1.00800           0
     57119 TIP3     15735    TIP3     OH2      OT      -0.834000       15.9994           0
     57120 TIP3     15735    TIP3     H1       HT       0.417000       1.00800           0
     57121 TIP3     15735    TIP3     H2       HT       0.417000       1.00800           0
     57122 TIP3     15736    TIP3     OH2      OT      -0.834000       15.9994           0
     57123 TIP3     15736    TIP3     H1       HT       0.417000       1.00800           0
     57124 TIP3     15736    TIP3     H2       HT       0.417000       1.00800           0
     57125 TIP3     15737    TIP3     OH2      OT      -0.834000       15.9994           0
     57126 TIP3     15737    TIP3     H1       HT       0.417000       1.00800           0
     57127 TIP3     15737    TIP3     H2       HT       0.417000       1.00800           0
     57128 TIP3     15738    TIP3     OH2      OT      -0.834000       15.9994           0
     57129 TIP3     15738    TIP3     H1       HT       0.417000       1.00800           0
     57130 TIP3     15738    TIP3     H2       HT       0.417000       1.00800           0
     57131 TIP3     15739    TIP3     OH2      OT      -0.834000       15.9994           0
     57132 TIP3     15739    TIP3     H1       HT       0.417000       1.00800           0
     57133 TIP3     15739    TIP3     H2       HT       0.417000       1.00800           0
     57134 TIP3     15740    TIP3     OH2      OT      -0.834000       15.9994           0
     57135 TIP3     15740    TIP3     H1       HT       0.417000       1.00800           0
     57136 TIP3     15740    TIP3     H2       HT       0.417000       1.00800           0
     57137 TIP3     15741    TIP3     OH2      OT      -0.834000       15.9994           0
     57138 TIP3     15741    TIP3     H1       HT       0.417000       1.00800           0
     57139 TIP3     15741    TIP3     H2       HT       0.417000       1.00800           0
     57140 TIP3     15742    TIP3     OH2      OT      -0.834000       15.9994           0
     57141 TIP3     15742    TIP3     H1       HT       0.417000       1.00800           0
     57142 TIP3     15742    TIP3     H2       HT       0.417000       1.00800           0
     57143 TIP3     15743    TIP3     OH2      OT      -0.834000       15.9994           0
     57144 TIP3     15743    TIP3     H1       HT       0.417000       1.00800           0
     57145 TIP3     15743    TIP3     H2       HT       0.417000       1.00800           0
     57146 TIP3     15744    TIP3     OH2      OT      -0.834000       15.9994           0
     57147 TIP3     15744    TIP3     H1       HT       0.417000       1.00800           0
     57148 TIP3     15744    TIP3     H2       HT       0.417000       1.00800           0
     57149 TIP3     15745    TIP3     OH2      OT      -0.834000       15.9994           0
     57150 TIP3     15745    TIP3     H1       HT       0.417000       1.00800           0
     57151 TIP3     15745    TIP3     H2       HT       0.417000       1.00800           0
     57152 TIP3     15746    TIP3     OH2      OT      -0.834000       15.9994           0
     57153 TIP3     15746    TIP3     H1       HT       0.417000       1.00800           0
     57154 TIP3     15746    TIP3     H2       HT       0.417000       1.00800           0
     57155 TIP3     15747    TIP3     OH2      OT      -0.834000       15.9994           0
     57156 TIP3     15747    TIP3     H1       HT       0.417000       1.00800           0
     57157 TIP3     15747    TIP3     H2       HT       0.417000       1.00800           0
     57158 TIP3     15748    TIP3     OH2      OT      -0.834000       15.9994           0
     57159 TIP3     15748    TIP3     H1       HT       0.417000       1.00800           0
     57160 TIP3     15748    TIP3     H2       HT       0.417000       1.00800           0
     57161 TIP3     15749    TIP3     OH2      OT      -0.834000       15.9994           0
     57162 TIP3     15749    TIP3     H1       HT       0.417000       1.00800           0
     57163 TIP3     15749    TIP3     H2       HT       0.417000       1.00800           0
     57164 TIP3     15750    TIP3     OH2      OT      -0.834000       15.9994           0
     57165 TIP3     15750    TIP3     H1       HT       0.417000       1.00800           0
     57166 TIP3     15750    TIP3     H2       HT       0.417000       1.00800           0
     57167 TIP3     15751    TIP3     OH2      OT      -0.834000       15.9994           0
     57168 TIP3     15751    TIP3     H1       HT       0.417000       1.00800           0
     57169 TIP3     15751    TIP3     H2       HT       0.417000       1.00800           0
     57170 TIP3     15752    TIP3     OH2      OT      -0.834000       15.9994           0
     57171 TIP3     15752    TIP3     H1       HT       0.417000       1.00800           0
     57172 TIP3     15752    TIP3     H2       HT       0.417000       1.00800           0
     57173 TIP3     15753    TIP3     OH2      OT      -0.834000       15.9994           0
     57174 TIP3     15753    TIP3     H1       HT       0.417000       1.00800           0
     57175 TIP3     15753    TIP3     H2       HT       0.417000       1.00800           0
     57176 TIP3     15754    TIP3     OH2      OT      -0.834000       15.9994           0
     57177 TIP3     15754    TIP3     H1       HT       0.417000       1.00800           0
     57178 TIP3     15754    TIP3     H2       HT       0.417000       1.00800           0
     57179 TIP3     15755    TIP3     OH2      OT      -0.834000       15.9994           0
     57180 TIP3     15755    TIP3     H1       HT       0.417000       1.00800           0
     57181 TIP3     15755    TIP3     H2       HT       0.417000       1.00800           0
     57182 TIP3     15756    TIP3     OH2      OT      -0.834000       15.9994           0
     57183 TIP3     15756    TIP3     H1       HT       0.417000       1.00800           0
     57184 TIP3     15756    TIP3     H2       HT       0.417000       1.00800           0
     57185 TIP3     15757    TIP3     OH2      OT      -0.834000       15.9994           0
     57186 TIP3     15757    TIP3     H1       HT       0.417000       1.00800           0
     57187 TIP3     15757    TIP3     H2       HT       0.417000       1.00800           0
     57188 TIP3     15758    TIP3     OH2      OT      -0.834000       15.9994           0
     57189 TIP3     15758    TIP3     H1       HT       0.417000       1.00800           0
     57190 TIP3     15758    TIP3     H2       HT       0.417000       1.00800           0
     57191 TIP3     15759    TIP3     OH2      OT      -0.834000       15.9994           0
     57192 TIP3     15759    TIP3     H1       HT       0.417000       1.00800           0
     57193 TIP3     15759    TIP3     H2       HT       0.417000       1.00800           0
     57194 TIP3     15760    TIP3     OH2      OT      -0.834000       15.9994           0
     57195 TIP3     15760    TIP3     H1       HT       0.417000       1.00800           0
     57196 TIP3     15760    TIP3     H2       HT       0.417000       1.00800           0
     57197 TIP3     15761    TIP3     OH2      OT      -0.834000       15.9994           0
     57198 TIP3     15761    TIP3     H1       HT       0.417000       1.00800           0
     57199 TIP3     15761    TIP3     H2       HT       0.417000       1.00800           0
     57200 TIP3     15762    TIP3     OH2      OT      -0.834000       15.9994           0
     57201 TIP3     15762    TIP3     H1       HT       0.417000       1.00800           0
     57202 TIP3     15762    TIP3     H2       HT       0.417000       1.00800           0
     57203 TIP3     15763    TIP3     OH2      OT      -0.834000       15.9994           0
     57204 TIP3     15763    TIP3     H1       HT       0.417000       1.00800           0
     57205 TIP3     15763    TIP3     H2       HT       0.417000       1.00800           0
     57206 TIP3     15764    TIP3     OH2      OT      -0.834000       15.9994           0
     57207 TIP3     15764    TIP3     H1       HT       0.417000       1.00800           0
     57208 TIP3     15764    TIP3     H2       HT       0.417000       1.00800           0
     57209 TIP3     15765    TIP3     OH2      OT      -0.834000       15.9994           0
     57210 TIP3     15765    TIP3     H1       HT       0.417000       1.00800           0
     57211 TIP3     15765    TIP3     H2       HT       0.417000       1.00800           0
     57212 TIP3     15766    TIP3     OH2      OT      -0.834000       15.9994           0
     57213 TIP3     15766    TIP3     H1       HT       0.417000       1.00800           0
     57214 TIP3     15766    TIP3     H2       HT       0.417000       1.00800           0
     57215 TIP3     15767    TIP3     OH2      OT      -0.834000       15.9994           0
     57216 TIP3     15767    TIP3     H1       HT       0.417000       1.00800           0
     57217 TIP3     15767    TIP3     H2       HT       0.417000       1.00800           0
     57218 TIP3     15768    TIP3     OH2      OT      -0.834000       15.9994           0
     57219 TIP3     15768    TIP3     H1       HT       0.417000       1.00800           0
     57220 TIP3     15768    TIP3     H2       HT       0.417000       1.00800           0
     57221 TIP3     15769    TIP3     OH2      OT      -0.834000       15.9994           0
     57222 TIP3     15769    TIP3     H1       HT       0.417000       1.00800           0
     57223 TIP3     15769    TIP3     H2       HT       0.417000       1.00800           0
     57224 TIP3     15770    TIP3     OH2      OT      -0.834000       15.9994           0
     57225 TIP3     15770    TIP3     H1       HT       0.417000       1.00800           0
     57226 TIP3     15770    TIP3     H2       HT       0.417000       1.00800           0
     57227 TIP3     15771    TIP3     OH2      OT      -0.834000       15.9994           0
     57228 TIP3     15771    TIP3     H1       HT       0.417000       1.00800           0
     57229 TIP3     15771    TIP3     H2       HT       0.417000       1.00800           0
     57230 TIP3     15772    TIP3     OH2      OT      -0.834000       15.9994           0
     57231 TIP3     15772    TIP3     H1       HT       0.417000       1.00800           0
     57232 TIP3     15772    TIP3     H2       HT       0.417000       1.00800           0
     57233 TIP3     15773    TIP3     OH2      OT      -0.834000       15.9994           0
     57234 TIP3     15773    TIP3     H1       HT       0.417000       1.00800           0
     57235 TIP3     15773    TIP3     H2       HT       0.417000       1.00800           0
     57236 TIP3     15774    TIP3     OH2      OT      -0.834000       15.9994           0
     57237 TIP3     15774    TIP3     H1       HT       0.417000       1.00800           0
     57238 TIP3     15774    TIP3     H2       HT       0.417000       1.00800           0
     57239 TIP3     15775    TIP3     OH2      OT      -0.834000       15.9994           0
     57240 TIP3     15775    TIP3     H1       HT       0.417000       1.00800           0
     57241 TIP3     15775    TIP3     H2       HT       0.417000       1.00800           0
     57242 TIP3     15776    TIP3     OH2      OT      -0.834000       15.9994           0
     57243 TIP3     15776    TIP3     H1       HT       0.417000       1.00800           0
     57244 TIP3     15776    TIP3     H2       HT       0.417000       1.00800           0
     57245 TIP3     15777    TIP3     OH2      OT      -0.834000       15.9994           0
     57246 TIP3     15777    TIP3     H1       HT       0.417000       1.00800           0
     57247 TIP3     15777    TIP3     H2       HT       0.417000       1.00800           0
     57248 TIP3     15778    TIP3     OH2      OT      -0.834000       15.9994           0
     57249 TIP3     15778    TIP3     H1       HT       0.417000       1.00800           0
     57250 TIP3     15778    TIP3     H2       HT       0.417000       1.00800           0
     57251 TIP3     15779    TIP3     OH2      OT      -0.834000       15.9994           0
     57252 TIP3     15779    TIP3     H1       HT       0.417000       1.00800           0
     57253 TIP3     15779    TIP3     H2       HT       0.417000       1.00800           0
     57254 TIP3     15780    TIP3     OH2      OT      -0.834000       15.9994           0
     57255 TIP3     15780    TIP3     H1       HT       0.417000       1.00800           0
     57256 TIP3     15780    TIP3     H2       HT       0.417000       1.00800           0
     57257 TIP3     15781    TIP3     OH2      OT      -0.834000       15.9994           0
     57258 TIP3     15781    TIP3     H1       HT       0.417000       1.00800           0
     57259 TIP3     15781    TIP3     H2       HT       0.417000       1.00800           0
     57260 TIP3     15782    TIP3     OH2      OT      -0.834000       15.9994           0
     57261 TIP3     15782    TIP3     H1       HT       0.417000       1.00800           0
     57262 TIP3     15782    TIP3     H2       HT       0.417000       1.00800           0
     57263 TIP3     15783    TIP3     OH2      OT      -0.834000       15.9994           0
     57264 TIP3     15783    TIP3     H1       HT       0.417000       1.00800           0
     57265 TIP3     15783    TIP3     H2       HT       0.417000       1.00800           0
     57266 TIP3     15784    TIP3     OH2      OT      -0.834000       15.9994           0
     57267 TIP3     15784    TIP3     H1       HT       0.417000       1.00800           0
     57268 TIP3     15784    TIP3     H2       HT       0.417000       1.00800           0
     57269 TIP3     15785    TIP3     OH2      OT      -0.834000       15.9994           0
     57270 TIP3     15785    TIP3     H1       HT       0.417000       1.00800           0
     57271 TIP3     15785    TIP3     H2       HT       0.417000       1.00800           0
     57272 TIP3     15786    TIP3     OH2      OT      -0.834000       15.9994           0
     57273 TIP3     15786    TIP3     H1       HT       0.417000       1.00800           0
     57274 TIP3     15786    TIP3     H2       HT       0.417000       1.00800           0
     57275 TIP3     15787    TIP3     OH2      OT      -0.834000       15.9994           0
     57276 TIP3     15787    TIP3     H1       HT       0.417000       1.00800           0
     57277 TIP3     15787    TIP3     H2       HT       0.417000       1.00800           0
     57278 TIP3     15788    TIP3     OH2      OT      -0.834000       15.9994           0
     57279 TIP3     15788    TIP3     H1       HT       0.417000       1.00800           0
     57280 TIP3     15788    TIP3     H2       HT       0.417000       1.00800           0
     57281 TIP3     15789    TIP3     OH2      OT      -0.834000       15.9994           0
     57282 TIP3     15789    TIP3     H1       HT       0.417000       1.00800           0
     57283 TIP3     15789    TIP3     H2       HT       0.417000       1.00800           0
     57284 TIP3     15790    TIP3     OH2      OT      -0.834000       15.9994           0
     57285 TIP3     15790    TIP3     H1       HT       0.417000       1.00800           0
     57286 TIP3     15790    TIP3     H2       HT       0.417000       1.00800           0
     57287 TIP3     15791    TIP3     OH2      OT      -0.834000       15.9994           0
     57288 TIP3     15791    TIP3     H1       HT       0.417000       1.00800           0
     57289 TIP3     15791    TIP3     H2       HT       0.417000       1.00800           0
     57290 TIP3     15792    TIP3     OH2      OT      -0.834000       15.9994           0
     57291 TIP3     15792    TIP3     H1       HT       0.417000       1.00800           0
     57292 TIP3     15792    TIP3     H2       HT       0.417000       1.00800           0
     57293 TIP3     15793    TIP3     OH2      OT      -0.834000       15.9994           0
     57294 TIP3     15793    TIP3     H1       HT       0.417000       1.00800           0
     57295 TIP3     15793    TIP3     H2       HT       0.417000       1.00800           0
     57296 TIP3     15794    TIP3     OH2      OT      -0.834000       15.9994           0
     57297 TIP3     15794    TIP3     H1       HT       0.417000       1.00800           0
     57298 TIP3     15794    TIP3     H2       HT       0.417000       1.00800           0
     57299 TIP3     15795    TIP3     OH2      OT      -0.834000       15.9994           0
     57300 TIP3     15795    TIP3     H1       HT       0.417000       1.00800           0
     57301 TIP3     15795    TIP3     H2       HT       0.417000       1.00800           0
     57302 TIP3     15796    TIP3     OH2      OT      -0.834000       15.9994           0
     57303 TIP3     15796    TIP3     H1       HT       0.417000       1.00800           0
     57304 TIP3     15796    TIP3     H2       HT       0.417000       1.00800           0
     57305 TIP3     15797    TIP3     OH2      OT      -0.834000       15.9994           0
     57306 TIP3     15797    TIP3     H1       HT       0.417000       1.00800           0
     57307 TIP3     15797    TIP3     H2       HT       0.417000       1.00800           0
     57308 TIP3     15798    TIP3     OH2      OT      -0.834000       15.9994           0
     57309 TIP3     15798    TIP3     H1       HT       0.417000       1.00800           0
     57310 TIP3     15798    TIP3     H2       HT       0.417000       1.00800           0
     57311 TIP3     15799    TIP3     OH2      OT      -0.834000       15.9994           0
     57312 TIP3     15799    TIP3     H1       HT       0.417000       1.00800           0
     57313 TIP3     15799    TIP3     H2       HT       0.417000       1.00800           0
     57314 TIP3     15800    TIP3     OH2      OT      -0.834000       15.9994           0
     57315 TIP3     15800    TIP3     H1       HT       0.417000       1.00800           0
     57316 TIP3     15800    TIP3     H2       HT       0.417000       1.00800           0
     57317 TIP3     15801    TIP3     OH2      OT      -0.834000       15.9994           0
     57318 TIP3     15801    TIP3     H1       HT       0.417000       1.00800           0
     57319 TIP3     15801    TIP3     H2       HT       0.417000       1.00800           0
     57320 TIP3     15802    TIP3     OH2      OT      -0.834000       15.9994           0
     57321 TIP3     15802    TIP3     H1       HT       0.417000       1.00800           0
     57322 TIP3     15802    TIP3     H2       HT       0.417000       1.00800           0
     57323 TIP3     15803    TIP3     OH2      OT      -0.834000       15.9994           0
     57324 TIP3     15803    TIP3     H1       HT       0.417000       1.00800           0
     57325 TIP3     15803    TIP3     H2       HT       0.417000       1.00800           0
     57326 TIP3     15804    TIP3     OH2      OT      -0.834000       15.9994           0
     57327 TIP3     15804    TIP3     H1       HT       0.417000       1.00800           0
     57328 TIP3     15804    TIP3     H2       HT       0.417000       1.00800           0
     57329 TIP3     15805    TIP3     OH2      OT      -0.834000       15.9994           0
     57330 TIP3     15805    TIP3     H1       HT       0.417000       1.00800           0
     57331 TIP3     15805    TIP3     H2       HT       0.417000       1.00800           0
     57332 TIP3     15806    TIP3     OH2      OT      -0.834000       15.9994           0
     57333 TIP3     15806    TIP3     H1       HT       0.417000       1.00800           0
     57334 TIP3     15806    TIP3     H2       HT       0.417000       1.00800           0
     57335 TIP3     15807    TIP3     OH2      OT      -0.834000       15.9994           0
     57336 TIP3     15807    TIP3     H1       HT       0.417000       1.00800           0
     57337 TIP3     15807    TIP3     H2       HT       0.417000       1.00800           0
     57338 TIP3     15808    TIP3     OH2      OT      -0.834000       15.9994           0
     57339 TIP3     15808    TIP3     H1       HT       0.417000       1.00800           0
     57340 TIP3     15808    TIP3     H2       HT       0.417000       1.00800           0
     57341 TIP3     15809    TIP3     OH2      OT      -0.834000       15.9994           0
     57342 TIP3     15809    TIP3     H1       HT       0.417000       1.00800           0
     57343 TIP3     15809    TIP3     H2       HT       0.417000       1.00800           0
     57344 TIP3     15810    TIP3     OH2      OT      -0.834000       15.9994           0
     57345 TIP3     15810    TIP3     H1       HT       0.417000       1.00800           0
     57346 TIP3     15810    TIP3     H2       HT       0.417000       1.00800           0
     57347 TIP3     15811    TIP3     OH2      OT      -0.834000       15.9994           0
     57348 TIP3     15811    TIP3     H1       HT       0.417000       1.00800           0
     57349 TIP3     15811    TIP3     H2       HT       0.417000       1.00800           0
     57350 TIP3     15812    TIP3     OH2      OT      -0.834000       15.9994           0
     57351 TIP3     15812    TIP3     H1       HT       0.417000       1.00800           0
     57352 TIP3     15812    TIP3     H2       HT       0.417000       1.00800           0
     57353 TIP3     15813    TIP3     OH2      OT      -0.834000       15.9994           0
     57354 TIP3     15813    TIP3     H1       HT       0.417000       1.00800           0
     57355 TIP3     15813    TIP3     H2       HT       0.417000       1.00800           0
     57356 TIP3     15814    TIP3     OH2      OT      -0.834000       15.9994           0
     57357 TIP3     15814    TIP3     H1       HT       0.417000       1.00800           0
     57358 TIP3     15814    TIP3     H2       HT       0.417000       1.00800           0
     57359 TIP3     15815    TIP3     OH2      OT      -0.834000       15.9994           0
     57360 TIP3     15815    TIP3     H1       HT       0.417000       1.00800           0
     57361 TIP3     15815    TIP3     H2       HT       0.417000       1.00800           0
     57362 TIP3     15816    TIP3     OH2      OT      -0.834000       15.9994           0
     57363 TIP3     15816    TIP3     H1       HT       0.417000       1.00800           0
     57364 TIP3     15816    TIP3     H2       HT       0.417000       1.00800           0
     57365 TIP3     15817    TIP3     OH2      OT      -0.834000       15.9994           0
     57366 TIP3     15817    TIP3     H1       HT       0.417000       1.00800           0
     57367 TIP3     15817    TIP3     H2       HT       0.417000       1.00800           0
     57368 TIP3     15818    TIP3     OH2      OT      -0.834000       15.9994           0
     57369 TIP3     15818    TIP3     H1       HT       0.417000       1.00800           0
     57370 TIP3     15818    TIP3     H2       HT       0.417000       1.00800           0
     57371 TIP3     15819    TIP3     OH2      OT      -0.834000       15.9994           0
     57372 TIP3     15819    TIP3     H1       HT       0.417000       1.00800           0
     57373 TIP3     15819    TIP3     H2       HT       0.417000       1.00800           0
     57374 TIP3     15820    TIP3     OH2      OT      -0.834000       15.9994           0
     57375 TIP3     15820    TIP3     H1       HT       0.417000       1.00800           0
     57376 TIP3     15820    TIP3     H2       HT       0.417000       1.00800           0
     57377 TIP3     15821    TIP3     OH2      OT      -0.834000       15.9994           0
     57378 TIP3     15821    TIP3     H1       HT       0.417000       1.00800           0
     57379 TIP3     15821    TIP3     H2       HT       0.417000       1.00800           0
     57380 TIP3     15822    TIP3     OH2      OT      -0.834000       15.9994           0
     57381 TIP3     15822    TIP3     H1       HT       0.417000       1.00800           0
     57382 TIP3     15822    TIP3     H2       HT       0.417000       1.00800           0
     57383 TIP3     15823    TIP3     OH2      OT      -0.834000       15.9994           0
     57384 TIP3     15823    TIP3     H1       HT       0.417000       1.00800           0
     57385 TIP3     15823    TIP3     H2       HT       0.417000       1.00800           0
     57386 TIP3     15824    TIP3     OH2      OT      -0.834000       15.9994           0
     57387 TIP3     15824    TIP3     H1       HT       0.417000       1.00800           0
     57388 TIP3     15824    TIP3     H2       HT       0.417000       1.00800           0
     57389 TIP3     15825    TIP3     OH2      OT      -0.834000       15.9994           0
     57390 TIP3     15825    TIP3     H1       HT       0.417000       1.00800           0
     57391 TIP3     15825    TIP3     H2       HT       0.417000       1.00800           0
     57392 TIP3     15826    TIP3     OH2      OT      -0.834000       15.9994           0
     57393 TIP3     15826    TIP3     H1       HT       0.417000       1.00800           0
     57394 TIP3     15826    TIP3     H2       HT       0.417000       1.00800           0
     57395 TIP3     15827    TIP3     OH2      OT      -0.834000       15.9994           0
     57396 TIP3     15827    TIP3     H1       HT       0.417000       1.00800           0
     57397 TIP3     15827    TIP3     H2       HT       0.417000       1.00800           0
     57398 TIP3     15828    TIP3     OH2      OT      -0.834000       15.9994           0
     57399 TIP3     15828    TIP3     H1       HT       0.417000       1.00800           0
     57400 TIP3     15828    TIP3     H2       HT       0.417000       1.00800           0
     57401 TIP3     15829    TIP3     OH2      OT      -0.834000       15.9994           0
     57402 TIP3     15829    TIP3     H1       HT       0.417000       1.00800           0
     57403 TIP3     15829    TIP3     H2       HT       0.417000       1.00800           0
     57404 TIP3     15830    TIP3     OH2      OT      -0.834000       15.9994           0
     57405 TIP3     15830    TIP3     H1       HT       0.417000       1.00800           0
     57406 TIP3     15830    TIP3     H2       HT       0.417000       1.00800           0
     57407 TIP3     15831    TIP3     OH2      OT      -0.834000       15.9994           0
     57408 TIP3     15831    TIP3     H1       HT       0.417000       1.00800           0
     57409 TIP3     15831    TIP3     H2       HT       0.417000       1.00800           0
     57410 TIP3     15832    TIP3     OH2      OT      -0.834000       15.9994           0
     57411 TIP3     15832    TIP3     H1       HT       0.417000       1.00800           0
     57412 TIP3     15832    TIP3     H2       HT       0.417000       1.00800           0
     57413 TIP3     15833    TIP3     OH2      OT      -0.834000       15.9994           0
     57414 TIP3     15833    TIP3     H1       HT       0.417000       1.00800           0
     57415 TIP3     15833    TIP3     H2       HT       0.417000       1.00800           0
     57416 TIP3     15834    TIP3     OH2      OT      -0.834000       15.9994           0
     57417 TIP3     15834    TIP3     H1       HT       0.417000       1.00800           0
     57418 TIP3     15834    TIP3     H2       HT       0.417000       1.00800           0
     57419 TIP3     15835    TIP3     OH2      OT      -0.834000       15.9994           0
     57420 TIP3     15835    TIP3     H1       HT       0.417000       1.00800           0
     57421 TIP3     15835    TIP3     H2       HT       0.417000       1.00800           0
     57422 TIP3     15836    TIP3     OH2      OT      -0.834000       15.9994           0
     57423 TIP3     15836    TIP3     H1       HT       0.417000       1.00800           0
     57424 TIP3     15836    TIP3     H2       HT       0.417000       1.00800           0
     57425 TIP3     15837    TIP3     OH2      OT      -0.834000       15.9994           0
     57426 TIP3     15837    TIP3     H1       HT       0.417000       1.00800           0
     57427 TIP3     15837    TIP3     H2       HT       0.417000       1.00800           0
     57428 TIP3     15838    TIP3     OH2      OT      -0.834000       15.9994           0
     57429 TIP3     15838    TIP3     H1       HT       0.417000       1.00800           0
     57430 TIP3     15838    TIP3     H2       HT       0.417000       1.00800           0
     57431 TIP3     15839    TIP3     OH2      OT      -0.834000       15.9994           0
     57432 TIP3     15839    TIP3     H1       HT       0.417000       1.00800           0
     57433 TIP3     15839    TIP3     H2       HT       0.417000       1.00800           0
     57434 TIP3     15840    TIP3     OH2      OT      -0.834000       15.9994           0
     57435 TIP3     15840    TIP3     H1       HT       0.417000       1.00800           0
     57436 TIP3     15840    TIP3     H2       HT       0.417000       1.00800           0
     57437 TIP3     15841    TIP3     OH2      OT      -0.834000       15.9994           0
     57438 TIP3     15841    TIP3     H1       HT       0.417000       1.00800           0
     57439 TIP3     15841    TIP3     H2       HT       0.417000       1.00800           0
     57440 TIP3     15842    TIP3     OH2      OT      -0.834000       15.9994           0
     57441 TIP3     15842    TIP3     H1       HT       0.417000       1.00800           0
     57442 TIP3     15842    TIP3     H2       HT       0.417000       1.00800           0
     57443 TIP3     15843    TIP3     OH2      OT      -0.834000       15.9994           0
     57444 TIP3     15843    TIP3     H1       HT       0.417000       1.00800           0
     57445 TIP3     15843    TIP3     H2       HT       0.417000       1.00800           0
     57446 TIP3     15844    TIP3     OH2      OT      -0.834000       15.9994           0
     57447 TIP3     15844    TIP3     H1       HT       0.417000       1.00800           0
     57448 TIP3     15844    TIP3     H2       HT       0.417000       1.00800           0
     57449 TIP3     15845    TIP3     OH2      OT      -0.834000       15.9994           0
     57450 TIP3     15845    TIP3     H1       HT       0.417000       1.00800           0
     57451 TIP3     15845    TIP3     H2       HT       0.417000       1.00800           0
     57452 TIP3     15846    TIP3     OH2      OT      -0.834000       15.9994           0
     57453 TIP3     15846    TIP3     H1       HT       0.417000       1.00800           0
     57454 TIP3     15846    TIP3     H2       HT       0.417000       1.00800           0
     57455 TIP3     15847    TIP3     OH2      OT      -0.834000       15.9994           0
     57456 TIP3     15847    TIP3     H1       HT       0.417000       1.00800           0
     57457 TIP3     15847    TIP3     H2       HT       0.417000       1.00800           0
     57458 TIP3     15848    TIP3     OH2      OT      -0.834000       15.9994           0
     57459 TIP3     15848    TIP3     H1       HT       0.417000       1.00800           0
     57460 TIP3     15848    TIP3     H2       HT       0.417000       1.00800           0
     57461 TIP3     15849    TIP3     OH2      OT      -0.834000       15.9994           0
     57462 TIP3     15849    TIP3     H1       HT       0.417000       1.00800           0
     57463 TIP3     15849    TIP3     H2       HT       0.417000       1.00800           0
     57464 TIP3     15850    TIP3     OH2      OT      -0.834000       15.9994           0
     57465 TIP3     15850    TIP3     H1       HT       0.417000       1.00800           0
     57466 TIP3     15850    TIP3     H2       HT       0.417000       1.00800           0
     57467 TIP3     15851    TIP3     OH2      OT      -0.834000       15.9994           0
     57468 TIP3     15851    TIP3     H1       HT       0.417000       1.00800           0
     57469 TIP3     15851    TIP3     H2       HT       0.417000       1.00800           0
     57470 TIP3     15852    TIP3     OH2      OT      -0.834000       15.9994           0
     57471 TIP3     15852    TIP3     H1       HT       0.417000       1.00800           0
     57472 TIP3     15852    TIP3     H2       HT       0.417000       1.00800           0
     57473 TIP3     15853    TIP3     OH2      OT      -0.834000       15.9994           0
     57474 TIP3     15853    TIP3     H1       HT       0.417000       1.00800           0
     57475 TIP3     15853    TIP3     H2       HT       0.417000       1.00800           0
     57476 TIP3     15854    TIP3     OH2      OT      -0.834000       15.9994           0
     57477 TIP3     15854    TIP3     H1       HT       0.417000       1.00800           0
     57478 TIP3     15854    TIP3     H2       HT       0.417000       1.00800           0
     57479 TIP3     15855    TIP3     OH2      OT      -0.834000       15.9994           0
     57480 TIP3     15855    TIP3     H1       HT       0.417000       1.00800           0
     57481 TIP3     15855    TIP3     H2       HT       0.417000       1.00800           0
     57482 TIP3     15856    TIP3     OH2      OT      -0.834000       15.9994           0
     57483 TIP3     15856    TIP3     H1       HT       0.417000       1.00800           0
     57484 TIP3     15856    TIP3     H2       HT       0.417000       1.00800           0
     57485 TIP3     15857    TIP3     OH2      OT      -0.834000       15.9994           0
     57486 TIP3     15857    TIP3     H1       HT       0.417000       1.00800           0
     57487 TIP3     15857    TIP3     H2       HT       0.417000       1.00800           0
     57488 TIP3     15858    TIP3     OH2      OT      -0.834000       15.9994           0
     57489 TIP3     15858    TIP3     H1       HT       0.417000       1.00800           0
     57490 TIP3     15858    TIP3     H2       HT       0.417000       1.00800           0
     57491 TIP3     15859    TIP3     OH2      OT      -0.834000       15.9994           0
     57492 TIP3     15859    TIP3     H1       HT       0.417000       1.00800           0
     57493 TIP3     15859    TIP3     H2       HT       0.417000       1.00800           0
     57494 TIP3     15860    TIP3     OH2      OT      -0.834000       15.9994           0
     57495 TIP3     15860    TIP3     H1       HT       0.417000       1.00800           0
     57496 TIP3     15860    TIP3     H2       HT       0.417000       1.00800           0
     57497 TIP3     15861    TIP3     OH2      OT      -0.834000       15.9994           0
     57498 TIP3     15861    TIP3     H1       HT       0.417000       1.00800           0
     57499 TIP3     15861    TIP3     H2       HT       0.417000       1.00800           0
     57500 TIP3     15862    TIP3     OH2      OT      -0.834000       15.9994           0
     57501 TIP3     15862    TIP3     H1       HT       0.417000       1.00800           0
     57502 TIP3     15862    TIP3     H2       HT       0.417000       1.00800           0
     57503 TIP3     15863    TIP3     OH2      OT      -0.834000       15.9994           0
     57504 TIP3     15863    TIP3     H1       HT       0.417000       1.00800           0
     57505 TIP3     15863    TIP3     H2       HT       0.417000       1.00800           0
     57506 TIP3     15864    TIP3     OH2      OT      -0.834000       15.9994           0
     57507 TIP3     15864    TIP3     H1       HT       0.417000       1.00800           0
     57508 TIP3     15864    TIP3     H2       HT       0.417000       1.00800           0
     57509 TIP3     15865    TIP3     OH2      OT      -0.834000       15.9994           0
     57510 TIP3     15865    TIP3     H1       HT       0.417000       1.00800           0
     57511 TIP3     15865    TIP3     H2       HT       0.417000       1.00800           0
     57512 TIP3     15866    TIP3     OH2      OT      -0.834000       15.9994           0
     57513 TIP3     15866    TIP3     H1       HT       0.417000       1.00800           0
     57514 TIP3     15866    TIP3     H2       HT       0.417000       1.00800           0
     57515 TIP3     15867    TIP3     OH2      OT      -0.834000       15.9994           0
     57516 TIP3     15867    TIP3     H1       HT       0.417000       1.00800           0
     57517 TIP3     15867    TIP3     H2       HT       0.417000       1.00800           0
     57518 TIP3     15868    TIP3     OH2      OT      -0.834000       15.9994           0
     57519 TIP3     15868    TIP3     H1       HT       0.417000       1.00800           0
     57520 TIP3     15868    TIP3     H2       HT       0.417000       1.00800           0
     57521 TIP3     15869    TIP3     OH2      OT      -0.834000       15.9994           0
     57522 TIP3     15869    TIP3     H1       HT       0.417000       1.00800           0
     57523 TIP3     15869    TIP3     H2       HT       0.417000       1.00800           0
     57524 TIP3     15870    TIP3     OH2      OT      -0.834000       15.9994           0
     57525 TIP3     15870    TIP3     H1       HT       0.417000       1.00800           0
     57526 TIP3     15870    TIP3     H2       HT       0.417000       1.00800           0
     57527 TIP3     15871    TIP3     OH2      OT      -0.834000       15.9994           0
     57528 TIP3     15871    TIP3     H1       HT       0.417000       1.00800           0
     57529 TIP3     15871    TIP3     H2       HT       0.417000       1.00800           0
     57530 TIP3     15872    TIP3     OH2      OT      -0.834000       15.9994           0
     57531 TIP3     15872    TIP3     H1       HT       0.417000       1.00800           0
     57532 TIP3     15872    TIP3     H2       HT       0.417000       1.00800           0
     57533 TIP3     15873    TIP3     OH2      OT      -0.834000       15.9994           0
     57534 TIP3     15873    TIP3     H1       HT       0.417000       1.00800           0
     57535 TIP3     15873    TIP3     H2       HT       0.417000       1.00800           0
     57536 TIP3     15874    TIP3     OH2      OT      -0.834000       15.9994           0
     57537 TIP3     15874    TIP3     H1       HT       0.417000       1.00800           0
     57538 TIP3     15874    TIP3     H2       HT       0.417000       1.00800           0
     57539 TIP3     15875    TIP3     OH2      OT      -0.834000       15.9994           0
     57540 TIP3     15875    TIP3     H1       HT       0.417000       1.00800           0
     57541 TIP3     15875    TIP3     H2       HT       0.417000       1.00800           0
     57542 TIP3     15876    TIP3     OH2      OT      -0.834000       15.9994           0
     57543 TIP3     15876    TIP3     H1       HT       0.417000       1.00800           0
     57544 TIP3     15876    TIP3     H2       HT       0.417000       1.00800           0
     57545 TIP3     15877    TIP3     OH2      OT      -0.834000       15.9994           0
     57546 TIP3     15877    TIP3     H1       HT       0.417000       1.00800           0
     57547 TIP3     15877    TIP3     H2       HT       0.417000       1.00800           0
     57548 TIP3     15878    TIP3     OH2      OT      -0.834000       15.9994           0
     57549 TIP3     15878    TIP3     H1       HT       0.417000       1.00800           0
     57550 TIP3     15878    TIP3     H2       HT       0.417000       1.00800           0
     57551 TIP3     15879    TIP3     OH2      OT      -0.834000       15.9994           0
     57552 TIP3     15879    TIP3     H1       HT       0.417000       1.00800           0
     57553 TIP3     15879    TIP3     H2       HT       0.417000       1.00800           0
     57554 TIP3     15880    TIP3     OH2      OT      -0.834000       15.9994           0
     57555 TIP3     15880    TIP3     H1       HT       0.417000       1.00800           0
     57556 TIP3     15880    TIP3     H2       HT       0.417000       1.00800           0
     57557 TIP3     15881    TIP3     OH2      OT      -0.834000       15.9994           0
     57558 TIP3     15881    TIP3     H1       HT       0.417000       1.00800           0
     57559 TIP3     15881    TIP3     H2       HT       0.417000       1.00800           0
     57560 TIP3     15882    TIP3     OH2      OT      -0.834000       15.9994           0
     57561 TIP3     15882    TIP3     H1       HT       0.417000       1.00800           0
     57562 TIP3     15882    TIP3     H2       HT       0.417000       1.00800           0
     57563 TIP3     15883    TIP3     OH2      OT      -0.834000       15.9994           0
     57564 TIP3     15883    TIP3     H1       HT       0.417000       1.00800           0
     57565 TIP3     15883    TIP3     H2       HT       0.417000       1.00800           0
     57566 TIP3     15884    TIP3     OH2      OT      -0.834000       15.9994           0
     57567 TIP3     15884    TIP3     H1       HT       0.417000       1.00800           0
     57568 TIP3     15884    TIP3     H2       HT       0.417000       1.00800           0
     57569 TIP3     15885    TIP3     OH2      OT      -0.834000       15.9994           0
     57570 TIP3     15885    TIP3     H1       HT       0.417000       1.00800           0
     57571 TIP3     15885    TIP3     H2       HT       0.417000       1.00800           0
     57572 TIP3     15886    TIP3     OH2      OT      -0.834000       15.9994           0
     57573 TIP3     15886    TIP3     H1       HT       0.417000       1.00800           0
     57574 TIP3     15886    TIP3     H2       HT       0.417000       1.00800           0
     57575 TIP3     15887    TIP3     OH2      OT      -0.834000       15.9994           0
     57576 TIP3     15887    TIP3     H1       HT       0.417000       1.00800           0
     57577 TIP3     15887    TIP3     H2       HT       0.417000       1.00800           0
     57578 TIP3     15888    TIP3     OH2      OT      -0.834000       15.9994           0
     57579 TIP3     15888    TIP3     H1       HT       0.417000       1.00800           0
     57580 TIP3     15888    TIP3     H2       HT       0.417000       1.00800           0
     57581 TIP3     15889    TIP3     OH2      OT      -0.834000       15.9994           0
     57582 TIP3     15889    TIP3     H1       HT       0.417000       1.00800           0
     57583 TIP3     15889    TIP3     H2       HT       0.417000       1.00800           0
     57584 TIP3     15890    TIP3     OH2      OT      -0.834000       15.9994           0
     57585 TIP3     15890    TIP3     H1       HT       0.417000       1.00800           0
     57586 TIP3     15890    TIP3     H2       HT       0.417000       1.00800           0
     57587 TIP3     15891    TIP3     OH2      OT      -0.834000       15.9994           0
     57588 TIP3     15891    TIP3     H1       HT       0.417000       1.00800           0
     57589 TIP3     15891    TIP3     H2       HT       0.417000       1.00800           0
     57590 TIP3     15892    TIP3     OH2      OT      -0.834000       15.9994           0
     57591 TIP3     15892    TIP3     H1       HT       0.417000       1.00800           0
     57592 TIP3     15892    TIP3     H2       HT       0.417000       1.00800           0
     57593 TIP3     15893    TIP3     OH2      OT      -0.834000       15.9994           0
     57594 TIP3     15893    TIP3     H1       HT       0.417000       1.00800           0
     57595 TIP3     15893    TIP3     H2       HT       0.417000       1.00800           0
     57596 TIP3     15894    TIP3     OH2      OT      -0.834000       15.9994           0
     57597 TIP3     15894    TIP3     H1       HT       0.417000       1.00800           0
     57598 TIP3     15894    TIP3     H2       HT       0.417000       1.00800           0
     57599 TIP3     15895    TIP3     OH2      OT      -0.834000       15.9994           0
     57600 TIP3     15895    TIP3     H1       HT       0.417000       1.00800           0
     57601 TIP3     15895    TIP3     H2       HT       0.417000       1.00800           0
     57602 TIP3     15896    TIP3     OH2      OT      -0.834000       15.9994           0
     57603 TIP3     15896    TIP3     H1       HT       0.417000       1.00800           0
     57604 TIP3     15896    TIP3     H2       HT       0.417000       1.00800           0
     57605 TIP3     15897    TIP3     OH2      OT      -0.834000       15.9994           0
     57606 TIP3     15897    TIP3     H1       HT       0.417000       1.00800           0
     57607 TIP3     15897    TIP3     H2       HT       0.417000       1.00800           0
     57608 TIP3     15898    TIP3     OH2      OT      -0.834000       15.9994           0
     57609 TIP3     15898    TIP3     H1       HT       0.417000       1.00800           0
     57610 TIP3     15898    TIP3     H2       HT       0.417000       1.00800           0
     57611 TIP3     15899    TIP3     OH2      OT      -0.834000       15.9994           0
     57612 TIP3     15899    TIP3     H1       HT       0.417000       1.00800           0
     57613 TIP3     15899    TIP3     H2       HT       0.417000       1.00800           0
     57614 TIP3     15900    TIP3     OH2      OT      -0.834000       15.9994           0
     57615 TIP3     15900    TIP3     H1       HT       0.417000       1.00800           0
     57616 TIP3     15900    TIP3     H2       HT       0.417000       1.00800           0
     57617 TIP3     15901    TIP3     OH2      OT      -0.834000       15.9994           0
     57618 TIP3     15901    TIP3     H1       HT       0.417000       1.00800           0
     57619 TIP3     15901    TIP3     H2       HT       0.417000       1.00800           0
     57620 TIP3     15902    TIP3     OH2      OT      -0.834000       15.9994           0
     57621 TIP3     15902    TIP3     H1       HT       0.417000       1.00800           0
     57622 TIP3     15902    TIP3     H2       HT       0.417000       1.00800           0
     57623 TIP3     15903    TIP3     OH2      OT      -0.834000       15.9994           0
     57624 TIP3     15903    TIP3     H1       HT       0.417000       1.00800           0
     57625 TIP3     15903    TIP3     H2       HT       0.417000       1.00800           0
     57626 TIP3     15904    TIP3     OH2      OT      -0.834000       15.9994           0
     57627 TIP3     15904    TIP3     H1       HT       0.417000       1.00800           0
     57628 TIP3     15904    TIP3     H2       HT       0.417000       1.00800           0
     57629 TIP3     15905    TIP3     OH2      OT      -0.834000       15.9994           0
     57630 TIP3     15905    TIP3     H1       HT       0.417000       1.00800           0
     57631 TIP3     15905    TIP3     H2       HT       0.417000       1.00800           0
     57632 TIP3     15906    TIP3     OH2      OT      -0.834000       15.9994           0
     57633 TIP3     15906    TIP3     H1       HT       0.417000       1.00800           0
     57634 TIP3     15906    TIP3     H2       HT       0.417000       1.00800           0
     57635 TIP3     15907    TIP3     OH2      OT      -0.834000       15.9994           0
     57636 TIP3     15907    TIP3     H1       HT       0.417000       1.00800           0
     57637 TIP3     15907    TIP3     H2       HT       0.417000       1.00800           0
     57638 TIP3     15908    TIP3     OH2      OT      -0.834000       15.9994           0
     57639 TIP3     15908    TIP3     H1       HT       0.417000       1.00800           0
     57640 TIP3     15908    TIP3     H2       HT       0.417000       1.00800           0
     57641 TIP3     15909    TIP3     OH2      OT      -0.834000       15.9994           0
     57642 TIP3     15909    TIP3     H1       HT       0.417000       1.00800           0
     57643 TIP3     15909    TIP3     H2       HT       0.417000       1.00800           0
     57644 TIP3     15910    TIP3     OH2      OT      -0.834000       15.9994           0
     57645 TIP3     15910    TIP3     H1       HT       0.417000       1.00800           0
     57646 TIP3     15910    TIP3     H2       HT       0.417000       1.00800           0
     57647 TIP3     15911    TIP3     OH2      OT      -0.834000       15.9994           0
     57648 TIP3     15911    TIP3     H1       HT       0.417000       1.00800           0
     57649 TIP3     15911    TIP3     H2       HT       0.417000       1.00800           0
     57650 TIP3     15912    TIP3     OH2      OT      -0.834000       15.9994           0
     57651 TIP3     15912    TIP3     H1       HT       0.417000       1.00800           0
     57652 TIP3     15912    TIP3     H2       HT       0.417000       1.00800           0
     57653 TIP3     15913    TIP3     OH2      OT      -0.834000       15.9994           0
     57654 TIP3     15913    TIP3     H1       HT       0.417000       1.00800           0
     57655 TIP3     15913    TIP3     H2       HT       0.417000       1.00800           0
     57656 TIP3     15914    TIP3     OH2      OT      -0.834000       15.9994           0
     57657 TIP3     15914    TIP3     H1       HT       0.417000       1.00800           0
     57658 TIP3     15914    TIP3     H2       HT       0.417000       1.00800           0
     57659 TIP3     15915    TIP3     OH2      OT      -0.834000       15.9994           0
     57660 TIP3     15915    TIP3     H1       HT       0.417000       1.00800           0
     57661 TIP3     15915    TIP3     H2       HT       0.417000       1.00800           0
     57662 TIP3     15916    TIP3     OH2      OT      -0.834000       15.9994           0
     57663 TIP3     15916    TIP3     H1       HT       0.417000       1.00800           0
     57664 TIP3     15916    TIP3     H2       HT       0.417000       1.00800           0
     57665 TIP3     15917    TIP3     OH2      OT      -0.834000       15.9994           0
     57666 TIP3     15917    TIP3     H1       HT       0.417000       1.00800           0
     57667 TIP3     15917    TIP3     H2       HT       0.417000       1.00800           0
     57668 TIP3     15918    TIP3     OH2      OT      -0.834000       15.9994           0
     57669 TIP3     15918    TIP3     H1       HT       0.417000       1.00800           0
     57670 TIP3     15918    TIP3     H2       HT       0.417000       1.00800           0
     57671 TIP3     15919    TIP3     OH2      OT      -0.834000       15.9994           0
     57672 TIP3     15919    TIP3     H1       HT       0.417000       1.00800           0
     57673 TIP3     15919    TIP3     H2       HT       0.417000       1.00800           0
     57674 TIP3     15920    TIP3     OH2      OT      -0.834000       15.9994           0
     57675 TIP3     15920    TIP3     H1       HT       0.417000       1.00800           0
     57676 TIP3     15920    TIP3     H2       HT       0.417000       1.00800           0
     57677 TIP3     15921    TIP3     OH2      OT      -0.834000       15.9994           0
     57678 TIP3     15921    TIP3     H1       HT       0.417000       1.00800           0
     57679 TIP3     15921    TIP3     H2       HT       0.417000       1.00800           0
     57680 TIP3     15922    TIP3     OH2      OT      -0.834000       15.9994           0
     57681 TIP3     15922    TIP3     H1       HT       0.417000       1.00800           0
     57682 TIP3     15922    TIP3     H2       HT       0.417000       1.00800           0
     57683 TIP3     15923    TIP3     OH2      OT      -0.834000       15.9994           0
     57684 TIP3     15923    TIP3     H1       HT       0.417000       1.00800           0
     57685 TIP3     15923    TIP3     H2       HT       0.417000       1.00800           0
     57686 TIP3     15924    TIP3     OH2      OT      -0.834000       15.9994           0
     57687 TIP3     15924    TIP3     H1       HT       0.417000       1.00800           0
     57688 TIP3     15924    TIP3     H2       HT       0.417000       1.00800           0
     57689 TIP3     15925    TIP3     OH2      OT      -0.834000       15.9994           0
     57690 TIP3     15925    TIP3     H1       HT       0.417000       1.00800           0
     57691 TIP3     15925    TIP3     H2       HT       0.417000       1.00800           0
     57692 TIP3     15926    TIP3     OH2      OT      -0.834000       15.9994           0
     57693 TIP3     15926    TIP3     H1       HT       0.417000       1.00800           0
     57694 TIP3     15926    TIP3     H2       HT       0.417000       1.00800           0
     57695 TIP3     15927    TIP3     OH2      OT      -0.834000       15.9994           0
     57696 TIP3     15927    TIP3     H1       HT       0.417000       1.00800           0
     57697 TIP3     15927    TIP3     H2       HT       0.417000       1.00800           0
     57698 TIP3     15928    TIP3     OH2      OT      -0.834000       15.9994           0
     57699 TIP3     15928    TIP3     H1       HT       0.417000       1.00800           0
     57700 TIP3     15928    TIP3     H2       HT       0.417000       1.00800           0
     57701 TIP3     15929    TIP3     OH2      OT      -0.834000       15.9994           0
     57702 TIP3     15929    TIP3     H1       HT       0.417000       1.00800           0
     57703 TIP3     15929    TIP3     H2       HT       0.417000       1.00800           0
     57704 TIP3     15930    TIP3     OH2      OT      -0.834000       15.9994           0
     57705 TIP3     15930    TIP3     H1       HT       0.417000       1.00800           0
     57706 TIP3     15930    TIP3     H2       HT       0.417000       1.00800           0
     57707 TIP3     15931    TIP3     OH2      OT      -0.834000       15.9994           0
     57708 TIP3     15931    TIP3     H1       HT       0.417000       1.00800           0
     57709 TIP3     15931    TIP3     H2       HT       0.417000       1.00800           0
     57710 TIP3     15932    TIP3     OH2      OT      -0.834000       15.9994           0
     57711 TIP3     15932    TIP3     H1       HT       0.417000       1.00800           0
     57712 TIP3     15932    TIP3     H2       HT       0.417000       1.00800           0
     57713 TIP3     15933    TIP3     OH2      OT      -0.834000       15.9994           0
     57714 TIP3     15933    TIP3     H1       HT       0.417000       1.00800           0
     57715 TIP3     15933    TIP3     H2       HT       0.417000       1.00800           0
     57716 TIP3     15934    TIP3     OH2      OT      -0.834000       15.9994           0
     57717 TIP3     15934    TIP3     H1       HT       0.417000       1.00800           0
     57718 TIP3     15934    TIP3     H2       HT       0.417000       1.00800           0
     57719 TIP3     15935    TIP3     OH2      OT      -0.834000       15.9994           0
     57720 TIP3     15935    TIP3     H1       HT       0.417000       1.00800           0
     57721 TIP3     15935    TIP3     H2       HT       0.417000       1.00800           0
     57722 TIP3     15936    TIP3     OH2      OT      -0.834000       15.9994           0
     57723 TIP3     15936    TIP3     H1       HT       0.417000       1.00800           0
     57724 TIP3     15936    TIP3     H2       HT       0.417000       1.00800           0
     57725 TIP3     15937    TIP3     OH2      OT      -0.834000       15.9994           0
     57726 TIP3     15937    TIP3     H1       HT       0.417000       1.00800           0
     57727 TIP3     15937    TIP3     H2       HT       0.417000       1.00800           0
     57728 TIP3     15938    TIP3     OH2      OT      -0.834000       15.9994           0
     57729 TIP3     15938    TIP3     H1       HT       0.417000       1.00800           0
     57730 TIP3     15938    TIP3     H2       HT       0.417000       1.00800           0
     57731 TIP3     15939    TIP3     OH2      OT      -0.834000       15.9994           0
     57732 TIP3     15939    TIP3     H1       HT       0.417000       1.00800           0
     57733 TIP3     15939    TIP3     H2       HT       0.417000       1.00800           0
     57734 TIP3     15940    TIP3     OH2      OT      -0.834000       15.9994           0
     57735 TIP3     15940    TIP3     H1       HT       0.417000       1.00800           0
     57736 TIP3     15940    TIP3     H2       HT       0.417000       1.00800           0
     57737 TIP3     15941    TIP3     OH2      OT      -0.834000       15.9994           0
     57738 TIP3     15941    TIP3     H1       HT       0.417000       1.00800           0
     57739 TIP3     15941    TIP3     H2       HT       0.417000       1.00800           0
     57740 TIP3     15942    TIP3     OH2      OT      -0.834000       15.9994           0
     57741 TIP3     15942    TIP3     H1       HT       0.417000       1.00800           0
     57742 TIP3     15942    TIP3     H2       HT       0.417000       1.00800           0
     57743 TIP3     15943    TIP3     OH2      OT      -0.834000       15.9994           0
     57744 TIP3     15943    TIP3     H1       HT       0.417000       1.00800           0
     57745 TIP3     15943    TIP3     H2       HT       0.417000       1.00800           0
     57746 TIP3     15944    TIP3     OH2      OT      -0.834000       15.9994           0
     57747 TIP3     15944    TIP3     H1       HT       0.417000       1.00800           0
     57748 TIP3     15944    TIP3     H2       HT       0.417000       1.00800           0
     57749 TIP3     15945    TIP3     OH2      OT      -0.834000       15.9994           0
     57750 TIP3     15945    TIP3     H1       HT       0.417000       1.00800           0
     57751 TIP3     15945    TIP3     H2       HT       0.417000       1.00800           0
     57752 TIP3     15946    TIP3     OH2      OT      -0.834000       15.9994           0
     57753 TIP3     15946    TIP3     H1       HT       0.417000       1.00800           0
     57754 TIP3     15946    TIP3     H2       HT       0.417000       1.00800           0
     57755 TIP3     15947    TIP3     OH2      OT      -0.834000       15.9994           0
     57756 TIP3     15947    TIP3     H1       HT       0.417000       1.00800           0
     57757 TIP3     15947    TIP3     H2       HT       0.417000       1.00800           0
     57758 TIP3     15948    TIP3     OH2      OT      -0.834000       15.9994           0
     57759 TIP3     15948    TIP3     H1       HT       0.417000       1.00800           0
     57760 TIP3     15948    TIP3     H2       HT       0.417000       1.00800           0
     57761 TIP3     15949    TIP3     OH2      OT      -0.834000       15.9994           0
     57762 TIP3     15949    TIP3     H1       HT       0.417000       1.00800           0
     57763 TIP3     15949    TIP3     H2       HT       0.417000       1.00800           0
     57764 TIP3     15950    TIP3     OH2      OT      -0.834000       15.9994           0
     57765 TIP3     15950    TIP3     H1       HT       0.417000       1.00800           0
     57766 TIP3     15950    TIP3     H2       HT       0.417000       1.00800           0
     57767 TIP3     15951    TIP3     OH2      OT      -0.834000       15.9994           0
     57768 TIP3     15951    TIP3     H1       HT       0.417000       1.00800           0
     57769 TIP3     15951    TIP3     H2       HT       0.417000       1.00800           0
     57770 TIP3     15952    TIP3     OH2      OT      -0.834000       15.9994           0
     57771 TIP3     15952    TIP3     H1       HT       0.417000       1.00800           0
     57772 TIP3     15952    TIP3     H2       HT       0.417000       1.00800           0
     57773 TIP3     15953    TIP3     OH2      OT      -0.834000       15.9994           0
     57774 TIP3     15953    TIP3     H1       HT       0.417000       1.00800           0
     57775 TIP3     15953    TIP3     H2       HT       0.417000       1.00800           0
     57776 TIP3     15954    TIP3     OH2      OT      -0.834000       15.9994           0
     57777 TIP3     15954    TIP3     H1       HT       0.417000       1.00800           0
     57778 TIP3     15954    TIP3     H2       HT       0.417000       1.00800           0
     57779 TIP3     15955    TIP3     OH2      OT      -0.834000       15.9994           0
     57780 TIP3     15955    TIP3     H1       HT       0.417000       1.00800           0
     57781 TIP3     15955    TIP3     H2       HT       0.417000       1.00800           0
     57782 TIP3     15956    TIP3     OH2      OT      -0.834000       15.9994           0
     57783 TIP3     15956    TIP3     H1       HT       0.417000       1.00800           0
     57784 TIP3     15956    TIP3     H2       HT       0.417000       1.00800           0
     57785 TIP3     15957    TIP3     OH2      OT      -0.834000       15.9994           0
     57786 TIP3     15957    TIP3     H1       HT       0.417000       1.00800           0
     57787 TIP3     15957    TIP3     H2       HT       0.417000       1.00800           0
     57788 TIP3     15958    TIP3     OH2      OT      -0.834000       15.9994           0
     57789 TIP3     15958    TIP3     H1       HT       0.417000       1.00800           0
     57790 TIP3     15958    TIP3     H2       HT       0.417000       1.00800           0
     57791 TIP3     15959    TIP3     OH2      OT      -0.834000       15.9994           0
     57792 TIP3     15959    TIP3     H1       HT       0.417000       1.00800           0
     57793 TIP3     15959    TIP3     H2       HT       0.417000       1.00800           0
     57794 TIP3     15960    TIP3     OH2      OT      -0.834000       15.9994           0
     57795 TIP3     15960    TIP3     H1       HT       0.417000       1.00800           0
     57796 TIP3     15960    TIP3     H2       HT       0.417000       1.00800           0
     57797 TIP3     15961    TIP3     OH2      OT      -0.834000       15.9994           0
     57798 TIP3     15961    TIP3     H1       HT       0.417000       1.00800           0
     57799 TIP3     15961    TIP3     H2       HT       0.417000       1.00800           0
     57800 TIP3     15962    TIP3     OH2      OT      -0.834000       15.9994           0
     57801 TIP3     15962    TIP3     H1       HT       0.417000       1.00800           0
     57802 TIP3     15962    TIP3     H2       HT       0.417000       1.00800           0
     57803 TIP3     15963    TIP3     OH2      OT      -0.834000       15.9994           0
     57804 TIP3     15963    TIP3     H1       HT       0.417000       1.00800           0
     57805 TIP3     15963    TIP3     H2       HT       0.417000       1.00800           0
     57806 TIP3     15964    TIP3     OH2      OT      -0.834000       15.9994           0
     57807 TIP3     15964    TIP3     H1       HT       0.417000       1.00800           0
     57808 TIP3     15964    TIP3     H2       HT       0.417000       1.00800           0
     57809 TIP3     15965    TIP3     OH2      OT      -0.834000       15.9994           0
     57810 TIP3     15965    TIP3     H1       HT       0.417000       1.00800           0
     57811 TIP3     15965    TIP3     H2       HT       0.417000       1.00800           0
     57812 TIP3     15966    TIP3     OH2      OT      -0.834000       15.9994           0
     57813 TIP3     15966    TIP3     H1       HT       0.417000       1.00800           0
     57814 TIP3     15966    TIP3     H2       HT       0.417000       1.00800           0
     57815 TIP3     15967    TIP3     OH2      OT      -0.834000       15.9994           0
     57816 TIP3     15967    TIP3     H1       HT       0.417000       1.00800           0
     57817 TIP3     15967    TIP3     H2       HT       0.417000       1.00800           0
     57818 TIP3     15968    TIP3     OH2      OT      -0.834000       15.9994           0
     57819 TIP3     15968    TIP3     H1       HT       0.417000       1.00800           0
     57820 TIP3     15968    TIP3     H2       HT       0.417000       1.00800           0
     57821 TIP3     15969    TIP3     OH2      OT      -0.834000       15.9994           0
     57822 TIP3     15969    TIP3     H1       HT       0.417000       1.00800           0
     57823 TIP3     15969    TIP3     H2       HT       0.417000       1.00800           0
     57824 TIP3     15970    TIP3     OH2      OT      -0.834000       15.9994           0
     57825 TIP3     15970    TIP3     H1       HT       0.417000       1.00800           0
     57826 TIP3     15970    TIP3     H2       HT       0.417000       1.00800           0
     57827 TIP3     15971    TIP3     OH2      OT      -0.834000       15.9994           0
     57828 TIP3     15971    TIP3     H1       HT       0.417000       1.00800           0
     57829 TIP3     15971    TIP3     H2       HT       0.417000       1.00800           0
     57830 TIP3     15972    TIP3     OH2      OT      -0.834000       15.9994           0
     57831 TIP3     15972    TIP3     H1       HT       0.417000       1.00800           0
     57832 TIP3     15972    TIP3     H2       HT       0.417000       1.00800           0
     57833 TIP3     15973    TIP3     OH2      OT      -0.834000       15.9994           0
     57834 TIP3     15973    TIP3     H1       HT       0.417000       1.00800           0
     57835 TIP3     15973    TIP3     H2       HT       0.417000       1.00800           0
     57836 TIP3     15974    TIP3     OH2      OT      -0.834000       15.9994           0
     57837 TIP3     15974    TIP3     H1       HT       0.417000       1.00800           0
     57838 TIP3     15974    TIP3     H2       HT       0.417000       1.00800           0
     57839 TIP3     15975    TIP3     OH2      OT      -0.834000       15.9994           0
     57840 TIP3     15975    TIP3     H1       HT       0.417000       1.00800           0
     57841 TIP3     15975    TIP3     H2       HT       0.417000       1.00800           0
     57842 TIP3     15976    TIP3     OH2      OT      -0.834000       15.9994           0
     57843 TIP3     15976    TIP3     H1       HT       0.417000       1.00800           0
     57844 TIP3     15976    TIP3     H2       HT       0.417000       1.00800           0
     57845 TIP3     15977    TIP3     OH2      OT      -0.834000       15.9994           0
     57846 TIP3     15977    TIP3     H1       HT       0.417000       1.00800           0
     57847 TIP3     15977    TIP3     H2       HT       0.417000       1.00800           0
     57848 TIP3     15978    TIP3     OH2      OT      -0.834000       15.9994           0
     57849 TIP3     15978    TIP3     H1       HT       0.417000       1.00800           0
     57850 TIP3     15978    TIP3     H2       HT       0.417000       1.00800           0
     57851 TIP3     15979    TIP3     OH2      OT      -0.834000       15.9994           0
     57852 TIP3     15979    TIP3     H1       HT       0.417000       1.00800           0
     57853 TIP3     15979    TIP3     H2       HT       0.417000       1.00800           0
     57854 TIP3     15980    TIP3     OH2      OT      -0.834000       15.9994           0
     57855 TIP3     15980    TIP3     H1       HT       0.417000       1.00800           0
     57856 TIP3     15980    TIP3     H2       HT       0.417000       1.00800           0
     57857 TIP3     15981    TIP3     OH2      OT      -0.834000       15.9994           0
     57858 TIP3     15981    TIP3     H1       HT       0.417000       1.00800           0
     57859 TIP3     15981    TIP3     H2       HT       0.417000       1.00800           0
     57860 TIP3     15982    TIP3     OH2      OT      -0.834000       15.9994           0
     57861 TIP3     15982    TIP3     H1       HT       0.417000       1.00800           0
     57862 TIP3     15982    TIP3     H2       HT       0.417000       1.00800           0
     57863 TIP3     15983    TIP3     OH2      OT      -0.834000       15.9994           0
     57864 TIP3     15983    TIP3     H1       HT       0.417000       1.00800           0
     57865 TIP3     15983    TIP3     H2       HT       0.417000       1.00800           0
     57866 TIP3     15984    TIP3     OH2      OT      -0.834000       15.9994           0
     57867 TIP3     15984    TIP3     H1       HT       0.417000       1.00800           0
     57868 TIP3     15984    TIP3     H2       HT       0.417000       1.00800           0
     57869 TIP3     15985    TIP3     OH2      OT      -0.834000       15.9994           0
     57870 TIP3     15985    TIP3     H1       HT       0.417000       1.00800           0
     57871 TIP3     15985    TIP3     H2       HT       0.417000       1.00800           0
     57872 TIP3     15986    TIP3     OH2      OT      -0.834000       15.9994           0
     57873 TIP3     15986    TIP3     H1       HT       0.417000       1.00800           0
     57874 TIP3     15986    TIP3     H2       HT       0.417000       1.00800           0
     57875 TIP3     15987    TIP3     OH2      OT      -0.834000       15.9994           0
     57876 TIP3     15987    TIP3     H1       HT       0.417000       1.00800           0
     57877 TIP3     15987    TIP3     H2       HT       0.417000       1.00800           0
     57878 TIP3     15988    TIP3     OH2      OT      -0.834000       15.9994           0
     57879 TIP3     15988    TIP3     H1       HT       0.417000       1.00800           0
     57880 TIP3     15988    TIP3     H2       HT       0.417000       1.00800           0
     57881 TIP3     15989    TIP3     OH2      OT      -0.834000       15.9994           0
     57882 TIP3     15989    TIP3     H1       HT       0.417000       1.00800           0
     57883 TIP3     15989    TIP3     H2       HT       0.417000       1.00800           0
     57884 TIP3     15990    TIP3     OH2      OT      -0.834000       15.9994           0
     57885 TIP3     15990    TIP3     H1       HT       0.417000       1.00800           0
     57886 TIP3     15990    TIP3     H2       HT       0.417000       1.00800           0
     57887 TIP3     15991    TIP3     OH2      OT      -0.834000       15.9994           0
     57888 TIP3     15991    TIP3     H1       HT       0.417000       1.00800           0
     57889 TIP3     15991    TIP3     H2       HT       0.417000       1.00800           0
     57890 TIP3     15992    TIP3     OH2      OT      -0.834000       15.9994           0
     57891 TIP3     15992    TIP3     H1       HT       0.417000       1.00800           0
     57892 TIP3     15992    TIP3     H2       HT       0.417000       1.00800           0
     57893 TIP3     15993    TIP3     OH2      OT      -0.834000       15.9994           0
     57894 TIP3     15993    TIP3     H1       HT       0.417000       1.00800           0
     57895 TIP3     15993    TIP3     H2       HT       0.417000       1.00800           0
     57896 TIP3     15994    TIP3     OH2      OT      -0.834000       15.9994           0
     57897 TIP3     15994    TIP3     H1       HT       0.417000       1.00800           0
     57898 TIP3     15994    TIP3     H2       HT       0.417000       1.00800           0
     57899 TIP3     15995    TIP3     OH2      OT      -0.834000       15.9994           0
     57900 TIP3     15995    TIP3     H1       HT       0.417000       1.00800           0
     57901 TIP3     15995    TIP3     H2       HT       0.417000       1.00800           0
     57902 TIP3     15996    TIP3     OH2      OT      -0.834000       15.9994           0
     57903 TIP3     15996    TIP3     H1       HT       0.417000       1.00800           0
     57904 TIP3     15996    TIP3     H2       HT       0.417000       1.00800           0
     57905 TIP3     15997    TIP3     OH2      OT      -0.834000       15.9994           0
     57906 TIP3     15997    TIP3     H1       HT       0.417000       1.00800           0
     57907 TIP3     15997    TIP3     H2       HT       0.417000       1.00800           0
     57908 TIP3     15998    TIP3     OH2      OT      -0.834000       15.9994           0
     57909 TIP3     15998    TIP3     H1       HT       0.417000       1.00800           0
     57910 TIP3     15998    TIP3     H2       HT       0.417000       1.00800           0
     57911 TIP3     15999    TIP3     OH2      OT      -0.834000       15.9994           0
     57912 TIP3     15999    TIP3     H1       HT       0.417000       1.00800           0
     57913 TIP3     15999    TIP3     H2       HT       0.417000       1.00800           0
     57914 TIP3     16000    TIP3     OH2      OT      -0.834000       15.9994           0
     57915 TIP3     16000    TIP3     H1       HT       0.417000       1.00800           0
     57916 TIP3     16000    TIP3     H2       HT       0.417000       1.00800           0
     57917 TIP3     16001    TIP3     OH2      OT      -0.834000       15.9994           0
     57918 TIP3     16001    TIP3     H1       HT       0.417000       1.00800           0
     57919 TIP3     16001    TIP3     H2       HT       0.417000       1.00800           0
     57920 TIP3     16002    TIP3     OH2      OT      -0.834000       15.9994           0
     57921 TIP3     16002    TIP3     H1       HT       0.417000       1.00800           0
     57922 TIP3     16002    TIP3     H2       HT       0.417000       1.00800           0
     57923 TIP3     16003    TIP3     OH2      OT      -0.834000       15.9994           0
     57924 TIP3     16003    TIP3     H1       HT       0.417000       1.00800           0
     57925 TIP3     16003    TIP3     H2       HT       0.417000       1.00800           0
     57926 TIP3     16004    TIP3     OH2      OT      -0.834000       15.9994           0
     57927 TIP3     16004    TIP3     H1       HT       0.417000       1.00800           0
     57928 TIP3     16004    TIP3     H2       HT       0.417000       1.00800           0
     57929 TIP3     16005    TIP3     OH2      OT      -0.834000       15.9994           0
     57930 TIP3     16005    TIP3     H1       HT       0.417000       1.00800           0
     57931 TIP3     16005    TIP3     H2       HT       0.417000       1.00800           0
     57932 TIP3     16006    TIP3     OH2      OT      -0.834000       15.9994           0
     57933 TIP3     16006    TIP3     H1       HT       0.417000       1.00800           0
     57934 TIP3     16006    TIP3     H2       HT       0.417000       1.00800           0
     57935 TIP3     16007    TIP3     OH2      OT      -0.834000       15.9994           0
     57936 TIP3     16007    TIP3     H1       HT       0.417000       1.00800           0
     57937 TIP3     16007    TIP3     H2       HT       0.417000       1.00800           0
     57938 TIP3     16008    TIP3     OH2      OT      -0.834000       15.9994           0
     57939 TIP3     16008    TIP3     H1       HT       0.417000       1.00800           0
     57940 TIP3     16008    TIP3     H2       HT       0.417000       1.00800           0
     57941 TIP3     16009    TIP3     OH2      OT      -0.834000       15.9994           0
     57942 TIP3     16009    TIP3     H1       HT       0.417000       1.00800           0
     57943 TIP3     16009    TIP3     H2       HT       0.417000       1.00800           0
     57944 TIP3     16010    TIP3     OH2      OT      -0.834000       15.9994           0
     57945 TIP3     16010    TIP3     H1       HT       0.417000       1.00800           0
     57946 TIP3     16010    TIP3     H2       HT       0.417000       1.00800           0
     57947 TIP3     16011    TIP3     OH2      OT      -0.834000       15.9994           0
     57948 TIP3     16011    TIP3     H1       HT       0.417000       1.00800           0
     57949 TIP3     16011    TIP3     H2       HT       0.417000       1.00800           0
     57950 TIP3     16012    TIP3     OH2      OT      -0.834000       15.9994           0
     57951 TIP3     16012    TIP3     H1       HT       0.417000       1.00800           0
     57952 TIP3     16012    TIP3     H2       HT       0.417000       1.00800           0
     57953 TIP3     16013    TIP3     OH2      OT      -0.834000       15.9994           0
     57954 TIP3     16013    TIP3     H1       HT       0.417000       1.00800           0
     57955 TIP3     16013    TIP3     H2       HT       0.417000       1.00800           0
     57956 TIP3     16014    TIP3     OH2      OT      -0.834000       15.9994           0
     57957 TIP3     16014    TIP3     H1       HT       0.417000       1.00800           0
     57958 TIP3     16014    TIP3     H2       HT       0.417000       1.00800           0
     57959 TIP3     16015    TIP3     OH2      OT      -0.834000       15.9994           0
     57960 TIP3     16015    TIP3     H1       HT       0.417000       1.00800           0
     57961 TIP3     16015    TIP3     H2       HT       0.417000       1.00800           0
     57962 TIP3     16016    TIP3     OH2      OT      -0.834000       15.9994           0
     57963 TIP3     16016    TIP3     H1       HT       0.417000       1.00800           0
     57964 TIP3     16016    TIP3     H2       HT       0.417000       1.00800           0
     57965 TIP3     16017    TIP3     OH2      OT      -0.834000       15.9994           0
     57966 TIP3     16017    TIP3     H1       HT       0.417000       1.00800           0
     57967 TIP3     16017    TIP3     H2       HT       0.417000       1.00800           0
     57968 TIP3     16018    TIP3     OH2      OT      -0.834000       15.9994           0
     57969 TIP3     16018    TIP3     H1       HT       0.417000       1.00800           0
     57970 TIP3     16018    TIP3     H2       HT       0.417000       1.00800           0
     57971 TIP3     16019    TIP3     OH2      OT      -0.834000       15.9994           0
     57972 TIP3     16019    TIP3     H1       HT       0.417000       1.00800           0
     57973 TIP3     16019    TIP3     H2       HT       0.417000       1.00800           0
     57974 TIP3     16020    TIP3     OH2      OT      -0.834000       15.9994           0
     57975 TIP3     16020    TIP3     H1       HT       0.417000       1.00800           0
     57976 TIP3     16020    TIP3     H2       HT       0.417000       1.00800           0
     57977 TIP3     16021    TIP3     OH2      OT      -0.834000       15.9994           0
     57978 TIP3     16021    TIP3     H1       HT       0.417000       1.00800           0
     57979 TIP3     16021    TIP3     H2       HT       0.417000       1.00800           0
     57980 TIP3     16022    TIP3     OH2      OT      -0.834000       15.9994           0
     57981 TIP3     16022    TIP3     H1       HT       0.417000       1.00800           0
     57982 TIP3     16022    TIP3     H2       HT       0.417000       1.00800           0
     57983 TIP3     16023    TIP3     OH2      OT      -0.834000       15.9994           0
     57984 TIP3     16023    TIP3     H1       HT       0.417000       1.00800           0
     57985 TIP3     16023    TIP3     H2       HT       0.417000       1.00800           0
     57986 TIP3     16024    TIP3     OH2      OT      -0.834000       15.9994           0
     57987 TIP3     16024    TIP3     H1       HT       0.417000       1.00800           0
     57988 TIP3     16024    TIP3     H2       HT       0.417000       1.00800           0
     57989 TIP3     16025    TIP3     OH2      OT      -0.834000       15.9994           0
     57990 TIP3     16025    TIP3     H1       HT       0.417000       1.00800           0
     57991 TIP3     16025    TIP3     H2       HT       0.417000       1.00800           0
     57992 TIP3     16026    TIP3     OH2      OT      -0.834000       15.9994           0
     57993 TIP3     16026    TIP3     H1       HT       0.417000       1.00800           0
     57994 TIP3     16026    TIP3     H2       HT       0.417000       1.00800           0
     57995 TIP3     16027    TIP3     OH2      OT      -0.834000       15.9994           0
     57996 TIP3     16027    TIP3     H1       HT       0.417000       1.00800           0
     57997 TIP3     16027    TIP3     H2       HT       0.417000       1.00800           0
     57998 TIP3     16028    TIP3     OH2      OT      -0.834000       15.9994           0
     57999 TIP3     16028    TIP3     H1       HT       0.417000       1.00800           0
     58000 TIP3     16028    TIP3     H2       HT       0.417000       1.00800           0
     58001 TIP3     16029    TIP3     OH2      OT      -0.834000       15.9994           0
     58002 TIP3     16029    TIP3     H1       HT       0.417000       1.00800           0
     58003 TIP3     16029    TIP3     H2       HT       0.417000       1.00800           0
     58004 TIP3     16030    TIP3     OH2      OT      -0.834000       15.9994           0
     58005 TIP3     16030    TIP3     H1       HT       0.417000       1.00800           0
     58006 TIP3     16030    TIP3     H2       HT       0.417000       1.00800           0
     58007 TIP3     16031    TIP3     OH2      OT      -0.834000       15.9994           0
     58008 TIP3     16031    TIP3     H1       HT       0.417000       1.00800           0
     58009 TIP3     16031    TIP3     H2       HT       0.417000       1.00800           0
     58010 TIP3     16032    TIP3     OH2      OT      -0.834000       15.9994           0
     58011 TIP3     16032    TIP3     H1       HT       0.417000       1.00800           0
     58012 TIP3     16032    TIP3     H2       HT       0.417000       1.00800           0
     58013 TIP3     16033    TIP3     OH2      OT      -0.834000       15.9994           0
     58014 TIP3     16033    TIP3     H1       HT       0.417000       1.00800           0
     58015 TIP3     16033    TIP3     H2       HT       0.417000       1.00800           0
     58016 TIP3     16034    TIP3     OH2      OT      -0.834000       15.9994           0
     58017 TIP3     16034    TIP3     H1       HT       0.417000       1.00800           0
     58018 TIP3     16034    TIP3     H2       HT       0.417000       1.00800           0
     58019 TIP3     16035    TIP3     OH2      OT      -0.834000       15.9994           0
     58020 TIP3     16035    TIP3     H1       HT       0.417000       1.00800           0
     58021 TIP3     16035    TIP3     H2       HT       0.417000       1.00800           0
     58022 TIP3     16036    TIP3     OH2      OT      -0.834000       15.9994           0
     58023 TIP3     16036    TIP3     H1       HT       0.417000       1.00800           0
     58024 TIP3     16036    TIP3     H2       HT       0.417000       1.00800           0
     58025 TIP3     16037    TIP3     OH2      OT      -0.834000       15.9994           0
     58026 TIP3     16037    TIP3     H1       HT       0.417000       1.00800           0
     58027 TIP3     16037    TIP3     H2       HT       0.417000       1.00800           0
     58028 TIP3     16038    TIP3     OH2      OT      -0.834000       15.9994           0
     58029 TIP3     16038    TIP3     H1       HT       0.417000       1.00800           0
     58030 TIP3     16038    TIP3     H2       HT       0.417000       1.00800           0
     58031 TIP3     16039    TIP3     OH2      OT      -0.834000       15.9994           0
     58032 TIP3     16039    TIP3     H1       HT       0.417000       1.00800           0
     58033 TIP3     16039    TIP3     H2       HT       0.417000       1.00800           0
     58034 TIP3     16040    TIP3     OH2      OT      -0.834000       15.9994           0
     58035 TIP3     16040    TIP3     H1       HT       0.417000       1.00800           0
     58036 TIP3     16040    TIP3     H2       HT       0.417000       1.00800           0
     58037 TIP3     16041    TIP3     OH2      OT      -0.834000       15.9994           0
     58038 TIP3     16041    TIP3     H1       HT       0.417000       1.00800           0
     58039 TIP3     16041    TIP3     H2       HT       0.417000       1.00800           0
     58040 TIP3     16042    TIP3     OH2      OT      -0.834000       15.9994           0
     58041 TIP3     16042    TIP3     H1       HT       0.417000       1.00800           0
     58042 TIP3     16042    TIP3     H2       HT       0.417000       1.00800           0
     58043 TIP3     16043    TIP3     OH2      OT      -0.834000       15.9994           0
     58044 TIP3     16043    TIP3     H1       HT       0.417000       1.00800           0
     58045 TIP3     16043    TIP3     H2       HT       0.417000       1.00800           0
     58046 TIP3     16044    TIP3     OH2      OT      -0.834000       15.9994           0
     58047 TIP3     16044    TIP3     H1       HT       0.417000       1.00800           0
     58048 TIP3     16044    TIP3     H2       HT       0.417000       1.00800           0
     58049 TIP3     16045    TIP3     OH2      OT      -0.834000       15.9994           0
     58050 TIP3     16045    TIP3     H1       HT       0.417000       1.00800           0
     58051 TIP3     16045    TIP3     H2       HT       0.417000       1.00800           0
     58052 TIP3     16046    TIP3     OH2      OT      -0.834000       15.9994           0
     58053 TIP3     16046    TIP3     H1       HT       0.417000       1.00800           0
     58054 TIP3     16046    TIP3     H2       HT       0.417000       1.00800           0
     58055 TIP3     16047    TIP3     OH2      OT      -0.834000       15.9994           0
     58056 TIP3     16047    TIP3     H1       HT       0.417000       1.00800           0
     58057 TIP3     16047    TIP3     H2       HT       0.417000       1.00800           0
     58058 TIP3     16048    TIP3     OH2      OT      -0.834000       15.9994           0
     58059 TIP3     16048    TIP3     H1       HT       0.417000       1.00800           0
     58060 TIP3     16048    TIP3     H2       HT       0.417000       1.00800           0
     58061 TIP3     16049    TIP3     OH2      OT      -0.834000       15.9994           0
     58062 TIP3     16049    TIP3     H1       HT       0.417000       1.00800           0
     58063 TIP3     16049    TIP3     H2       HT       0.417000       1.00800           0
     58064 TIP3     16050    TIP3     OH2      OT      -0.834000       15.9994           0
     58065 TIP3     16050    TIP3     H1       HT       0.417000       1.00800           0
     58066 TIP3     16050    TIP3     H2       HT       0.417000       1.00800           0
     58067 TIP3     16051    TIP3     OH2      OT      -0.834000       15.9994           0
     58068 TIP3     16051    TIP3     H1       HT       0.417000       1.00800           0
     58069 TIP3     16051    TIP3     H2       HT       0.417000       1.00800           0
     58070 TIP3     16052    TIP3     OH2      OT      -0.834000       15.9994           0
     58071 TIP3     16052    TIP3     H1       HT       0.417000       1.00800           0
     58072 TIP3     16052    TIP3     H2       HT       0.417000       1.00800           0
     58073 TIP3     16053    TIP3     OH2      OT      -0.834000       15.9994           0
     58074 TIP3     16053    TIP3     H1       HT       0.417000       1.00800           0
     58075 TIP3     16053    TIP3     H2       HT       0.417000       1.00800           0
     58076 TIP3     16054    TIP3     OH2      OT      -0.834000       15.9994           0
     58077 TIP3     16054    TIP3     H1       HT       0.417000       1.00800           0
     58078 TIP3     16054    TIP3     H2       HT       0.417000       1.00800           0
     58079 TIP3     16055    TIP3     OH2      OT      -0.834000       15.9994           0
     58080 TIP3     16055    TIP3     H1       HT       0.417000       1.00800           0
     58081 TIP3     16055    TIP3     H2       HT       0.417000       1.00800           0
     58082 TIP3     16056    TIP3     OH2      OT      -0.834000       15.9994           0
     58083 TIP3     16056    TIP3     H1       HT       0.417000       1.00800           0
     58084 TIP3     16056    TIP3     H2       HT       0.417000       1.00800           0
     58085 TIP3     16057    TIP3     OH2      OT      -0.834000       15.9994           0
     58086 TIP3     16057    TIP3     H1       HT       0.417000       1.00800           0
     58087 TIP3     16057    TIP3     H2       HT       0.417000       1.00800           0
     58088 TIP3     16058    TIP3     OH2      OT      -0.834000       15.9994           0
     58089 TIP3     16058    TIP3     H1       HT       0.417000       1.00800           0
     58090 TIP3     16058    TIP3     H2       HT       0.417000       1.00800           0
     58091 TIP3     16059    TIP3     OH2      OT      -0.834000       15.9994           0
     58092 TIP3     16059    TIP3     H1       HT       0.417000       1.00800           0
     58093 TIP3     16059    TIP3     H2       HT       0.417000       1.00800           0
     58094 TIP3     16060    TIP3     OH2      OT      -0.834000       15.9994           0
     58095 TIP3     16060    TIP3     H1       HT       0.417000       1.00800           0
     58096 TIP3     16060    TIP3     H2       HT       0.417000       1.00800           0
     58097 TIP3     16061    TIP3     OH2      OT      -0.834000       15.9994           0
     58098 TIP3     16061    TIP3     H1       HT       0.417000       1.00800           0
     58099 TIP3     16061    TIP3     H2       HT       0.417000       1.00800           0
     58100 TIP3     16062    TIP3     OH2      OT      -0.834000       15.9994           0
     58101 TIP3     16062    TIP3     H1       HT       0.417000       1.00800           0
     58102 TIP3     16062    TIP3     H2       HT       0.417000       1.00800           0
     58103 TIP3     16063    TIP3     OH2      OT      -0.834000       15.9994           0
     58104 TIP3     16063    TIP3     H1       HT       0.417000       1.00800           0
     58105 TIP3     16063    TIP3     H2       HT       0.417000       1.00800           0
     58106 TIP3     16064    TIP3     OH2      OT      -0.834000       15.9994           0
     58107 TIP3     16064    TIP3     H1       HT       0.417000       1.00800           0
     58108 TIP3     16064    TIP3     H2       HT       0.417000       1.00800           0
     58109 TIP3     16065    TIP3     OH2      OT      -0.834000       15.9994           0
     58110 TIP3     16065    TIP3     H1       HT       0.417000       1.00800           0
     58111 TIP3     16065    TIP3     H2       HT       0.417000       1.00800           0
     58112 TIP3     16066    TIP3     OH2      OT      -0.834000       15.9994           0
     58113 TIP3     16066    TIP3     H1       HT       0.417000       1.00800           0
     58114 TIP3     16066    TIP3     H2       HT       0.417000       1.00800           0
     58115 TIP3     16067    TIP3     OH2      OT      -0.834000       15.9994           0
     58116 TIP3     16067    TIP3     H1       HT       0.417000       1.00800           0
     58117 TIP3     16067    TIP3     H2       HT       0.417000       1.00800           0
     58118 TIP3     16068    TIP3     OH2      OT      -0.834000       15.9994           0
     58119 TIP3     16068    TIP3     H1       HT       0.417000       1.00800           0
     58120 TIP3     16068    TIP3     H2       HT       0.417000       1.00800           0
     58121 TIP3     16069    TIP3     OH2      OT      -0.834000       15.9994           0
     58122 TIP3     16069    TIP3     H1       HT       0.417000       1.00800           0
     58123 TIP3     16069    TIP3     H2       HT       0.417000       1.00800           0
     58124 TIP3     16070    TIP3     OH2      OT      -0.834000       15.9994           0
     58125 TIP3     16070    TIP3     H1       HT       0.417000       1.00800           0
     58126 TIP3     16070    TIP3     H2       HT       0.417000       1.00800           0
     58127 TIP3     16071    TIP3     OH2      OT      -0.834000       15.9994           0
     58128 TIP3     16071    TIP3     H1       HT       0.417000       1.00800           0
     58129 TIP3     16071    TIP3     H2       HT       0.417000       1.00800           0
     58130 TIP3     16072    TIP3     OH2      OT      -0.834000       15.9994           0
     58131 TIP3     16072    TIP3     H1       HT       0.417000       1.00800           0
     58132 TIP3     16072    TIP3     H2       HT       0.417000       1.00800           0
     58133 TIP3     16073    TIP3     OH2      OT      -0.834000       15.9994           0
     58134 TIP3     16073    TIP3     H1       HT       0.417000       1.00800           0
     58135 TIP3     16073    TIP3     H2       HT       0.417000       1.00800           0
     58136 TIP3     16074    TIP3     OH2      OT      -0.834000       15.9994           0
     58137 TIP3     16074    TIP3     H1       HT       0.417000       1.00800           0
     58138 TIP3     16074    TIP3     H2       HT       0.417000       1.00800           0
     58139 TIP3     16075    TIP3     OH2      OT      -0.834000       15.9994           0
     58140 TIP3     16075    TIP3     H1       HT       0.417000       1.00800           0
     58141 TIP3     16075    TIP3     H2       HT       0.417000       1.00800           0
     58142 TIP3     16076    TIP3     OH2      OT      -0.834000       15.9994           0
     58143 TIP3     16076    TIP3     H1       HT       0.417000       1.00800           0
     58144 TIP3     16076    TIP3     H2       HT       0.417000       1.00800           0
     58145 TIP3     16077    TIP3     OH2      OT      -0.834000       15.9994           0
     58146 TIP3     16077    TIP3     H1       HT       0.417000       1.00800           0
     58147 TIP3     16077    TIP3     H2       HT       0.417000       1.00800           0
     58148 TIP3     16078    TIP3     OH2      OT      -0.834000       15.9994           0
     58149 TIP3     16078    TIP3     H1       HT       0.417000       1.00800           0
     58150 TIP3     16078    TIP3     H2       HT       0.417000       1.00800           0
     58151 TIP3     16079    TIP3     OH2      OT      -0.834000       15.9994           0
     58152 TIP3     16079    TIP3     H1       HT       0.417000       1.00800           0
     58153 TIP3     16079    TIP3     H2       HT       0.417000       1.00800           0
     58154 TIP3     16080    TIP3     OH2      OT      -0.834000       15.9994           0
     58155 TIP3     16080    TIP3     H1       HT       0.417000       1.00800           0
     58156 TIP3     16080    TIP3     H2       HT       0.417000       1.00800           0
     58157 TIP3     16081    TIP3     OH2      OT      -0.834000       15.9994           0
     58158 TIP3     16081    TIP3     H1       HT       0.417000       1.00800           0
     58159 TIP3     16081    TIP3     H2       HT       0.417000       1.00800           0
     58160 TIP3     16082    TIP3     OH2      OT      -0.834000       15.9994           0
     58161 TIP3     16082    TIP3     H1       HT       0.417000       1.00800           0
     58162 TIP3     16082    TIP3     H2       HT       0.417000       1.00800           0
     58163 TIP3     16083    TIP3     OH2      OT      -0.834000       15.9994           0
     58164 TIP3     16083    TIP3     H1       HT       0.417000       1.00800           0
     58165 TIP3     16083    TIP3     H2       HT       0.417000       1.00800           0
     58166 TIP3     16084    TIP3     OH2      OT      -0.834000       15.9994           0
     58167 TIP3     16084    TIP3     H1       HT       0.417000       1.00800           0
     58168 TIP3     16084    TIP3     H2       HT       0.417000       1.00800           0
     58169 TIP3     16085    TIP3     OH2      OT      -0.834000       15.9994           0
     58170 TIP3     16085    TIP3     H1       HT       0.417000       1.00800           0
     58171 TIP3     16085    TIP3     H2       HT       0.417000       1.00800           0
     58172 TIP3     16086    TIP3     OH2      OT      -0.834000       15.9994           0
     58173 TIP3     16086    TIP3     H1       HT       0.417000       1.00800           0
     58174 TIP3     16086    TIP3     H2       HT       0.417000       1.00800           0
     58175 TIP3     16087    TIP3     OH2      OT      -0.834000       15.9994           0
     58176 TIP3     16087    TIP3     H1       HT       0.417000       1.00800           0
     58177 TIP3     16087    TIP3     H2       HT       0.417000       1.00800           0
     58178 TIP3     16088    TIP3     OH2      OT      -0.834000       15.9994           0
     58179 TIP3     16088    TIP3     H1       HT       0.417000       1.00800           0
     58180 TIP3     16088    TIP3     H2       HT       0.417000       1.00800           0
     58181 TIP3     16089    TIP3     OH2      OT      -0.834000       15.9994           0
     58182 TIP3     16089    TIP3     H1       HT       0.417000       1.00800           0
     58183 TIP3     16089    TIP3     H2       HT       0.417000       1.00800           0
     58184 TIP3     16090    TIP3     OH2      OT      -0.834000       15.9994           0
     58185 TIP3     16090    TIP3     H1       HT       0.417000       1.00800           0
     58186 TIP3     16090    TIP3     H2       HT       0.417000       1.00800           0
     58187 TIP3     16091    TIP3     OH2      OT      -0.834000       15.9994           0
     58188 TIP3     16091    TIP3     H1       HT       0.417000       1.00800           0
     58189 TIP3     16091    TIP3     H2       HT       0.417000       1.00800           0
     58190 TIP3     16092    TIP3     OH2      OT      -0.834000       15.9994           0
     58191 TIP3     16092    TIP3     H1       HT       0.417000       1.00800           0
     58192 TIP3     16092    TIP3     H2       HT       0.417000       1.00800           0
     58193 TIP3     16093    TIP3     OH2      OT      -0.834000       15.9994           0
     58194 TIP3     16093    TIP3     H1       HT       0.417000       1.00800           0
     58195 TIP3     16093    TIP3     H2       HT       0.417000       1.00800           0
     58196 TIP3     16094    TIP3     OH2      OT      -0.834000       15.9994           0
     58197 TIP3     16094    TIP3     H1       HT       0.417000       1.00800           0
     58198 TIP3     16094    TIP3     H2       HT       0.417000       1.00800           0
     58199 TIP3     16095    TIP3     OH2      OT      -0.834000       15.9994           0
     58200 TIP3     16095    TIP3     H1       HT       0.417000       1.00800           0
     58201 TIP3     16095    TIP3     H2       HT       0.417000       1.00800           0
     58202 TIP3     16096    TIP3     OH2      OT      -0.834000       15.9994           0
     58203 TIP3     16096    TIP3     H1       HT       0.417000       1.00800           0
     58204 TIP3     16096    TIP3     H2       HT       0.417000       1.00800           0
     58205 TIP3     16097    TIP3     OH2      OT      -0.834000       15.9994           0
     58206 TIP3     16097    TIP3     H1       HT       0.417000       1.00800           0
     58207 TIP3     16097    TIP3     H2       HT       0.417000       1.00800           0
     58208 TIP3     16098    TIP3     OH2      OT      -0.834000       15.9994           0
     58209 TIP3     16098    TIP3     H1       HT       0.417000       1.00800           0
     58210 TIP3     16098    TIP3     H2       HT       0.417000       1.00800           0
     58211 TIP3     16099    TIP3     OH2      OT      -0.834000       15.9994           0
     58212 TIP3     16099    TIP3     H1       HT       0.417000       1.00800           0
     58213 TIP3     16099    TIP3     H2       HT       0.417000       1.00800           0
     58214 TIP3     16100    TIP3     OH2      OT      -0.834000       15.9994           0
     58215 TIP3     16100    TIP3     H1       HT       0.417000       1.00800           0
     58216 TIP3     16100    TIP3     H2       HT       0.417000       1.00800           0
     58217 TIP3     16101    TIP3     OH2      OT      -0.834000       15.9994           0
     58218 TIP3     16101    TIP3     H1       HT       0.417000       1.00800           0
     58219 TIP3     16101    TIP3     H2       HT       0.417000       1.00800           0
     58220 TIP3     16102    TIP3     OH2      OT      -0.834000       15.9994           0
     58221 TIP3     16102    TIP3     H1       HT       0.417000       1.00800           0
     58222 TIP3     16102    TIP3     H2       HT       0.417000       1.00800           0
     58223 TIP3     16103    TIP3     OH2      OT      -0.834000       15.9994           0
     58224 TIP3     16103    TIP3     H1       HT       0.417000       1.00800           0
     58225 TIP3     16103    TIP3     H2       HT       0.417000       1.00800           0
     58226 TIP3     16104    TIP3     OH2      OT      -0.834000       15.9994           0
     58227 TIP3     16104    TIP3     H1       HT       0.417000       1.00800           0
     58228 TIP3     16104    TIP3     H2       HT       0.417000       1.00800           0
     58229 TIP3     16105    TIP3     OH2      OT      -0.834000       15.9994           0
     58230 TIP3     16105    TIP3     H1       HT       0.417000       1.00800           0
     58231 TIP3     16105    TIP3     H2       HT       0.417000       1.00800           0
     58232 TIP3     16106    TIP3     OH2      OT      -0.834000       15.9994           0
     58233 TIP3     16106    TIP3     H1       HT       0.417000       1.00800           0
     58234 TIP3     16106    TIP3     H2       HT       0.417000       1.00800           0
     58235 TIP3     16107    TIP3     OH2      OT      -0.834000       15.9994           0
     58236 TIP3     16107    TIP3     H1       HT       0.417000       1.00800           0
     58237 TIP3     16107    TIP3     H2       HT       0.417000       1.00800           0
     58238 TIP3     16108    TIP3     OH2      OT      -0.834000       15.9994           0
     58239 TIP3     16108    TIP3     H1       HT       0.417000       1.00800           0
     58240 TIP3     16108    TIP3     H2       HT       0.417000       1.00800           0
     58241 TIP3     16109    TIP3     OH2      OT      -0.834000       15.9994           0
     58242 TIP3     16109    TIP3     H1       HT       0.417000       1.00800           0
     58243 TIP3     16109    TIP3     H2       HT       0.417000       1.00800           0
     58244 TIP3     16110    TIP3     OH2      OT      -0.834000       15.9994           0
     58245 TIP3     16110    TIP3     H1       HT       0.417000       1.00800           0
     58246 TIP3     16110    TIP3     H2       HT       0.417000       1.00800           0
     58247 TIP3     16111    TIP3     OH2      OT      -0.834000       15.9994           0
     58248 TIP3     16111    TIP3     H1       HT       0.417000       1.00800           0
     58249 TIP3     16111    TIP3     H2       HT       0.417000       1.00800           0
     58250 TIP3     16112    TIP3     OH2      OT      -0.834000       15.9994           0
     58251 TIP3     16112    TIP3     H1       HT       0.417000       1.00800           0
     58252 TIP3     16112    TIP3     H2       HT       0.417000       1.00800           0
     58253 TIP3     16113    TIP3     OH2      OT      -0.834000       15.9994           0
     58254 TIP3     16113    TIP3     H1       HT       0.417000       1.00800           0
     58255 TIP3     16113    TIP3     H2       HT       0.417000       1.00800           0
     58256 TIP3     16114    TIP3     OH2      OT      -0.834000       15.9994           0
     58257 TIP3     16114    TIP3     H1       HT       0.417000       1.00800           0
     58258 TIP3     16114    TIP3     H2       HT       0.417000       1.00800           0
     58259 TIP3     16115    TIP3     OH2      OT      -0.834000       15.9994           0
     58260 TIP3     16115    TIP3     H1       HT       0.417000       1.00800           0
     58261 TIP3     16115    TIP3     H2       HT       0.417000       1.00800           0
     58262 TIP3     16116    TIP3     OH2      OT      -0.834000       15.9994           0
     58263 TIP3     16116    TIP3     H1       HT       0.417000       1.00800           0
     58264 TIP3     16116    TIP3     H2       HT       0.417000       1.00800           0
     58265 TIP3     16117    TIP3     OH2      OT      -0.834000       15.9994           0
     58266 TIP3     16117    TIP3     H1       HT       0.417000       1.00800           0
     58267 TIP3     16117    TIP3     H2       HT       0.417000       1.00800           0
     58268 TIP3     16118    TIP3     OH2      OT      -0.834000       15.9994           0
     58269 TIP3     16118    TIP3     H1       HT       0.417000       1.00800           0
     58270 TIP3     16118    TIP3     H2       HT       0.417000       1.00800           0
     58271 TIP3     16119    TIP3     OH2      OT      -0.834000       15.9994           0
     58272 TIP3     16119    TIP3     H1       HT       0.417000       1.00800           0
     58273 TIP3     16119    TIP3     H2       HT       0.417000       1.00800           0
     58274 TIP3     16120    TIP3     OH2      OT      -0.834000       15.9994           0
     58275 TIP3     16120    TIP3     H1       HT       0.417000       1.00800           0
     58276 TIP3     16120    TIP3     H2       HT       0.417000       1.00800           0
     58277 TIP3     16121    TIP3     OH2      OT      -0.834000       15.9994           0
     58278 TIP3     16121    TIP3     H1       HT       0.417000       1.00800           0
     58279 TIP3     16121    TIP3     H2       HT       0.417000       1.00800           0
     58280 TIP3     16122    TIP3     OH2      OT      -0.834000       15.9994           0
     58281 TIP3     16122    TIP3     H1       HT       0.417000       1.00800           0
     58282 TIP3     16122    TIP3     H2       HT       0.417000       1.00800           0
     58283 TIP3     16123    TIP3     OH2      OT      -0.834000       15.9994           0
     58284 TIP3     16123    TIP3     H1       HT       0.417000       1.00800           0
     58285 TIP3     16123    TIP3     H2       HT       0.417000       1.00800           0
     58286 TIP3     16124    TIP3     OH2      OT      -0.834000       15.9994           0
     58287 TIP3     16124    TIP3     H1       HT       0.417000       1.00800           0
     58288 TIP3     16124    TIP3     H2       HT       0.417000       1.00800           0
     58289 TIP3     16125    TIP3     OH2      OT      -0.834000       15.9994           0
     58290 TIP3     16125    TIP3     H1       HT       0.417000       1.00800           0
     58291 TIP3     16125    TIP3     H2       HT       0.417000       1.00800           0
     58292 TIP3     16126    TIP3     OH2      OT      -0.834000       15.9994           0
     58293 TIP3     16126    TIP3     H1       HT       0.417000       1.00800           0
     58294 TIP3     16126    TIP3     H2       HT       0.417000       1.00800           0
     58295 TIP3     16127    TIP3     OH2      OT      -0.834000       15.9994           0
     58296 TIP3     16127    TIP3     H1       HT       0.417000       1.00800           0
     58297 TIP3     16127    TIP3     H2       HT       0.417000       1.00800           0
     58298 TIP3     16128    TIP3     OH2      OT      -0.834000       15.9994           0
     58299 TIP3     16128    TIP3     H1       HT       0.417000       1.00800           0
     58300 TIP3     16128    TIP3     H2       HT       0.417000       1.00800           0
     58301 TIP3     16129    TIP3     OH2      OT      -0.834000       15.9994           0
     58302 TIP3     16129    TIP3     H1       HT       0.417000       1.00800           0
     58303 TIP3     16129    TIP3     H2       HT       0.417000       1.00800           0
     58304 TIP3     16130    TIP3     OH2      OT      -0.834000       15.9994           0
     58305 TIP3     16130    TIP3     H1       HT       0.417000       1.00800           0
     58306 TIP3     16130    TIP3     H2       HT       0.417000       1.00800           0
     58307 TIP3     16131    TIP3     OH2      OT      -0.834000       15.9994           0
     58308 TIP3     16131    TIP3     H1       HT       0.417000       1.00800           0
     58309 TIP3     16131    TIP3     H2       HT       0.417000       1.00800           0
     58310 TIP3     16132    TIP3     OH2      OT      -0.834000       15.9994           0
     58311 TIP3     16132    TIP3     H1       HT       0.417000       1.00800           0
     58312 TIP3     16132    TIP3     H2       HT       0.417000       1.00800           0
     58313 TIP3     16133    TIP3     OH2      OT      -0.834000       15.9994           0
     58314 TIP3     16133    TIP3     H1       HT       0.417000       1.00800           0
     58315 TIP3     16133    TIP3     H2       HT       0.417000       1.00800           0
     58316 TIP3     16134    TIP3     OH2      OT      -0.834000       15.9994           0
     58317 TIP3     16134    TIP3     H1       HT       0.417000       1.00800           0
     58318 TIP3     16134    TIP3     H2       HT       0.417000       1.00800           0
     58319 TIP3     16135    TIP3     OH2      OT      -0.834000       15.9994           0
     58320 TIP3     16135    TIP3     H1       HT       0.417000       1.00800           0
     58321 TIP3     16135    TIP3     H2       HT       0.417000       1.00800           0
     58322 TIP3     16136    TIP3     OH2      OT      -0.834000       15.9994           0
     58323 TIP3     16136    TIP3     H1       HT       0.417000       1.00800           0
     58324 TIP3     16136    TIP3     H2       HT       0.417000       1.00800           0
     58325 TIP3     16137    TIP3     OH2      OT      -0.834000       15.9994           0
     58326 TIP3     16137    TIP3     H1       HT       0.417000       1.00800           0
     58327 TIP3     16137    TIP3     H2       HT       0.417000       1.00800           0
     58328 TIP3     16138    TIP3     OH2      OT      -0.834000       15.9994           0
     58329 TIP3     16138    TIP3     H1       HT       0.417000       1.00800           0
     58330 TIP3     16138    TIP3     H2       HT       0.417000       1.00800           0
     58331 TIP3     16139    TIP3     OH2      OT      -0.834000       15.9994           0
     58332 TIP3     16139    TIP3     H1       HT       0.417000       1.00800           0
     58333 TIP3     16139    TIP3     H2       HT       0.417000       1.00800           0
     58334 TIP3     16140    TIP3     OH2      OT      -0.834000       15.9994           0
     58335 TIP3     16140    TIP3     H1       HT       0.417000       1.00800           0
     58336 TIP3     16140    TIP3     H2       HT       0.417000       1.00800           0
     58337 TIP3     16141    TIP3     OH2      OT      -0.834000       15.9994           0
     58338 TIP3     16141    TIP3     H1       HT       0.417000       1.00800           0
     58339 TIP3     16141    TIP3     H2       HT       0.417000       1.00800           0
     58340 TIP3     16142    TIP3     OH2      OT      -0.834000       15.9994           0
     58341 TIP3     16142    TIP3     H1       HT       0.417000       1.00800           0
     58342 TIP3     16142    TIP3     H2       HT       0.417000       1.00800           0
     58343 TIP3     16143    TIP3     OH2      OT      -0.834000       15.9994           0
     58344 TIP3     16143    TIP3     H1       HT       0.417000       1.00800           0
     58345 TIP3     16143    TIP3     H2       HT       0.417000       1.00800           0
     58346 TIP3     16144    TIP3     OH2      OT      -0.834000       15.9994           0
     58347 TIP3     16144    TIP3     H1       HT       0.417000       1.00800           0
     58348 TIP3     16144    TIP3     H2       HT       0.417000       1.00800           0
     58349 TIP3     16145    TIP3     OH2      OT      -0.834000       15.9994           0
     58350 TIP3     16145    TIP3     H1       HT       0.417000       1.00800           0
     58351 TIP3     16145    TIP3     H2       HT       0.417000       1.00800           0
     58352 TIP3     16146    TIP3     OH2      OT      -0.834000       15.9994           0
     58353 TIP3     16146    TIP3     H1       HT       0.417000       1.00800           0
     58354 TIP3     16146    TIP3     H2       HT       0.417000       1.00800           0
     58355 TIP3     16147    TIP3     OH2      OT      -0.834000       15.9994           0
     58356 TIP3     16147    TIP3     H1       HT       0.417000       1.00800           0
     58357 TIP3     16147    TIP3     H2       HT       0.417000       1.00800           0
     58358 TIP3     16148    TIP3     OH2      OT      -0.834000       15.9994           0
     58359 TIP3     16148    TIP3     H1       HT       0.417000       1.00800           0
     58360 TIP3     16148    TIP3     H2       HT       0.417000       1.00800           0
     58361 TIP3     16149    TIP3     OH2      OT      -0.834000       15.9994           0
     58362 TIP3     16149    TIP3     H1       HT       0.417000       1.00800           0
     58363 TIP3     16149    TIP3     H2       HT       0.417000       1.00800           0
     58364 TIP3     16150    TIP3     OH2      OT      -0.834000       15.9994           0
     58365 TIP3     16150    TIP3     H1       HT       0.417000       1.00800           0
     58366 TIP3     16150    TIP3     H2       HT       0.417000       1.00800           0
     58367 TIP3     16151    TIP3     OH2      OT      -0.834000       15.9994           0
     58368 TIP3     16151    TIP3     H1       HT       0.417000       1.00800           0
     58369 TIP3     16151    TIP3     H2       HT       0.417000       1.00800           0
     58370 TIP3     16152    TIP3     OH2      OT      -0.834000       15.9994           0
     58371 TIP3     16152    TIP3     H1       HT       0.417000       1.00800           0
     58372 TIP3     16152    TIP3     H2       HT       0.417000       1.00800           0
     58373 TIP3     16153    TIP3     OH2      OT      -0.834000       15.9994           0
     58374 TIP3     16153    TIP3     H1       HT       0.417000       1.00800           0
     58375 TIP3     16153    TIP3     H2       HT       0.417000       1.00800           0
     58376 TIP3     16154    TIP3     OH2      OT      -0.834000       15.9994           0
     58377 TIP3     16154    TIP3     H1       HT       0.417000       1.00800           0
     58378 TIP3     16154    TIP3     H2       HT       0.417000       1.00800           0
     58379 TIP3     16155    TIP3     OH2      OT      -0.834000       15.9994           0
     58380 TIP3     16155    TIP3     H1       HT       0.417000       1.00800           0
     58381 TIP3     16155    TIP3     H2       HT       0.417000       1.00800           0
     58382 TIP3     16156    TIP3     OH2      OT      -0.834000       15.9994           0
     58383 TIP3     16156    TIP3     H1       HT       0.417000       1.00800           0
     58384 TIP3     16156    TIP3     H2       HT       0.417000       1.00800           0
     58385 TIP3     16157    TIP3     OH2      OT      -0.834000       15.9994           0
     58386 TIP3     16157    TIP3     H1       HT       0.417000       1.00800           0
     58387 TIP3     16157    TIP3     H2       HT       0.417000       1.00800           0
     58388 TIP3     16158    TIP3     OH2      OT      -0.834000       15.9994           0
     58389 TIP3     16158    TIP3     H1       HT       0.417000       1.00800           0
     58390 TIP3     16158    TIP3     H2       HT       0.417000       1.00800           0
     58391 TIP3     16159    TIP3     OH2      OT      -0.834000       15.9994           0
     58392 TIP3     16159    TIP3     H1       HT       0.417000       1.00800           0
     58393 TIP3     16159    TIP3     H2       HT       0.417000       1.00800           0
     58394 TIP3     16160    TIP3     OH2      OT      -0.834000       15.9994           0
     58395 TIP3     16160    TIP3     H1       HT       0.417000       1.00800           0
     58396 TIP3     16160    TIP3     H2       HT       0.417000       1.00800           0
     58397 TIP3     16161    TIP3     OH2      OT      -0.834000       15.9994           0
     58398 TIP3     16161    TIP3     H1       HT       0.417000       1.00800           0
     58399 TIP3     16161    TIP3     H2       HT       0.417000       1.00800           0
     58400 TIP3     16162    TIP3     OH2      OT      -0.834000       15.9994           0
     58401 TIP3     16162    TIP3     H1       HT       0.417000       1.00800           0
     58402 TIP3     16162    TIP3     H2       HT       0.417000       1.00800           0
     58403 TIP3     16163    TIP3     OH2      OT      -0.834000       15.9994           0
     58404 TIP3     16163    TIP3     H1       HT       0.417000       1.00800           0
     58405 TIP3     16163    TIP3     H2       HT       0.417000       1.00800           0
     58406 TIP3     16164    TIP3     OH2      OT      -0.834000       15.9994           0
     58407 TIP3     16164    TIP3     H1       HT       0.417000       1.00800           0
     58408 TIP3     16164    TIP3     H2       HT       0.417000       1.00800           0
     58409 TIP3     16165    TIP3     OH2      OT      -0.834000       15.9994           0
     58410 TIP3     16165    TIP3     H1       HT       0.417000       1.00800           0
     58411 TIP3     16165    TIP3     H2       HT       0.417000       1.00800           0
     58412 TIP3     16166    TIP3     OH2      OT      -0.834000       15.9994           0
     58413 TIP3     16166    TIP3     H1       HT       0.417000       1.00800           0
     58414 TIP3     16166    TIP3     H2       HT       0.417000       1.00800           0
     58415 TIP3     16167    TIP3     OH2      OT      -0.834000       15.9994           0
     58416 TIP3     16167    TIP3     H1       HT       0.417000       1.00800           0
     58417 TIP3     16167    TIP3     H2       HT       0.417000       1.00800           0
     58418 TIP3     16168    TIP3     OH2      OT      -0.834000       15.9994           0
     58419 TIP3     16168    TIP3     H1       HT       0.417000       1.00800           0
     58420 TIP3     16168    TIP3     H2       HT       0.417000       1.00800           0
     58421 TIP3     16169    TIP3     OH2      OT      -0.834000       15.9994           0
     58422 TIP3     16169    TIP3     H1       HT       0.417000       1.00800           0
     58423 TIP3     16169    TIP3     H2       HT       0.417000       1.00800           0
     58424 TIP3     16170    TIP3     OH2      OT      -0.834000       15.9994           0
     58425 TIP3     16170    TIP3     H1       HT       0.417000       1.00800           0
     58426 TIP3     16170    TIP3     H2       HT       0.417000       1.00800           0
     58427 TIP3     16171    TIP3     OH2      OT      -0.834000       15.9994           0
     58428 TIP3     16171    TIP3     H1       HT       0.417000       1.00800           0
     58429 TIP3     16171    TIP3     H2       HT       0.417000       1.00800           0
     58430 TIP3     16172    TIP3     OH2      OT      -0.834000       15.9994           0
     58431 TIP3     16172    TIP3     H1       HT       0.417000       1.00800           0
     58432 TIP3     16172    TIP3     H2       HT       0.417000       1.00800           0
     58433 TIP3     16173    TIP3     OH2      OT      -0.834000       15.9994           0
     58434 TIP3     16173    TIP3     H1       HT       0.417000       1.00800           0
     58435 TIP3     16173    TIP3     H2       HT       0.417000       1.00800           0
     58436 TIP3     16174    TIP3     OH2      OT      -0.834000       15.9994           0
     58437 TIP3     16174    TIP3     H1       HT       0.417000       1.00800           0
     58438 TIP3     16174    TIP3     H2       HT       0.417000       1.00800           0
     58439 TIP3     16175    TIP3     OH2      OT      -0.834000       15.9994           0
     58440 TIP3     16175    TIP3     H1       HT       0.417000       1.00800           0
     58441 TIP3     16175    TIP3     H2       HT       0.417000       1.00800           0
     58442 TIP3     16176    TIP3     OH2      OT      -0.834000       15.9994           0
     58443 TIP3     16176    TIP3     H1       HT       0.417000       1.00800           0
     58444 TIP3     16176    TIP3     H2       HT       0.417000       1.00800           0
     58445 TIP3     16177    TIP3     OH2      OT      -0.834000       15.9994           0
     58446 TIP3     16177    TIP3     H1       HT       0.417000       1.00800           0
     58447 TIP3     16177    TIP3     H2       HT       0.417000       1.00800           0
     58448 TIP3     16178    TIP3     OH2      OT      -0.834000       15.9994           0
     58449 TIP3     16178    TIP3     H1       HT       0.417000       1.00800           0
     58450 TIP3     16178    TIP3     H2       HT       0.417000       1.00800           0
     58451 TIP3     16179    TIP3     OH2      OT      -0.834000       15.9994           0
     58452 TIP3     16179    TIP3     H1       HT       0.417000       1.00800           0
     58453 TIP3     16179    TIP3     H2       HT       0.417000       1.00800           0
     58454 TIP3     16180    TIP3     OH2      OT      -0.834000       15.9994           0
     58455 TIP3     16180    TIP3     H1       HT       0.417000       1.00800           0
     58456 TIP3     16180    TIP3     H2       HT       0.417000       1.00800           0
     58457 TIP3     16181    TIP3     OH2      OT      -0.834000       15.9994           0
     58458 TIP3     16181    TIP3     H1       HT       0.417000       1.00800           0
     58459 TIP3     16181    TIP3     H2       HT       0.417000       1.00800           0
     58460 TIP3     16182    TIP3     OH2      OT      -0.834000       15.9994           0
     58461 TIP3     16182    TIP3     H1       HT       0.417000       1.00800           0
     58462 TIP3     16182    TIP3     H2       HT       0.417000       1.00800           0
     58463 TIP3     16183    TIP3     OH2      OT      -0.834000       15.9994           0
     58464 TIP3     16183    TIP3     H1       HT       0.417000       1.00800           0
     58465 TIP3     16183    TIP3     H2       HT       0.417000       1.00800           0
     58466 TIP3     16184    TIP3     OH2      OT      -0.834000       15.9994           0
     58467 TIP3     16184    TIP3     H1       HT       0.417000       1.00800           0
     58468 TIP3     16184    TIP3     H2       HT       0.417000       1.00800           0
     58469 TIP3     16185    TIP3     OH2      OT      -0.834000       15.9994           0
     58470 TIP3     16185    TIP3     H1       HT       0.417000       1.00800           0
     58471 TIP3     16185    TIP3     H2       HT       0.417000       1.00800           0
     58472 TIP3     16186    TIP3     OH2      OT      -0.834000       15.9994           0
     58473 TIP3     16186    TIP3     H1       HT       0.417000       1.00800           0
     58474 TIP3     16186    TIP3     H2       HT       0.417000       1.00800           0
     58475 TIP3     16187    TIP3     OH2      OT      -0.834000       15.9994           0
     58476 TIP3     16187    TIP3     H1       HT       0.417000       1.00800           0
     58477 TIP3     16187    TIP3     H2       HT       0.417000       1.00800           0
     58478 TIP3     16188    TIP3     OH2      OT      -0.834000       15.9994           0
     58479 TIP3     16188    TIP3     H1       HT       0.417000       1.00800           0
     58480 TIP3     16188    TIP3     H2       HT       0.417000       1.00800           0
     58481 TIP3     16189    TIP3     OH2      OT      -0.834000       15.9994           0
     58482 TIP3     16189    TIP3     H1       HT       0.417000       1.00800           0
     58483 TIP3     16189    TIP3     H2       HT       0.417000       1.00800           0
     58484 TIP3     16190    TIP3     OH2      OT      -0.834000       15.9994           0
     58485 TIP3     16190    TIP3     H1       HT       0.417000       1.00800           0
     58486 TIP3     16190    TIP3     H2       HT       0.417000       1.00800           0
     58487 TIP3     16191    TIP3     OH2      OT      -0.834000       15.9994           0
     58488 TIP3     16191    TIP3     H1       HT       0.417000       1.00800           0
     58489 TIP3     16191    TIP3     H2       HT       0.417000       1.00800           0
     58490 TIP3     16192    TIP3     OH2      OT      -0.834000       15.9994           0
     58491 TIP3     16192    TIP3     H1       HT       0.417000       1.00800           0
     58492 TIP3     16192    TIP3     H2       HT       0.417000       1.00800           0
     58493 TIP3     16193    TIP3     OH2      OT      -0.834000       15.9994           0
     58494 TIP3     16193    TIP3     H1       HT       0.417000       1.00800           0
     58495 TIP3     16193    TIP3     H2       HT       0.417000       1.00800           0
     58496 TIP3     16194    TIP3     OH2      OT      -0.834000       15.9994           0
     58497 TIP3     16194    TIP3     H1       HT       0.417000       1.00800           0
     58498 TIP3     16194    TIP3     H2       HT       0.417000       1.00800           0
     58499 TIP3     16195    TIP3     OH2      OT      -0.834000       15.9994           0
     58500 TIP3     16195    TIP3     H1       HT       0.417000       1.00800           0
     58501 TIP3     16195    TIP3     H2       HT       0.417000       1.00800           0
     58502 TIP3     16196    TIP3     OH2      OT      -0.834000       15.9994           0
     58503 TIP3     16196    TIP3     H1       HT       0.417000       1.00800           0
     58504 TIP3     16196    TIP3     H2       HT       0.417000       1.00800           0
     58505 TIP3     16197    TIP3     OH2      OT      -0.834000       15.9994           0
     58506 TIP3     16197    TIP3     H1       HT       0.417000       1.00800           0
     58507 TIP3     16197    TIP3     H2       HT       0.417000       1.00800           0
     58508 TIP3     16198    TIP3     OH2      OT      -0.834000       15.9994           0
     58509 TIP3     16198    TIP3     H1       HT       0.417000       1.00800           0
     58510 TIP3     16198    TIP3     H2       HT       0.417000       1.00800           0
     58511 TIP3     16199    TIP3     OH2      OT      -0.834000       15.9994           0
     58512 TIP3     16199    TIP3     H1       HT       0.417000       1.00800           0
     58513 TIP3     16199    TIP3     H2       HT       0.417000       1.00800           0
     58514 TIP3     16200    TIP3     OH2      OT      -0.834000       15.9994           0
     58515 TIP3     16200    TIP3     H1       HT       0.417000       1.00800           0
     58516 TIP3     16200    TIP3     H2       HT       0.417000       1.00800           0
     58517 TIP3     16201    TIP3     OH2      OT      -0.834000       15.9994           0
     58518 TIP3     16201    TIP3     H1       HT       0.417000       1.00800           0
     58519 TIP3     16201    TIP3     H2       HT       0.417000       1.00800           0
     58520 TIP3     16202    TIP3     OH2      OT      -0.834000       15.9994           0
     58521 TIP3     16202    TIP3     H1       HT       0.417000       1.00800           0
     58522 TIP3     16202    TIP3     H2       HT       0.417000       1.00800           0
     58523 TIP3     16203    TIP3     OH2      OT      -0.834000       15.9994           0
     58524 TIP3     16203    TIP3     H1       HT       0.417000       1.00800           0
     58525 TIP3     16203    TIP3     H2       HT       0.417000       1.00800           0
     58526 TIP3     16204    TIP3     OH2      OT      -0.834000       15.9994           0
     58527 TIP3     16204    TIP3     H1       HT       0.417000       1.00800           0
     58528 TIP3     16204    TIP3     H2       HT       0.417000       1.00800           0
     58529 TIP3     16205    TIP3     OH2      OT      -0.834000       15.9994           0
     58530 TIP3     16205    TIP3     H1       HT       0.417000       1.00800           0
     58531 TIP3     16205    TIP3     H2       HT       0.417000       1.00800           0
     58532 TIP3     16206    TIP3     OH2      OT      -0.834000       15.9994           0
     58533 TIP3     16206    TIP3     H1       HT       0.417000       1.00800           0
     58534 TIP3     16206    TIP3     H2       HT       0.417000       1.00800           0
     58535 TIP3     16207    TIP3     OH2      OT      -0.834000       15.9994           0
     58536 TIP3     16207    TIP3     H1       HT       0.417000       1.00800           0
     58537 TIP3     16207    TIP3     H2       HT       0.417000       1.00800           0
     58538 TIP3     16208    TIP3     OH2      OT      -0.834000       15.9994           0
     58539 TIP3     16208    TIP3     H1       HT       0.417000       1.00800           0
     58540 TIP3     16208    TIP3     H2       HT       0.417000       1.00800           0
     58541 TIP3     16209    TIP3     OH2      OT      -0.834000       15.9994           0
     58542 TIP3     16209    TIP3     H1       HT       0.417000       1.00800           0
     58543 TIP3     16209    TIP3     H2       HT       0.417000       1.00800           0
     58544 TIP3     16210    TIP3     OH2      OT      -0.834000       15.9994           0
     58545 TIP3     16210    TIP3     H1       HT       0.417000       1.00800           0
     58546 TIP3     16210    TIP3     H2       HT       0.417000       1.00800           0
     58547 TIP3     16211    TIP3     OH2      OT      -0.834000       15.9994           0
     58548 TIP3     16211    TIP3     H1       HT       0.417000       1.00800           0
     58549 TIP3     16211    TIP3     H2       HT       0.417000       1.00800           0
     58550 TIP3     16212    TIP3     OH2      OT      -0.834000       15.9994           0
     58551 TIP3     16212    TIP3     H1       HT       0.417000       1.00800           0
     58552 TIP3     16212    TIP3     H2       HT       0.417000       1.00800           0
     58553 TIP3     16213    TIP3     OH2      OT      -0.834000       15.9994           0
     58554 TIP3     16213    TIP3     H1       HT       0.417000       1.00800           0
     58555 TIP3     16213    TIP3     H2       HT       0.417000       1.00800           0
     58556 TIP3     16214    TIP3     OH2      OT      -0.834000       15.9994           0
     58557 TIP3     16214    TIP3     H1       HT       0.417000       1.00800           0
     58558 TIP3     16214    TIP3     H2       HT       0.417000       1.00800           0
     58559 TIP3     16215    TIP3     OH2      OT      -0.834000       15.9994           0
     58560 TIP3     16215    TIP3     H1       HT       0.417000       1.00800           0
     58561 TIP3     16215    TIP3     H2       HT       0.417000       1.00800           0
     58562 TIP3     16216    TIP3     OH2      OT      -0.834000       15.9994           0
     58563 TIP3     16216    TIP3     H1       HT       0.417000       1.00800           0
     58564 TIP3     16216    TIP3     H2       HT       0.417000       1.00800           0
     58565 TIP3     16217    TIP3     OH2      OT      -0.834000       15.9994           0
     58566 TIP3     16217    TIP3     H1       HT       0.417000       1.00800           0
     58567 TIP3     16217    TIP3     H2       HT       0.417000       1.00800           0
     58568 TIP3     16218    TIP3     OH2      OT      -0.834000       15.9994           0
     58569 TIP3     16218    TIP3     H1       HT       0.417000       1.00800           0
     58570 TIP3     16218    TIP3     H2       HT       0.417000       1.00800           0
     58571 TIP3     16219    TIP3     OH2      OT      -0.834000       15.9994           0
     58572 TIP3     16219    TIP3     H1       HT       0.417000       1.00800           0
     58573 TIP3     16219    TIP3     H2       HT       0.417000       1.00800           0
     58574 TIP3     16220    TIP3     OH2      OT      -0.834000       15.9994           0
     58575 TIP3     16220    TIP3     H1       HT       0.417000       1.00800           0
     58576 TIP3     16220    TIP3     H2       HT       0.417000       1.00800           0
     58577 TIP3     16221    TIP3     OH2      OT      -0.834000       15.9994           0
     58578 TIP3     16221    TIP3     H1       HT       0.417000       1.00800           0
     58579 TIP3     16221    TIP3     H2       HT       0.417000       1.00800           0
     58580 TIP3     16222    TIP3     OH2      OT      -0.834000       15.9994           0
     58581 TIP3     16222    TIP3     H1       HT       0.417000       1.00800           0
     58582 TIP3     16222    TIP3     H2       HT       0.417000       1.00800           0
     58583 TIP3     16223    TIP3     OH2      OT      -0.834000       15.9994           0
     58584 TIP3     16223    TIP3     H1       HT       0.417000       1.00800           0
     58585 TIP3     16223    TIP3     H2       HT       0.417000       1.00800           0
     58586 TIP3     16224    TIP3     OH2      OT      -0.834000       15.9994           0
     58587 TIP3     16224    TIP3     H1       HT       0.417000       1.00800           0
     58588 TIP3     16224    TIP3     H2       HT       0.417000       1.00800           0
     58589 TIP3     16225    TIP3     OH2      OT      -0.834000       15.9994           0
     58590 TIP3     16225    TIP3     H1       HT       0.417000       1.00800           0
     58591 TIP3     16225    TIP3     H2       HT       0.417000       1.00800           0
     58592 TIP3     16226    TIP3     OH2      OT      -0.834000       15.9994           0
     58593 TIP3     16226    TIP3     H1       HT       0.417000       1.00800           0
     58594 TIP3     16226    TIP3     H2       HT       0.417000       1.00800           0
     58595 TIP3     16227    TIP3     OH2      OT      -0.834000       15.9994           0
     58596 TIP3     16227    TIP3     H1       HT       0.417000       1.00800           0
     58597 TIP3     16227    TIP3     H2       HT       0.417000       1.00800           0
     58598 TIP3     16228    TIP3     OH2      OT      -0.834000       15.9994           0
     58599 TIP3     16228    TIP3     H1       HT       0.417000       1.00800           0
     58600 TIP3     16228    TIP3     H2       HT       0.417000       1.00800           0
     58601 TIP3     16229    TIP3     OH2      OT      -0.834000       15.9994           0
     58602 TIP3     16229    TIP3     H1       HT       0.417000       1.00800           0
     58603 TIP3     16229    TIP3     H2       HT       0.417000       1.00800           0
     58604 TIP3     16230    TIP3     OH2      OT      -0.834000       15.9994           0
     58605 TIP3     16230    TIP3     H1       HT       0.417000       1.00800           0
     58606 TIP3     16230    TIP3     H2       HT       0.417000       1.00800           0
     58607 TIP3     16231    TIP3     OH2      OT      -0.834000       15.9994           0
     58608 TIP3     16231    TIP3     H1       HT       0.417000       1.00800           0
     58609 TIP3     16231    TIP3     H2       HT       0.417000       1.00800           0
     58610 TIP3     16232    TIP3     OH2      OT      -0.834000       15.9994           0
     58611 TIP3     16232    TIP3     H1       HT       0.417000       1.00800           0
     58612 TIP3     16232    TIP3     H2       HT       0.417000       1.00800           0
     58613 TIP3     16233    TIP3     OH2      OT      -0.834000       15.9994           0
     58614 TIP3     16233    TIP3     H1       HT       0.417000       1.00800           0
     58615 TIP3     16233    TIP3     H2       HT       0.417000       1.00800           0
     58616 TIP3     16234    TIP3     OH2      OT      -0.834000       15.9994           0
     58617 TIP3     16234    TIP3     H1       HT       0.417000       1.00800           0
     58618 TIP3     16234    TIP3     H2       HT       0.417000       1.00800           0
     58619 TIP3     16235    TIP3     OH2      OT      -0.834000       15.9994           0
     58620 TIP3     16235    TIP3     H1       HT       0.417000       1.00800           0
     58621 TIP3     16235    TIP3     H2       HT       0.417000       1.00800           0
     58622 TIP3     16236    TIP3     OH2      OT      -0.834000       15.9994           0
     58623 TIP3     16236    TIP3     H1       HT       0.417000       1.00800           0
     58624 TIP3     16236    TIP3     H2       HT       0.417000       1.00800           0
     58625 TIP3     16237    TIP3     OH2      OT      -0.834000       15.9994           0
     58626 TIP3     16237    TIP3     H1       HT       0.417000       1.00800           0
     58627 TIP3     16237    TIP3     H2       HT       0.417000       1.00800           0
     58628 TIP3     16238    TIP3     OH2      OT      -0.834000       15.9994           0
     58629 TIP3     16238    TIP3     H1       HT       0.417000       1.00800           0
     58630 TIP3     16238    TIP3     H2       HT       0.417000       1.00800           0
     58631 TIP3     16239    TIP3     OH2      OT      -0.834000       15.9994           0
     58632 TIP3     16239    TIP3     H1       HT       0.417000       1.00800           0
     58633 TIP3     16239    TIP3     H2       HT       0.417000       1.00800           0
     58634 TIP3     16240    TIP3     OH2      OT      -0.834000       15.9994           0
     58635 TIP3     16240    TIP3     H1       HT       0.417000       1.00800           0
     58636 TIP3     16240    TIP3     H2       HT       0.417000       1.00800           0
     58637 TIP3     16241    TIP3     OH2      OT      -0.834000       15.9994           0
     58638 TIP3     16241    TIP3     H1       HT       0.417000       1.00800           0
     58639 TIP3     16241    TIP3     H2       HT       0.417000       1.00800           0
     58640 TIP3     16242    TIP3     OH2      OT      -0.834000       15.9994           0
     58641 TIP3     16242    TIP3     H1       HT       0.417000       1.00800           0
     58642 TIP3     16242    TIP3     H2       HT       0.417000       1.00800           0
     58643 TIP3     16243    TIP3     OH2      OT      -0.834000       15.9994           0
     58644 TIP3     16243    TIP3     H1       HT       0.417000       1.00800           0
     58645 TIP3     16243    TIP3     H2       HT       0.417000       1.00800           0
     58646 TIP3     16244    TIP3     OH2      OT      -0.834000       15.9994           0
     58647 TIP3     16244    TIP3     H1       HT       0.417000       1.00800           0
     58648 TIP3     16244    TIP3     H2       HT       0.417000       1.00800           0
     58649 TIP3     16245    TIP3     OH2      OT      -0.834000       15.9994           0
     58650 TIP3     16245    TIP3     H1       HT       0.417000       1.00800           0
     58651 TIP3     16245    TIP3     H2       HT       0.417000       1.00800           0
     58652 TIP3     16246    TIP3     OH2      OT      -0.834000       15.9994           0
     58653 TIP3     16246    TIP3     H1       HT       0.417000       1.00800           0
     58654 TIP3     16246    TIP3     H2       HT       0.417000       1.00800           0
     58655 TIP3     16247    TIP3     OH2      OT      -0.834000       15.9994           0
     58656 TIP3     16247    TIP3     H1       HT       0.417000       1.00800           0
     58657 TIP3     16247    TIP3     H2       HT       0.417000       1.00800           0
     58658 TIP3     16248    TIP3     OH2      OT      -0.834000       15.9994           0
     58659 TIP3     16248    TIP3     H1       HT       0.417000       1.00800           0
     58660 TIP3     16248    TIP3     H2       HT       0.417000       1.00800           0
     58661 TIP3     16249    TIP3     OH2      OT      -0.834000       15.9994           0
     58662 TIP3     16249    TIP3     H1       HT       0.417000       1.00800           0
     58663 TIP3     16249    TIP3     H2       HT       0.417000       1.00800           0
     58664 TIP3     16250    TIP3     OH2      OT      -0.834000       15.9994           0
     58665 TIP3     16250    TIP3     H1       HT       0.417000       1.00800           0
     58666 TIP3     16250    TIP3     H2       HT       0.417000       1.00800           0
     58667 TIP3     16251    TIP3     OH2      OT      -0.834000       15.9994           0
     58668 TIP3     16251    TIP3     H1       HT       0.417000       1.00800           0
     58669 TIP3     16251    TIP3     H2       HT       0.417000       1.00800           0
     58670 TIP3     16252    TIP3     OH2      OT      -0.834000       15.9994           0
     58671 TIP3     16252    TIP3     H1       HT       0.417000       1.00800           0
     58672 TIP3     16252    TIP3     H2       HT       0.417000       1.00800           0
     58673 TIP3     16253    TIP3     OH2      OT      -0.834000       15.9994           0
     58674 TIP3     16253    TIP3     H1       HT       0.417000       1.00800           0
     58675 TIP3     16253    TIP3     H2       HT       0.417000       1.00800           0
     58676 TIP3     16254    TIP3     OH2      OT      -0.834000       15.9994           0
     58677 TIP3     16254    TIP3     H1       HT       0.417000       1.00800           0
     58678 TIP3     16254    TIP3     H2       HT       0.417000       1.00800           0
     58679 TIP3     16255    TIP3     OH2      OT      -0.834000       15.9994           0
     58680 TIP3     16255    TIP3     H1       HT       0.417000       1.00800           0
     58681 TIP3     16255    TIP3     H2       HT       0.417000       1.00800           0
     58682 TIP3     16256    TIP3     OH2      OT      -0.834000       15.9994           0
     58683 TIP3     16256    TIP3     H1       HT       0.417000       1.00800           0
     58684 TIP3     16256    TIP3     H2       HT       0.417000       1.00800           0
     58685 TIP3     16257    TIP3     OH2      OT      -0.834000       15.9994           0
     58686 TIP3     16257    TIP3     H1       HT       0.417000       1.00800           0
     58687 TIP3     16257    TIP3     H2       HT       0.417000       1.00800           0
     58688 TIP3     16258    TIP3     OH2      OT      -0.834000       15.9994           0
     58689 TIP3     16258    TIP3     H1       HT       0.417000       1.00800           0
     58690 TIP3     16258    TIP3     H2       HT       0.417000       1.00800           0
     58691 TIP3     16259    TIP3     OH2      OT      -0.834000       15.9994           0
     58692 TIP3     16259    TIP3     H1       HT       0.417000       1.00800           0
     58693 TIP3     16259    TIP3     H2       HT       0.417000       1.00800           0
     58694 TIP3     16260    TIP3     OH2      OT      -0.834000       15.9994           0
     58695 TIP3     16260    TIP3     H1       HT       0.417000       1.00800           0
     58696 TIP3     16260    TIP3     H2       HT       0.417000       1.00800           0
     58697 TIP3     16261    TIP3     OH2      OT      -0.834000       15.9994           0
     58698 TIP3     16261    TIP3     H1       HT       0.417000       1.00800           0
     58699 TIP3     16261    TIP3     H2       HT       0.417000       1.00800           0
     58700 TIP3     16262    TIP3     OH2      OT      -0.834000       15.9994           0
     58701 TIP3     16262    TIP3     H1       HT       0.417000       1.00800           0
     58702 TIP3     16262    TIP3     H2       HT       0.417000       1.00800           0
     58703 TIP3     16263    TIP3     OH2      OT      -0.834000       15.9994           0
     58704 TIP3     16263    TIP3     H1       HT       0.417000       1.00800           0
     58705 TIP3     16263    TIP3     H2       HT       0.417000       1.00800           0
     58706 TIP3     16264    TIP3     OH2      OT      -0.834000       15.9994           0
     58707 TIP3     16264    TIP3     H1       HT       0.417000       1.00800           0
     58708 TIP3     16264    TIP3     H2       HT       0.417000       1.00800           0
     58709 TIP3     16265    TIP3     OH2      OT      -0.834000       15.9994           0
     58710 TIP3     16265    TIP3     H1       HT       0.417000       1.00800           0
     58711 TIP3     16265    TIP3     H2       HT       0.417000       1.00800           0
     58712 TIP3     16266    TIP3     OH2      OT      -0.834000       15.9994           0
     58713 TIP3     16266    TIP3     H1       HT       0.417000       1.00800           0
     58714 TIP3     16266    TIP3     H2       HT       0.417000       1.00800           0
     58715 TIP3     16267    TIP3     OH2      OT      -0.834000       15.9994           0
     58716 TIP3     16267    TIP3     H1       HT       0.417000       1.00800           0
     58717 TIP3     16267    TIP3     H2       HT       0.417000       1.00800           0
     58718 TIP3     16268    TIP3     OH2      OT      -0.834000       15.9994           0
     58719 TIP3     16268    TIP3     H1       HT       0.417000       1.00800           0
     58720 TIP3     16268    TIP3     H2       HT       0.417000       1.00800           0
     58721 TIP3     16269    TIP3     OH2      OT      -0.834000       15.9994           0
     58722 TIP3     16269    TIP3     H1       HT       0.417000       1.00800           0
     58723 TIP3     16269    TIP3     H2       HT       0.417000       1.00800           0
     58724 TIP3     16270    TIP3     OH2      OT      -0.834000       15.9994           0
     58725 TIP3     16270    TIP3     H1       HT       0.417000       1.00800           0
     58726 TIP3     16270    TIP3     H2       HT       0.417000       1.00800           0
     58727 TIP3     16271    TIP3     OH2      OT      -0.834000       15.9994           0
     58728 TIP3     16271    TIP3     H1       HT       0.417000       1.00800           0
     58729 TIP3     16271    TIP3     H2       HT       0.417000       1.00800           0
     58730 TIP3     16272    TIP3     OH2      OT      -0.834000       15.9994           0
     58731 TIP3     16272    TIP3     H1       HT       0.417000       1.00800           0
     58732 TIP3     16272    TIP3     H2       HT       0.417000       1.00800           0
     58733 TIP3     16273    TIP3     OH2      OT      -0.834000       15.9994           0
     58734 TIP3     16273    TIP3     H1       HT       0.417000       1.00800           0
     58735 TIP3     16273    TIP3     H2       HT       0.417000       1.00800           0
     58736 TIP3     16274    TIP3     OH2      OT      -0.834000       15.9994           0
     58737 TIP3     16274    TIP3     H1       HT       0.417000       1.00800           0
     58738 TIP3     16274    TIP3     H2       HT       0.417000       1.00800           0
     58739 TIP3     16275    TIP3     OH2      OT      -0.834000       15.9994           0
     58740 TIP3     16275    TIP3     H1       HT       0.417000       1.00800           0
     58741 TIP3     16275    TIP3     H2       HT       0.417000       1.00800           0
     58742 TIP3     16276    TIP3     OH2      OT      -0.834000       15.9994           0
     58743 TIP3     16276    TIP3     H1       HT       0.417000       1.00800           0
     58744 TIP3     16276    TIP3     H2       HT       0.417000       1.00800           0
     58745 TIP3     16277    TIP3     OH2      OT      -0.834000       15.9994           0
     58746 TIP3     16277    TIP3     H1       HT       0.417000       1.00800           0
     58747 TIP3     16277    TIP3     H2       HT       0.417000       1.00800           0
     58748 TIP3     16278    TIP3     OH2      OT      -0.834000       15.9994           0
     58749 TIP3     16278    TIP3     H1       HT       0.417000       1.00800           0
     58750 TIP3     16278    TIP3     H2       HT       0.417000       1.00800           0
     58751 TIP3     16279    TIP3     OH2      OT      -0.834000       15.9994           0
     58752 TIP3     16279    TIP3     H1       HT       0.417000       1.00800           0
     58753 TIP3     16279    TIP3     H2       HT       0.417000       1.00800           0
     58754 TIP3     16280    TIP3     OH2      OT      -0.834000       15.9994           0
     58755 TIP3     16280    TIP3     H1       HT       0.417000       1.00800           0
     58756 TIP3     16280    TIP3     H2       HT       0.417000       1.00800           0
     58757 TIP3     16281    TIP3     OH2      OT      -0.834000       15.9994           0
     58758 TIP3     16281    TIP3     H1       HT       0.417000       1.00800           0
     58759 TIP3     16281    TIP3     H2       HT       0.417000       1.00800           0
     58760 TIP3     16282    TIP3     OH2      OT      -0.834000       15.9994           0
     58761 TIP3     16282    TIP3     H1       HT       0.417000       1.00800           0
     58762 TIP3     16282    TIP3     H2       HT       0.417000       1.00800           0
     58763 TIP3     16283    TIP3     OH2      OT      -0.834000       15.9994           0
     58764 TIP3     16283    TIP3     H1       HT       0.417000       1.00800           0
     58765 TIP3     16283    TIP3     H2       HT       0.417000       1.00800           0
     58766 TIP3     16284    TIP3     OH2      OT      -0.834000       15.9994           0
     58767 TIP3     16284    TIP3     H1       HT       0.417000       1.00800           0
     58768 TIP3     16284    TIP3     H2       HT       0.417000       1.00800           0
     58769 TIP3     16285    TIP3     OH2      OT      -0.834000       15.9994           0
     58770 TIP3     16285    TIP3     H1       HT       0.417000       1.00800           0
     58771 TIP3     16285    TIP3     H2       HT       0.417000       1.00800           0
     58772 TIP3     16286    TIP3     OH2      OT      -0.834000       15.9994           0
     58773 TIP3     16286    TIP3     H1       HT       0.417000       1.00800           0
     58774 TIP3     16286    TIP3     H2       HT       0.417000       1.00800           0
     58775 TIP3     16287    TIP3     OH2      OT      -0.834000       15.9994           0
     58776 TIP3     16287    TIP3     H1       HT       0.417000       1.00800           0
     58777 TIP3     16287    TIP3     H2       HT       0.417000       1.00800           0
     58778 TIP3     16288    TIP3     OH2      OT      -0.834000       15.9994           0
     58779 TIP3     16288    TIP3     H1       HT       0.417000       1.00800           0
     58780 TIP3     16288    TIP3     H2       HT       0.417000       1.00800           0
     58781 TIP3     16289    TIP3     OH2      OT      -0.834000       15.9994           0
     58782 TIP3     16289    TIP3     H1       HT       0.417000       1.00800           0
     58783 TIP3     16289    TIP3     H2       HT       0.417000       1.00800           0
     58784 TIP3     16290    TIP3     OH2      OT      -0.834000       15.9994           0
     58785 TIP3     16290    TIP3     H1       HT       0.417000       1.00800           0
     58786 TIP3     16290    TIP3     H2       HT       0.417000       1.00800           0
     58787 TIP3     16291    TIP3     OH2      OT      -0.834000       15.9994           0
     58788 TIP3     16291    TIP3     H1       HT       0.417000       1.00800           0
     58789 TIP3     16291    TIP3     H2       HT       0.417000       1.00800           0
     58790 TIP3     16292    TIP3     OH2      OT      -0.834000       15.9994           0
     58791 TIP3     16292    TIP3     H1       HT       0.417000       1.00800           0
     58792 TIP3     16292    TIP3     H2       HT       0.417000       1.00800           0
     58793 TIP3     16293    TIP3     OH2      OT      -0.834000       15.9994           0
     58794 TIP3     16293    TIP3     H1       HT       0.417000       1.00800           0
     58795 TIP3     16293    TIP3     H2       HT       0.417000       1.00800           0
     58796 TIP3     16294    TIP3     OH2      OT      -0.834000       15.9994           0
     58797 TIP3     16294    TIP3     H1       HT       0.417000       1.00800           0
     58798 TIP3     16294    TIP3     H2       HT       0.417000       1.00800           0
     58799 TIP3     16295    TIP3     OH2      OT      -0.834000       15.9994           0
     58800 TIP3     16295    TIP3     H1       HT       0.417000       1.00800           0
     58801 TIP3     16295    TIP3     H2       HT       0.417000       1.00800           0
     58802 TIP3     16296    TIP3     OH2      OT      -0.834000       15.9994           0
     58803 TIP3     16296    TIP3     H1       HT       0.417000       1.00800           0
     58804 TIP3     16296    TIP3     H2       HT       0.417000       1.00800           0
     58805 TIP3     16297    TIP3     OH2      OT      -0.834000       15.9994           0
     58806 TIP3     16297    TIP3     H1       HT       0.417000       1.00800           0
     58807 TIP3     16297    TIP3     H2       HT       0.417000       1.00800           0
     58808 TIP3     16298    TIP3     OH2      OT      -0.834000       15.9994           0
     58809 TIP3     16298    TIP3     H1       HT       0.417000       1.00800           0
     58810 TIP3     16298    TIP3     H2       HT       0.417000       1.00800           0
     58811 TIP3     16299    TIP3     OH2      OT      -0.834000       15.9994           0
     58812 TIP3     16299    TIP3     H1       HT       0.417000       1.00800           0
     58813 TIP3     16299    TIP3     H2       HT       0.417000       1.00800           0
     58814 TIP3     16300    TIP3     OH2      OT      -0.834000       15.9994           0
     58815 TIP3     16300    TIP3     H1       HT       0.417000       1.00800           0
     58816 TIP3     16300    TIP3     H2       HT       0.417000       1.00800           0
     58817 TIP3     16301    TIP3     OH2      OT      -0.834000       15.9994           0
     58818 TIP3     16301    TIP3     H1       HT       0.417000       1.00800           0
     58819 TIP3     16301    TIP3     H2       HT       0.417000       1.00800           0
     58820 TIP3     16302    TIP3     OH2      OT      -0.834000       15.9994           0
     58821 TIP3     16302    TIP3     H1       HT       0.417000       1.00800           0
     58822 TIP3     16302    TIP3     H2       HT       0.417000       1.00800           0
     58823 TIP3     16303    TIP3     OH2      OT      -0.834000       15.9994           0
     58824 TIP3     16303    TIP3     H1       HT       0.417000       1.00800           0
     58825 TIP3     16303    TIP3     H2       HT       0.417000       1.00800           0
     58826 TIP3     16304    TIP3     OH2      OT      -0.834000       15.9994           0
     58827 TIP3     16304    TIP3     H1       HT       0.417000       1.00800           0
     58828 TIP3     16304    TIP3     H2       HT       0.417000       1.00800           0
     58829 TIP3     16305    TIP3     OH2      OT      -0.834000       15.9994           0
     58830 TIP3     16305    TIP3     H1       HT       0.417000       1.00800           0
     58831 TIP3     16305    TIP3     H2       HT       0.417000       1.00800           0
     58832 TIP3     16306    TIP3     OH2      OT      -0.834000       15.9994           0
     58833 TIP3     16306    TIP3     H1       HT       0.417000       1.00800           0
     58834 TIP3     16306    TIP3     H2       HT       0.417000       1.00800           0
     58835 TIP3     16307    TIP3     OH2      OT      -0.834000       15.9994           0
     58836 TIP3     16307    TIP3     H1       HT       0.417000       1.00800           0
     58837 TIP3     16307    TIP3     H2       HT       0.417000       1.00800           0
     58838 TIP3     16308    TIP3     OH2      OT      -0.834000       15.9994           0
     58839 TIP3     16308    TIP3     H1       HT       0.417000       1.00800           0
     58840 TIP3     16308    TIP3     H2       HT       0.417000       1.00800           0
     58841 TIP3     16309    TIP3     OH2      OT      -0.834000       15.9994           0
     58842 TIP3     16309    TIP3     H1       HT       0.417000       1.00800           0
     58843 TIP3     16309    TIP3     H2       HT       0.417000       1.00800           0
     58844 TIP3     16310    TIP3     OH2      OT      -0.834000       15.9994           0
     58845 TIP3     16310    TIP3     H1       HT       0.417000       1.00800           0
     58846 TIP3     16310    TIP3     H2       HT       0.417000       1.00800           0
     58847 TIP3     16311    TIP3     OH2      OT      -0.834000       15.9994           0
     58848 TIP3     16311    TIP3     H1       HT       0.417000       1.00800           0
     58849 TIP3     16311    TIP3     H2       HT       0.417000       1.00800           0
     58850 TIP3     16312    TIP3     OH2      OT      -0.834000       15.9994           0
     58851 TIP3     16312    TIP3     H1       HT       0.417000       1.00800           0
     58852 TIP3     16312    TIP3     H2       HT       0.417000       1.00800           0
     58853 TIP3     16313    TIP3     OH2      OT      -0.834000       15.9994           0
     58854 TIP3     16313    TIP3     H1       HT       0.417000       1.00800           0
     58855 TIP3     16313    TIP3     H2       HT       0.417000       1.00800           0
     58856 TIP3     16314    TIP3     OH2      OT      -0.834000       15.9994           0
     58857 TIP3     16314    TIP3     H1       HT       0.417000       1.00800           0
     58858 TIP3     16314    TIP3     H2       HT       0.417000       1.00800           0
     58859 TIP3     16315    TIP3     OH2      OT      -0.834000       15.9994           0
     58860 TIP3     16315    TIP3     H1       HT       0.417000       1.00800           0
     58861 TIP3     16315    TIP3     H2       HT       0.417000       1.00800           0
     58862 TIP3     16316    TIP3     OH2      OT      -0.834000       15.9994           0
     58863 TIP3     16316    TIP3     H1       HT       0.417000       1.00800           0
     58864 TIP3     16316    TIP3     H2       HT       0.417000       1.00800           0
     58865 TIP3     16317    TIP3     OH2      OT      -0.834000       15.9994           0
     58866 TIP3     16317    TIP3     H1       HT       0.417000       1.00800           0
     58867 TIP3     16317    TIP3     H2       HT       0.417000       1.00800           0
     58868 TIP3     16318    TIP3     OH2      OT      -0.834000       15.9994           0
     58869 TIP3     16318    TIP3     H1       HT       0.417000       1.00800           0
     58870 TIP3     16318    TIP3     H2       HT       0.417000       1.00800           0
     58871 TIP3     16319    TIP3     OH2      OT      -0.834000       15.9994           0
     58872 TIP3     16319    TIP3     H1       HT       0.417000       1.00800           0
     58873 TIP3     16319    TIP3     H2       HT       0.417000       1.00800           0
     58874 TIP3     16320    TIP3     OH2      OT      -0.834000       15.9994           0
     58875 TIP3     16320    TIP3     H1       HT       0.417000       1.00800           0
     58876 TIP3     16320    TIP3     H2       HT       0.417000       1.00800           0
     58877 TIP3     16321    TIP3     OH2      OT      -0.834000       15.9994           0
     58878 TIP3     16321    TIP3     H1       HT       0.417000       1.00800           0
     58879 TIP3     16321    TIP3     H2       HT       0.417000       1.00800           0
     58880 TIP3     16322    TIP3     OH2      OT      -0.834000       15.9994           0
     58881 TIP3     16322    TIP3     H1       HT       0.417000       1.00800           0
     58882 TIP3     16322    TIP3     H2       HT       0.417000       1.00800           0
     58883 TIP3     16323    TIP3     OH2      OT      -0.834000       15.9994           0
     58884 TIP3     16323    TIP3     H1       HT       0.417000       1.00800           0
     58885 TIP3     16323    TIP3     H2       HT       0.417000       1.00800           0
     58886 TIP3     16324    TIP3     OH2      OT      -0.834000       15.9994           0
     58887 TIP3     16324    TIP3     H1       HT       0.417000       1.00800           0
     58888 TIP3     16324    TIP3     H2       HT       0.417000       1.00800           0
     58889 TIP3     16325    TIP3     OH2      OT      -0.834000       15.9994           0
     58890 TIP3     16325    TIP3     H1       HT       0.417000       1.00800           0
     58891 TIP3     16325    TIP3     H2       HT       0.417000       1.00800           0
     58892 TIP3     16326    TIP3     OH2      OT      -0.834000       15.9994           0
     58893 TIP3     16326    TIP3     H1       HT       0.417000       1.00800           0
     58894 TIP3     16326    TIP3     H2       HT       0.417000       1.00800           0
     58895 TIP3     16327    TIP3     OH2      OT      -0.834000       15.9994           0
     58896 TIP3     16327    TIP3     H1       HT       0.417000       1.00800           0
     58897 TIP3     16327    TIP3     H2       HT       0.417000       1.00800           0
     58898 TIP3     16328    TIP3     OH2      OT      -0.834000       15.9994           0
     58899 TIP3     16328    TIP3     H1       HT       0.417000       1.00800           0
     58900 TIP3     16328    TIP3     H2       HT       0.417000       1.00800           0
     58901 TIP3     16329    TIP3     OH2      OT      -0.834000       15.9994           0
     58902 TIP3     16329    TIP3     H1       HT       0.417000       1.00800           0
     58903 TIP3     16329    TIP3     H2       HT       0.417000       1.00800           0
     58904 TIP3     16330    TIP3     OH2      OT      -0.834000       15.9994           0
     58905 TIP3     16330    TIP3     H1       HT       0.417000       1.00800           0
     58906 TIP3     16330    TIP3     H2       HT       0.417000       1.00800           0
     58907 TIP3     16331    TIP3     OH2      OT      -0.834000       15.9994           0
     58908 TIP3     16331    TIP3     H1       HT       0.417000       1.00800           0
     58909 TIP3     16331    TIP3     H2       HT       0.417000       1.00800           0
     58910 TIP3     16332    TIP3     OH2      OT      -0.834000       15.9994           0
     58911 TIP3     16332    TIP3     H1       HT       0.417000       1.00800           0
     58912 TIP3     16332    TIP3     H2       HT       0.417000       1.00800           0
     58913 TIP3     16333    TIP3     OH2      OT      -0.834000       15.9994           0
     58914 TIP3     16333    TIP3     H1       HT       0.417000       1.00800           0
     58915 TIP3     16333    TIP3     H2       HT       0.417000       1.00800           0
     58916 TIP3     16334    TIP3     OH2      OT      -0.834000       15.9994           0
     58917 TIP3     16334    TIP3     H1       HT       0.417000       1.00800           0
     58918 TIP3     16334    TIP3     H2       HT       0.417000       1.00800           0
     58919 TIP3     16335    TIP3     OH2      OT      -0.834000       15.9994           0
     58920 TIP3     16335    TIP3     H1       HT       0.417000       1.00800           0
     58921 TIP3     16335    TIP3     H2       HT       0.417000       1.00800           0
     58922 TIP3     16336    TIP3     OH2      OT      -0.834000       15.9994           0
     58923 TIP3     16336    TIP3     H1       HT       0.417000       1.00800           0
     58924 TIP3     16336    TIP3     H2       HT       0.417000       1.00800           0
     58925 TIP3     16337    TIP3     OH2      OT      -0.834000       15.9994           0
     58926 TIP3     16337    TIP3     H1       HT       0.417000       1.00800           0
     58927 TIP3     16337    TIP3     H2       HT       0.417000       1.00800           0
     58928 TIP3     16338    TIP3     OH2      OT      -0.834000       15.9994           0
     58929 TIP3     16338    TIP3     H1       HT       0.417000       1.00800           0
     58930 TIP3     16338    TIP3     H2       HT       0.417000       1.00800           0
     58931 TIP3     16339    TIP3     OH2      OT      -0.834000       15.9994           0
     58932 TIP3     16339    TIP3     H1       HT       0.417000       1.00800           0
     58933 TIP3     16339    TIP3     H2       HT       0.417000       1.00800           0
     58934 TIP3     16340    TIP3     OH2      OT      -0.834000       15.9994           0
     58935 TIP3     16340    TIP3     H1       HT       0.417000       1.00800           0
     58936 TIP3     16340    TIP3     H2       HT       0.417000       1.00800           0
     58937 TIP3     16341    TIP3     OH2      OT      -0.834000       15.9994           0
     58938 TIP3     16341    TIP3     H1       HT       0.417000       1.00800           0
     58939 TIP3     16341    TIP3     H2       HT       0.417000       1.00800           0
     58940 TIP3     16342    TIP3     OH2      OT      -0.834000       15.9994           0
     58941 TIP3     16342    TIP3     H1       HT       0.417000       1.00800           0
     58942 TIP3     16342    TIP3     H2       HT       0.417000       1.00800           0
     58943 TIP3     16343    TIP3     OH2      OT      -0.834000       15.9994           0
     58944 TIP3     16343    TIP3     H1       HT       0.417000       1.00800           0
     58945 TIP3     16343    TIP3     H2       HT       0.417000       1.00800           0
     58946 TIP3     16344    TIP3     OH2      OT      -0.834000       15.9994           0
     58947 TIP3     16344    TIP3     H1       HT       0.417000       1.00800           0
     58948 TIP3     16344    TIP3     H2       HT       0.417000       1.00800           0
     58949 TIP3     16345    TIP3     OH2      OT      -0.834000       15.9994           0
     58950 TIP3     16345    TIP3     H1       HT       0.417000       1.00800           0
     58951 TIP3     16345    TIP3     H2       HT       0.417000       1.00800           0
     58952 TIP3     16346    TIP3     OH2      OT      -0.834000       15.9994           0
     58953 TIP3     16346    TIP3     H1       HT       0.417000       1.00800           0
     58954 TIP3     16346    TIP3     H2       HT       0.417000       1.00800           0
     58955 TIP3     16347    TIP3     OH2      OT      -0.834000       15.9994           0
     58956 TIP3     16347    TIP3     H1       HT       0.417000       1.00800           0
     58957 TIP3     16347    TIP3     H2       HT       0.417000       1.00800           0
     58958 TIP3     16348    TIP3     OH2      OT      -0.834000       15.9994           0
     58959 TIP3     16348    TIP3     H1       HT       0.417000       1.00800           0
     58960 TIP3     16348    TIP3     H2       HT       0.417000       1.00800           0
     58961 TIP3     16349    TIP3     OH2      OT      -0.834000       15.9994           0
     58962 TIP3     16349    TIP3     H1       HT       0.417000       1.00800           0
     58963 TIP3     16349    TIP3     H2       HT       0.417000       1.00800           0
     58964 TIP3     16350    TIP3     OH2      OT      -0.834000       15.9994           0
     58965 TIP3     16350    TIP3     H1       HT       0.417000       1.00800           0
     58966 TIP3     16350    TIP3     H2       HT       0.417000       1.00800           0
     58967 TIP3     16351    TIP3     OH2      OT      -0.834000       15.9994           0
     58968 TIP3     16351    TIP3     H1       HT       0.417000       1.00800           0
     58969 TIP3     16351    TIP3     H2       HT       0.417000       1.00800           0
     58970 TIP3     16352    TIP3     OH2      OT      -0.834000       15.9994           0
     58971 TIP3     16352    TIP3     H1       HT       0.417000       1.00800           0
     58972 TIP3     16352    TIP3     H2       HT       0.417000       1.00800           0
     58973 TIP3     16353    TIP3     OH2      OT      -0.834000       15.9994           0
     58974 TIP3     16353    TIP3     H1       HT       0.417000       1.00800           0
     58975 TIP3     16353    TIP3     H2       HT       0.417000       1.00800           0
     58976 TIP3     16354    TIP3     OH2      OT      -0.834000       15.9994           0
     58977 TIP3     16354    TIP3     H1       HT       0.417000       1.00800           0
     58978 TIP3     16354    TIP3     H2       HT       0.417000       1.00800           0
     58979 TIP3     16355    TIP3     OH2      OT      -0.834000       15.9994           0
     58980 TIP3     16355    TIP3     H1       HT       0.417000       1.00800           0
     58981 TIP3     16355    TIP3     H2       HT       0.417000       1.00800           0
     58982 TIP3     16356    TIP3     OH2      OT      -0.834000       15.9994           0
     58983 TIP3     16356    TIP3     H1       HT       0.417000       1.00800           0
     58984 TIP3     16356    TIP3     H2       HT       0.417000       1.00800           0
     58985 TIP3     16357    TIP3     OH2      OT      -0.834000       15.9994           0
     58986 TIP3     16357    TIP3     H1       HT       0.417000       1.00800           0
     58987 TIP3     16357    TIP3     H2       HT       0.417000       1.00800           0
     58988 TIP3     16358    TIP3     OH2      OT      -0.834000       15.9994           0
     58989 TIP3     16358    TIP3     H1       HT       0.417000       1.00800           0
     58990 TIP3     16358    TIP3     H2       HT       0.417000       1.00800           0
     58991 TIP3     16359    TIP3     OH2      OT      -0.834000       15.9994           0
     58992 TIP3     16359    TIP3     H1       HT       0.417000       1.00800           0
     58993 TIP3     16359    TIP3     H2       HT       0.417000       1.00800           0
     58994 TIP3     16360    TIP3     OH2      OT      -0.834000       15.9994           0
     58995 TIP3     16360    TIP3     H1       HT       0.417000       1.00800           0
     58996 TIP3     16360    TIP3     H2       HT       0.417000       1.00800           0
     58997 TIP3     16361    TIP3     OH2      OT      -0.834000       15.9994           0
     58998 TIP3     16361    TIP3     H1       HT       0.417000       1.00800           0
     58999 TIP3     16361    TIP3     H2       HT       0.417000       1.00800           0
     59000 TIP3     16362    TIP3     OH2      OT      -0.834000       15.9994           0
     59001 TIP3     16362    TIP3     H1       HT       0.417000       1.00800           0
     59002 TIP3     16362    TIP3     H2       HT       0.417000       1.00800           0
     59003 TIP3     16363    TIP3     OH2      OT      -0.834000       15.9994           0
     59004 TIP3     16363    TIP3     H1       HT       0.417000       1.00800           0
     59005 TIP3     16363    TIP3     H2       HT       0.417000       1.00800           0
     59006 TIP3     16364    TIP3     OH2      OT      -0.834000       15.9994           0
     59007 TIP3     16364    TIP3     H1       HT       0.417000       1.00800           0
     59008 TIP3     16364    TIP3     H2       HT       0.417000       1.00800           0
     59009 TIP3     16365    TIP3     OH2      OT      -0.834000       15.9994           0
     59010 TIP3     16365    TIP3     H1       HT       0.417000       1.00800           0
     59011 TIP3     16365    TIP3     H2       HT       0.417000       1.00800           0
     59012 TIP3     16366    TIP3     OH2      OT      -0.834000       15.9994           0
     59013 TIP3     16366    TIP3     H1       HT       0.417000       1.00800           0
     59014 TIP3     16366    TIP3     H2       HT       0.417000       1.00800           0
     59015 TIP3     16367    TIP3     OH2      OT      -0.834000       15.9994           0
     59016 TIP3     16367    TIP3     H1       HT       0.417000       1.00800           0
     59017 TIP3     16367    TIP3     H2       HT       0.417000       1.00800           0
     59018 TIP3     16368    TIP3     OH2      OT      -0.834000       15.9994           0
     59019 TIP3     16368    TIP3     H1       HT       0.417000       1.00800           0
     59020 TIP3     16368    TIP3     H2       HT       0.417000       1.00800           0
     59021 TIP3     16369    TIP3     OH2      OT      -0.834000       15.9994           0
     59022 TIP3     16369    TIP3     H1       HT       0.417000       1.00800           0
     59023 TIP3     16369    TIP3     H2       HT       0.417000       1.00800           0
     59024 TIP3     16370    TIP3     OH2      OT      -0.834000       15.9994           0
     59025 TIP3     16370    TIP3     H1       HT       0.417000       1.00800           0
     59026 TIP3     16370    TIP3     H2       HT       0.417000       1.00800           0
     59027 TIP3     16371    TIP3     OH2      OT      -0.834000       15.9994           0
     59028 TIP3     16371    TIP3     H1       HT       0.417000       1.00800           0
     59029 TIP3     16371    TIP3     H2       HT       0.417000       1.00800           0
     59030 TIP3     16372    TIP3     OH2      OT      -0.834000       15.9994           0
     59031 TIP3     16372    TIP3     H1       HT       0.417000       1.00800           0
     59032 TIP3     16372    TIP3     H2       HT       0.417000       1.00800           0
     59033 TIP3     16373    TIP3     OH2      OT      -0.834000       15.9994           0
     59034 TIP3     16373    TIP3     H1       HT       0.417000       1.00800           0
     59035 TIP3     16373    TIP3     H2       HT       0.417000       1.00800           0
     59036 TIP3     16374    TIP3     OH2      OT      -0.834000       15.9994           0
     59037 TIP3     16374    TIP3     H1       HT       0.417000       1.00800           0
     59038 TIP3     16374    TIP3     H2       HT       0.417000       1.00800           0
     59039 TIP3     16375    TIP3     OH2      OT      -0.834000       15.9994           0
     59040 TIP3     16375    TIP3     H1       HT       0.417000       1.00800           0
     59041 TIP3     16375    TIP3     H2       HT       0.417000       1.00800           0
     59042 TIP3     16376    TIP3     OH2      OT      -0.834000       15.9994           0
     59043 TIP3     16376    TIP3     H1       HT       0.417000       1.00800           0
     59044 TIP3     16376    TIP3     H2       HT       0.417000       1.00800           0
     59045 TIP3     16377    TIP3     OH2      OT      -0.834000       15.9994           0
     59046 TIP3     16377    TIP3     H1       HT       0.417000       1.00800           0
     59047 TIP3     16377    TIP3     H2       HT       0.417000       1.00800           0
     59048 TIP3     16378    TIP3     OH2      OT      -0.834000       15.9994           0
     59049 TIP3     16378    TIP3     H1       HT       0.417000       1.00800           0
     59050 TIP3     16378    TIP3     H2       HT       0.417000       1.00800           0
     59051 TIP3     16379    TIP3     OH2      OT      -0.834000       15.9994           0
     59052 TIP3     16379    TIP3     H1       HT       0.417000       1.00800           0
     59053 TIP3     16379    TIP3     H2       HT       0.417000       1.00800           0
     59054 TIP3     16380    TIP3     OH2      OT      -0.834000       15.9994           0
     59055 TIP3     16380    TIP3     H1       HT       0.417000       1.00800           0
     59056 TIP3     16380    TIP3     H2       HT       0.417000       1.00800           0
     59057 TIP3     16381    TIP3     OH2      OT      -0.834000       15.9994           0
     59058 TIP3     16381    TIP3     H1       HT       0.417000       1.00800           0
     59059 TIP3     16381    TIP3     H2       HT       0.417000       1.00800           0
     59060 TIP3     16382    TIP3     OH2      OT      -0.834000       15.9994           0
     59061 TIP3     16382    TIP3     H1       HT       0.417000       1.00800           0
     59062 TIP3     16382    TIP3     H2       HT       0.417000       1.00800           0
     59063 TIP3     16383    TIP3     OH2      OT      -0.834000       15.9994           0
     59064 TIP3     16383    TIP3     H1       HT       0.417000       1.00800           0
     59065 TIP3     16383    TIP3     H2       HT       0.417000       1.00800           0
     59066 TIP3     16384    TIP3     OH2      OT      -0.834000       15.9994           0
     59067 TIP3     16384    TIP3     H1       HT       0.417000       1.00800           0
     59068 TIP3     16384    TIP3     H2       HT       0.417000       1.00800           0
     59069 TIP3     16385    TIP3     OH2      OT      -0.834000       15.9994           0
     59070 TIP3     16385    TIP3     H1       HT       0.417000       1.00800           0
     59071 TIP3     16385    TIP3     H2       HT       0.417000       1.00800           0
     59072 TIP3     16386    TIP3     OH2      OT      -0.834000       15.9994           0
     59073 TIP3     16386    TIP3     H1       HT       0.417000       1.00800           0
     59074 TIP3     16386    TIP3     H2       HT       0.417000       1.00800           0
     59075 TIP3     16387    TIP3     OH2      OT      -0.834000       15.9994           0
     59076 TIP3     16387    TIP3     H1       HT       0.417000       1.00800           0
     59077 TIP3     16387    TIP3     H2       HT       0.417000       1.00800           0
     59078 TIP3     16388    TIP3     OH2      OT      -0.834000       15.9994           0
     59079 TIP3     16388    TIP3     H1       HT       0.417000       1.00800           0
     59080 TIP3     16388    TIP3     H2       HT       0.417000       1.00800           0
     59081 TIP3     16389    TIP3     OH2      OT      -0.834000       15.9994           0
     59082 TIP3     16389    TIP3     H1       HT       0.417000       1.00800           0
     59083 TIP3     16389    TIP3     H2       HT       0.417000       1.00800           0
     59084 TIP3     16390    TIP3     OH2      OT      -0.834000       15.9994           0
     59085 TIP3     16390    TIP3     H1       HT       0.417000       1.00800           0
     59086 TIP3     16390    TIP3     H2       HT       0.417000       1.00800           0
     59087 TIP3     16391    TIP3     OH2      OT      -0.834000       15.9994           0
     59088 TIP3     16391    TIP3     H1       HT       0.417000       1.00800           0
     59089 TIP3     16391    TIP3     H2       HT       0.417000       1.00800           0
     59090 TIP3     16392    TIP3     OH2      OT      -0.834000       15.9994           0
     59091 TIP3     16392    TIP3     H1       HT       0.417000       1.00800           0
     59092 TIP3     16392    TIP3     H2       HT       0.417000       1.00800           0
     59093 TIP3     16393    TIP3     OH2      OT      -0.834000       15.9994           0
     59094 TIP3     16393    TIP3     H1       HT       0.417000       1.00800           0
     59095 TIP3     16393    TIP3     H2       HT       0.417000       1.00800           0
     59096 TIP3     16394    TIP3     OH2      OT      -0.834000       15.9994           0
     59097 TIP3     16394    TIP3     H1       HT       0.417000       1.00800           0
     59098 TIP3     16394    TIP3     H2       HT       0.417000       1.00800           0
     59099 TIP3     16395    TIP3     OH2      OT      -0.834000       15.9994           0
     59100 TIP3     16395    TIP3     H1       HT       0.417000       1.00800           0
     59101 TIP3     16395    TIP3     H2       HT       0.417000       1.00800           0
     59102 TIP3     16396    TIP3     OH2      OT      -0.834000       15.9994           0
     59103 TIP3     16396    TIP3     H1       HT       0.417000       1.00800           0
     59104 TIP3     16396    TIP3     H2       HT       0.417000       1.00800           0
     59105 TIP3     16397    TIP3     OH2      OT      -0.834000       15.9994           0
     59106 TIP3     16397    TIP3     H1       HT       0.417000       1.00800           0
     59107 TIP3     16397    TIP3     H2       HT       0.417000       1.00800           0
     59108 TIP3     16398    TIP3     OH2      OT      -0.834000       15.9994           0
     59109 TIP3     16398    TIP3     H1       HT       0.417000       1.00800           0
     59110 TIP3     16398    TIP3     H2       HT       0.417000       1.00800           0
     59111 TIP3     16399    TIP3     OH2      OT      -0.834000       15.9994           0
     59112 TIP3     16399    TIP3     H1       HT       0.417000       1.00800           0
     59113 TIP3     16399    TIP3     H2       HT       0.417000       1.00800           0
     59114 TIP3     16400    TIP3     OH2      OT      -0.834000       15.9994           0
     59115 TIP3     16400    TIP3     H1       HT       0.417000       1.00800           0
     59116 TIP3     16400    TIP3     H2       HT       0.417000       1.00800           0
     59117 TIP3     16401    TIP3     OH2      OT      -0.834000       15.9994           0
     59118 TIP3     16401    TIP3     H1       HT       0.417000       1.00800           0
     59119 TIP3     16401    TIP3     H2       HT       0.417000       1.00800           0
     59120 TIP3     16402    TIP3     OH2      OT      -0.834000       15.9994           0
     59121 TIP3     16402    TIP3     H1       HT       0.417000       1.00800           0
     59122 TIP3     16402    TIP3     H2       HT       0.417000       1.00800           0
     59123 TIP3     16403    TIP3     OH2      OT      -0.834000       15.9994           0
     59124 TIP3     16403    TIP3     H1       HT       0.417000       1.00800           0
     59125 TIP3     16403    TIP3     H2       HT       0.417000       1.00800           0
     59126 TIP3     16404    TIP3     OH2      OT      -0.834000       15.9994           0
     59127 TIP3     16404    TIP3     H1       HT       0.417000       1.00800           0
     59128 TIP3     16404    TIP3     H2       HT       0.417000       1.00800           0
     59129 TIP3     16405    TIP3     OH2      OT      -0.834000       15.9994           0
     59130 TIP3     16405    TIP3     H1       HT       0.417000       1.00800           0
     59131 TIP3     16405    TIP3     H2       HT       0.417000       1.00800           0
     59132 TIP3     16406    TIP3     OH2      OT      -0.834000       15.9994           0
     59133 TIP3     16406    TIP3     H1       HT       0.417000       1.00800           0
     59134 TIP3     16406    TIP3     H2       HT       0.417000       1.00800           0
     59135 TIP3     16407    TIP3     OH2      OT      -0.834000       15.9994           0
     59136 TIP3     16407    TIP3     H1       HT       0.417000       1.00800           0
     59137 TIP3     16407    TIP3     H2       HT       0.417000       1.00800           0
     59138 TIP3     16408    TIP3     OH2      OT      -0.834000       15.9994           0
     59139 TIP3     16408    TIP3     H1       HT       0.417000       1.00800           0
     59140 TIP3     16408    TIP3     H2       HT       0.417000       1.00800           0
     59141 TIP3     16409    TIP3     OH2      OT      -0.834000       15.9994           0
     59142 TIP3     16409    TIP3     H1       HT       0.417000       1.00800           0
     59143 TIP3     16409    TIP3     H2       HT       0.417000       1.00800           0
     59144 TIP3     16410    TIP3     OH2      OT      -0.834000       15.9994           0
     59145 TIP3     16410    TIP3     H1       HT       0.417000       1.00800           0
     59146 TIP3     16410    TIP3     H2       HT       0.417000       1.00800           0
     59147 TIP3     16411    TIP3     OH2      OT      -0.834000       15.9994           0
     59148 TIP3     16411    TIP3     H1       HT       0.417000       1.00800           0
     59149 TIP3     16411    TIP3     H2       HT       0.417000       1.00800           0
     59150 TIP3     16412    TIP3     OH2      OT      -0.834000       15.9994           0
     59151 TIP3     16412    TIP3     H1       HT       0.417000       1.00800           0
     59152 TIP3     16412    TIP3     H2       HT       0.417000       1.00800           0
     59153 TIP3     16413    TIP3     OH2      OT      -0.834000       15.9994           0
     59154 TIP3     16413    TIP3     H1       HT       0.417000       1.00800           0
     59155 TIP3     16413    TIP3     H2       HT       0.417000       1.00800           0
     59156 TIP3     16414    TIP3     OH2      OT      -0.834000       15.9994           0
     59157 TIP3     16414    TIP3     H1       HT       0.417000       1.00800           0
     59158 TIP3     16414    TIP3     H2       HT       0.417000       1.00800           0
     59159 TIP3     16415    TIP3     OH2      OT      -0.834000       15.9994           0
     59160 TIP3     16415    TIP3     H1       HT       0.417000       1.00800           0
     59161 TIP3     16415    TIP3     H2       HT       0.417000       1.00800           0
     59162 TIP3     16416    TIP3     OH2      OT      -0.834000       15.9994           0
     59163 TIP3     16416    TIP3     H1       HT       0.417000       1.00800           0
     59164 TIP3     16416    TIP3     H2       HT       0.417000       1.00800           0
     59165 TIP3     16417    TIP3     OH2      OT      -0.834000       15.9994           0
     59166 TIP3     16417    TIP3     H1       HT       0.417000       1.00800           0
     59167 TIP3     16417    TIP3     H2       HT       0.417000       1.00800           0
     59168 TIP3     16418    TIP3     OH2      OT      -0.834000       15.9994           0
     59169 TIP3     16418    TIP3     H1       HT       0.417000       1.00800           0
     59170 TIP3     16418    TIP3     H2       HT       0.417000       1.00800           0
     59171 TIP3     16419    TIP3     OH2      OT      -0.834000       15.9994           0
     59172 TIP3     16419    TIP3     H1       HT       0.417000       1.00800           0
     59173 TIP3     16419    TIP3     H2       HT       0.417000       1.00800           0
     59174 TIP3     16420    TIP3     OH2      OT      -0.834000       15.9994           0
     59175 TIP3     16420    TIP3     H1       HT       0.417000       1.00800           0
     59176 TIP3     16420    TIP3     H2       HT       0.417000       1.00800           0
     59177 TIP3     16421    TIP3     OH2      OT      -0.834000       15.9994           0
     59178 TIP3     16421    TIP3     H1       HT       0.417000       1.00800           0
     59179 TIP3     16421    TIP3     H2       HT       0.417000       1.00800           0
     59180 TIP3     16422    TIP3     OH2      OT      -0.834000       15.9994           0
     59181 TIP3     16422    TIP3     H1       HT       0.417000       1.00800           0
     59182 TIP3     16422    TIP3     H2       HT       0.417000       1.00800           0
     59183 TIP3     16423    TIP3     OH2      OT      -0.834000       15.9994           0
     59184 TIP3     16423    TIP3     H1       HT       0.417000       1.00800           0
     59185 TIP3     16423    TIP3     H2       HT       0.417000       1.00800           0
     59186 TIP3     16424    TIP3     OH2      OT      -0.834000       15.9994           0
     59187 TIP3     16424    TIP3     H1       HT       0.417000       1.00800           0
     59188 TIP3     16424    TIP3     H2       HT       0.417000       1.00800           0
     59189 TIP3     16425    TIP3     OH2      OT      -0.834000       15.9994           0
     59190 TIP3     16425    TIP3     H1       HT       0.417000       1.00800           0
     59191 TIP3     16425    TIP3     H2       HT       0.417000       1.00800           0
     59192 TIP3     16426    TIP3     OH2      OT      -0.834000       15.9994           0
     59193 TIP3     16426    TIP3     H1       HT       0.417000       1.00800           0
     59194 TIP3     16426    TIP3     H2       HT       0.417000       1.00800           0
     59195 TIP3     16427    TIP3     OH2      OT      -0.834000       15.9994           0
     59196 TIP3     16427    TIP3     H1       HT       0.417000       1.00800           0
     59197 TIP3     16427    TIP3     H2       HT       0.417000       1.00800           0
     59198 TIP3     16428    TIP3     OH2      OT      -0.834000       15.9994           0
     59199 TIP3     16428    TIP3     H1       HT       0.417000       1.00800           0
     59200 TIP3     16428    TIP3     H2       HT       0.417000       1.00800           0
     59201 TIP3     16429    TIP3     OH2      OT      -0.834000       15.9994           0
     59202 TIP3     16429    TIP3     H1       HT       0.417000       1.00800           0
     59203 TIP3     16429    TIP3     H2       HT       0.417000       1.00800           0
     59204 TIP3     16430    TIP3     OH2      OT      -0.834000       15.9994           0
     59205 TIP3     16430    TIP3     H1       HT       0.417000       1.00800           0
     59206 TIP3     16430    TIP3     H2       HT       0.417000       1.00800           0
     59207 TIP3     16431    TIP3     OH2      OT      -0.834000       15.9994           0
     59208 TIP3     16431    TIP3     H1       HT       0.417000       1.00800           0
     59209 TIP3     16431    TIP3     H2       HT       0.417000       1.00800           0
     59210 TIP3     16432    TIP3     OH2      OT      -0.834000       15.9994           0
     59211 TIP3     16432    TIP3     H1       HT       0.417000       1.00800           0
     59212 TIP3     16432    TIP3     H2       HT       0.417000       1.00800           0
     59213 TIP3     16433    TIP3     OH2      OT      -0.834000       15.9994           0
     59214 TIP3     16433    TIP3     H1       HT       0.417000       1.00800           0
     59215 TIP3     16433    TIP3     H2       HT       0.417000       1.00800           0
     59216 TIP3     16434    TIP3     OH2      OT      -0.834000       15.9994           0
     59217 TIP3     16434    TIP3     H1       HT       0.417000       1.00800           0
     59218 TIP3     16434    TIP3     H2       HT       0.417000       1.00800           0
     59219 TIP3     16435    TIP3     OH2      OT      -0.834000       15.9994           0
     59220 TIP3     16435    TIP3     H1       HT       0.417000       1.00800           0
     59221 TIP3     16435    TIP3     H2       HT       0.417000       1.00800           0
     59222 TIP3     16436    TIP3     OH2      OT      -0.834000       15.9994           0
     59223 TIP3     16436    TIP3     H1       HT       0.417000       1.00800           0
     59224 TIP3     16436    TIP3     H2       HT       0.417000       1.00800           0
     59225 TIP3     16437    TIP3     OH2      OT      -0.834000       15.9994           0
     59226 TIP3     16437    TIP3     H1       HT       0.417000       1.00800           0
     59227 TIP3     16437    TIP3     H2       HT       0.417000       1.00800           0
     59228 TIP3     16438    TIP3     OH2      OT      -0.834000       15.9994           0
     59229 TIP3     16438    TIP3     H1       HT       0.417000       1.00800           0
     59230 TIP3     16438    TIP3     H2       HT       0.417000       1.00800           0
     59231 TIP3     16439    TIP3     OH2      OT      -0.834000       15.9994           0
     59232 TIP3     16439    TIP3     H1       HT       0.417000       1.00800           0
     59233 TIP3     16439    TIP3     H2       HT       0.417000       1.00800           0
     59234 TIP3     16440    TIP3     OH2      OT      -0.834000       15.9994           0
     59235 TIP3     16440    TIP3     H1       HT       0.417000       1.00800           0
     59236 TIP3     16440    TIP3     H2       HT       0.417000       1.00800           0
     59237 TIP3     16441    TIP3     OH2      OT      -0.834000       15.9994           0
     59238 TIP3     16441    TIP3     H1       HT       0.417000       1.00800           0
     59239 TIP3     16441    TIP3     H2       HT       0.417000       1.00800           0
     59240 TIP3     16442    TIP3     OH2      OT      -0.834000       15.9994           0
     59241 TIP3     16442    TIP3     H1       HT       0.417000       1.00800           0
     59242 TIP3     16442    TIP3     H2       HT       0.417000       1.00800           0
     59243 TIP3     16443    TIP3     OH2      OT      -0.834000       15.9994           0
     59244 TIP3     16443    TIP3     H1       HT       0.417000       1.00800           0
     59245 TIP3     16443    TIP3     H2       HT       0.417000       1.00800           0
     59246 TIP3     16444    TIP3     OH2      OT      -0.834000       15.9994           0
     59247 TIP3     16444    TIP3     H1       HT       0.417000       1.00800           0
     59248 TIP3     16444    TIP3     H2       HT       0.417000       1.00800           0
     59249 TIP3     16445    TIP3     OH2      OT      -0.834000       15.9994           0
     59250 TIP3     16445    TIP3     H1       HT       0.417000       1.00800           0
     59251 TIP3     16445    TIP3     H2       HT       0.417000       1.00800           0
     59252 TIP3     16446    TIP3     OH2      OT      -0.834000       15.9994           0
     59253 TIP3     16446    TIP3     H1       HT       0.417000       1.00800           0
     59254 TIP3     16446    TIP3     H2       HT       0.417000       1.00800           0
     59255 TIP3     16447    TIP3     OH2      OT      -0.834000       15.9994           0
     59256 TIP3     16447    TIP3     H1       HT       0.417000       1.00800           0
     59257 TIP3     16447    TIP3     H2       HT       0.417000       1.00800           0
     59258 TIP3     16448    TIP3     OH2      OT      -0.834000       15.9994           0
     59259 TIP3     16448    TIP3     H1       HT       0.417000       1.00800           0
     59260 TIP3     16448    TIP3     H2       HT       0.417000       1.00800           0
     59261 TIP3     16449    TIP3     OH2      OT      -0.834000       15.9994           0
     59262 TIP3     16449    TIP3     H1       HT       0.417000       1.00800           0
     59263 TIP3     16449    TIP3     H2       HT       0.417000       1.00800           0
     59264 TIP3     16450    TIP3     OH2      OT      -0.834000       15.9994           0
     59265 TIP3     16450    TIP3     H1       HT       0.417000       1.00800           0
     59266 TIP3     16450    TIP3     H2       HT       0.417000       1.00800           0
     59267 TIP3     16451    TIP3     OH2      OT      -0.834000       15.9994           0
     59268 TIP3     16451    TIP3     H1       HT       0.417000       1.00800           0
     59269 TIP3     16451    TIP3     H2       HT       0.417000       1.00800           0
     59270 TIP3     16452    TIP3     OH2      OT      -0.834000       15.9994           0
     59271 TIP3     16452    TIP3     H1       HT       0.417000       1.00800           0
     59272 TIP3     16452    TIP3     H2       HT       0.417000       1.00800           0
     59273 TIP3     16453    TIP3     OH2      OT      -0.834000       15.9994           0
     59274 TIP3     16453    TIP3     H1       HT       0.417000       1.00800           0
     59275 TIP3     16453    TIP3     H2       HT       0.417000       1.00800           0
     59276 TIP3     16454    TIP3     OH2      OT      -0.834000       15.9994           0
     59277 TIP3     16454    TIP3     H1       HT       0.417000       1.00800           0
     59278 TIP3     16454    TIP3     H2       HT       0.417000       1.00800           0
     59279 TIP3     16455    TIP3     OH2      OT      -0.834000       15.9994           0
     59280 TIP3     16455    TIP3     H1       HT       0.417000       1.00800           0
     59281 TIP3     16455    TIP3     H2       HT       0.417000       1.00800           0
     59282 TIP3     16456    TIP3     OH2      OT      -0.834000       15.9994           0
     59283 TIP3     16456    TIP3     H1       HT       0.417000       1.00800           0
     59284 TIP3     16456    TIP3     H2       HT       0.417000       1.00800           0
     59285 TIP3     16457    TIP3     OH2      OT      -0.834000       15.9994           0
     59286 TIP3     16457    TIP3     H1       HT       0.417000       1.00800           0
     59287 TIP3     16457    TIP3     H2       HT       0.417000       1.00800           0
     59288 TIP3     16458    TIP3     OH2      OT      -0.834000       15.9994           0
     59289 TIP3     16458    TIP3     H1       HT       0.417000       1.00800           0
     59290 TIP3     16458    TIP3     H2       HT       0.417000       1.00800           0
     59291 TIP3     16459    TIP3     OH2      OT      -0.834000       15.9994           0
     59292 TIP3     16459    TIP3     H1       HT       0.417000       1.00800           0
     59293 TIP3     16459    TIP3     H2       HT       0.417000       1.00800           0
     59294 TIP3     16460    TIP3     OH2      OT      -0.834000       15.9994           0
     59295 TIP3     16460    TIP3     H1       HT       0.417000       1.00800           0
     59296 TIP3     16460    TIP3     H2       HT       0.417000       1.00800           0
     59297 TIP3     16461    TIP3     OH2      OT      -0.834000       15.9994           0
     59298 TIP3     16461    TIP3     H1       HT       0.417000       1.00800           0
     59299 TIP3     16461    TIP3     H2       HT       0.417000       1.00800           0
     59300 TIP3     16462    TIP3     OH2      OT      -0.834000       15.9994           0
     59301 TIP3     16462    TIP3     H1       HT       0.417000       1.00800           0
     59302 TIP3     16462    TIP3     H2       HT       0.417000       1.00800           0
     59303 TIP3     16463    TIP3     OH2      OT      -0.834000       15.9994           0
     59304 TIP3     16463    TIP3     H1       HT       0.417000       1.00800           0
     59305 TIP3     16463    TIP3     H2       HT       0.417000       1.00800           0
     59306 TIP3     16464    TIP3     OH2      OT      -0.834000       15.9994           0
     59307 TIP3     16464    TIP3     H1       HT       0.417000       1.00800           0
     59308 TIP3     16464    TIP3     H2       HT       0.417000       1.00800           0
     59309 TIP3     16465    TIP3     OH2      OT      -0.834000       15.9994           0
     59310 TIP3     16465    TIP3     H1       HT       0.417000       1.00800           0
     59311 TIP3     16465    TIP3     H2       HT       0.417000       1.00800           0
     59312 TIP3     16466    TIP3     OH2      OT      -0.834000       15.9994           0
     59313 TIP3     16466    TIP3     H1       HT       0.417000       1.00800           0
     59314 TIP3     16466    TIP3     H2       HT       0.417000       1.00800           0
     59315 TIP3     16467    TIP3     OH2      OT      -0.834000       15.9994           0
     59316 TIP3     16467    TIP3     H1       HT       0.417000       1.00800           0
     59317 TIP3     16467    TIP3     H2       HT       0.417000       1.00800           0
     59318 TIP3     16468    TIP3     OH2      OT      -0.834000       15.9994           0
     59319 TIP3     16468    TIP3     H1       HT       0.417000       1.00800           0
     59320 TIP3     16468    TIP3     H2       HT       0.417000       1.00800           0
     59321 TIP3     16469    TIP3     OH2      OT      -0.834000       15.9994           0
     59322 TIP3     16469    TIP3     H1       HT       0.417000       1.00800           0
     59323 TIP3     16469    TIP3     H2       HT       0.417000       1.00800           0
     59324 TIP3     16470    TIP3     OH2      OT      -0.834000       15.9994           0
     59325 TIP3     16470    TIP3     H1       HT       0.417000       1.00800           0
     59326 TIP3     16470    TIP3     H2       HT       0.417000       1.00800           0
     59327 TIP3     16471    TIP3     OH2      OT      -0.834000       15.9994           0
     59328 TIP3     16471    TIP3     H1       HT       0.417000       1.00800           0
     59329 TIP3     16471    TIP3     H2       HT       0.417000       1.00800           0
     59330 TIP3     16472    TIP3     OH2      OT      -0.834000       15.9994           0
     59331 TIP3     16472    TIP3     H1       HT       0.417000       1.00800           0
     59332 TIP3     16472    TIP3     H2       HT       0.417000       1.00800           0
     59333 TIP3     16473    TIP3     OH2      OT      -0.834000       15.9994           0
     59334 TIP3     16473    TIP3     H1       HT       0.417000       1.00800           0
     59335 TIP3     16473    TIP3     H2       HT       0.417000       1.00800           0
     59336 TIP3     16474    TIP3     OH2      OT      -0.834000       15.9994           0
     59337 TIP3     16474    TIP3     H1       HT       0.417000       1.00800           0
     59338 TIP3     16474    TIP3     H2       HT       0.417000       1.00800           0
     59339 TIP3     16475    TIP3     OH2      OT      -0.834000       15.9994           0
     59340 TIP3     16475    TIP3     H1       HT       0.417000       1.00800           0
     59341 TIP3     16475    TIP3     H2       HT       0.417000       1.00800           0
     59342 TIP3     16476    TIP3     OH2      OT      -0.834000       15.9994           0
     59343 TIP3     16476    TIP3     H1       HT       0.417000       1.00800           0
     59344 TIP3     16476    TIP3     H2       HT       0.417000       1.00800           0
     59345 TIP3     16477    TIP3     OH2      OT      -0.834000       15.9994           0
     59346 TIP3     16477    TIP3     H1       HT       0.417000       1.00800           0
     59347 TIP3     16477    TIP3     H2       HT       0.417000       1.00800           0
     59348 TIP3     16478    TIP3     OH2      OT      -0.834000       15.9994           0
     59349 TIP3     16478    TIP3     H1       HT       0.417000       1.00800           0
     59350 TIP3     16478    TIP3     H2       HT       0.417000       1.00800           0
     59351 TIP3     16479    TIP3     OH2      OT      -0.834000       15.9994           0
     59352 TIP3     16479    TIP3     H1       HT       0.417000       1.00800           0
     59353 TIP3     16479    TIP3     H2       HT       0.417000       1.00800           0
     59354 TIP3     16480    TIP3     OH2      OT      -0.834000       15.9994           0
     59355 TIP3     16480    TIP3     H1       HT       0.417000       1.00800           0
     59356 TIP3     16480    TIP3     H2       HT       0.417000       1.00800           0
     59357 TIP3     16481    TIP3     OH2      OT      -0.834000       15.9994           0
     59358 TIP3     16481    TIP3     H1       HT       0.417000       1.00800           0
     59359 TIP3     16481    TIP3     H2       HT       0.417000       1.00800           0
     59360 TIP3     16482    TIP3     OH2      OT      -0.834000       15.9994           0
     59361 TIP3     16482    TIP3     H1       HT       0.417000       1.00800           0
     59362 TIP3     16482    TIP3     H2       HT       0.417000       1.00800           0
     59363 TIP3     16483    TIP3     OH2      OT      -0.834000       15.9994           0
     59364 TIP3     16483    TIP3     H1       HT       0.417000       1.00800           0
     59365 TIP3     16483    TIP3     H2       HT       0.417000       1.00800           0
     59366 TIP3     16484    TIP3     OH2      OT      -0.834000       15.9994           0
     59367 TIP3     16484    TIP3     H1       HT       0.417000       1.00800           0
     59368 TIP3     16484    TIP3     H2       HT       0.417000       1.00800           0
     59369 TIP3     16485    TIP3     OH2      OT      -0.834000       15.9994           0
     59370 TIP3     16485    TIP3     H1       HT       0.417000       1.00800           0
     59371 TIP3     16485    TIP3     H2       HT       0.417000       1.00800           0
     59372 TIP3     16486    TIP3     OH2      OT      -0.834000       15.9994           0
     59373 TIP3     16486    TIP3     H1       HT       0.417000       1.00800           0
     59374 TIP3     16486    TIP3     H2       HT       0.417000       1.00800           0
     59375 TIP3     16487    TIP3     OH2      OT      -0.834000       15.9994           0
     59376 TIP3     16487    TIP3     H1       HT       0.417000       1.00800           0
     59377 TIP3     16487    TIP3     H2       HT       0.417000       1.00800           0
     59378 TIP3     16488    TIP3     OH2      OT      -0.834000       15.9994           0
     59379 TIP3     16488    TIP3     H1       HT       0.417000       1.00800           0
     59380 TIP3     16488    TIP3     H2       HT       0.417000       1.00800           0
     59381 TIP3     16489    TIP3     OH2      OT      -0.834000       15.9994           0
     59382 TIP3     16489    TIP3     H1       HT       0.417000       1.00800           0
     59383 TIP3     16489    TIP3     H2       HT       0.417000       1.00800           0
     59384 TIP3     16490    TIP3     OH2      OT      -0.834000       15.9994           0
     59385 TIP3     16490    TIP3     H1       HT       0.417000       1.00800           0
     59386 TIP3     16490    TIP3     H2       HT       0.417000       1.00800           0
     59387 TIP3     16491    TIP3     OH2      OT      -0.834000       15.9994           0
     59388 TIP3     16491    TIP3     H1       HT       0.417000       1.00800           0
     59389 TIP3     16491    TIP3     H2       HT       0.417000       1.00800           0
     59390 TIP3     16492    TIP3     OH2      OT      -0.834000       15.9994           0
     59391 TIP3     16492    TIP3     H1       HT       0.417000       1.00800           0
     59392 TIP3     16492    TIP3     H2       HT       0.417000       1.00800           0
     59393 TIP3     16493    TIP3     OH2      OT      -0.834000       15.9994           0
     59394 TIP3     16493    TIP3     H1       HT       0.417000       1.00800           0
     59395 TIP3     16493    TIP3     H2       HT       0.417000       1.00800           0
     59396 TIP3     16494    TIP3     OH2      OT      -0.834000       15.9994           0
     59397 TIP3     16494    TIP3     H1       HT       0.417000       1.00800           0
     59398 TIP3     16494    TIP3     H2       HT       0.417000       1.00800           0
     59399 TIP3     16495    TIP3     OH2      OT      -0.834000       15.9994           0
     59400 TIP3     16495    TIP3     H1       HT       0.417000       1.00800           0
     59401 TIP3     16495    TIP3     H2       HT       0.417000       1.00800           0
     59402 TIP3     16496    TIP3     OH2      OT      -0.834000       15.9994           0
     59403 TIP3     16496    TIP3     H1       HT       0.417000       1.00800           0
     59404 TIP3     16496    TIP3     H2       HT       0.417000       1.00800           0
     59405 TIP3     16497    TIP3     OH2      OT      -0.834000       15.9994           0
     59406 TIP3     16497    TIP3     H1       HT       0.417000       1.00800           0
     59407 TIP3     16497    TIP3     H2       HT       0.417000       1.00800           0
     59408 TIP3     16498    TIP3     OH2      OT      -0.834000       15.9994           0
     59409 TIP3     16498    TIP3     H1       HT       0.417000       1.00800           0
     59410 TIP3     16498    TIP3     H2       HT       0.417000       1.00800           0
     59411 TIP3     16499    TIP3     OH2      OT      -0.834000       15.9994           0
     59412 TIP3     16499    TIP3     H1       HT       0.417000       1.00800           0
     59413 TIP3     16499    TIP3     H2       HT       0.417000       1.00800           0
     59414 TIP3     16500    TIP3     OH2      OT      -0.834000       15.9994           0
     59415 TIP3     16500    TIP3     H1       HT       0.417000       1.00800           0
     59416 TIP3     16500    TIP3     H2       HT       0.417000       1.00800           0
     59417 TIP3     16501    TIP3     OH2      OT      -0.834000       15.9994           0
     59418 TIP3     16501    TIP3     H1       HT       0.417000       1.00800           0
     59419 TIP3     16501    TIP3     H2       HT       0.417000       1.00800           0
     59420 TIP3     16502    TIP3     OH2      OT      -0.834000       15.9994           0
     59421 TIP3     16502    TIP3     H1       HT       0.417000       1.00800           0
     59422 TIP3     16502    TIP3     H2       HT       0.417000       1.00800           0
     59423 TIP3     16503    TIP3     OH2      OT      -0.834000       15.9994           0
     59424 TIP3     16503    TIP3     H1       HT       0.417000       1.00800           0
     59425 TIP3     16503    TIP3     H2       HT       0.417000       1.00800           0
     59426 TIP3     16504    TIP3     OH2      OT      -0.834000       15.9994           0
     59427 TIP3     16504    TIP3     H1       HT       0.417000       1.00800           0
     59428 TIP3     16504    TIP3     H2       HT       0.417000       1.00800           0
     59429 TIP3     16505    TIP3     OH2      OT      -0.834000       15.9994           0
     59430 TIP3     16505    TIP3     H1       HT       0.417000       1.00800           0
     59431 TIP3     16505    TIP3     H2       HT       0.417000       1.00800           0
     59432 TIP3     16506    TIP3     OH2      OT      -0.834000       15.9994           0
     59433 TIP3     16506    TIP3     H1       HT       0.417000       1.00800           0
     59434 TIP3     16506    TIP3     H2       HT       0.417000       1.00800           0
     59435 TIP3     16507    TIP3     OH2      OT      -0.834000       15.9994           0
     59436 TIP3     16507    TIP3     H1       HT       0.417000       1.00800           0
     59437 TIP3     16507    TIP3     H2       HT       0.417000       1.00800           0
     59438 TIP3     16508    TIP3     OH2      OT      -0.834000       15.9994           0
     59439 TIP3     16508    TIP3     H1       HT       0.417000       1.00800           0
     59440 TIP3     16508    TIP3     H2       HT       0.417000       1.00800           0
     59441 TIP3     16509    TIP3     OH2      OT      -0.834000       15.9994           0
     59442 TIP3     16509    TIP3     H1       HT       0.417000       1.00800           0
     59443 TIP3     16509    TIP3     H2       HT       0.417000       1.00800           0
     59444 TIP3     16510    TIP3     OH2      OT      -0.834000       15.9994           0
     59445 TIP3     16510    TIP3     H1       HT       0.417000       1.00800           0
     59446 TIP3     16510    TIP3     H2       HT       0.417000       1.00800           0
     59447 TIP3     16511    TIP3     OH2      OT      -0.834000       15.9994           0
     59448 TIP3     16511    TIP3     H1       HT       0.417000       1.00800           0
     59449 TIP3     16511    TIP3     H2       HT       0.417000       1.00800           0
     59450 TIP3     16512    TIP3     OH2      OT      -0.834000       15.9994           0
     59451 TIP3     16512    TIP3     H1       HT       0.417000       1.00800           0
     59452 TIP3     16512    TIP3     H2       HT       0.417000       1.00800           0
     59453 TIP3     16513    TIP3     OH2      OT      -0.834000       15.9994           0
     59454 TIP3     16513    TIP3     H1       HT       0.417000       1.00800           0
     59455 TIP3     16513    TIP3     H2       HT       0.417000       1.00800           0
     59456 TIP3     16514    TIP3     OH2      OT      -0.834000       15.9994           0
     59457 TIP3     16514    TIP3     H1       HT       0.417000       1.00800           0
     59458 TIP3     16514    TIP3     H2       HT       0.417000       1.00800           0
     59459 TIP3     16515    TIP3     OH2      OT      -0.834000       15.9994           0
     59460 TIP3     16515    TIP3     H1       HT       0.417000       1.00800           0
     59461 TIP3     16515    TIP3     H2       HT       0.417000       1.00800           0
     59462 TIP3     16516    TIP3     OH2      OT      -0.834000       15.9994           0
     59463 TIP3     16516    TIP3     H1       HT       0.417000       1.00800           0
     59464 TIP3     16516    TIP3     H2       HT       0.417000       1.00800           0
     59465 TIP3     16517    TIP3     OH2      OT      -0.834000       15.9994           0
     59466 TIP3     16517    TIP3     H1       HT       0.417000       1.00800           0
     59467 TIP3     16517    TIP3     H2       HT       0.417000       1.00800           0
     59468 TIP3     16518    TIP3     OH2      OT      -0.834000       15.9994           0
     59469 TIP3     16518    TIP3     H1       HT       0.417000       1.00800           0
     59470 TIP3     16518    TIP3     H2       HT       0.417000       1.00800           0
     59471 TIP3     16519    TIP3     OH2      OT      -0.834000       15.9994           0
     59472 TIP3     16519    TIP3     H1       HT       0.417000       1.00800           0
     59473 TIP3     16519    TIP3     H2       HT       0.417000       1.00800           0
     59474 TIP3     16520    TIP3     OH2      OT      -0.834000       15.9994           0
     59475 TIP3     16520    TIP3     H1       HT       0.417000       1.00800           0
     59476 TIP3     16520    TIP3     H2       HT       0.417000       1.00800           0
     59477 TIP3     16521    TIP3     OH2      OT      -0.834000       15.9994           0
     59478 TIP3     16521    TIP3     H1       HT       0.417000       1.00800           0
     59479 TIP3     16521    TIP3     H2       HT       0.417000       1.00800           0
     59480 TIP3     16522    TIP3     OH2      OT      -0.834000       15.9994           0
     59481 TIP3     16522    TIP3     H1       HT       0.417000       1.00800           0
     59482 TIP3     16522    TIP3     H2       HT       0.417000       1.00800           0
     59483 TIP3     16523    TIP3     OH2      OT      -0.834000       15.9994           0
     59484 TIP3     16523    TIP3     H1       HT       0.417000       1.00800           0
     59485 TIP3     16523    TIP3     H2       HT       0.417000       1.00800           0
     59486 TIP3     16524    TIP3     OH2      OT      -0.834000       15.9994           0
     59487 TIP3     16524    TIP3     H1       HT       0.417000       1.00800           0
     59488 TIP3     16524    TIP3     H2       HT       0.417000       1.00800           0
     59489 TIP3     16525    TIP3     OH2      OT      -0.834000       15.9994           0
     59490 TIP3     16525    TIP3     H1       HT       0.417000       1.00800           0
     59491 TIP3     16525    TIP3     H2       HT       0.417000       1.00800           0
     59492 TIP3     16526    TIP3     OH2      OT      -0.834000       15.9994           0
     59493 TIP3     16526    TIP3     H1       HT       0.417000       1.00800           0
     59494 TIP3     16526    TIP3     H2       HT       0.417000       1.00800           0
     59495 TIP3     16527    TIP3     OH2      OT      -0.834000       15.9994           0
     59496 TIP3     16527    TIP3     H1       HT       0.417000       1.00800           0
     59497 TIP3     16527    TIP3     H2       HT       0.417000       1.00800           0
     59498 TIP3     16528    TIP3     OH2      OT      -0.834000       15.9994           0
     59499 TIP3     16528    TIP3     H1       HT       0.417000       1.00800           0
     59500 TIP3     16528    TIP3     H2       HT       0.417000       1.00800           0
     59501 TIP3     16529    TIP3     OH2      OT      -0.834000       15.9994           0
     59502 TIP3     16529    TIP3     H1       HT       0.417000       1.00800           0
     59503 TIP3     16529    TIP3     H2       HT       0.417000       1.00800           0
     59504 TIP3     16530    TIP3     OH2      OT      -0.834000       15.9994           0
     59505 TIP3     16530    TIP3     H1       HT       0.417000       1.00800           0
     59506 TIP3     16530    TIP3     H2       HT       0.417000       1.00800           0
     59507 TIP3     16531    TIP3     OH2      OT      -0.834000       15.9994           0
     59508 TIP3     16531    TIP3     H1       HT       0.417000       1.00800           0
     59509 TIP3     16531    TIP3     H2       HT       0.417000       1.00800           0
     59510 TIP3     16532    TIP3     OH2      OT      -0.834000       15.9994           0
     59511 TIP3     16532    TIP3     H1       HT       0.417000       1.00800           0
     59512 TIP3     16532    TIP3     H2       HT       0.417000       1.00800           0
     59513 TIP3     16533    TIP3     OH2      OT      -0.834000       15.9994           0
     59514 TIP3     16533    TIP3     H1       HT       0.417000       1.00800           0
     59515 TIP3     16533    TIP3     H2       HT       0.417000       1.00800           0
     59516 TIP3     16534    TIP3     OH2      OT      -0.834000       15.9994           0
     59517 TIP3     16534    TIP3     H1       HT       0.417000       1.00800           0
     59518 TIP3     16534    TIP3     H2       HT       0.417000       1.00800           0
     59519 TIP3     16535    TIP3     OH2      OT      -0.834000       15.9994           0
     59520 TIP3     16535    TIP3     H1       HT       0.417000       1.00800           0
     59521 TIP3     16535    TIP3     H2       HT       0.417000       1.00800           0
     59522 TIP3     16536    TIP3     OH2      OT      -0.834000       15.9994           0
     59523 TIP3     16536    TIP3     H1       HT       0.417000       1.00800           0
     59524 TIP3     16536    TIP3     H2       HT       0.417000       1.00800           0
     59525 TIP3     16537    TIP3     OH2      OT      -0.834000       15.9994           0
     59526 TIP3     16537    TIP3     H1       HT       0.417000       1.00800           0
     59527 TIP3     16537    TIP3     H2       HT       0.417000       1.00800           0
     59528 TIP3     16538    TIP3     OH2      OT      -0.834000       15.9994           0
     59529 TIP3     16538    TIP3     H1       HT       0.417000       1.00800           0
     59530 TIP3     16538    TIP3     H2       HT       0.417000       1.00800           0
     59531 TIP3     16539    TIP3     OH2      OT      -0.834000       15.9994           0
     59532 TIP3     16539    TIP3     H1       HT       0.417000       1.00800           0
     59533 TIP3     16539    TIP3     H2       HT       0.417000       1.00800           0
     59534 TIP3     16540    TIP3     OH2      OT      -0.834000       15.9994           0
     59535 TIP3     16540    TIP3     H1       HT       0.417000       1.00800           0
     59536 TIP3     16540    TIP3     H2       HT       0.417000       1.00800           0
     59537 TIP3     16541    TIP3     OH2      OT      -0.834000       15.9994           0
     59538 TIP3     16541    TIP3     H1       HT       0.417000       1.00800           0
     59539 TIP3     16541    TIP3     H2       HT       0.417000       1.00800           0
     59540 TIP3     16542    TIP3     OH2      OT      -0.834000       15.9994           0
     59541 TIP3     16542    TIP3     H1       HT       0.417000       1.00800           0
     59542 TIP3     16542    TIP3     H2       HT       0.417000       1.00800           0
     59543 TIP3     16543    TIP3     OH2      OT      -0.834000       15.9994           0
     59544 TIP3     16543    TIP3     H1       HT       0.417000       1.00800           0
     59545 TIP3     16543    TIP3     H2       HT       0.417000       1.00800           0
     59546 TIP3     16544    TIP3     OH2      OT      -0.834000       15.9994           0
     59547 TIP3     16544    TIP3     H1       HT       0.417000       1.00800           0
     59548 TIP3     16544    TIP3     H2       HT       0.417000       1.00800           0
     59549 TIP3     16545    TIP3     OH2      OT      -0.834000       15.9994           0
     59550 TIP3     16545    TIP3     H1       HT       0.417000       1.00800           0
     59551 TIP3     16545    TIP3     H2       HT       0.417000       1.00800           0
     59552 TIP3     16546    TIP3     OH2      OT      -0.834000       15.9994           0
     59553 TIP3     16546    TIP3     H1       HT       0.417000       1.00800           0
     59554 TIP3     16546    TIP3     H2       HT       0.417000       1.00800           0
     59555 TIP3     16547    TIP3     OH2      OT      -0.834000       15.9994           0
     59556 TIP3     16547    TIP3     H1       HT       0.417000       1.00800           0
     59557 TIP3     16547    TIP3     H2       HT       0.417000       1.00800           0
     59558 TIP3     16548    TIP3     OH2      OT      -0.834000       15.9994           0
     59559 TIP3     16548    TIP3     H1       HT       0.417000       1.00800           0
     59560 TIP3     16548    TIP3     H2       HT       0.417000       1.00800           0
     59561 TIP3     16549    TIP3     OH2      OT      -0.834000       15.9994           0
     59562 TIP3     16549    TIP3     H1       HT       0.417000       1.00800           0
     59563 TIP3     16549    TIP3     H2       HT       0.417000       1.00800           0
     59564 TIP3     16550    TIP3     OH2      OT      -0.834000       15.9994           0
     59565 TIP3     16550    TIP3     H1       HT       0.417000       1.00800           0
     59566 TIP3     16550    TIP3     H2       HT       0.417000       1.00800           0
     59567 TIP3     16551    TIP3     OH2      OT      -0.834000       15.9994           0
     59568 TIP3     16551    TIP3     H1       HT       0.417000       1.00800           0
     59569 TIP3     16551    TIP3     H2       HT       0.417000       1.00800           0
     59570 TIP3     16552    TIP3     OH2      OT      -0.834000       15.9994           0
     59571 TIP3     16552    TIP3     H1       HT       0.417000       1.00800           0
     59572 TIP3     16552    TIP3     H2       HT       0.417000       1.00800           0
     59573 TIP3     16553    TIP3     OH2      OT      -0.834000       15.9994           0
     59574 TIP3     16553    TIP3     H1       HT       0.417000       1.00800           0
     59575 TIP3     16553    TIP3     H2       HT       0.417000       1.00800           0
     59576 TIP3     16554    TIP3     OH2      OT      -0.834000       15.9994           0
     59577 TIP3     16554    TIP3     H1       HT       0.417000       1.00800           0
     59578 TIP3     16554    TIP3     H2       HT       0.417000       1.00800           0
     59579 TIP3     16555    TIP3     OH2      OT      -0.834000       15.9994           0
     59580 TIP3     16555    TIP3     H1       HT       0.417000       1.00800           0
     59581 TIP3     16555    TIP3     H2       HT       0.417000       1.00800           0
     59582 TIP3     16556    TIP3     OH2      OT      -0.834000       15.9994           0
     59583 TIP3     16556    TIP3     H1       HT       0.417000       1.00800           0
     59584 TIP3     16556    TIP3     H2       HT       0.417000       1.00800           0
     59585 TIP3     16557    TIP3     OH2      OT      -0.834000       15.9994           0
     59586 TIP3     16557    TIP3     H1       HT       0.417000       1.00800           0
     59587 TIP3     16557    TIP3     H2       HT       0.417000       1.00800           0
     59588 TIP3     16558    TIP3     OH2      OT      -0.834000       15.9994           0
     59589 TIP3     16558    TIP3     H1       HT       0.417000       1.00800           0
     59590 TIP3     16558    TIP3     H2       HT       0.417000       1.00800           0
     59591 TIP3     16559    TIP3     OH2      OT      -0.834000       15.9994           0
     59592 TIP3     16559    TIP3     H1       HT       0.417000       1.00800           0
     59593 TIP3     16559    TIP3     H2       HT       0.417000       1.00800           0
     59594 TIP3     16560    TIP3     OH2      OT      -0.834000       15.9994           0
     59595 TIP3     16560    TIP3     H1       HT       0.417000       1.00800           0
     59596 TIP3     16560    TIP3     H2       HT       0.417000       1.00800           0
     59597 TIP3     16561    TIP3     OH2      OT      -0.834000       15.9994           0
     59598 TIP3     16561    TIP3     H1       HT       0.417000       1.00800           0
     59599 TIP3     16561    TIP3     H2       HT       0.417000       1.00800           0
     59600 TIP3     16562    TIP3     OH2      OT      -0.834000       15.9994           0
     59601 TIP3     16562    TIP3     H1       HT       0.417000       1.00800           0
     59602 TIP3     16562    TIP3     H2       HT       0.417000       1.00800           0
     59603 TIP3     16563    TIP3     OH2      OT      -0.834000       15.9994           0
     59604 TIP3     16563    TIP3     H1       HT       0.417000       1.00800           0
     59605 TIP3     16563    TIP3     H2       HT       0.417000       1.00800           0
     59606 TIP3     16564    TIP3     OH2      OT      -0.834000       15.9994           0
     59607 TIP3     16564    TIP3     H1       HT       0.417000       1.00800           0
     59608 TIP3     16564    TIP3     H2       HT       0.417000       1.00800           0
     59609 TIP3     16565    TIP3     OH2      OT      -0.834000       15.9994           0
     59610 TIP3     16565    TIP3     H1       HT       0.417000       1.00800           0
     59611 TIP3     16565    TIP3     H2       HT       0.417000       1.00800           0
     59612 TIP3     16566    TIP3     OH2      OT      -0.834000       15.9994           0
     59613 TIP3     16566    TIP3     H1       HT       0.417000       1.00800           0
     59614 TIP3     16566    TIP3     H2       HT       0.417000       1.00800           0
     59615 TIP3     16567    TIP3     OH2      OT      -0.834000       15.9994           0
     59616 TIP3     16567    TIP3     H1       HT       0.417000       1.00800           0
     59617 TIP3     16567    TIP3     H2       HT       0.417000       1.00800           0
     59618 TIP3     16568    TIP3     OH2      OT      -0.834000       15.9994           0
     59619 TIP3     16568    TIP3     H1       HT       0.417000       1.00800           0
     59620 TIP3     16568    TIP3     H2       HT       0.417000       1.00800           0
     59621 TIP3     16569    TIP3     OH2      OT      -0.834000       15.9994           0
     59622 TIP3     16569    TIP3     H1       HT       0.417000       1.00800           0
     59623 TIP3     16569    TIP3     H2       HT       0.417000       1.00800           0
     59624 TIP3     16570    TIP3     OH2      OT      -0.834000       15.9994           0
     59625 TIP3     16570    TIP3     H1       HT       0.417000       1.00800           0
     59626 TIP3     16570    TIP3     H2       HT       0.417000       1.00800           0
     59627 TIP3     16571    TIP3     OH2      OT      -0.834000       15.9994           0
     59628 TIP3     16571    TIP3     H1       HT       0.417000       1.00800           0
     59629 TIP3     16571    TIP3     H2       HT       0.417000       1.00800           0
     59630 TIP3     16572    TIP3     OH2      OT      -0.834000       15.9994           0
     59631 TIP3     16572    TIP3     H1       HT       0.417000       1.00800           0
     59632 TIP3     16572    TIP3     H2       HT       0.417000       1.00800           0
     59633 TIP3     16573    TIP3     OH2      OT      -0.834000       15.9994           0
     59634 TIP3     16573    TIP3     H1       HT       0.417000       1.00800           0
     59635 TIP3     16573    TIP3     H2       HT       0.417000       1.00800           0
     59636 TIP3     16574    TIP3     OH2      OT      -0.834000       15.9994           0
     59637 TIP3     16574    TIP3     H1       HT       0.417000       1.00800           0
     59638 TIP3     16574    TIP3     H2       HT       0.417000       1.00800           0
     59639 TIP3     16575    TIP3     OH2      OT      -0.834000       15.9994           0
     59640 TIP3     16575    TIP3     H1       HT       0.417000       1.00800           0
     59641 TIP3     16575    TIP3     H2       HT       0.417000       1.00800           0
     59642 TIP3     16576    TIP3     OH2      OT      -0.834000       15.9994           0
     59643 TIP3     16576    TIP3     H1       HT       0.417000       1.00800           0
     59644 TIP3     16576    TIP3     H2       HT       0.417000       1.00800           0
     59645 TIP3     16577    TIP3     OH2      OT      -0.834000       15.9994           0
     59646 TIP3     16577    TIP3     H1       HT       0.417000       1.00800           0
     59647 TIP3     16577    TIP3     H2       HT       0.417000       1.00800           0
     59648 TIP3     16578    TIP3     OH2      OT      -0.834000       15.9994           0
     59649 TIP3     16578    TIP3     H1       HT       0.417000       1.00800           0
     59650 TIP3     16578    TIP3     H2       HT       0.417000       1.00800           0
     59651 TIP3     16579    TIP3     OH2      OT      -0.834000       15.9994           0
     59652 TIP3     16579    TIP3     H1       HT       0.417000       1.00800           0
     59653 TIP3     16579    TIP3     H2       HT       0.417000       1.00800           0
     59654 TIP3     16580    TIP3     OH2      OT      -0.834000       15.9994           0
     59655 TIP3     16580    TIP3     H1       HT       0.417000       1.00800           0
     59656 TIP3     16580    TIP3     H2       HT       0.417000       1.00800           0
     59657 TIP3     16581    TIP3     OH2      OT      -0.834000       15.9994           0
     59658 TIP3     16581    TIP3     H1       HT       0.417000       1.00800           0
     59659 TIP3     16581    TIP3     H2       HT       0.417000       1.00800           0
     59660 TIP3     16582    TIP3     OH2      OT      -0.834000       15.9994           0
     59661 TIP3     16582    TIP3     H1       HT       0.417000       1.00800           0
     59662 TIP3     16582    TIP3     H2       HT       0.417000       1.00800           0
     59663 TIP3     16583    TIP3     OH2      OT      -0.834000       15.9994           0
     59664 TIP3     16583    TIP3     H1       HT       0.417000       1.00800           0
     59665 TIP3     16583    TIP3     H2       HT       0.417000       1.00800           0
     59666 TIP3     16584    TIP3     OH2      OT      -0.834000       15.9994           0
     59667 TIP3     16584    TIP3     H1       HT       0.417000       1.00800           0
     59668 TIP3     16584    TIP3     H2       HT       0.417000       1.00800           0
     59669 TIP3     16585    TIP3     OH2      OT      -0.834000       15.9994           0
     59670 TIP3     16585    TIP3     H1       HT       0.417000       1.00800           0
     59671 TIP3     16585    TIP3     H2       HT       0.417000       1.00800           0
     59672 TIP3     16586    TIP3     OH2      OT      -0.834000       15.9994           0
     59673 TIP3     16586    TIP3     H1       HT       0.417000       1.00800           0
     59674 TIP3     16586    TIP3     H2       HT       0.417000       1.00800           0
     59675 TIP3     16587    TIP3     OH2      OT      -0.834000       15.9994           0
     59676 TIP3     16587    TIP3     H1       HT       0.417000       1.00800           0
     59677 TIP3     16587    TIP3     H2       HT       0.417000       1.00800           0
     59678 TIP3     16588    TIP3     OH2      OT      -0.834000       15.9994           0
     59679 TIP3     16588    TIP3     H1       HT       0.417000       1.00800           0
     59680 TIP3     16588    TIP3     H2       HT       0.417000       1.00800           0
     59681 TIP3     16589    TIP3     OH2      OT      -0.834000       15.9994           0
     59682 TIP3     16589    TIP3     H1       HT       0.417000       1.00800           0
     59683 TIP3     16589    TIP3     H2       HT       0.417000       1.00800           0
     59684 TIP3     16590    TIP3     OH2      OT      -0.834000       15.9994           0
     59685 TIP3     16590    TIP3     H1       HT       0.417000       1.00800           0
     59686 TIP3     16590    TIP3     H2       HT       0.417000       1.00800           0
     59687 TIP3     16591    TIP3     OH2      OT      -0.834000       15.9994           0
     59688 TIP3     16591    TIP3     H1       HT       0.417000       1.00800           0
     59689 TIP3     16591    TIP3     H2       HT       0.417000       1.00800           0
     59690 TIP3     16592    TIP3     OH2      OT      -0.834000       15.9994           0
     59691 TIP3     16592    TIP3     H1       HT       0.417000       1.00800           0
     59692 TIP3     16592    TIP3     H2       HT       0.417000       1.00800           0
     59693 TIP3     16593    TIP3     OH2      OT      -0.834000       15.9994           0
     59694 TIP3     16593    TIP3     H1       HT       0.417000       1.00800           0
     59695 TIP3     16593    TIP3     H2       HT       0.417000       1.00800           0
     59696 TIP3     16594    TIP3     OH2      OT      -0.834000       15.9994           0
     59697 TIP3     16594    TIP3     H1       HT       0.417000       1.00800           0
     59698 TIP3     16594    TIP3     H2       HT       0.417000       1.00800           0
     59699 TIP3     16595    TIP3     OH2      OT      -0.834000       15.9994           0
     59700 TIP3     16595    TIP3     H1       HT       0.417000       1.00800           0
     59701 TIP3     16595    TIP3     H2       HT       0.417000       1.00800           0
     59702 TIP3     16596    TIP3     OH2      OT      -0.834000       15.9994           0
     59703 TIP3     16596    TIP3     H1       HT       0.417000       1.00800           0
     59704 TIP3     16596    TIP3     H2       HT       0.417000       1.00800           0
     59705 TIP3     16597    TIP3     OH2      OT      -0.834000       15.9994           0
     59706 TIP3     16597    TIP3     H1       HT       0.417000       1.00800           0
     59707 TIP3     16597    TIP3     H2       HT       0.417000       1.00800           0
     59708 TIP3     16598    TIP3     OH2      OT      -0.834000       15.9994           0
     59709 TIP3     16598    TIP3     H1       HT       0.417000       1.00800           0
     59710 TIP3     16598    TIP3     H2       HT       0.417000       1.00800           0
     59711 TIP3     16599    TIP3     OH2      OT      -0.834000       15.9994           0
     59712 TIP3     16599    TIP3     H1       HT       0.417000       1.00800           0
     59713 TIP3     16599    TIP3     H2       HT       0.417000       1.00800           0
     59714 TIP3     16600    TIP3     OH2      OT      -0.834000       15.9994           0
     59715 TIP3     16600    TIP3     H1       HT       0.417000       1.00800           0
     59716 TIP3     16600    TIP3     H2       HT       0.417000       1.00800           0
     59717 TIP3     16601    TIP3     OH2      OT      -0.834000       15.9994           0
     59718 TIP3     16601    TIP3     H1       HT       0.417000       1.00800           0
     59719 TIP3     16601    TIP3     H2       HT       0.417000       1.00800           0
     59720 TIP3     16602    TIP3     OH2      OT      -0.834000       15.9994           0
     59721 TIP3     16602    TIP3     H1       HT       0.417000       1.00800           0
     59722 TIP3     16602    TIP3     H2       HT       0.417000       1.00800           0
     59723 TIP3     16603    TIP3     OH2      OT      -0.834000       15.9994           0
     59724 TIP3     16603    TIP3     H1       HT       0.417000       1.00800           0
     59725 TIP3     16603    TIP3     H2       HT       0.417000       1.00800           0
     59726 TIP3     16604    TIP3     OH2      OT      -0.834000       15.9994           0
     59727 TIP3     16604    TIP3     H1       HT       0.417000       1.00800           0
     59728 TIP3     16604    TIP3     H2       HT       0.417000       1.00800           0
     59729 TIP3     16605    TIP3     OH2      OT      -0.834000       15.9994           0
     59730 TIP3     16605    TIP3     H1       HT       0.417000       1.00800           0
     59731 TIP3     16605    TIP3     H2       HT       0.417000       1.00800           0
     59732 TIP3     16606    TIP3     OH2      OT      -0.834000       15.9994           0
     59733 TIP3     16606    TIP3     H1       HT       0.417000       1.00800           0
     59734 TIP3     16606    TIP3     H2       HT       0.417000       1.00800           0
     59735 TIP3     16607    TIP3     OH2      OT      -0.834000       15.9994           0
     59736 TIP3     16607    TIP3     H1       HT       0.417000       1.00800           0
     59737 TIP3     16607    TIP3     H2       HT       0.417000       1.00800           0
     59738 TIP3     16608    TIP3     OH2      OT      -0.834000       15.9994           0
     59739 TIP3     16608    TIP3     H1       HT       0.417000       1.00800           0
     59740 TIP3     16608    TIP3     H2       HT       0.417000       1.00800           0
     59741 TIP3     16609    TIP3     OH2      OT      -0.834000       15.9994           0
     59742 TIP3     16609    TIP3     H1       HT       0.417000       1.00800           0
     59743 TIP3     16609    TIP3     H2       HT       0.417000       1.00800           0
     59744 TIP3     16610    TIP3     OH2      OT      -0.834000       15.9994           0
     59745 TIP3     16610    TIP3     H1       HT       0.417000       1.00800           0
     59746 TIP3     16610    TIP3     H2       HT       0.417000       1.00800           0
     59747 TIP3     16611    TIP3     OH2      OT      -0.834000       15.9994           0
     59748 TIP3     16611    TIP3     H1       HT       0.417000       1.00800           0
     59749 TIP3     16611    TIP3     H2       HT       0.417000       1.00800           0
     59750 TIP3     16612    TIP3     OH2      OT      -0.834000       15.9994           0
     59751 TIP3     16612    TIP3     H1       HT       0.417000       1.00800           0
     59752 TIP3     16612    TIP3     H2       HT       0.417000       1.00800           0
     59753 TIP3     16613    TIP3     OH2      OT      -0.834000       15.9994           0
     59754 TIP3     16613    TIP3     H1       HT       0.417000       1.00800           0
     59755 TIP3     16613    TIP3     H2       HT       0.417000       1.00800           0
     59756 TIP3     16614    TIP3     OH2      OT      -0.834000       15.9994           0
     59757 TIP3     16614    TIP3     H1       HT       0.417000       1.00800           0
     59758 TIP3     16614    TIP3     H2       HT       0.417000       1.00800           0
     59759 TIP3     16615    TIP3     OH2      OT      -0.834000       15.9994           0
     59760 TIP3     16615    TIP3     H1       HT       0.417000       1.00800           0
     59761 TIP3     16615    TIP3     H2       HT       0.417000       1.00800           0
     59762 TIP3     16616    TIP3     OH2      OT      -0.834000       15.9994           0
     59763 TIP3     16616    TIP3     H1       HT       0.417000       1.00800           0
     59764 TIP3     16616    TIP3     H2       HT       0.417000       1.00800           0
     59765 TIP3     16617    TIP3     OH2      OT      -0.834000       15.9994           0
     59766 TIP3     16617    TIP3     H1       HT       0.417000       1.00800           0
     59767 TIP3     16617    TIP3     H2       HT       0.417000       1.00800           0
     59768 TIP3     16618    TIP3     OH2      OT      -0.834000       15.9994           0
     59769 TIP3     16618    TIP3     H1       HT       0.417000       1.00800           0
     59770 TIP3     16618    TIP3     H2       HT       0.417000       1.00800           0
     59771 TIP3     16619    TIP3     OH2      OT      -0.834000       15.9994           0
     59772 TIP3     16619    TIP3     H1       HT       0.417000       1.00800           0
     59773 TIP3     16619    TIP3     H2       HT       0.417000       1.00800           0
     59774 TIP3     16620    TIP3     OH2      OT      -0.834000       15.9994           0
     59775 TIP3     16620    TIP3     H1       HT       0.417000       1.00800           0
     59776 TIP3     16620    TIP3     H2       HT       0.417000       1.00800           0
     59777 TIP3     16621    TIP3     OH2      OT      -0.834000       15.9994           0
     59778 TIP3     16621    TIP3     H1       HT       0.417000       1.00800           0
     59779 TIP3     16621    TIP3     H2       HT       0.417000       1.00800           0
     59780 TIP3     16622    TIP3     OH2      OT      -0.834000       15.9994           0
     59781 TIP3     16622    TIP3     H1       HT       0.417000       1.00800           0
     59782 TIP3     16622    TIP3     H2       HT       0.417000       1.00800           0
     59783 TIP3     16623    TIP3     OH2      OT      -0.834000       15.9994           0
     59784 TIP3     16623    TIP3     H1       HT       0.417000       1.00800           0
     59785 TIP3     16623    TIP3     H2       HT       0.417000       1.00800           0
     59786 TIP3     16624    TIP3     OH2      OT      -0.834000       15.9994           0
     59787 TIP3     16624    TIP3     H1       HT       0.417000       1.00800           0
     59788 TIP3     16624    TIP3     H2       HT       0.417000       1.00800           0
     59789 TIP3     16625    TIP3     OH2      OT      -0.834000       15.9994           0
     59790 TIP3     16625    TIP3     H1       HT       0.417000       1.00800           0
     59791 TIP3     16625    TIP3     H2       HT       0.417000       1.00800           0
     59792 TIP3     16626    TIP3     OH2      OT      -0.834000       15.9994           0
     59793 TIP3     16626    TIP3     H1       HT       0.417000       1.00800           0
     59794 TIP3     16626    TIP3     H2       HT       0.417000       1.00800           0
     59795 TIP3     16627    TIP3     OH2      OT      -0.834000       15.9994           0
     59796 TIP3     16627    TIP3     H1       HT       0.417000       1.00800           0
     59797 TIP3     16627    TIP3     H2       HT       0.417000       1.00800           0
     59798 TIP3     16628    TIP3     OH2      OT      -0.834000       15.9994           0
     59799 TIP3     16628    TIP3     H1       HT       0.417000       1.00800           0
     59800 TIP3     16628    TIP3     H2       HT       0.417000       1.00800           0
     59801 TIP3     16629    TIP3     OH2      OT      -0.834000       15.9994           0
     59802 TIP3     16629    TIP3     H1       HT       0.417000       1.00800           0
     59803 TIP3     16629    TIP3     H2       HT       0.417000       1.00800           0
     59804 TIP3     16630    TIP3     OH2      OT      -0.834000       15.9994           0
     59805 TIP3     16630    TIP3     H1       HT       0.417000       1.00800           0
     59806 TIP3     16630    TIP3     H2       HT       0.417000       1.00800           0
     59807 TIP3     16631    TIP3     OH2      OT      -0.834000       15.9994           0
     59808 TIP3     16631    TIP3     H1       HT       0.417000       1.00800           0
     59809 TIP3     16631    TIP3     H2       HT       0.417000       1.00800           0
     59810 TIP3     16632    TIP3     OH2      OT      -0.834000       15.9994           0
     59811 TIP3     16632    TIP3     H1       HT       0.417000       1.00800           0
     59812 TIP3     16632    TIP3     H2       HT       0.417000       1.00800           0
     59813 TIP3     16633    TIP3     OH2      OT      -0.834000       15.9994           0
     59814 TIP3     16633    TIP3     H1       HT       0.417000       1.00800           0
     59815 TIP3     16633    TIP3     H2       HT       0.417000       1.00800           0
     59816 TIP3     16634    TIP3     OH2      OT      -0.834000       15.9994           0
     59817 TIP3     16634    TIP3     H1       HT       0.417000       1.00800           0
     59818 TIP3     16634    TIP3     H2       HT       0.417000       1.00800           0
     59819 TIP3     16635    TIP3     OH2      OT      -0.834000       15.9994           0
     59820 TIP3     16635    TIP3     H1       HT       0.417000       1.00800           0
     59821 TIP3     16635    TIP3     H2       HT       0.417000       1.00800           0
     59822 TIP3     16636    TIP3     OH2      OT      -0.834000       15.9994           0
     59823 TIP3     16636    TIP3     H1       HT       0.417000       1.00800           0
     59824 TIP3     16636    TIP3     H2       HT       0.417000       1.00800           0
     59825 TIP3     16637    TIP3     OH2      OT      -0.834000       15.9994           0
     59826 TIP3     16637    TIP3     H1       HT       0.417000       1.00800           0
     59827 TIP3     16637    TIP3     H2       HT       0.417000       1.00800           0
     59828 TIP3     16638    TIP3     OH2      OT      -0.834000       15.9994           0
     59829 TIP3     16638    TIP3     H1       HT       0.417000       1.00800           0
     59830 TIP3     16638    TIP3     H2       HT       0.417000       1.00800           0
     59831 TIP3     16639    TIP3     OH2      OT      -0.834000       15.9994           0
     59832 TIP3     16639    TIP3     H1       HT       0.417000       1.00800           0
     59833 TIP3     16639    TIP3     H2       HT       0.417000       1.00800           0
     59834 TIP3     16640    TIP3     OH2      OT      -0.834000       15.9994           0
     59835 TIP3     16640    TIP3     H1       HT       0.417000       1.00800           0
     59836 TIP3     16640    TIP3     H2       HT       0.417000       1.00800           0
     59837 TIP3     16641    TIP3     OH2      OT      -0.834000       15.9994           0
     59838 TIP3     16641    TIP3     H1       HT       0.417000       1.00800           0
     59839 TIP3     16641    TIP3     H2       HT       0.417000       1.00800           0
     59840 TIP3     16642    TIP3     OH2      OT      -0.834000       15.9994           0
     59841 TIP3     16642    TIP3     H1       HT       0.417000       1.00800           0
     59842 TIP3     16642    TIP3     H2       HT       0.417000       1.00800           0
     59843 TIP3     16643    TIP3     OH2      OT      -0.834000       15.9994           0
     59844 TIP3     16643    TIP3     H1       HT       0.417000       1.00800           0
     59845 TIP3     16643    TIP3     H2       HT       0.417000       1.00800           0
     59846 TIP3     16644    TIP3     OH2      OT      -0.834000       15.9994           0
     59847 TIP3     16644    TIP3     H1       HT       0.417000       1.00800           0
     59848 TIP3     16644    TIP3     H2       HT       0.417000       1.00800           0
     59849 TIP3     16645    TIP3     OH2      OT      -0.834000       15.9994           0
     59850 TIP3     16645    TIP3     H1       HT       0.417000       1.00800           0
     59851 TIP3     16645    TIP3     H2       HT       0.417000       1.00800           0
     59852 TIP3     16646    TIP3     OH2      OT      -0.834000       15.9994           0
     59853 TIP3     16646    TIP3     H1       HT       0.417000       1.00800           0
     59854 TIP3     16646    TIP3     H2       HT       0.417000       1.00800           0
     59855 TIP3     16647    TIP3     OH2      OT      -0.834000       15.9994           0
     59856 TIP3     16647    TIP3     H1       HT       0.417000       1.00800           0
     59857 TIP3     16647    TIP3     H2       HT       0.417000       1.00800           0
     59858 TIP3     16648    TIP3     OH2      OT      -0.834000       15.9994           0
     59859 TIP3     16648    TIP3     H1       HT       0.417000       1.00800           0
     59860 TIP3     16648    TIP3     H2       HT       0.417000       1.00800           0
     59861 TIP3     16649    TIP3     OH2      OT      -0.834000       15.9994           0
     59862 TIP3     16649    TIP3     H1       HT       0.417000       1.00800           0
     59863 TIP3     16649    TIP3     H2       HT       0.417000       1.00800           0
     59864 TIP3     16650    TIP3     OH2      OT      -0.834000       15.9994           0
     59865 TIP3     16650    TIP3     H1       HT       0.417000       1.00800           0
     59866 TIP3     16650    TIP3     H2       HT       0.417000       1.00800           0
     59867 TIP3     16651    TIP3     OH2      OT      -0.834000       15.9994           0
     59868 TIP3     16651    TIP3     H1       HT       0.417000       1.00800           0
     59869 TIP3     16651    TIP3     H2       HT       0.417000       1.00800           0
     59870 TIP3     16652    TIP3     OH2      OT      -0.834000       15.9994           0
     59871 TIP3     16652    TIP3     H1       HT       0.417000       1.00800           0
     59872 TIP3     16652    TIP3     H2       HT       0.417000       1.00800           0
     59873 TIP3     16653    TIP3     OH2      OT      -0.834000       15.9994           0
     59874 TIP3     16653    TIP3     H1       HT       0.417000       1.00800           0
     59875 TIP3     16653    TIP3     H2       HT       0.417000       1.00800           0
     59876 TIP3     16654    TIP3     OH2      OT      -0.834000       15.9994           0
     59877 TIP3     16654    TIP3     H1       HT       0.417000       1.00800           0
     59878 TIP3     16654    TIP3     H2       HT       0.417000       1.00800           0
     59879 TIP3     16655    TIP3     OH2      OT      -0.834000       15.9994           0
     59880 TIP3     16655    TIP3     H1       HT       0.417000       1.00800           0
     59881 TIP3     16655    TIP3     H2       HT       0.417000       1.00800           0
     59882 TIP3     16656    TIP3     OH2      OT      -0.834000       15.9994           0
     59883 TIP3     16656    TIP3     H1       HT       0.417000       1.00800           0
     59884 TIP3     16656    TIP3     H2       HT       0.417000       1.00800           0
     59885 TIP3     16657    TIP3     OH2      OT      -0.834000       15.9994           0
     59886 TIP3     16657    TIP3     H1       HT       0.417000       1.00800           0
     59887 TIP3     16657    TIP3     H2       HT       0.417000       1.00800           0
     59888 TIP3     16658    TIP3     OH2      OT      -0.834000       15.9994           0
     59889 TIP3     16658    TIP3     H1       HT       0.417000       1.00800           0
     59890 TIP3     16658    TIP3     H2       HT       0.417000       1.00800           0
     59891 TIP3     16659    TIP3     OH2      OT      -0.834000       15.9994           0
     59892 TIP3     16659    TIP3     H1       HT       0.417000       1.00800           0
     59893 TIP3     16659    TIP3     H2       HT       0.417000       1.00800           0
     59894 TIP3     16660    TIP3     OH2      OT      -0.834000       15.9994           0
     59895 TIP3     16660    TIP3     H1       HT       0.417000       1.00800           0
     59896 TIP3     16660    TIP3     H2       HT       0.417000       1.00800           0
     59897 TIP3     16661    TIP3     OH2      OT      -0.834000       15.9994           0
     59898 TIP3     16661    TIP3     H1       HT       0.417000       1.00800           0
     59899 TIP3     16661    TIP3     H2       HT       0.417000       1.00800           0
     59900 TIP3     16662    TIP3     OH2      OT      -0.834000       15.9994           0
     59901 TIP3     16662    TIP3     H1       HT       0.417000       1.00800           0
     59902 TIP3     16662    TIP3     H2       HT       0.417000       1.00800           0
     59903 TIP3     16663    TIP3     OH2      OT      -0.834000       15.9994           0
     59904 TIP3     16663    TIP3     H1       HT       0.417000       1.00800           0
     59905 TIP3     16663    TIP3     H2       HT       0.417000       1.00800           0
     59906 TIP3     16664    TIP3     OH2      OT      -0.834000       15.9994           0
     59907 TIP3     16664    TIP3     H1       HT       0.417000       1.00800           0
     59908 TIP3     16664    TIP3     H2       HT       0.417000       1.00800           0
     59909 TIP3     16665    TIP3     OH2      OT      -0.834000       15.9994           0
     59910 TIP3     16665    TIP3     H1       HT       0.417000       1.00800           0
     59911 TIP3     16665    TIP3     H2       HT       0.417000       1.00800           0
     59912 TIP3     16666    TIP3     OH2      OT      -0.834000       15.9994           0
     59913 TIP3     16666    TIP3     H1       HT       0.417000       1.00800           0
     59914 TIP3     16666    TIP3     H2       HT       0.417000       1.00800           0
     59915 TIP3     16667    TIP3     OH2      OT      -0.834000       15.9994           0
     59916 TIP3     16667    TIP3     H1       HT       0.417000       1.00800           0
     59917 TIP3     16667    TIP3     H2       HT       0.417000       1.00800           0
     59918 TIP3     16668    TIP3     OH2      OT      -0.834000       15.9994           0
     59919 TIP3     16668    TIP3     H1       HT       0.417000       1.00800           0
     59920 TIP3     16668    TIP3     H2       HT       0.417000       1.00800           0
     59921 TIP3     16669    TIP3     OH2      OT      -0.834000       15.9994           0
     59922 TIP3     16669    TIP3     H1       HT       0.417000       1.00800           0
     59923 TIP3     16669    TIP3     H2       HT       0.417000       1.00800           0
     59924 TIP3     16670    TIP3     OH2      OT      -0.834000       15.9994           0
     59925 TIP3     16670    TIP3     H1       HT       0.417000       1.00800           0
     59926 TIP3     16670    TIP3     H2       HT       0.417000       1.00800           0
     59927 TIP3     16671    TIP3     OH2      OT      -0.834000       15.9994           0
     59928 TIP3     16671    TIP3     H1       HT       0.417000       1.00800           0
     59929 TIP3     16671    TIP3     H2       HT       0.417000       1.00800           0
     59930 TIP3     16672    TIP3     OH2      OT      -0.834000       15.9994           0
     59931 TIP3     16672    TIP3     H1       HT       0.417000       1.00800           0
     59932 TIP3     16672    TIP3     H2       HT       0.417000       1.00800           0
     59933 TIP3     16673    TIP3     OH2      OT      -0.834000       15.9994           0
     59934 TIP3     16673    TIP3     H1       HT       0.417000       1.00800           0
     59935 TIP3     16673    TIP3     H2       HT       0.417000       1.00800           0
     59936 TIP3     16674    TIP3     OH2      OT      -0.834000       15.9994           0
     59937 TIP3     16674    TIP3     H1       HT       0.417000       1.00800           0
     59938 TIP3     16674    TIP3     H2       HT       0.417000       1.00800           0
     59939 TIP3     16675    TIP3     OH2      OT      -0.834000       15.9994           0
     59940 TIP3     16675    TIP3     H1       HT       0.417000       1.00800           0
     59941 TIP3     16675    TIP3     H2       HT       0.417000       1.00800           0
     59942 TIP3     16676    TIP3     OH2      OT      -0.834000       15.9994           0
     59943 TIP3     16676    TIP3     H1       HT       0.417000       1.00800           0
     59944 TIP3     16676    TIP3     H2       HT       0.417000       1.00800           0
     59945 TIP3     16677    TIP3     OH2      OT      -0.834000       15.9994           0
     59946 TIP3     16677    TIP3     H1       HT       0.417000       1.00800           0
     59947 TIP3     16677    TIP3     H2       HT       0.417000       1.00800           0
     59948 TIP3     16678    TIP3     OH2      OT      -0.834000       15.9994           0
     59949 TIP3     16678    TIP3     H1       HT       0.417000       1.00800           0
     59950 TIP3     16678    TIP3     H2       HT       0.417000       1.00800           0
     59951 TIP3     16679    TIP3     OH2      OT      -0.834000       15.9994           0
     59952 TIP3     16679    TIP3     H1       HT       0.417000       1.00800           0
     59953 TIP3     16679    TIP3     H2       HT       0.417000       1.00800           0
     59954 TIP3     16680    TIP3     OH2      OT      -0.834000       15.9994           0
     59955 TIP3     16680    TIP3     H1       HT       0.417000       1.00800           0
     59956 TIP3     16680    TIP3     H2       HT       0.417000       1.00800           0
     59957 TIP3     16681    TIP3     OH2      OT      -0.834000       15.9994           0
     59958 TIP3     16681    TIP3     H1       HT       0.417000       1.00800           0
     59959 TIP3     16681    TIP3     H2       HT       0.417000       1.00800           0
     59960 TIP3     16682    TIP3     OH2      OT      -0.834000       15.9994           0
     59961 TIP3     16682    TIP3     H1       HT       0.417000       1.00800           0
     59962 TIP3     16682    TIP3     H2       HT       0.417000       1.00800           0
     59963 TIP3     16683    TIP3     OH2      OT      -0.834000       15.9994           0
     59964 TIP3     16683    TIP3     H1       HT       0.417000       1.00800           0
     59965 TIP3     16683    TIP3     H2       HT       0.417000       1.00800           0
     59966 TIP3     16684    TIP3     OH2      OT      -0.834000       15.9994           0
     59967 TIP3     16684    TIP3     H1       HT       0.417000       1.00800           0
     59968 TIP3     16684    TIP3     H2       HT       0.417000       1.00800           0
     59969 TIP3     16685    TIP3     OH2      OT      -0.834000       15.9994           0
     59970 TIP3     16685    TIP3     H1       HT       0.417000       1.00800           0
     59971 TIP3     16685    TIP3     H2       HT       0.417000       1.00800           0
     59972 TIP3     16686    TIP3     OH2      OT      -0.834000       15.9994           0
     59973 TIP3     16686    TIP3     H1       HT       0.417000       1.00800           0
     59974 TIP3     16686    TIP3     H2       HT       0.417000       1.00800           0
     59975 TIP3     16687    TIP3     OH2      OT      -0.834000       15.9994           0
     59976 TIP3     16687    TIP3     H1       HT       0.417000       1.00800           0
     59977 TIP3     16687    TIP3     H2       HT       0.417000       1.00800           0
     59978 TIP3     16688    TIP3     OH2      OT      -0.834000       15.9994           0
     59979 TIP3     16688    TIP3     H1       HT       0.417000       1.00800           0
     59980 TIP3     16688    TIP3     H2       HT       0.417000       1.00800           0
     59981 TIP3     16689    TIP3     OH2      OT      -0.834000       15.9994           0
     59982 TIP3     16689    TIP3     H1       HT       0.417000       1.00800           0
     59983 TIP3     16689    TIP3     H2       HT       0.417000       1.00800           0
     59984 TIP3     16690    TIP3     OH2      OT      -0.834000       15.9994           0
     59985 TIP3     16690    TIP3     H1       HT       0.417000       1.00800           0
     59986 TIP3     16690    TIP3     H2       HT       0.417000       1.00800           0
     59987 TIP3     16691    TIP3     OH2      OT      -0.834000       15.9994           0
     59988 TIP3     16691    TIP3     H1       HT       0.417000       1.00800           0
     59989 TIP3     16691    TIP3     H2       HT       0.417000       1.00800           0
     59990 TIP3     16692    TIP3     OH2      OT      -0.834000       15.9994           0
     59991 TIP3     16692    TIP3     H1       HT       0.417000       1.00800           0
     59992 TIP3     16692    TIP3     H2       HT       0.417000       1.00800           0
     59993 TIP3     16693    TIP3     OH2      OT      -0.834000       15.9994           0
     59994 TIP3     16693    TIP3     H1       HT       0.417000       1.00800           0
     59995 TIP3     16693    TIP3     H2       HT       0.417000       1.00800           0
     59996 TIP3     16694    TIP3     OH2      OT      -0.834000       15.9994           0
     59997 TIP3     16694    TIP3     H1       HT       0.417000       1.00800           0
     59998 TIP3     16694    TIP3     H2       HT       0.417000       1.00800           0
     59999 TIP3     16695    TIP3     OH2      OT      -0.834000       15.9994           0
     60000 TIP3     16695    TIP3     H1       HT       0.417000       1.00800           0
     60001 TIP3     16695    TIP3     H2       HT       0.417000       1.00800           0
     60002 TIP3     16696    TIP3     OH2      OT      -0.834000       15.9994           0
     60003 TIP3     16696    TIP3     H1       HT       0.417000       1.00800           0
     60004 TIP3     16696    TIP3     H2       HT       0.417000       1.00800           0
     60005 TIP3     16697    TIP3     OH2      OT      -0.834000       15.9994           0
     60006 TIP3     16697    TIP3     H1       HT       0.417000       1.00800           0
     60007 TIP3     16697    TIP3     H2       HT       0.417000       1.00800           0
     60008 TIP3     16698    TIP3     OH2      OT      -0.834000       15.9994           0
     60009 TIP3     16698    TIP3     H1       HT       0.417000       1.00800           0
     60010 TIP3     16698    TIP3     H2       HT       0.417000       1.00800           0
     60011 TIP3     16699    TIP3     OH2      OT      -0.834000       15.9994           0
     60012 TIP3     16699    TIP3     H1       HT       0.417000       1.00800           0
     60013 TIP3     16699    TIP3     H2       HT       0.417000       1.00800           0
     60014 TIP3     16700    TIP3     OH2      OT      -0.834000       15.9994           0
     60015 TIP3     16700    TIP3     H1       HT       0.417000       1.00800           0
     60016 TIP3     16700    TIP3     H2       HT       0.417000       1.00800           0
     60017 TIP3     16701    TIP3     OH2      OT      -0.834000       15.9994           0
     60018 TIP3     16701    TIP3     H1       HT       0.417000       1.00800           0
     60019 TIP3     16701    TIP3     H2       HT       0.417000       1.00800           0
     60020 TIP3     16702    TIP3     OH2      OT      -0.834000       15.9994           0
     60021 TIP3     16702    TIP3     H1       HT       0.417000       1.00800           0
     60022 TIP3     16702    TIP3     H2       HT       0.417000       1.00800           0
     60023 TIP3     16703    TIP3     OH2      OT      -0.834000       15.9994           0
     60024 TIP3     16703    TIP3     H1       HT       0.417000       1.00800           0
     60025 TIP3     16703    TIP3     H2       HT       0.417000       1.00800           0
     60026 TIP3     16704    TIP3     OH2      OT      -0.834000       15.9994           0
     60027 TIP3     16704    TIP3     H1       HT       0.417000       1.00800           0
     60028 TIP3     16704    TIP3     H2       HT       0.417000       1.00800           0
     60029 TIP3     16705    TIP3     OH2      OT      -0.834000       15.9994           0
     60030 TIP3     16705    TIP3     H1       HT       0.417000       1.00800           0
     60031 TIP3     16705    TIP3     H2       HT       0.417000       1.00800           0
     60032 TIP3     16706    TIP3     OH2      OT      -0.834000       15.9994           0
     60033 TIP3     16706    TIP3     H1       HT       0.417000       1.00800           0
     60034 TIP3     16706    TIP3     H2       HT       0.417000       1.00800           0
     60035 TIP3     16707    TIP3     OH2      OT      -0.834000       15.9994           0
     60036 TIP3     16707    TIP3     H1       HT       0.417000       1.00800           0
     60037 TIP3     16707    TIP3     H2       HT       0.417000       1.00800           0
     60038 TIP3     16708    TIP3     OH2      OT      -0.834000       15.9994           0
     60039 TIP3     16708    TIP3     H1       HT       0.417000       1.00800           0
     60040 TIP3     16708    TIP3     H2       HT       0.417000       1.00800           0
     60041 TIP3     16709    TIP3     OH2      OT      -0.834000       15.9994           0
     60042 TIP3     16709    TIP3     H1       HT       0.417000       1.00800           0
     60043 TIP3     16709    TIP3     H2       HT       0.417000       1.00800           0
     60044 TIP3     16710    TIP3     OH2      OT      -0.834000       15.9994           0
     60045 TIP3     16710    TIP3     H1       HT       0.417000       1.00800           0
     60046 TIP3     16710    TIP3     H2       HT       0.417000       1.00800           0
     60047 TIP3     16711    TIP3     OH2      OT      -0.834000       15.9994           0
     60048 TIP3     16711    TIP3     H1       HT       0.417000       1.00800           0
     60049 TIP3     16711    TIP3     H2       HT       0.417000       1.00800           0
     60050 TIP3     16712    TIP3     OH2      OT      -0.834000       15.9994           0
     60051 TIP3     16712    TIP3     H1       HT       0.417000       1.00800           0
     60052 TIP3     16712    TIP3     H2       HT       0.417000       1.00800           0
     60053 TIP3     16713    TIP3     OH2      OT      -0.834000       15.9994           0
     60054 TIP3     16713    TIP3     H1       HT       0.417000       1.00800           0
     60055 TIP3     16713    TIP3     H2       HT       0.417000       1.00800           0
     60056 TIP3     16714    TIP3     OH2      OT      -0.834000       15.9994           0
     60057 TIP3     16714    TIP3     H1       HT       0.417000       1.00800           0
     60058 TIP3     16714    TIP3     H2       HT       0.417000       1.00800           0
     60059 TIP3     16715    TIP3     OH2      OT      -0.834000       15.9994           0
     60060 TIP3     16715    TIP3     H1       HT       0.417000       1.00800           0
     60061 TIP3     16715    TIP3     H2       HT       0.417000       1.00800           0
     60062 TIP3     16716    TIP3     OH2      OT      -0.834000       15.9994           0
     60063 TIP3     16716    TIP3     H1       HT       0.417000       1.00800           0
     60064 TIP3     16716    TIP3     H2       HT       0.417000       1.00800           0
     60065 TIP3     16717    TIP3     OH2      OT      -0.834000       15.9994           0
     60066 TIP3     16717    TIP3     H1       HT       0.417000       1.00800           0
     60067 TIP3     16717    TIP3     H2       HT       0.417000       1.00800           0
     60068 TIP3     16718    TIP3     OH2      OT      -0.834000       15.9994           0
     60069 TIP3     16718    TIP3     H1       HT       0.417000       1.00800           0
     60070 TIP3     16718    TIP3     H2       HT       0.417000       1.00800           0
     60071 TIP3     16719    TIP3     OH2      OT      -0.834000       15.9994           0
     60072 TIP3     16719    TIP3     H1       HT       0.417000       1.00800           0
     60073 TIP3     16719    TIP3     H2       HT       0.417000       1.00800           0
     60074 TIP3     16720    TIP3     OH2      OT      -0.834000       15.9994           0
     60075 TIP3     16720    TIP3     H1       HT       0.417000       1.00800           0
     60076 TIP3     16720    TIP3     H2       HT       0.417000       1.00800           0
     60077 TIP3     16721    TIP3     OH2      OT      -0.834000       15.9994           0
     60078 TIP3     16721    TIP3     H1       HT       0.417000       1.00800           0
     60079 TIP3     16721    TIP3     H2       HT       0.417000       1.00800           0
     60080 TIP3     16722    TIP3     OH2      OT      -0.834000       15.9994           0
     60081 TIP3     16722    TIP3     H1       HT       0.417000       1.00800           0
     60082 TIP3     16722    TIP3     H2       HT       0.417000       1.00800           0
     60083 TIP3     16723    TIP3     OH2      OT      -0.834000       15.9994           0
     60084 TIP3     16723    TIP3     H1       HT       0.417000       1.00800           0
     60085 TIP3     16723    TIP3     H2       HT       0.417000       1.00800           0
     60086 TIP3     16724    TIP3     OH2      OT      -0.834000       15.9994           0
     60087 TIP3     16724    TIP3     H1       HT       0.417000       1.00800           0
     60088 TIP3     16724    TIP3     H2       HT       0.417000       1.00800           0
     60089 TIP3     16725    TIP3     OH2      OT      -0.834000       15.9994           0
     60090 TIP3     16725    TIP3     H1       HT       0.417000       1.00800           0
     60091 TIP3     16725    TIP3     H2       HT       0.417000       1.00800           0
     60092 TIP3     16726    TIP3     OH2      OT      -0.834000       15.9994           0
     60093 TIP3     16726    TIP3     H1       HT       0.417000       1.00800           0
     60094 TIP3     16726    TIP3     H2       HT       0.417000       1.00800           0
     60095 TIP3     16727    TIP3     OH2      OT      -0.834000       15.9994           0
     60096 TIP3     16727    TIP3     H1       HT       0.417000       1.00800           0
     60097 TIP3     16727    TIP3     H2       HT       0.417000       1.00800           0
     60098 TIP3     16728    TIP3     OH2      OT      -0.834000       15.9994           0
     60099 TIP3     16728    TIP3     H1       HT       0.417000       1.00800           0
     60100 TIP3     16728    TIP3     H2       HT       0.417000       1.00800           0
     60101 TIP3     16729    TIP3     OH2      OT      -0.834000       15.9994           0
     60102 TIP3     16729    TIP3     H1       HT       0.417000       1.00800           0
     60103 TIP3     16729    TIP3     H2       HT       0.417000       1.00800           0
     60104 TIP3     16730    TIP3     OH2      OT      -0.834000       15.9994           0
     60105 TIP3     16730    TIP3     H1       HT       0.417000       1.00800           0
     60106 TIP3     16730    TIP3     H2       HT       0.417000       1.00800           0
     60107 TIP3     16731    TIP3     OH2      OT      -0.834000       15.9994           0
     60108 TIP3     16731    TIP3     H1       HT       0.417000       1.00800           0
     60109 TIP3     16731    TIP3     H2       HT       0.417000       1.00800           0
     60110 TIP3     16732    TIP3     OH2      OT      -0.834000       15.9994           0
     60111 TIP3     16732    TIP3     H1       HT       0.417000       1.00800           0
     60112 TIP3     16732    TIP3     H2       HT       0.417000       1.00800           0
     60113 TIP3     16733    TIP3     OH2      OT      -0.834000       15.9994           0
     60114 TIP3     16733    TIP3     H1       HT       0.417000       1.00800           0
     60115 TIP3     16733    TIP3     H2       HT       0.417000       1.00800           0
     60116 TIP3     16734    TIP3     OH2      OT      -0.834000       15.9994           0
     60117 TIP3     16734    TIP3     H1       HT       0.417000       1.00800           0
     60118 TIP3     16734    TIP3     H2       HT       0.417000       1.00800           0
     60119 TIP3     16735    TIP3     OH2      OT      -0.834000       15.9994           0
     60120 TIP3     16735    TIP3     H1       HT       0.417000       1.00800           0
     60121 TIP3     16735    TIP3     H2       HT       0.417000       1.00800           0
     60122 TIP3     16736    TIP3     OH2      OT      -0.834000       15.9994           0
     60123 TIP3     16736    TIP3     H1       HT       0.417000       1.00800           0
     60124 TIP3     16736    TIP3     H2       HT       0.417000       1.00800           0
     60125 TIP3     16737    TIP3     OH2      OT      -0.834000       15.9994           0
     60126 TIP3     16737    TIP3     H1       HT       0.417000       1.00800           0
     60127 TIP3     16737    TIP3     H2       HT       0.417000       1.00800           0
     60128 TIP3     16738    TIP3     OH2      OT      -0.834000       15.9994           0
     60129 TIP3     16738    TIP3     H1       HT       0.417000       1.00800           0
     60130 TIP3     16738    TIP3     H2       HT       0.417000       1.00800           0
     60131 TIP3     16739    TIP3     OH2      OT      -0.834000       15.9994           0
     60132 TIP3     16739    TIP3     H1       HT       0.417000       1.00800           0
     60133 TIP3     16739    TIP3     H2       HT       0.417000       1.00800           0
     60134 TIP3     16740    TIP3     OH2      OT      -0.834000       15.9994           0
     60135 TIP3     16740    TIP3     H1       HT       0.417000       1.00800           0
     60136 TIP3     16740    TIP3     H2       HT       0.417000       1.00800           0
     60137 TIP3     16741    TIP3     OH2      OT      -0.834000       15.9994           0
     60138 TIP3     16741    TIP3     H1       HT       0.417000       1.00800           0
     60139 TIP3     16741    TIP3     H2       HT       0.417000       1.00800           0
     60140 TIP3     16742    TIP3     OH2      OT      -0.834000       15.9994           0
     60141 TIP3     16742    TIP3     H1       HT       0.417000       1.00800           0
     60142 TIP3     16742    TIP3     H2       HT       0.417000       1.00800           0
     60143 TIP3     16743    TIP3     OH2      OT      -0.834000       15.9994           0
     60144 TIP3     16743    TIP3     H1       HT       0.417000       1.00800           0
     60145 TIP3     16743    TIP3     H2       HT       0.417000       1.00800           0
     60146 TIP3     16744    TIP3     OH2      OT      -0.834000       15.9994           0
     60147 TIP3     16744    TIP3     H1       HT       0.417000       1.00800           0
     60148 TIP3     16744    TIP3     H2       HT       0.417000       1.00800           0
     60149 TIP3     16745    TIP3     OH2      OT      -0.834000       15.9994           0
     60150 TIP3     16745    TIP3     H1       HT       0.417000       1.00800           0
     60151 TIP3     16745    TIP3     H2       HT       0.417000       1.00800           0
     60152 TIP3     16746    TIP3     OH2      OT      -0.834000       15.9994           0
     60153 TIP3     16746    TIP3     H1       HT       0.417000       1.00800           0
     60154 TIP3     16746    TIP3     H2       HT       0.417000       1.00800           0
     60155 TIP3     16747    TIP3     OH2      OT      -0.834000       15.9994           0
     60156 TIP3     16747    TIP3     H1       HT       0.417000       1.00800           0
     60157 TIP3     16747    TIP3     H2       HT       0.417000       1.00800           0
     60158 TIP3     16748    TIP3     OH2      OT      -0.834000       15.9994           0
     60159 TIP3     16748    TIP3     H1       HT       0.417000       1.00800           0
     60160 TIP3     16748    TIP3     H2       HT       0.417000       1.00800           0
     60161 TIP3     16749    TIP3     OH2      OT      -0.834000       15.9994           0
     60162 TIP3     16749    TIP3     H1       HT       0.417000       1.00800           0
     60163 TIP3     16749    TIP3     H2       HT       0.417000       1.00800           0
     60164 TIP3     16750    TIP3     OH2      OT      -0.834000       15.9994           0
     60165 TIP3     16750    TIP3     H1       HT       0.417000       1.00800           0
     60166 TIP3     16750    TIP3     H2       HT       0.417000       1.00800           0
     60167 TIP3     16751    TIP3     OH2      OT      -0.834000       15.9994           0
     60168 TIP3     16751    TIP3     H1       HT       0.417000       1.00800           0
     60169 TIP3     16751    TIP3     H2       HT       0.417000       1.00800           0
     60170 TIP3     16752    TIP3     OH2      OT      -0.834000       15.9994           0
     60171 TIP3     16752    TIP3     H1       HT       0.417000       1.00800           0
     60172 TIP3     16752    TIP3     H2       HT       0.417000       1.00800           0
     60173 TIP3     16753    TIP3     OH2      OT      -0.834000       15.9994           0
     60174 TIP3     16753    TIP3     H1       HT       0.417000       1.00800           0
     60175 TIP3     16753    TIP3     H2       HT       0.417000       1.00800           0
     60176 TIP3     16754    TIP3     OH2      OT      -0.834000       15.9994           0
     60177 TIP3     16754    TIP3     H1       HT       0.417000       1.00800           0
     60178 TIP3     16754    TIP3     H2       HT       0.417000       1.00800           0
     60179 TIP3     16755    TIP3     OH2      OT      -0.834000       15.9994           0
     60180 TIP3     16755    TIP3     H1       HT       0.417000       1.00800           0
     60181 TIP3     16755    TIP3     H2       HT       0.417000       1.00800           0
     60182 TIP3     16756    TIP3     OH2      OT      -0.834000       15.9994           0
     60183 TIP3     16756    TIP3     H1       HT       0.417000       1.00800           0
     60184 TIP3     16756    TIP3     H2       HT       0.417000       1.00800           0
     60185 TIP3     16757    TIP3     OH2      OT      -0.834000       15.9994           0
     60186 TIP3     16757    TIP3     H1       HT       0.417000       1.00800           0
     60187 TIP3     16757    TIP3     H2       HT       0.417000       1.00800           0
     60188 TIP3     16758    TIP3     OH2      OT      -0.834000       15.9994           0
     60189 TIP3     16758    TIP3     H1       HT       0.417000       1.00800           0
     60190 TIP3     16758    TIP3     H2       HT       0.417000       1.00800           0
     60191 TIP3     16759    TIP3     OH2      OT      -0.834000       15.9994           0
     60192 TIP3     16759    TIP3     H1       HT       0.417000       1.00800           0
     60193 TIP3     16759    TIP3     H2       HT       0.417000       1.00800           0
     60194 TIP3     16760    TIP3     OH2      OT      -0.834000       15.9994           0
     60195 TIP3     16760    TIP3     H1       HT       0.417000       1.00800           0
     60196 TIP3     16760    TIP3     H2       HT       0.417000       1.00800           0
     60197 TIP3     16761    TIP3     OH2      OT      -0.834000       15.9994           0
     60198 TIP3     16761    TIP3     H1       HT       0.417000       1.00800           0
     60199 TIP3     16761    TIP3     H2       HT       0.417000       1.00800           0
     60200 TIP3     16762    TIP3     OH2      OT      -0.834000       15.9994           0
     60201 TIP3     16762    TIP3     H1       HT       0.417000       1.00800           0
     60202 TIP3     16762    TIP3     H2       HT       0.417000       1.00800           0
     60203 TIP3     16763    TIP3     OH2      OT      -0.834000       15.9994           0
     60204 TIP3     16763    TIP3     H1       HT       0.417000       1.00800           0
     60205 TIP3     16763    TIP3     H2       HT       0.417000       1.00800           0
     60206 TIP3     16764    TIP3     OH2      OT      -0.834000       15.9994           0
     60207 TIP3     16764    TIP3     H1       HT       0.417000       1.00800           0
     60208 TIP3     16764    TIP3     H2       HT       0.417000       1.00800           0
     60209 TIP3     16765    TIP3     OH2      OT      -0.834000       15.9994           0
     60210 TIP3     16765    TIP3     H1       HT       0.417000       1.00800           0
     60211 TIP3     16765    TIP3     H2       HT       0.417000       1.00800           0
     60212 TIP3     16766    TIP3     OH2      OT      -0.834000       15.9994           0
     60213 TIP3     16766    TIP3     H1       HT       0.417000       1.00800           0
     60214 TIP3     16766    TIP3     H2       HT       0.417000       1.00800           0
     60215 TIP3     16767    TIP3     OH2      OT      -0.834000       15.9994           0
     60216 TIP3     16767    TIP3     H1       HT       0.417000       1.00800           0
     60217 TIP3     16767    TIP3     H2       HT       0.417000       1.00800           0
     60218 TIP3     16768    TIP3     OH2      OT      -0.834000       15.9994           0
     60219 TIP3     16768    TIP3     H1       HT       0.417000       1.00800           0
     60220 TIP3     16768    TIP3     H2       HT       0.417000       1.00800           0
     60221 TIP3     16769    TIP3     OH2      OT      -0.834000       15.9994           0
     60222 TIP3     16769    TIP3     H1       HT       0.417000       1.00800           0
     60223 TIP3     16769    TIP3     H2       HT       0.417000       1.00800           0
     60224 TIP3     16770    TIP3     OH2      OT      -0.834000       15.9994           0
     60225 TIP3     16770    TIP3     H1       HT       0.417000       1.00800           0
     60226 TIP3     16770    TIP3     H2       HT       0.417000       1.00800           0
     60227 TIP3     16771    TIP3     OH2      OT      -0.834000       15.9994           0
     60228 TIP3     16771    TIP3     H1       HT       0.417000       1.00800           0
     60229 TIP3     16771    TIP3     H2       HT       0.417000       1.00800           0
     60230 TIP3     16772    TIP3     OH2      OT      -0.834000       15.9994           0
     60231 TIP3     16772    TIP3     H1       HT       0.417000       1.00800           0
     60232 TIP3     16772    TIP3     H2       HT       0.417000       1.00800           0
     60233 TIP3     16773    TIP3     OH2      OT      -0.834000       15.9994           0
     60234 TIP3     16773    TIP3     H1       HT       0.417000       1.00800           0
     60235 TIP3     16773    TIP3     H2       HT       0.417000       1.00800           0
     60236 TIP3     16774    TIP3     OH2      OT      -0.834000       15.9994           0
     60237 TIP3     16774    TIP3     H1       HT       0.417000       1.00800           0
     60238 TIP3     16774    TIP3     H2       HT       0.417000       1.00800           0
     60239 TIP3     16775    TIP3     OH2      OT      -0.834000       15.9994           0
     60240 TIP3     16775    TIP3     H1       HT       0.417000       1.00800           0
     60241 TIP3     16775    TIP3     H2       HT       0.417000       1.00800           0
     60242 TIP3     16776    TIP3     OH2      OT      -0.834000       15.9994           0
     60243 TIP3     16776    TIP3     H1       HT       0.417000       1.00800           0
     60244 TIP3     16776    TIP3     H2       HT       0.417000       1.00800           0
     60245 TIP3     16777    TIP3     OH2      OT      -0.834000       15.9994           0
     60246 TIP3     16777    TIP3     H1       HT       0.417000       1.00800           0
     60247 TIP3     16777    TIP3     H2       HT       0.417000       1.00800           0
     60248 TIP3     16778    TIP3     OH2      OT      -0.834000       15.9994           0
     60249 TIP3     16778    TIP3     H1       HT       0.417000       1.00800           0
     60250 TIP3     16778    TIP3     H2       HT       0.417000       1.00800           0
     60251 TIP3     16779    TIP3     OH2      OT      -0.834000       15.9994           0
     60252 TIP3     16779    TIP3     H1       HT       0.417000       1.00800           0
     60253 TIP3     16779    TIP3     H2       HT       0.417000       1.00800           0
     60254 TIP3     16780    TIP3     OH2      OT      -0.834000       15.9994           0
     60255 TIP3     16780    TIP3     H1       HT       0.417000       1.00800           0
     60256 TIP3     16780    TIP3     H2       HT       0.417000       1.00800           0
     60257 TIP3     16781    TIP3     OH2      OT      -0.834000       15.9994           0
     60258 TIP3     16781    TIP3     H1       HT       0.417000       1.00800           0
     60259 TIP3     16781    TIP3     H2       HT       0.417000       1.00800           0
     60260 TIP3     16782    TIP3     OH2      OT      -0.834000       15.9994           0
     60261 TIP3     16782    TIP3     H1       HT       0.417000       1.00800           0
     60262 TIP3     16782    TIP3     H2       HT       0.417000       1.00800           0
     60263 TIP3     16783    TIP3     OH2      OT      -0.834000       15.9994           0
     60264 TIP3     16783    TIP3     H1       HT       0.417000       1.00800           0
     60265 TIP3     16783    TIP3     H2       HT       0.417000       1.00800           0
     60266 TIP3     16784    TIP3     OH2      OT      -0.834000       15.9994           0
     60267 TIP3     16784    TIP3     H1       HT       0.417000       1.00800           0
     60268 TIP3     16784    TIP3     H2       HT       0.417000       1.00800           0
     60269 TIP3     16785    TIP3     OH2      OT      -0.834000       15.9994           0
     60270 TIP3     16785    TIP3     H1       HT       0.417000       1.00800           0
     60271 TIP3     16785    TIP3     H2       HT       0.417000       1.00800           0
     60272 TIP3     16786    TIP3     OH2      OT      -0.834000       15.9994           0
     60273 TIP3     16786    TIP3     H1       HT       0.417000       1.00800           0
     60274 TIP3     16786    TIP3     H2       HT       0.417000       1.00800           0
     60275 TIP3     16787    TIP3     OH2      OT      -0.834000       15.9994           0
     60276 TIP3     16787    TIP3     H1       HT       0.417000       1.00800           0
     60277 TIP3     16787    TIP3     H2       HT       0.417000       1.00800           0
     60278 TIP3     16788    TIP3     OH2      OT      -0.834000       15.9994           0
     60279 TIP3     16788    TIP3     H1       HT       0.417000       1.00800           0
     60280 TIP3     16788    TIP3     H2       HT       0.417000       1.00800           0
     60281 TIP3     16789    TIP3     OH2      OT      -0.834000       15.9994           0
     60282 TIP3     16789    TIP3     H1       HT       0.417000       1.00800           0
     60283 TIP3     16789    TIP3     H2       HT       0.417000       1.00800           0
     60284 TIP3     16790    TIP3     OH2      OT      -0.834000       15.9994           0
     60285 TIP3     16790    TIP3     H1       HT       0.417000       1.00800           0
     60286 TIP3     16790    TIP3     H2       HT       0.417000       1.00800           0
     60287 TIP3     16791    TIP3     OH2      OT      -0.834000       15.9994           0
     60288 TIP3     16791    TIP3     H1       HT       0.417000       1.00800           0
     60289 TIP3     16791    TIP3     H2       HT       0.417000       1.00800           0
     60290 TIP3     16792    TIP3     OH2      OT      -0.834000       15.9994           0
     60291 TIP3     16792    TIP3     H1       HT       0.417000       1.00800           0
     60292 TIP3     16792    TIP3     H2       HT       0.417000       1.00800           0
     60293 TIP3     16793    TIP3     OH2      OT      -0.834000       15.9994           0
     60294 TIP3     16793    TIP3     H1       HT       0.417000       1.00800           0
     60295 TIP3     16793    TIP3     H2       HT       0.417000       1.00800           0
     60296 TIP3     16794    TIP3     OH2      OT      -0.834000       15.9994           0
     60297 TIP3     16794    TIP3     H1       HT       0.417000       1.00800           0
     60298 TIP3     16794    TIP3     H2       HT       0.417000       1.00800           0
     60299 TIP3     16795    TIP3     OH2      OT      -0.834000       15.9994           0
     60300 TIP3     16795    TIP3     H1       HT       0.417000       1.00800           0
     60301 TIP3     16795    TIP3     H2       HT       0.417000       1.00800           0
     60302 TIP3     16796    TIP3     OH2      OT      -0.834000       15.9994           0
     60303 TIP3     16796    TIP3     H1       HT       0.417000       1.00800           0
     60304 TIP3     16796    TIP3     H2       HT       0.417000       1.00800           0
     60305 TIP3     16797    TIP3     OH2      OT      -0.834000       15.9994           0
     60306 TIP3     16797    TIP3     H1       HT       0.417000       1.00800           0
     60307 TIP3     16797    TIP3     H2       HT       0.417000       1.00800           0
     60308 TIP3     16798    TIP3     OH2      OT      -0.834000       15.9994           0
     60309 TIP3     16798    TIP3     H1       HT       0.417000       1.00800           0
     60310 TIP3     16798    TIP3     H2       HT       0.417000       1.00800           0
     60311 TIP3     16799    TIP3     OH2      OT      -0.834000       15.9994           0
     60312 TIP3     16799    TIP3     H1       HT       0.417000       1.00800           0
     60313 TIP3     16799    TIP3     H2       HT       0.417000       1.00800           0
     60314 TIP3     16800    TIP3     OH2      OT      -0.834000       15.9994           0
     60315 TIP3     16800    TIP3     H1       HT       0.417000       1.00800           0
     60316 TIP3     16800    TIP3     H2       HT       0.417000       1.00800           0
     60317 TIP3     16801    TIP3     OH2      OT      -0.834000       15.9994           0
     60318 TIP3     16801    TIP3     H1       HT       0.417000       1.00800           0
     60319 TIP3     16801    TIP3     H2       HT       0.417000       1.00800           0
     60320 TIP3     16802    TIP3     OH2      OT      -0.834000       15.9994           0
     60321 TIP3     16802    TIP3     H1       HT       0.417000       1.00800           0
     60322 TIP3     16802    TIP3     H2       HT       0.417000       1.00800           0
     60323 TIP3     16803    TIP3     OH2      OT      -0.834000       15.9994           0
     60324 TIP3     16803    TIP3     H1       HT       0.417000       1.00800           0
     60325 TIP3     16803    TIP3     H2       HT       0.417000       1.00800           0
     60326 TIP3     16804    TIP3     OH2      OT      -0.834000       15.9994           0
     60327 TIP3     16804    TIP3     H1       HT       0.417000       1.00800           0
     60328 TIP3     16804    TIP3     H2       HT       0.417000       1.00800           0
     60329 TIP3     16805    TIP3     OH2      OT      -0.834000       15.9994           0
     60330 TIP3     16805    TIP3     H1       HT       0.417000       1.00800           0
     60331 TIP3     16805    TIP3     H2       HT       0.417000       1.00800           0
     60332 TIP3     16806    TIP3     OH2      OT      -0.834000       15.9994           0
     60333 TIP3     16806    TIP3     H1       HT       0.417000       1.00800           0
     60334 TIP3     16806    TIP3     H2       HT       0.417000       1.00800           0
     60335 TIP3     16807    TIP3     OH2      OT      -0.834000       15.9994           0
     60336 TIP3     16807    TIP3     H1       HT       0.417000       1.00800           0
     60337 TIP3     16807    TIP3     H2       HT       0.417000       1.00800           0
     60338 TIP3     16808    TIP3     OH2      OT      -0.834000       15.9994           0
     60339 TIP3     16808    TIP3     H1       HT       0.417000       1.00800           0
     60340 TIP3     16808    TIP3     H2       HT       0.417000       1.00800           0
     60341 TIP3     16809    TIP3     OH2      OT      -0.834000       15.9994           0
     60342 TIP3     16809    TIP3     H1       HT       0.417000       1.00800           0
     60343 TIP3     16809    TIP3     H2       HT       0.417000       1.00800           0
     60344 TIP3     16810    TIP3     OH2      OT      -0.834000       15.9994           0
     60345 TIP3     16810    TIP3     H1       HT       0.417000       1.00800           0
     60346 TIP3     16810    TIP3     H2       HT       0.417000       1.00800           0
     60347 TIP3     16811    TIP3     OH2      OT      -0.834000       15.9994           0
     60348 TIP3     16811    TIP3     H1       HT       0.417000       1.00800           0
     60349 TIP3     16811    TIP3     H2       HT       0.417000       1.00800           0
     60350 TIP3     16812    TIP3     OH2      OT      -0.834000       15.9994           0
     60351 TIP3     16812    TIP3     H1       HT       0.417000       1.00800           0
     60352 TIP3     16812    TIP3     H2       HT       0.417000       1.00800           0
     60353 TIP3     16813    TIP3     OH2      OT      -0.834000       15.9994           0
     60354 TIP3     16813    TIP3     H1       HT       0.417000       1.00800           0
     60355 TIP3     16813    TIP3     H2       HT       0.417000       1.00800           0
     60356 TIP3     16814    TIP3     OH2      OT      -0.834000       15.9994           0
     60357 TIP3     16814    TIP3     H1       HT       0.417000       1.00800           0
     60358 TIP3     16814    TIP3     H2       HT       0.417000       1.00800           0
     60359 TIP3     16815    TIP3     OH2      OT      -0.834000       15.9994           0
     60360 TIP3     16815    TIP3     H1       HT       0.417000       1.00800           0
     60361 TIP3     16815    TIP3     H2       HT       0.417000       1.00800           0
     60362 TIP3     16816    TIP3     OH2      OT      -0.834000       15.9994           0
     60363 TIP3     16816    TIP3     H1       HT       0.417000       1.00800           0
     60364 TIP3     16816    TIP3     H2       HT       0.417000       1.00800           0
     60365 TIP3     16817    TIP3     OH2      OT      -0.834000       15.9994           0
     60366 TIP3     16817    TIP3     H1       HT       0.417000       1.00800           0
     60367 TIP3     16817    TIP3     H2       HT       0.417000       1.00800           0
     60368 TIP3     16818    TIP3     OH2      OT      -0.834000       15.9994           0
     60369 TIP3     16818    TIP3     H1       HT       0.417000       1.00800           0
     60370 TIP3     16818    TIP3     H2       HT       0.417000       1.00800           0
     60371 TIP3     16819    TIP3     OH2      OT      -0.834000       15.9994           0
     60372 TIP3     16819    TIP3     H1       HT       0.417000       1.00800           0
     60373 TIP3     16819    TIP3     H2       HT       0.417000       1.00800           0
     60374 TIP3     16820    TIP3     OH2      OT      -0.834000       15.9994           0
     60375 TIP3     16820    TIP3     H1       HT       0.417000       1.00800           0
     60376 TIP3     16820    TIP3     H2       HT       0.417000       1.00800           0
     60377 TIP3     16821    TIP3     OH2      OT      -0.834000       15.9994           0
     60378 TIP3     16821    TIP3     H1       HT       0.417000       1.00800           0
     60379 TIP3     16821    TIP3     H2       HT       0.417000       1.00800           0
     60380 TIP3     16822    TIP3     OH2      OT      -0.834000       15.9994           0
     60381 TIP3     16822    TIP3     H1       HT       0.417000       1.00800           0
     60382 TIP3     16822    TIP3     H2       HT       0.417000       1.00800           0
     60383 TIP3     16823    TIP3     OH2      OT      -0.834000       15.9994           0
     60384 TIP3     16823    TIP3     H1       HT       0.417000       1.00800           0
     60385 TIP3     16823    TIP3     H2       HT       0.417000       1.00800           0
     60386 TIP3     16824    TIP3     OH2      OT      -0.834000       15.9994           0
     60387 TIP3     16824    TIP3     H1       HT       0.417000       1.00800           0
     60388 TIP3     16824    TIP3     H2       HT       0.417000       1.00800           0
     60389 TIP3     16825    TIP3     OH2      OT      -0.834000       15.9994           0
     60390 TIP3     16825    TIP3     H1       HT       0.417000       1.00800           0
     60391 TIP3     16825    TIP3     H2       HT       0.417000       1.00800           0
     60392 TIP3     16826    TIP3     OH2      OT      -0.834000       15.9994           0
     60393 TIP3     16826    TIP3     H1       HT       0.417000       1.00800           0
     60394 TIP3     16826    TIP3     H2       HT       0.417000       1.00800           0
     60395 TIP3     16827    TIP3     OH2      OT      -0.834000       15.9994           0
     60396 TIP3     16827    TIP3     H1       HT       0.417000       1.00800           0
     60397 TIP3     16827    TIP3     H2       HT       0.417000       1.00800           0
     60398 TIP3     16828    TIP3     OH2      OT      -0.834000       15.9994           0
     60399 TIP3     16828    TIP3     H1       HT       0.417000       1.00800           0
     60400 TIP3     16828    TIP3     H2       HT       0.417000       1.00800           0
     60401 TIP3     16829    TIP3     OH2      OT      -0.834000       15.9994           0
     60402 TIP3     16829    TIP3     H1       HT       0.417000       1.00800           0
     60403 TIP3     16829    TIP3     H2       HT       0.417000       1.00800           0
     60404 TIP3     16830    TIP3     OH2      OT      -0.834000       15.9994           0
     60405 TIP3     16830    TIP3     H1       HT       0.417000       1.00800           0
     60406 TIP3     16830    TIP3     H2       HT       0.417000       1.00800           0
     60407 TIP3     16831    TIP3     OH2      OT      -0.834000       15.9994           0
     60408 TIP3     16831    TIP3     H1       HT       0.417000       1.00800           0
     60409 TIP3     16831    TIP3     H2       HT       0.417000       1.00800           0
     60410 TIP3     16832    TIP3     OH2      OT      -0.834000       15.9994           0
     60411 TIP3     16832    TIP3     H1       HT       0.417000       1.00800           0
     60412 TIP3     16832    TIP3     H2       HT       0.417000       1.00800           0
     60413 TIP3     16833    TIP3     OH2      OT      -0.834000       15.9994           0
     60414 TIP3     16833    TIP3     H1       HT       0.417000       1.00800           0
     60415 TIP3     16833    TIP3     H2       HT       0.417000       1.00800           0
     60416 TIP3     16834    TIP3     OH2      OT      -0.834000       15.9994           0
     60417 TIP3     16834    TIP3     H1       HT       0.417000       1.00800           0
     60418 TIP3     16834    TIP3     H2       HT       0.417000       1.00800           0
     60419 TIP3     16835    TIP3     OH2      OT      -0.834000       15.9994           0
     60420 TIP3     16835    TIP3     H1       HT       0.417000       1.00800           0
     60421 TIP3     16835    TIP3     H2       HT       0.417000       1.00800           0
     60422 TIP3     16836    TIP3     OH2      OT      -0.834000       15.9994           0
     60423 TIP3     16836    TIP3     H1       HT       0.417000       1.00800           0
     60424 TIP3     16836    TIP3     H2       HT       0.417000       1.00800           0
     60425 TIP3     16837    TIP3     OH2      OT      -0.834000       15.9994           0
     60426 TIP3     16837    TIP3     H1       HT       0.417000       1.00800           0
     60427 TIP3     16837    TIP3     H2       HT       0.417000       1.00800           0
     60428 TIP3     16838    TIP3     OH2      OT      -0.834000       15.9994           0
     60429 TIP3     16838    TIP3     H1       HT       0.417000       1.00800           0
     60430 TIP3     16838    TIP3     H2       HT       0.417000       1.00800           0
     60431 TIP3     16839    TIP3     OH2      OT      -0.834000       15.9994           0
     60432 TIP3     16839    TIP3     H1       HT       0.417000       1.00800           0
     60433 TIP3     16839    TIP3     H2       HT       0.417000       1.00800           0
     60434 TIP3     16840    TIP3     OH2      OT      -0.834000       15.9994           0
     60435 TIP3     16840    TIP3     H1       HT       0.417000       1.00800           0
     60436 TIP3     16840    TIP3     H2       HT       0.417000       1.00800           0
     60437 TIP3     16841    TIP3     OH2      OT      -0.834000       15.9994           0
     60438 TIP3     16841    TIP3     H1       HT       0.417000       1.00800           0
     60439 TIP3     16841    TIP3     H2       HT       0.417000       1.00800           0
     60440 TIP3     16842    TIP3     OH2      OT      -0.834000       15.9994           0
     60441 TIP3     16842    TIP3     H1       HT       0.417000       1.00800           0
     60442 TIP3     16842    TIP3     H2       HT       0.417000       1.00800           0
     60443 TIP3     16843    TIP3     OH2      OT      -0.834000       15.9994           0
     60444 TIP3     16843    TIP3     H1       HT       0.417000       1.00800           0
     60445 TIP3     16843    TIP3     H2       HT       0.417000       1.00800           0
     60446 TIP3     16844    TIP3     OH2      OT      -0.834000       15.9994           0
     60447 TIP3     16844    TIP3     H1       HT       0.417000       1.00800           0
     60448 TIP3     16844    TIP3     H2       HT       0.417000       1.00800           0
     60449 TIP3     16845    TIP3     OH2      OT      -0.834000       15.9994           0
     60450 TIP3     16845    TIP3     H1       HT       0.417000       1.00800           0
     60451 TIP3     16845    TIP3     H2       HT       0.417000       1.00800           0
     60452 TIP3     16846    TIP3     OH2      OT      -0.834000       15.9994           0
     60453 TIP3     16846    TIP3     H1       HT       0.417000       1.00800           0
     60454 TIP3     16846    TIP3     H2       HT       0.417000       1.00800           0
     60455 TIP3     16847    TIP3     OH2      OT      -0.834000       15.9994           0
     60456 TIP3     16847    TIP3     H1       HT       0.417000       1.00800           0
     60457 TIP3     16847    TIP3     H2       HT       0.417000       1.00800           0
     60458 TIP3     16848    TIP3     OH2      OT      -0.834000       15.9994           0
     60459 TIP3     16848    TIP3     H1       HT       0.417000       1.00800           0
     60460 TIP3     16848    TIP3     H2       HT       0.417000       1.00800           0
     60461 TIP3     16849    TIP3     OH2      OT      -0.834000       15.9994           0
     60462 TIP3     16849    TIP3     H1       HT       0.417000       1.00800           0
     60463 TIP3     16849    TIP3     H2       HT       0.417000       1.00800           0
     60464 TIP3     16850    TIP3     OH2      OT      -0.834000       15.9994           0
     60465 TIP3     16850    TIP3     H1       HT       0.417000       1.00800           0
     60466 TIP3     16850    TIP3     H2       HT       0.417000       1.00800           0
     60467 TIP3     16851    TIP3     OH2      OT      -0.834000       15.9994           0
     60468 TIP3     16851    TIP3     H1       HT       0.417000       1.00800           0
     60469 TIP3     16851    TIP3     H2       HT       0.417000       1.00800           0
     60470 TIP3     16852    TIP3     OH2      OT      -0.834000       15.9994           0
     60471 TIP3     16852    TIP3     H1       HT       0.417000       1.00800           0
     60472 TIP3     16852    TIP3     H2       HT       0.417000       1.00800           0
     60473 TIP3     16853    TIP3     OH2      OT      -0.834000       15.9994           0
     60474 TIP3     16853    TIP3     H1       HT       0.417000       1.00800           0
     60475 TIP3     16853    TIP3     H2       HT       0.417000       1.00800           0
     60476 TIP3     16854    TIP3     OH2      OT      -0.834000       15.9994           0
     60477 TIP3     16854    TIP3     H1       HT       0.417000       1.00800           0
     60478 TIP3     16854    TIP3     H2       HT       0.417000       1.00800           0
     60479 TIP3     16855    TIP3     OH2      OT      -0.834000       15.9994           0
     60480 TIP3     16855    TIP3     H1       HT       0.417000       1.00800           0
     60481 TIP3     16855    TIP3     H2       HT       0.417000       1.00800           0
     60482 TIP3     16856    TIP3     OH2      OT      -0.834000       15.9994           0
     60483 TIP3     16856    TIP3     H1       HT       0.417000       1.00800           0
     60484 TIP3     16856    TIP3     H2       HT       0.417000       1.00800           0
     60485 TIP3     16857    TIP3     OH2      OT      -0.834000       15.9994           0
     60486 TIP3     16857    TIP3     H1       HT       0.417000       1.00800           0
     60487 TIP3     16857    TIP3     H2       HT       0.417000       1.00800           0
     60488 TIP3     16858    TIP3     OH2      OT      -0.834000       15.9994           0
     60489 TIP3     16858    TIP3     H1       HT       0.417000       1.00800           0
     60490 TIP3     16858    TIP3     H2       HT       0.417000       1.00800           0
     60491 TIP3     16859    TIP3     OH2      OT      -0.834000       15.9994           0
     60492 TIP3     16859    TIP3     H1       HT       0.417000       1.00800           0
     60493 TIP3     16859    TIP3     H2       HT       0.417000       1.00800           0
     60494 TIP3     16860    TIP3     OH2      OT      -0.834000       15.9994           0
     60495 TIP3     16860    TIP3     H1       HT       0.417000       1.00800           0
     60496 TIP3     16860    TIP3     H2       HT       0.417000       1.00800           0
     60497 TIP3     16861    TIP3     OH2      OT      -0.834000       15.9994           0
     60498 TIP3     16861    TIP3     H1       HT       0.417000       1.00800           0
     60499 TIP3     16861    TIP3     H2       HT       0.417000       1.00800           0
     60500 TIP3     16862    TIP3     OH2      OT      -0.834000       15.9994           0
     60501 TIP3     16862    TIP3     H1       HT       0.417000       1.00800           0
     60502 TIP3     16862    TIP3     H2       HT       0.417000       1.00800           0
     60503 TIP3     16863    TIP3     OH2      OT      -0.834000       15.9994           0
     60504 TIP3     16863    TIP3     H1       HT       0.417000       1.00800           0
     60505 TIP3     16863    TIP3     H2       HT       0.417000       1.00800           0
     60506 TIP3     16864    TIP3     OH2      OT      -0.834000       15.9994           0
     60507 TIP3     16864    TIP3     H1       HT       0.417000       1.00800           0
     60508 TIP3     16864    TIP3     H2       HT       0.417000       1.00800           0
     60509 TIP3     16865    TIP3     OH2      OT      -0.834000       15.9994           0
     60510 TIP3     16865    TIP3     H1       HT       0.417000       1.00800           0
     60511 TIP3     16865    TIP3     H2       HT       0.417000       1.00800           0
     60512 TIP3     16866    TIP3     OH2      OT      -0.834000       15.9994           0
     60513 TIP3     16866    TIP3     H1       HT       0.417000       1.00800           0
     60514 TIP3     16866    TIP3     H2       HT       0.417000       1.00800           0
     60515 TIP3     16867    TIP3     OH2      OT      -0.834000       15.9994           0
     60516 TIP3     16867    TIP3     H1       HT       0.417000       1.00800           0
     60517 TIP3     16867    TIP3     H2       HT       0.417000       1.00800           0
     60518 TIP3     16868    TIP3     OH2      OT      -0.834000       15.9994           0
     60519 TIP3     16868    TIP3     H1       HT       0.417000       1.00800           0
     60520 TIP3     16868    TIP3     H2       HT       0.417000       1.00800           0
     60521 TIP3     16869    TIP3     OH2      OT      -0.834000       15.9994           0
     60522 TIP3     16869    TIP3     H1       HT       0.417000       1.00800           0
     60523 TIP3     16869    TIP3     H2       HT       0.417000       1.00800           0
     60524 TIP3     16870    TIP3     OH2      OT      -0.834000       15.9994           0
     60525 TIP3     16870    TIP3     H1       HT       0.417000       1.00800           0
     60526 TIP3     16870    TIP3     H2       HT       0.417000       1.00800           0
     60527 TIP3     16871    TIP3     OH2      OT      -0.834000       15.9994           0
     60528 TIP3     16871    TIP3     H1       HT       0.417000       1.00800           0
     60529 TIP3     16871    TIP3     H2       HT       0.417000       1.00800           0
     60530 TIP3     16872    TIP3     OH2      OT      -0.834000       15.9994           0
     60531 TIP3     16872    TIP3     H1       HT       0.417000       1.00800           0
     60532 TIP3     16872    TIP3     H2       HT       0.417000       1.00800           0
     60533 TIP3     16873    TIP3     OH2      OT      -0.834000       15.9994           0
     60534 TIP3     16873    TIP3     H1       HT       0.417000       1.00800           0
     60535 TIP3     16873    TIP3     H2       HT       0.417000       1.00800           0
     60536 TIP3     16874    TIP3     OH2      OT      -0.834000       15.9994           0
     60537 TIP3     16874    TIP3     H1       HT       0.417000       1.00800           0
     60538 TIP3     16874    TIP3     H2       HT       0.417000       1.00800           0
     60539 TIP3     16875    TIP3     OH2      OT      -0.834000       15.9994           0
     60540 TIP3     16875    TIP3     H1       HT       0.417000       1.00800           0
     60541 TIP3     16875    TIP3     H2       HT       0.417000       1.00800           0
     60542 TIP3     16876    TIP3     OH2      OT      -0.834000       15.9994           0
     60543 TIP3     16876    TIP3     H1       HT       0.417000       1.00800           0
     60544 TIP3     16876    TIP3     H2       HT       0.417000       1.00800           0
     60545 TIP3     16877    TIP3     OH2      OT      -0.834000       15.9994           0
     60546 TIP3     16877    TIP3     H1       HT       0.417000       1.00800           0
     60547 TIP3     16877    TIP3     H2       HT       0.417000       1.00800           0
     60548 TIP3     16878    TIP3     OH2      OT      -0.834000       15.9994           0
     60549 TIP3     16878    TIP3     H1       HT       0.417000       1.00800           0
     60550 TIP3     16878    TIP3     H2       HT       0.417000       1.00800           0
     60551 TIP3     16879    TIP3     OH2      OT      -0.834000       15.9994           0
     60552 TIP3     16879    TIP3     H1       HT       0.417000       1.00800           0
     60553 TIP3     16879    TIP3     H2       HT       0.417000       1.00800           0
     60554 TIP3     16880    TIP3     OH2      OT      -0.834000       15.9994           0
     60555 TIP3     16880    TIP3     H1       HT       0.417000       1.00800           0
     60556 TIP3     16880    TIP3     H2       HT       0.417000       1.00800           0
     60557 TIP3     16881    TIP3     OH2      OT      -0.834000       15.9994           0
     60558 TIP3     16881    TIP3     H1       HT       0.417000       1.00800           0
     60559 TIP3     16881    TIP3     H2       HT       0.417000       1.00800           0
     60560 TIP3     16882    TIP3     OH2      OT      -0.834000       15.9994           0
     60561 TIP3     16882    TIP3     H1       HT       0.417000       1.00800           0
     60562 TIP3     16882    TIP3     H2       HT       0.417000       1.00800           0
     60563 TIP3     16883    TIP3     OH2      OT      -0.834000       15.9994           0
     60564 TIP3     16883    TIP3     H1       HT       0.417000       1.00800           0
     60565 TIP3     16883    TIP3     H2       HT       0.417000       1.00800           0
     60566 TIP3     16884    TIP3     OH2      OT      -0.834000       15.9994           0
     60567 TIP3     16884    TIP3     H1       HT       0.417000       1.00800           0
     60568 TIP3     16884    TIP3     H2       HT       0.417000       1.00800           0
     60569 TIP3     16885    TIP3     OH2      OT      -0.834000       15.9994           0
     60570 TIP3     16885    TIP3     H1       HT       0.417000       1.00800           0
     60571 TIP3     16885    TIP3     H2       HT       0.417000       1.00800           0
     60572 TIP3     16886    TIP3     OH2      OT      -0.834000       15.9994           0
     60573 TIP3     16886    TIP3     H1       HT       0.417000       1.00800           0
     60574 TIP3     16886    TIP3     H2       HT       0.417000       1.00800           0
     60575 TIP3     16887    TIP3     OH2      OT      -0.834000       15.9994           0
     60576 TIP3     16887    TIP3     H1       HT       0.417000       1.00800           0
     60577 TIP3     16887    TIP3     H2       HT       0.417000       1.00800           0
     60578 TIP3     16888    TIP3     OH2      OT      -0.834000       15.9994           0
     60579 TIP3     16888    TIP3     H1       HT       0.417000       1.00800           0
     60580 TIP3     16888    TIP3     H2       HT       0.417000       1.00800           0
     60581 TIP3     16889    TIP3     OH2      OT      -0.834000       15.9994           0
     60582 TIP3     16889    TIP3     H1       HT       0.417000       1.00800           0
     60583 TIP3     16889    TIP3     H2       HT       0.417000       1.00800           0
     60584 TIP3     16890    TIP3     OH2      OT      -0.834000       15.9994           0
     60585 TIP3     16890    TIP3     H1       HT       0.417000       1.00800           0
     60586 TIP3     16890    TIP3     H2       HT       0.417000       1.00800           0
     60587 TIP3     16891    TIP3     OH2      OT      -0.834000       15.9994           0
     60588 TIP3     16891    TIP3     H1       HT       0.417000       1.00800           0
     60589 TIP3     16891    TIP3     H2       HT       0.417000       1.00800           0
     60590 TIP3     16892    TIP3     OH2      OT      -0.834000       15.9994           0
     60591 TIP3     16892    TIP3     H1       HT       0.417000       1.00800           0
     60592 TIP3     16892    TIP3     H2       HT       0.417000       1.00800           0
     60593 TIP3     16893    TIP3     OH2      OT      -0.834000       15.9994           0
     60594 TIP3     16893    TIP3     H1       HT       0.417000       1.00800           0
     60595 TIP3     16893    TIP3     H2       HT       0.417000       1.00800           0
     60596 TIP3     16894    TIP3     OH2      OT      -0.834000       15.9994           0
     60597 TIP3     16894    TIP3     H1       HT       0.417000       1.00800           0
     60598 TIP3     16894    TIP3     H2       HT       0.417000       1.00800           0
     60599 TIP3     16895    TIP3     OH2      OT      -0.834000       15.9994           0
     60600 TIP3     16895    TIP3     H1       HT       0.417000       1.00800           0
     60601 TIP3     16895    TIP3     H2       HT       0.417000       1.00800           0
     60602 TIP3     16896    TIP3     OH2      OT      -0.834000       15.9994           0
     60603 TIP3     16896    TIP3     H1       HT       0.417000       1.00800           0
     60604 TIP3     16896    TIP3     H2       HT       0.417000       1.00800           0
     60605 TIP3     16897    TIP3     OH2      OT      -0.834000       15.9994           0
     60606 TIP3     16897    TIP3     H1       HT       0.417000       1.00800           0
     60607 TIP3     16897    TIP3     H2       HT       0.417000       1.00800           0
     60608 TIP3     16898    TIP3     OH2      OT      -0.834000       15.9994           0
     60609 TIP3     16898    TIP3     H1       HT       0.417000       1.00800           0
     60610 TIP3     16898    TIP3     H2       HT       0.417000       1.00800           0
     60611 TIP3     16899    TIP3     OH2      OT      -0.834000       15.9994           0
     60612 TIP3     16899    TIP3     H1       HT       0.417000       1.00800           0
     60613 TIP3     16899    TIP3     H2       HT       0.417000       1.00800           0
     60614 TIP3     16900    TIP3     OH2      OT      -0.834000       15.9994           0
     60615 TIP3     16900    TIP3     H1       HT       0.417000       1.00800           0
     60616 TIP3     16900    TIP3     H2       HT       0.417000       1.00800           0
     60617 TIP3     16901    TIP3     OH2      OT      -0.834000       15.9994           0
     60618 TIP3     16901    TIP3     H1       HT       0.417000       1.00800           0
     60619 TIP3     16901    TIP3     H2       HT       0.417000       1.00800           0
     60620 TIP3     16902    TIP3     OH2      OT      -0.834000       15.9994           0
     60621 TIP3     16902    TIP3     H1       HT       0.417000       1.00800           0
     60622 TIP3     16902    TIP3     H2       HT       0.417000       1.00800           0
     60623 TIP3     16903    TIP3     OH2      OT      -0.834000       15.9994           0
     60624 TIP3     16903    TIP3     H1       HT       0.417000       1.00800           0
     60625 TIP3     16903    TIP3     H2       HT       0.417000       1.00800           0
     60626 TIP3     16904    TIP3     OH2      OT      -0.834000       15.9994           0
     60627 TIP3     16904    TIP3     H1       HT       0.417000       1.00800           0
     60628 TIP3     16904    TIP3     H2       HT       0.417000       1.00800           0
     60629 TIP3     16905    TIP3     OH2      OT      -0.834000       15.9994           0
     60630 TIP3     16905    TIP3     H1       HT       0.417000       1.00800           0
     60631 TIP3     16905    TIP3     H2       HT       0.417000       1.00800           0
     60632 TIP3     16906    TIP3     OH2      OT      -0.834000       15.9994           0
     60633 TIP3     16906    TIP3     H1       HT       0.417000       1.00800           0
     60634 TIP3     16906    TIP3     H2       HT       0.417000       1.00800           0
     60635 TIP3     16907    TIP3     OH2      OT      -0.834000       15.9994           0
     60636 TIP3     16907    TIP3     H1       HT       0.417000       1.00800           0
     60637 TIP3     16907    TIP3     H2       HT       0.417000       1.00800           0
     60638 TIP3     16908    TIP3     OH2      OT      -0.834000       15.9994           0
     60639 TIP3     16908    TIP3     H1       HT       0.417000       1.00800           0
     60640 TIP3     16908    TIP3     H2       HT       0.417000       1.00800           0
     60641 TIP3     16909    TIP3     OH2      OT      -0.834000       15.9994           0
     60642 TIP3     16909    TIP3     H1       HT       0.417000       1.00800           0
     60643 TIP3     16909    TIP3     H2       HT       0.417000       1.00800           0
     60644 TIP3     16910    TIP3     OH2      OT      -0.834000       15.9994           0
     60645 TIP3     16910    TIP3     H1       HT       0.417000       1.00800           0
     60646 TIP3     16910    TIP3     H2       HT       0.417000       1.00800           0
     60647 TIP3     16911    TIP3     OH2      OT      -0.834000       15.9994           0
     60648 TIP3     16911    TIP3     H1       HT       0.417000       1.00800           0
     60649 TIP3     16911    TIP3     H2       HT       0.417000       1.00800           0
     60650 TIP3     16912    TIP3     OH2      OT      -0.834000       15.9994           0
     60651 TIP3     16912    TIP3     H1       HT       0.417000       1.00800           0
     60652 TIP3     16912    TIP3     H2       HT       0.417000       1.00800           0
     60653 TIP3     16913    TIP3     OH2      OT      -0.834000       15.9994           0
     60654 TIP3     16913    TIP3     H1       HT       0.417000       1.00800           0
     60655 TIP3     16913    TIP3     H2       HT       0.417000       1.00800           0
     60656 TIP3     16914    TIP3     OH2      OT      -0.834000       15.9994           0
     60657 TIP3     16914    TIP3     H1       HT       0.417000       1.00800           0
     60658 TIP3     16914    TIP3     H2       HT       0.417000       1.00800           0
     60659 TIP3     16915    TIP3     OH2      OT      -0.834000       15.9994           0
     60660 TIP3     16915    TIP3     H1       HT       0.417000       1.00800           0
     60661 TIP3     16915    TIP3     H2       HT       0.417000       1.00800           0
     60662 TIP3     16916    TIP3     OH2      OT      -0.834000       15.9994           0
     60663 TIP3     16916    TIP3     H1       HT       0.417000       1.00800           0
     60664 TIP3     16916    TIP3     H2       HT       0.417000       1.00800           0
     60665 TIP3     16917    TIP3     OH2      OT      -0.834000       15.9994           0
     60666 TIP3     16917    TIP3     H1       HT       0.417000       1.00800           0
     60667 TIP3     16917    TIP3     H2       HT       0.417000       1.00800           0
     60668 TIP3     16918    TIP3     OH2      OT      -0.834000       15.9994           0
     60669 TIP3     16918    TIP3     H1       HT       0.417000       1.00800           0
     60670 TIP3     16918    TIP3     H2       HT       0.417000       1.00800           0
     60671 TIP3     16919    TIP3     OH2      OT      -0.834000       15.9994           0
     60672 TIP3     16919    TIP3     H1       HT       0.417000       1.00800           0
     60673 TIP3     16919    TIP3     H2       HT       0.417000       1.00800           0
     60674 TIP3     16920    TIP3     OH2      OT      -0.834000       15.9994           0
     60675 TIP3     16920    TIP3     H1       HT       0.417000       1.00800           0
     60676 TIP3     16920    TIP3     H2       HT       0.417000       1.00800           0
     60677 TIP3     16921    TIP3     OH2      OT      -0.834000       15.9994           0
     60678 TIP3     16921    TIP3     H1       HT       0.417000       1.00800           0
     60679 TIP3     16921    TIP3     H2       HT       0.417000       1.00800           0
     60680 TIP3     16922    TIP3     OH2      OT      -0.834000       15.9994           0
     60681 TIP3     16922    TIP3     H1       HT       0.417000       1.00800           0
     60682 TIP3     16922    TIP3     H2       HT       0.417000       1.00800           0
     60683 TIP3     16923    TIP3     OH2      OT      -0.834000       15.9994           0
     60684 TIP3     16923    TIP3     H1       HT       0.417000       1.00800           0
     60685 TIP3     16923    TIP3     H2       HT       0.417000       1.00800           0
     60686 TIP3     16924    TIP3     OH2      OT      -0.834000       15.9994           0
     60687 TIP3     16924    TIP3     H1       HT       0.417000       1.00800           0
     60688 TIP3     16924    TIP3     H2       HT       0.417000       1.00800           0
     60689 TIP3     16925    TIP3     OH2      OT      -0.834000       15.9994           0
     60690 TIP3     16925    TIP3     H1       HT       0.417000       1.00800           0
     60691 TIP3     16925    TIP3     H2       HT       0.417000       1.00800           0
     60692 TIP3     16926    TIP3     OH2      OT      -0.834000       15.9994           0
     60693 TIP3     16926    TIP3     H1       HT       0.417000       1.00800           0
     60694 TIP3     16926    TIP3     H2       HT       0.417000       1.00800           0
     60695 TIP3     16927    TIP3     OH2      OT      -0.834000       15.9994           0
     60696 TIP3     16927    TIP3     H1       HT       0.417000       1.00800           0
     60697 TIP3     16927    TIP3     H2       HT       0.417000       1.00800           0
     60698 TIP3     16928    TIP3     OH2      OT      -0.834000       15.9994           0
     60699 TIP3     16928    TIP3     H1       HT       0.417000       1.00800           0
     60700 TIP3     16928    TIP3     H2       HT       0.417000       1.00800           0
     60701 TIP3     16929    TIP3     OH2      OT      -0.834000       15.9994           0
     60702 TIP3     16929    TIP3     H1       HT       0.417000       1.00800           0
     60703 TIP3     16929    TIP3     H2       HT       0.417000       1.00800           0
     60704 TIP3     16930    TIP3     OH2      OT      -0.834000       15.9994           0
     60705 TIP3     16930    TIP3     H1       HT       0.417000       1.00800           0
     60706 TIP3     16930    TIP3     H2       HT       0.417000       1.00800           0
     60707 TIP3     16931    TIP3     OH2      OT      -0.834000       15.9994           0
     60708 TIP3     16931    TIP3     H1       HT       0.417000       1.00800           0
     60709 TIP3     16931    TIP3     H2       HT       0.417000       1.00800           0
     60710 TIP3     16932    TIP3     OH2      OT      -0.834000       15.9994           0
     60711 TIP3     16932    TIP3     H1       HT       0.417000       1.00800           0
     60712 TIP3     16932    TIP3     H2       HT       0.417000       1.00800           0
     60713 TIP3     16933    TIP3     OH2      OT      -0.834000       15.9994           0
     60714 TIP3     16933    TIP3     H1       HT       0.417000       1.00800           0
     60715 TIP3     16933    TIP3     H2       HT       0.417000       1.00800           0
     60716 TIP3     16934    TIP3     OH2      OT      -0.834000       15.9994           0
     60717 TIP3     16934    TIP3     H1       HT       0.417000       1.00800           0
     60718 TIP3     16934    TIP3     H2       HT       0.417000       1.00800           0
     60719 TIP3     16935    TIP3     OH2      OT      -0.834000       15.9994           0
     60720 TIP3     16935    TIP3     H1       HT       0.417000       1.00800           0
     60721 TIP3     16935    TIP3     H2       HT       0.417000       1.00800           0
     60722 TIP3     16936    TIP3     OH2      OT      -0.834000       15.9994           0
     60723 TIP3     16936    TIP3     H1       HT       0.417000       1.00800           0
     60724 TIP3     16936    TIP3     H2       HT       0.417000       1.00800           0
     60725 TIP3     16937    TIP3     OH2      OT      -0.834000       15.9994           0
     60726 TIP3     16937    TIP3     H1       HT       0.417000       1.00800           0
     60727 TIP3     16937    TIP3     H2       HT       0.417000       1.00800           0
     60728 TIP3     16938    TIP3     OH2      OT      -0.834000       15.9994           0
     60729 TIP3     16938    TIP3     H1       HT       0.417000       1.00800           0
     60730 TIP3     16938    TIP3     H2       HT       0.417000       1.00800           0
     60731 TIP3     16939    TIP3     OH2      OT      -0.834000       15.9994           0
     60732 TIP3     16939    TIP3     H1       HT       0.417000       1.00800           0
     60733 TIP3     16939    TIP3     H2       HT       0.417000       1.00800           0
     60734 TIP3     16940    TIP3     OH2      OT      -0.834000       15.9994           0
     60735 TIP3     16940    TIP3     H1       HT       0.417000       1.00800           0
     60736 TIP3     16940    TIP3     H2       HT       0.417000       1.00800           0
     60737 TIP3     16941    TIP3     OH2      OT      -0.834000       15.9994           0
     60738 TIP3     16941    TIP3     H1       HT       0.417000       1.00800           0
     60739 TIP3     16941    TIP3     H2       HT       0.417000       1.00800           0
     60740 TIP3     16942    TIP3     OH2      OT      -0.834000       15.9994           0
     60741 TIP3     16942    TIP3     H1       HT       0.417000       1.00800           0
     60742 TIP3     16942    TIP3     H2       HT       0.417000       1.00800           0
     60743 TIP3     16943    TIP3     OH2      OT      -0.834000       15.9994           0
     60744 TIP3     16943    TIP3     H1       HT       0.417000       1.00800           0
     60745 TIP3     16943    TIP3     H2       HT       0.417000       1.00800           0
     60746 TIP3     16944    TIP3     OH2      OT      -0.834000       15.9994           0
     60747 TIP3     16944    TIP3     H1       HT       0.417000       1.00800           0
     60748 TIP3     16944    TIP3     H2       HT       0.417000       1.00800           0
     60749 TIP3     16945    TIP3     OH2      OT      -0.834000       15.9994           0
     60750 TIP3     16945    TIP3     H1       HT       0.417000       1.00800           0
     60751 TIP3     16945    TIP3     H2       HT       0.417000       1.00800           0
     60752 TIP3     16946    TIP3     OH2      OT      -0.834000       15.9994           0
     60753 TIP3     16946    TIP3     H1       HT       0.417000       1.00800           0
     60754 TIP3     16946    TIP3     H2       HT       0.417000       1.00800           0
     60755 TIP3     16947    TIP3     OH2      OT      -0.834000       15.9994           0
     60756 TIP3     16947    TIP3     H1       HT       0.417000       1.00800           0
     60757 TIP3     16947    TIP3     H2       HT       0.417000       1.00800           0
     60758 TIP3     16948    TIP3     OH2      OT      -0.834000       15.9994           0
     60759 TIP3     16948    TIP3     H1       HT       0.417000       1.00800           0
     60760 TIP3     16948    TIP3     H2       HT       0.417000       1.00800           0
     60761 TIP3     16949    TIP3     OH2      OT      -0.834000       15.9994           0
     60762 TIP3     16949    TIP3     H1       HT       0.417000       1.00800           0
     60763 TIP3     16949    TIP3     H2       HT       0.417000       1.00800           0
     60764 TIP3     16950    TIP3     OH2      OT      -0.834000       15.9994           0
     60765 TIP3     16950    TIP3     H1       HT       0.417000       1.00800           0
     60766 TIP3     16950    TIP3     H2       HT       0.417000       1.00800           0
     60767 TIP3     16951    TIP3     OH2      OT      -0.834000       15.9994           0
     60768 TIP3     16951    TIP3     H1       HT       0.417000       1.00800           0
     60769 TIP3     16951    TIP3     H2       HT       0.417000       1.00800           0
     60770 TIP3     16952    TIP3     OH2      OT      -0.834000       15.9994           0
     60771 TIP3     16952    TIP3     H1       HT       0.417000       1.00800           0
     60772 TIP3     16952    TIP3     H2       HT       0.417000       1.00800           0
     60773 TIP3     16953    TIP3     OH2      OT      -0.834000       15.9994           0
     60774 TIP3     16953    TIP3     H1       HT       0.417000       1.00800           0
     60775 TIP3     16953    TIP3     H2       HT       0.417000       1.00800           0
     60776 TIP3     16954    TIP3     OH2      OT      -0.834000       15.9994           0
     60777 TIP3     16954    TIP3     H1       HT       0.417000       1.00800           0
     60778 TIP3     16954    TIP3     H2       HT       0.417000       1.00800           0
     60779 TIP3     16955    TIP3     OH2      OT      -0.834000       15.9994           0
     60780 TIP3     16955    TIP3     H1       HT       0.417000       1.00800           0
     60781 TIP3     16955    TIP3     H2       HT       0.417000       1.00800           0
     60782 TIP3     16956    TIP3     OH2      OT      -0.834000       15.9994           0
     60783 TIP3     16956    TIP3     H1       HT       0.417000       1.00800           0
     60784 TIP3     16956    TIP3     H2       HT       0.417000       1.00800           0
     60785 TIP3     16957    TIP3     OH2      OT      -0.834000       15.9994           0
     60786 TIP3     16957    TIP3     H1       HT       0.417000       1.00800           0
     60787 TIP3     16957    TIP3     H2       HT       0.417000       1.00800           0
     60788 TIP3     16958    TIP3     OH2      OT      -0.834000       15.9994           0
     60789 TIP3     16958    TIP3     H1       HT       0.417000       1.00800           0
     60790 TIP3     16958    TIP3     H2       HT       0.417000       1.00800           0
     60791 TIP3     16959    TIP3     OH2      OT      -0.834000       15.9994           0
     60792 TIP3     16959    TIP3     H1       HT       0.417000       1.00800           0
     60793 TIP3     16959    TIP3     H2       HT       0.417000       1.00800           0
     60794 TIP3     16960    TIP3     OH2      OT      -0.834000       15.9994           0
     60795 TIP3     16960    TIP3     H1       HT       0.417000       1.00800           0
     60796 TIP3     16960    TIP3     H2       HT       0.417000       1.00800           0
     60797 TIP3     16961    TIP3     OH2      OT      -0.834000       15.9994           0
     60798 TIP3     16961    TIP3     H1       HT       0.417000       1.00800           0
     60799 TIP3     16961    TIP3     H2       HT       0.417000       1.00800           0
     60800 TIP3     16962    TIP3     OH2      OT      -0.834000       15.9994           0
     60801 TIP3     16962    TIP3     H1       HT       0.417000       1.00800           0
     60802 TIP3     16962    TIP3     H2       HT       0.417000       1.00800           0
     60803 TIP3     16963    TIP3     OH2      OT      -0.834000       15.9994           0
     60804 TIP3     16963    TIP3     H1       HT       0.417000       1.00800           0
     60805 TIP3     16963    TIP3     H2       HT       0.417000       1.00800           0
     60806 TIP3     16964    TIP3     OH2      OT      -0.834000       15.9994           0
     60807 TIP3     16964    TIP3     H1       HT       0.417000       1.00800           0
     60808 TIP3     16964    TIP3     H2       HT       0.417000       1.00800           0
     60809 TIP3     16965    TIP3     OH2      OT      -0.834000       15.9994           0
     60810 TIP3     16965    TIP3     H1       HT       0.417000       1.00800           0
     60811 TIP3     16965    TIP3     H2       HT       0.417000       1.00800           0
     60812 TIP3     16966    TIP3     OH2      OT      -0.834000       15.9994           0
     60813 TIP3     16966    TIP3     H1       HT       0.417000       1.00800           0
     60814 TIP3     16966    TIP3     H2       HT       0.417000       1.00800           0
     60815 TIP3     16967    TIP3     OH2      OT      -0.834000       15.9994           0
     60816 TIP3     16967    TIP3     H1       HT       0.417000       1.00800           0
     60817 TIP3     16967    TIP3     H2       HT       0.417000       1.00800           0
     60818 TIP3     16968    TIP3     OH2      OT      -0.834000       15.9994           0
     60819 TIP3     16968    TIP3     H1       HT       0.417000       1.00800           0
     60820 TIP3     16968    TIP3     H2       HT       0.417000       1.00800           0
     60821 TIP3     16969    TIP3     OH2      OT      -0.834000       15.9994           0
     60822 TIP3     16969    TIP3     H1       HT       0.417000       1.00800           0
     60823 TIP3     16969    TIP3     H2       HT       0.417000       1.00800           0
     60824 TIP3     16970    TIP3     OH2      OT      -0.834000       15.9994           0
     60825 TIP3     16970    TIP3     H1       HT       0.417000       1.00800           0
     60826 TIP3     16970    TIP3     H2       HT       0.417000       1.00800           0
     60827 TIP3     16971    TIP3     OH2      OT      -0.834000       15.9994           0
     60828 TIP3     16971    TIP3     H1       HT       0.417000       1.00800           0
     60829 TIP3     16971    TIP3     H2       HT       0.417000       1.00800           0
     60830 TIP3     16972    TIP3     OH2      OT      -0.834000       15.9994           0
     60831 TIP3     16972    TIP3     H1       HT       0.417000       1.00800           0
     60832 TIP3     16972    TIP3     H2       HT       0.417000       1.00800           0
     60833 TIP3     16973    TIP3     OH2      OT      -0.834000       15.9994           0
     60834 TIP3     16973    TIP3     H1       HT       0.417000       1.00800           0
     60835 TIP3     16973    TIP3     H2       HT       0.417000       1.00800           0
     60836 TIP3     16974    TIP3     OH2      OT      -0.834000       15.9994           0
     60837 TIP3     16974    TIP3     H1       HT       0.417000       1.00800           0
     60838 TIP3     16974    TIP3     H2       HT       0.417000       1.00800           0
     60839 TIP3     16975    TIP3     OH2      OT      -0.834000       15.9994           0
     60840 TIP3     16975    TIP3     H1       HT       0.417000       1.00800           0
     60841 TIP3     16975    TIP3     H2       HT       0.417000       1.00800           0
     60842 TIP3     16976    TIP3     OH2      OT      -0.834000       15.9994           0
     60843 TIP3     16976    TIP3     H1       HT       0.417000       1.00800           0
     60844 TIP3     16976    TIP3     H2       HT       0.417000       1.00800           0
     60845 TIP3     16977    TIP3     OH2      OT      -0.834000       15.9994           0
     60846 TIP3     16977    TIP3     H1       HT       0.417000       1.00800           0
     60847 TIP3     16977    TIP3     H2       HT       0.417000       1.00800           0
     60848 TIP3     16978    TIP3     OH2      OT      -0.834000       15.9994           0
     60849 TIP3     16978    TIP3     H1       HT       0.417000       1.00800           0
     60850 TIP3     16978    TIP3     H2       HT       0.417000       1.00800           0
     60851 TIP3     16979    TIP3     OH2      OT      -0.834000       15.9994           0
     60852 TIP3     16979    TIP3     H1       HT       0.417000       1.00800           0
     60853 TIP3     16979    TIP3     H2       HT       0.417000       1.00800           0
     60854 TIP3     16980    TIP3     OH2      OT      -0.834000       15.9994           0
     60855 TIP3     16980    TIP3     H1       HT       0.417000       1.00800           0
     60856 TIP3     16980    TIP3     H2       HT       0.417000       1.00800           0
     60857 TIP3     16981    TIP3     OH2      OT      -0.834000       15.9994           0
     60858 TIP3     16981    TIP3     H1       HT       0.417000       1.00800           0
     60859 TIP3     16981    TIP3     H2       HT       0.417000       1.00800           0
     60860 TIP3     16982    TIP3     OH2      OT      -0.834000       15.9994           0
     60861 TIP3     16982    TIP3     H1       HT       0.417000       1.00800           0
     60862 TIP3     16982    TIP3     H2       HT       0.417000       1.00800           0
     60863 TIP3     16983    TIP3     OH2      OT      -0.834000       15.9994           0
     60864 TIP3     16983    TIP3     H1       HT       0.417000       1.00800           0
     60865 TIP3     16983    TIP3     H2       HT       0.417000       1.00800           0
     60866 TIP3     16984    TIP3     OH2      OT      -0.834000       15.9994           0
     60867 TIP3     16984    TIP3     H1       HT       0.417000       1.00800           0
     60868 TIP3     16984    TIP3     H2       HT       0.417000       1.00800           0
     60869 TIP3     16985    TIP3     OH2      OT      -0.834000       15.9994           0
     60870 TIP3     16985    TIP3     H1       HT       0.417000       1.00800           0
     60871 TIP3     16985    TIP3     H2       HT       0.417000       1.00800           0
     60872 TIP3     16986    TIP3     OH2      OT      -0.834000       15.9994           0
     60873 TIP3     16986    TIP3     H1       HT       0.417000       1.00800           0
     60874 TIP3     16986    TIP3     H2       HT       0.417000       1.00800           0
     60875 TIP3     16987    TIP3     OH2      OT      -0.834000       15.9994           0
     60876 TIP3     16987    TIP3     H1       HT       0.417000       1.00800           0
     60877 TIP3     16987    TIP3     H2       HT       0.417000       1.00800           0
     60878 TIP3     16988    TIP3     OH2      OT      -0.834000       15.9994           0
     60879 TIP3     16988    TIP3     H1       HT       0.417000       1.00800           0
     60880 TIP3     16988    TIP3     H2       HT       0.417000       1.00800           0
     60881 TIP3     16989    TIP3     OH2      OT      -0.834000       15.9994           0
     60882 TIP3     16989    TIP3     H1       HT       0.417000       1.00800           0
     60883 TIP3     16989    TIP3     H2       HT       0.417000       1.00800           0
     60884 TIP3     16990    TIP3     OH2      OT      -0.834000       15.9994           0
     60885 TIP3     16990    TIP3     H1       HT       0.417000       1.00800           0
     60886 TIP3     16990    TIP3     H2       HT       0.417000       1.00800           0
     60887 TIP3     16991    TIP3     OH2      OT      -0.834000       15.9994           0
     60888 TIP3     16991    TIP3     H1       HT       0.417000       1.00800           0
     60889 TIP3     16991    TIP3     H2       HT       0.417000       1.00800           0
     60890 TIP3     16992    TIP3     OH2      OT      -0.834000       15.9994           0
     60891 TIP3     16992    TIP3     H1       HT       0.417000       1.00800           0
     60892 TIP3     16992    TIP3     H2       HT       0.417000       1.00800           0
     60893 TIP3     16993    TIP3     OH2      OT      -0.834000       15.9994           0
     60894 TIP3     16993    TIP3     H1       HT       0.417000       1.00800           0
     60895 TIP3     16993    TIP3     H2       HT       0.417000       1.00800           0
     60896 TIP3     16994    TIP3     OH2      OT      -0.834000       15.9994           0
     60897 TIP3     16994    TIP3     H1       HT       0.417000       1.00800           0
     60898 TIP3     16994    TIP3     H2       HT       0.417000       1.00800           0
     60899 TIP3     16995    TIP3     OH2      OT      -0.834000       15.9994           0
     60900 TIP3     16995    TIP3     H1       HT       0.417000       1.00800           0
     60901 TIP3     16995    TIP3     H2       HT       0.417000       1.00800           0
     60902 TIP3     16996    TIP3     OH2      OT      -0.834000       15.9994           0
     60903 TIP3     16996    TIP3     H1       HT       0.417000       1.00800           0
     60904 TIP3     16996    TIP3     H2       HT       0.417000       1.00800           0
     60905 TIP3     16997    TIP3     OH2      OT      -0.834000       15.9994           0
     60906 TIP3     16997    TIP3     H1       HT       0.417000       1.00800           0
     60907 TIP3     16997    TIP3     H2       HT       0.417000       1.00800           0
     60908 TIP3     16998    TIP3     OH2      OT      -0.834000       15.9994           0
     60909 TIP3     16998    TIP3     H1       HT       0.417000       1.00800           0
     60910 TIP3     16998    TIP3     H2       HT       0.417000       1.00800           0
     60911 TIP3     16999    TIP3     OH2      OT      -0.834000       15.9994           0
     60912 TIP3     16999    TIP3     H1       HT       0.417000       1.00800           0
     60913 TIP3     16999    TIP3     H2       HT       0.417000       1.00800           0
     60914 TIP3     17000    TIP3     OH2      OT      -0.834000       15.9994           0
     60915 TIP3     17000    TIP3     H1       HT       0.417000       1.00800           0
     60916 TIP3     17000    TIP3     H2       HT       0.417000       1.00800           0
     60917 TIP3     17001    TIP3     OH2      OT      -0.834000       15.9994           0
     60918 TIP3     17001    TIP3     H1       HT       0.417000       1.00800           0
     60919 TIP3     17001    TIP3     H2       HT       0.417000       1.00800           0
     60920 TIP3     17002    TIP3     OH2      OT      -0.834000       15.9994           0
     60921 TIP3     17002    TIP3     H1       HT       0.417000       1.00800           0
     60922 TIP3     17002    TIP3     H2       HT       0.417000       1.00800           0
     60923 TIP3     17003    TIP3     OH2      OT      -0.834000       15.9994           0
     60924 TIP3     17003    TIP3     H1       HT       0.417000       1.00800           0
     60925 TIP3     17003    TIP3     H2       HT       0.417000       1.00800           0
     60926 TIP3     17004    TIP3     OH2      OT      -0.834000       15.9994           0
     60927 TIP3     17004    TIP3     H1       HT       0.417000       1.00800           0
     60928 TIP3     17004    TIP3     H2       HT       0.417000       1.00800           0
     60929 TIP3     17005    TIP3     OH2      OT      -0.834000       15.9994           0
     60930 TIP3     17005    TIP3     H1       HT       0.417000       1.00800           0
     60931 TIP3     17005    TIP3     H2       HT       0.417000       1.00800           0
     60932 TIP3     17006    TIP3     OH2      OT      -0.834000       15.9994           0
     60933 TIP3     17006    TIP3     H1       HT       0.417000       1.00800           0
     60934 TIP3     17006    TIP3     H2       HT       0.417000       1.00800           0
     60935 TIP3     17007    TIP3     OH2      OT      -0.834000       15.9994           0
     60936 TIP3     17007    TIP3     H1       HT       0.417000       1.00800           0
     60937 TIP3     17007    TIP3     H2       HT       0.417000       1.00800           0
     60938 TIP3     17008    TIP3     OH2      OT      -0.834000       15.9994           0
     60939 TIP3     17008    TIP3     H1       HT       0.417000       1.00800           0
     60940 TIP3     17008    TIP3     H2       HT       0.417000       1.00800           0
     60941 TIP3     17009    TIP3     OH2      OT      -0.834000       15.9994           0
     60942 TIP3     17009    TIP3     H1       HT       0.417000       1.00800           0
     60943 TIP3     17009    TIP3     H2       HT       0.417000       1.00800           0
     60944 TIP3     17010    TIP3     OH2      OT      -0.834000       15.9994           0
     60945 TIP3     17010    TIP3     H1       HT       0.417000       1.00800           0
     60946 TIP3     17010    TIP3     H2       HT       0.417000       1.00800           0
     60947 TIP3     17011    TIP3     OH2      OT      -0.834000       15.9994           0
     60948 TIP3     17011    TIP3     H1       HT       0.417000       1.00800           0
     60949 TIP3     17011    TIP3     H2       HT       0.417000       1.00800           0
     60950 TIP3     17012    TIP3     OH2      OT      -0.834000       15.9994           0
     60951 TIP3     17012    TIP3     H1       HT       0.417000       1.00800           0
     60952 TIP3     17012    TIP3     H2       HT       0.417000       1.00800           0
     60953 TIP3     17013    TIP3     OH2      OT      -0.834000       15.9994           0
     60954 TIP3     17013    TIP3     H1       HT       0.417000       1.00800           0
     60955 TIP3     17013    TIP3     H2       HT       0.417000       1.00800           0
     60956 TIP3     17014    TIP3     OH2      OT      -0.834000       15.9994           0
     60957 TIP3     17014    TIP3     H1       HT       0.417000       1.00800           0
     60958 TIP3     17014    TIP3     H2       HT       0.417000       1.00800           0
     60959 TIP3     17015    TIP3     OH2      OT      -0.834000       15.9994           0
     60960 TIP3     17015    TIP3     H1       HT       0.417000       1.00800           0
     60961 TIP3     17015    TIP3     H2       HT       0.417000       1.00800           0
     60962 TIP3     17016    TIP3     OH2      OT      -0.834000       15.9994           0
     60963 TIP3     17016    TIP3     H1       HT       0.417000       1.00800           0
     60964 TIP3     17016    TIP3     H2       HT       0.417000       1.00800           0
     60965 TIP3     17017    TIP3     OH2      OT      -0.834000       15.9994           0
     60966 TIP3     17017    TIP3     H1       HT       0.417000       1.00800           0
     60967 TIP3     17017    TIP3     H2       HT       0.417000       1.00800           0
     60968 TIP3     17018    TIP3     OH2      OT      -0.834000       15.9994           0
     60969 TIP3     17018    TIP3     H1       HT       0.417000       1.00800           0
     60970 TIP3     17018    TIP3     H2       HT       0.417000       1.00800           0
     60971 TIP3     17019    TIP3     OH2      OT      -0.834000       15.9994           0
     60972 TIP3     17019    TIP3     H1       HT       0.417000       1.00800           0
     60973 TIP3     17019    TIP3     H2       HT       0.417000       1.00800           0
     60974 TIP3     17020    TIP3     OH2      OT      -0.834000       15.9994           0
     60975 TIP3     17020    TIP3     H1       HT       0.417000       1.00800           0
     60976 TIP3     17020    TIP3     H2       HT       0.417000       1.00800           0
     60977 TIP3     17021    TIP3     OH2      OT      -0.834000       15.9994           0
     60978 TIP3     17021    TIP3     H1       HT       0.417000       1.00800           0
     60979 TIP3     17021    TIP3     H2       HT       0.417000       1.00800           0
     60980 TIP3     17022    TIP3     OH2      OT      -0.834000       15.9994           0
     60981 TIP3     17022    TIP3     H1       HT       0.417000       1.00800           0
     60982 TIP3     17022    TIP3     H2       HT       0.417000       1.00800           0
     60983 TIP3     17023    TIP3     OH2      OT      -0.834000       15.9994           0
     60984 TIP3     17023    TIP3     H1       HT       0.417000       1.00800           0
     60985 TIP3     17023    TIP3     H2       HT       0.417000       1.00800           0
     60986 TIP3     17024    TIP3     OH2      OT      -0.834000       15.9994           0
     60987 TIP3     17024    TIP3     H1       HT       0.417000       1.00800           0
     60988 TIP3     17024    TIP3     H2       HT       0.417000       1.00800           0
     60989 TIP3     17025    TIP3     OH2      OT      -0.834000       15.9994           0
     60990 TIP3     17025    TIP3     H1       HT       0.417000       1.00800           0
     60991 TIP3     17025    TIP3     H2       HT       0.417000       1.00800           0
     60992 TIP3     17026    TIP3     OH2      OT      -0.834000       15.9994           0
     60993 TIP3     17026    TIP3     H1       HT       0.417000       1.00800           0
     60994 TIP3     17026    TIP3     H2       HT       0.417000       1.00800           0
     60995 TIP3     17027    TIP3     OH2      OT      -0.834000       15.9994           0
     60996 TIP3     17027    TIP3     H1       HT       0.417000       1.00800           0
     60997 TIP3     17027    TIP3     H2       HT       0.417000       1.00800           0
     60998 TIP3     17028    TIP3     OH2      OT      -0.834000       15.9994           0
     60999 TIP3     17028    TIP3     H1       HT       0.417000       1.00800           0
     61000 TIP3     17028    TIP3     H2       HT       0.417000       1.00800           0
     61001 TIP3     17029    TIP3     OH2      OT      -0.834000       15.9994           0
     61002 TIP3     17029    TIP3     H1       HT       0.417000       1.00800           0
     61003 TIP3     17029    TIP3     H2       HT       0.417000       1.00800           0
     61004 TIP3     17030    TIP3     OH2      OT      -0.834000       15.9994           0
     61005 TIP3     17030    TIP3     H1       HT       0.417000       1.00800           0
     61006 TIP3     17030    TIP3     H2       HT       0.417000       1.00800           0
     61007 TIP3     17031    TIP3     OH2      OT      -0.834000       15.9994           0
     61008 TIP3     17031    TIP3     H1       HT       0.417000       1.00800           0
     61009 TIP3     17031    TIP3     H2       HT       0.417000       1.00800           0
     61010 TIP3     17032    TIP3     OH2      OT      -0.834000       15.9994           0
     61011 TIP3     17032    TIP3     H1       HT       0.417000       1.00800           0
     61012 TIP3     17032    TIP3     H2       HT       0.417000       1.00800           0
     61013 TIP3     17033    TIP3     OH2      OT      -0.834000       15.9994           0
     61014 TIP3     17033    TIP3     H1       HT       0.417000       1.00800           0
     61015 TIP3     17033    TIP3     H2       HT       0.417000       1.00800           0
     61016 TIP3     17034    TIP3     OH2      OT      -0.834000       15.9994           0
     61017 TIP3     17034    TIP3     H1       HT       0.417000       1.00800           0
     61018 TIP3     17034    TIP3     H2       HT       0.417000       1.00800           0
     61019 TIP3     17035    TIP3     OH2      OT      -0.834000       15.9994           0
     61020 TIP3     17035    TIP3     H1       HT       0.417000       1.00800           0
     61021 TIP3     17035    TIP3     H2       HT       0.417000       1.00800           0
     61022 TIP3     17036    TIP3     OH2      OT      -0.834000       15.9994           0
     61023 TIP3     17036    TIP3     H1       HT       0.417000       1.00800           0
     61024 TIP3     17036    TIP3     H2       HT       0.417000       1.00800           0
     61025 TIP3     17037    TIP3     OH2      OT      -0.834000       15.9994           0
     61026 TIP3     17037    TIP3     H1       HT       0.417000       1.00800           0
     61027 TIP3     17037    TIP3     H2       HT       0.417000       1.00800           0
     61028 TIP3     17038    TIP3     OH2      OT      -0.834000       15.9994           0
     61029 TIP3     17038    TIP3     H1       HT       0.417000       1.00800           0
     61030 TIP3     17038    TIP3     H2       HT       0.417000       1.00800           0
     61031 TIP3     17039    TIP3     OH2      OT      -0.834000       15.9994           0
     61032 TIP3     17039    TIP3     H1       HT       0.417000       1.00800           0
     61033 TIP3     17039    TIP3     H2       HT       0.417000       1.00800           0
     61034 TIP3     17040    TIP3     OH2      OT      -0.834000       15.9994           0
     61035 TIP3     17040    TIP3     H1       HT       0.417000       1.00800           0
     61036 TIP3     17040    TIP3     H2       HT       0.417000       1.00800           0
     61037 TIP3     17041    TIP3     OH2      OT      -0.834000       15.9994           0
     61038 TIP3     17041    TIP3     H1       HT       0.417000       1.00800           0
     61039 TIP3     17041    TIP3     H2       HT       0.417000       1.00800           0
     61040 TIP3     17042    TIP3     OH2      OT      -0.834000       15.9994           0
     61041 TIP3     17042    TIP3     H1       HT       0.417000       1.00800           0
     61042 TIP3     17042    TIP3     H2       HT       0.417000       1.00800           0
     61043 TIP3     17043    TIP3     OH2      OT      -0.834000       15.9994           0
     61044 TIP3     17043    TIP3     H1       HT       0.417000       1.00800           0
     61045 TIP3     17043    TIP3     H2       HT       0.417000       1.00800           0
     61046 TIP3     17044    TIP3     OH2      OT      -0.834000       15.9994           0
     61047 TIP3     17044    TIP3     H1       HT       0.417000       1.00800           0
     61048 TIP3     17044    TIP3     H2       HT       0.417000       1.00800           0
     61049 TIP3     17045    TIP3     OH2      OT      -0.834000       15.9994           0
     61050 TIP3     17045    TIP3     H1       HT       0.417000       1.00800           0
     61051 TIP3     17045    TIP3     H2       HT       0.417000       1.00800           0
     61052 TIP3     17046    TIP3     OH2      OT      -0.834000       15.9994           0
     61053 TIP3     17046    TIP3     H1       HT       0.417000       1.00800           0
     61054 TIP3     17046    TIP3     H2       HT       0.417000       1.00800           0
     61055 TIP3     17047    TIP3     OH2      OT      -0.834000       15.9994           0
     61056 TIP3     17047    TIP3     H1       HT       0.417000       1.00800           0
     61057 TIP3     17047    TIP3     H2       HT       0.417000       1.00800           0
     61058 TIP3     17048    TIP3     OH2      OT      -0.834000       15.9994           0
     61059 TIP3     17048    TIP3     H1       HT       0.417000       1.00800           0
     61060 TIP3     17048    TIP3     H2       HT       0.417000       1.00800           0
     61061 TIP3     17049    TIP3     OH2      OT      -0.834000       15.9994           0
     61062 TIP3     17049    TIP3     H1       HT       0.417000       1.00800           0
     61063 TIP3     17049    TIP3     H2       HT       0.417000       1.00800           0
     61064 TIP3     17050    TIP3     OH2      OT      -0.834000       15.9994           0
     61065 TIP3     17050    TIP3     H1       HT       0.417000       1.00800           0
     61066 TIP3     17050    TIP3     H2       HT       0.417000       1.00800           0
     61067 TIP3     17051    TIP3     OH2      OT      -0.834000       15.9994           0
     61068 TIP3     17051    TIP3     H1       HT       0.417000       1.00800           0
     61069 TIP3     17051    TIP3     H2       HT       0.417000       1.00800           0
     61070 TIP3     17052    TIP3     OH2      OT      -0.834000       15.9994           0
     61071 TIP3     17052    TIP3     H1       HT       0.417000       1.00800           0
     61072 TIP3     17052    TIP3     H2       HT       0.417000       1.00800           0
     61073 TIP3     17053    TIP3     OH2      OT      -0.834000       15.9994           0
     61074 TIP3     17053    TIP3     H1       HT       0.417000       1.00800           0
     61075 TIP3     17053    TIP3     H2       HT       0.417000       1.00800           0
     61076 TIP3     17054    TIP3     OH2      OT      -0.834000       15.9994           0
     61077 TIP3     17054    TIP3     H1       HT       0.417000       1.00800           0
     61078 TIP3     17054    TIP3     H2       HT       0.417000       1.00800           0
     61079 TIP3     17055    TIP3     OH2      OT      -0.834000       15.9994           0
     61080 TIP3     17055    TIP3     H1       HT       0.417000       1.00800           0
     61081 TIP3     17055    TIP3     H2       HT       0.417000       1.00800           0
     61082 TIP3     17056    TIP3     OH2      OT      -0.834000       15.9994           0
     61083 TIP3     17056    TIP3     H1       HT       0.417000       1.00800           0
     61084 TIP3     17056    TIP3     H2       HT       0.417000       1.00800           0
     61085 TIP3     17057    TIP3     OH2      OT      -0.834000       15.9994           0
     61086 TIP3     17057    TIP3     H1       HT       0.417000       1.00800           0
     61087 TIP3     17057    TIP3     H2       HT       0.417000       1.00800           0
     61088 TIP3     17058    TIP3     OH2      OT      -0.834000       15.9994           0
     61089 TIP3     17058    TIP3     H1       HT       0.417000       1.00800           0
     61090 TIP3     17058    TIP3     H2       HT       0.417000       1.00800           0
     61091 TIP3     17059    TIP3     OH2      OT      -0.834000       15.9994           0
     61092 TIP3     17059    TIP3     H1       HT       0.417000       1.00800           0
     61093 TIP3     17059    TIP3     H2       HT       0.417000       1.00800           0
     61094 TIP3     17060    TIP3     OH2      OT      -0.834000       15.9994           0
     61095 TIP3     17060    TIP3     H1       HT       0.417000       1.00800           0
     61096 TIP3     17060    TIP3     H2       HT       0.417000       1.00800           0
     61097 TIP3     17061    TIP3     OH2      OT      -0.834000       15.9994           0
     61098 TIP3     17061    TIP3     H1       HT       0.417000       1.00800           0
     61099 TIP3     17061    TIP3     H2       HT       0.417000       1.00800           0
     61100 TIP3     17062    TIP3     OH2      OT      -0.834000       15.9994           0
     61101 TIP3     17062    TIP3     H1       HT       0.417000       1.00800           0
     61102 TIP3     17062    TIP3     H2       HT       0.417000       1.00800           0
     61103 TIP3     17063    TIP3     OH2      OT      -0.834000       15.9994           0
     61104 TIP3     17063    TIP3     H1       HT       0.417000       1.00800           0
     61105 TIP3     17063    TIP3     H2       HT       0.417000       1.00800           0
     61106 TIP3     17064    TIP3     OH2      OT      -0.834000       15.9994           0
     61107 TIP3     17064    TIP3     H1       HT       0.417000       1.00800           0
     61108 TIP3     17064    TIP3     H2       HT       0.417000       1.00800           0
     61109 TIP3     17065    TIP3     OH2      OT      -0.834000       15.9994           0
     61110 TIP3     17065    TIP3     H1       HT       0.417000       1.00800           0
     61111 TIP3     17065    TIP3     H2       HT       0.417000       1.00800           0
     61112 TIP3     17066    TIP3     OH2      OT      -0.834000       15.9994           0
     61113 TIP3     17066    TIP3     H1       HT       0.417000       1.00800           0
     61114 TIP3     17066    TIP3     H2       HT       0.417000       1.00800           0
     61115 TIP3     17067    TIP3     OH2      OT      -0.834000       15.9994           0
     61116 TIP3     17067    TIP3     H1       HT       0.417000       1.00800           0
     61117 TIP3     17067    TIP3     H2       HT       0.417000       1.00800           0
     61118 TIP3     17068    TIP3     OH2      OT      -0.834000       15.9994           0
     61119 TIP3     17068    TIP3     H1       HT       0.417000       1.00800           0
     61120 TIP3     17068    TIP3     H2       HT       0.417000       1.00800           0
     61121 TIP3     17069    TIP3     OH2      OT      -0.834000       15.9994           0
     61122 TIP3     17069    TIP3     H1       HT       0.417000       1.00800           0
     61123 TIP3     17069    TIP3     H2       HT       0.417000       1.00800           0
     61124 TIP3     17070    TIP3     OH2      OT      -0.834000       15.9994           0
     61125 TIP3     17070    TIP3     H1       HT       0.417000       1.00800           0
     61126 TIP3     17070    TIP3     H2       HT       0.417000       1.00800           0
     61127 TIP3     17071    TIP3     OH2      OT      -0.834000       15.9994           0
     61128 TIP3     17071    TIP3     H1       HT       0.417000       1.00800           0
     61129 TIP3     17071    TIP3     H2       HT       0.417000       1.00800           0
     61130 TIP3     17072    TIP3     OH2      OT      -0.834000       15.9994           0
     61131 TIP3     17072    TIP3     H1       HT       0.417000       1.00800           0
     61132 TIP3     17072    TIP3     H2       HT       0.417000       1.00800           0
     61133 TIP3     17073    TIP3     OH2      OT      -0.834000       15.9994           0
     61134 TIP3     17073    TIP3     H1       HT       0.417000       1.00800           0
     61135 TIP3     17073    TIP3     H2       HT       0.417000       1.00800           0
     61136 TIP3     17074    TIP3     OH2      OT      -0.834000       15.9994           0
     61137 TIP3     17074    TIP3     H1       HT       0.417000       1.00800           0
     61138 TIP3     17074    TIP3     H2       HT       0.417000       1.00800           0
     61139 TIP3     17075    TIP3     OH2      OT      -0.834000       15.9994           0
     61140 TIP3     17075    TIP3     H1       HT       0.417000       1.00800           0
     61141 TIP3     17075    TIP3     H2       HT       0.417000       1.00800           0
     61142 TIP3     17076    TIP3     OH2      OT      -0.834000       15.9994           0
     61143 TIP3     17076    TIP3     H1       HT       0.417000       1.00800           0
     61144 TIP3     17076    TIP3     H2       HT       0.417000       1.00800           0
     61145 TIP3     17077    TIP3     OH2      OT      -0.834000       15.9994           0
     61146 TIP3     17077    TIP3     H1       HT       0.417000       1.00800           0
     61147 TIP3     17077    TIP3     H2       HT       0.417000       1.00800           0
     61148 TIP3     17078    TIP3     OH2      OT      -0.834000       15.9994           0
     61149 TIP3     17078    TIP3     H1       HT       0.417000       1.00800           0
     61150 TIP3     17078    TIP3     H2       HT       0.417000       1.00800           0
     61151 TIP3     17079    TIP3     OH2      OT      -0.834000       15.9994           0
     61152 TIP3     17079    TIP3     H1       HT       0.417000       1.00800           0
     61153 TIP3     17079    TIP3     H2       HT       0.417000       1.00800           0
     61154 TIP3     17080    TIP3     OH2      OT      -0.834000       15.9994           0
     61155 TIP3     17080    TIP3     H1       HT       0.417000       1.00800           0
     61156 TIP3     17080    TIP3     H2       HT       0.417000       1.00800           0
     61157 TIP3     17081    TIP3     OH2      OT      -0.834000       15.9994           0
     61158 TIP3     17081    TIP3     H1       HT       0.417000       1.00800           0
     61159 TIP3     17081    TIP3     H2       HT       0.417000       1.00800           0
     61160 TIP3     17082    TIP3     OH2      OT      -0.834000       15.9994           0
     61161 TIP3     17082    TIP3     H1       HT       0.417000       1.00800           0
     61162 TIP3     17082    TIP3     H2       HT       0.417000       1.00800           0
     61163 TIP3     17083    TIP3     OH2      OT      -0.834000       15.9994           0
     61164 TIP3     17083    TIP3     H1       HT       0.417000       1.00800           0
     61165 TIP3     17083    TIP3     H2       HT       0.417000       1.00800           0
     61166 TIP3     17084    TIP3     OH2      OT      -0.834000       15.9994           0
     61167 TIP3     17084    TIP3     H1       HT       0.417000       1.00800           0
     61168 TIP3     17084    TIP3     H2       HT       0.417000       1.00800           0
     61169 TIP3     17085    TIP3     OH2      OT      -0.834000       15.9994           0
     61170 TIP3     17085    TIP3     H1       HT       0.417000       1.00800           0
     61171 TIP3     17085    TIP3     H2       HT       0.417000       1.00800           0
     61172 TIP3     17086    TIP3     OH2      OT      -0.834000       15.9994           0
     61173 TIP3     17086    TIP3     H1       HT       0.417000       1.00800           0
     61174 TIP3     17086    TIP3     H2       HT       0.417000       1.00800           0
     61175 TIP3     17087    TIP3     OH2      OT      -0.834000       15.9994           0
     61176 TIP3     17087    TIP3     H1       HT       0.417000       1.00800           0
     61177 TIP3     17087    TIP3     H2       HT       0.417000       1.00800           0
     61178 TIP3     17088    TIP3     OH2      OT      -0.834000       15.9994           0
     61179 TIP3     17088    TIP3     H1       HT       0.417000       1.00800           0
     61180 TIP3     17088    TIP3     H2       HT       0.417000       1.00800           0
     61181 TIP3     17089    TIP3     OH2      OT      -0.834000       15.9994           0
     61182 TIP3     17089    TIP3     H1       HT       0.417000       1.00800           0
     61183 TIP3     17089    TIP3     H2       HT       0.417000       1.00800           0
     61184 TIP3     17090    TIP3     OH2      OT      -0.834000       15.9994           0
     61185 TIP3     17090    TIP3     H1       HT       0.417000       1.00800           0
     61186 TIP3     17090    TIP3     H2       HT       0.417000       1.00800           0
     61187 TIP3     17091    TIP3     OH2      OT      -0.834000       15.9994           0
     61188 TIP3     17091    TIP3     H1       HT       0.417000       1.00800           0
     61189 TIP3     17091    TIP3     H2       HT       0.417000       1.00800           0
     61190 TIP3     17092    TIP3     OH2      OT      -0.834000       15.9994           0
     61191 TIP3     17092    TIP3     H1       HT       0.417000       1.00800           0
     61192 TIP3     17092    TIP3     H2       HT       0.417000       1.00800           0
     61193 TIP3     17093    TIP3     OH2      OT      -0.834000       15.9994           0
     61194 TIP3     17093    TIP3     H1       HT       0.417000       1.00800           0
     61195 TIP3     17093    TIP3     H2       HT       0.417000       1.00800           0
     61196 TIP3     17094    TIP3     OH2      OT      -0.834000       15.9994           0
     61197 TIP3     17094    TIP3     H1       HT       0.417000       1.00800           0
     61198 TIP3     17094    TIP3     H2       HT       0.417000       1.00800           0
     61199 TIP3     17095    TIP3     OH2      OT      -0.834000       15.9994           0
     61200 TIP3     17095    TIP3     H1       HT       0.417000       1.00800           0
     61201 TIP3     17095    TIP3     H2       HT       0.417000       1.00800           0
     61202 TIP3     17096    TIP3     OH2      OT      -0.834000       15.9994           0
     61203 TIP3     17096    TIP3     H1       HT       0.417000       1.00800           0
     61204 TIP3     17096    TIP3     H2       HT       0.417000       1.00800           0
     61205 TIP3     17097    TIP3     OH2      OT      -0.834000       15.9994           0
     61206 TIP3     17097    TIP3     H1       HT       0.417000       1.00800           0
     61207 TIP3     17097    TIP3     H2       HT       0.417000       1.00800           0
     61208 TIP3     17098    TIP3     OH2      OT      -0.834000       15.9994           0
     61209 TIP3     17098    TIP3     H1       HT       0.417000       1.00800           0
     61210 TIP3     17098    TIP3     H2       HT       0.417000       1.00800           0
     61211 TIP3     17099    TIP3     OH2      OT      -0.834000       15.9994           0
     61212 TIP3     17099    TIP3     H1       HT       0.417000       1.00800           0
     61213 TIP3     17099    TIP3     H2       HT       0.417000       1.00800           0
     61214 TIP3     17100    TIP3     OH2      OT      -0.834000       15.9994           0
     61215 TIP3     17100    TIP3     H1       HT       0.417000       1.00800           0
     61216 TIP3     17100    TIP3     H2       HT       0.417000       1.00800           0
     61217 TIP3     17101    TIP3     OH2      OT      -0.834000       15.9994           0
     61218 TIP3     17101    TIP3     H1       HT       0.417000       1.00800           0
     61219 TIP3     17101    TIP3     H2       HT       0.417000       1.00800           0
     61220 TIP3     17102    TIP3     OH2      OT      -0.834000       15.9994           0
     61221 TIP3     17102    TIP3     H1       HT       0.417000       1.00800           0
     61222 TIP3     17102    TIP3     H2       HT       0.417000       1.00800           0
     61223 TIP3     17103    TIP3     OH2      OT      -0.834000       15.9994           0
     61224 TIP3     17103    TIP3     H1       HT       0.417000       1.00800           0
     61225 TIP3     17103    TIP3     H2       HT       0.417000       1.00800           0
     61226 TIP3     17104    TIP3     OH2      OT      -0.834000       15.9994           0
     61227 TIP3     17104    TIP3     H1       HT       0.417000       1.00800           0
     61228 TIP3     17104    TIP3     H2       HT       0.417000       1.00800           0
     61229 TIP3     17105    TIP3     OH2      OT      -0.834000       15.9994           0
     61230 TIP3     17105    TIP3     H1       HT       0.417000       1.00800           0
     61231 TIP3     17105    TIP3     H2       HT       0.417000       1.00800           0
     61232 TIP3     17106    TIP3     OH2      OT      -0.834000       15.9994           0
     61233 TIP3     17106    TIP3     H1       HT       0.417000       1.00800           0
     61234 TIP3     17106    TIP3     H2       HT       0.417000       1.00800           0
     61235 TIP3     17107    TIP3     OH2      OT      -0.834000       15.9994           0
     61236 TIP3     17107    TIP3     H1       HT       0.417000       1.00800           0
     61237 TIP3     17107    TIP3     H2       HT       0.417000       1.00800           0
     61238 TIP3     17108    TIP3     OH2      OT      -0.834000       15.9994           0
     61239 TIP3     17108    TIP3     H1       HT       0.417000       1.00800           0
     61240 TIP3     17108    TIP3     H2       HT       0.417000       1.00800           0
     61241 TIP3     17109    TIP3     OH2      OT      -0.834000       15.9994           0
     61242 TIP3     17109    TIP3     H1       HT       0.417000       1.00800           0
     61243 TIP3     17109    TIP3     H2       HT       0.417000       1.00800           0
     61244 TIP3     17110    TIP3     OH2      OT      -0.834000       15.9994           0
     61245 TIP3     17110    TIP3     H1       HT       0.417000       1.00800           0
     61246 TIP3     17110    TIP3     H2       HT       0.417000       1.00800           0
     61247 TIP3     17111    TIP3     OH2      OT      -0.834000       15.9994           0
     61248 TIP3     17111    TIP3     H1       HT       0.417000       1.00800           0
     61249 TIP3     17111    TIP3     H2       HT       0.417000       1.00800           0
     61250 TIP3     17112    TIP3     OH2      OT      -0.834000       15.9994           0
     61251 TIP3     17112    TIP3     H1       HT       0.417000       1.00800           0
     61252 TIP3     17112    TIP3     H2       HT       0.417000       1.00800           0
     61253 TIP3     17113    TIP3     OH2      OT      -0.834000       15.9994           0
     61254 TIP3     17113    TIP3     H1       HT       0.417000       1.00800           0
     61255 TIP3     17113    TIP3     H2       HT       0.417000       1.00800           0
     61256 TIP3     17114    TIP3     OH2      OT      -0.834000       15.9994           0
     61257 TIP3     17114    TIP3     H1       HT       0.417000       1.00800           0
     61258 TIP3     17114    TIP3     H2       HT       0.417000       1.00800           0
     61259 TIP3     17115    TIP3     OH2      OT      -0.834000       15.9994           0
     61260 TIP3     17115    TIP3     H1       HT       0.417000       1.00800           0
     61261 TIP3     17115    TIP3     H2       HT       0.417000       1.00800           0
     61262 TIP3     17116    TIP3     OH2      OT      -0.834000       15.9994           0
     61263 TIP3     17116    TIP3     H1       HT       0.417000       1.00800           0
     61264 TIP3     17116    TIP3     H2       HT       0.417000       1.00800           0
     61265 TIP3     17117    TIP3     OH2      OT      -0.834000       15.9994           0
     61266 TIP3     17117    TIP3     H1       HT       0.417000       1.00800           0
     61267 TIP3     17117    TIP3     H2       HT       0.417000       1.00800           0
     61268 TIP3     17118    TIP3     OH2      OT      -0.834000       15.9994           0
     61269 TIP3     17118    TIP3     H1       HT       0.417000       1.00800           0
     61270 TIP3     17118    TIP3     H2       HT       0.417000       1.00800           0
     61271 TIP3     17119    TIP3     OH2      OT      -0.834000       15.9994           0
     61272 TIP3     17119    TIP3     H1       HT       0.417000       1.00800           0
     61273 TIP3     17119    TIP3     H2       HT       0.417000       1.00800           0
     61274 TIP3     17120    TIP3     OH2      OT      -0.834000       15.9994           0
     61275 TIP3     17120    TIP3     H1       HT       0.417000       1.00800           0
     61276 TIP3     17120    TIP3     H2       HT       0.417000       1.00800           0
     61277 TIP3     17121    TIP3     OH2      OT      -0.834000       15.9994           0
     61278 TIP3     17121    TIP3     H1       HT       0.417000       1.00800           0
     61279 TIP3     17121    TIP3     H2       HT       0.417000       1.00800           0
     61280 TIP3     17122    TIP3     OH2      OT      -0.834000       15.9994           0
     61281 TIP3     17122    TIP3     H1       HT       0.417000       1.00800           0
     61282 TIP3     17122    TIP3     H2       HT       0.417000       1.00800           0
     61283 TIP3     17123    TIP3     OH2      OT      -0.834000       15.9994           0
     61284 TIP3     17123    TIP3     H1       HT       0.417000       1.00800           0
     61285 TIP3     17123    TIP3     H2       HT       0.417000       1.00800           0
     61286 TIP3     17124    TIP3     OH2      OT      -0.834000       15.9994           0
     61287 TIP3     17124    TIP3     H1       HT       0.417000       1.00800           0
     61288 TIP3     17124    TIP3     H2       HT       0.417000       1.00800           0
     61289 TIP3     17125    TIP3     OH2      OT      -0.834000       15.9994           0
     61290 TIP3     17125    TIP3     H1       HT       0.417000       1.00800           0
     61291 TIP3     17125    TIP3     H2       HT       0.417000       1.00800           0
     61292 TIP3     17126    TIP3     OH2      OT      -0.834000       15.9994           0
     61293 TIP3     17126    TIP3     H1       HT       0.417000       1.00800           0
     61294 TIP3     17126    TIP3     H2       HT       0.417000       1.00800           0
     61295 TIP3     17127    TIP3     OH2      OT      -0.834000       15.9994           0
     61296 TIP3     17127    TIP3     H1       HT       0.417000       1.00800           0
     61297 TIP3     17127    TIP3     H2       HT       0.417000       1.00800           0
     61298 TIP3     17128    TIP3     OH2      OT      -0.834000       15.9994           0
     61299 TIP3     17128    TIP3     H1       HT       0.417000       1.00800           0
     61300 TIP3     17128    TIP3     H2       HT       0.417000       1.00800           0
     61301 TIP3     17129    TIP3     OH2      OT      -0.834000       15.9994           0
     61302 TIP3     17129    TIP3     H1       HT       0.417000       1.00800           0
     61303 TIP3     17129    TIP3     H2       HT       0.417000       1.00800           0
     61304 TIP3     17130    TIP3     OH2      OT      -0.834000       15.9994           0
     61305 TIP3     17130    TIP3     H1       HT       0.417000       1.00800           0
     61306 TIP3     17130    TIP3     H2       HT       0.417000       1.00800           0
     61307 TIP3     17131    TIP3     OH2      OT      -0.834000       15.9994           0
     61308 TIP3     17131    TIP3     H1       HT       0.417000       1.00800           0
     61309 TIP3     17131    TIP3     H2       HT       0.417000       1.00800           0
     61310 TIP3     17132    TIP3     OH2      OT      -0.834000       15.9994           0
     61311 TIP3     17132    TIP3     H1       HT       0.417000       1.00800           0
     61312 TIP3     17132    TIP3     H2       HT       0.417000       1.00800           0
     61313 TIP3     17133    TIP3     OH2      OT      -0.834000       15.9994           0
     61314 TIP3     17133    TIP3     H1       HT       0.417000       1.00800           0
     61315 TIP3     17133    TIP3     H2       HT       0.417000       1.00800           0
     61316 TIP3     17134    TIP3     OH2      OT      -0.834000       15.9994           0
     61317 TIP3     17134    TIP3     H1       HT       0.417000       1.00800           0
     61318 TIP3     17134    TIP3     H2       HT       0.417000       1.00800           0
     61319 TIP3     17135    TIP3     OH2      OT      -0.834000       15.9994           0
     61320 TIP3     17135    TIP3     H1       HT       0.417000       1.00800           0
     61321 TIP3     17135    TIP3     H2       HT       0.417000       1.00800           0
     61322 TIP3     17136    TIP3     OH2      OT      -0.834000       15.9994           0
     61323 TIP3     17136    TIP3     H1       HT       0.417000       1.00800           0
     61324 TIP3     17136    TIP3     H2       HT       0.417000       1.00800           0
     61325 TIP3     17137    TIP3     OH2      OT      -0.834000       15.9994           0
     61326 TIP3     17137    TIP3     H1       HT       0.417000       1.00800           0
     61327 TIP3     17137    TIP3     H2       HT       0.417000       1.00800           0
     61328 TIP3     17138    TIP3     OH2      OT      -0.834000       15.9994           0
     61329 TIP3     17138    TIP3     H1       HT       0.417000       1.00800           0
     61330 TIP3     17138    TIP3     H2       HT       0.417000       1.00800           0
     61331 TIP3     17139    TIP3     OH2      OT      -0.834000       15.9994           0
     61332 TIP3     17139    TIP3     H1       HT       0.417000       1.00800           0
     61333 TIP3     17139    TIP3     H2       HT       0.417000       1.00800           0
     61334 TIP3     17140    TIP3     OH2      OT      -0.834000       15.9994           0
     61335 TIP3     17140    TIP3     H1       HT       0.417000       1.00800           0
     61336 TIP3     17140    TIP3     H2       HT       0.417000       1.00800           0
     61337 TIP3     17141    TIP3     OH2      OT      -0.834000       15.9994           0
     61338 TIP3     17141    TIP3     H1       HT       0.417000       1.00800           0
     61339 TIP3     17141    TIP3     H2       HT       0.417000       1.00800           0
     61340 TIP3     17142    TIP3     OH2      OT      -0.834000       15.9994           0
     61341 TIP3     17142    TIP3     H1       HT       0.417000       1.00800           0
     61342 TIP3     17142    TIP3     H2       HT       0.417000       1.00800           0
     61343 TIP3     17143    TIP3     OH2      OT      -0.834000       15.9994           0
     61344 TIP3     17143    TIP3     H1       HT       0.417000       1.00800           0
     61345 TIP3     17143    TIP3     H2       HT       0.417000       1.00800           0
     61346 TIP3     17144    TIP3     OH2      OT      -0.834000       15.9994           0
     61347 TIP3     17144    TIP3     H1       HT       0.417000       1.00800           0
     61348 TIP3     17144    TIP3     H2       HT       0.417000       1.00800           0
     61349 TIP3     17145    TIP3     OH2      OT      -0.834000       15.9994           0
     61350 TIP3     17145    TIP3     H1       HT       0.417000       1.00800           0
     61351 TIP3     17145    TIP3     H2       HT       0.417000       1.00800           0
     61352 TIP3     17146    TIP3     OH2      OT      -0.834000       15.9994           0
     61353 TIP3     17146    TIP3     H1       HT       0.417000       1.00800           0
     61354 TIP3     17146    TIP3     H2       HT       0.417000       1.00800           0
     61355 TIP3     17147    TIP3     OH2      OT      -0.834000       15.9994           0
     61356 TIP3     17147    TIP3     H1       HT       0.417000       1.00800           0
     61357 TIP3     17147    TIP3     H2       HT       0.417000       1.00800           0
     61358 TIP3     17148    TIP3     OH2      OT      -0.834000       15.9994           0
     61359 TIP3     17148    TIP3     H1       HT       0.417000       1.00800           0
     61360 TIP3     17148    TIP3     H2       HT       0.417000       1.00800           0
     61361 TIP3     17149    TIP3     OH2      OT      -0.834000       15.9994           0
     61362 TIP3     17149    TIP3     H1       HT       0.417000       1.00800           0
     61363 TIP3     17149    TIP3     H2       HT       0.417000       1.00800           0
     61364 TIP3     17150    TIP3     OH2      OT      -0.834000       15.9994           0
     61365 TIP3     17150    TIP3     H1       HT       0.417000       1.00800           0
     61366 TIP3     17150    TIP3     H2       HT       0.417000       1.00800           0
     61367 TIP3     17151    TIP3     OH2      OT      -0.834000       15.9994           0
     61368 TIP3     17151    TIP3     H1       HT       0.417000       1.00800           0
     61369 TIP3     17151    TIP3     H2       HT       0.417000       1.00800           0
     61370 TIP3     17152    TIP3     OH2      OT      -0.834000       15.9994           0
     61371 TIP3     17152    TIP3     H1       HT       0.417000       1.00800           0
     61372 TIP3     17152    TIP3     H2       HT       0.417000       1.00800           0
     61373 TIP3     17153    TIP3     OH2      OT      -0.834000       15.9994           0
     61374 TIP3     17153    TIP3     H1       HT       0.417000       1.00800           0
     61375 TIP3     17153    TIP3     H2       HT       0.417000       1.00800           0
     61376 TIP3     17154    TIP3     OH2      OT      -0.834000       15.9994           0
     61377 TIP3     17154    TIP3     H1       HT       0.417000       1.00800           0
     61378 TIP3     17154    TIP3     H2       HT       0.417000       1.00800           0
     61379 TIP3     17155    TIP3     OH2      OT      -0.834000       15.9994           0
     61380 TIP3     17155    TIP3     H1       HT       0.417000       1.00800           0
     61381 TIP3     17155    TIP3     H2       HT       0.417000       1.00800           0
     61382 TIP3     17156    TIP3     OH2      OT      -0.834000       15.9994           0
     61383 TIP3     17156    TIP3     H1       HT       0.417000       1.00800           0
     61384 TIP3     17156    TIP3     H2       HT       0.417000       1.00800           0
     61385 TIP3     17157    TIP3     OH2      OT      -0.834000       15.9994           0
     61386 TIP3     17157    TIP3     H1       HT       0.417000       1.00800           0
     61387 TIP3     17157    TIP3     H2       HT       0.417000       1.00800           0
     61388 TIP3     17158    TIP3     OH2      OT      -0.834000       15.9994           0
     61389 TIP3     17158    TIP3     H1       HT       0.417000       1.00800           0
     61390 TIP3     17158    TIP3     H2       HT       0.417000       1.00800           0
     61391 TIP3     17159    TIP3     OH2      OT      -0.834000       15.9994           0
     61392 TIP3     17159    TIP3     H1       HT       0.417000       1.00800           0
     61393 TIP3     17159    TIP3     H2       HT       0.417000       1.00800           0
     61394 TIP3     17160    TIP3     OH2      OT      -0.834000       15.9994           0
     61395 TIP3     17160    TIP3     H1       HT       0.417000       1.00800           0
     61396 TIP3     17160    TIP3     H2       HT       0.417000       1.00800           0
     61397 TIP3     17161    TIP3     OH2      OT      -0.834000       15.9994           0
     61398 TIP3     17161    TIP3     H1       HT       0.417000       1.00800           0
     61399 TIP3     17161    TIP3     H2       HT       0.417000       1.00800           0
     61400 TIP3     17162    TIP3     OH2      OT      -0.834000       15.9994           0
     61401 TIP3     17162    TIP3     H1       HT       0.417000       1.00800           0
     61402 TIP3     17162    TIP3     H2       HT       0.417000       1.00800           0
     61403 TIP3     17163    TIP3     OH2      OT      -0.834000       15.9994           0
     61404 TIP3     17163    TIP3     H1       HT       0.417000       1.00800           0
     61405 TIP3     17163    TIP3     H2       HT       0.417000       1.00800           0
     61406 TIP3     17164    TIP3     OH2      OT      -0.834000       15.9994           0
     61407 TIP3     17164    TIP3     H1       HT       0.417000       1.00800           0
     61408 TIP3     17164    TIP3     H2       HT       0.417000       1.00800           0
     61409 TIP3     17165    TIP3     OH2      OT      -0.834000       15.9994           0
     61410 TIP3     17165    TIP3     H1       HT       0.417000       1.00800           0
     61411 TIP3     17165    TIP3     H2       HT       0.417000       1.00800           0
     61412 TIP3     17166    TIP3     OH2      OT      -0.834000       15.9994           0
     61413 TIP3     17166    TIP3     H1       HT       0.417000       1.00800           0
     61414 TIP3     17166    TIP3     H2       HT       0.417000       1.00800           0
     61415 TIP3     17167    TIP3     OH2      OT      -0.834000       15.9994           0
     61416 TIP3     17167    TIP3     H1       HT       0.417000       1.00800           0
     61417 TIP3     17167    TIP3     H2       HT       0.417000       1.00800           0
     61418 TIP3     17168    TIP3     OH2      OT      -0.834000       15.9994           0
     61419 TIP3     17168    TIP3     H1       HT       0.417000       1.00800           0
     61420 TIP3     17168    TIP3     H2       HT       0.417000       1.00800           0
     61421 TIP3     17169    TIP3     OH2      OT      -0.834000       15.9994           0
     61422 TIP3     17169    TIP3     H1       HT       0.417000       1.00800           0
     61423 TIP3     17169    TIP3     H2       HT       0.417000       1.00800           0
     61424 TIP3     17170    TIP3     OH2      OT      -0.834000       15.9994           0
     61425 TIP3     17170    TIP3     H1       HT       0.417000       1.00800           0
     61426 TIP3     17170    TIP3     H2       HT       0.417000       1.00800           0
     61427 TIP3     17171    TIP3     OH2      OT      -0.834000       15.9994           0
     61428 TIP3     17171    TIP3     H1       HT       0.417000       1.00800           0
     61429 TIP3     17171    TIP3     H2       HT       0.417000       1.00800           0
     61430 TIP3     17172    TIP3     OH2      OT      -0.834000       15.9994           0
     61431 TIP3     17172    TIP3     H1       HT       0.417000       1.00800           0
     61432 TIP3     17172    TIP3     H2       HT       0.417000       1.00800           0
     61433 TIP3     17173    TIP3     OH2      OT      -0.834000       15.9994           0
     61434 TIP3     17173    TIP3     H1       HT       0.417000       1.00800           0
     61435 TIP3     17173    TIP3     H2       HT       0.417000       1.00800           0
     61436 TIP3     17174    TIP3     OH2      OT      -0.834000       15.9994           0
     61437 TIP3     17174    TIP3     H1       HT       0.417000       1.00800           0
     61438 TIP3     17174    TIP3     H2       HT       0.417000       1.00800           0
     61439 TIP3     17175    TIP3     OH2      OT      -0.834000       15.9994           0
     61440 TIP3     17175    TIP3     H1       HT       0.417000       1.00800           0
     61441 TIP3     17175    TIP3     H2       HT       0.417000       1.00800           0
     61442 TIP3     17176    TIP3     OH2      OT      -0.834000       15.9994           0
     61443 TIP3     17176    TIP3     H1       HT       0.417000       1.00800           0
     61444 TIP3     17176    TIP3     H2       HT       0.417000       1.00800           0
     61445 TIP3     17177    TIP3     OH2      OT      -0.834000       15.9994           0
     61446 TIP3     17177    TIP3     H1       HT       0.417000       1.00800           0
     61447 TIP3     17177    TIP3     H2       HT       0.417000       1.00800           0
     61448 TIP3     17178    TIP3     OH2      OT      -0.834000       15.9994           0
     61449 TIP3     17178    TIP3     H1       HT       0.417000       1.00800           0
     61450 TIP3     17178    TIP3     H2       HT       0.417000       1.00800           0
     61451 TIP3     17179    TIP3     OH2      OT      -0.834000       15.9994           0
     61452 TIP3     17179    TIP3     H1       HT       0.417000       1.00800           0
     61453 TIP3     17179    TIP3     H2       HT       0.417000       1.00800           0
     61454 TIP3     17180    TIP3     OH2      OT      -0.834000       15.9994           0
     61455 TIP3     17180    TIP3     H1       HT       0.417000       1.00800           0
     61456 TIP3     17180    TIP3     H2       HT       0.417000       1.00800           0
     61457 TIP3     17181    TIP3     OH2      OT      -0.834000       15.9994           0
     61458 TIP3     17181    TIP3     H1       HT       0.417000       1.00800           0
     61459 TIP3     17181    TIP3     H2       HT       0.417000       1.00800           0
     61460 TIP3     17182    TIP3     OH2      OT      -0.834000       15.9994           0
     61461 TIP3     17182    TIP3     H1       HT       0.417000       1.00800           0
     61462 TIP3     17182    TIP3     H2       HT       0.417000       1.00800           0
     61463 TIP3     17183    TIP3     OH2      OT      -0.834000       15.9994           0
     61464 TIP3     17183    TIP3     H1       HT       0.417000       1.00800           0
     61465 TIP3     17183    TIP3     H2       HT       0.417000       1.00800           0
     61466 TIP3     17184    TIP3     OH2      OT      -0.834000       15.9994           0
     61467 TIP3     17184    TIP3     H1       HT       0.417000       1.00800           0
     61468 TIP3     17184    TIP3     H2       HT       0.417000       1.00800           0
     61469 TIP3     17185    TIP3     OH2      OT      -0.834000       15.9994           0
     61470 TIP3     17185    TIP3     H1       HT       0.417000       1.00800           0
     61471 TIP3     17185    TIP3     H2       HT       0.417000       1.00800           0
     61472 TIP3     17186    TIP3     OH2      OT      -0.834000       15.9994           0
     61473 TIP3     17186    TIP3     H1       HT       0.417000       1.00800           0
     61474 TIP3     17186    TIP3     H2       HT       0.417000       1.00800           0
     61475 TIP3     17187    TIP3     OH2      OT      -0.834000       15.9994           0
     61476 TIP3     17187    TIP3     H1       HT       0.417000       1.00800           0
     61477 TIP3     17187    TIP3     H2       HT       0.417000       1.00800           0
     61478 TIP3     17188    TIP3     OH2      OT      -0.834000       15.9994           0
     61479 TIP3     17188    TIP3     H1       HT       0.417000       1.00800           0
     61480 TIP3     17188    TIP3     H2       HT       0.417000       1.00800           0
     61481 TIP3     17189    TIP3     OH2      OT      -0.834000       15.9994           0
     61482 TIP3     17189    TIP3     H1       HT       0.417000       1.00800           0
     61483 TIP3     17189    TIP3     H2       HT       0.417000       1.00800           0
     61484 TIP3     17190    TIP3     OH2      OT      -0.834000       15.9994           0
     61485 TIP3     17190    TIP3     H1       HT       0.417000       1.00800           0
     61486 TIP3     17190    TIP3     H2       HT       0.417000       1.00800           0
     61487 TIP3     17191    TIP3     OH2      OT      -0.834000       15.9994           0
     61488 TIP3     17191    TIP3     H1       HT       0.417000       1.00800           0
     61489 TIP3     17191    TIP3     H2       HT       0.417000       1.00800           0
     61490 TIP3     17192    TIP3     OH2      OT      -0.834000       15.9994           0
     61491 TIP3     17192    TIP3     H1       HT       0.417000       1.00800           0
     61492 TIP3     17192    TIP3     H2       HT       0.417000       1.00800           0
     61493 TIP3     17193    TIP3     OH2      OT      -0.834000       15.9994           0
     61494 TIP3     17193    TIP3     H1       HT       0.417000       1.00800           0
     61495 TIP3     17193    TIP3     H2       HT       0.417000       1.00800           0
     61496 TIP3     17194    TIP3     OH2      OT      -0.834000       15.9994           0
     61497 TIP3     17194    TIP3     H1       HT       0.417000       1.00800           0
     61498 TIP3     17194    TIP3     H2       HT       0.417000       1.00800           0
     61499 TIP3     17195    TIP3     OH2      OT      -0.834000       15.9994           0
     61500 TIP3     17195    TIP3     H1       HT       0.417000       1.00800           0
     61501 TIP3     17195    TIP3     H2       HT       0.417000       1.00800           0
     61502 TIP3     17196    TIP3     OH2      OT      -0.834000       15.9994           0
     61503 TIP3     17196    TIP3     H1       HT       0.417000       1.00800           0
     61504 TIP3     17196    TIP3     H2       HT       0.417000       1.00800           0
     61505 TIP3     17197    TIP3     OH2      OT      -0.834000       15.9994           0
     61506 TIP3     17197    TIP3     H1       HT       0.417000       1.00800           0
     61507 TIP3     17197    TIP3     H2       HT       0.417000       1.00800           0
     61508 TIP3     17198    TIP3     OH2      OT      -0.834000       15.9994           0
     61509 TIP3     17198    TIP3     H1       HT       0.417000       1.00800           0
     61510 TIP3     17198    TIP3     H2       HT       0.417000       1.00800           0
     61511 TIP3     17199    TIP3     OH2      OT      -0.834000       15.9994           0
     61512 TIP3     17199    TIP3     H1       HT       0.417000       1.00800           0
     61513 TIP3     17199    TIP3     H2       HT       0.417000       1.00800           0
     61514 TIP3     17200    TIP3     OH2      OT      -0.834000       15.9994           0
     61515 TIP3     17200    TIP3     H1       HT       0.417000       1.00800           0
     61516 TIP3     17200    TIP3     H2       HT       0.417000       1.00800           0
     61517 TIP3     17201    TIP3     OH2      OT      -0.834000       15.9994           0
     61518 TIP3     17201    TIP3     H1       HT       0.417000       1.00800           0
     61519 TIP3     17201    TIP3     H2       HT       0.417000       1.00800           0
     61520 TIP3     17202    TIP3     OH2      OT      -0.834000       15.9994           0
     61521 TIP3     17202    TIP3     H1       HT       0.417000       1.00800           0
     61522 TIP3     17202    TIP3     H2       HT       0.417000       1.00800           0
     61523 TIP3     17203    TIP3     OH2      OT      -0.834000       15.9994           0
     61524 TIP3     17203    TIP3     H1       HT       0.417000       1.00800           0
     61525 TIP3     17203    TIP3     H2       HT       0.417000       1.00800           0
     61526 TIP3     17204    TIP3     OH2      OT      -0.834000       15.9994           0
     61527 TIP3     17204    TIP3     H1       HT       0.417000       1.00800           0
     61528 TIP3     17204    TIP3     H2       HT       0.417000       1.00800           0
     61529 TIP3     17205    TIP3     OH2      OT      -0.834000       15.9994           0
     61530 TIP3     17205    TIP3     H1       HT       0.417000       1.00800           0
     61531 TIP3     17205    TIP3     H2       HT       0.417000       1.00800           0
     61532 TIP3     17206    TIP3     OH2      OT      -0.834000       15.9994           0
     61533 TIP3     17206    TIP3     H1       HT       0.417000       1.00800           0
     61534 TIP3     17206    TIP3     H2       HT       0.417000       1.00800           0
     61535 TIP3     17207    TIP3     OH2      OT      -0.834000       15.9994           0
     61536 TIP3     17207    TIP3     H1       HT       0.417000       1.00800           0
     61537 TIP3     17207    TIP3     H2       HT       0.417000       1.00800           0
     61538 TIP3     17208    TIP3     OH2      OT      -0.834000       15.9994           0
     61539 TIP3     17208    TIP3     H1       HT       0.417000       1.00800           0
     61540 TIP3     17208    TIP3     H2       HT       0.417000       1.00800           0
     61541 TIP3     17209    TIP3     OH2      OT      -0.834000       15.9994           0
     61542 TIP3     17209    TIP3     H1       HT       0.417000       1.00800           0
     61543 TIP3     17209    TIP3     H2       HT       0.417000       1.00800           0
     61544 TIP3     17210    TIP3     OH2      OT      -0.834000       15.9994           0
     61545 TIP3     17210    TIP3     H1       HT       0.417000       1.00800           0
     61546 TIP3     17210    TIP3     H2       HT       0.417000       1.00800           0
     61547 TIP3     17211    TIP3     OH2      OT      -0.834000       15.9994           0
     61548 TIP3     17211    TIP3     H1       HT       0.417000       1.00800           0
     61549 TIP3     17211    TIP3     H2       HT       0.417000       1.00800           0
     61550 TIP3     17212    TIP3     OH2      OT      -0.834000       15.9994           0
     61551 TIP3     17212    TIP3     H1       HT       0.417000       1.00800           0
     61552 TIP3     17212    TIP3     H2       HT       0.417000       1.00800           0
     61553 TIP3     17213    TIP3     OH2      OT      -0.834000       15.9994           0
     61554 TIP3     17213    TIP3     H1       HT       0.417000       1.00800           0
     61555 TIP3     17213    TIP3     H2       HT       0.417000       1.00800           0
     61556 TIP3     17214    TIP3     OH2      OT      -0.834000       15.9994           0
     61557 TIP3     17214    TIP3     H1       HT       0.417000       1.00800           0
     61558 TIP3     17214    TIP3     H2       HT       0.417000       1.00800           0
     61559 TIP3     17215    TIP3     OH2      OT      -0.834000       15.9994           0
     61560 TIP3     17215    TIP3     H1       HT       0.417000       1.00800           0
     61561 TIP3     17215    TIP3     H2       HT       0.417000       1.00800           0
     61562 TIP3     17216    TIP3     OH2      OT      -0.834000       15.9994           0
     61563 TIP3     17216    TIP3     H1       HT       0.417000       1.00800           0
     61564 TIP3     17216    TIP3     H2       HT       0.417000       1.00800           0
     61565 TIP3     17217    TIP3     OH2      OT      -0.834000       15.9994           0
     61566 TIP3     17217    TIP3     H1       HT       0.417000       1.00800           0
     61567 TIP3     17217    TIP3     H2       HT       0.417000       1.00800           0
     61568 TIP3     17218    TIP3     OH2      OT      -0.834000       15.9994           0
     61569 TIP3     17218    TIP3     H1       HT       0.417000       1.00800           0
     61570 TIP3     17218    TIP3     H2       HT       0.417000       1.00800           0
     61571 TIP3     17219    TIP3     OH2      OT      -0.834000       15.9994           0
     61572 TIP3     17219    TIP3     H1       HT       0.417000       1.00800           0
     61573 TIP3     17219    TIP3     H2       HT       0.417000       1.00800           0
     61574 TIP3     17220    TIP3     OH2      OT      -0.834000       15.9994           0
     61575 TIP3     17220    TIP3     H1       HT       0.417000       1.00800           0
     61576 TIP3     17220    TIP3     H2       HT       0.417000       1.00800           0
     61577 TIP3     17221    TIP3     OH2      OT      -0.834000       15.9994           0
     61578 TIP3     17221    TIP3     H1       HT       0.417000       1.00800           0
     61579 TIP3     17221    TIP3     H2       HT       0.417000       1.00800           0
     61580 TIP3     17222    TIP3     OH2      OT      -0.834000       15.9994           0
     61581 TIP3     17222    TIP3     H1       HT       0.417000       1.00800           0
     61582 TIP3     17222    TIP3     H2       HT       0.417000       1.00800           0
     61583 TIP3     17223    TIP3     OH2      OT      -0.834000       15.9994           0
     61584 TIP3     17223    TIP3     H1       HT       0.417000       1.00800           0
     61585 TIP3     17223    TIP3     H2       HT       0.417000       1.00800           0
     61586 TIP3     17224    TIP3     OH2      OT      -0.834000       15.9994           0
     61587 TIP3     17224    TIP3     H1       HT       0.417000       1.00800           0
     61588 TIP3     17224    TIP3     H2       HT       0.417000       1.00800           0
     61589 TIP3     17225    TIP3     OH2      OT      -0.834000       15.9994           0
     61590 TIP3     17225    TIP3     H1       HT       0.417000       1.00800           0
     61591 TIP3     17225    TIP3     H2       HT       0.417000       1.00800           0
     61592 TIP3     17226    TIP3     OH2      OT      -0.834000       15.9994           0
     61593 TIP3     17226    TIP3     H1       HT       0.417000       1.00800           0
     61594 TIP3     17226    TIP3     H2       HT       0.417000       1.00800           0
     61595 TIP3     17227    TIP3     OH2      OT      -0.834000       15.9994           0
     61596 TIP3     17227    TIP3     H1       HT       0.417000       1.00800           0
     61597 TIP3     17227    TIP3     H2       HT       0.417000       1.00800           0
     61598 TIP3     17228    TIP3     OH2      OT      -0.834000       15.9994           0
     61599 TIP3     17228    TIP3     H1       HT       0.417000       1.00800           0
     61600 TIP3     17228    TIP3     H2       HT       0.417000       1.00800           0
     61601 TIP3     17229    TIP3     OH2      OT      -0.834000       15.9994           0
     61602 TIP3     17229    TIP3     H1       HT       0.417000       1.00800           0
     61603 TIP3     17229    TIP3     H2       HT       0.417000       1.00800           0
     61604 TIP3     17230    TIP3     OH2      OT      -0.834000       15.9994           0
     61605 TIP3     17230    TIP3     H1       HT       0.417000       1.00800           0
     61606 TIP3     17230    TIP3     H2       HT       0.417000       1.00800           0
     61607 TIP3     17231    TIP3     OH2      OT      -0.834000       15.9994           0
     61608 TIP3     17231    TIP3     H1       HT       0.417000       1.00800           0
     61609 TIP3     17231    TIP3     H2       HT       0.417000       1.00800           0
     61610 TIP3     17232    TIP3     OH2      OT      -0.834000       15.9994           0
     61611 TIP3     17232    TIP3     H1       HT       0.417000       1.00800           0
     61612 TIP3     17232    TIP3     H2       HT       0.417000       1.00800           0
     61613 TIP3     17233    TIP3     OH2      OT      -0.834000       15.9994           0
     61614 TIP3     17233    TIP3     H1       HT       0.417000       1.00800           0
     61615 TIP3     17233    TIP3     H2       HT       0.417000       1.00800           0
     61616 TIP3     17234    TIP3     OH2      OT      -0.834000       15.9994           0
     61617 TIP3     17234    TIP3     H1       HT       0.417000       1.00800           0
     61618 TIP3     17234    TIP3     H2       HT       0.417000       1.00800           0
     61619 TIP3     17235    TIP3     OH2      OT      -0.834000       15.9994           0
     61620 TIP3     17235    TIP3     H1       HT       0.417000       1.00800           0
     61621 TIP3     17235    TIP3     H2       HT       0.417000       1.00800           0
     61622 TIP3     17236    TIP3     OH2      OT      -0.834000       15.9994           0
     61623 TIP3     17236    TIP3     H1       HT       0.417000       1.00800           0
     61624 TIP3     17236    TIP3     H2       HT       0.417000       1.00800           0
     61625 TIP3     17237    TIP3     OH2      OT      -0.834000       15.9994           0
     61626 TIP3     17237    TIP3     H1       HT       0.417000       1.00800           0
     61627 TIP3     17237    TIP3     H2       HT       0.417000       1.00800           0
     61628 TIP3     17238    TIP3     OH2      OT      -0.834000       15.9994           0
     61629 TIP3     17238    TIP3     H1       HT       0.417000       1.00800           0
     61630 TIP3     17238    TIP3     H2       HT       0.417000       1.00800           0
     61631 TIP3     17239    TIP3     OH2      OT      -0.834000       15.9994           0
     61632 TIP3     17239    TIP3     H1       HT       0.417000       1.00800           0
     61633 TIP3     17239    TIP3     H2       HT       0.417000       1.00800           0
     61634 TIP3     17240    TIP3     OH2      OT      -0.834000       15.9994           0
     61635 TIP3     17240    TIP3     H1       HT       0.417000       1.00800           0
     61636 TIP3     17240    TIP3     H2       HT       0.417000       1.00800           0
     61637 TIP3     17241    TIP3     OH2      OT      -0.834000       15.9994           0
     61638 TIP3     17241    TIP3     H1       HT       0.417000       1.00800           0
     61639 TIP3     17241    TIP3     H2       HT       0.417000       1.00800           0
     61640 TIP3     17242    TIP3     OH2      OT      -0.834000       15.9994           0
     61641 TIP3     17242    TIP3     H1       HT       0.417000       1.00800           0
     61642 TIP3     17242    TIP3     H2       HT       0.417000       1.00800           0
     61643 TIP3     17243    TIP3     OH2      OT      -0.834000       15.9994           0
     61644 TIP3     17243    TIP3     H1       HT       0.417000       1.00800           0
     61645 TIP3     17243    TIP3     H2       HT       0.417000       1.00800           0
     61646 TIP3     17244    TIP3     OH2      OT      -0.834000       15.9994           0
     61647 TIP3     17244    TIP3     H1       HT       0.417000       1.00800           0
     61648 TIP3     17244    TIP3     H2       HT       0.417000       1.00800           0
     61649 TIP3     17245    TIP3     OH2      OT      -0.834000       15.9994           0
     61650 TIP3     17245    TIP3     H1       HT       0.417000       1.00800           0
     61651 TIP3     17245    TIP3     H2       HT       0.417000       1.00800           0
     61652 TIP3     17246    TIP3     OH2      OT      -0.834000       15.9994           0
     61653 TIP3     17246    TIP3     H1       HT       0.417000       1.00800           0
     61654 TIP3     17246    TIP3     H2       HT       0.417000       1.00800           0
     61655 TIP3     17247    TIP3     OH2      OT      -0.834000       15.9994           0
     61656 TIP3     17247    TIP3     H1       HT       0.417000       1.00800           0
     61657 TIP3     17247    TIP3     H2       HT       0.417000       1.00800           0
     61658 TIP3     17248    TIP3     OH2      OT      -0.834000       15.9994           0
     61659 TIP3     17248    TIP3     H1       HT       0.417000       1.00800           0
     61660 TIP3     17248    TIP3     H2       HT       0.417000       1.00800           0
     61661 TIP3     17249    TIP3     OH2      OT      -0.834000       15.9994           0
     61662 TIP3     17249    TIP3     H1       HT       0.417000       1.00800           0
     61663 TIP3     17249    TIP3     H2       HT       0.417000       1.00800           0
     61664 TIP3     17250    TIP3     OH2      OT      -0.834000       15.9994           0
     61665 TIP3     17250    TIP3     H1       HT       0.417000       1.00800           0
     61666 TIP3     17250    TIP3     H2       HT       0.417000       1.00800           0
     61667 TIP3     17251    TIP3     OH2      OT      -0.834000       15.9994           0
     61668 TIP3     17251    TIP3     H1       HT       0.417000       1.00800           0
     61669 TIP3     17251    TIP3     H2       HT       0.417000       1.00800           0
     61670 TIP3     17252    TIP3     OH2      OT      -0.834000       15.9994           0
     61671 TIP3     17252    TIP3     H1       HT       0.417000       1.00800           0
     61672 TIP3     17252    TIP3     H2       HT       0.417000       1.00800           0
     61673 TIP3     17253    TIP3     OH2      OT      -0.834000       15.9994           0
     61674 TIP3     17253    TIP3     H1       HT       0.417000       1.00800           0
     61675 TIP3     17253    TIP3     H2       HT       0.417000       1.00800           0
     61676 TIP3     17254    TIP3     OH2      OT      -0.834000       15.9994           0
     61677 TIP3     17254    TIP3     H1       HT       0.417000       1.00800           0
     61678 TIP3     17254    TIP3     H2       HT       0.417000       1.00800           0
     61679 TIP3     17255    TIP3     OH2      OT      -0.834000       15.9994           0
     61680 TIP3     17255    TIP3     H1       HT       0.417000       1.00800           0
     61681 TIP3     17255    TIP3     H2       HT       0.417000       1.00800           0
     61682 TIP3     17256    TIP3     OH2      OT      -0.834000       15.9994           0
     61683 TIP3     17256    TIP3     H1       HT       0.417000       1.00800           0
     61684 TIP3     17256    TIP3     H2       HT       0.417000       1.00800           0
     61685 TIP3     17257    TIP3     OH2      OT      -0.834000       15.9994           0
     61686 TIP3     17257    TIP3     H1       HT       0.417000       1.00800           0
     61687 TIP3     17257    TIP3     H2       HT       0.417000       1.00800           0
     61688 TIP3     17258    TIP3     OH2      OT      -0.834000       15.9994           0
     61689 TIP3     17258    TIP3     H1       HT       0.417000       1.00800           0
     61690 TIP3     17258    TIP3     H2       HT       0.417000       1.00800           0
     61691 TIP3     17259    TIP3     OH2      OT      -0.834000       15.9994           0
     61692 TIP3     17259    TIP3     H1       HT       0.417000       1.00800           0
     61693 TIP3     17259    TIP3     H2       HT       0.417000       1.00800           0
     61694 TIP3     17260    TIP3     OH2      OT      -0.834000       15.9994           0
     61695 TIP3     17260    TIP3     H1       HT       0.417000       1.00800           0
     61696 TIP3     17260    TIP3     H2       HT       0.417000       1.00800           0
     61697 TIP3     17261    TIP3     OH2      OT      -0.834000       15.9994           0
     61698 TIP3     17261    TIP3     H1       HT       0.417000       1.00800           0
     61699 TIP3     17261    TIP3     H2       HT       0.417000       1.00800           0
     61700 TIP3     17262    TIP3     OH2      OT      -0.834000       15.9994           0
     61701 TIP3     17262    TIP3     H1       HT       0.417000       1.00800           0
     61702 TIP3     17262    TIP3     H2       HT       0.417000       1.00800           0
     61703 TIP3     17263    TIP3     OH2      OT      -0.834000       15.9994           0
     61704 TIP3     17263    TIP3     H1       HT       0.417000       1.00800           0
     61705 TIP3     17263    TIP3     H2       HT       0.417000       1.00800           0
     61706 TIP3     17264    TIP3     OH2      OT      -0.834000       15.9994           0
     61707 TIP3     17264    TIP3     H1       HT       0.417000       1.00800           0
     61708 TIP3     17264    TIP3     H2       HT       0.417000       1.00800           0
     61709 TIP3     17265    TIP3     OH2      OT      -0.834000       15.9994           0
     61710 TIP3     17265    TIP3     H1       HT       0.417000       1.00800           0
     61711 TIP3     17265    TIP3     H2       HT       0.417000       1.00800           0
     61712 TIP3     17266    TIP3     OH2      OT      -0.834000       15.9994           0
     61713 TIP3     17266    TIP3     H1       HT       0.417000       1.00800           0
     61714 TIP3     17266    TIP3     H2       HT       0.417000       1.00800           0
     61715 TIP3     17267    TIP3     OH2      OT      -0.834000       15.9994           0
     61716 TIP3     17267    TIP3     H1       HT       0.417000       1.00800           0
     61717 TIP3     17267    TIP3     H2       HT       0.417000       1.00800           0
     61718 TIP3     17268    TIP3     OH2      OT      -0.834000       15.9994           0
     61719 TIP3     17268    TIP3     H1       HT       0.417000       1.00800           0
     61720 TIP3     17268    TIP3     H2       HT       0.417000       1.00800           0
     61721 TIP3     17269    TIP3     OH2      OT      -0.834000       15.9994           0
     61722 TIP3     17269    TIP3     H1       HT       0.417000       1.00800           0
     61723 TIP3     17269    TIP3     H2       HT       0.417000       1.00800           0
     61724 TIP3     17270    TIP3     OH2      OT      -0.834000       15.9994           0
     61725 TIP3     17270    TIP3     H1       HT       0.417000       1.00800           0
     61726 TIP3     17270    TIP3     H2       HT       0.417000       1.00800           0
     61727 TIP3     17271    TIP3     OH2      OT      -0.834000       15.9994           0
     61728 TIP3     17271    TIP3     H1       HT       0.417000       1.00800           0
     61729 TIP3     17271    TIP3     H2       HT       0.417000       1.00800           0
     61730 TIP3     17272    TIP3     OH2      OT      -0.834000       15.9994           0
     61731 TIP3     17272    TIP3     H1       HT       0.417000       1.00800           0
     61732 TIP3     17272    TIP3     H2       HT       0.417000       1.00800           0
     61733 TIP3     17273    TIP3     OH2      OT      -0.834000       15.9994           0
     61734 TIP3     17273    TIP3     H1       HT       0.417000       1.00800           0
     61735 TIP3     17273    TIP3     H2       HT       0.417000       1.00800           0
     61736 TIP3     17274    TIP3     OH2      OT      -0.834000       15.9994           0
     61737 TIP3     17274    TIP3     H1       HT       0.417000       1.00800           0
     61738 TIP3     17274    TIP3     H2       HT       0.417000       1.00800           0
     61739 TIP3     17275    TIP3     OH2      OT      -0.834000       15.9994           0
     61740 TIP3     17275    TIP3     H1       HT       0.417000       1.00800           0
     61741 TIP3     17275    TIP3     H2       HT       0.417000       1.00800           0
     61742 TIP3     17276    TIP3     OH2      OT      -0.834000       15.9994           0
     61743 TIP3     17276    TIP3     H1       HT       0.417000       1.00800           0
     61744 TIP3     17276    TIP3     H2       HT       0.417000       1.00800           0
     61745 TIP3     17277    TIP3     OH2      OT      -0.834000       15.9994           0
     61746 TIP3     17277    TIP3     H1       HT       0.417000       1.00800           0
     61747 TIP3     17277    TIP3     H2       HT       0.417000       1.00800           0
     61748 TIP3     17278    TIP3     OH2      OT      -0.834000       15.9994           0
     61749 TIP3     17278    TIP3     H1       HT       0.417000       1.00800           0
     61750 TIP3     17278    TIP3     H2       HT       0.417000       1.00800           0
     61751 TIP3     17279    TIP3     OH2      OT      -0.834000       15.9994           0
     61752 TIP3     17279    TIP3     H1       HT       0.417000       1.00800           0
     61753 TIP3     17279    TIP3     H2       HT       0.417000       1.00800           0
     61754 TIP3     17280    TIP3     OH2      OT      -0.834000       15.9994           0
     61755 TIP3     17280    TIP3     H1       HT       0.417000       1.00800           0
     61756 TIP3     17280    TIP3     H2       HT       0.417000       1.00800           0
     61757 TIP3     17281    TIP3     OH2      OT      -0.834000       15.9994           0
     61758 TIP3     17281    TIP3     H1       HT       0.417000       1.00800           0
     61759 TIP3     17281    TIP3     H2       HT       0.417000       1.00800           0
     61760 TIP3     17282    TIP3     OH2      OT      -0.834000       15.9994           0
     61761 TIP3     17282    TIP3     H1       HT       0.417000       1.00800           0
     61762 TIP3     17282    TIP3     H2       HT       0.417000       1.00800           0
     61763 TIP3     17283    TIP3     OH2      OT      -0.834000       15.9994           0
     61764 TIP3     17283    TIP3     H1       HT       0.417000       1.00800           0
     61765 TIP3     17283    TIP3     H2       HT       0.417000       1.00800           0
     61766 TIP3     17284    TIP3     OH2      OT      -0.834000       15.9994           0
     61767 TIP3     17284    TIP3     H1       HT       0.417000       1.00800           0
     61768 TIP3     17284    TIP3     H2       HT       0.417000       1.00800           0
     61769 TIP3     17285    TIP3     OH2      OT      -0.834000       15.9994           0
     61770 TIP3     17285    TIP3     H1       HT       0.417000       1.00800           0
     61771 TIP3     17285    TIP3     H2       HT       0.417000       1.00800           0
     61772 TIP3     17286    TIP3     OH2      OT      -0.834000       15.9994           0
     61773 TIP3     17286    TIP3     H1       HT       0.417000       1.00800           0
     61774 TIP3     17286    TIP3     H2       HT       0.417000       1.00800           0
     61775 TIP3     17287    TIP3     OH2      OT      -0.834000       15.9994           0
     61776 TIP3     17287    TIP3     H1       HT       0.417000       1.00800           0
     61777 TIP3     17287    TIP3     H2       HT       0.417000       1.00800           0
     61778 TIP3     17288    TIP3     OH2      OT      -0.834000       15.9994           0
     61779 TIP3     17288    TIP3     H1       HT       0.417000       1.00800           0
     61780 TIP3     17288    TIP3     H2       HT       0.417000       1.00800           0
     61781 TIP3     17289    TIP3     OH2      OT      -0.834000       15.9994           0
     61782 TIP3     17289    TIP3     H1       HT       0.417000       1.00800           0
     61783 TIP3     17289    TIP3     H2       HT       0.417000       1.00800           0
     61784 TIP3     17290    TIP3     OH2      OT      -0.834000       15.9994           0
     61785 TIP3     17290    TIP3     H1       HT       0.417000       1.00800           0
     61786 TIP3     17290    TIP3     H2       HT       0.417000       1.00800           0
     61787 TIP3     17291    TIP3     OH2      OT      -0.834000       15.9994           0
     61788 TIP3     17291    TIP3     H1       HT       0.417000       1.00800           0
     61789 TIP3     17291    TIP3     H2       HT       0.417000       1.00800           0
     61790 TIP3     17292    TIP3     OH2      OT      -0.834000       15.9994           0
     61791 TIP3     17292    TIP3     H1       HT       0.417000       1.00800           0
     61792 TIP3     17292    TIP3     H2       HT       0.417000       1.00800           0
     61793 TIP3     17293    TIP3     OH2      OT      -0.834000       15.9994           0
     61794 TIP3     17293    TIP3     H1       HT       0.417000       1.00800           0
     61795 TIP3     17293    TIP3     H2       HT       0.417000       1.00800           0
     61796 TIP3     17294    TIP3     OH2      OT      -0.834000       15.9994           0
     61797 TIP3     17294    TIP3     H1       HT       0.417000       1.00800           0
     61798 TIP3     17294    TIP3     H2       HT       0.417000       1.00800           0
     61799 TIP3     17295    TIP3     OH2      OT      -0.834000       15.9994           0
     61800 TIP3     17295    TIP3     H1       HT       0.417000       1.00800           0
     61801 TIP3     17295    TIP3     H2       HT       0.417000       1.00800           0
     61802 TIP3     17296    TIP3     OH2      OT      -0.834000       15.9994           0
     61803 TIP3     17296    TIP3     H1       HT       0.417000       1.00800           0
     61804 TIP3     17296    TIP3     H2       HT       0.417000       1.00800           0
     61805 TIP3     17297    TIP3     OH2      OT      -0.834000       15.9994           0
     61806 TIP3     17297    TIP3     H1       HT       0.417000       1.00800           0
     61807 TIP3     17297    TIP3     H2       HT       0.417000       1.00800           0
     61808 TIP3     17298    TIP3     OH2      OT      -0.834000       15.9994           0
     61809 TIP3     17298    TIP3     H1       HT       0.417000       1.00800           0
     61810 TIP3     17298    TIP3     H2       HT       0.417000       1.00800           0
     61811 TIP3     17299    TIP3     OH2      OT      -0.834000       15.9994           0
     61812 TIP3     17299    TIP3     H1       HT       0.417000       1.00800           0
     61813 TIP3     17299    TIP3     H2       HT       0.417000       1.00800           0
     61814 TIP3     17300    TIP3     OH2      OT      -0.834000       15.9994           0
     61815 TIP3     17300    TIP3     H1       HT       0.417000       1.00800           0
     61816 TIP3     17300    TIP3     H2       HT       0.417000       1.00800           0
     61817 TIP3     17301    TIP3     OH2      OT      -0.834000       15.9994           0
     61818 TIP3     17301    TIP3     H1       HT       0.417000       1.00800           0
     61819 TIP3     17301    TIP3     H2       HT       0.417000       1.00800           0
     61820 TIP3     17302    TIP3     OH2      OT      -0.834000       15.9994           0
     61821 TIP3     17302    TIP3     H1       HT       0.417000       1.00800           0
     61822 TIP3     17302    TIP3     H2       HT       0.417000       1.00800           0
     61823 TIP3     17303    TIP3     OH2      OT      -0.834000       15.9994           0
     61824 TIP3     17303    TIP3     H1       HT       0.417000       1.00800           0
     61825 TIP3     17303    TIP3     H2       HT       0.417000       1.00800           0
     61826 TIP3     17304    TIP3     OH2      OT      -0.834000       15.9994           0
     61827 TIP3     17304    TIP3     H1       HT       0.417000       1.00800           0
     61828 TIP3     17304    TIP3     H2       HT       0.417000       1.00800           0
     61829 TIP3     17305    TIP3     OH2      OT      -0.834000       15.9994           0
     61830 TIP3     17305    TIP3     H1       HT       0.417000       1.00800           0
     61831 TIP3     17305    TIP3     H2       HT       0.417000       1.00800           0
     61832 TIP3     17306    TIP3     OH2      OT      -0.834000       15.9994           0
     61833 TIP3     17306    TIP3     H1       HT       0.417000       1.00800           0
     61834 TIP3     17306    TIP3     H2       HT       0.417000       1.00800           0
     61835 TIP3     17307    TIP3     OH2      OT      -0.834000       15.9994           0
     61836 TIP3     17307    TIP3     H1       HT       0.417000       1.00800           0
     61837 TIP3     17307    TIP3     H2       HT       0.417000       1.00800           0
     61838 TIP3     17308    TIP3     OH2      OT      -0.834000       15.9994           0
     61839 TIP3     17308    TIP3     H1       HT       0.417000       1.00800           0
     61840 TIP3     17308    TIP3     H2       HT       0.417000       1.00800           0
     61841 TIP3     17309    TIP3     OH2      OT      -0.834000       15.9994           0
     61842 TIP3     17309    TIP3     H1       HT       0.417000       1.00800           0
     61843 TIP3     17309    TIP3     H2       HT       0.417000       1.00800           0
     61844 TIP3     17310    TIP3     OH2      OT      -0.834000       15.9994           0
     61845 TIP3     17310    TIP3     H1       HT       0.417000       1.00800           0
     61846 TIP3     17310    TIP3     H2       HT       0.417000       1.00800           0
     61847 TIP3     17311    TIP3     OH2      OT      -0.834000       15.9994           0
     61848 TIP3     17311    TIP3     H1       HT       0.417000       1.00800           0
     61849 TIP3     17311    TIP3     H2       HT       0.417000       1.00800           0
     61850 TIP3     17312    TIP3     OH2      OT      -0.834000       15.9994           0
     61851 TIP3     17312    TIP3     H1       HT       0.417000       1.00800           0
     61852 TIP3     17312    TIP3     H2       HT       0.417000       1.00800           0
     61853 TIP3     17313    TIP3     OH2      OT      -0.834000       15.9994           0
     61854 TIP3     17313    TIP3     H1       HT       0.417000       1.00800           0
     61855 TIP3     17313    TIP3     H2       HT       0.417000       1.00800           0
     61856 TIP3     17314    TIP3     OH2      OT      -0.834000       15.9994           0
     61857 TIP3     17314    TIP3     H1       HT       0.417000       1.00800           0
     61858 TIP3     17314    TIP3     H2       HT       0.417000       1.00800           0
     61859 TIP3     17315    TIP3     OH2      OT      -0.834000       15.9994           0
     61860 TIP3     17315    TIP3     H1       HT       0.417000       1.00800           0
     61861 TIP3     17315    TIP3     H2       HT       0.417000       1.00800           0
     61862 TIP3     17316    TIP3     OH2      OT      -0.834000       15.9994           0
     61863 TIP3     17316    TIP3     H1       HT       0.417000       1.00800           0
     61864 TIP3     17316    TIP3     H2       HT       0.417000       1.00800           0
     61865 TIP3     17317    TIP3     OH2      OT      -0.834000       15.9994           0
     61866 TIP3     17317    TIP3     H1       HT       0.417000       1.00800           0
     61867 TIP3     17317    TIP3     H2       HT       0.417000       1.00800           0
     61868 TIP3     17318    TIP3     OH2      OT      -0.834000       15.9994           0
     61869 TIP3     17318    TIP3     H1       HT       0.417000       1.00800           0
     61870 TIP3     17318    TIP3     H2       HT       0.417000       1.00800           0
     61871 TIP3     17319    TIP3     OH2      OT      -0.834000       15.9994           0
     61872 TIP3     17319    TIP3     H1       HT       0.417000       1.00800           0
     61873 TIP3     17319    TIP3     H2       HT       0.417000       1.00800           0
     61874 TIP3     17320    TIP3     OH2      OT      -0.834000       15.9994           0
     61875 TIP3     17320    TIP3     H1       HT       0.417000       1.00800           0
     61876 TIP3     17320    TIP3     H2       HT       0.417000       1.00800           0
     61877 TIP3     17321    TIP3     OH2      OT      -0.834000       15.9994           0
     61878 TIP3     17321    TIP3     H1       HT       0.417000       1.00800           0
     61879 TIP3     17321    TIP3     H2       HT       0.417000       1.00800           0
     61880 TIP3     17322    TIP3     OH2      OT      -0.834000       15.9994           0
     61881 TIP3     17322    TIP3     H1       HT       0.417000       1.00800           0
     61882 TIP3     17322    TIP3     H2       HT       0.417000       1.00800           0
     61883 TIP3     17323    TIP3     OH2      OT      -0.834000       15.9994           0
     61884 TIP3     17323    TIP3     H1       HT       0.417000       1.00800           0
     61885 TIP3     17323    TIP3     H2       HT       0.417000       1.00800           0
     61886 TIP3     17324    TIP3     OH2      OT      -0.834000       15.9994           0
     61887 TIP3     17324    TIP3     H1       HT       0.417000       1.00800           0
     61888 TIP3     17324    TIP3     H2       HT       0.417000       1.00800           0
     61889 TIP3     17325    TIP3     OH2      OT      -0.834000       15.9994           0
     61890 TIP3     17325    TIP3     H1       HT       0.417000       1.00800           0
     61891 TIP3     17325    TIP3     H2       HT       0.417000       1.00800           0
     61892 TIP3     17326    TIP3     OH2      OT      -0.834000       15.9994           0
     61893 TIP3     17326    TIP3     H1       HT       0.417000       1.00800           0
     61894 TIP3     17326    TIP3     H2       HT       0.417000       1.00800           0
     61895 TIP3     17327    TIP3     OH2      OT      -0.834000       15.9994           0
     61896 TIP3     17327    TIP3     H1       HT       0.417000       1.00800           0
     61897 TIP3     17327    TIP3     H2       HT       0.417000       1.00800           0
     61898 TIP3     17328    TIP3     OH2      OT      -0.834000       15.9994           0
     61899 TIP3     17328    TIP3     H1       HT       0.417000       1.00800           0
     61900 TIP3     17328    TIP3     H2       HT       0.417000       1.00800           0
     61901 TIP3     17329    TIP3     OH2      OT      -0.834000       15.9994           0
     61902 TIP3     17329    TIP3     H1       HT       0.417000       1.00800           0
     61903 TIP3     17329    TIP3     H2       HT       0.417000       1.00800           0
     61904 TIP3     17330    TIP3     OH2      OT      -0.834000       15.9994           0
     61905 TIP3     17330    TIP3     H1       HT       0.417000       1.00800           0
     61906 TIP3     17330    TIP3     H2       HT       0.417000       1.00800           0
     61907 TIP3     17331    TIP3     OH2      OT      -0.834000       15.9994           0
     61908 TIP3     17331    TIP3     H1       HT       0.417000       1.00800           0
     61909 TIP3     17331    TIP3     H2       HT       0.417000       1.00800           0
     61910 TIP3     17332    TIP3     OH2      OT      -0.834000       15.9994           0
     61911 TIP3     17332    TIP3     H1       HT       0.417000       1.00800           0
     61912 TIP3     17332    TIP3     H2       HT       0.417000       1.00800           0
     61913 TIP3     17333    TIP3     OH2      OT      -0.834000       15.9994           0
     61914 TIP3     17333    TIP3     H1       HT       0.417000       1.00800           0
     61915 TIP3     17333    TIP3     H2       HT       0.417000       1.00800           0
     61916 TIP3     17334    TIP3     OH2      OT      -0.834000       15.9994           0
     61917 TIP3     17334    TIP3     H1       HT       0.417000       1.00800           0
     61918 TIP3     17334    TIP3     H2       HT       0.417000       1.00800           0
     61919 TIP3     17335    TIP3     OH2      OT      -0.834000       15.9994           0
     61920 TIP3     17335    TIP3     H1       HT       0.417000       1.00800           0
     61921 TIP3     17335    TIP3     H2       HT       0.417000       1.00800           0
     61922 TIP3     17336    TIP3     OH2      OT      -0.834000       15.9994           0
     61923 TIP3     17336    TIP3     H1       HT       0.417000       1.00800           0
     61924 TIP3     17336    TIP3     H2       HT       0.417000       1.00800           0
     61925 TIP3     17337    TIP3     OH2      OT      -0.834000       15.9994           0
     61926 TIP3     17337    TIP3     H1       HT       0.417000       1.00800           0
     61927 TIP3     17337    TIP3     H2       HT       0.417000       1.00800           0
     61928 TIP3     17338    TIP3     OH2      OT      -0.834000       15.9994           0
     61929 TIP3     17338    TIP3     H1       HT       0.417000       1.00800           0
     61930 TIP3     17338    TIP3     H2       HT       0.417000       1.00800           0
     61931 TIP3     17339    TIP3     OH2      OT      -0.834000       15.9994           0
     61932 TIP3     17339    TIP3     H1       HT       0.417000       1.00800           0
     61933 TIP3     17339    TIP3     H2       HT       0.417000       1.00800           0
     61934 TIP3     17340    TIP3     OH2      OT      -0.834000       15.9994           0
     61935 TIP3     17340    TIP3     H1       HT       0.417000       1.00800           0
     61936 TIP3     17340    TIP3     H2       HT       0.417000       1.00800           0
     61937 TIP3     17341    TIP3     OH2      OT      -0.834000       15.9994           0
     61938 TIP3     17341    TIP3     H1       HT       0.417000       1.00800           0
     61939 TIP3     17341    TIP3     H2       HT       0.417000       1.00800           0
     61940 TIP3     17342    TIP3     OH2      OT      -0.834000       15.9994           0
     61941 TIP3     17342    TIP3     H1       HT       0.417000       1.00800           0
     61942 TIP3     17342    TIP3     H2       HT       0.417000       1.00800           0
     61943 TIP3     17343    TIP3     OH2      OT      -0.834000       15.9994           0
     61944 TIP3     17343    TIP3     H1       HT       0.417000       1.00800           0
     61945 TIP3     17343    TIP3     H2       HT       0.417000       1.00800           0
     61946 TIP3     17344    TIP3     OH2      OT      -0.834000       15.9994           0
     61947 TIP3     17344    TIP3     H1       HT       0.417000       1.00800           0
     61948 TIP3     17344    TIP3     H2       HT       0.417000       1.00800           0
     61949 TIP3     17345    TIP3     OH2      OT      -0.834000       15.9994           0
     61950 TIP3     17345    TIP3     H1       HT       0.417000       1.00800           0
     61951 TIP3     17345    TIP3     H2       HT       0.417000       1.00800           0
     61952 TIP3     17346    TIP3     OH2      OT      -0.834000       15.9994           0
     61953 TIP3     17346    TIP3     H1       HT       0.417000       1.00800           0
     61954 TIP3     17346    TIP3     H2       HT       0.417000       1.00800           0
     61955 TIP3     17347    TIP3     OH2      OT      -0.834000       15.9994           0
     61956 TIP3     17347    TIP3     H1       HT       0.417000       1.00800           0
     61957 TIP3     17347    TIP3     H2       HT       0.417000       1.00800           0
     61958 TIP3     17348    TIP3     OH2      OT      -0.834000       15.9994           0
     61959 TIP3     17348    TIP3     H1       HT       0.417000       1.00800           0
     61960 TIP3     17348    TIP3     H2       HT       0.417000       1.00800           0
     61961 TIP3     17349    TIP3     OH2      OT      -0.834000       15.9994           0
     61962 TIP3     17349    TIP3     H1       HT       0.417000       1.00800           0
     61963 TIP3     17349    TIP3     H2       HT       0.417000       1.00800           0
     61964 TIP3     17350    TIP3     OH2      OT      -0.834000       15.9994           0
     61965 TIP3     17350    TIP3     H1       HT       0.417000       1.00800           0
     61966 TIP3     17350    TIP3     H2       HT       0.417000       1.00800           0
     61967 TIP3     17351    TIP3     OH2      OT      -0.834000       15.9994           0
     61968 TIP3     17351    TIP3     H1       HT       0.417000       1.00800           0
     61969 TIP3     17351    TIP3     H2       HT       0.417000       1.00800           0
     61970 TIP3     17352    TIP3     OH2      OT      -0.834000       15.9994           0
     61971 TIP3     17352    TIP3     H1       HT       0.417000       1.00800           0
     61972 TIP3     17352    TIP3     H2       HT       0.417000       1.00800           0
     61973 TIP3     17353    TIP3     OH2      OT      -0.834000       15.9994           0
     61974 TIP3     17353    TIP3     H1       HT       0.417000       1.00800           0
     61975 TIP3     17353    TIP3     H2       HT       0.417000       1.00800           0
     61976 TIP3     17354    TIP3     OH2      OT      -0.834000       15.9994           0
     61977 TIP3     17354    TIP3     H1       HT       0.417000       1.00800           0
     61978 TIP3     17354    TIP3     H2       HT       0.417000       1.00800           0
     61979 TIP3     17355    TIP3     OH2      OT      -0.834000       15.9994           0
     61980 TIP3     17355    TIP3     H1       HT       0.417000       1.00800           0
     61981 TIP3     17355    TIP3     H2       HT       0.417000       1.00800           0
     61982 TIP3     17356    TIP3     OH2      OT      -0.834000       15.9994           0
     61983 TIP3     17356    TIP3     H1       HT       0.417000       1.00800           0
     61984 TIP3     17356    TIP3     H2       HT       0.417000       1.00800           0
     61985 TIP3     17357    TIP3     OH2      OT      -0.834000       15.9994           0
     61986 TIP3     17357    TIP3     H1       HT       0.417000       1.00800           0
     61987 TIP3     17357    TIP3     H2       HT       0.417000       1.00800           0
     61988 TIP3     17358    TIP3     OH2      OT      -0.834000       15.9994           0
     61989 TIP3     17358    TIP3     H1       HT       0.417000       1.00800           0
     61990 TIP3     17358    TIP3     H2       HT       0.417000       1.00800           0
     61991 TIP3     17359    TIP3     OH2      OT      -0.834000       15.9994           0
     61992 TIP3     17359    TIP3     H1       HT       0.417000       1.00800           0
     61993 TIP3     17359    TIP3     H2       HT       0.417000       1.00800           0
     61994 TIP3     17360    TIP3     OH2      OT      -0.834000       15.9994           0
     61995 TIP3     17360    TIP3     H1       HT       0.417000       1.00800           0
     61996 TIP3     17360    TIP3     H2       HT       0.417000       1.00800           0
     61997 TIP3     17361    TIP3     OH2      OT      -0.834000       15.9994           0
     61998 TIP3     17361    TIP3     H1       HT       0.417000       1.00800           0
     61999 TIP3     17361    TIP3     H2       HT       0.417000       1.00800           0
     62000 TIP3     17362    TIP3     OH2      OT      -0.834000       15.9994           0
     62001 TIP3     17362    TIP3     H1       HT       0.417000       1.00800           0
     62002 TIP3     17362    TIP3     H2       HT       0.417000       1.00800           0
     62003 TIP3     17363    TIP3     OH2      OT      -0.834000       15.9994           0
     62004 TIP3     17363    TIP3     H1       HT       0.417000       1.00800           0
     62005 TIP3     17363    TIP3     H2       HT       0.417000       1.00800           0
     62006 TIP3     17364    TIP3     OH2      OT      -0.834000       15.9994           0
     62007 TIP3     17364    TIP3     H1       HT       0.417000       1.00800           0
     62008 TIP3     17364    TIP3     H2       HT       0.417000       1.00800           0
     62009 TIP3     17365    TIP3     OH2      OT      -0.834000       15.9994           0
     62010 TIP3     17365    TIP3     H1       HT       0.417000       1.00800           0
     62011 TIP3     17365    TIP3     H2       HT       0.417000       1.00800           0
     62012 TIP3     17366    TIP3     OH2      OT      -0.834000       15.9994           0
     62013 TIP3     17366    TIP3     H1       HT       0.417000       1.00800           0
     62014 TIP3     17366    TIP3     H2       HT       0.417000       1.00800           0
     62015 TIP3     17367    TIP3     OH2      OT      -0.834000       15.9994           0
     62016 TIP3     17367    TIP3     H1       HT       0.417000       1.00800           0
     62017 TIP3     17367    TIP3     H2       HT       0.417000       1.00800           0
     62018 TIP3     17368    TIP3     OH2      OT      -0.834000       15.9994           0
     62019 TIP3     17368    TIP3     H1       HT       0.417000       1.00800           0
     62020 TIP3     17368    TIP3     H2       HT       0.417000       1.00800           0
     62021 TIP3     17369    TIP3     OH2      OT      -0.834000       15.9994           0
     62022 TIP3     17369    TIP3     H1       HT       0.417000       1.00800           0
     62023 TIP3     17369    TIP3     H2       HT       0.417000       1.00800           0
     62024 TIP3     17370    TIP3     OH2      OT      -0.834000       15.9994           0
     62025 TIP3     17370    TIP3     H1       HT       0.417000       1.00800           0
     62026 TIP3     17370    TIP3     H2       HT       0.417000       1.00800           0
     62027 TIP3     17371    TIP3     OH2      OT      -0.834000       15.9994           0
     62028 TIP3     17371    TIP3     H1       HT       0.417000       1.00800           0
     62029 TIP3     17371    TIP3     H2       HT       0.417000       1.00800           0
     62030 TIP3     17372    TIP3     OH2      OT      -0.834000       15.9994           0
     62031 TIP3     17372    TIP3     H1       HT       0.417000       1.00800           0
     62032 TIP3     17372    TIP3     H2       HT       0.417000       1.00800           0
     62033 TIP3     17373    TIP3     OH2      OT      -0.834000       15.9994           0
     62034 TIP3     17373    TIP3     H1       HT       0.417000       1.00800           0
     62035 TIP3     17373    TIP3     H2       HT       0.417000       1.00800           0
     62036 TIP3     17374    TIP3     OH2      OT      -0.834000       15.9994           0
     62037 TIP3     17374    TIP3     H1       HT       0.417000       1.00800           0
     62038 TIP3     17374    TIP3     H2       HT       0.417000       1.00800           0
     62039 TIP3     17375    TIP3     OH2      OT      -0.834000       15.9994           0
     62040 TIP3     17375    TIP3     H1       HT       0.417000       1.00800           0
     62041 TIP3     17375    TIP3     H2       HT       0.417000       1.00800           0
     62042 TIP3     17376    TIP3     OH2      OT      -0.834000       15.9994           0
     62043 TIP3     17376    TIP3     H1       HT       0.417000       1.00800           0
     62044 TIP3     17376    TIP3     H2       HT       0.417000       1.00800           0
     62045 TIP3     17377    TIP3     OH2      OT      -0.834000       15.9994           0
     62046 TIP3     17377    TIP3     H1       HT       0.417000       1.00800           0
     62047 TIP3     17377    TIP3     H2       HT       0.417000       1.00800           0
     62048 TIP3     17378    TIP3     OH2      OT      -0.834000       15.9994           0
     62049 TIP3     17378    TIP3     H1       HT       0.417000       1.00800           0
     62050 TIP3     17378    TIP3     H2       HT       0.417000       1.00800           0
     62051 TIP3     17379    TIP3     OH2      OT      -0.834000       15.9994           0
     62052 TIP3     17379    TIP3     H1       HT       0.417000       1.00800           0
     62053 TIP3     17379    TIP3     H2       HT       0.417000       1.00800           0
     62054 TIP3     17380    TIP3     OH2      OT      -0.834000       15.9994           0
     62055 TIP3     17380    TIP3     H1       HT       0.417000       1.00800           0
     62056 TIP3     17380    TIP3     H2       HT       0.417000       1.00800           0
     62057 TIP3     17381    TIP3     OH2      OT      -0.834000       15.9994           0
     62058 TIP3     17381    TIP3     H1       HT       0.417000       1.00800           0
     62059 TIP3     17381    TIP3     H2       HT       0.417000       1.00800           0
     62060 TIP3     17382    TIP3     OH2      OT      -0.834000       15.9994           0
     62061 TIP3     17382    TIP3     H1       HT       0.417000       1.00800           0
     62062 TIP3     17382    TIP3     H2       HT       0.417000       1.00800           0
     62063 TIP3     17383    TIP3     OH2      OT      -0.834000       15.9994           0
     62064 TIP3     17383    TIP3     H1       HT       0.417000       1.00800           0
     62065 TIP3     17383    TIP3     H2       HT       0.417000       1.00800           0
     62066 TIP3     17384    TIP3     OH2      OT      -0.834000       15.9994           0
     62067 TIP3     17384    TIP3     H1       HT       0.417000       1.00800           0
     62068 TIP3     17384    TIP3     H2       HT       0.417000       1.00800           0
     62069 TIP3     17385    TIP3     OH2      OT      -0.834000       15.9994           0
     62070 TIP3     17385    TIP3     H1       HT       0.417000       1.00800           0
     62071 TIP3     17385    TIP3     H2       HT       0.417000       1.00800           0
     62072 TIP3     17386    TIP3     OH2      OT      -0.834000       15.9994           0
     62073 TIP3     17386    TIP3     H1       HT       0.417000       1.00800           0
     62074 TIP3     17386    TIP3     H2       HT       0.417000       1.00800           0
     62075 TIP3     17387    TIP3     OH2      OT      -0.834000       15.9994           0
     62076 TIP3     17387    TIP3     H1       HT       0.417000       1.00800           0
     62077 TIP3     17387    TIP3     H2       HT       0.417000       1.00800           0
     62078 TIP3     17388    TIP3     OH2      OT      -0.834000       15.9994           0
     62079 TIP3     17388    TIP3     H1       HT       0.417000       1.00800           0
     62080 TIP3     17388    TIP3     H2       HT       0.417000       1.00800           0
     62081 TIP3     17389    TIP3     OH2      OT      -0.834000       15.9994           0
     62082 TIP3     17389    TIP3     H1       HT       0.417000       1.00800           0
     62083 TIP3     17389    TIP3     H2       HT       0.417000       1.00800           0
     62084 TIP3     17390    TIP3     OH2      OT      -0.834000       15.9994           0
     62085 TIP3     17390    TIP3     H1       HT       0.417000       1.00800           0
     62086 TIP3     17390    TIP3     H2       HT       0.417000       1.00800           0
     62087 TIP3     17391    TIP3     OH2      OT      -0.834000       15.9994           0
     62088 TIP3     17391    TIP3     H1       HT       0.417000       1.00800           0
     62089 TIP3     17391    TIP3     H2       HT       0.417000       1.00800           0
     62090 TIP3     17392    TIP3     OH2      OT      -0.834000       15.9994           0
     62091 TIP3     17392    TIP3     H1       HT       0.417000       1.00800           0
     62092 TIP3     17392    TIP3     H2       HT       0.417000       1.00800           0
     62093 TIP3     17393    TIP3     OH2      OT      -0.834000       15.9994           0
     62094 TIP3     17393    TIP3     H1       HT       0.417000       1.00800           0
     62095 TIP3     17393    TIP3     H2       HT       0.417000       1.00800           0
     62096 TIP3     17394    TIP3     OH2      OT      -0.834000       15.9994           0
     62097 TIP3     17394    TIP3     H1       HT       0.417000       1.00800           0
     62098 TIP3     17394    TIP3     H2       HT       0.417000       1.00800           0
     62099 TIP3     17395    TIP3     OH2      OT      -0.834000       15.9994           0
     62100 TIP3     17395    TIP3     H1       HT       0.417000       1.00800           0
     62101 TIP3     17395    TIP3     H2       HT       0.417000       1.00800           0
     62102 TIP3     17396    TIP3     OH2      OT      -0.834000       15.9994           0
     62103 TIP3     17396    TIP3     H1       HT       0.417000       1.00800           0
     62104 TIP3     17396    TIP3     H2       HT       0.417000       1.00800           0
     62105 TIP3     17397    TIP3     OH2      OT      -0.834000       15.9994           0
     62106 TIP3     17397    TIP3     H1       HT       0.417000       1.00800           0
     62107 TIP3     17397    TIP3     H2       HT       0.417000       1.00800           0
     62108 TIP3     17398    TIP3     OH2      OT      -0.834000       15.9994           0
     62109 TIP3     17398    TIP3     H1       HT       0.417000       1.00800           0
     62110 TIP3     17398    TIP3     H2       HT       0.417000       1.00800           0
     62111 TIP3     17399    TIP3     OH2      OT      -0.834000       15.9994           0
     62112 TIP3     17399    TIP3     H1       HT       0.417000       1.00800           0
     62113 TIP3     17399    TIP3     H2       HT       0.417000       1.00800           0
     62114 TIP3     17400    TIP3     OH2      OT      -0.834000       15.9994           0
     62115 TIP3     17400    TIP3     H1       HT       0.417000       1.00800           0
     62116 TIP3     17400    TIP3     H2       HT       0.417000       1.00800           0
     62117 TIP3     17401    TIP3     OH2      OT      -0.834000       15.9994           0
     62118 TIP3     17401    TIP3     H1       HT       0.417000       1.00800           0
     62119 TIP3     17401    TIP3     H2       HT       0.417000       1.00800           0
     62120 TIP3     17402    TIP3     OH2      OT      -0.834000       15.9994           0
     62121 TIP3     17402    TIP3     H1       HT       0.417000       1.00800           0
     62122 TIP3     17402    TIP3     H2       HT       0.417000       1.00800           0
     62123 TIP3     17403    TIP3     OH2      OT      -0.834000       15.9994           0
     62124 TIP3     17403    TIP3     H1       HT       0.417000       1.00800           0
     62125 TIP3     17403    TIP3     H2       HT       0.417000       1.00800           0
     62126 TIP3     17404    TIP3     OH2      OT      -0.834000       15.9994           0
     62127 TIP3     17404    TIP3     H1       HT       0.417000       1.00800           0
     62128 TIP3     17404    TIP3     H2       HT       0.417000       1.00800           0
     62129 TIP3     17405    TIP3     OH2      OT      -0.834000       15.9994           0
     62130 TIP3     17405    TIP3     H1       HT       0.417000       1.00800           0
     62131 TIP3     17405    TIP3     H2       HT       0.417000       1.00800           0
     62132 TIP3     17406    TIP3     OH2      OT      -0.834000       15.9994           0
     62133 TIP3     17406    TIP3     H1       HT       0.417000       1.00800           0
     62134 TIP3     17406    TIP3     H2       HT       0.417000       1.00800           0
     62135 TIP3     17407    TIP3     OH2      OT      -0.834000       15.9994           0
     62136 TIP3     17407    TIP3     H1       HT       0.417000       1.00800           0
     62137 TIP3     17407    TIP3     H2       HT       0.417000       1.00800           0
     62138 TIP3     17408    TIP3     OH2      OT      -0.834000       15.9994           0
     62139 TIP3     17408    TIP3     H1       HT       0.417000       1.00800           0
     62140 TIP3     17408    TIP3     H2       HT       0.417000       1.00800           0
     62141 TIP3     17409    TIP3     OH2      OT      -0.834000       15.9994           0
     62142 TIP3     17409    TIP3     H1       HT       0.417000       1.00800           0
     62143 TIP3     17409    TIP3     H2       HT       0.417000       1.00800           0
     62144 TIP3     17410    TIP3     OH2      OT      -0.834000       15.9994           0
     62145 TIP3     17410    TIP3     H1       HT       0.417000       1.00800           0
     62146 TIP3     17410    TIP3     H2       HT       0.417000       1.00800           0
     62147 TIP3     17411    TIP3     OH2      OT      -0.834000       15.9994           0
     62148 TIP3     17411    TIP3     H1       HT       0.417000       1.00800           0
     62149 TIP3     17411    TIP3     H2       HT       0.417000       1.00800           0
     62150 TIP3     17412    TIP3     OH2      OT      -0.834000       15.9994           0
     62151 TIP3     17412    TIP3     H1       HT       0.417000       1.00800           0
     62152 TIP3     17412    TIP3     H2       HT       0.417000       1.00800           0
     62153 TIP3     17413    TIP3     OH2      OT      -0.834000       15.9994           0
     62154 TIP3     17413    TIP3     H1       HT       0.417000       1.00800           0
     62155 TIP3     17413    TIP3     H2       HT       0.417000       1.00800           0
     62156 TIP3     17414    TIP3     OH2      OT      -0.834000       15.9994           0
     62157 TIP3     17414    TIP3     H1       HT       0.417000       1.00800           0
     62158 TIP3     17414    TIP3     H2       HT       0.417000       1.00800           0
     62159 TIP3     17415    TIP3     OH2      OT      -0.834000       15.9994           0
     62160 TIP3     17415    TIP3     H1       HT       0.417000       1.00800           0
     62161 TIP3     17415    TIP3     H2       HT       0.417000       1.00800           0
     62162 TIP3     17416    TIP3     OH2      OT      -0.834000       15.9994           0
     62163 TIP3     17416    TIP3     H1       HT       0.417000       1.00800           0
     62164 TIP3     17416    TIP3     H2       HT       0.417000       1.00800           0
     62165 TIP3     17417    TIP3     OH2      OT      -0.834000       15.9994           0
     62166 TIP3     17417    TIP3     H1       HT       0.417000       1.00800           0
     62167 TIP3     17417    TIP3     H2       HT       0.417000       1.00800           0
     62168 TIP3     17418    TIP3     OH2      OT      -0.834000       15.9994           0
     62169 TIP3     17418    TIP3     H1       HT       0.417000       1.00800           0
     62170 TIP3     17418    TIP3     H2       HT       0.417000       1.00800           0
     62171 TIP3     17419    TIP3     OH2      OT      -0.834000       15.9994           0
     62172 TIP3     17419    TIP3     H1       HT       0.417000       1.00800           0
     62173 TIP3     17419    TIP3     H2       HT       0.417000       1.00800           0
     62174 TIP3     17420    TIP3     OH2      OT      -0.834000       15.9994           0
     62175 TIP3     17420    TIP3     H1       HT       0.417000       1.00800           0
     62176 TIP3     17420    TIP3     H2       HT       0.417000       1.00800           0
     62177 TIP3     17421    TIP3     OH2      OT      -0.834000       15.9994           0
     62178 TIP3     17421    TIP3     H1       HT       0.417000       1.00800           0
     62179 TIP3     17421    TIP3     H2       HT       0.417000       1.00800           0
     62180 TIP3     17422    TIP3     OH2      OT      -0.834000       15.9994           0
     62181 TIP3     17422    TIP3     H1       HT       0.417000       1.00800           0
     62182 TIP3     17422    TIP3     H2       HT       0.417000       1.00800           0
     62183 TIP3     17423    TIP3     OH2      OT      -0.834000       15.9994           0
     62184 TIP3     17423    TIP3     H1       HT       0.417000       1.00800           0
     62185 TIP3     17423    TIP3     H2       HT       0.417000       1.00800           0
     62186 TIP3     17424    TIP3     OH2      OT      -0.834000       15.9994           0
     62187 TIP3     17424    TIP3     H1       HT       0.417000       1.00800           0
     62188 TIP3     17424    TIP3     H2       HT       0.417000       1.00800           0
     62189 TIP3     17425    TIP3     OH2      OT      -0.834000       15.9994           0
     62190 TIP3     17425    TIP3     H1       HT       0.417000       1.00800           0
     62191 TIP3     17425    TIP3     H2       HT       0.417000       1.00800           0
     62192 TIP3     17426    TIP3     OH2      OT      -0.834000       15.9994           0
     62193 TIP3     17426    TIP3     H1       HT       0.417000       1.00800           0
     62194 TIP3     17426    TIP3     H2       HT       0.417000       1.00800           0
     62195 TIP3     17427    TIP3     OH2      OT      -0.834000       15.9994           0
     62196 TIP3     17427    TIP3     H1       HT       0.417000       1.00800           0
     62197 TIP3     17427    TIP3     H2       HT       0.417000       1.00800           0
     62198 TIP3     17428    TIP3     OH2      OT      -0.834000       15.9994           0
     62199 TIP3     17428    TIP3     H1       HT       0.417000       1.00800           0
     62200 TIP3     17428    TIP3     H2       HT       0.417000       1.00800           0
     62201 TIP3     17429    TIP3     OH2      OT      -0.834000       15.9994           0
     62202 TIP3     17429    TIP3     H1       HT       0.417000       1.00800           0
     62203 TIP3     17429    TIP3     H2       HT       0.417000       1.00800           0
     62204 TIP3     17430    TIP3     OH2      OT      -0.834000       15.9994           0
     62205 TIP3     17430    TIP3     H1       HT       0.417000       1.00800           0
     62206 TIP3     17430    TIP3     H2       HT       0.417000       1.00800           0
     62207 TIP3     17431    TIP3     OH2      OT      -0.834000       15.9994           0
     62208 TIP3     17431    TIP3     H1       HT       0.417000       1.00800           0
     62209 TIP3     17431    TIP3     H2       HT       0.417000       1.00800           0
     62210 TIP3     17432    TIP3     OH2      OT      -0.834000       15.9994           0
     62211 TIP3     17432    TIP3     H1       HT       0.417000       1.00800           0
     62212 TIP3     17432    TIP3     H2       HT       0.417000       1.00800           0
     62213 TIP3     17433    TIP3     OH2      OT      -0.834000       15.9994           0
     62214 TIP3     17433    TIP3     H1       HT       0.417000       1.00800           0
     62215 TIP3     17433    TIP3     H2       HT       0.417000       1.00800           0
     62216 TIP3     17434    TIP3     OH2      OT      -0.834000       15.9994           0
     62217 TIP3     17434    TIP3     H1       HT       0.417000       1.00800           0
     62218 TIP3     17434    TIP3     H2       HT       0.417000       1.00800           0
     62219 TIP3     17435    TIP3     OH2      OT      -0.834000       15.9994           0
     62220 TIP3     17435    TIP3     H1       HT       0.417000       1.00800           0
     62221 TIP3     17435    TIP3     H2       HT       0.417000       1.00800           0
     62222 TIP3     17436    TIP3     OH2      OT      -0.834000       15.9994           0
     62223 TIP3     17436    TIP3     H1       HT       0.417000       1.00800           0
     62224 TIP3     17436    TIP3     H2       HT       0.417000       1.00800           0
     62225 TIP3     17437    TIP3     OH2      OT      -0.834000       15.9994           0
     62226 TIP3     17437    TIP3     H1       HT       0.417000       1.00800           0
     62227 TIP3     17437    TIP3     H2       HT       0.417000       1.00800           0
     62228 TIP3     17438    TIP3     OH2      OT      -0.834000       15.9994           0
     62229 TIP3     17438    TIP3     H1       HT       0.417000       1.00800           0
     62230 TIP3     17438    TIP3     H2       HT       0.417000       1.00800           0
     62231 TIP3     17439    TIP3     OH2      OT      -0.834000       15.9994           0
     62232 TIP3     17439    TIP3     H1       HT       0.417000       1.00800           0
     62233 TIP3     17439    TIP3     H2       HT       0.417000       1.00800           0
     62234 TIP3     17440    TIP3     OH2      OT      -0.834000       15.9994           0
     62235 TIP3     17440    TIP3     H1       HT       0.417000       1.00800           0
     62236 TIP3     17440    TIP3     H2       HT       0.417000       1.00800           0
     62237 TIP3     17441    TIP3     OH2      OT      -0.834000       15.9994           0
     62238 TIP3     17441    TIP3     H1       HT       0.417000       1.00800           0
     62239 TIP3     17441    TIP3     H2       HT       0.417000       1.00800           0
     62240 TIP3     17442    TIP3     OH2      OT      -0.834000       15.9994           0
     62241 TIP3     17442    TIP3     H1       HT       0.417000       1.00800           0
     62242 TIP3     17442    TIP3     H2       HT       0.417000       1.00800           0
     62243 TIP3     17443    TIP3     OH2      OT      -0.834000       15.9994           0
     62244 TIP3     17443    TIP3     H1       HT       0.417000       1.00800           0
     62245 TIP3     17443    TIP3     H2       HT       0.417000       1.00800           0
     62246 TIP3     17444    TIP3     OH2      OT      -0.834000       15.9994           0
     62247 TIP3     17444    TIP3     H1       HT       0.417000       1.00800           0
     62248 TIP3     17444    TIP3     H2       HT       0.417000       1.00800           0
     62249 TIP3     17445    TIP3     OH2      OT      -0.834000       15.9994           0
     62250 TIP3     17445    TIP3     H1       HT       0.417000       1.00800           0
     62251 TIP3     17445    TIP3     H2       HT       0.417000       1.00800           0
     62252 TIP3     17446    TIP3     OH2      OT      -0.834000       15.9994           0
     62253 TIP3     17446    TIP3     H1       HT       0.417000       1.00800           0
     62254 TIP3     17446    TIP3     H2       HT       0.417000       1.00800           0
     62255 TIP3     17447    TIP3     OH2      OT      -0.834000       15.9994           0
     62256 TIP3     17447    TIP3     H1       HT       0.417000       1.00800           0
     62257 TIP3     17447    TIP3     H2       HT       0.417000       1.00800           0
     62258 TIP3     17448    TIP3     OH2      OT      -0.834000       15.9994           0
     62259 TIP3     17448    TIP3     H1       HT       0.417000       1.00800           0
     62260 TIP3     17448    TIP3     H2       HT       0.417000       1.00800           0
     62261 TIP3     17449    TIP3     OH2      OT      -0.834000       15.9994           0
     62262 TIP3     17449    TIP3     H1       HT       0.417000       1.00800           0
     62263 TIP3     17449    TIP3     H2       HT       0.417000       1.00800           0
     62264 TIP3     17450    TIP3     OH2      OT      -0.834000       15.9994           0
     62265 TIP3     17450    TIP3     H1       HT       0.417000       1.00800           0
     62266 TIP3     17450    TIP3     H2       HT       0.417000       1.00800           0
     62267 TIP3     17451    TIP3     OH2      OT      -0.834000       15.9994           0
     62268 TIP3     17451    TIP3     H1       HT       0.417000       1.00800           0
     62269 TIP3     17451    TIP3     H2       HT       0.417000       1.00800           0
     62270 TIP3     17452    TIP3     OH2      OT      -0.834000       15.9994           0
     62271 TIP3     17452    TIP3     H1       HT       0.417000       1.00800           0
     62272 TIP3     17452    TIP3     H2       HT       0.417000       1.00800           0
     62273 TIP3     17453    TIP3     OH2      OT      -0.834000       15.9994           0
     62274 TIP3     17453    TIP3     H1       HT       0.417000       1.00800           0
     62275 TIP3     17453    TIP3     H2       HT       0.417000       1.00800           0
     62276 TIP3     17454    TIP3     OH2      OT      -0.834000       15.9994           0
     62277 TIP3     17454    TIP3     H1       HT       0.417000       1.00800           0
     62278 TIP3     17454    TIP3     H2       HT       0.417000       1.00800           0
     62279 TIP3     17455    TIP3     OH2      OT      -0.834000       15.9994           0
     62280 TIP3     17455    TIP3     H1       HT       0.417000       1.00800           0
     62281 TIP3     17455    TIP3     H2       HT       0.417000       1.00800           0
     62282 TIP3     17456    TIP3     OH2      OT      -0.834000       15.9994           0
     62283 TIP3     17456    TIP3     H1       HT       0.417000       1.00800           0
     62284 TIP3     17456    TIP3     H2       HT       0.417000       1.00800           0
     62285 TIP3     17457    TIP3     OH2      OT      -0.834000       15.9994           0
     62286 TIP3     17457    TIP3     H1       HT       0.417000       1.00800           0
     62287 TIP3     17457    TIP3     H2       HT       0.417000       1.00800           0
     62288 TIP3     17458    TIP3     OH2      OT      -0.834000       15.9994           0
     62289 TIP3     17458    TIP3     H1       HT       0.417000       1.00800           0
     62290 TIP3     17458    TIP3     H2       HT       0.417000       1.00800           0
     62291 TIP3     17459    TIP3     OH2      OT      -0.834000       15.9994           0
     62292 TIP3     17459    TIP3     H1       HT       0.417000       1.00800           0
     62293 TIP3     17459    TIP3     H2       HT       0.417000       1.00800           0
     62294 TIP3     17460    TIP3     OH2      OT      -0.834000       15.9994           0
     62295 TIP3     17460    TIP3     H1       HT       0.417000       1.00800           0
     62296 TIP3     17460    TIP3     H2       HT       0.417000       1.00800           0
     62297 TIP3     17461    TIP3     OH2      OT      -0.834000       15.9994           0
     62298 TIP3     17461    TIP3     H1       HT       0.417000       1.00800           0
     62299 TIP3     17461    TIP3     H2       HT       0.417000       1.00800           0
     62300 TIP3     17462    TIP3     OH2      OT      -0.834000       15.9994           0
     62301 TIP3     17462    TIP3     H1       HT       0.417000       1.00800           0
     62302 TIP3     17462    TIP3     H2       HT       0.417000       1.00800           0
     62303 TIP3     17463    TIP3     OH2      OT      -0.834000       15.9994           0
     62304 TIP3     17463    TIP3     H1       HT       0.417000       1.00800           0
     62305 TIP3     17463    TIP3     H2       HT       0.417000       1.00800           0
     62306 TIP3     17464    TIP3     OH2      OT      -0.834000       15.9994           0
     62307 TIP3     17464    TIP3     H1       HT       0.417000       1.00800           0
     62308 TIP3     17464    TIP3     H2       HT       0.417000       1.00800           0
     62309 TIP3     17465    TIP3     OH2      OT      -0.834000       15.9994           0
     62310 TIP3     17465    TIP3     H1       HT       0.417000       1.00800           0
     62311 TIP3     17465    TIP3     H2       HT       0.417000       1.00800           0
     62312 TIP3     17466    TIP3     OH2      OT      -0.834000       15.9994           0
     62313 TIP3     17466    TIP3     H1       HT       0.417000       1.00800           0
     62314 TIP3     17466    TIP3     H2       HT       0.417000       1.00800           0
     62315 TIP3     17467    TIP3     OH2      OT      -0.834000       15.9994           0
     62316 TIP3     17467    TIP3     H1       HT       0.417000       1.00800           0
     62317 TIP3     17467    TIP3     H2       HT       0.417000       1.00800           0
     62318 TIP3     17468    TIP3     OH2      OT      -0.834000       15.9994           0
     62319 TIP3     17468    TIP3     H1       HT       0.417000       1.00800           0
     62320 TIP3     17468    TIP3     H2       HT       0.417000       1.00800           0
     62321 TIP3     17469    TIP3     OH2      OT      -0.834000       15.9994           0
     62322 TIP3     17469    TIP3     H1       HT       0.417000       1.00800           0
     62323 TIP3     17469    TIP3     H2       HT       0.417000       1.00800           0
     62324 TIP3     17470    TIP3     OH2      OT      -0.834000       15.9994           0
     62325 TIP3     17470    TIP3     H1       HT       0.417000       1.00800           0
     62326 TIP3     17470    TIP3     H2       HT       0.417000       1.00800           0
     62327 TIP3     17471    TIP3     OH2      OT      -0.834000       15.9994           0
     62328 TIP3     17471    TIP3     H1       HT       0.417000       1.00800           0
     62329 TIP3     17471    TIP3     H2       HT       0.417000       1.00800           0
     62330 TIP3     17472    TIP3     OH2      OT      -0.834000       15.9994           0
     62331 TIP3     17472    TIP3     H1       HT       0.417000       1.00800           0
     62332 TIP3     17472    TIP3     H2       HT       0.417000       1.00800           0
     62333 TIP3     17473    TIP3     OH2      OT      -0.834000       15.9994           0
     62334 TIP3     17473    TIP3     H1       HT       0.417000       1.00800           0
     62335 TIP3     17473    TIP3     H2       HT       0.417000       1.00800           0
     62336 TIP3     17474    TIP3     OH2      OT      -0.834000       15.9994           0
     62337 TIP3     17474    TIP3     H1       HT       0.417000       1.00800           0
     62338 TIP3     17474    TIP3     H2       HT       0.417000       1.00800           0
     62339 TIP3     17475    TIP3     OH2      OT      -0.834000       15.9994           0
     62340 TIP3     17475    TIP3     H1       HT       0.417000       1.00800           0
     62341 TIP3     17475    TIP3     H2       HT       0.417000       1.00800           0
     62342 TIP3     17476    TIP3     OH2      OT      -0.834000       15.9994           0
     62343 TIP3     17476    TIP3     H1       HT       0.417000       1.00800           0
     62344 TIP3     17476    TIP3     H2       HT       0.417000       1.00800           0
     62345 TIP3     17477    TIP3     OH2      OT      -0.834000       15.9994           0
     62346 TIP3     17477    TIP3     H1       HT       0.417000       1.00800           0
     62347 TIP3     17477    TIP3     H2       HT       0.417000       1.00800           0
     62348 TIP3     17478    TIP3     OH2      OT      -0.834000       15.9994           0
     62349 TIP3     17478    TIP3     H1       HT       0.417000       1.00800           0
     62350 TIP3     17478    TIP3     H2       HT       0.417000       1.00800           0
     62351 TIP3     17479    TIP3     OH2      OT      -0.834000       15.9994           0
     62352 TIP3     17479    TIP3     H1       HT       0.417000       1.00800           0
     62353 TIP3     17479    TIP3     H2       HT       0.417000       1.00800           0
     62354 TIP3     17480    TIP3     OH2      OT      -0.834000       15.9994           0
     62355 TIP3     17480    TIP3     H1       HT       0.417000       1.00800           0
     62356 TIP3     17480    TIP3     H2       HT       0.417000       1.00800           0
     62357 TIP3     17481    TIP3     OH2      OT      -0.834000       15.9994           0
     62358 TIP3     17481    TIP3     H1       HT       0.417000       1.00800           0
     62359 TIP3     17481    TIP3     H2       HT       0.417000       1.00800           0
     62360 TIP3     17482    TIP3     OH2      OT      -0.834000       15.9994           0
     62361 TIP3     17482    TIP3     H1       HT       0.417000       1.00800           0
     62362 TIP3     17482    TIP3     H2       HT       0.417000       1.00800           0
     62363 TIP3     17483    TIP3     OH2      OT      -0.834000       15.9994           0
     62364 TIP3     17483    TIP3     H1       HT       0.417000       1.00800           0
     62365 TIP3     17483    TIP3     H2       HT       0.417000       1.00800           0
     62366 TIP3     17484    TIP3     OH2      OT      -0.834000       15.9994           0
     62367 TIP3     17484    TIP3     H1       HT       0.417000       1.00800           0
     62368 TIP3     17484    TIP3     H2       HT       0.417000       1.00800           0
     62369 TIP3     17485    TIP3     OH2      OT      -0.834000       15.9994           0
     62370 TIP3     17485    TIP3     H1       HT       0.417000       1.00800           0
     62371 TIP3     17485    TIP3     H2       HT       0.417000       1.00800           0
     62372 TIP3     17486    TIP3     OH2      OT      -0.834000       15.9994           0
     62373 TIP3     17486    TIP3     H1       HT       0.417000       1.00800           0
     62374 TIP3     17486    TIP3     H2       HT       0.417000       1.00800           0
     62375 TIP3     17487    TIP3     OH2      OT      -0.834000       15.9994           0
     62376 TIP3     17487    TIP3     H1       HT       0.417000       1.00800           0
     62377 TIP3     17487    TIP3     H2       HT       0.417000       1.00800           0
     62378 TIP3     17488    TIP3     OH2      OT      -0.834000       15.9994           0
     62379 TIP3     17488    TIP3     H1       HT       0.417000       1.00800           0
     62380 TIP3     17488    TIP3     H2       HT       0.417000       1.00800           0
     62381 TIP3     17489    TIP3     OH2      OT      -0.834000       15.9994           0
     62382 TIP3     17489    TIP3     H1       HT       0.417000       1.00800           0
     62383 TIP3     17489    TIP3     H2       HT       0.417000       1.00800           0
     62384 TIP3     17490    TIP3     OH2      OT      -0.834000       15.9994           0
     62385 TIP3     17490    TIP3     H1       HT       0.417000       1.00800           0
     62386 TIP3     17490    TIP3     H2       HT       0.417000       1.00800           0
     62387 TIP3     17491    TIP3     OH2      OT      -0.834000       15.9994           0
     62388 TIP3     17491    TIP3     H1       HT       0.417000       1.00800           0
     62389 TIP3     17491    TIP3     H2       HT       0.417000       1.00800           0
     62390 TIP3     17492    TIP3     OH2      OT      -0.834000       15.9994           0
     62391 TIP3     17492    TIP3     H1       HT       0.417000       1.00800           0
     62392 TIP3     17492    TIP3     H2       HT       0.417000       1.00800           0
     62393 TIP3     17493    TIP3     OH2      OT      -0.834000       15.9994           0
     62394 TIP3     17493    TIP3     H1       HT       0.417000       1.00800           0
     62395 TIP3     17493    TIP3     H2       HT       0.417000       1.00800           0
     62396 TIP3     17494    TIP3     OH2      OT      -0.834000       15.9994           0
     62397 TIP3     17494    TIP3     H1       HT       0.417000       1.00800           0
     62398 TIP3     17494    TIP3     H2       HT       0.417000       1.00800           0
     62399 TIP3     17495    TIP3     OH2      OT      -0.834000       15.9994           0
     62400 TIP3     17495    TIP3     H1       HT       0.417000       1.00800           0
     62401 TIP3     17495    TIP3     H2       HT       0.417000       1.00800           0
     62402 TIP3     17496    TIP3     OH2      OT      -0.834000       15.9994           0
     62403 TIP3     17496    TIP3     H1       HT       0.417000       1.00800           0
     62404 TIP3     17496    TIP3     H2       HT       0.417000       1.00800           0
     62405 TIP3     17497    TIP3     OH2      OT      -0.834000       15.9994           0
     62406 TIP3     17497    TIP3     H1       HT       0.417000       1.00800           0
     62407 TIP3     17497    TIP3     H2       HT       0.417000       1.00800           0
     62408 TIP3     17498    TIP3     OH2      OT      -0.834000       15.9994           0
     62409 TIP3     17498    TIP3     H1       HT       0.417000       1.00800           0
     62410 TIP3     17498    TIP3     H2       HT       0.417000       1.00800           0
     62411 TIP3     17499    TIP3     OH2      OT      -0.834000       15.9994           0
     62412 TIP3     17499    TIP3     H1       HT       0.417000       1.00800           0
     62413 TIP3     17499    TIP3     H2       HT       0.417000       1.00800           0
     62414 TIP3     17500    TIP3     OH2      OT      -0.834000       15.9994           0
     62415 TIP3     17500    TIP3     H1       HT       0.417000       1.00800           0
     62416 TIP3     17500    TIP3     H2       HT       0.417000       1.00800           0
     62417 TIP3     17501    TIP3     OH2      OT      -0.834000       15.9994           0
     62418 TIP3     17501    TIP3     H1       HT       0.417000       1.00800           0
     62419 TIP3     17501    TIP3     H2       HT       0.417000       1.00800           0
     62420 TIP3     17502    TIP3     OH2      OT      -0.834000       15.9994           0
     62421 TIP3     17502    TIP3     H1       HT       0.417000       1.00800           0
     62422 TIP3     17502    TIP3     H2       HT       0.417000       1.00800           0
     62423 TIP3     17503    TIP3     OH2      OT      -0.834000       15.9994           0
     62424 TIP3     17503    TIP3     H1       HT       0.417000       1.00800           0
     62425 TIP3     17503    TIP3     H2       HT       0.417000       1.00800           0
     62426 TIP3     17504    TIP3     OH2      OT      -0.834000       15.9994           0
     62427 TIP3     17504    TIP3     H1       HT       0.417000       1.00800           0
     62428 TIP3     17504    TIP3     H2       HT       0.417000       1.00800           0
     62429 TIP3     17505    TIP3     OH2      OT      -0.834000       15.9994           0
     62430 TIP3     17505    TIP3     H1       HT       0.417000       1.00800           0
     62431 TIP3     17505    TIP3     H2       HT       0.417000       1.00800           0
     62432 TIP3     17506    TIP3     OH2      OT      -0.834000       15.9994           0
     62433 TIP3     17506    TIP3     H1       HT       0.417000       1.00800           0
     62434 TIP3     17506    TIP3     H2       HT       0.417000       1.00800           0
     62435 TIP3     17507    TIP3     OH2      OT      -0.834000       15.9994           0
     62436 TIP3     17507    TIP3     H1       HT       0.417000       1.00800           0
     62437 TIP3     17507    TIP3     H2       HT       0.417000       1.00800           0
     62438 TIP3     17508    TIP3     OH2      OT      -0.834000       15.9994           0
     62439 TIP3     17508    TIP3     H1       HT       0.417000       1.00800           0
     62440 TIP3     17508    TIP3     H2       HT       0.417000       1.00800           0
     62441 TIP3     17509    TIP3     OH2      OT      -0.834000       15.9994           0
     62442 TIP3     17509    TIP3     H1       HT       0.417000       1.00800           0
     62443 TIP3     17509    TIP3     H2       HT       0.417000       1.00800           0
     62444 TIP3     17510    TIP3     OH2      OT      -0.834000       15.9994           0
     62445 TIP3     17510    TIP3     H1       HT       0.417000       1.00800           0
     62446 TIP3     17510    TIP3     H2       HT       0.417000       1.00800           0
     62447 TIP3     17511    TIP3     OH2      OT      -0.834000       15.9994           0
     62448 TIP3     17511    TIP3     H1       HT       0.417000       1.00800           0
     62449 TIP3     17511    TIP3     H2       HT       0.417000       1.00800           0
     62450 TIP3     17512    TIP3     OH2      OT      -0.834000       15.9994           0
     62451 TIP3     17512    TIP3     H1       HT       0.417000       1.00800           0
     62452 TIP3     17512    TIP3     H2       HT       0.417000       1.00800           0
     62453 TIP3     17513    TIP3     OH2      OT      -0.834000       15.9994           0
     62454 TIP3     17513    TIP3     H1       HT       0.417000       1.00800           0
     62455 TIP3     17513    TIP3     H2       HT       0.417000       1.00800           0
     62456 TIP3     17514    TIP3     OH2      OT      -0.834000       15.9994           0
     62457 TIP3     17514    TIP3     H1       HT       0.417000       1.00800           0
     62458 TIP3     17514    TIP3     H2       HT       0.417000       1.00800           0
     62459 TIP3     17515    TIP3     OH2      OT      -0.834000       15.9994           0
     62460 TIP3     17515    TIP3     H1       HT       0.417000       1.00800           0
     62461 TIP3     17515    TIP3     H2       HT       0.417000       1.00800           0
     62462 TIP3     17516    TIP3     OH2      OT      -0.834000       15.9994           0
     62463 TIP3     17516    TIP3     H1       HT       0.417000       1.00800           0
     62464 TIP3     17516    TIP3     H2       HT       0.417000       1.00800           0
     62465 TIP3     17517    TIP3     OH2      OT      -0.834000       15.9994           0
     62466 TIP3     17517    TIP3     H1       HT       0.417000       1.00800           0
     62467 TIP3     17517    TIP3     H2       HT       0.417000       1.00800           0
     62468 TIP3     17518    TIP3     OH2      OT      -0.834000       15.9994           0
     62469 TIP3     17518    TIP3     H1       HT       0.417000       1.00800           0
     62470 TIP3     17518    TIP3     H2       HT       0.417000       1.00800           0
     62471 TIP3     17519    TIP3     OH2      OT      -0.834000       15.9994           0
     62472 TIP3     17519    TIP3     H1       HT       0.417000       1.00800           0
     62473 TIP3     17519    TIP3     H2       HT       0.417000       1.00800           0
     62474 TIP3     17520    TIP3     OH2      OT      -0.834000       15.9994           0
     62475 TIP3     17520    TIP3     H1       HT       0.417000       1.00800           0
     62476 TIP3     17520    TIP3     H2       HT       0.417000       1.00800           0
     62477 TIP3     17521    TIP3     OH2      OT      -0.834000       15.9994           0
     62478 TIP3     17521    TIP3     H1       HT       0.417000       1.00800           0
     62479 TIP3     17521    TIP3     H2       HT       0.417000       1.00800           0
     62480 TIP3     17522    TIP3     OH2      OT      -0.834000       15.9994           0
     62481 TIP3     17522    TIP3     H1       HT       0.417000       1.00800           0
     62482 TIP3     17522    TIP3     H2       HT       0.417000       1.00800           0
     62483 TIP3     17523    TIP3     OH2      OT      -0.834000       15.9994           0
     62484 TIP3     17523    TIP3     H1       HT       0.417000       1.00800           0
     62485 TIP3     17523    TIP3     H2       HT       0.417000       1.00800           0
     62486 TIP3     17524    TIP3     OH2      OT      -0.834000       15.9994           0
     62487 TIP3     17524    TIP3     H1       HT       0.417000       1.00800           0
     62488 TIP3     17524    TIP3     H2       HT       0.417000       1.00800           0
     62489 TIP3     17525    TIP3     OH2      OT      -0.834000       15.9994           0
     62490 TIP3     17525    TIP3     H1       HT       0.417000       1.00800           0
     62491 TIP3     17525    TIP3     H2       HT       0.417000       1.00800           0
     62492 TIP3     17526    TIP3     OH2      OT      -0.834000       15.9994           0
     62493 TIP3     17526    TIP3     H1       HT       0.417000       1.00800           0
     62494 TIP3     17526    TIP3     H2       HT       0.417000       1.00800           0
     62495 TIP3     17527    TIP3     OH2      OT      -0.834000       15.9994           0
     62496 TIP3     17527    TIP3     H1       HT       0.417000       1.00800           0
     62497 TIP3     17527    TIP3     H2       HT       0.417000       1.00800           0
     62498 TIP3     17528    TIP3     OH2      OT      -0.834000       15.9994           0
     62499 TIP3     17528    TIP3     H1       HT       0.417000       1.00800           0
     62500 TIP3     17528    TIP3     H2       HT       0.417000       1.00800           0
     62501 TIP3     17529    TIP3     OH2      OT      -0.834000       15.9994           0
     62502 TIP3     17529    TIP3     H1       HT       0.417000       1.00800           0
     62503 TIP3     17529    TIP3     H2       HT       0.417000       1.00800           0
     62504 TIP3     17530    TIP3     OH2      OT      -0.834000       15.9994           0
     62505 TIP3     17530    TIP3     H1       HT       0.417000       1.00800           0
     62506 TIP3     17530    TIP3     H2       HT       0.417000       1.00800           0
     62507 TIP3     17531    TIP3     OH2      OT      -0.834000       15.9994           0
     62508 TIP3     17531    TIP3     H1       HT       0.417000       1.00800           0
     62509 TIP3     17531    TIP3     H2       HT       0.417000       1.00800           0
     62510 TIP3     17532    TIP3     OH2      OT      -0.834000       15.9994           0
     62511 TIP3     17532    TIP3     H1       HT       0.417000       1.00800           0
     62512 TIP3     17532    TIP3     H2       HT       0.417000       1.00800           0
     62513 TIP3     17533    TIP3     OH2      OT      -0.834000       15.9994           0
     62514 TIP3     17533    TIP3     H1       HT       0.417000       1.00800           0
     62515 TIP3     17533    TIP3     H2       HT       0.417000       1.00800           0
     62516 TIP3     17534    TIP3     OH2      OT      -0.834000       15.9994           0
     62517 TIP3     17534    TIP3     H1       HT       0.417000       1.00800           0
     62518 TIP3     17534    TIP3     H2       HT       0.417000       1.00800           0
     62519 TIP3     17535    TIP3     OH2      OT      -0.834000       15.9994           0
     62520 TIP3     17535    TIP3     H1       HT       0.417000       1.00800           0
     62521 TIP3     17535    TIP3     H2       HT       0.417000       1.00800           0
     62522 TIP3     17536    TIP3     OH2      OT      -0.834000       15.9994           0
     62523 TIP3     17536    TIP3     H1       HT       0.417000       1.00800           0
     62524 TIP3     17536    TIP3     H2       HT       0.417000       1.00800           0
     62525 TIP3     17537    TIP3     OH2      OT      -0.834000       15.9994           0
     62526 TIP3     17537    TIP3     H1       HT       0.417000       1.00800           0
     62527 TIP3     17537    TIP3     H2       HT       0.417000       1.00800           0
     62528 TIP3     17538    TIP3     OH2      OT      -0.834000       15.9994           0
     62529 TIP3     17538    TIP3     H1       HT       0.417000       1.00800           0
     62530 TIP3     17538    TIP3     H2       HT       0.417000       1.00800           0
     62531 TIP3     17539    TIP3     OH2      OT      -0.834000       15.9994           0
     62532 TIP3     17539    TIP3     H1       HT       0.417000       1.00800           0
     62533 TIP3     17539    TIP3     H2       HT       0.417000       1.00800           0
     62534 TIP3     17540    TIP3     OH2      OT      -0.834000       15.9994           0
     62535 TIP3     17540    TIP3     H1       HT       0.417000       1.00800           0
     62536 TIP3     17540    TIP3     H2       HT       0.417000       1.00800           0
     62537 TIP3     17541    TIP3     OH2      OT      -0.834000       15.9994           0
     62538 TIP3     17541    TIP3     H1       HT       0.417000       1.00800           0
     62539 TIP3     17541    TIP3     H2       HT       0.417000       1.00800           0
     62540 TIP3     17542    TIP3     OH2      OT      -0.834000       15.9994           0
     62541 TIP3     17542    TIP3     H1       HT       0.417000       1.00800           0
     62542 TIP3     17542    TIP3     H2       HT       0.417000       1.00800           0
     62543 TIP3     17543    TIP3     OH2      OT      -0.834000       15.9994           0
     62544 TIP3     17543    TIP3     H1       HT       0.417000       1.00800           0
     62545 TIP3     17543    TIP3     H2       HT       0.417000       1.00800           0
     62546 TIP3     17544    TIP3     OH2      OT      -0.834000       15.9994           0
     62547 TIP3     17544    TIP3     H1       HT       0.417000       1.00800           0
     62548 TIP3     17544    TIP3     H2       HT       0.417000       1.00800           0
     62549 TIP3     17545    TIP3     OH2      OT      -0.834000       15.9994           0
     62550 TIP3     17545    TIP3     H1       HT       0.417000       1.00800           0
     62551 TIP3     17545    TIP3     H2       HT       0.417000       1.00800           0
     62552 TIP3     17546    TIP3     OH2      OT      -0.834000       15.9994           0
     62553 TIP3     17546    TIP3     H1       HT       0.417000       1.00800           0
     62554 TIP3     17546    TIP3     H2       HT       0.417000       1.00800           0
     62555 TIP3     17547    TIP3     OH2      OT      -0.834000       15.9994           0
     62556 TIP3     17547    TIP3     H1       HT       0.417000       1.00800           0
     62557 TIP3     17547    TIP3     H2       HT       0.417000       1.00800           0
     62558 TIP3     17548    TIP3     OH2      OT      -0.834000       15.9994           0
     62559 TIP3     17548    TIP3     H1       HT       0.417000       1.00800           0
     62560 TIP3     17548    TIP3     H2       HT       0.417000       1.00800           0
     62561 TIP3     17549    TIP3     OH2      OT      -0.834000       15.9994           0
     62562 TIP3     17549    TIP3     H1       HT       0.417000       1.00800           0
     62563 TIP3     17549    TIP3     H2       HT       0.417000       1.00800           0
     62564 TIP3     17550    TIP3     OH2      OT      -0.834000       15.9994           0
     62565 TIP3     17550    TIP3     H1       HT       0.417000       1.00800           0
     62566 TIP3     17550    TIP3     H2       HT       0.417000       1.00800           0
     62567 TIP3     17551    TIP3     OH2      OT      -0.834000       15.9994           0
     62568 TIP3     17551    TIP3     H1       HT       0.417000       1.00800           0
     62569 TIP3     17551    TIP3     H2       HT       0.417000       1.00800           0
     62570 TIP3     17552    TIP3     OH2      OT      -0.834000       15.9994           0
     62571 TIP3     17552    TIP3     H1       HT       0.417000       1.00800           0
     62572 TIP3     17552    TIP3     H2       HT       0.417000       1.00800           0
     62573 TIP3     17553    TIP3     OH2      OT      -0.834000       15.9994           0
     62574 TIP3     17553    TIP3     H1       HT       0.417000       1.00800           0
     62575 TIP3     17553    TIP3     H2       HT       0.417000       1.00800           0
     62576 TIP3     17554    TIP3     OH2      OT      -0.834000       15.9994           0
     62577 TIP3     17554    TIP3     H1       HT       0.417000       1.00800           0
     62578 TIP3     17554    TIP3     H2       HT       0.417000       1.00800           0
     62579 TIP3     17555    TIP3     OH2      OT      -0.834000       15.9994           0
     62580 TIP3     17555    TIP3     H1       HT       0.417000       1.00800           0
     62581 TIP3     17555    TIP3     H2       HT       0.417000       1.00800           0
     62582 TIP3     17556    TIP3     OH2      OT      -0.834000       15.9994           0
     62583 TIP3     17556    TIP3     H1       HT       0.417000       1.00800           0
     62584 TIP3     17556    TIP3     H2       HT       0.417000       1.00800           0
     62585 TIP3     17557    TIP3     OH2      OT      -0.834000       15.9994           0
     62586 TIP3     17557    TIP3     H1       HT       0.417000       1.00800           0
     62587 TIP3     17557    TIP3     H2       HT       0.417000       1.00800           0
     62588 TIP3     17558    TIP3     OH2      OT      -0.834000       15.9994           0
     62589 TIP3     17558    TIP3     H1       HT       0.417000       1.00800           0
     62590 TIP3     17558    TIP3     H2       HT       0.417000       1.00800           0
     62591 TIP3     17559    TIP3     OH2      OT      -0.834000       15.9994           0
     62592 TIP3     17559    TIP3     H1       HT       0.417000       1.00800           0
     62593 TIP3     17559    TIP3     H2       HT       0.417000       1.00800           0
     62594 TIP3     17560    TIP3     OH2      OT      -0.834000       15.9994           0
     62595 TIP3     17560    TIP3     H1       HT       0.417000       1.00800           0
     62596 TIP3     17560    TIP3     H2       HT       0.417000       1.00800           0
     62597 TIP3     17561    TIP3     OH2      OT      -0.834000       15.9994           0
     62598 TIP3     17561    TIP3     H1       HT       0.417000       1.00800           0
     62599 TIP3     17561    TIP3     H2       HT       0.417000       1.00800           0
     62600 TIP3     17562    TIP3     OH2      OT      -0.834000       15.9994           0
     62601 TIP3     17562    TIP3     H1       HT       0.417000       1.00800           0
     62602 TIP3     17562    TIP3     H2       HT       0.417000       1.00800           0
     62603 TIP3     17563    TIP3     OH2      OT      -0.834000       15.9994           0
     62604 TIP3     17563    TIP3     H1       HT       0.417000       1.00800           0
     62605 TIP3     17563    TIP3     H2       HT       0.417000       1.00800           0
     62606 TIP3     17564    TIP3     OH2      OT      -0.834000       15.9994           0
     62607 TIP3     17564    TIP3     H1       HT       0.417000       1.00800           0
     62608 TIP3     17564    TIP3     H2       HT       0.417000       1.00800           0
     62609 TIP3     17565    TIP3     OH2      OT      -0.834000       15.9994           0
     62610 TIP3     17565    TIP3     H1       HT       0.417000       1.00800           0
     62611 TIP3     17565    TIP3     H2       HT       0.417000       1.00800           0
     62612 TIP3     17566    TIP3     OH2      OT      -0.834000       15.9994           0
     62613 TIP3     17566    TIP3     H1       HT       0.417000       1.00800           0
     62614 TIP3     17566    TIP3     H2       HT       0.417000       1.00800           0
     62615 TIP3     17567    TIP3     OH2      OT      -0.834000       15.9994           0
     62616 TIP3     17567    TIP3     H1       HT       0.417000       1.00800           0
     62617 TIP3     17567    TIP3     H2       HT       0.417000       1.00800           0
     62618 TIP3     17568    TIP3     OH2      OT      -0.834000       15.9994           0
     62619 TIP3     17568    TIP3     H1       HT       0.417000       1.00800           0
     62620 TIP3     17568    TIP3     H2       HT       0.417000       1.00800           0
     62621 TIP3     17569    TIP3     OH2      OT      -0.834000       15.9994           0
     62622 TIP3     17569    TIP3     H1       HT       0.417000       1.00800           0
     62623 TIP3     17569    TIP3     H2       HT       0.417000       1.00800           0
     62624 TIP3     17570    TIP3     OH2      OT      -0.834000       15.9994           0
     62625 TIP3     17570    TIP3     H1       HT       0.417000       1.00800           0
     62626 TIP3     17570    TIP3     H2       HT       0.417000       1.00800           0
     62627 TIP3     17571    TIP3     OH2      OT      -0.834000       15.9994           0
     62628 TIP3     17571    TIP3     H1       HT       0.417000       1.00800           0
     62629 TIP3     17571    TIP3     H2       HT       0.417000       1.00800           0
     62630 TIP3     17572    TIP3     OH2      OT      -0.834000       15.9994           0
     62631 TIP3     17572    TIP3     H1       HT       0.417000       1.00800           0
     62632 TIP3     17572    TIP3     H2       HT       0.417000       1.00800           0
     62633 TIP3     17573    TIP3     OH2      OT      -0.834000       15.9994           0
     62634 TIP3     17573    TIP3     H1       HT       0.417000       1.00800           0
     62635 TIP3     17573    TIP3     H2       HT       0.417000       1.00800           0
     62636 TIP3     17574    TIP3     OH2      OT      -0.834000       15.9994           0
     62637 TIP3     17574    TIP3     H1       HT       0.417000       1.00800           0
     62638 TIP3     17574    TIP3     H2       HT       0.417000       1.00800           0
     62639 TIP3     17575    TIP3     OH2      OT      -0.834000       15.9994           0
     62640 TIP3     17575    TIP3     H1       HT       0.417000       1.00800           0
     62641 TIP3     17575    TIP3     H2       HT       0.417000       1.00800           0
     62642 TIP3     17576    TIP3     OH2      OT      -0.834000       15.9994           0
     62643 TIP3     17576    TIP3     H1       HT       0.417000       1.00800           0
     62644 TIP3     17576    TIP3     H2       HT       0.417000       1.00800           0
     62645 TIP3     17577    TIP3     OH2      OT      -0.834000       15.9994           0
     62646 TIP3     17577    TIP3     H1       HT       0.417000       1.00800           0
     62647 TIP3     17577    TIP3     H2       HT       0.417000       1.00800           0
     62648 TIP3     17578    TIP3     OH2      OT      -0.834000       15.9994           0
     62649 TIP3     17578    TIP3     H1       HT       0.417000       1.00800           0
     62650 TIP3     17578    TIP3     H2       HT       0.417000       1.00800           0
     62651 TIP3     17579    TIP3     OH2      OT      -0.834000       15.9994           0
     62652 TIP3     17579    TIP3     H1       HT       0.417000       1.00800           0
     62653 TIP3     17579    TIP3     H2       HT       0.417000       1.00800           0
     62654 TIP3     17580    TIP3     OH2      OT      -0.834000       15.9994           0
     62655 TIP3     17580    TIP3     H1       HT       0.417000       1.00800           0
     62656 TIP3     17580    TIP3     H2       HT       0.417000       1.00800           0
     62657 TIP3     17581    TIP3     OH2      OT      -0.834000       15.9994           0
     62658 TIP3     17581    TIP3     H1       HT       0.417000       1.00800           0
     62659 TIP3     17581    TIP3     H2       HT       0.417000       1.00800           0
     62660 TIP3     17582    TIP3     OH2      OT      -0.834000       15.9994           0
     62661 TIP3     17582    TIP3     H1       HT       0.417000       1.00800           0
     62662 TIP3     17582    TIP3     H2       HT       0.417000       1.00800           0
     62663 TIP3     17583    TIP3     OH2      OT      -0.834000       15.9994           0
     62664 TIP3     17583    TIP3     H1       HT       0.417000       1.00800           0
     62665 TIP3     17583    TIP3     H2       HT       0.417000       1.00800           0
     62666 TIP3     17584    TIP3     OH2      OT      -0.834000       15.9994           0
     62667 TIP3     17584    TIP3     H1       HT       0.417000       1.00800           0
     62668 TIP3     17584    TIP3     H2       HT       0.417000       1.00800           0
     62669 TIP3     17585    TIP3     OH2      OT      -0.834000       15.9994           0
     62670 TIP3     17585    TIP3     H1       HT       0.417000       1.00800           0
     62671 TIP3     17585    TIP3     H2       HT       0.417000       1.00800           0
     62672 TIP3     17586    TIP3     OH2      OT      -0.834000       15.9994           0
     62673 TIP3     17586    TIP3     H1       HT       0.417000       1.00800           0
     62674 TIP3     17586    TIP3     H2       HT       0.417000       1.00800           0
     62675 TIP3     17587    TIP3     OH2      OT      -0.834000       15.9994           0
     62676 TIP3     17587    TIP3     H1       HT       0.417000       1.00800           0
     62677 TIP3     17587    TIP3     H2       HT       0.417000       1.00800           0
     62678 TIP3     17588    TIP3     OH2      OT      -0.834000       15.9994           0
     62679 TIP3     17588    TIP3     H1       HT       0.417000       1.00800           0
     62680 TIP3     17588    TIP3     H2       HT       0.417000       1.00800           0
     62681 TIP3     17589    TIP3     OH2      OT      -0.834000       15.9994           0
     62682 TIP3     17589    TIP3     H1       HT       0.417000       1.00800           0
     62683 TIP3     17589    TIP3     H2       HT       0.417000       1.00800           0
     62684 TIP3     17590    TIP3     OH2      OT      -0.834000       15.9994           0
     62685 TIP3     17590    TIP3     H1       HT       0.417000       1.00800           0
     62686 TIP3     17590    TIP3     H2       HT       0.417000       1.00800           0
     62687 TIP3     17591    TIP3     OH2      OT      -0.834000       15.9994           0
     62688 TIP3     17591    TIP3     H1       HT       0.417000       1.00800           0
     62689 TIP3     17591    TIP3     H2       HT       0.417000       1.00800           0
     62690 TIP3     17592    TIP3     OH2      OT      -0.834000       15.9994           0
     62691 TIP3     17592    TIP3     H1       HT       0.417000       1.00800           0
     62692 TIP3     17592    TIP3     H2       HT       0.417000       1.00800           0
     62693 TIP3     17593    TIP3     OH2      OT      -0.834000       15.9994           0
     62694 TIP3     17593    TIP3     H1       HT       0.417000       1.00800           0
     62695 TIP3     17593    TIP3     H2       HT       0.417000       1.00800           0
     62696 TIP3     17594    TIP3     OH2      OT      -0.834000       15.9994           0
     62697 TIP3     17594    TIP3     H1       HT       0.417000       1.00800           0
     62698 TIP3     17594    TIP3     H2       HT       0.417000       1.00800           0
     62699 TIP3     17595    TIP3     OH2      OT      -0.834000       15.9994           0
     62700 TIP3     17595    TIP3     H1       HT       0.417000       1.00800           0
     62701 TIP3     17595    TIP3     H2       HT       0.417000       1.00800           0
     62702 TIP3     17596    TIP3     OH2      OT      -0.834000       15.9994           0
     62703 TIP3     17596    TIP3     H1       HT       0.417000       1.00800           0
     62704 TIP3     17596    TIP3     H2       HT       0.417000       1.00800           0
     62705 TIP3     17597    TIP3     OH2      OT      -0.834000       15.9994           0
     62706 TIP3     17597    TIP3     H1       HT       0.417000       1.00800           0
     62707 TIP3     17597    TIP3     H2       HT       0.417000       1.00800           0
     62708 TIP3     17598    TIP3     OH2      OT      -0.834000       15.9994           0
     62709 TIP3     17598    TIP3     H1       HT       0.417000       1.00800           0
     62710 TIP3     17598    TIP3     H2       HT       0.417000       1.00800           0
     62711 TIP3     17599    TIP3     OH2      OT      -0.834000       15.9994           0
     62712 TIP3     17599    TIP3     H1       HT       0.417000       1.00800           0
     62713 TIP3     17599    TIP3     H2       HT       0.417000       1.00800           0
     62714 TIP3     17600    TIP3     OH2      OT      -0.834000       15.9994           0
     62715 TIP3     17600    TIP3     H1       HT       0.417000       1.00800           0
     62716 TIP3     17600    TIP3     H2       HT       0.417000       1.00800           0
     62717 TIP3     17601    TIP3     OH2      OT      -0.834000       15.9994           0
     62718 TIP3     17601    TIP3     H1       HT       0.417000       1.00800           0
     62719 TIP3     17601    TIP3     H2       HT       0.417000       1.00800           0
     62720 TIP3     17602    TIP3     OH2      OT      -0.834000       15.9994           0
     62721 TIP3     17602    TIP3     H1       HT       0.417000       1.00800           0
     62722 TIP3     17602    TIP3     H2       HT       0.417000       1.00800           0
     62723 TIP3     17603    TIP3     OH2      OT      -0.834000       15.9994           0
     62724 TIP3     17603    TIP3     H1       HT       0.417000       1.00800           0
     62725 TIP3     17603    TIP3     H2       HT       0.417000       1.00800           0
     62726 TIP3     17604    TIP3     OH2      OT      -0.834000       15.9994           0
     62727 TIP3     17604    TIP3     H1       HT       0.417000       1.00800           0
     62728 TIP3     17604    TIP3     H2       HT       0.417000       1.00800           0
     62729 TIP3     17605    TIP3     OH2      OT      -0.834000       15.9994           0
     62730 TIP3     17605    TIP3     H1       HT       0.417000       1.00800           0
     62731 TIP3     17605    TIP3     H2       HT       0.417000       1.00800           0
     62732 TIP3     17606    TIP3     OH2      OT      -0.834000       15.9994           0
     62733 TIP3     17606    TIP3     H1       HT       0.417000       1.00800           0
     62734 TIP3     17606    TIP3     H2       HT       0.417000       1.00800           0
     62735 TIP3     17607    TIP3     OH2      OT      -0.834000       15.9994           0
     62736 TIP3     17607    TIP3     H1       HT       0.417000       1.00800           0
     62737 TIP3     17607    TIP3     H2       HT       0.417000       1.00800           0
     62738 TIP3     17608    TIP3     OH2      OT      -0.834000       15.9994           0
     62739 TIP3     17608    TIP3     H1       HT       0.417000       1.00800           0
     62740 TIP3     17608    TIP3     H2       HT       0.417000       1.00800           0
     62741 TIP3     17609    TIP3     OH2      OT      -0.834000       15.9994           0
     62742 TIP3     17609    TIP3     H1       HT       0.417000       1.00800           0
     62743 TIP3     17609    TIP3     H2       HT       0.417000       1.00800           0
     62744 TIP3     17610    TIP3     OH2      OT      -0.834000       15.9994           0
     62745 TIP3     17610    TIP3     H1       HT       0.417000       1.00800           0
     62746 TIP3     17610    TIP3     H2       HT       0.417000       1.00800           0
     62747 TIP3     17611    TIP3     OH2      OT      -0.834000       15.9994           0
     62748 TIP3     17611    TIP3     H1       HT       0.417000       1.00800           0
     62749 TIP3     17611    TIP3     H2       HT       0.417000       1.00800           0
     62750 TIP3     17612    TIP3     OH2      OT      -0.834000       15.9994           0
     62751 TIP3     17612    TIP3     H1       HT       0.417000       1.00800           0
     62752 TIP3     17612    TIP3     H2       HT       0.417000       1.00800           0
     62753 TIP3     17613    TIP3     OH2      OT      -0.834000       15.9994           0
     62754 TIP3     17613    TIP3     H1       HT       0.417000       1.00800           0
     62755 TIP3     17613    TIP3     H2       HT       0.417000       1.00800           0
     62756 TIP3     17614    TIP3     OH2      OT      -0.834000       15.9994           0
     62757 TIP3     17614    TIP3     H1       HT       0.417000       1.00800           0
     62758 TIP3     17614    TIP3     H2       HT       0.417000       1.00800           0
     62759 TIP3     17615    TIP3     OH2      OT      -0.834000       15.9994           0
     62760 TIP3     17615    TIP3     H1       HT       0.417000       1.00800           0
     62761 TIP3     17615    TIP3     H2       HT       0.417000       1.00800           0
     62762 TIP3     17616    TIP3     OH2      OT      -0.834000       15.9994           0
     62763 TIP3     17616    TIP3     H1       HT       0.417000       1.00800           0
     62764 TIP3     17616    TIP3     H2       HT       0.417000       1.00800           0
     62765 TIP3     17617    TIP3     OH2      OT      -0.834000       15.9994           0
     62766 TIP3     17617    TIP3     H1       HT       0.417000       1.00800           0
     62767 TIP3     17617    TIP3     H2       HT       0.417000       1.00800           0
     62768 TIP3     17618    TIP3     OH2      OT      -0.834000       15.9994           0
     62769 TIP3     17618    TIP3     H1       HT       0.417000       1.00800           0
     62770 TIP3     17618    TIP3     H2       HT       0.417000       1.00800           0
     62771 TIP3     17619    TIP3     OH2      OT      -0.834000       15.9994           0
     62772 TIP3     17619    TIP3     H1       HT       0.417000       1.00800           0
     62773 TIP3     17619    TIP3     H2       HT       0.417000       1.00800           0
     62774 TIP3     17620    TIP3     OH2      OT      -0.834000       15.9994           0
     62775 TIP3     17620    TIP3     H1       HT       0.417000       1.00800           0
     62776 TIP3     17620    TIP3     H2       HT       0.417000       1.00800           0
     62777 TIP3     17621    TIP3     OH2      OT      -0.834000       15.9994           0
     62778 TIP3     17621    TIP3     H1       HT       0.417000       1.00800           0
     62779 TIP3     17621    TIP3     H2       HT       0.417000       1.00800           0
     62780 TIP3     17622    TIP3     OH2      OT      -0.834000       15.9994           0
     62781 TIP3     17622    TIP3     H1       HT       0.417000       1.00800           0
     62782 TIP3     17622    TIP3     H2       HT       0.417000       1.00800           0
     62783 TIP3     17623    TIP3     OH2      OT      -0.834000       15.9994           0
     62784 TIP3     17623    TIP3     H1       HT       0.417000       1.00800           0
     62785 TIP3     17623    TIP3     H2       HT       0.417000       1.00800           0
     62786 TIP3     17624    TIP3     OH2      OT      -0.834000       15.9994           0
     62787 TIP3     17624    TIP3     H1       HT       0.417000       1.00800           0
     62788 TIP3     17624    TIP3     H2       HT       0.417000       1.00800           0
     62789 TIP3     17625    TIP3     OH2      OT      -0.834000       15.9994           0
     62790 TIP3     17625    TIP3     H1       HT       0.417000       1.00800           0
     62791 TIP3     17625    TIP3     H2       HT       0.417000       1.00800           0
     62792 TIP3     17626    TIP3     OH2      OT      -0.834000       15.9994           0
     62793 TIP3     17626    TIP3     H1       HT       0.417000       1.00800           0
     62794 TIP3     17626    TIP3     H2       HT       0.417000       1.00800           0
     62795 TIP3     17627    TIP3     OH2      OT      -0.834000       15.9994           0
     62796 TIP3     17627    TIP3     H1       HT       0.417000       1.00800           0
     62797 TIP3     17627    TIP3     H2       HT       0.417000       1.00800           0
     62798 TIP3     17628    TIP3     OH2      OT      -0.834000       15.9994           0
     62799 TIP3     17628    TIP3     H1       HT       0.417000       1.00800           0
     62800 TIP3     17628    TIP3     H2       HT       0.417000       1.00800           0
     62801 TIP3     17629    TIP3     OH2      OT      -0.834000       15.9994           0
     62802 TIP3     17629    TIP3     H1       HT       0.417000       1.00800           0
     62803 TIP3     17629    TIP3     H2       HT       0.417000       1.00800           0
     62804 TIP3     17630    TIP3     OH2      OT      -0.834000       15.9994           0
     62805 TIP3     17630    TIP3     H1       HT       0.417000       1.00800           0
     62806 TIP3     17630    TIP3     H2       HT       0.417000       1.00800           0
     62807 TIP3     17631    TIP3     OH2      OT      -0.834000       15.9994           0
     62808 TIP3     17631    TIP3     H1       HT       0.417000       1.00800           0
     62809 TIP3     17631    TIP3     H2       HT       0.417000       1.00800           0
     62810 TIP3     17632    TIP3     OH2      OT      -0.834000       15.9994           0
     62811 TIP3     17632    TIP3     H1       HT       0.417000       1.00800           0
     62812 TIP3     17632    TIP3     H2       HT       0.417000       1.00800           0
     62813 TIP3     17633    TIP3     OH2      OT      -0.834000       15.9994           0
     62814 TIP3     17633    TIP3     H1       HT       0.417000       1.00800           0
     62815 TIP3     17633    TIP3     H2       HT       0.417000       1.00800           0
     62816 TIP3     17634    TIP3     OH2      OT      -0.834000       15.9994           0
     62817 TIP3     17634    TIP3     H1       HT       0.417000       1.00800           0
     62818 TIP3     17634    TIP3     H2       HT       0.417000       1.00800           0
     62819 TIP3     17635    TIP3     OH2      OT      -0.834000       15.9994           0
     62820 TIP3     17635    TIP3     H1       HT       0.417000       1.00800           0
     62821 TIP3     17635    TIP3     H2       HT       0.417000       1.00800           0
     62822 TIP3     17636    TIP3     OH2      OT      -0.834000       15.9994           0
     62823 TIP3     17636    TIP3     H1       HT       0.417000       1.00800           0
     62824 TIP3     17636    TIP3     H2       HT       0.417000       1.00800           0
     62825 TIP3     17637    TIP3     OH2      OT      -0.834000       15.9994           0
     62826 TIP3     17637    TIP3     H1       HT       0.417000       1.00800           0
     62827 TIP3     17637    TIP3     H2       HT       0.417000       1.00800           0
     62828 TIP3     17638    TIP3     OH2      OT      -0.834000       15.9994           0
     62829 TIP3     17638    TIP3     H1       HT       0.417000       1.00800           0
     62830 TIP3     17638    TIP3     H2       HT       0.417000       1.00800           0
     62831 TIP3     17639    TIP3     OH2      OT      -0.834000       15.9994           0
     62832 TIP3     17639    TIP3     H1       HT       0.417000       1.00800           0
     62833 TIP3     17639    TIP3     H2       HT       0.417000       1.00800           0
     62834 TIP3     17640    TIP3     OH2      OT      -0.834000       15.9994           0
     62835 TIP3     17640    TIP3     H1       HT       0.417000       1.00800           0
     62836 TIP3     17640    TIP3     H2       HT       0.417000       1.00800           0
     62837 TIP3     17641    TIP3     OH2      OT      -0.834000       15.9994           0
     62838 TIP3     17641    TIP3     H1       HT       0.417000       1.00800           0
     62839 TIP3     17641    TIP3     H2       HT       0.417000       1.00800           0
     62840 TIP3     17642    TIP3     OH2      OT      -0.834000       15.9994           0
     62841 TIP3     17642    TIP3     H1       HT       0.417000       1.00800           0
     62842 TIP3     17642    TIP3     H2       HT       0.417000       1.00800           0
     62843 TIP3     17643    TIP3     OH2      OT      -0.834000       15.9994           0
     62844 TIP3     17643    TIP3     H1       HT       0.417000       1.00800           0
     62845 TIP3     17643    TIP3     H2       HT       0.417000       1.00800           0
     62846 TIP3     17644    TIP3     OH2      OT      -0.834000       15.9994           0
     62847 TIP3     17644    TIP3     H1       HT       0.417000       1.00800           0
     62848 TIP3     17644    TIP3     H2       HT       0.417000       1.00800           0
     62849 TIP3     17645    TIP3     OH2      OT      -0.834000       15.9994           0
     62850 TIP3     17645    TIP3     H1       HT       0.417000       1.00800           0
     62851 TIP3     17645    TIP3     H2       HT       0.417000       1.00800           0
     62852 TIP3     17646    TIP3     OH2      OT      -0.834000       15.9994           0
     62853 TIP3     17646    TIP3     H1       HT       0.417000       1.00800           0
     62854 TIP3     17646    TIP3     H2       HT       0.417000       1.00800           0
     62855 TIP3     17647    TIP3     OH2      OT      -0.834000       15.9994           0
     62856 TIP3     17647    TIP3     H1       HT       0.417000       1.00800           0
     62857 TIP3     17647    TIP3     H2       HT       0.417000       1.00800           0
     62858 TIP3     17648    TIP3     OH2      OT      -0.834000       15.9994           0
     62859 TIP3     17648    TIP3     H1       HT       0.417000       1.00800           0
     62860 TIP3     17648    TIP3     H2       HT       0.417000       1.00800           0
     62861 TIP3     17649    TIP3     OH2      OT      -0.834000       15.9994           0
     62862 TIP3     17649    TIP3     H1       HT       0.417000       1.00800           0
     62863 TIP3     17649    TIP3     H2       HT       0.417000       1.00800           0
     62864 TIP3     17650    TIP3     OH2      OT      -0.834000       15.9994           0
     62865 TIP3     17650    TIP3     H1       HT       0.417000       1.00800           0
     62866 TIP3     17650    TIP3     H2       HT       0.417000       1.00800           0
     62867 TIP3     17651    TIP3     OH2      OT      -0.834000       15.9994           0
     62868 TIP3     17651    TIP3     H1       HT       0.417000       1.00800           0
     62869 TIP3     17651    TIP3     H2       HT       0.417000       1.00800           0
     62870 TIP3     17652    TIP3     OH2      OT      -0.834000       15.9994           0
     62871 TIP3     17652    TIP3     H1       HT       0.417000       1.00800           0
     62872 TIP3     17652    TIP3     H2       HT       0.417000       1.00800           0
     62873 TIP3     17653    TIP3     OH2      OT      -0.834000       15.9994           0
     62874 TIP3     17653    TIP3     H1       HT       0.417000       1.00800           0
     62875 TIP3     17653    TIP3     H2       HT       0.417000       1.00800           0
     62876 TIP3     17654    TIP3     OH2      OT      -0.834000       15.9994           0
     62877 TIP3     17654    TIP3     H1       HT       0.417000       1.00800           0
     62878 TIP3     17654    TIP3     H2       HT       0.417000       1.00800           0
     62879 TIP3     17655    TIP3     OH2      OT      -0.834000       15.9994           0
     62880 TIP3     17655    TIP3     H1       HT       0.417000       1.00800           0
     62881 TIP3     17655    TIP3     H2       HT       0.417000       1.00800           0
     62882 TIP3     17656    TIP3     OH2      OT      -0.834000       15.9994           0
     62883 TIP3     17656    TIP3     H1       HT       0.417000       1.00800           0
     62884 TIP3     17656    TIP3     H2       HT       0.417000       1.00800           0
     62885 TIP3     17657    TIP3     OH2      OT      -0.834000       15.9994           0
     62886 TIP3     17657    TIP3     H1       HT       0.417000       1.00800           0
     62887 TIP3     17657    TIP3     H2       HT       0.417000       1.00800           0
     62888 TIP3     17658    TIP3     OH2      OT      -0.834000       15.9994           0
     62889 TIP3     17658    TIP3     H1       HT       0.417000       1.00800           0
     62890 TIP3     17658    TIP3     H2       HT       0.417000       1.00800           0
     62891 TIP3     17659    TIP3     OH2      OT      -0.834000       15.9994           0
     62892 TIP3     17659    TIP3     H1       HT       0.417000       1.00800           0
     62893 TIP3     17659    TIP3     H2       HT       0.417000       1.00800           0
     62894 TIP3     17660    TIP3     OH2      OT      -0.834000       15.9994           0
     62895 TIP3     17660    TIP3     H1       HT       0.417000       1.00800           0
     62896 TIP3     17660    TIP3     H2       HT       0.417000       1.00800           0
     62897 TIP3     17661    TIP3     OH2      OT      -0.834000       15.9994           0
     62898 TIP3     17661    TIP3     H1       HT       0.417000       1.00800           0
     62899 TIP3     17661    TIP3     H2       HT       0.417000       1.00800           0
     62900 TIP3     17662    TIP3     OH2      OT      -0.834000       15.9994           0
     62901 TIP3     17662    TIP3     H1       HT       0.417000       1.00800           0
     62902 TIP3     17662    TIP3     H2       HT       0.417000       1.00800           0
     62903 TIP3     17663    TIP3     OH2      OT      -0.834000       15.9994           0
     62904 TIP3     17663    TIP3     H1       HT       0.417000       1.00800           0
     62905 TIP3     17663    TIP3     H2       HT       0.417000       1.00800           0
     62906 TIP3     17664    TIP3     OH2      OT      -0.834000       15.9994           0
     62907 TIP3     17664    TIP3     H1       HT       0.417000       1.00800           0
     62908 TIP3     17664    TIP3     H2       HT       0.417000       1.00800           0
     62909 TIP3     17665    TIP3     OH2      OT      -0.834000       15.9994           0
     62910 TIP3     17665    TIP3     H1       HT       0.417000       1.00800           0
     62911 TIP3     17665    TIP3     H2       HT       0.417000       1.00800           0
     62912 TIP3     17666    TIP3     OH2      OT      -0.834000       15.9994           0
     62913 TIP3     17666    TIP3     H1       HT       0.417000       1.00800           0
     62914 TIP3     17666    TIP3     H2       HT       0.417000       1.00800           0
     62915 TIP3     17667    TIP3     OH2      OT      -0.834000       15.9994           0
     62916 TIP3     17667    TIP3     H1       HT       0.417000       1.00800           0
     62917 TIP3     17667    TIP3     H2       HT       0.417000       1.00800           0
     62918 TIP3     17668    TIP3     OH2      OT      -0.834000       15.9994           0
     62919 TIP3     17668    TIP3     H1       HT       0.417000       1.00800           0
     62920 TIP3     17668    TIP3     H2       HT       0.417000       1.00800           0
     62921 TIP3     17669    TIP3     OH2      OT      -0.834000       15.9994           0
     62922 TIP3     17669    TIP3     H1       HT       0.417000       1.00800           0
     62923 TIP3     17669    TIP3     H2       HT       0.417000       1.00800           0
     62924 TIP3     17670    TIP3     OH2      OT      -0.834000       15.9994           0
     62925 TIP3     17670    TIP3     H1       HT       0.417000       1.00800           0
     62926 TIP3     17670    TIP3     H2       HT       0.417000       1.00800           0
     62927 TIP3     17671    TIP3     OH2      OT      -0.834000       15.9994           0
     62928 TIP3     17671    TIP3     H1       HT       0.417000       1.00800           0
     62929 TIP3     17671    TIP3     H2       HT       0.417000       1.00800           0
     62930 TIP3     17672    TIP3     OH2      OT      -0.834000       15.9994           0
     62931 TIP3     17672    TIP3     H1       HT       0.417000       1.00800           0
     62932 TIP3     17672    TIP3     H2       HT       0.417000       1.00800           0
     62933 TIP3     17673    TIP3     OH2      OT      -0.834000       15.9994           0
     62934 TIP3     17673    TIP3     H1       HT       0.417000       1.00800           0
     62935 TIP3     17673    TIP3     H2       HT       0.417000       1.00800           0
     62936 TIP3     17674    TIP3     OH2      OT      -0.834000       15.9994           0
     62937 TIP3     17674    TIP3     H1       HT       0.417000       1.00800           0
     62938 TIP3     17674    TIP3     H2       HT       0.417000       1.00800           0
     62939 TIP3     17675    TIP3     OH2      OT      -0.834000       15.9994           0
     62940 TIP3     17675    TIP3     H1       HT       0.417000       1.00800           0
     62941 TIP3     17675    TIP3     H2       HT       0.417000       1.00800           0
     62942 TIP3     17676    TIP3     OH2      OT      -0.834000       15.9994           0
     62943 TIP3     17676    TIP3     H1       HT       0.417000       1.00800           0
     62944 TIP3     17676    TIP3     H2       HT       0.417000       1.00800           0
     62945 TIP3     17677    TIP3     OH2      OT      -0.834000       15.9994           0
     62946 TIP3     17677    TIP3     H1       HT       0.417000       1.00800           0
     62947 TIP3     17677    TIP3     H2       HT       0.417000       1.00800           0
     62948 TIP3     17678    TIP3     OH2      OT      -0.834000       15.9994           0
     62949 TIP3     17678    TIP3     H1       HT       0.417000       1.00800           0
     62950 TIP3     17678    TIP3     H2       HT       0.417000       1.00800           0
     62951 TIP3     17679    TIP3     OH2      OT      -0.834000       15.9994           0
     62952 TIP3     17679    TIP3     H1       HT       0.417000       1.00800           0
     62953 TIP3     17679    TIP3     H2       HT       0.417000       1.00800           0
     62954 TIP3     17680    TIP3     OH2      OT      -0.834000       15.9994           0
     62955 TIP3     17680    TIP3     H1       HT       0.417000       1.00800           0
     62956 TIP3     17680    TIP3     H2       HT       0.417000       1.00800           0
     62957 TIP3     17681    TIP3     OH2      OT      -0.834000       15.9994           0
     62958 TIP3     17681    TIP3     H1       HT       0.417000       1.00800           0
     62959 TIP3     17681    TIP3     H2       HT       0.417000       1.00800           0
     62960 TIP3     17682    TIP3     OH2      OT      -0.834000       15.9994           0
     62961 TIP3     17682    TIP3     H1       HT       0.417000       1.00800           0
     62962 TIP3     17682    TIP3     H2       HT       0.417000       1.00800           0
     62963 TIP3     17683    TIP3     OH2      OT      -0.834000       15.9994           0
     62964 TIP3     17683    TIP3     H1       HT       0.417000       1.00800           0
     62965 TIP3     17683    TIP3     H2       HT       0.417000       1.00800           0
     62966 TIP3     17684    TIP3     OH2      OT      -0.834000       15.9994           0
     62967 TIP3     17684    TIP3     H1       HT       0.417000       1.00800           0
     62968 TIP3     17684    TIP3     H2       HT       0.417000       1.00800           0
     62969 TIP3     17685    TIP3     OH2      OT      -0.834000       15.9994           0
     62970 TIP3     17685    TIP3     H1       HT       0.417000       1.00800           0
     62971 TIP3     17685    TIP3     H2       HT       0.417000       1.00800           0
     62972 TIP3     17686    TIP3     OH2      OT      -0.834000       15.9994           0
     62973 TIP3     17686    TIP3     H1       HT       0.417000       1.00800           0
     62974 TIP3     17686    TIP3     H2       HT       0.417000       1.00800           0
     62975 TIP3     17687    TIP3     OH2      OT      -0.834000       15.9994           0
     62976 TIP3     17687    TIP3     H1       HT       0.417000       1.00800           0
     62977 TIP3     17687    TIP3     H2       HT       0.417000       1.00800           0
     62978 TIP3     17688    TIP3     OH2      OT      -0.834000       15.9994           0
     62979 TIP3     17688    TIP3     H1       HT       0.417000       1.00800           0
     62980 TIP3     17688    TIP3     H2       HT       0.417000       1.00800           0
     62981 TIP3     17689    TIP3     OH2      OT      -0.834000       15.9994           0
     62982 TIP3     17689    TIP3     H1       HT       0.417000       1.00800           0
     62983 TIP3     17689    TIP3     H2       HT       0.417000       1.00800           0
     62984 TIP3     17690    TIP3     OH2      OT      -0.834000       15.9994           0
     62985 TIP3     17690    TIP3     H1       HT       0.417000       1.00800           0
     62986 TIP3     17690    TIP3     H2       HT       0.417000       1.00800           0
     62987 TIP3     17691    TIP3     OH2      OT      -0.834000       15.9994           0
     62988 TIP3     17691    TIP3     H1       HT       0.417000       1.00800           0
     62989 TIP3     17691    TIP3     H2       HT       0.417000       1.00800           0
     62990 TIP3     17692    TIP3     OH2      OT      -0.834000       15.9994           0
     62991 TIP3     17692    TIP3     H1       HT       0.417000       1.00800           0
     62992 TIP3     17692    TIP3     H2       HT       0.417000       1.00800           0
     62993 TIP3     17693    TIP3     OH2      OT      -0.834000       15.9994           0
     62994 TIP3     17693    TIP3     H1       HT       0.417000       1.00800           0
     62995 TIP3     17693    TIP3     H2       HT       0.417000       1.00800           0
     62996 TIP3     17694    TIP3     OH2      OT      -0.834000       15.9994           0
     62997 TIP3     17694    TIP3     H1       HT       0.417000       1.00800           0
     62998 TIP3     17694    TIP3     H2       HT       0.417000       1.00800           0
     62999 TIP3     17695    TIP3     OH2      OT      -0.834000       15.9994           0
     63000 TIP3     17695    TIP3     H1       HT       0.417000       1.00800           0
     63001 TIP3     17695    TIP3     H2       HT       0.417000       1.00800           0
     63002 TIP3     17696    TIP3     OH2      OT      -0.834000       15.9994           0
     63003 TIP3     17696    TIP3     H1       HT       0.417000       1.00800           0
     63004 TIP3     17696    TIP3     H2       HT       0.417000       1.00800           0
     63005 TIP3     17697    TIP3     OH2      OT      -0.834000       15.9994           0
     63006 TIP3     17697    TIP3     H1       HT       0.417000       1.00800           0
     63007 TIP3     17697    TIP3     H2       HT       0.417000       1.00800           0
     63008 TIP3     17698    TIP3     OH2      OT      -0.834000       15.9994           0
     63009 TIP3     17698    TIP3     H1       HT       0.417000       1.00800           0
     63010 TIP3     17698    TIP3     H2       HT       0.417000       1.00800           0
     63011 TIP3     17699    TIP3     OH2      OT      -0.834000       15.9994           0
     63012 TIP3     17699    TIP3     H1       HT       0.417000       1.00800           0
     63013 TIP3     17699    TIP3     H2       HT       0.417000       1.00800           0
     63014 TIP3     17700    TIP3     OH2      OT      -0.834000       15.9994           0
     63015 TIP3     17700    TIP3     H1       HT       0.417000       1.00800           0
     63016 TIP3     17700    TIP3     H2       HT       0.417000       1.00800           0
     63017 TIP3     17701    TIP3     OH2      OT      -0.834000       15.9994           0
     63018 TIP3     17701    TIP3     H1       HT       0.417000       1.00800           0
     63019 TIP3     17701    TIP3     H2       HT       0.417000       1.00800           0
     63020 TIP3     17702    TIP3     OH2      OT      -0.834000       15.9994           0
     63021 TIP3     17702    TIP3     H1       HT       0.417000       1.00800           0
     63022 TIP3     17702    TIP3     H2       HT       0.417000       1.00800           0
     63023 TIP3     17703    TIP3     OH2      OT      -0.834000       15.9994           0
     63024 TIP3     17703    TIP3     H1       HT       0.417000       1.00800           0
     63025 TIP3     17703    TIP3     H2       HT       0.417000       1.00800           0
     63026 TIP3     17704    TIP3     OH2      OT      -0.834000       15.9994           0
     63027 TIP3     17704    TIP3     H1       HT       0.417000       1.00800           0
     63028 TIP3     17704    TIP3     H2       HT       0.417000       1.00800           0
     63029 TIP3     17705    TIP3     OH2      OT      -0.834000       15.9994           0
     63030 TIP3     17705    TIP3     H1       HT       0.417000       1.00800           0
     63031 TIP3     17705    TIP3     H2       HT       0.417000       1.00800           0
     63032 TIP3     17706    TIP3     OH2      OT      -0.834000       15.9994           0
     63033 TIP3     17706    TIP3     H1       HT       0.417000       1.00800           0
     63034 TIP3     17706    TIP3     H2       HT       0.417000       1.00800           0
     63035 TIP3     17707    TIP3     OH2      OT      -0.834000       15.9994           0
     63036 TIP3     17707    TIP3     H1       HT       0.417000       1.00800           0
     63037 TIP3     17707    TIP3     H2       HT       0.417000       1.00800           0
     63038 TIP3     17708    TIP3     OH2      OT      -0.834000       15.9994           0
     63039 TIP3     17708    TIP3     H1       HT       0.417000       1.00800           0
     63040 TIP3     17708    TIP3     H2       HT       0.417000       1.00800           0
     63041 TIP3     17709    TIP3     OH2      OT      -0.834000       15.9994           0
     63042 TIP3     17709    TIP3     H1       HT       0.417000       1.00800           0
     63043 TIP3     17709    TIP3     H2       HT       0.417000       1.00800           0
     63044 TIP3     17710    TIP3     OH2      OT      -0.834000       15.9994           0
     63045 TIP3     17710    TIP3     H1       HT       0.417000       1.00800           0
     63046 TIP3     17710    TIP3     H2       HT       0.417000       1.00800           0
     63047 TIP3     17711    TIP3     OH2      OT      -0.834000       15.9994           0
     63048 TIP3     17711    TIP3     H1       HT       0.417000       1.00800           0
     63049 TIP3     17711    TIP3     H2       HT       0.417000       1.00800           0
     63050 TIP3     17712    TIP3     OH2      OT      -0.834000       15.9994           0
     63051 TIP3     17712    TIP3     H1       HT       0.417000       1.00800           0
     63052 TIP3     17712    TIP3     H2       HT       0.417000       1.00800           0
     63053 TIP3     17713    TIP3     OH2      OT      -0.834000       15.9994           0
     63054 TIP3     17713    TIP3     H1       HT       0.417000       1.00800           0
     63055 TIP3     17713    TIP3     H2       HT       0.417000       1.00800           0
     63056 TIP3     17714    TIP3     OH2      OT      -0.834000       15.9994           0
     63057 TIP3     17714    TIP3     H1       HT       0.417000       1.00800           0
     63058 TIP3     17714    TIP3     H2       HT       0.417000       1.00800           0
     63059 TIP3     17715    TIP3     OH2      OT      -0.834000       15.9994           0
     63060 TIP3     17715    TIP3     H1       HT       0.417000       1.00800           0
     63061 TIP3     17715    TIP3     H2       HT       0.417000       1.00800           0
     63062 TIP3     17716    TIP3     OH2      OT      -0.834000       15.9994           0
     63063 TIP3     17716    TIP3     H1       HT       0.417000       1.00800           0
     63064 TIP3     17716    TIP3     H2       HT       0.417000       1.00800           0
     63065 TIP3     17717    TIP3     OH2      OT      -0.834000       15.9994           0
     63066 TIP3     17717    TIP3     H1       HT       0.417000       1.00800           0
     63067 TIP3     17717    TIP3     H2       HT       0.417000       1.00800           0
     63068 TIP3     17718    TIP3     OH2      OT      -0.834000       15.9994           0
     63069 TIP3     17718    TIP3     H1       HT       0.417000       1.00800           0
     63070 TIP3     17718    TIP3     H2       HT       0.417000       1.00800           0
     63071 TIP3     17719    TIP3     OH2      OT      -0.834000       15.9994           0
     63072 TIP3     17719    TIP3     H1       HT       0.417000       1.00800           0
     63073 TIP3     17719    TIP3     H2       HT       0.417000       1.00800           0
     63074 TIP3     17720    TIP3     OH2      OT      -0.834000       15.9994           0
     63075 TIP3     17720    TIP3     H1       HT       0.417000       1.00800           0
     63076 TIP3     17720    TIP3     H2       HT       0.417000       1.00800           0
     63077 TIP3     17721    TIP3     OH2      OT      -0.834000       15.9994           0
     63078 TIP3     17721    TIP3     H1       HT       0.417000       1.00800           0
     63079 TIP3     17721    TIP3     H2       HT       0.417000       1.00800           0
     63080 TIP3     17722    TIP3     OH2      OT      -0.834000       15.9994           0
     63081 TIP3     17722    TIP3     H1       HT       0.417000       1.00800           0
     63082 TIP3     17722    TIP3     H2       HT       0.417000       1.00800           0
     63083 TIP3     17723    TIP3     OH2      OT      -0.834000       15.9994           0
     63084 TIP3     17723    TIP3     H1       HT       0.417000       1.00800           0
     63085 TIP3     17723    TIP3     H2       HT       0.417000       1.00800           0
     63086 TIP3     17724    TIP3     OH2      OT      -0.834000       15.9994           0
     63087 TIP3     17724    TIP3     H1       HT       0.417000       1.00800           0
     63088 TIP3     17724    TIP3     H2       HT       0.417000       1.00800           0
     63089 TIP3     17725    TIP3     OH2      OT      -0.834000       15.9994           0
     63090 TIP3     17725    TIP3     H1       HT       0.417000       1.00800           0
     63091 TIP3     17725    TIP3     H2       HT       0.417000       1.00800           0
     63092 TIP3     17726    TIP3     OH2      OT      -0.834000       15.9994           0
     63093 TIP3     17726    TIP3     H1       HT       0.417000       1.00800           0
     63094 TIP3     17726    TIP3     H2       HT       0.417000       1.00800           0
     63095 TIP3     17727    TIP3     OH2      OT      -0.834000       15.9994           0
     63096 TIP3     17727    TIP3     H1       HT       0.417000       1.00800           0
     63097 TIP3     17727    TIP3     H2       HT       0.417000       1.00800           0
     63098 TIP3     17728    TIP3     OH2      OT      -0.834000       15.9994           0
     63099 TIP3     17728    TIP3     H1       HT       0.417000       1.00800           0
     63100 TIP3     17728    TIP3     H2       HT       0.417000       1.00800           0
     63101 TIP3     17729    TIP3     OH2      OT      -0.834000       15.9994           0
     63102 TIP3     17729    TIP3     H1       HT       0.417000       1.00800           0
     63103 TIP3     17729    TIP3     H2       HT       0.417000       1.00800           0
     63104 TIP3     17730    TIP3     OH2      OT      -0.834000       15.9994           0
     63105 TIP3     17730    TIP3     H1       HT       0.417000       1.00800           0
     63106 TIP3     17730    TIP3     H2       HT       0.417000       1.00800           0
     63107 TIP3     17731    TIP3     OH2      OT      -0.834000       15.9994           0
     63108 TIP3     17731    TIP3     H1       HT       0.417000       1.00800           0
     63109 TIP3     17731    TIP3     H2       HT       0.417000       1.00800           0
     63110 TIP3     17732    TIP3     OH2      OT      -0.834000       15.9994           0
     63111 TIP3     17732    TIP3     H1       HT       0.417000       1.00800           0
     63112 TIP3     17732    TIP3     H2       HT       0.417000       1.00800           0
     63113 TIP3     17733    TIP3     OH2      OT      -0.834000       15.9994           0
     63114 TIP3     17733    TIP3     H1       HT       0.417000       1.00800           0
     63115 TIP3     17733    TIP3     H2       HT       0.417000       1.00800           0
     63116 TIP3     17734    TIP3     OH2      OT      -0.834000       15.9994           0
     63117 TIP3     17734    TIP3     H1       HT       0.417000       1.00800           0
     63118 TIP3     17734    TIP3     H2       HT       0.417000       1.00800           0
     63119 TIP3     17735    TIP3     OH2      OT      -0.834000       15.9994           0
     63120 TIP3     17735    TIP3     H1       HT       0.417000       1.00800           0
     63121 TIP3     17735    TIP3     H2       HT       0.417000       1.00800           0
     63122 TIP3     17736    TIP3     OH2      OT      -0.834000       15.9994           0
     63123 TIP3     17736    TIP3     H1       HT       0.417000       1.00800           0
     63124 TIP3     17736    TIP3     H2       HT       0.417000       1.00800           0
     63125 TIP3     17737    TIP3     OH2      OT      -0.834000       15.9994           0
     63126 TIP3     17737    TIP3     H1       HT       0.417000       1.00800           0
     63127 TIP3     17737    TIP3     H2       HT       0.417000       1.00800           0
     63128 TIP3     17738    TIP3     OH2      OT      -0.834000       15.9994           0
     63129 TIP3     17738    TIP3     H1       HT       0.417000       1.00800           0
     63130 TIP3     17738    TIP3     H2       HT       0.417000       1.00800           0
     63131 TIP3     17739    TIP3     OH2      OT      -0.834000       15.9994           0
     63132 TIP3     17739    TIP3     H1       HT       0.417000       1.00800           0
     63133 TIP3     17739    TIP3     H2       HT       0.417000       1.00800           0
     63134 TIP3     17740    TIP3     OH2      OT      -0.834000       15.9994           0
     63135 TIP3     17740    TIP3     H1       HT       0.417000       1.00800           0
     63136 TIP3     17740    TIP3     H2       HT       0.417000       1.00800           0
     63137 TIP3     17741    TIP3     OH2      OT      -0.834000       15.9994           0
     63138 TIP3     17741    TIP3     H1       HT       0.417000       1.00800           0
     63139 TIP3     17741    TIP3     H2       HT       0.417000       1.00800           0
     63140 TIP3     17742    TIP3     OH2      OT      -0.834000       15.9994           0
     63141 TIP3     17742    TIP3     H1       HT       0.417000       1.00800           0
     63142 TIP3     17742    TIP3     H2       HT       0.417000       1.00800           0
     63143 TIP3     17743    TIP3     OH2      OT      -0.834000       15.9994           0
     63144 TIP3     17743    TIP3     H1       HT       0.417000       1.00800           0
     63145 TIP3     17743    TIP3     H2       HT       0.417000       1.00800           0
     63146 TIP3     17744    TIP3     OH2      OT      -0.834000       15.9994           0
     63147 TIP3     17744    TIP3     H1       HT       0.417000       1.00800           0
     63148 TIP3     17744    TIP3     H2       HT       0.417000       1.00800           0
     63149 TIP3     17745    TIP3     OH2      OT      -0.834000       15.9994           0
     63150 TIP3     17745    TIP3     H1       HT       0.417000       1.00800           0
     63151 TIP3     17745    TIP3     H2       HT       0.417000       1.00800           0
     63152 TIP3     17746    TIP3     OH2      OT      -0.834000       15.9994           0
     63153 TIP3     17746    TIP3     H1       HT       0.417000       1.00800           0
     63154 TIP3     17746    TIP3     H2       HT       0.417000       1.00800           0
     63155 TIP3     17747    TIP3     OH2      OT      -0.834000       15.9994           0
     63156 TIP3     17747    TIP3     H1       HT       0.417000       1.00800           0
     63157 TIP3     17747    TIP3     H2       HT       0.417000       1.00800           0
     63158 TIP3     17748    TIP3     OH2      OT      -0.834000       15.9994           0
     63159 TIP3     17748    TIP3     H1       HT       0.417000       1.00800           0
     63160 TIP3     17748    TIP3     H2       HT       0.417000       1.00800           0
     63161 TIP3     17749    TIP3     OH2      OT      -0.834000       15.9994           0
     63162 TIP3     17749    TIP3     H1       HT       0.417000       1.00800           0
     63163 TIP3     17749    TIP3     H2       HT       0.417000       1.00800           0
     63164 TIP3     17750    TIP3     OH2      OT      -0.834000       15.9994           0
     63165 TIP3     17750    TIP3     H1       HT       0.417000       1.00800           0
     63166 TIP3     17750    TIP3     H2       HT       0.417000       1.00800           0
     63167 TIP3     17751    TIP3     OH2      OT      -0.834000       15.9994           0
     63168 TIP3     17751    TIP3     H1       HT       0.417000       1.00800           0
     63169 TIP3     17751    TIP3     H2       HT       0.417000       1.00800           0
     63170 TIP3     17752    TIP3     OH2      OT      -0.834000       15.9994           0
     63171 TIP3     17752    TIP3     H1       HT       0.417000       1.00800           0
     63172 TIP3     17752    TIP3     H2       HT       0.417000       1.00800           0
     63173 TIP3     17753    TIP3     OH2      OT      -0.834000       15.9994           0
     63174 TIP3     17753    TIP3     H1       HT       0.417000       1.00800           0
     63175 TIP3     17753    TIP3     H2       HT       0.417000       1.00800           0
     63176 TIP3     17754    TIP3     OH2      OT      -0.834000       15.9994           0
     63177 TIP3     17754    TIP3     H1       HT       0.417000       1.00800           0
     63178 TIP3     17754    TIP3     H2       HT       0.417000       1.00800           0
     63179 TIP3     17755    TIP3     OH2      OT      -0.834000       15.9994           0
     63180 TIP3     17755    TIP3     H1       HT       0.417000       1.00800           0
     63181 TIP3     17755    TIP3     H2       HT       0.417000       1.00800           0
     63182 TIP3     17756    TIP3     OH2      OT      -0.834000       15.9994           0
     63183 TIP3     17756    TIP3     H1       HT       0.417000       1.00800           0
     63184 TIP3     17756    TIP3     H2       HT       0.417000       1.00800           0
     63185 TIP3     17757    TIP3     OH2      OT      -0.834000       15.9994           0
     63186 TIP3     17757    TIP3     H1       HT       0.417000       1.00800           0
     63187 TIP3     17757    TIP3     H2       HT       0.417000       1.00800           0
     63188 TIP3     17758    TIP3     OH2      OT      -0.834000       15.9994           0
     63189 TIP3     17758    TIP3     H1       HT       0.417000       1.00800           0
     63190 TIP3     17758    TIP3     H2       HT       0.417000       1.00800           0
     63191 TIP3     17759    TIP3     OH2      OT      -0.834000       15.9994           0
     63192 TIP3     17759    TIP3     H1       HT       0.417000       1.00800           0
     63193 TIP3     17759    TIP3     H2       HT       0.417000       1.00800           0
     63194 TIP3     17760    TIP3     OH2      OT      -0.834000       15.9994           0
     63195 TIP3     17760    TIP3     H1       HT       0.417000       1.00800           0
     63196 TIP3     17760    TIP3     H2       HT       0.417000       1.00800           0
     63197 TIP3     17761    TIP3     OH2      OT      -0.834000       15.9994           0
     63198 TIP3     17761    TIP3     H1       HT       0.417000       1.00800           0
     63199 TIP3     17761    TIP3     H2       HT       0.417000       1.00800           0
     63200 TIP3     17762    TIP3     OH2      OT      -0.834000       15.9994           0
     63201 TIP3     17762    TIP3     H1       HT       0.417000       1.00800           0
     63202 TIP3     17762    TIP3     H2       HT       0.417000       1.00800           0
     63203 TIP3     17763    TIP3     OH2      OT      -0.834000       15.9994           0
     63204 TIP3     17763    TIP3     H1       HT       0.417000       1.00800           0
     63205 TIP3     17763    TIP3     H2       HT       0.417000       1.00800           0
     63206 TIP3     17764    TIP3     OH2      OT      -0.834000       15.9994           0
     63207 TIP3     17764    TIP3     H1       HT       0.417000       1.00800           0
     63208 TIP3     17764    TIP3     H2       HT       0.417000       1.00800           0
     63209 TIP3     17765    TIP3     OH2      OT      -0.834000       15.9994           0
     63210 TIP3     17765    TIP3     H1       HT       0.417000       1.00800           0
     63211 TIP3     17765    TIP3     H2       HT       0.417000       1.00800           0
     63212 TIP3     17766    TIP3     OH2      OT      -0.834000       15.9994           0
     63213 TIP3     17766    TIP3     H1       HT       0.417000       1.00800           0
     63214 TIP3     17766    TIP3     H2       HT       0.417000       1.00800           0
     63215 TIP3     17767    TIP3     OH2      OT      -0.834000       15.9994           0
     63216 TIP3     17767    TIP3     H1       HT       0.417000       1.00800           0
     63217 TIP3     17767    TIP3     H2       HT       0.417000       1.00800           0
     63218 TIP3     17768    TIP3     OH2      OT      -0.834000       15.9994           0
     63219 TIP3     17768    TIP3     H1       HT       0.417000       1.00800           0
     63220 TIP3     17768    TIP3     H2       HT       0.417000       1.00800           0
     63221 TIP3     17769    TIP3     OH2      OT      -0.834000       15.9994           0
     63222 TIP3     17769    TIP3     H1       HT       0.417000       1.00800           0
     63223 TIP3     17769    TIP3     H2       HT       0.417000       1.00800           0
     63224 TIP3     17770    TIP3     OH2      OT      -0.834000       15.9994           0
     63225 TIP3     17770    TIP3     H1       HT       0.417000       1.00800           0
     63226 TIP3     17770    TIP3     H2       HT       0.417000       1.00800           0
     63227 TIP3     17771    TIP3     OH2      OT      -0.834000       15.9994           0
     63228 TIP3     17771    TIP3     H1       HT       0.417000       1.00800           0
     63229 TIP3     17771    TIP3     H2       HT       0.417000       1.00800           0
     63230 TIP3     17772    TIP3     OH2      OT      -0.834000       15.9994           0
     63231 TIP3     17772    TIP3     H1       HT       0.417000       1.00800           0
     63232 TIP3     17772    TIP3     H2       HT       0.417000       1.00800           0
     63233 TIP3     17773    TIP3     OH2      OT      -0.834000       15.9994           0
     63234 TIP3     17773    TIP3     H1       HT       0.417000       1.00800           0
     63235 TIP3     17773    TIP3     H2       HT       0.417000       1.00800           0
     63236 TIP3     17774    TIP3     OH2      OT      -0.834000       15.9994           0
     63237 TIP3     17774    TIP3     H1       HT       0.417000       1.00800           0
     63238 TIP3     17774    TIP3     H2       HT       0.417000       1.00800           0
     63239 TIP3     17775    TIP3     OH2      OT      -0.834000       15.9994           0
     63240 TIP3     17775    TIP3     H1       HT       0.417000       1.00800           0
     63241 TIP3     17775    TIP3     H2       HT       0.417000       1.00800           0
     63242 TIP3     17776    TIP3     OH2      OT      -0.834000       15.9994           0
     63243 TIP3     17776    TIP3     H1       HT       0.417000       1.00800           0
     63244 TIP3     17776    TIP3     H2       HT       0.417000       1.00800           0
     63245 TIP3     17777    TIP3     OH2      OT      -0.834000       15.9994           0
     63246 TIP3     17777    TIP3     H1       HT       0.417000       1.00800           0
     63247 TIP3     17777    TIP3     H2       HT       0.417000       1.00800           0
     63248 TIP3     17778    TIP3     OH2      OT      -0.834000       15.9994           0
     63249 TIP3     17778    TIP3     H1       HT       0.417000       1.00800           0
     63250 TIP3     17778    TIP3     H2       HT       0.417000       1.00800           0
     63251 TIP3     17779    TIP3     OH2      OT      -0.834000       15.9994           0
     63252 TIP3     17779    TIP3     H1       HT       0.417000       1.00800           0
     63253 TIP3     17779    TIP3     H2       HT       0.417000       1.00800           0
     63254 TIP3     17780    TIP3     OH2      OT      -0.834000       15.9994           0
     63255 TIP3     17780    TIP3     H1       HT       0.417000       1.00800           0
     63256 TIP3     17780    TIP3     H2       HT       0.417000       1.00800           0
     63257 TIP3     17781    TIP3     OH2      OT      -0.834000       15.9994           0
     63258 TIP3     17781    TIP3     H1       HT       0.417000       1.00800           0
     63259 TIP3     17781    TIP3     H2       HT       0.417000       1.00800           0
     63260 TIP3     17782    TIP3     OH2      OT      -0.834000       15.9994           0
     63261 TIP3     17782    TIP3     H1       HT       0.417000       1.00800           0
     63262 TIP3     17782    TIP3     H2       HT       0.417000       1.00800           0
     63263 TIP3     17783    TIP3     OH2      OT      -0.834000       15.9994           0
     63264 TIP3     17783    TIP3     H1       HT       0.417000       1.00800           0
     63265 TIP3     17783    TIP3     H2       HT       0.417000       1.00800           0
     63266 TIP3     17784    TIP3     OH2      OT      -0.834000       15.9994           0
     63267 TIP3     17784    TIP3     H1       HT       0.417000       1.00800           0
     63268 TIP3     17784    TIP3     H2       HT       0.417000       1.00800           0
     63269 TIP3     17785    TIP3     OH2      OT      -0.834000       15.9994           0
     63270 TIP3     17785    TIP3     H1       HT       0.417000       1.00800           0
     63271 TIP3     17785    TIP3     H2       HT       0.417000       1.00800           0
     63272 TIP3     17786    TIP3     OH2      OT      -0.834000       15.9994           0
     63273 TIP3     17786    TIP3     H1       HT       0.417000       1.00800           0
     63274 TIP3     17786    TIP3     H2       HT       0.417000       1.00800           0
     63275 TIP3     17787    TIP3     OH2      OT      -0.834000       15.9994           0
     63276 TIP3     17787    TIP3     H1       HT       0.417000       1.00800           0
     63277 TIP3     17787    TIP3     H2       HT       0.417000       1.00800           0
     63278 TIP3     17788    TIP3     OH2      OT      -0.834000       15.9994           0
     63279 TIP3     17788    TIP3     H1       HT       0.417000       1.00800           0
     63280 TIP3     17788    TIP3     H2       HT       0.417000       1.00800           0
     63281 TIP3     17789    TIP3     OH2      OT      -0.834000       15.9994           0
     63282 TIP3     17789    TIP3     H1       HT       0.417000       1.00800           0
     63283 TIP3     17789    TIP3     H2       HT       0.417000       1.00800           0
     63284 TIP3     17790    TIP3     OH2      OT      -0.834000       15.9994           0
     63285 TIP3     17790    TIP3     H1       HT       0.417000       1.00800           0
     63286 TIP3     17790    TIP3     H2       HT       0.417000       1.00800           0
     63287 TIP3     17791    TIP3     OH2      OT      -0.834000       15.9994           0
     63288 TIP3     17791    TIP3     H1       HT       0.417000       1.00800           0
     63289 TIP3     17791    TIP3     H2       HT       0.417000       1.00800           0
     63290 TIP3     17792    TIP3     OH2      OT      -0.834000       15.9994           0
     63291 TIP3     17792    TIP3     H1       HT       0.417000       1.00800           0
     63292 TIP3     17792    TIP3     H2       HT       0.417000       1.00800           0
     63293 TIP3     17793    TIP3     OH2      OT      -0.834000       15.9994           0
     63294 TIP3     17793    TIP3     H1       HT       0.417000       1.00800           0
     63295 TIP3     17793    TIP3     H2       HT       0.417000       1.00800           0
     63296 TIP3     17794    TIP3     OH2      OT      -0.834000       15.9994           0
     63297 TIP3     17794    TIP3     H1       HT       0.417000       1.00800           0
     63298 TIP3     17794    TIP3     H2       HT       0.417000       1.00800           0
     63299 TIP3     17795    TIP3     OH2      OT      -0.834000       15.9994           0
     63300 TIP3     17795    TIP3     H1       HT       0.417000       1.00800           0
     63301 TIP3     17795    TIP3     H2       HT       0.417000       1.00800           0
     63302 TIP3     17796    TIP3     OH2      OT      -0.834000       15.9994           0
     63303 TIP3     17796    TIP3     H1       HT       0.417000       1.00800           0
     63304 TIP3     17796    TIP3     H2       HT       0.417000       1.00800           0
     63305 TIP3     17797    TIP3     OH2      OT      -0.834000       15.9994           0
     63306 TIP3     17797    TIP3     H1       HT       0.417000       1.00800           0
     63307 TIP3     17797    TIP3     H2       HT       0.417000       1.00800           0
     63308 TIP3     17798    TIP3     OH2      OT      -0.834000       15.9994           0
     63309 TIP3     17798    TIP3     H1       HT       0.417000       1.00800           0
     63310 TIP3     17798    TIP3     H2       HT       0.417000       1.00800           0
     63311 TIP3     17799    TIP3     OH2      OT      -0.834000       15.9994           0
     63312 TIP3     17799    TIP3     H1       HT       0.417000       1.00800           0
     63313 TIP3     17799    TIP3     H2       HT       0.417000       1.00800           0
     63314 TIP3     17800    TIP3     OH2      OT      -0.834000       15.9994           0
     63315 TIP3     17800    TIP3     H1       HT       0.417000       1.00800           0
     63316 TIP3     17800    TIP3     H2       HT       0.417000       1.00800           0
     63317 TIP3     17801    TIP3     OH2      OT      -0.834000       15.9994           0
     63318 TIP3     17801    TIP3     H1       HT       0.417000       1.00800           0
     63319 TIP3     17801    TIP3     H2       HT       0.417000       1.00800           0
     63320 TIP3     17802    TIP3     OH2      OT      -0.834000       15.9994           0
     63321 TIP3     17802    TIP3     H1       HT       0.417000       1.00800           0
     63322 TIP3     17802    TIP3     H2       HT       0.417000       1.00800           0
     63323 TIP3     17803    TIP3     OH2      OT      -0.834000       15.9994           0
     63324 TIP3     17803    TIP3     H1       HT       0.417000       1.00800           0
     63325 TIP3     17803    TIP3     H2       HT       0.417000       1.00800           0
     63326 TIP3     17804    TIP3     OH2      OT      -0.834000       15.9994           0
     63327 TIP3     17804    TIP3     H1       HT       0.417000       1.00800           0
     63328 TIP3     17804    TIP3     H2       HT       0.417000       1.00800           0
     63329 TIP3     17805    TIP3     OH2      OT      -0.834000       15.9994           0
     63330 TIP3     17805    TIP3     H1       HT       0.417000       1.00800           0
     63331 TIP3     17805    TIP3     H2       HT       0.417000       1.00800           0
     63332 TIP3     17806    TIP3     OH2      OT      -0.834000       15.9994           0
     63333 TIP3     17806    TIP3     H1       HT       0.417000       1.00800           0
     63334 TIP3     17806    TIP3     H2       HT       0.417000       1.00800           0
     63335 TIP3     17807    TIP3     OH2      OT      -0.834000       15.9994           0
     63336 TIP3     17807    TIP3     H1       HT       0.417000       1.00800           0
     63337 TIP3     17807    TIP3     H2       HT       0.417000       1.00800           0
     63338 TIP3     17808    TIP3     OH2      OT      -0.834000       15.9994           0
     63339 TIP3     17808    TIP3     H1       HT       0.417000       1.00800           0
     63340 TIP3     17808    TIP3     H2       HT       0.417000       1.00800           0
     63341 TIP3     17809    TIP3     OH2      OT      -0.834000       15.9994           0
     63342 TIP3     17809    TIP3     H1       HT       0.417000       1.00800           0
     63343 TIP3     17809    TIP3     H2       HT       0.417000       1.00800           0
     63344 TIP3     17810    TIP3     OH2      OT      -0.834000       15.9994           0
     63345 TIP3     17810    TIP3     H1       HT       0.417000       1.00800           0
     63346 TIP3     17810    TIP3     H2       HT       0.417000       1.00800           0
     63347 TIP3     17811    TIP3     OH2      OT      -0.834000       15.9994           0
     63348 TIP3     17811    TIP3     H1       HT       0.417000       1.00800           0
     63349 TIP3     17811    TIP3     H2       HT       0.417000       1.00800           0
     63350 TIP3     17812    TIP3     OH2      OT      -0.834000       15.9994           0
     63351 TIP3     17812    TIP3     H1       HT       0.417000       1.00800           0
     63352 TIP3     17812    TIP3     H2       HT       0.417000       1.00800           0
     63353 TIP3     17813    TIP3     OH2      OT      -0.834000       15.9994           0
     63354 TIP3     17813    TIP3     H1       HT       0.417000       1.00800           0
     63355 TIP3     17813    TIP3     H2       HT       0.417000       1.00800           0
     63356 TIP3     17814    TIP3     OH2      OT      -0.834000       15.9994           0
     63357 TIP3     17814    TIP3     H1       HT       0.417000       1.00800           0
     63358 TIP3     17814    TIP3     H2       HT       0.417000       1.00800           0
     63359 TIP3     17815    TIP3     OH2      OT      -0.834000       15.9994           0
     63360 TIP3     17815    TIP3     H1       HT       0.417000       1.00800           0
     63361 TIP3     17815    TIP3     H2       HT       0.417000       1.00800           0
     63362 TIP3     17816    TIP3     OH2      OT      -0.834000       15.9994           0
     63363 TIP3     17816    TIP3     H1       HT       0.417000       1.00800           0
     63364 TIP3     17816    TIP3     H2       HT       0.417000       1.00800           0
     63365 TIP3     17817    TIP3     OH2      OT      -0.834000       15.9994           0
     63366 TIP3     17817    TIP3     H1       HT       0.417000       1.00800           0
     63367 TIP3     17817    TIP3     H2       HT       0.417000       1.00800           0
     63368 TIP3     17818    TIP3     OH2      OT      -0.834000       15.9994           0
     63369 TIP3     17818    TIP3     H1       HT       0.417000       1.00800           0
     63370 TIP3     17818    TIP3     H2       HT       0.417000       1.00800           0
     63371 TIP3     17819    TIP3     OH2      OT      -0.834000       15.9994           0
     63372 TIP3     17819    TIP3     H1       HT       0.417000       1.00800           0
     63373 TIP3     17819    TIP3     H2       HT       0.417000       1.00800           0
     63374 TIP3     17820    TIP3     OH2      OT      -0.834000       15.9994           0
     63375 TIP3     17820    TIP3     H1       HT       0.417000       1.00800           0
     63376 TIP3     17820    TIP3     H2       HT       0.417000       1.00800           0
     63377 TIP3     17821    TIP3     OH2      OT      -0.834000       15.9994           0
     63378 TIP3     17821    TIP3     H1       HT       0.417000       1.00800           0
     63379 TIP3     17821    TIP3     H2       HT       0.417000       1.00800           0
     63380 TIP3     17822    TIP3     OH2      OT      -0.834000       15.9994           0
     63381 TIP3     17822    TIP3     H1       HT       0.417000       1.00800           0
     63382 TIP3     17822    TIP3     H2       HT       0.417000       1.00800           0
     63383 TIP3     17823    TIP3     OH2      OT      -0.834000       15.9994           0
     63384 TIP3     17823    TIP3     H1       HT       0.417000       1.00800           0
     63385 TIP3     17823    TIP3     H2       HT       0.417000       1.00800           0
     63386 TIP3     17824    TIP3     OH2      OT      -0.834000       15.9994           0
     63387 TIP3     17824    TIP3     H1       HT       0.417000       1.00800           0
     63388 TIP3     17824    TIP3     H2       HT       0.417000       1.00800           0
     63389 TIP3     17825    TIP3     OH2      OT      -0.834000       15.9994           0
     63390 TIP3     17825    TIP3     H1       HT       0.417000       1.00800           0
     63391 TIP3     17825    TIP3     H2       HT       0.417000       1.00800           0
     63392 TIP3     17826    TIP3     OH2      OT      -0.834000       15.9994           0
     63393 TIP3     17826    TIP3     H1       HT       0.417000       1.00800           0
     63394 TIP3     17826    TIP3     H2       HT       0.417000       1.00800           0
     63395 TIP3     17827    TIP3     OH2      OT      -0.834000       15.9994           0
     63396 TIP3     17827    TIP3     H1       HT       0.417000       1.00800           0
     63397 TIP3     17827    TIP3     H2       HT       0.417000       1.00800           0
     63398 TIP3     17828    TIP3     OH2      OT      -0.834000       15.9994           0
     63399 TIP3     17828    TIP3     H1       HT       0.417000       1.00800           0
     63400 TIP3     17828    TIP3     H2       HT       0.417000       1.00800           0
     63401 TIP3     17829    TIP3     OH2      OT      -0.834000       15.9994           0
     63402 TIP3     17829    TIP3     H1       HT       0.417000       1.00800           0
     63403 TIP3     17829    TIP3     H2       HT       0.417000       1.00800           0
     63404 TIP3     17830    TIP3     OH2      OT      -0.834000       15.9994           0
     63405 TIP3     17830    TIP3     H1       HT       0.417000       1.00800           0
     63406 TIP3     17830    TIP3     H2       HT       0.417000       1.00800           0
     63407 TIP3     17831    TIP3     OH2      OT      -0.834000       15.9994           0
     63408 TIP3     17831    TIP3     H1       HT       0.417000       1.00800           0
     63409 TIP3     17831    TIP3     H2       HT       0.417000       1.00800           0
     63410 TIP3     17832    TIP3     OH2      OT      -0.834000       15.9994           0
     63411 TIP3     17832    TIP3     H1       HT       0.417000       1.00800           0
     63412 TIP3     17832    TIP3     H2       HT       0.417000       1.00800           0
     63413 TIP3     17833    TIP3     OH2      OT      -0.834000       15.9994           0
     63414 TIP3     17833    TIP3     H1       HT       0.417000       1.00800           0
     63415 TIP3     17833    TIP3     H2       HT       0.417000       1.00800           0
     63416 TIP3     17834    TIP3     OH2      OT      -0.834000       15.9994           0
     63417 TIP3     17834    TIP3     H1       HT       0.417000       1.00800           0
     63418 TIP3     17834    TIP3     H2       HT       0.417000       1.00800           0
     63419 TIP3     17835    TIP3     OH2      OT      -0.834000       15.9994           0
     63420 TIP3     17835    TIP3     H1       HT       0.417000       1.00800           0
     63421 TIP3     17835    TIP3     H2       HT       0.417000       1.00800           0
     63422 TIP3     17836    TIP3     OH2      OT      -0.834000       15.9994           0
     63423 TIP3     17836    TIP3     H1       HT       0.417000       1.00800           0
     63424 TIP3     17836    TIP3     H2       HT       0.417000       1.00800           0
     63425 TIP3     17837    TIP3     OH2      OT      -0.834000       15.9994           0
     63426 TIP3     17837    TIP3     H1       HT       0.417000       1.00800           0
     63427 TIP3     17837    TIP3     H2       HT       0.417000       1.00800           0
     63428 TIP3     17838    TIP3     OH2      OT      -0.834000       15.9994           0
     63429 TIP3     17838    TIP3     H1       HT       0.417000       1.00800           0
     63430 TIP3     17838    TIP3     H2       HT       0.417000       1.00800           0
     63431 TIP3     17839    TIP3     OH2      OT      -0.834000       15.9994           0
     63432 TIP3     17839    TIP3     H1       HT       0.417000       1.00800           0
     63433 TIP3     17839    TIP3     H2       HT       0.417000       1.00800           0
     63434 TIP3     17840    TIP3     OH2      OT      -0.834000       15.9994           0
     63435 TIP3     17840    TIP3     H1       HT       0.417000       1.00800           0
     63436 TIP3     17840    TIP3     H2       HT       0.417000       1.00800           0
     63437 TIP3     17841    TIP3     OH2      OT      -0.834000       15.9994           0
     63438 TIP3     17841    TIP3     H1       HT       0.417000       1.00800           0
     63439 TIP3     17841    TIP3     H2       HT       0.417000       1.00800           0
     63440 TIP3     17842    TIP3     OH2      OT      -0.834000       15.9994           0
     63441 TIP3     17842    TIP3     H1       HT       0.417000       1.00800           0
     63442 TIP3     17842    TIP3     H2       HT       0.417000       1.00800           0
     63443 TIP3     17843    TIP3     OH2      OT      -0.834000       15.9994           0
     63444 TIP3     17843    TIP3     H1       HT       0.417000       1.00800           0
     63445 TIP3     17843    TIP3     H2       HT       0.417000       1.00800           0
     63446 TIP3     17844    TIP3     OH2      OT      -0.834000       15.9994           0
     63447 TIP3     17844    TIP3     H1       HT       0.417000       1.00800           0
     63448 TIP3     17844    TIP3     H2       HT       0.417000       1.00800           0
     63449 TIP3     17845    TIP3     OH2      OT      -0.834000       15.9994           0
     63450 TIP3     17845    TIP3     H1       HT       0.417000       1.00800           0
     63451 TIP3     17845    TIP3     H2       HT       0.417000       1.00800           0
     63452 TIP3     17846    TIP3     OH2      OT      -0.834000       15.9994           0
     63453 TIP3     17846    TIP3     H1       HT       0.417000       1.00800           0
     63454 TIP3     17846    TIP3     H2       HT       0.417000       1.00800           0
     63455 TIP3     17847    TIP3     OH2      OT      -0.834000       15.9994           0
     63456 TIP3     17847    TIP3     H1       HT       0.417000       1.00800           0
     63457 TIP3     17847    TIP3     H2       HT       0.417000       1.00800           0
     63458 TIP3     17848    TIP3     OH2      OT      -0.834000       15.9994           0
     63459 TIP3     17848    TIP3     H1       HT       0.417000       1.00800           0
     63460 TIP3     17848    TIP3     H2       HT       0.417000       1.00800           0
     63461 TIP3     17849    TIP3     OH2      OT      -0.834000       15.9994           0
     63462 TIP3     17849    TIP3     H1       HT       0.417000       1.00800           0
     63463 TIP3     17849    TIP3     H2       HT       0.417000       1.00800           0
     63464 TIP3     17850    TIP3     OH2      OT      -0.834000       15.9994           0
     63465 TIP3     17850    TIP3     H1       HT       0.417000       1.00800           0
     63466 TIP3     17850    TIP3     H2       HT       0.417000       1.00800           0
     63467 TIP3     17851    TIP3     OH2      OT      -0.834000       15.9994           0
     63468 TIP3     17851    TIP3     H1       HT       0.417000       1.00800           0
     63469 TIP3     17851    TIP3     H2       HT       0.417000       1.00800           0
     63470 TIP3     17852    TIP3     OH2      OT      -0.834000       15.9994           0
     63471 TIP3     17852    TIP3     H1       HT       0.417000       1.00800           0
     63472 TIP3     17852    TIP3     H2       HT       0.417000       1.00800           0
     63473 TIP3     17853    TIP3     OH2      OT      -0.834000       15.9994           0
     63474 TIP3     17853    TIP3     H1       HT       0.417000       1.00800           0
     63475 TIP3     17853    TIP3     H2       HT       0.417000       1.00800           0
     63476 TIP3     17854    TIP3     OH2      OT      -0.834000       15.9994           0
     63477 TIP3     17854    TIP3     H1       HT       0.417000       1.00800           0
     63478 TIP3     17854    TIP3     H2       HT       0.417000       1.00800           0
     63479 TIP3     17855    TIP3     OH2      OT      -0.834000       15.9994           0
     63480 TIP3     17855    TIP3     H1       HT       0.417000       1.00800           0
     63481 TIP3     17855    TIP3     H2       HT       0.417000       1.00800           0
     63482 TIP3     17856    TIP3     OH2      OT      -0.834000       15.9994           0
     63483 TIP3     17856    TIP3     H1       HT       0.417000       1.00800           0
     63484 TIP3     17856    TIP3     H2       HT       0.417000       1.00800           0
     63485 TIP3     17857    TIP3     OH2      OT      -0.834000       15.9994           0
     63486 TIP3     17857    TIP3     H1       HT       0.417000       1.00800           0
     63487 TIP3     17857    TIP3     H2       HT       0.417000       1.00800           0
     63488 TIP3     17858    TIP3     OH2      OT      -0.834000       15.9994           0
     63489 TIP3     17858    TIP3     H1       HT       0.417000       1.00800           0
     63490 TIP3     17858    TIP3     H2       HT       0.417000       1.00800           0
     63491 TIP3     17859    TIP3     OH2      OT      -0.834000       15.9994           0
     63492 TIP3     17859    TIP3     H1       HT       0.417000       1.00800           0
     63493 TIP3     17859    TIP3     H2       HT       0.417000       1.00800           0
     63494 TIP3     17860    TIP3     OH2      OT      -0.834000       15.9994           0
     63495 TIP3     17860    TIP3     H1       HT       0.417000       1.00800           0
     63496 TIP3     17860    TIP3     H2       HT       0.417000       1.00800           0
     63497 TIP3     17861    TIP3     OH2      OT      -0.834000       15.9994           0
     63498 TIP3     17861    TIP3     H1       HT       0.417000       1.00800           0
     63499 TIP3     17861    TIP3     H2       HT       0.417000       1.00800           0
     63500 TIP3     17862    TIP3     OH2      OT      -0.834000       15.9994           0
     63501 TIP3     17862    TIP3     H1       HT       0.417000       1.00800           0
     63502 TIP3     17862    TIP3     H2       HT       0.417000       1.00800           0
     63503 TIP3     17863    TIP3     OH2      OT      -0.834000       15.9994           0
     63504 TIP3     17863    TIP3     H1       HT       0.417000       1.00800           0
     63505 TIP3     17863    TIP3     H2       HT       0.417000       1.00800           0
     63506 TIP3     17864    TIP3     OH2      OT      -0.834000       15.9994           0
     63507 TIP3     17864    TIP3     H1       HT       0.417000       1.00800           0
     63508 TIP3     17864    TIP3     H2       HT       0.417000       1.00800           0
     63509 TIP3     17865    TIP3     OH2      OT      -0.834000       15.9994           0
     63510 TIP3     17865    TIP3     H1       HT       0.417000       1.00800           0
     63511 TIP3     17865    TIP3     H2       HT       0.417000       1.00800           0
     63512 TIP3     17866    TIP3     OH2      OT      -0.834000       15.9994           0
     63513 TIP3     17866    TIP3     H1       HT       0.417000       1.00800           0
     63514 TIP3     17866    TIP3     H2       HT       0.417000       1.00800           0
     63515 TIP3     17867    TIP3     OH2      OT      -0.834000       15.9994           0
     63516 TIP3     17867    TIP3     H1       HT       0.417000       1.00800           0
     63517 TIP3     17867    TIP3     H2       HT       0.417000       1.00800           0
     63518 TIP3     17868    TIP3     OH2      OT      -0.834000       15.9994           0
     63519 TIP3     17868    TIP3     H1       HT       0.417000       1.00800           0
     63520 TIP3     17868    TIP3     H2       HT       0.417000       1.00800           0
     63521 TIP3     17869    TIP3     OH2      OT      -0.834000       15.9994           0
     63522 TIP3     17869    TIP3     H1       HT       0.417000       1.00800           0
     63523 TIP3     17869    TIP3     H2       HT       0.417000       1.00800           0
     63524 TIP3     17870    TIP3     OH2      OT      -0.834000       15.9994           0
     63525 TIP3     17870    TIP3     H1       HT       0.417000       1.00800           0
     63526 TIP3     17870    TIP3     H2       HT       0.417000       1.00800           0
     63527 TIP3     17871    TIP3     OH2      OT      -0.834000       15.9994           0
     63528 TIP3     17871    TIP3     H1       HT       0.417000       1.00800           0
     63529 TIP3     17871    TIP3     H2       HT       0.417000       1.00800           0
     63530 TIP3     17872    TIP3     OH2      OT      -0.834000       15.9994           0
     63531 TIP3     17872    TIP3     H1       HT       0.417000       1.00800           0
     63532 TIP3     17872    TIP3     H2       HT       0.417000       1.00800           0
     63533 TIP3     17873    TIP3     OH2      OT      -0.834000       15.9994           0
     63534 TIP3     17873    TIP3     H1       HT       0.417000       1.00800           0
     63535 TIP3     17873    TIP3     H2       HT       0.417000       1.00800           0
     63536 TIP3     17874    TIP3     OH2      OT      -0.834000       15.9994           0
     63537 TIP3     17874    TIP3     H1       HT       0.417000       1.00800           0
     63538 TIP3     17874    TIP3     H2       HT       0.417000       1.00800           0
     63539 TIP3     17875    TIP3     OH2      OT      -0.834000       15.9994           0
     63540 TIP3     17875    TIP3     H1       HT       0.417000       1.00800           0
     63541 TIP3     17875    TIP3     H2       HT       0.417000       1.00800           0
     63542 TIP3     17876    TIP3     OH2      OT      -0.834000       15.9994           0
     63543 TIP3     17876    TIP3     H1       HT       0.417000       1.00800           0
     63544 TIP3     17876    TIP3     H2       HT       0.417000       1.00800           0
     63545 TIP3     17877    TIP3     OH2      OT      -0.834000       15.9994           0
     63546 TIP3     17877    TIP3     H1       HT       0.417000       1.00800           0
     63547 TIP3     17877    TIP3     H2       HT       0.417000       1.00800           0
     63548 TIP3     17878    TIP3     OH2      OT      -0.834000       15.9994           0
     63549 TIP3     17878    TIP3     H1       HT       0.417000       1.00800           0
     63550 TIP3     17878    TIP3     H2       HT       0.417000       1.00800           0
     63551 TIP3     17879    TIP3     OH2      OT      -0.834000       15.9994           0
     63552 TIP3     17879    TIP3     H1       HT       0.417000       1.00800           0
     63553 TIP3     17879    TIP3     H2       HT       0.417000       1.00800           0
     63554 TIP3     17880    TIP3     OH2      OT      -0.834000       15.9994           0
     63555 TIP3     17880    TIP3     H1       HT       0.417000       1.00800           0
     63556 TIP3     17880    TIP3     H2       HT       0.417000       1.00800           0
     63557 TIP3     17881    TIP3     OH2      OT      -0.834000       15.9994           0
     63558 TIP3     17881    TIP3     H1       HT       0.417000       1.00800           0
     63559 TIP3     17881    TIP3     H2       HT       0.417000       1.00800           0
     63560 TIP3     17882    TIP3     OH2      OT      -0.834000       15.9994           0
     63561 TIP3     17882    TIP3     H1       HT       0.417000       1.00800           0
     63562 TIP3     17882    TIP3     H2       HT       0.417000       1.00800           0
     63563 TIP3     17883    TIP3     OH2      OT      -0.834000       15.9994           0
     63564 TIP3     17883    TIP3     H1       HT       0.417000       1.00800           0
     63565 TIP3     17883    TIP3     H2       HT       0.417000       1.00800           0
     63566 TIP3     17884    TIP3     OH2      OT      -0.834000       15.9994           0
     63567 TIP3     17884    TIP3     H1       HT       0.417000       1.00800           0
     63568 TIP3     17884    TIP3     H2       HT       0.417000       1.00800           0
     63569 TIP3     17885    TIP3     OH2      OT      -0.834000       15.9994           0
     63570 TIP3     17885    TIP3     H1       HT       0.417000       1.00800           0
     63571 TIP3     17885    TIP3     H2       HT       0.417000       1.00800           0
     63572 TIP3     17886    TIP3     OH2      OT      -0.834000       15.9994           0
     63573 TIP3     17886    TIP3     H1       HT       0.417000       1.00800           0
     63574 TIP3     17886    TIP3     H2       HT       0.417000       1.00800           0
     63575 TIP3     17887    TIP3     OH2      OT      -0.834000       15.9994           0
     63576 TIP3     17887    TIP3     H1       HT       0.417000       1.00800           0
     63577 TIP3     17887    TIP3     H2       HT       0.417000       1.00800           0
     63578 TIP3     17888    TIP3     OH2      OT      -0.834000       15.9994           0
     63579 TIP3     17888    TIP3     H1       HT       0.417000       1.00800           0
     63580 TIP3     17888    TIP3     H2       HT       0.417000       1.00800           0
     63581 TIP3     17889    TIP3     OH2      OT      -0.834000       15.9994           0
     63582 TIP3     17889    TIP3     H1       HT       0.417000       1.00800           0
     63583 TIP3     17889    TIP3     H2       HT       0.417000       1.00800           0
     63584 TIP3     17890    TIP3     OH2      OT      -0.834000       15.9994           0
     63585 TIP3     17890    TIP3     H1       HT       0.417000       1.00800           0
     63586 TIP3     17890    TIP3     H2       HT       0.417000       1.00800           0
     63587 TIP3     17891    TIP3     OH2      OT      -0.834000       15.9994           0
     63588 TIP3     17891    TIP3     H1       HT       0.417000       1.00800           0
     63589 TIP3     17891    TIP3     H2       HT       0.417000       1.00800           0
     63590 TIP3     17892    TIP3     OH2      OT      -0.834000       15.9994           0
     63591 TIP3     17892    TIP3     H1       HT       0.417000       1.00800           0
     63592 TIP3     17892    TIP3     H2       HT       0.417000       1.00800           0
     63593 TIP3     17893    TIP3     OH2      OT      -0.834000       15.9994           0
     63594 TIP3     17893    TIP3     H1       HT       0.417000       1.00800           0
     63595 TIP3     17893    TIP3     H2       HT       0.417000       1.00800           0
     63596 TIP3     17894    TIP3     OH2      OT      -0.834000       15.9994           0
     63597 TIP3     17894    TIP3     H1       HT       0.417000       1.00800           0
     63598 TIP3     17894    TIP3     H2       HT       0.417000       1.00800           0
     63599 TIP3     17895    TIP3     OH2      OT      -0.834000       15.9994           0
     63600 TIP3     17895    TIP3     H1       HT       0.417000       1.00800           0
     63601 TIP3     17895    TIP3     H2       HT       0.417000       1.00800           0
     63602 TIP3     17896    TIP3     OH2      OT      -0.834000       15.9994           0
     63603 TIP3     17896    TIP3     H1       HT       0.417000       1.00800           0
     63604 TIP3     17896    TIP3     H2       HT       0.417000       1.00800           0
     63605 TIP3     17897    TIP3     OH2      OT      -0.834000       15.9994           0
     63606 TIP3     17897    TIP3     H1       HT       0.417000       1.00800           0
     63607 TIP3     17897    TIP3     H2       HT       0.417000       1.00800           0
     63608 TIP3     17898    TIP3     OH2      OT      -0.834000       15.9994           0
     63609 TIP3     17898    TIP3     H1       HT       0.417000       1.00800           0
     63610 TIP3     17898    TIP3     H2       HT       0.417000       1.00800           0
     63611 TIP3     17899    TIP3     OH2      OT      -0.834000       15.9994           0
     63612 TIP3     17899    TIP3     H1       HT       0.417000       1.00800           0
     63613 TIP3     17899    TIP3     H2       HT       0.417000       1.00800           0
     63614 TIP3     17900    TIP3     OH2      OT      -0.834000       15.9994           0
     63615 TIP3     17900    TIP3     H1       HT       0.417000       1.00800           0
     63616 TIP3     17900    TIP3     H2       HT       0.417000       1.00800           0
     63617 TIP3     17901    TIP3     OH2      OT      -0.834000       15.9994           0
     63618 TIP3     17901    TIP3     H1       HT       0.417000       1.00800           0
     63619 TIP3     17901    TIP3     H2       HT       0.417000       1.00800           0
     63620 TIP3     17902    TIP3     OH2      OT      -0.834000       15.9994           0
     63621 TIP3     17902    TIP3     H1       HT       0.417000       1.00800           0
     63622 TIP3     17902    TIP3     H2       HT       0.417000       1.00800           0
     63623 TIP3     17903    TIP3     OH2      OT      -0.834000       15.9994           0
     63624 TIP3     17903    TIP3     H1       HT       0.417000       1.00800           0
     63625 TIP3     17903    TIP3     H2       HT       0.417000       1.00800           0
     63626 TIP3     17904    TIP3     OH2      OT      -0.834000       15.9994           0
     63627 TIP3     17904    TIP3     H1       HT       0.417000       1.00800           0
     63628 TIP3     17904    TIP3     H2       HT       0.417000       1.00800           0
     63629 TIP3     17905    TIP3     OH2      OT      -0.834000       15.9994           0
     63630 TIP3     17905    TIP3     H1       HT       0.417000       1.00800           0
     63631 TIP3     17905    TIP3     H2       HT       0.417000       1.00800           0
     63632 TIP3     17906    TIP3     OH2      OT      -0.834000       15.9994           0
     63633 TIP3     17906    TIP3     H1       HT       0.417000       1.00800           0
     63634 TIP3     17906    TIP3     H2       HT       0.417000       1.00800           0
     63635 TIP3     17907    TIP3     OH2      OT      -0.834000       15.9994           0
     63636 TIP3     17907    TIP3     H1       HT       0.417000       1.00800           0
     63637 TIP3     17907    TIP3     H2       HT       0.417000       1.00800           0
     63638 TIP3     17908    TIP3     OH2      OT      -0.834000       15.9994           0
     63639 TIP3     17908    TIP3     H1       HT       0.417000       1.00800           0
     63640 TIP3     17908    TIP3     H2       HT       0.417000       1.00800           0
     63641 TIP3     17909    TIP3     OH2      OT      -0.834000       15.9994           0
     63642 TIP3     17909    TIP3     H1       HT       0.417000       1.00800           0
     63643 TIP3     17909    TIP3     H2       HT       0.417000       1.00800           0
     63644 TIP3     17910    TIP3     OH2      OT      -0.834000       15.9994           0
     63645 TIP3     17910    TIP3     H1       HT       0.417000       1.00800           0
     63646 TIP3     17910    TIP3     H2       HT       0.417000       1.00800           0
     63647 TIP3     17911    TIP3     OH2      OT      -0.834000       15.9994           0
     63648 TIP3     17911    TIP3     H1       HT       0.417000       1.00800           0
     63649 TIP3     17911    TIP3     H2       HT       0.417000       1.00800           0
     63650 TIP3     17912    TIP3     OH2      OT      -0.834000       15.9994           0
     63651 TIP3     17912    TIP3     H1       HT       0.417000       1.00800           0
     63652 TIP3     17912    TIP3     H2       HT       0.417000       1.00800           0
     63653 TIP3     17913    TIP3     OH2      OT      -0.834000       15.9994           0
     63654 TIP3     17913    TIP3     H1       HT       0.417000       1.00800           0
     63655 TIP3     17913    TIP3     H2       HT       0.417000       1.00800           0
     63656 TIP3     17914    TIP3     OH2      OT      -0.834000       15.9994           0
     63657 TIP3     17914    TIP3     H1       HT       0.417000       1.00800           0
     63658 TIP3     17914    TIP3     H2       HT       0.417000       1.00800           0
     63659 TIP3     17915    TIP3     OH2      OT      -0.834000       15.9994           0
     63660 TIP3     17915    TIP3     H1       HT       0.417000       1.00800           0
     63661 TIP3     17915    TIP3     H2       HT       0.417000       1.00800           0
     63662 TIP3     17916    TIP3     OH2      OT      -0.834000       15.9994           0
     63663 TIP3     17916    TIP3     H1       HT       0.417000       1.00800           0
     63664 TIP3     17916    TIP3     H2       HT       0.417000       1.00800           0
     63665 TIP3     17917    TIP3     OH2      OT      -0.834000       15.9994           0
     63666 TIP3     17917    TIP3     H1       HT       0.417000       1.00800           0
     63667 TIP3     17917    TIP3     H2       HT       0.417000       1.00800           0
     63668 TIP3     17918    TIP3     OH2      OT      -0.834000       15.9994           0
     63669 TIP3     17918    TIP3     H1       HT       0.417000       1.00800           0
     63670 TIP3     17918    TIP3     H2       HT       0.417000       1.00800           0
     63671 TIP3     17919    TIP3     OH2      OT      -0.834000       15.9994           0
     63672 TIP3     17919    TIP3     H1       HT       0.417000       1.00800           0
     63673 TIP3     17919    TIP3     H2       HT       0.417000       1.00800           0
     63674 TIP3     17920    TIP3     OH2      OT      -0.834000       15.9994           0
     63675 TIP3     17920    TIP3     H1       HT       0.417000       1.00800           0
     63676 TIP3     17920    TIP3     H2       HT       0.417000       1.00800           0
     63677 TIP3     17921    TIP3     OH2      OT      -0.834000       15.9994           0
     63678 TIP3     17921    TIP3     H1       HT       0.417000       1.00800           0
     63679 TIP3     17921    TIP3     H2       HT       0.417000       1.00800           0
     63680 TIP3     17922    TIP3     OH2      OT      -0.834000       15.9994           0
     63681 TIP3     17922    TIP3     H1       HT       0.417000       1.00800           0
     63682 TIP3     17922    TIP3     H2       HT       0.417000       1.00800           0
     63683 TIP3     17923    TIP3     OH2      OT      -0.834000       15.9994           0
     63684 TIP3     17923    TIP3     H1       HT       0.417000       1.00800           0
     63685 TIP3     17923    TIP3     H2       HT       0.417000       1.00800           0
     63686 TIP3     17924    TIP3     OH2      OT      -0.834000       15.9994           0
     63687 TIP3     17924    TIP3     H1       HT       0.417000       1.00800           0
     63688 TIP3     17924    TIP3     H2       HT       0.417000       1.00800           0
     63689 TIP3     17925    TIP3     OH2      OT      -0.834000       15.9994           0
     63690 TIP3     17925    TIP3     H1       HT       0.417000       1.00800           0
     63691 TIP3     17925    TIP3     H2       HT       0.417000       1.00800           0
     63692 TIP3     17926    TIP3     OH2      OT      -0.834000       15.9994           0
     63693 TIP3     17926    TIP3     H1       HT       0.417000       1.00800           0
     63694 TIP3     17926    TIP3     H2       HT       0.417000       1.00800           0
     63695 TIP3     17927    TIP3     OH2      OT      -0.834000       15.9994           0
     63696 TIP3     17927    TIP3     H1       HT       0.417000       1.00800           0
     63697 TIP3     17927    TIP3     H2       HT       0.417000       1.00800           0
     63698 TIP3     17928    TIP3     OH2      OT      -0.834000       15.9994           0
     63699 TIP3     17928    TIP3     H1       HT       0.417000       1.00800           0
     63700 TIP3     17928    TIP3     H2       HT       0.417000       1.00800           0
     63701 TIP3     17929    TIP3     OH2      OT      -0.834000       15.9994           0
     63702 TIP3     17929    TIP3     H1       HT       0.417000       1.00800           0
     63703 TIP3     17929    TIP3     H2       HT       0.417000       1.00800           0
     63704 TIP3     17930    TIP3     OH2      OT      -0.834000       15.9994           0
     63705 TIP3     17930    TIP3     H1       HT       0.417000       1.00800           0
     63706 TIP3     17930    TIP3     H2       HT       0.417000       1.00800           0
     63707 TIP3     17931    TIP3     OH2      OT      -0.834000       15.9994           0
     63708 TIP3     17931    TIP3     H1       HT       0.417000       1.00800           0
     63709 TIP3     17931    TIP3     H2       HT       0.417000       1.00800           0
     63710 TIP3     17932    TIP3     OH2      OT      -0.834000       15.9994           0
     63711 TIP3     17932    TIP3     H1       HT       0.417000       1.00800           0
     63712 TIP3     17932    TIP3     H2       HT       0.417000       1.00800           0
     63713 TIP3     17933    TIP3     OH2      OT      -0.834000       15.9994           0
     63714 TIP3     17933    TIP3     H1       HT       0.417000       1.00800           0
     63715 TIP3     17933    TIP3     H2       HT       0.417000       1.00800           0
     63716 TIP3     17934    TIP3     OH2      OT      -0.834000       15.9994           0
     63717 TIP3     17934    TIP3     H1       HT       0.417000       1.00800           0
     63718 TIP3     17934    TIP3     H2       HT       0.417000       1.00800           0
     63719 TIP3     17935    TIP3     OH2      OT      -0.834000       15.9994           0
     63720 TIP3     17935    TIP3     H1       HT       0.417000       1.00800           0
     63721 TIP3     17935    TIP3     H2       HT       0.417000       1.00800           0
     63722 TIP3     17936    TIP3     OH2      OT      -0.834000       15.9994           0
     63723 TIP3     17936    TIP3     H1       HT       0.417000       1.00800           0
     63724 TIP3     17936    TIP3     H2       HT       0.417000       1.00800           0
     63725 TIP3     17937    TIP3     OH2      OT      -0.834000       15.9994           0
     63726 TIP3     17937    TIP3     H1       HT       0.417000       1.00800           0
     63727 TIP3     17937    TIP3     H2       HT       0.417000       1.00800           0
     63728 TIP3     17938    TIP3     OH2      OT      -0.834000       15.9994           0
     63729 TIP3     17938    TIP3     H1       HT       0.417000       1.00800           0
     63730 TIP3     17938    TIP3     H2       HT       0.417000       1.00800           0
     63731 TIP3     17939    TIP3     OH2      OT      -0.834000       15.9994           0
     63732 TIP3     17939    TIP3     H1       HT       0.417000       1.00800           0
     63733 TIP3     17939    TIP3     H2       HT       0.417000       1.00800           0
     63734 TIP3     17940    TIP3     OH2      OT      -0.834000       15.9994           0
     63735 TIP3     17940    TIP3     H1       HT       0.417000       1.00800           0
     63736 TIP3     17940    TIP3     H2       HT       0.417000       1.00800           0
     63737 TIP3     17941    TIP3     OH2      OT      -0.834000       15.9994           0
     63738 TIP3     17941    TIP3     H1       HT       0.417000       1.00800           0
     63739 TIP3     17941    TIP3     H2       HT       0.417000       1.00800           0
     63740 TIP3     17942    TIP3     OH2      OT      -0.834000       15.9994           0
     63741 TIP3     17942    TIP3     H1       HT       0.417000       1.00800           0
     63742 TIP3     17942    TIP3     H2       HT       0.417000       1.00800           0
     63743 TIP3     17943    TIP3     OH2      OT      -0.834000       15.9994           0
     63744 TIP3     17943    TIP3     H1       HT       0.417000       1.00800           0
     63745 TIP3     17943    TIP3     H2       HT       0.417000       1.00800           0
     63746 TIP3     17944    TIP3     OH2      OT      -0.834000       15.9994           0
     63747 TIP3     17944    TIP3     H1       HT       0.417000       1.00800           0
     63748 TIP3     17944    TIP3     H2       HT       0.417000       1.00800           0
     63749 TIP3     17945    TIP3     OH2      OT      -0.834000       15.9994           0
     63750 TIP3     17945    TIP3     H1       HT       0.417000       1.00800           0
     63751 TIP3     17945    TIP3     H2       HT       0.417000       1.00800           0
     63752 TIP3     17946    TIP3     OH2      OT      -0.834000       15.9994           0
     63753 TIP3     17946    TIP3     H1       HT       0.417000       1.00800           0
     63754 TIP3     17946    TIP3     H2       HT       0.417000       1.00800           0
     63755 TIP3     17947    TIP3     OH2      OT      -0.834000       15.9994           0
     63756 TIP3     17947    TIP3     H1       HT       0.417000       1.00800           0
     63757 TIP3     17947    TIP3     H2       HT       0.417000       1.00800           0
     63758 TIP3     17948    TIP3     OH2      OT      -0.834000       15.9994           0
     63759 TIP3     17948    TIP3     H1       HT       0.417000       1.00800           0
     63760 TIP3     17948    TIP3     H2       HT       0.417000       1.00800           0
     63761 TIP3     17949    TIP3     OH2      OT      -0.834000       15.9994           0
     63762 TIP3     17949    TIP3     H1       HT       0.417000       1.00800           0
     63763 TIP3     17949    TIP3     H2       HT       0.417000       1.00800           0
     63764 TIP3     17950    TIP3     OH2      OT      -0.834000       15.9994           0
     63765 TIP3     17950    TIP3     H1       HT       0.417000       1.00800           0
     63766 TIP3     17950    TIP3     H2       HT       0.417000       1.00800           0
     63767 TIP3     17951    TIP3     OH2      OT      -0.834000       15.9994           0
     63768 TIP3     17951    TIP3     H1       HT       0.417000       1.00800           0
     63769 TIP3     17951    TIP3     H2       HT       0.417000       1.00800           0
     63770 TIP3     17952    TIP3     OH2      OT      -0.834000       15.9994           0
     63771 TIP3     17952    TIP3     H1       HT       0.417000       1.00800           0
     63772 TIP3     17952    TIP3     H2       HT       0.417000       1.00800           0
     63773 TIP3     17953    TIP3     OH2      OT      -0.834000       15.9994           0
     63774 TIP3     17953    TIP3     H1       HT       0.417000       1.00800           0
     63775 TIP3     17953    TIP3     H2       HT       0.417000       1.00800           0
     63776 TIP3     17954    TIP3     OH2      OT      -0.834000       15.9994           0
     63777 TIP3     17954    TIP3     H1       HT       0.417000       1.00800           0
     63778 TIP3     17954    TIP3     H2       HT       0.417000       1.00800           0
     63779 TIP3     17955    TIP3     OH2      OT      -0.834000       15.9994           0
     63780 TIP3     17955    TIP3     H1       HT       0.417000       1.00800           0
     63781 TIP3     17955    TIP3     H2       HT       0.417000       1.00800           0
     63782 TIP3     17956    TIP3     OH2      OT      -0.834000       15.9994           0
     63783 TIP3     17956    TIP3     H1       HT       0.417000       1.00800           0
     63784 TIP3     17956    TIP3     H2       HT       0.417000       1.00800           0
     63785 TIP3     17957    TIP3     OH2      OT      -0.834000       15.9994           0
     63786 TIP3     17957    TIP3     H1       HT       0.417000       1.00800           0
     63787 TIP3     17957    TIP3     H2       HT       0.417000       1.00800           0
     63788 TIP3     17958    TIP3     OH2      OT      -0.834000       15.9994           0
     63789 TIP3     17958    TIP3     H1       HT       0.417000       1.00800           0
     63790 TIP3     17958    TIP3     H2       HT       0.417000       1.00800           0
     63791 TIP3     17959    TIP3     OH2      OT      -0.834000       15.9994           0
     63792 TIP3     17959    TIP3     H1       HT       0.417000       1.00800           0
     63793 TIP3     17959    TIP3     H2       HT       0.417000       1.00800           0
     63794 TIP3     17960    TIP3     OH2      OT      -0.834000       15.9994           0
     63795 TIP3     17960    TIP3     H1       HT       0.417000       1.00800           0
     63796 TIP3     17960    TIP3     H2       HT       0.417000       1.00800           0
     63797 TIP3     17961    TIP3     OH2      OT      -0.834000       15.9994           0
     63798 TIP3     17961    TIP3     H1       HT       0.417000       1.00800           0
     63799 TIP3     17961    TIP3     H2       HT       0.417000       1.00800           0
     63800 TIP3     17962    TIP3     OH2      OT      -0.834000       15.9994           0
     63801 TIP3     17962    TIP3     H1       HT       0.417000       1.00800           0
     63802 TIP3     17962    TIP3     H2       HT       0.417000       1.00800           0
     63803 TIP3     17963    TIP3     OH2      OT      -0.834000       15.9994           0
     63804 TIP3     17963    TIP3     H1       HT       0.417000       1.00800           0
     63805 TIP3     17963    TIP3     H2       HT       0.417000       1.00800           0
     63806 TIP3     17964    TIP3     OH2      OT      -0.834000       15.9994           0
     63807 TIP3     17964    TIP3     H1       HT       0.417000       1.00800           0
     63808 TIP3     17964    TIP3     H2       HT       0.417000       1.00800           0
     63809 TIP3     17965    TIP3     OH2      OT      -0.834000       15.9994           0
     63810 TIP3     17965    TIP3     H1       HT       0.417000       1.00800           0
     63811 TIP3     17965    TIP3     H2       HT       0.417000       1.00800           0
     63812 TIP3     17966    TIP3     OH2      OT      -0.834000       15.9994           0
     63813 TIP3     17966    TIP3     H1       HT       0.417000       1.00800           0
     63814 TIP3     17966    TIP3     H2       HT       0.417000       1.00800           0
     63815 TIP3     17967    TIP3     OH2      OT      -0.834000       15.9994           0
     63816 TIP3     17967    TIP3     H1       HT       0.417000       1.00800           0
     63817 TIP3     17967    TIP3     H2       HT       0.417000       1.00800           0
     63818 TIP3     17968    TIP3     OH2      OT      -0.834000       15.9994           0
     63819 TIP3     17968    TIP3     H1       HT       0.417000       1.00800           0
     63820 TIP3     17968    TIP3     H2       HT       0.417000       1.00800           0
     63821 TIP3     17969    TIP3     OH2      OT      -0.834000       15.9994           0
     63822 TIP3     17969    TIP3     H1       HT       0.417000       1.00800           0
     63823 TIP3     17969    TIP3     H2       HT       0.417000       1.00800           0
     63824 TIP3     17970    TIP3     OH2      OT      -0.834000       15.9994           0
     63825 TIP3     17970    TIP3     H1       HT       0.417000       1.00800           0
     63826 TIP3     17970    TIP3     H2       HT       0.417000       1.00800           0
     63827 TIP3     17971    TIP3     OH2      OT      -0.834000       15.9994           0
     63828 TIP3     17971    TIP3     H1       HT       0.417000       1.00800           0
     63829 TIP3     17971    TIP3     H2       HT       0.417000       1.00800           0
     63830 TIP3     17972    TIP3     OH2      OT      -0.834000       15.9994           0
     63831 TIP3     17972    TIP3     H1       HT       0.417000       1.00800           0
     63832 TIP3     17972    TIP3     H2       HT       0.417000       1.00800           0
     63833 TIP3     17973    TIP3     OH2      OT      -0.834000       15.9994           0
     63834 TIP3     17973    TIP3     H1       HT       0.417000       1.00800           0
     63835 TIP3     17973    TIP3     H2       HT       0.417000       1.00800           0
     63836 TIP3     17974    TIP3     OH2      OT      -0.834000       15.9994           0
     63837 TIP3     17974    TIP3     H1       HT       0.417000       1.00800           0
     63838 TIP3     17974    TIP3     H2       HT       0.417000       1.00800           0
     63839 TIP3     17975    TIP3     OH2      OT      -0.834000       15.9994           0
     63840 TIP3     17975    TIP3     H1       HT       0.417000       1.00800           0
     63841 TIP3     17975    TIP3     H2       HT       0.417000       1.00800           0
     63842 TIP3     17976    TIP3     OH2      OT      -0.834000       15.9994           0
     63843 TIP3     17976    TIP3     H1       HT       0.417000       1.00800           0
     63844 TIP3     17976    TIP3     H2       HT       0.417000       1.00800           0
     63845 TIP3     17977    TIP3     OH2      OT      -0.834000       15.9994           0
     63846 TIP3     17977    TIP3     H1       HT       0.417000       1.00800           0
     63847 TIP3     17977    TIP3     H2       HT       0.417000       1.00800           0
     63848 TIP3     17978    TIP3     OH2      OT      -0.834000       15.9994           0
     63849 TIP3     17978    TIP3     H1       HT       0.417000       1.00800           0
     63850 TIP3     17978    TIP3     H2       HT       0.417000       1.00800           0
     63851 TIP3     17979    TIP3     OH2      OT      -0.834000       15.9994           0
     63852 TIP3     17979    TIP3     H1       HT       0.417000       1.00800           0
     63853 TIP3     17979    TIP3     H2       HT       0.417000       1.00800           0
     63854 TIP3     17980    TIP3     OH2      OT      -0.834000       15.9994           0
     63855 TIP3     17980    TIP3     H1       HT       0.417000       1.00800           0
     63856 TIP3     17980    TIP3     H2       HT       0.417000       1.00800           0
     63857 TIP3     17981    TIP3     OH2      OT      -0.834000       15.9994           0
     63858 TIP3     17981    TIP3     H1       HT       0.417000       1.00800           0
     63859 TIP3     17981    TIP3     H2       HT       0.417000       1.00800           0
     63860 TIP3     17982    TIP3     OH2      OT      -0.834000       15.9994           0
     63861 TIP3     17982    TIP3     H1       HT       0.417000       1.00800           0
     63862 TIP3     17982    TIP3     H2       HT       0.417000       1.00800           0
     63863 TIP3     17983    TIP3     OH2      OT      -0.834000       15.9994           0
     63864 TIP3     17983    TIP3     H1       HT       0.417000       1.00800           0
     63865 TIP3     17983    TIP3     H2       HT       0.417000       1.00800           0
     63866 TIP3     17984    TIP3     OH2      OT      -0.834000       15.9994           0
     63867 TIP3     17984    TIP3     H1       HT       0.417000       1.00800           0
     63868 TIP3     17984    TIP3     H2       HT       0.417000       1.00800           0
     63869 TIP3     17985    TIP3     OH2      OT      -0.834000       15.9994           0
     63870 TIP3     17985    TIP3     H1       HT       0.417000       1.00800           0
     63871 TIP3     17985    TIP3     H2       HT       0.417000       1.00800           0
     63872 TIP3     17986    TIP3     OH2      OT      -0.834000       15.9994           0
     63873 TIP3     17986    TIP3     H1       HT       0.417000       1.00800           0
     63874 TIP3     17986    TIP3     H2       HT       0.417000       1.00800           0
     63875 TIP3     17987    TIP3     OH2      OT      -0.834000       15.9994           0
     63876 TIP3     17987    TIP3     H1       HT       0.417000       1.00800           0
     63877 TIP3     17987    TIP3     H2       HT       0.417000       1.00800           0
     63878 TIP3     17988    TIP3     OH2      OT      -0.834000       15.9994           0
     63879 TIP3     17988    TIP3     H1       HT       0.417000       1.00800           0
     63880 TIP3     17988    TIP3     H2       HT       0.417000       1.00800           0
     63881 TIP3     17989    TIP3     OH2      OT      -0.834000       15.9994           0
     63882 TIP3     17989    TIP3     H1       HT       0.417000       1.00800           0
     63883 TIP3     17989    TIP3     H2       HT       0.417000       1.00800           0
     63884 TIP3     17990    TIP3     OH2      OT      -0.834000       15.9994           0
     63885 TIP3     17990    TIP3     H1       HT       0.417000       1.00800           0
     63886 TIP3     17990    TIP3     H2       HT       0.417000       1.00800           0
     63887 TIP3     17991    TIP3     OH2      OT      -0.834000       15.9994           0
     63888 TIP3     17991    TIP3     H1       HT       0.417000       1.00800           0
     63889 TIP3     17991    TIP3     H2       HT       0.417000       1.00800           0
     63890 TIP3     17992    TIP3     OH2      OT      -0.834000       15.9994           0
     63891 TIP3     17992    TIP3     H1       HT       0.417000       1.00800           0
     63892 TIP3     17992    TIP3     H2       HT       0.417000       1.00800           0
     63893 TIP3     17993    TIP3     OH2      OT      -0.834000       15.9994           0
     63894 TIP3     17993    TIP3     H1       HT       0.417000       1.00800           0
     63895 TIP3     17993    TIP3     H2       HT       0.417000       1.00800           0
     63896 TIP3     17994    TIP3     OH2      OT      -0.834000       15.9994           0
     63897 TIP3     17994    TIP3     H1       HT       0.417000       1.00800           0
     63898 TIP3     17994    TIP3     H2       HT       0.417000       1.00800           0
     63899 TIP3     17995    TIP3     OH2      OT      -0.834000       15.9994           0
     63900 TIP3     17995    TIP3     H1       HT       0.417000       1.00800           0
     63901 TIP3     17995    TIP3     H2       HT       0.417000       1.00800           0
     63902 TIP3     17996    TIP3     OH2      OT      -0.834000       15.9994           0
     63903 TIP3     17996    TIP3     H1       HT       0.417000       1.00800           0
     63904 TIP3     17996    TIP3     H2       HT       0.417000       1.00800           0
     63905 TIP3     17997    TIP3     OH2      OT      -0.834000       15.9994           0
     63906 TIP3     17997    TIP3     H1       HT       0.417000       1.00800           0
     63907 TIP3     17997    TIP3     H2       HT       0.417000       1.00800           0
     63908 TIP3     17998    TIP3     OH2      OT      -0.834000       15.9994           0
     63909 TIP3     17998    TIP3     H1       HT       0.417000       1.00800           0
     63910 TIP3     17998    TIP3     H2       HT       0.417000       1.00800           0
     63911 TIP3     17999    TIP3     OH2      OT      -0.834000       15.9994           0
     63912 TIP3     17999    TIP3     H1       HT       0.417000       1.00800           0
     63913 TIP3     17999    TIP3     H2       HT       0.417000       1.00800           0
     63914 TIP3     18000    TIP3     OH2      OT      -0.834000       15.9994           0
     63915 TIP3     18000    TIP3     H1       HT       0.417000       1.00800           0
     63916 TIP3     18000    TIP3     H2       HT       0.417000       1.00800           0
     63917 TIP3     18001    TIP3     OH2      OT      -0.834000       15.9994           0
     63918 TIP3     18001    TIP3     H1       HT       0.417000       1.00800           0
     63919 TIP3     18001    TIP3     H2       HT       0.417000       1.00800           0
     63920 TIP3     18002    TIP3     OH2      OT      -0.834000       15.9994           0
     63921 TIP3     18002    TIP3     H1       HT       0.417000       1.00800           0
     63922 TIP3     18002    TIP3     H2       HT       0.417000       1.00800           0
     63923 TIP3     18003    TIP3     OH2      OT      -0.834000       15.9994           0
     63924 TIP3     18003    TIP3     H1       HT       0.417000       1.00800           0
     63925 TIP3     18003    TIP3     H2       HT       0.417000       1.00800           0
     63926 TIP3     18004    TIP3     OH2      OT      -0.834000       15.9994           0
     63927 TIP3     18004    TIP3     H1       HT       0.417000       1.00800           0
     63928 TIP3     18004    TIP3     H2       HT       0.417000       1.00800           0
     63929 TIP3     18005    TIP3     OH2      OT      -0.834000       15.9994           0
     63930 TIP3     18005    TIP3     H1       HT       0.417000       1.00800           0
     63931 TIP3     18005    TIP3     H2       HT       0.417000       1.00800           0
     63932 TIP3     18006    TIP3     OH2      OT      -0.834000       15.9994           0
     63933 TIP3     18006    TIP3     H1       HT       0.417000       1.00800           0
     63934 TIP3     18006    TIP3     H2       HT       0.417000       1.00800           0
     63935 TIP3     18007    TIP3     OH2      OT      -0.834000       15.9994           0
     63936 TIP3     18007    TIP3     H1       HT       0.417000       1.00800           0
     63937 TIP3     18007    TIP3     H2       HT       0.417000       1.00800           0
     63938 TIP3     18008    TIP3     OH2      OT      -0.834000       15.9994           0
     63939 TIP3     18008    TIP3     H1       HT       0.417000       1.00800           0
     63940 TIP3     18008    TIP3     H2       HT       0.417000       1.00800           0
     63941 TIP3     18009    TIP3     OH2      OT      -0.834000       15.9994           0
     63942 TIP3     18009    TIP3     H1       HT       0.417000       1.00800           0
     63943 TIP3     18009    TIP3     H2       HT       0.417000       1.00800           0
     63944 TIP3     18010    TIP3     OH2      OT      -0.834000       15.9994           0
     63945 TIP3     18010    TIP3     H1       HT       0.417000       1.00800           0
     63946 TIP3     18010    TIP3     H2       HT       0.417000       1.00800           0
     63947 TIP3     18011    TIP3     OH2      OT      -0.834000       15.9994           0
     63948 TIP3     18011    TIP3     H1       HT       0.417000       1.00800           0
     63949 TIP3     18011    TIP3     H2       HT       0.417000       1.00800           0
     63950 TIP3     18012    TIP3     OH2      OT      -0.834000       15.9994           0
     63951 TIP3     18012    TIP3     H1       HT       0.417000       1.00800           0
     63952 TIP3     18012    TIP3     H2       HT       0.417000       1.00800           0
     63953 TIP3     18013    TIP3     OH2      OT      -0.834000       15.9994           0
     63954 TIP3     18013    TIP3     H1       HT       0.417000       1.00800           0
     63955 TIP3     18013    TIP3     H2       HT       0.417000       1.00800           0
     63956 TIP3     18014    TIP3     OH2      OT      -0.834000       15.9994           0
     63957 TIP3     18014    TIP3     H1       HT       0.417000       1.00800           0
     63958 TIP3     18014    TIP3     H2       HT       0.417000       1.00800           0
     63959 TIP3     18015    TIP3     OH2      OT      -0.834000       15.9994           0
     63960 TIP3     18015    TIP3     H1       HT       0.417000       1.00800           0
     63961 TIP3     18015    TIP3     H2       HT       0.417000       1.00800           0
     63962 TIP3     18016    TIP3     OH2      OT      -0.834000       15.9994           0
     63963 TIP3     18016    TIP3     H1       HT       0.417000       1.00800           0
     63964 TIP3     18016    TIP3     H2       HT       0.417000       1.00800           0
     63965 TIP3     18017    TIP3     OH2      OT      -0.834000       15.9994           0
     63966 TIP3     18017    TIP3     H1       HT       0.417000       1.00800           0
     63967 TIP3     18017    TIP3     H2       HT       0.417000       1.00800           0
     63968 TIP3     18018    TIP3     OH2      OT      -0.834000       15.9994           0
     63969 TIP3     18018    TIP3     H1       HT       0.417000       1.00800           0
     63970 TIP3     18018    TIP3     H2       HT       0.417000       1.00800           0
     63971 TIP3     18019    TIP3     OH2      OT      -0.834000       15.9994           0
     63972 TIP3     18019    TIP3     H1       HT       0.417000       1.00800           0
     63973 TIP3     18019    TIP3     H2       HT       0.417000       1.00800           0
     63974 TIP3     18020    TIP3     OH2      OT      -0.834000       15.9994           0
     63975 TIP3     18020    TIP3     H1       HT       0.417000       1.00800           0
     63976 TIP3     18020    TIP3     H2       HT       0.417000       1.00800           0
     63977 TIP3     18021    TIP3     OH2      OT      -0.834000       15.9994           0
     63978 TIP3     18021    TIP3     H1       HT       0.417000       1.00800           0
     63979 TIP3     18021    TIP3     H2       HT       0.417000       1.00800           0
     63980 TIP3     18022    TIP3     OH2      OT      -0.834000       15.9994           0
     63981 TIP3     18022    TIP3     H1       HT       0.417000       1.00800           0
     63982 TIP3     18022    TIP3     H2       HT       0.417000       1.00800           0
     63983 TIP3     18023    TIP3     OH2      OT      -0.834000       15.9994           0
     63984 TIP3     18023    TIP3     H1       HT       0.417000       1.00800           0
     63985 TIP3     18023    TIP3     H2       HT       0.417000       1.00800           0
     63986 TIP3     18024    TIP3     OH2      OT      -0.834000       15.9994           0
     63987 TIP3     18024    TIP3     H1       HT       0.417000       1.00800           0
     63988 TIP3     18024    TIP3     H2       HT       0.417000       1.00800           0
     63989 TIP3     18025    TIP3     OH2      OT      -0.834000       15.9994           0
     63990 TIP3     18025    TIP3     H1       HT       0.417000       1.00800           0
     63991 TIP3     18025    TIP3     H2       HT       0.417000       1.00800           0
     63992 TIP3     18026    TIP3     OH2      OT      -0.834000       15.9994           0
     63993 TIP3     18026    TIP3     H1       HT       0.417000       1.00800           0
     63994 TIP3     18026    TIP3     H2       HT       0.417000       1.00800           0
     63995 TIP3     18027    TIP3     OH2      OT      -0.834000       15.9994           0
     63996 TIP3     18027    TIP3     H1       HT       0.417000       1.00800           0
     63997 TIP3     18027    TIP3     H2       HT       0.417000       1.00800           0
     63998 TIP3     18028    TIP3     OH2      OT      -0.834000       15.9994           0
     63999 TIP3     18028    TIP3     H1       HT       0.417000       1.00800           0
     64000 TIP3     18028    TIP3     H2       HT       0.417000       1.00800           0
     64001 TIP3     18029    TIP3     OH2      OT      -0.834000       15.9994           0
     64002 TIP3     18029    TIP3     H1       HT       0.417000       1.00800           0
     64003 TIP3     18029    TIP3     H2       HT       0.417000       1.00800           0
     64004 TIP3     18030    TIP3     OH2      OT      -0.834000       15.9994           0
     64005 TIP3     18030    TIP3     H1       HT       0.417000       1.00800           0
     64006 TIP3     18030    TIP3     H2       HT       0.417000       1.00800           0
     64007 TIP3     18031    TIP3     OH2      OT      -0.834000       15.9994           0
     64008 TIP3     18031    TIP3     H1       HT       0.417000       1.00800           0
     64009 TIP3     18031    TIP3     H2       HT       0.417000       1.00800           0
     64010 TIP3     18032    TIP3     OH2      OT      -0.834000       15.9994           0
     64011 TIP3     18032    TIP3     H1       HT       0.417000       1.00800           0
     64012 TIP3     18032    TIP3     H2       HT       0.417000       1.00800           0
     64013 TIP3     18033    TIP3     OH2      OT      -0.834000       15.9994           0
     64014 TIP3     18033    TIP3     H1       HT       0.417000       1.00800           0
     64015 TIP3     18033    TIP3     H2       HT       0.417000       1.00800           0
     64016 TIP3     18034    TIP3     OH2      OT      -0.834000       15.9994           0
     64017 TIP3     18034    TIP3     H1       HT       0.417000       1.00800           0
     64018 TIP3     18034    TIP3     H2       HT       0.417000       1.00800           0
     64019 TIP3     18035    TIP3     OH2      OT      -0.834000       15.9994           0
     64020 TIP3     18035    TIP3     H1       HT       0.417000       1.00800           0
     64021 TIP3     18035    TIP3     H2       HT       0.417000       1.00800           0
     64022 TIP3     18036    TIP3     OH2      OT      -0.834000       15.9994           0
     64023 TIP3     18036    TIP3     H1       HT       0.417000       1.00800           0
     64024 TIP3     18036    TIP3     H2       HT       0.417000       1.00800           0
     64025 TIP3     18037    TIP3     OH2      OT      -0.834000       15.9994           0
     64026 TIP3     18037    TIP3     H1       HT       0.417000       1.00800           0
     64027 TIP3     18037    TIP3     H2       HT       0.417000       1.00800           0
     64028 TIP3     18038    TIP3     OH2      OT      -0.834000       15.9994           0
     64029 TIP3     18038    TIP3     H1       HT       0.417000       1.00800           0
     64030 TIP3     18038    TIP3     H2       HT       0.417000       1.00800           0
     64031 TIP3     18039    TIP3     OH2      OT      -0.834000       15.9994           0
     64032 TIP3     18039    TIP3     H1       HT       0.417000       1.00800           0
     64033 TIP3     18039    TIP3     H2       HT       0.417000       1.00800           0
     64034 TIP3     18040    TIP3     OH2      OT      -0.834000       15.9994           0
     64035 TIP3     18040    TIP3     H1       HT       0.417000       1.00800           0
     64036 TIP3     18040    TIP3     H2       HT       0.417000       1.00800           0
     64037 TIP3     18041    TIP3     OH2      OT      -0.834000       15.9994           0
     64038 TIP3     18041    TIP3     H1       HT       0.417000       1.00800           0
     64039 TIP3     18041    TIP3     H2       HT       0.417000       1.00800           0
     64040 TIP3     18042    TIP3     OH2      OT      -0.834000       15.9994           0
     64041 TIP3     18042    TIP3     H1       HT       0.417000       1.00800           0
     64042 TIP3     18042    TIP3     H2       HT       0.417000       1.00800           0
     64043 TIP3     18043    TIP3     OH2      OT      -0.834000       15.9994           0
     64044 TIP3     18043    TIP3     H1       HT       0.417000       1.00800           0
     64045 TIP3     18043    TIP3     H2       HT       0.417000       1.00800           0
     64046 TIP3     18044    TIP3     OH2      OT      -0.834000       15.9994           0
     64047 TIP3     18044    TIP3     H1       HT       0.417000       1.00800           0
     64048 TIP3     18044    TIP3     H2       HT       0.417000       1.00800           0
     64049 TIP3     18045    TIP3     OH2      OT      -0.834000       15.9994           0
     64050 TIP3     18045    TIP3     H1       HT       0.417000       1.00800           0
     64051 TIP3     18045    TIP3     H2       HT       0.417000       1.00800           0
     64052 TIP3     18046    TIP3     OH2      OT      -0.834000       15.9994           0
     64053 TIP3     18046    TIP3     H1       HT       0.417000       1.00800           0
     64054 TIP3     18046    TIP3     H2       HT       0.417000       1.00800           0
     64055 TIP3     18047    TIP3     OH2      OT      -0.834000       15.9994           0
     64056 TIP3     18047    TIP3     H1       HT       0.417000       1.00800           0
     64057 TIP3     18047    TIP3     H2       HT       0.417000       1.00800           0
     64058 TIP3     18048    TIP3     OH2      OT      -0.834000       15.9994           0
     64059 TIP3     18048    TIP3     H1       HT       0.417000       1.00800           0
     64060 TIP3     18048    TIP3     H2       HT       0.417000       1.00800           0
     64061 TIP3     18049    TIP3     OH2      OT      -0.834000       15.9994           0
     64062 TIP3     18049    TIP3     H1       HT       0.417000       1.00800           0
     64063 TIP3     18049    TIP3     H2       HT       0.417000       1.00800           0
     64064 TIP3     18050    TIP3     OH2      OT      -0.834000       15.9994           0
     64065 TIP3     18050    TIP3     H1       HT       0.417000       1.00800           0
     64066 TIP3     18050    TIP3     H2       HT       0.417000       1.00800           0
     64067 TIP3     18051    TIP3     OH2      OT      -0.834000       15.9994           0
     64068 TIP3     18051    TIP3     H1       HT       0.417000       1.00800           0
     64069 TIP3     18051    TIP3     H2       HT       0.417000       1.00800           0
     64070 TIP3     18052    TIP3     OH2      OT      -0.834000       15.9994           0
     64071 TIP3     18052    TIP3     H1       HT       0.417000       1.00800           0
     64072 TIP3     18052    TIP3     H2       HT       0.417000       1.00800           0
     64073 TIP3     18053    TIP3     OH2      OT      -0.834000       15.9994           0
     64074 TIP3     18053    TIP3     H1       HT       0.417000       1.00800           0
     64075 TIP3     18053    TIP3     H2       HT       0.417000       1.00800           0
     64076 TIP3     18054    TIP3     OH2      OT      -0.834000       15.9994           0
     64077 TIP3     18054    TIP3     H1       HT       0.417000       1.00800           0
     64078 TIP3     18054    TIP3     H2       HT       0.417000       1.00800           0
     64079 TIP3     18055    TIP3     OH2      OT      -0.834000       15.9994           0
     64080 TIP3     18055    TIP3     H1       HT       0.417000       1.00800           0
     64081 TIP3     18055    TIP3     H2       HT       0.417000       1.00800           0
     64082 TIP3     18056    TIP3     OH2      OT      -0.834000       15.9994           0
     64083 TIP3     18056    TIP3     H1       HT       0.417000       1.00800           0
     64084 TIP3     18056    TIP3     H2       HT       0.417000       1.00800           0
     64085 TIP3     18057    TIP3     OH2      OT      -0.834000       15.9994           0
     64086 TIP3     18057    TIP3     H1       HT       0.417000       1.00800           0
     64087 TIP3     18057    TIP3     H2       HT       0.417000       1.00800           0
     64088 TIP3     18058    TIP3     OH2      OT      -0.834000       15.9994           0
     64089 TIP3     18058    TIP3     H1       HT       0.417000       1.00800           0
     64090 TIP3     18058    TIP3     H2       HT       0.417000       1.00800           0
     64091 TIP3     18059    TIP3     OH2      OT      -0.834000       15.9994           0
     64092 TIP3     18059    TIP3     H1       HT       0.417000       1.00800           0
     64093 TIP3     18059    TIP3     H2       HT       0.417000       1.00800           0
     64094 TIP3     18060    TIP3     OH2      OT      -0.834000       15.9994           0
     64095 TIP3     18060    TIP3     H1       HT       0.417000       1.00800           0
     64096 TIP3     18060    TIP3     H2       HT       0.417000       1.00800           0
     64097 TIP3     18061    TIP3     OH2      OT      -0.834000       15.9994           0
     64098 TIP3     18061    TIP3     H1       HT       0.417000       1.00800           0
     64099 TIP3     18061    TIP3     H2       HT       0.417000       1.00800           0
     64100 TIP3     18062    TIP3     OH2      OT      -0.834000       15.9994           0
     64101 TIP3     18062    TIP3     H1       HT       0.417000       1.00800           0
     64102 TIP3     18062    TIP3     H2       HT       0.417000       1.00800           0
     64103 TIP3     18063    TIP3     OH2      OT      -0.834000       15.9994           0
     64104 TIP3     18063    TIP3     H1       HT       0.417000       1.00800           0
     64105 TIP3     18063    TIP3     H2       HT       0.417000       1.00800           0
     64106 TIP3     18064    TIP3     OH2      OT      -0.834000       15.9994           0
     64107 TIP3     18064    TIP3     H1       HT       0.417000       1.00800           0
     64108 TIP3     18064    TIP3     H2       HT       0.417000       1.00800           0
     64109 TIP3     18065    TIP3     OH2      OT      -0.834000       15.9994           0
     64110 TIP3     18065    TIP3     H1       HT       0.417000       1.00800           0
     64111 TIP3     18065    TIP3     H2       HT       0.417000       1.00800           0
     64112 TIP3     18066    TIP3     OH2      OT      -0.834000       15.9994           0
     64113 TIP3     18066    TIP3     H1       HT       0.417000       1.00800           0
     64114 TIP3     18066    TIP3     H2       HT       0.417000       1.00800           0
     64115 TIP3     18067    TIP3     OH2      OT      -0.834000       15.9994           0
     64116 TIP3     18067    TIP3     H1       HT       0.417000       1.00800           0
     64117 TIP3     18067    TIP3     H2       HT       0.417000       1.00800           0
     64118 TIP3     18068    TIP3     OH2      OT      -0.834000       15.9994           0
     64119 TIP3     18068    TIP3     H1       HT       0.417000       1.00800           0
     64120 TIP3     18068    TIP3     H2       HT       0.417000       1.00800           0
     64121 TIP3     18069    TIP3     OH2      OT      -0.834000       15.9994           0
     64122 TIP3     18069    TIP3     H1       HT       0.417000       1.00800           0
     64123 TIP3     18069    TIP3     H2       HT       0.417000       1.00800           0
     64124 TIP3     18070    TIP3     OH2      OT      -0.834000       15.9994           0
     64125 TIP3     18070    TIP3     H1       HT       0.417000       1.00800           0
     64126 TIP3     18070    TIP3     H2       HT       0.417000       1.00800           0
     64127 TIP3     18071    TIP3     OH2      OT      -0.834000       15.9994           0
     64128 TIP3     18071    TIP3     H1       HT       0.417000       1.00800           0
     64129 TIP3     18071    TIP3     H2       HT       0.417000       1.00800           0
     64130 TIP3     18072    TIP3     OH2      OT      -0.834000       15.9994           0
     64131 TIP3     18072    TIP3     H1       HT       0.417000       1.00800           0
     64132 TIP3     18072    TIP3     H2       HT       0.417000       1.00800           0
     64133 TIP3     18073    TIP3     OH2      OT      -0.834000       15.9994           0
     64134 TIP3     18073    TIP3     H1       HT       0.417000       1.00800           0
     64135 TIP3     18073    TIP3     H2       HT       0.417000       1.00800           0
     64136 TIP3     18074    TIP3     OH2      OT      -0.834000       15.9994           0
     64137 TIP3     18074    TIP3     H1       HT       0.417000       1.00800           0
     64138 TIP3     18074    TIP3     H2       HT       0.417000       1.00800           0
     64139 TIP3     18075    TIP3     OH2      OT      -0.834000       15.9994           0
     64140 TIP3     18075    TIP3     H1       HT       0.417000       1.00800           0
     64141 TIP3     18075    TIP3     H2       HT       0.417000       1.00800           0
     64142 TIP3     18076    TIP3     OH2      OT      -0.834000       15.9994           0
     64143 TIP3     18076    TIP3     H1       HT       0.417000       1.00800           0
     64144 TIP3     18076    TIP3     H2       HT       0.417000       1.00800           0
     64145 TIP3     18077    TIP3     OH2      OT      -0.834000       15.9994           0
     64146 TIP3     18077    TIP3     H1       HT       0.417000       1.00800           0
     64147 TIP3     18077    TIP3     H2       HT       0.417000       1.00800           0
     64148 TIP3     18078    TIP3     OH2      OT      -0.834000       15.9994           0
     64149 TIP3     18078    TIP3     H1       HT       0.417000       1.00800           0
     64150 TIP3     18078    TIP3     H2       HT       0.417000       1.00800           0
     64151 TIP3     18079    TIP3     OH2      OT      -0.834000       15.9994           0
     64152 TIP3     18079    TIP3     H1       HT       0.417000       1.00800           0
     64153 TIP3     18079    TIP3     H2       HT       0.417000       1.00800           0
     64154 TIP3     18080    TIP3     OH2      OT      -0.834000       15.9994           0
     64155 TIP3     18080    TIP3     H1       HT       0.417000       1.00800           0
     64156 TIP3     18080    TIP3     H2       HT       0.417000       1.00800           0
     64157 TIP3     18081    TIP3     OH2      OT      -0.834000       15.9994           0
     64158 TIP3     18081    TIP3     H1       HT       0.417000       1.00800           0
     64159 TIP3     18081    TIP3     H2       HT       0.417000       1.00800           0
     64160 TIP3     18082    TIP3     OH2      OT      -0.834000       15.9994           0
     64161 TIP3     18082    TIP3     H1       HT       0.417000       1.00800           0
     64162 TIP3     18082    TIP3     H2       HT       0.417000       1.00800           0
     64163 TIP3     18083    TIP3     OH2      OT      -0.834000       15.9994           0
     64164 TIP3     18083    TIP3     H1       HT       0.417000       1.00800           0
     64165 TIP3     18083    TIP3     H2       HT       0.417000       1.00800           0
     64166 TIP3     18084    TIP3     OH2      OT      -0.834000       15.9994           0
     64167 TIP3     18084    TIP3     H1       HT       0.417000       1.00800           0
     64168 TIP3     18084    TIP3     H2       HT       0.417000       1.00800           0
     64169 TIP3     18085    TIP3     OH2      OT      -0.834000       15.9994           0
     64170 TIP3     18085    TIP3     H1       HT       0.417000       1.00800           0
     64171 TIP3     18085    TIP3     H2       HT       0.417000       1.00800           0
     64172 TIP3     18086    TIP3     OH2      OT      -0.834000       15.9994           0
     64173 TIP3     18086    TIP3     H1       HT       0.417000       1.00800           0
     64174 TIP3     18086    TIP3     H2       HT       0.417000       1.00800           0
     64175 TIP3     18087    TIP3     OH2      OT      -0.834000       15.9994           0
     64176 TIP3     18087    TIP3     H1       HT       0.417000       1.00800           0
     64177 TIP3     18087    TIP3     H2       HT       0.417000       1.00800           0
     64178 TIP3     18088    TIP3     OH2      OT      -0.834000       15.9994           0
     64179 TIP3     18088    TIP3     H1       HT       0.417000       1.00800           0
     64180 TIP3     18088    TIP3     H2       HT       0.417000       1.00800           0
     64181 TIP3     18089    TIP3     OH2      OT      -0.834000       15.9994           0
     64182 TIP3     18089    TIP3     H1       HT       0.417000       1.00800           0
     64183 TIP3     18089    TIP3     H2       HT       0.417000       1.00800           0
     64184 TIP3     18090    TIP3     OH2      OT      -0.834000       15.9994           0
     64185 TIP3     18090    TIP3     H1       HT       0.417000       1.00800           0
     64186 TIP3     18090    TIP3     H2       HT       0.417000       1.00800           0
     64187 TIP3     18091    TIP3     OH2      OT      -0.834000       15.9994           0
     64188 TIP3     18091    TIP3     H1       HT       0.417000       1.00800           0
     64189 TIP3     18091    TIP3     H2       HT       0.417000       1.00800           0
     64190 TIP3     18092    TIP3     OH2      OT      -0.834000       15.9994           0
     64191 TIP3     18092    TIP3     H1       HT       0.417000       1.00800           0
     64192 TIP3     18092    TIP3     H2       HT       0.417000       1.00800           0
     64193 TIP3     18093    TIP3     OH2      OT      -0.834000       15.9994           0
     64194 TIP3     18093    TIP3     H1       HT       0.417000       1.00800           0
     64195 TIP3     18093    TIP3     H2       HT       0.417000       1.00800           0
     64196 TIP3     18094    TIP3     OH2      OT      -0.834000       15.9994           0
     64197 TIP3     18094    TIP3     H1       HT       0.417000       1.00800           0
     64198 TIP3     18094    TIP3     H2       HT       0.417000       1.00800           0
     64199 TIP3     18095    TIP3     OH2      OT      -0.834000       15.9994           0
     64200 TIP3     18095    TIP3     H1       HT       0.417000       1.00800           0
     64201 TIP3     18095    TIP3     H2       HT       0.417000       1.00800           0
     64202 TIP3     18096    TIP3     OH2      OT      -0.834000       15.9994           0
     64203 TIP3     18096    TIP3     H1       HT       0.417000       1.00800           0
     64204 TIP3     18096    TIP3     H2       HT       0.417000       1.00800           0
     64205 TIP3     18097    TIP3     OH2      OT      -0.834000       15.9994           0
     64206 TIP3     18097    TIP3     H1       HT       0.417000       1.00800           0
     64207 TIP3     18097    TIP3     H2       HT       0.417000       1.00800           0
     64208 TIP3     18098    TIP3     OH2      OT      -0.834000       15.9994           0
     64209 TIP3     18098    TIP3     H1       HT       0.417000       1.00800           0
     64210 TIP3     18098    TIP3     H2       HT       0.417000       1.00800           0
     64211 TIP3     18099    TIP3     OH2      OT      -0.834000       15.9994           0
     64212 TIP3     18099    TIP3     H1       HT       0.417000       1.00800           0
     64213 TIP3     18099    TIP3     H2       HT       0.417000       1.00800           0
     64214 TIP3     18100    TIP3     OH2      OT      -0.834000       15.9994           0
     64215 TIP3     18100    TIP3     H1       HT       0.417000       1.00800           0
     64216 TIP3     18100    TIP3     H2       HT       0.417000       1.00800           0
     64217 TIP3     18101    TIP3     OH2      OT      -0.834000       15.9994           0
     64218 TIP3     18101    TIP3     H1       HT       0.417000       1.00800           0
     64219 TIP3     18101    TIP3     H2       HT       0.417000       1.00800           0
     64220 TIP3     18102    TIP3     OH2      OT      -0.834000       15.9994           0
     64221 TIP3     18102    TIP3     H1       HT       0.417000       1.00800           0
     64222 TIP3     18102    TIP3     H2       HT       0.417000       1.00800           0
     64223 TIP3     18103    TIP3     OH2      OT      -0.834000       15.9994           0
     64224 TIP3     18103    TIP3     H1       HT       0.417000       1.00800           0
     64225 TIP3     18103    TIP3     H2       HT       0.417000       1.00800           0
     64226 TIP3     18104    TIP3     OH2      OT      -0.834000       15.9994           0
     64227 TIP3     18104    TIP3     H1       HT       0.417000       1.00800           0
     64228 TIP3     18104    TIP3     H2       HT       0.417000       1.00800           0
     64229 TIP3     18105    TIP3     OH2      OT      -0.834000       15.9994           0
     64230 TIP3     18105    TIP3     H1       HT       0.417000       1.00800           0
     64231 TIP3     18105    TIP3     H2       HT       0.417000       1.00800           0
     64232 TIP3     18106    TIP3     OH2      OT      -0.834000       15.9994           0
     64233 TIP3     18106    TIP3     H1       HT       0.417000       1.00800           0
     64234 TIP3     18106    TIP3     H2       HT       0.417000       1.00800           0
     64235 TIP3     18107    TIP3     OH2      OT      -0.834000       15.9994           0
     64236 TIP3     18107    TIP3     H1       HT       0.417000       1.00800           0
     64237 TIP3     18107    TIP3     H2       HT       0.417000       1.00800           0
     64238 TIP3     18108    TIP3     OH2      OT      -0.834000       15.9994           0
     64239 TIP3     18108    TIP3     H1       HT       0.417000       1.00800           0
     64240 TIP3     18108    TIP3     H2       HT       0.417000       1.00800           0
     64241 TIP3     18109    TIP3     OH2      OT      -0.834000       15.9994           0
     64242 TIP3     18109    TIP3     H1       HT       0.417000       1.00800           0
     64243 TIP3     18109    TIP3     H2       HT       0.417000       1.00800           0
     64244 TIP3     18110    TIP3     OH2      OT      -0.834000       15.9994           0
     64245 TIP3     18110    TIP3     H1       HT       0.417000       1.00800           0
     64246 TIP3     18110    TIP3     H2       HT       0.417000       1.00800           0
     64247 TIP3     18111    TIP3     OH2      OT      -0.834000       15.9994           0
     64248 TIP3     18111    TIP3     H1       HT       0.417000       1.00800           0
     64249 TIP3     18111    TIP3     H2       HT       0.417000       1.00800           0
     64250 TIP3     18112    TIP3     OH2      OT      -0.834000       15.9994           0
     64251 TIP3     18112    TIP3     H1       HT       0.417000       1.00800           0
     64252 TIP3     18112    TIP3     H2       HT       0.417000       1.00800           0
     64253 TIP3     18113    TIP3     OH2      OT      -0.834000       15.9994           0
     64254 TIP3     18113    TIP3     H1       HT       0.417000       1.00800           0
     64255 TIP3     18113    TIP3     H2       HT       0.417000       1.00800           0
     64256 TIP3     18114    TIP3     OH2      OT      -0.834000       15.9994           0
     64257 TIP3     18114    TIP3     H1       HT       0.417000       1.00800           0
     64258 TIP3     18114    TIP3     H2       HT       0.417000       1.00800           0
     64259 TIP3     18115    TIP3     OH2      OT      -0.834000       15.9994           0
     64260 TIP3     18115    TIP3     H1       HT       0.417000       1.00800           0
     64261 TIP3     18115    TIP3     H2       HT       0.417000       1.00800           0
     64262 TIP3     18116    TIP3     OH2      OT      -0.834000       15.9994           0
     64263 TIP3     18116    TIP3     H1       HT       0.417000       1.00800           0
     64264 TIP3     18116    TIP3     H2       HT       0.417000       1.00800           0
     64265 TIP3     18117    TIP3     OH2      OT      -0.834000       15.9994           0
     64266 TIP3     18117    TIP3     H1       HT       0.417000       1.00800           0
     64267 TIP3     18117    TIP3     H2       HT       0.417000       1.00800           0
     64268 TIP3     18118    TIP3     OH2      OT      -0.834000       15.9994           0
     64269 TIP3     18118    TIP3     H1       HT       0.417000       1.00800           0
     64270 TIP3     18118    TIP3     H2       HT       0.417000       1.00800           0
     64271 TIP3     18119    TIP3     OH2      OT      -0.834000       15.9994           0
     64272 TIP3     18119    TIP3     H1       HT       0.417000       1.00800           0
     64273 TIP3     18119    TIP3     H2       HT       0.417000       1.00800           0
     64274 TIP3     18120    TIP3     OH2      OT      -0.834000       15.9994           0
     64275 TIP3     18120    TIP3     H1       HT       0.417000       1.00800           0
     64276 TIP3     18120    TIP3     H2       HT       0.417000       1.00800           0
     64277 TIP3     18121    TIP3     OH2      OT      -0.834000       15.9994           0
     64278 TIP3     18121    TIP3     H1       HT       0.417000       1.00800           0
     64279 TIP3     18121    TIP3     H2       HT       0.417000       1.00800           0
     64280 TIP3     18122    TIP3     OH2      OT      -0.834000       15.9994           0
     64281 TIP3     18122    TIP3     H1       HT       0.417000       1.00800           0
     64282 TIP3     18122    TIP3     H2       HT       0.417000       1.00800           0
     64283 TIP3     18123    TIP3     OH2      OT      -0.834000       15.9994           0
     64284 TIP3     18123    TIP3     H1       HT       0.417000       1.00800           0
     64285 TIP3     18123    TIP3     H2       HT       0.417000       1.00800           0
     64286 TIP3     18124    TIP3     OH2      OT      -0.834000       15.9994           0
     64287 TIP3     18124    TIP3     H1       HT       0.417000       1.00800           0
     64288 TIP3     18124    TIP3     H2       HT       0.417000       1.00800           0
     64289 TIP3     18125    TIP3     OH2      OT      -0.834000       15.9994           0
     64290 TIP3     18125    TIP3     H1       HT       0.417000       1.00800           0
     64291 TIP3     18125    TIP3     H2       HT       0.417000       1.00800           0
     64292 TIP3     18126    TIP3     OH2      OT      -0.834000       15.9994           0
     64293 TIP3     18126    TIP3     H1       HT       0.417000       1.00800           0
     64294 TIP3     18126    TIP3     H2       HT       0.417000       1.00800           0
     64295 TIP3     18127    TIP3     OH2      OT      -0.834000       15.9994           0
     64296 TIP3     18127    TIP3     H1       HT       0.417000       1.00800           0
     64297 TIP3     18127    TIP3     H2       HT       0.417000       1.00800           0
     64298 TIP3     18128    TIP3     OH2      OT      -0.834000       15.9994           0
     64299 TIP3     18128    TIP3     H1       HT       0.417000       1.00800           0
     64300 TIP3     18128    TIP3     H2       HT       0.417000       1.00800           0
     64301 TIP3     18129    TIP3     OH2      OT      -0.834000       15.9994           0
     64302 TIP3     18129    TIP3     H1       HT       0.417000       1.00800           0
     64303 TIP3     18129    TIP3     H2       HT       0.417000       1.00800           0
     64304 TIP3     18130    TIP3     OH2      OT      -0.834000       15.9994           0
     64305 TIP3     18130    TIP3     H1       HT       0.417000       1.00800           0
     64306 TIP3     18130    TIP3     H2       HT       0.417000       1.00800           0
     64307 TIP3     18131    TIP3     OH2      OT      -0.834000       15.9994           0
     64308 TIP3     18131    TIP3     H1       HT       0.417000       1.00800           0
     64309 TIP3     18131    TIP3     H2       HT       0.417000       1.00800           0
     64310 TIP3     18132    TIP3     OH2      OT      -0.834000       15.9994           0
     64311 TIP3     18132    TIP3     H1       HT       0.417000       1.00800           0
     64312 TIP3     18132    TIP3     H2       HT       0.417000       1.00800           0
     64313 TIP3     18133    TIP3     OH2      OT      -0.834000       15.9994           0
     64314 TIP3     18133    TIP3     H1       HT       0.417000       1.00800           0
     64315 TIP3     18133    TIP3     H2       HT       0.417000       1.00800           0
     64316 TIP3     18134    TIP3     OH2      OT      -0.834000       15.9994           0
     64317 TIP3     18134    TIP3     H1       HT       0.417000       1.00800           0
     64318 TIP3     18134    TIP3     H2       HT       0.417000       1.00800           0
     64319 TIP3     18135    TIP3     OH2      OT      -0.834000       15.9994           0
     64320 TIP3     18135    TIP3     H1       HT       0.417000       1.00800           0
     64321 TIP3     18135    TIP3     H2       HT       0.417000       1.00800           0
     64322 TIP3     18136    TIP3     OH2      OT      -0.834000       15.9994           0
     64323 TIP3     18136    TIP3     H1       HT       0.417000       1.00800           0
     64324 TIP3     18136    TIP3     H2       HT       0.417000       1.00800           0
     64325 TIP3     18137    TIP3     OH2      OT      -0.834000       15.9994           0
     64326 TIP3     18137    TIP3     H1       HT       0.417000       1.00800           0
     64327 TIP3     18137    TIP3     H2       HT       0.417000       1.00800           0
     64328 TIP3     18138    TIP3     OH2      OT      -0.834000       15.9994           0
     64329 TIP3     18138    TIP3     H1       HT       0.417000       1.00800           0
     64330 TIP3     18138    TIP3     H2       HT       0.417000       1.00800           0
     64331 TIP3     18139    TIP3     OH2      OT      -0.834000       15.9994           0
     64332 TIP3     18139    TIP3     H1       HT       0.417000       1.00800           0
     64333 TIP3     18139    TIP3     H2       HT       0.417000       1.00800           0
     64334 TIP3     18140    TIP3     OH2      OT      -0.834000       15.9994           0
     64335 TIP3     18140    TIP3     H1       HT       0.417000       1.00800           0
     64336 TIP3     18140    TIP3     H2       HT       0.417000       1.00800           0
     64337 TIP3     18141    TIP3     OH2      OT      -0.834000       15.9994           0
     64338 TIP3     18141    TIP3     H1       HT       0.417000       1.00800           0
     64339 TIP3     18141    TIP3     H2       HT       0.417000       1.00800           0
     64340 TIP3     18142    TIP3     OH2      OT      -0.834000       15.9994           0
     64341 TIP3     18142    TIP3     H1       HT       0.417000       1.00800           0
     64342 TIP3     18142    TIP3     H2       HT       0.417000       1.00800           0
     64343 TIP3     18143    TIP3     OH2      OT      -0.834000       15.9994           0
     64344 TIP3     18143    TIP3     H1       HT       0.417000       1.00800           0
     64345 TIP3     18143    TIP3     H2       HT       0.417000       1.00800           0
     64346 TIP3     18144    TIP3     OH2      OT      -0.834000       15.9994           0
     64347 TIP3     18144    TIP3     H1       HT       0.417000       1.00800           0
     64348 TIP3     18144    TIP3     H2       HT       0.417000       1.00800           0
     64349 TIP3     18145    TIP3     OH2      OT      -0.834000       15.9994           0
     64350 TIP3     18145    TIP3     H1       HT       0.417000       1.00800           0
     64351 TIP3     18145    TIP3     H2       HT       0.417000       1.00800           0
     64352 TIP3     18146    TIP3     OH2      OT      -0.834000       15.9994           0
     64353 TIP3     18146    TIP3     H1       HT       0.417000       1.00800           0
     64354 TIP3     18146    TIP3     H2       HT       0.417000       1.00800           0
     64355 TIP3     18147    TIP3     OH2      OT      -0.834000       15.9994           0
     64356 TIP3     18147    TIP3     H1       HT       0.417000       1.00800           0
     64357 TIP3     18147    TIP3     H2       HT       0.417000       1.00800           0
     64358 TIP3     18148    TIP3     OH2      OT      -0.834000       15.9994           0
     64359 TIP3     18148    TIP3     H1       HT       0.417000       1.00800           0
     64360 TIP3     18148    TIP3     H2       HT       0.417000       1.00800           0
     64361 TIP3     18149    TIP3     OH2      OT      -0.834000       15.9994           0
     64362 TIP3     18149    TIP3     H1       HT       0.417000       1.00800           0
     64363 TIP3     18149    TIP3     H2       HT       0.417000       1.00800           0
     64364 TIP3     18150    TIP3     OH2      OT      -0.834000       15.9994           0
     64365 TIP3     18150    TIP3     H1       HT       0.417000       1.00800           0
     64366 TIP3     18150    TIP3     H2       HT       0.417000       1.00800           0
     64367 TIP3     18151    TIP3     OH2      OT      -0.834000       15.9994           0
     64368 TIP3     18151    TIP3     H1       HT       0.417000       1.00800           0
     64369 TIP3     18151    TIP3     H2       HT       0.417000       1.00800           0
     64370 TIP3     18152    TIP3     OH2      OT      -0.834000       15.9994           0
     64371 TIP3     18152    TIP3     H1       HT       0.417000       1.00800           0
     64372 TIP3     18152    TIP3     H2       HT       0.417000       1.00800           0
     64373 TIP3     18153    TIP3     OH2      OT      -0.834000       15.9994           0
     64374 TIP3     18153    TIP3     H1       HT       0.417000       1.00800           0
     64375 TIP3     18153    TIP3     H2       HT       0.417000       1.00800           0
     64376 TIP3     18154    TIP3     OH2      OT      -0.834000       15.9994           0
     64377 TIP3     18154    TIP3     H1       HT       0.417000       1.00800           0
     64378 TIP3     18154    TIP3     H2       HT       0.417000       1.00800           0
     64379 TIP3     18155    TIP3     OH2      OT      -0.834000       15.9994           0
     64380 TIP3     18155    TIP3     H1       HT       0.417000       1.00800           0
     64381 TIP3     18155    TIP3     H2       HT       0.417000       1.00800           0
     64382 TIP3     18156    TIP3     OH2      OT      -0.834000       15.9994           0
     64383 TIP3     18156    TIP3     H1       HT       0.417000       1.00800           0
     64384 TIP3     18156    TIP3     H2       HT       0.417000       1.00800           0
     64385 TIP3     18157    TIP3     OH2      OT      -0.834000       15.9994           0
     64386 TIP3     18157    TIP3     H1       HT       0.417000       1.00800           0
     64387 TIP3     18157    TIP3     H2       HT       0.417000       1.00800           0
     64388 TIP3     18158    TIP3     OH2      OT      -0.834000       15.9994           0
     64389 TIP3     18158    TIP3     H1       HT       0.417000       1.00800           0
     64390 TIP3     18158    TIP3     H2       HT       0.417000       1.00800           0
     64391 TIP3     18159    TIP3     OH2      OT      -0.834000       15.9994           0
     64392 TIP3     18159    TIP3     H1       HT       0.417000       1.00800           0
     64393 TIP3     18159    TIP3     H2       HT       0.417000       1.00800           0
     64394 TIP3     18160    TIP3     OH2      OT      -0.834000       15.9994           0
     64395 TIP3     18160    TIP3     H1       HT       0.417000       1.00800           0
     64396 TIP3     18160    TIP3     H2       HT       0.417000       1.00800           0
     64397 TIP3     18161    TIP3     OH2      OT      -0.834000       15.9994           0
     64398 TIP3     18161    TIP3     H1       HT       0.417000       1.00800           0
     64399 TIP3     18161    TIP3     H2       HT       0.417000       1.00800           0
     64400 TIP3     18162    TIP3     OH2      OT      -0.834000       15.9994           0
     64401 TIP3     18162    TIP3     H1       HT       0.417000       1.00800           0
     64402 TIP3     18162    TIP3     H2       HT       0.417000       1.00800           0
     64403 TIP3     18163    TIP3     OH2      OT      -0.834000       15.9994           0
     64404 TIP3     18163    TIP3     H1       HT       0.417000       1.00800           0
     64405 TIP3     18163    TIP3     H2       HT       0.417000       1.00800           0
     64406 TIP3     18164    TIP3     OH2      OT      -0.834000       15.9994           0
     64407 TIP3     18164    TIP3     H1       HT       0.417000       1.00800           0
     64408 TIP3     18164    TIP3     H2       HT       0.417000       1.00800           0
     64409 TIP3     18165    TIP3     OH2      OT      -0.834000       15.9994           0
     64410 TIP3     18165    TIP3     H1       HT       0.417000       1.00800           0
     64411 TIP3     18165    TIP3     H2       HT       0.417000       1.00800           0
     64412 TIP3     18166    TIP3     OH2      OT      -0.834000       15.9994           0
     64413 TIP3     18166    TIP3     H1       HT       0.417000       1.00800           0
     64414 TIP3     18166    TIP3     H2       HT       0.417000       1.00800           0
     64415 TIP3     18167    TIP3     OH2      OT      -0.834000       15.9994           0
     64416 TIP3     18167    TIP3     H1       HT       0.417000       1.00800           0
     64417 TIP3     18167    TIP3     H2       HT       0.417000       1.00800           0
     64418 TIP3     18168    TIP3     OH2      OT      -0.834000       15.9994           0
     64419 TIP3     18168    TIP3     H1       HT       0.417000       1.00800           0
     64420 TIP3     18168    TIP3     H2       HT       0.417000       1.00800           0
     64421 TIP3     18169    TIP3     OH2      OT      -0.834000       15.9994           0
     64422 TIP3     18169    TIP3     H1       HT       0.417000       1.00800           0
     64423 TIP3     18169    TIP3     H2       HT       0.417000       1.00800           0
     64424 TIP3     18170    TIP3     OH2      OT      -0.834000       15.9994           0
     64425 TIP3     18170    TIP3     H1       HT       0.417000       1.00800           0
     64426 TIP3     18170    TIP3     H2       HT       0.417000       1.00800           0
     64427 TIP3     18171    TIP3     OH2      OT      -0.834000       15.9994           0
     64428 TIP3     18171    TIP3     H1       HT       0.417000       1.00800           0
     64429 TIP3     18171    TIP3     H2       HT       0.417000       1.00800           0
     64430 TIP3     18172    TIP3     OH2      OT      -0.834000       15.9994           0
     64431 TIP3     18172    TIP3     H1       HT       0.417000       1.00800           0
     64432 TIP3     18172    TIP3     H2       HT       0.417000       1.00800           0
     64433 TIP3     18173    TIP3     OH2      OT      -0.834000       15.9994           0
     64434 TIP3     18173    TIP3     H1       HT       0.417000       1.00800           0
     64435 TIP3     18173    TIP3     H2       HT       0.417000       1.00800           0
     64436 TIP3     18174    TIP3     OH2      OT      -0.834000       15.9994           0
     64437 TIP3     18174    TIP3     H1       HT       0.417000       1.00800           0
     64438 TIP3     18174    TIP3     H2       HT       0.417000       1.00800           0
     64439 TIP3     18175    TIP3     OH2      OT      -0.834000       15.9994           0
     64440 TIP3     18175    TIP3     H1       HT       0.417000       1.00800           0
     64441 TIP3     18175    TIP3     H2       HT       0.417000       1.00800           0
     64442 TIP3     18176    TIP3     OH2      OT      -0.834000       15.9994           0
     64443 TIP3     18176    TIP3     H1       HT       0.417000       1.00800           0
     64444 TIP3     18176    TIP3     H2       HT       0.417000       1.00800           0
     64445 TIP3     18177    TIP3     OH2      OT      -0.834000       15.9994           0
     64446 TIP3     18177    TIP3     H1       HT       0.417000       1.00800           0
     64447 TIP3     18177    TIP3     H2       HT       0.417000       1.00800           0
     64448 TIP3     18178    TIP3     OH2      OT      -0.834000       15.9994           0
     64449 TIP3     18178    TIP3     H1       HT       0.417000       1.00800           0
     64450 TIP3     18178    TIP3     H2       HT       0.417000       1.00800           0
     64451 TIP3     18179    TIP3     OH2      OT      -0.834000       15.9994           0
     64452 TIP3     18179    TIP3     H1       HT       0.417000       1.00800           0
     64453 TIP3     18179    TIP3     H2       HT       0.417000       1.00800           0
     64454 TIP3     18180    TIP3     OH2      OT      -0.834000       15.9994           0
     64455 TIP3     18180    TIP3     H1       HT       0.417000       1.00800           0
     64456 TIP3     18180    TIP3     H2       HT       0.417000       1.00800           0
     64457 TIP3     18181    TIP3     OH2      OT      -0.834000       15.9994           0
     64458 TIP3     18181    TIP3     H1       HT       0.417000       1.00800           0
     64459 TIP3     18181    TIP3     H2       HT       0.417000       1.00800           0
     64460 TIP3     18182    TIP3     OH2      OT      -0.834000       15.9994           0
     64461 TIP3     18182    TIP3     H1       HT       0.417000       1.00800           0
     64462 TIP3     18182    TIP3     H2       HT       0.417000       1.00800           0
     64463 TIP3     18183    TIP3     OH2      OT      -0.834000       15.9994           0
     64464 TIP3     18183    TIP3     H1       HT       0.417000       1.00800           0
     64465 TIP3     18183    TIP3     H2       HT       0.417000       1.00800           0
     64466 TIP3     18184    TIP3     OH2      OT      -0.834000       15.9994           0
     64467 TIP3     18184    TIP3     H1       HT       0.417000       1.00800           0
     64468 TIP3     18184    TIP3     H2       HT       0.417000       1.00800           0
     64469 TIP3     18185    TIP3     OH2      OT      -0.834000       15.9994           0
     64470 TIP3     18185    TIP3     H1       HT       0.417000       1.00800           0
     64471 TIP3     18185    TIP3     H2       HT       0.417000       1.00800           0
     64472 TIP3     18186    TIP3     OH2      OT      -0.834000       15.9994           0
     64473 TIP3     18186    TIP3     H1       HT       0.417000       1.00800           0
     64474 TIP3     18186    TIP3     H2       HT       0.417000       1.00800           0
     64475 TIP3     18187    TIP3     OH2      OT      -0.834000       15.9994           0
     64476 TIP3     18187    TIP3     H1       HT       0.417000       1.00800           0
     64477 TIP3     18187    TIP3     H2       HT       0.417000       1.00800           0
     64478 TIP3     18188    TIP3     OH2      OT      -0.834000       15.9994           0
     64479 TIP3     18188    TIP3     H1       HT       0.417000       1.00800           0
     64480 TIP3     18188    TIP3     H2       HT       0.417000       1.00800           0
     64481 TIP3     18189    TIP3     OH2      OT      -0.834000       15.9994           0
     64482 TIP3     18189    TIP3     H1       HT       0.417000       1.00800           0
     64483 TIP3     18189    TIP3     H2       HT       0.417000       1.00800           0
     64484 TIP3     18190    TIP3     OH2      OT      -0.834000       15.9994           0
     64485 TIP3     18190    TIP3     H1       HT       0.417000       1.00800           0
     64486 TIP3     18190    TIP3     H2       HT       0.417000       1.00800           0
     64487 TIP3     18191    TIP3     OH2      OT      -0.834000       15.9994           0
     64488 TIP3     18191    TIP3     H1       HT       0.417000       1.00800           0
     64489 TIP3     18191    TIP3     H2       HT       0.417000       1.00800           0
     64490 TIP3     18192    TIP3     OH2      OT      -0.834000       15.9994           0
     64491 TIP3     18192    TIP3     H1       HT       0.417000       1.00800           0
     64492 TIP3     18192    TIP3     H2       HT       0.417000       1.00800           0
     64493 TIP3     18193    TIP3     OH2      OT      -0.834000       15.9994           0
     64494 TIP3     18193    TIP3     H1       HT       0.417000       1.00800           0
     64495 TIP3     18193    TIP3     H2       HT       0.417000       1.00800           0
     64496 TIP3     18194    TIP3     OH2      OT      -0.834000       15.9994           0
     64497 TIP3     18194    TIP3     H1       HT       0.417000       1.00800           0
     64498 TIP3     18194    TIP3     H2       HT       0.417000       1.00800           0
     64499 TIP3     18195    TIP3     OH2      OT      -0.834000       15.9994           0
     64500 TIP3     18195    TIP3     H1       HT       0.417000       1.00800           0
     64501 TIP3     18195    TIP3     H2       HT       0.417000       1.00800           0
     64502 TIP3     18196    TIP3     OH2      OT      -0.834000       15.9994           0
     64503 TIP3     18196    TIP3     H1       HT       0.417000       1.00800           0
     64504 TIP3     18196    TIP3     H2       HT       0.417000       1.00800           0
     64505 TIP3     18197    TIP3     OH2      OT      -0.834000       15.9994           0
     64506 TIP3     18197    TIP3     H1       HT       0.417000       1.00800           0
     64507 TIP3     18197    TIP3     H2       HT       0.417000       1.00800           0
     64508 TIP3     18198    TIP3     OH2      OT      -0.834000       15.9994           0
     64509 TIP3     18198    TIP3     H1       HT       0.417000       1.00800           0
     64510 TIP3     18198    TIP3     H2       HT       0.417000       1.00800           0
     64511 TIP3     18199    TIP3     OH2      OT      -0.834000       15.9994           0
     64512 TIP3     18199    TIP3     H1       HT       0.417000       1.00800           0
     64513 TIP3     18199    TIP3     H2       HT       0.417000       1.00800           0
     64514 TIP3     18200    TIP3     OH2      OT      -0.834000       15.9994           0
     64515 TIP3     18200    TIP3     H1       HT       0.417000       1.00800           0
     64516 TIP3     18200    TIP3     H2       HT       0.417000       1.00800           0
     64517 TIP3     18201    TIP3     OH2      OT      -0.834000       15.9994           0
     64518 TIP3     18201    TIP3     H1       HT       0.417000       1.00800           0
     64519 TIP3     18201    TIP3     H2       HT       0.417000       1.00800           0
     64520 TIP3     18202    TIP3     OH2      OT      -0.834000       15.9994           0
     64521 TIP3     18202    TIP3     H1       HT       0.417000       1.00800           0
     64522 TIP3     18202    TIP3     H2       HT       0.417000       1.00800           0
     64523 TIP3     18203    TIP3     OH2      OT      -0.834000       15.9994           0
     64524 TIP3     18203    TIP3     H1       HT       0.417000       1.00800           0
     64525 TIP3     18203    TIP3     H2       HT       0.417000       1.00800           0
     64526 TIP3     18204    TIP3     OH2      OT      -0.834000       15.9994           0
     64527 TIP3     18204    TIP3     H1       HT       0.417000       1.00800           0
     64528 TIP3     18204    TIP3     H2       HT       0.417000       1.00800           0
     64529 TIP3     18205    TIP3     OH2      OT      -0.834000       15.9994           0
     64530 TIP3     18205    TIP3     H1       HT       0.417000       1.00800           0
     64531 TIP3     18205    TIP3     H2       HT       0.417000       1.00800           0
     64532 TIP3     18206    TIP3     OH2      OT      -0.834000       15.9994           0
     64533 TIP3     18206    TIP3     H1       HT       0.417000       1.00800           0
     64534 TIP3     18206    TIP3     H2       HT       0.417000       1.00800           0
     64535 TIP3     18207    TIP3     OH2      OT      -0.834000       15.9994           0
     64536 TIP3     18207    TIP3     H1       HT       0.417000       1.00800           0
     64537 TIP3     18207    TIP3     H2       HT       0.417000       1.00800           0
     64538 TIP3     18208    TIP3     OH2      OT      -0.834000       15.9994           0
     64539 TIP3     18208    TIP3     H1       HT       0.417000       1.00800           0
     64540 TIP3     18208    TIP3     H2       HT       0.417000       1.00800           0
     64541 TIP3     18209    TIP3     OH2      OT      -0.834000       15.9994           0
     64542 TIP3     18209    TIP3     H1       HT       0.417000       1.00800           0
     64543 TIP3     18209    TIP3     H2       HT       0.417000       1.00800           0
     64544 TIP3     18210    TIP3     OH2      OT      -0.834000       15.9994           0
     64545 TIP3     18210    TIP3     H1       HT       0.417000       1.00800           0
     64546 TIP3     18210    TIP3     H2       HT       0.417000       1.00800           0
     64547 TIP3     18211    TIP3     OH2      OT      -0.834000       15.9994           0
     64548 TIP3     18211    TIP3     H1       HT       0.417000       1.00800           0
     64549 TIP3     18211    TIP3     H2       HT       0.417000       1.00800           0
     64550 TIP3     18212    TIP3     OH2      OT      -0.834000       15.9994           0
     64551 TIP3     18212    TIP3     H1       HT       0.417000       1.00800           0
     64552 TIP3     18212    TIP3     H2       HT       0.417000       1.00800           0
     64553 TIP3     18213    TIP3     OH2      OT      -0.834000       15.9994           0
     64554 TIP3     18213    TIP3     H1       HT       0.417000       1.00800           0
     64555 TIP3     18213    TIP3     H2       HT       0.417000       1.00800           0
     64556 TIP3     18214    TIP3     OH2      OT      -0.834000       15.9994           0
     64557 TIP3     18214    TIP3     H1       HT       0.417000       1.00800           0
     64558 TIP3     18214    TIP3     H2       HT       0.417000       1.00800           0
     64559 TIP3     18215    TIP3     OH2      OT      -0.834000       15.9994           0
     64560 TIP3     18215    TIP3     H1       HT       0.417000       1.00800           0
     64561 TIP3     18215    TIP3     H2       HT       0.417000       1.00800           0
     64562 TIP3     18216    TIP3     OH2      OT      -0.834000       15.9994           0
     64563 TIP3     18216    TIP3     H1       HT       0.417000       1.00800           0
     64564 TIP3     18216    TIP3     H2       HT       0.417000       1.00800           0
     64565 TIP3     18217    TIP3     OH2      OT      -0.834000       15.9994           0
     64566 TIP3     18217    TIP3     H1       HT       0.417000       1.00800           0
     64567 TIP3     18217    TIP3     H2       HT       0.417000       1.00800           0
     64568 TIP3     18218    TIP3     OH2      OT      -0.834000       15.9994           0
     64569 TIP3     18218    TIP3     H1       HT       0.417000       1.00800           0
     64570 TIP3     18218    TIP3     H2       HT       0.417000       1.00800           0
     64571 TIP3     18219    TIP3     OH2      OT      -0.834000       15.9994           0
     64572 TIP3     18219    TIP3     H1       HT       0.417000       1.00800           0
     64573 TIP3     18219    TIP3     H2       HT       0.417000       1.00800           0
     64574 TIP3     18220    TIP3     OH2      OT      -0.834000       15.9994           0
     64575 TIP3     18220    TIP3     H1       HT       0.417000       1.00800           0
     64576 TIP3     18220    TIP3     H2       HT       0.417000       1.00800           0
     64577 TIP3     18221    TIP3     OH2      OT      -0.834000       15.9994           0
     64578 TIP3     18221    TIP3     H1       HT       0.417000       1.00800           0
     64579 TIP3     18221    TIP3     H2       HT       0.417000       1.00800           0
     64580 TIP3     18222    TIP3     OH2      OT      -0.834000       15.9994           0
     64581 TIP3     18222    TIP3     H1       HT       0.417000       1.00800           0
     64582 TIP3     18222    TIP3     H2       HT       0.417000       1.00800           0
     64583 TIP3     18223    TIP3     OH2      OT      -0.834000       15.9994           0
     64584 TIP3     18223    TIP3     H1       HT       0.417000       1.00800           0
     64585 TIP3     18223    TIP3     H2       HT       0.417000       1.00800           0
     64586 TIP3     18224    TIP3     OH2      OT      -0.834000       15.9994           0
     64587 TIP3     18224    TIP3     H1       HT       0.417000       1.00800           0
     64588 TIP3     18224    TIP3     H2       HT       0.417000       1.00800           0
     64589 TIP3     18225    TIP3     OH2      OT      -0.834000       15.9994           0
     64590 TIP3     18225    TIP3     H1       HT       0.417000       1.00800           0
     64591 TIP3     18225    TIP3     H2       HT       0.417000       1.00800           0
     64592 TIP3     18226    TIP3     OH2      OT      -0.834000       15.9994           0
     64593 TIP3     18226    TIP3     H1       HT       0.417000       1.00800           0
     64594 TIP3     18226    TIP3     H2       HT       0.417000       1.00800           0
     64595 TIP3     18227    TIP3     OH2      OT      -0.834000       15.9994           0
     64596 TIP3     18227    TIP3     H1       HT       0.417000       1.00800           0
     64597 TIP3     18227    TIP3     H2       HT       0.417000       1.00800           0
     64598 TIP3     18228    TIP3     OH2      OT      -0.834000       15.9994           0
     64599 TIP3     18228    TIP3     H1       HT       0.417000       1.00800           0
     64600 TIP3     18228    TIP3     H2       HT       0.417000       1.00800           0
     64601 TIP3     18229    TIP3     OH2      OT      -0.834000       15.9994           0
     64602 TIP3     18229    TIP3     H1       HT       0.417000       1.00800           0
     64603 TIP3     18229    TIP3     H2       HT       0.417000       1.00800           0
     64604 TIP3     18230    TIP3     OH2      OT      -0.834000       15.9994           0
     64605 TIP3     18230    TIP3     H1       HT       0.417000       1.00800           0
     64606 TIP3     18230    TIP3     H2       HT       0.417000       1.00800           0
     64607 TIP3     18231    TIP3     OH2      OT      -0.834000       15.9994           0
     64608 TIP3     18231    TIP3     H1       HT       0.417000       1.00800           0
     64609 TIP3     18231    TIP3     H2       HT       0.417000       1.00800           0
     64610 TIP3     18232    TIP3     OH2      OT      -0.834000       15.9994           0
     64611 TIP3     18232    TIP3     H1       HT       0.417000       1.00800           0
     64612 TIP3     18232    TIP3     H2       HT       0.417000       1.00800           0
     64613 TIP3     18233    TIP3     OH2      OT      -0.834000       15.9994           0
     64614 TIP3     18233    TIP3     H1       HT       0.417000       1.00800           0
     64615 TIP3     18233    TIP3     H2       HT       0.417000       1.00800           0
     64616 TIP3     18234    TIP3     OH2      OT      -0.834000       15.9994           0
     64617 TIP3     18234    TIP3     H1       HT       0.417000       1.00800           0
     64618 TIP3     18234    TIP3     H2       HT       0.417000       1.00800           0
     64619 TIP3     18235    TIP3     OH2      OT      -0.834000       15.9994           0
     64620 TIP3     18235    TIP3     H1       HT       0.417000       1.00800           0
     64621 TIP3     18235    TIP3     H2       HT       0.417000       1.00800           0
     64622 TIP3     18236    TIP3     OH2      OT      -0.834000       15.9994           0
     64623 TIP3     18236    TIP3     H1       HT       0.417000       1.00800           0
     64624 TIP3     18236    TIP3     H2       HT       0.417000       1.00800           0
     64625 TIP3     18237    TIP3     OH2      OT      -0.834000       15.9994           0
     64626 TIP3     18237    TIP3     H1       HT       0.417000       1.00800           0
     64627 TIP3     18237    TIP3     H2       HT       0.417000       1.00800           0
     64628 TIP3     18238    TIP3     OH2      OT      -0.834000       15.9994           0
     64629 TIP3     18238    TIP3     H1       HT       0.417000       1.00800           0
     64630 TIP3     18238    TIP3     H2       HT       0.417000       1.00800           0
     64631 TIP3     18239    TIP3     OH2      OT      -0.834000       15.9994           0
     64632 TIP3     18239    TIP3     H1       HT       0.417000       1.00800           0
     64633 TIP3     18239    TIP3     H2       HT       0.417000       1.00800           0
     64634 TIP3     18240    TIP3     OH2      OT      -0.834000       15.9994           0
     64635 TIP3     18240    TIP3     H1       HT       0.417000       1.00800           0
     64636 TIP3     18240    TIP3     H2       HT       0.417000       1.00800           0
     64637 TIP3     18241    TIP3     OH2      OT      -0.834000       15.9994           0
     64638 TIP3     18241    TIP3     H1       HT       0.417000       1.00800           0
     64639 TIP3     18241    TIP3     H2       HT       0.417000       1.00800           0
     64640 TIP3     18242    TIP3     OH2      OT      -0.834000       15.9994           0
     64641 TIP3     18242    TIP3     H1       HT       0.417000       1.00800           0
     64642 TIP3     18242    TIP3     H2       HT       0.417000       1.00800           0
     64643 TIP3     18243    TIP3     OH2      OT      -0.834000       15.9994           0
     64644 TIP3     18243    TIP3     H1       HT       0.417000       1.00800           0
     64645 TIP3     18243    TIP3     H2       HT       0.417000       1.00800           0
     64646 TIP3     18244    TIP3     OH2      OT      -0.834000       15.9994           0
     64647 TIP3     18244    TIP3     H1       HT       0.417000       1.00800           0
     64648 TIP3     18244    TIP3     H2       HT       0.417000       1.00800           0
     64649 TIP3     18245    TIP3     OH2      OT      -0.834000       15.9994           0
     64650 TIP3     18245    TIP3     H1       HT       0.417000       1.00800           0
     64651 TIP3     18245    TIP3     H2       HT       0.417000       1.00800           0
     64652 TIP3     18246    TIP3     OH2      OT      -0.834000       15.9994           0
     64653 TIP3     18246    TIP3     H1       HT       0.417000       1.00800           0
     64654 TIP3     18246    TIP3     H2       HT       0.417000       1.00800           0
     64655 TIP3     18247    TIP3     OH2      OT      -0.834000       15.9994           0
     64656 TIP3     18247    TIP3     H1       HT       0.417000       1.00800           0
     64657 TIP3     18247    TIP3     H2       HT       0.417000       1.00800           0
     64658 TIP3     18248    TIP3     OH2      OT      -0.834000       15.9994           0
     64659 TIP3     18248    TIP3     H1       HT       0.417000       1.00800           0
     64660 TIP3     18248    TIP3     H2       HT       0.417000       1.00800           0
     64661 TIP3     18249    TIP3     OH2      OT      -0.834000       15.9994           0
     64662 TIP3     18249    TIP3     H1       HT       0.417000       1.00800           0
     64663 TIP3     18249    TIP3     H2       HT       0.417000       1.00800           0
     64664 TIP3     18250    TIP3     OH2      OT      -0.834000       15.9994           0
     64665 TIP3     18250    TIP3     H1       HT       0.417000       1.00800           0
     64666 TIP3     18250    TIP3     H2       HT       0.417000       1.00800           0
     64667 TIP3     18251    TIP3     OH2      OT      -0.834000       15.9994           0
     64668 TIP3     18251    TIP3     H1       HT       0.417000       1.00800           0
     64669 TIP3     18251    TIP3     H2       HT       0.417000       1.00800           0
     64670 TIP3     18252    TIP3     OH2      OT      -0.834000       15.9994           0
     64671 TIP3     18252    TIP3     H1       HT       0.417000       1.00800           0
     64672 TIP3     18252    TIP3     H2       HT       0.417000       1.00800           0
     64673 TIP3     18253    TIP3     OH2      OT      -0.834000       15.9994           0
     64674 TIP3     18253    TIP3     H1       HT       0.417000       1.00800           0
     64675 TIP3     18253    TIP3     H2       HT       0.417000       1.00800           0
     64676 TIP3     18254    TIP3     OH2      OT      -0.834000       15.9994           0
     64677 TIP3     18254    TIP3     H1       HT       0.417000       1.00800           0
     64678 TIP3     18254    TIP3     H2       HT       0.417000       1.00800           0
     64679 TIP3     18255    TIP3     OH2      OT      -0.834000       15.9994           0
     64680 TIP3     18255    TIP3     H1       HT       0.417000       1.00800           0
     64681 TIP3     18255    TIP3     H2       HT       0.417000       1.00800           0
     64682 TIP3     18256    TIP3     OH2      OT      -0.834000       15.9994           0
     64683 TIP3     18256    TIP3     H1       HT       0.417000       1.00800           0
     64684 TIP3     18256    TIP3     H2       HT       0.417000       1.00800           0
     64685 TIP3     18257    TIP3     OH2      OT      -0.834000       15.9994           0
     64686 TIP3     18257    TIP3     H1       HT       0.417000       1.00800           0
     64687 TIP3     18257    TIP3     H2       HT       0.417000       1.00800           0
     64688 TIP3     18258    TIP3     OH2      OT      -0.834000       15.9994           0
     64689 TIP3     18258    TIP3     H1       HT       0.417000       1.00800           0
     64690 TIP3     18258    TIP3     H2       HT       0.417000       1.00800           0
     64691 TIP3     18259    TIP3     OH2      OT      -0.834000       15.9994           0
     64692 TIP3     18259    TIP3     H1       HT       0.417000       1.00800           0
     64693 TIP3     18259    TIP3     H2       HT       0.417000       1.00800           0
     64694 TIP3     18260    TIP3     OH2      OT      -0.834000       15.9994           0
     64695 TIP3     18260    TIP3     H1       HT       0.417000       1.00800           0
     64696 TIP3     18260    TIP3     H2       HT       0.417000       1.00800           0
     64697 TIP3     18261    TIP3     OH2      OT      -0.834000       15.9994           0
     64698 TIP3     18261    TIP3     H1       HT       0.417000       1.00800           0
     64699 TIP3     18261    TIP3     H2       HT       0.417000       1.00800           0
     64700 TIP3     18262    TIP3     OH2      OT      -0.834000       15.9994           0
     64701 TIP3     18262    TIP3     H1       HT       0.417000       1.00800           0
     64702 TIP3     18262    TIP3     H2       HT       0.417000       1.00800           0
     64703 TIP3     18263    TIP3     OH2      OT      -0.834000       15.9994           0
     64704 TIP3     18263    TIP3     H1       HT       0.417000       1.00800           0
     64705 TIP3     18263    TIP3     H2       HT       0.417000       1.00800           0
     64706 TIP3     18264    TIP3     OH2      OT      -0.834000       15.9994           0
     64707 TIP3     18264    TIP3     H1       HT       0.417000       1.00800           0
     64708 TIP3     18264    TIP3     H2       HT       0.417000       1.00800           0
     64709 TIP3     18265    TIP3     OH2      OT      -0.834000       15.9994           0
     64710 TIP3     18265    TIP3     H1       HT       0.417000       1.00800           0
     64711 TIP3     18265    TIP3     H2       HT       0.417000       1.00800           0
     64712 TIP3     18266    TIP3     OH2      OT      -0.834000       15.9994           0
     64713 TIP3     18266    TIP3     H1       HT       0.417000       1.00800           0
     64714 TIP3     18266    TIP3     H2       HT       0.417000       1.00800           0
     64715 TIP3     18267    TIP3     OH2      OT      -0.834000       15.9994           0
     64716 TIP3     18267    TIP3     H1       HT       0.417000       1.00800           0
     64717 TIP3     18267    TIP3     H2       HT       0.417000       1.00800           0
     64718 TIP3     18268    TIP3     OH2      OT      -0.834000       15.9994           0
     64719 TIP3     18268    TIP3     H1       HT       0.417000       1.00800           0
     64720 TIP3     18268    TIP3     H2       HT       0.417000       1.00800           0
     64721 TIP3     18269    TIP3     OH2      OT      -0.834000       15.9994           0
     64722 TIP3     18269    TIP3     H1       HT       0.417000       1.00800           0
     64723 TIP3     18269    TIP3     H2       HT       0.417000       1.00800           0
     64724 TIP3     18270    TIP3     OH2      OT      -0.834000       15.9994           0
     64725 TIP3     18270    TIP3     H1       HT       0.417000       1.00800           0
     64726 TIP3     18270    TIP3     H2       HT       0.417000       1.00800           0
     64727 TIP3     18271    TIP3     OH2      OT      -0.834000       15.9994           0
     64728 TIP3     18271    TIP3     H1       HT       0.417000       1.00800           0
     64729 TIP3     18271    TIP3     H2       HT       0.417000       1.00800           0
     64730 TIP3     18272    TIP3     OH2      OT      -0.834000       15.9994           0
     64731 TIP3     18272    TIP3     H1       HT       0.417000       1.00800           0
     64732 TIP3     18272    TIP3     H2       HT       0.417000       1.00800           0
     64733 TIP3     18273    TIP3     OH2      OT      -0.834000       15.9994           0
     64734 TIP3     18273    TIP3     H1       HT       0.417000       1.00800           0
     64735 TIP3     18273    TIP3     H2       HT       0.417000       1.00800           0
     64736 TIP3     18274    TIP3     OH2      OT      -0.834000       15.9994           0
     64737 TIP3     18274    TIP3     H1       HT       0.417000       1.00800           0
     64738 TIP3     18274    TIP3     H2       HT       0.417000       1.00800           0
     64739 TIP3     18275    TIP3     OH2      OT      -0.834000       15.9994           0
     64740 TIP3     18275    TIP3     H1       HT       0.417000       1.00800           0
     64741 TIP3     18275    TIP3     H2       HT       0.417000       1.00800           0
     64742 TIP3     18276    TIP3     OH2      OT      -0.834000       15.9994           0
     64743 TIP3     18276    TIP3     H1       HT       0.417000       1.00800           0
     64744 TIP3     18276    TIP3     H2       HT       0.417000       1.00800           0
     64745 TIP3     18277    TIP3     OH2      OT      -0.834000       15.9994           0
     64746 TIP3     18277    TIP3     H1       HT       0.417000       1.00800           0
     64747 TIP3     18277    TIP3     H2       HT       0.417000       1.00800           0
     64748 TIP3     18278    TIP3     OH2      OT      -0.834000       15.9994           0
     64749 TIP3     18278    TIP3     H1       HT       0.417000       1.00800           0
     64750 TIP3     18278    TIP3     H2       HT       0.417000       1.00800           0
     64751 TIP3     18279    TIP3     OH2      OT      -0.834000       15.9994           0
     64752 TIP3     18279    TIP3     H1       HT       0.417000       1.00800           0
     64753 TIP3     18279    TIP3     H2       HT       0.417000       1.00800           0
     64754 TIP3     18280    TIP3     OH2      OT      -0.834000       15.9994           0
     64755 TIP3     18280    TIP3     H1       HT       0.417000       1.00800           0
     64756 TIP3     18280    TIP3     H2       HT       0.417000       1.00800           0
     64757 TIP3     18281    TIP3     OH2      OT      -0.834000       15.9994           0
     64758 TIP3     18281    TIP3     H1       HT       0.417000       1.00800           0
     64759 TIP3     18281    TIP3     H2       HT       0.417000       1.00800           0
     64760 TIP3     18282    TIP3     OH2      OT      -0.834000       15.9994           0
     64761 TIP3     18282    TIP3     H1       HT       0.417000       1.00800           0
     64762 TIP3     18282    TIP3     H2       HT       0.417000       1.00800           0
     64763 TIP3     18283    TIP3     OH2      OT      -0.834000       15.9994           0
     64764 TIP3     18283    TIP3     H1       HT       0.417000       1.00800           0
     64765 TIP3     18283    TIP3     H2       HT       0.417000       1.00800           0
     64766 TIP3     18284    TIP3     OH2      OT      -0.834000       15.9994           0
     64767 TIP3     18284    TIP3     H1       HT       0.417000       1.00800           0
     64768 TIP3     18284    TIP3     H2       HT       0.417000       1.00800           0
     64769 TIP3     18285    TIP3     OH2      OT      -0.834000       15.9994           0
     64770 TIP3     18285    TIP3     H1       HT       0.417000       1.00800           0
     64771 TIP3     18285    TIP3     H2       HT       0.417000       1.00800           0
     64772 TIP3     18286    TIP3     OH2      OT      -0.834000       15.9994           0
     64773 TIP3     18286    TIP3     H1       HT       0.417000       1.00800           0
     64774 TIP3     18286    TIP3     H2       HT       0.417000       1.00800           0
     64775 TIP3     18287    TIP3     OH2      OT      -0.834000       15.9994           0
     64776 TIP3     18287    TIP3     H1       HT       0.417000       1.00800           0
     64777 TIP3     18287    TIP3     H2       HT       0.417000       1.00800           0
     64778 TIP3     18288    TIP3     OH2      OT      -0.834000       15.9994           0
     64779 TIP3     18288    TIP3     H1       HT       0.417000       1.00800           0
     64780 TIP3     18288    TIP3     H2       HT       0.417000       1.00800           0
     64781 TIP3     18289    TIP3     OH2      OT      -0.834000       15.9994           0
     64782 TIP3     18289    TIP3     H1       HT       0.417000       1.00800           0
     64783 TIP3     18289    TIP3     H2       HT       0.417000       1.00800           0
     64784 TIP3     18290    TIP3     OH2      OT      -0.834000       15.9994           0
     64785 TIP3     18290    TIP3     H1       HT       0.417000       1.00800           0
     64786 TIP3     18290    TIP3     H2       HT       0.417000       1.00800           0
     64787 TIP3     18291    TIP3     OH2      OT      -0.834000       15.9994           0
     64788 TIP3     18291    TIP3     H1       HT       0.417000       1.00800           0
     64789 TIP3     18291    TIP3     H2       HT       0.417000       1.00800           0
     64790 TIP3     18292    TIP3     OH2      OT      -0.834000       15.9994           0
     64791 TIP3     18292    TIP3     H1       HT       0.417000       1.00800           0
     64792 TIP3     18292    TIP3     H2       HT       0.417000       1.00800           0
     64793 TIP3     18293    TIP3     OH2      OT      -0.834000       15.9994           0
     64794 TIP3     18293    TIP3     H1       HT       0.417000       1.00800           0
     64795 TIP3     18293    TIP3     H2       HT       0.417000       1.00800           0
     64796 TIP3     18294    TIP3     OH2      OT      -0.834000       15.9994           0
     64797 TIP3     18294    TIP3     H1       HT       0.417000       1.00800           0
     64798 TIP3     18294    TIP3     H2       HT       0.417000       1.00800           0
     64799 TIP3     18295    TIP3     OH2      OT      -0.834000       15.9994           0
     64800 TIP3     18295    TIP3     H1       HT       0.417000       1.00800           0
     64801 TIP3     18295    TIP3     H2       HT       0.417000       1.00800           0
     64802 TIP3     18296    TIP3     OH2      OT      -0.834000       15.9994           0
     64803 TIP3     18296    TIP3     H1       HT       0.417000       1.00800           0
     64804 TIP3     18296    TIP3     H2       HT       0.417000       1.00800           0
     64805 TIP3     18297    TIP3     OH2      OT      -0.834000       15.9994           0
     64806 TIP3     18297    TIP3     H1       HT       0.417000       1.00800           0
     64807 TIP3     18297    TIP3     H2       HT       0.417000       1.00800           0
     64808 TIP3     18298    TIP3     OH2      OT      -0.834000       15.9994           0
     64809 TIP3     18298    TIP3     H1       HT       0.417000       1.00800           0
     64810 TIP3     18298    TIP3     H2       HT       0.417000       1.00800           0
     64811 TIP3     18299    TIP3     OH2      OT      -0.834000       15.9994           0
     64812 TIP3     18299    TIP3     H1       HT       0.417000       1.00800           0
     64813 TIP3     18299    TIP3     H2       HT       0.417000       1.00800           0
     64814 TIP3     18300    TIP3     OH2      OT      -0.834000       15.9994           0
     64815 TIP3     18300    TIP3     H1       HT       0.417000       1.00800           0
     64816 TIP3     18300    TIP3     H2       HT       0.417000       1.00800           0
     64817 TIP3     18301    TIP3     OH2      OT      -0.834000       15.9994           0
     64818 TIP3     18301    TIP3     H1       HT       0.417000       1.00800           0
     64819 TIP3     18301    TIP3     H2       HT       0.417000       1.00800           0
     64820 TIP3     18302    TIP3     OH2      OT      -0.834000       15.9994           0
     64821 TIP3     18302    TIP3     H1       HT       0.417000       1.00800           0
     64822 TIP3     18302    TIP3     H2       HT       0.417000       1.00800           0
     64823 TIP3     18303    TIP3     OH2      OT      -0.834000       15.9994           0
     64824 TIP3     18303    TIP3     H1       HT       0.417000       1.00800           0
     64825 TIP3     18303    TIP3     H2       HT       0.417000       1.00800           0
     64826 TIP3     18304    TIP3     OH2      OT      -0.834000       15.9994           0
     64827 TIP3     18304    TIP3     H1       HT       0.417000       1.00800           0
     64828 TIP3     18304    TIP3     H2       HT       0.417000       1.00800           0
     64829 TIP3     18305    TIP3     OH2      OT      -0.834000       15.9994           0
     64830 TIP3     18305    TIP3     H1       HT       0.417000       1.00800           0
     64831 TIP3     18305    TIP3     H2       HT       0.417000       1.00800           0
     64832 TIP3     18306    TIP3     OH2      OT      -0.834000       15.9994           0
     64833 TIP3     18306    TIP3     H1       HT       0.417000       1.00800           0
     64834 TIP3     18306    TIP3     H2       HT       0.417000       1.00800           0
     64835 TIP3     18307    TIP3     OH2      OT      -0.834000       15.9994           0
     64836 TIP3     18307    TIP3     H1       HT       0.417000       1.00800           0
     64837 TIP3     18307    TIP3     H2       HT       0.417000       1.00800           0
     64838 TIP3     18308    TIP3     OH2      OT      -0.834000       15.9994           0
     64839 TIP3     18308    TIP3     H1       HT       0.417000       1.00800           0
     64840 TIP3     18308    TIP3     H2       HT       0.417000       1.00800           0
     64841 TIP3     18309    TIP3     OH2      OT      -0.834000       15.9994           0
     64842 TIP3     18309    TIP3     H1       HT       0.417000       1.00800           0
     64843 TIP3     18309    TIP3     H2       HT       0.417000       1.00800           0
     64844 TIP3     18310    TIP3     OH2      OT      -0.834000       15.9994           0
     64845 TIP3     18310    TIP3     H1       HT       0.417000       1.00800           0
     64846 TIP3     18310    TIP3     H2       HT       0.417000       1.00800           0
     64847 TIP3     18311    TIP3     OH2      OT      -0.834000       15.9994           0
     64848 TIP3     18311    TIP3     H1       HT       0.417000       1.00800           0
     64849 TIP3     18311    TIP3     H2       HT       0.417000       1.00800           0
     64850 TIP3     18312    TIP3     OH2      OT      -0.834000       15.9994           0
     64851 TIP3     18312    TIP3     H1       HT       0.417000       1.00800           0
     64852 TIP3     18312    TIP3     H2       HT       0.417000       1.00800           0
     64853 TIP3     18313    TIP3     OH2      OT      -0.834000       15.9994           0
     64854 TIP3     18313    TIP3     H1       HT       0.417000       1.00800           0
     64855 TIP3     18313    TIP3     H2       HT       0.417000       1.00800           0
     64856 TIP3     18314    TIP3     OH2      OT      -0.834000       15.9994           0
     64857 TIP3     18314    TIP3     H1       HT       0.417000       1.00800           0
     64858 TIP3     18314    TIP3     H2       HT       0.417000       1.00800           0
     64859 TIP3     18315    TIP3     OH2      OT      -0.834000       15.9994           0
     64860 TIP3     18315    TIP3     H1       HT       0.417000       1.00800           0
     64861 TIP3     18315    TIP3     H2       HT       0.417000       1.00800           0
     64862 TIP3     18316    TIP3     OH2      OT      -0.834000       15.9994           0
     64863 TIP3     18316    TIP3     H1       HT       0.417000       1.00800           0
     64864 TIP3     18316    TIP3     H2       HT       0.417000       1.00800           0
     64865 TIP3     18317    TIP3     OH2      OT      -0.834000       15.9994           0
     64866 TIP3     18317    TIP3     H1       HT       0.417000       1.00800           0
     64867 TIP3     18317    TIP3     H2       HT       0.417000       1.00800           0
     64868 TIP3     18318    TIP3     OH2      OT      -0.834000       15.9994           0
     64869 TIP3     18318    TIP3     H1       HT       0.417000       1.00800           0
     64870 TIP3     18318    TIP3     H2       HT       0.417000       1.00800           0
     64871 TIP3     18319    TIP3     OH2      OT      -0.834000       15.9994           0
     64872 TIP3     18319    TIP3     H1       HT       0.417000       1.00800           0
     64873 TIP3     18319    TIP3     H2       HT       0.417000       1.00800           0
     64874 TIP3     18320    TIP3     OH2      OT      -0.834000       15.9994           0
     64875 TIP3     18320    TIP3     H1       HT       0.417000       1.00800           0
     64876 TIP3     18320    TIP3     H2       HT       0.417000       1.00800           0
     64877 TIP3     18321    TIP3     OH2      OT      -0.834000       15.9994           0
     64878 TIP3     18321    TIP3     H1       HT       0.417000       1.00800           0
     64879 TIP3     18321    TIP3     H2       HT       0.417000       1.00800           0
     64880 TIP3     18322    TIP3     OH2      OT      -0.834000       15.9994           0
     64881 TIP3     18322    TIP3     H1       HT       0.417000       1.00800           0
     64882 TIP3     18322    TIP3     H2       HT       0.417000       1.00800           0
     64883 TIP3     18323    TIP3     OH2      OT      -0.834000       15.9994           0
     64884 TIP3     18323    TIP3     H1       HT       0.417000       1.00800           0
     64885 TIP3     18323    TIP3     H2       HT       0.417000       1.00800           0
     64886 TIP3     18324    TIP3     OH2      OT      -0.834000       15.9994           0
     64887 TIP3     18324    TIP3     H1       HT       0.417000       1.00800           0
     64888 TIP3     18324    TIP3     H2       HT       0.417000       1.00800           0
     64889 TIP3     18325    TIP3     OH2      OT      -0.834000       15.9994           0
     64890 TIP3     18325    TIP3     H1       HT       0.417000       1.00800           0
     64891 TIP3     18325    TIP3     H2       HT       0.417000       1.00800           0
     64892 TIP3     18326    TIP3     OH2      OT      -0.834000       15.9994           0
     64893 TIP3     18326    TIP3     H1       HT       0.417000       1.00800           0
     64894 TIP3     18326    TIP3     H2       HT       0.417000       1.00800           0
     64895 TIP3     18327    TIP3     OH2      OT      -0.834000       15.9994           0
     64896 TIP3     18327    TIP3     H1       HT       0.417000       1.00800           0
     64897 TIP3     18327    TIP3     H2       HT       0.417000       1.00800           0
     64898 TIP3     18328    TIP3     OH2      OT      -0.834000       15.9994           0
     64899 TIP3     18328    TIP3     H1       HT       0.417000       1.00800           0
     64900 TIP3     18328    TIP3     H2       HT       0.417000       1.00800           0
     64901 TIP3     18329    TIP3     OH2      OT      -0.834000       15.9994           0
     64902 TIP3     18329    TIP3     H1       HT       0.417000       1.00800           0
     64903 TIP3     18329    TIP3     H2       HT       0.417000       1.00800           0
     64904 TIP3     18330    TIP3     OH2      OT      -0.834000       15.9994           0
     64905 TIP3     18330    TIP3     H1       HT       0.417000       1.00800           0
     64906 TIP3     18330    TIP3     H2       HT       0.417000       1.00800           0
     64907 TIP3     18331    TIP3     OH2      OT      -0.834000       15.9994           0
     64908 TIP3     18331    TIP3     H1       HT       0.417000       1.00800           0
     64909 TIP3     18331    TIP3     H2       HT       0.417000       1.00800           0
     64910 TIP3     18332    TIP3     OH2      OT      -0.834000       15.9994           0
     64911 TIP3     18332    TIP3     H1       HT       0.417000       1.00800           0
     64912 TIP3     18332    TIP3     H2       HT       0.417000       1.00800           0
     64913 TIP3     18333    TIP3     OH2      OT      -0.834000       15.9994           0
     64914 TIP3     18333    TIP3     H1       HT       0.417000       1.00800           0
     64915 TIP3     18333    TIP3     H2       HT       0.417000       1.00800           0
     64916 TIP3     18334    TIP3     OH2      OT      -0.834000       15.9994           0
     64917 TIP3     18334    TIP3     H1       HT       0.417000       1.00800           0
     64918 TIP3     18334    TIP3     H2       HT       0.417000       1.00800           0
     64919 TIP3     18335    TIP3     OH2      OT      -0.834000       15.9994           0
     64920 TIP3     18335    TIP3     H1       HT       0.417000       1.00800           0
     64921 TIP3     18335    TIP3     H2       HT       0.417000       1.00800           0
     64922 TIP3     18336    TIP3     OH2      OT      -0.834000       15.9994           0
     64923 TIP3     18336    TIP3     H1       HT       0.417000       1.00800           0
     64924 TIP3     18336    TIP3     H2       HT       0.417000       1.00800           0
     64925 TIP3     18337    TIP3     OH2      OT      -0.834000       15.9994           0
     64926 TIP3     18337    TIP3     H1       HT       0.417000       1.00800           0
     64927 TIP3     18337    TIP3     H2       HT       0.417000       1.00800           0
     64928 TIP3     18338    TIP3     OH2      OT      -0.834000       15.9994           0
     64929 TIP3     18338    TIP3     H1       HT       0.417000       1.00800           0
     64930 TIP3     18338    TIP3     H2       HT       0.417000       1.00800           0
     64931 TIP3     18339    TIP3     OH2      OT      -0.834000       15.9994           0
     64932 TIP3     18339    TIP3     H1       HT       0.417000       1.00800           0
     64933 TIP3     18339    TIP3     H2       HT       0.417000       1.00800           0
     64934 TIP3     18340    TIP3     OH2      OT      -0.834000       15.9994           0
     64935 TIP3     18340    TIP3     H1       HT       0.417000       1.00800           0
     64936 TIP3     18340    TIP3     H2       HT       0.417000       1.00800           0
     64937 TIP3     18341    TIP3     OH2      OT      -0.834000       15.9994           0
     64938 TIP3     18341    TIP3     H1       HT       0.417000       1.00800           0
     64939 TIP3     18341    TIP3     H2       HT       0.417000       1.00800           0
     64940 TIP3     18342    TIP3     OH2      OT      -0.834000       15.9994           0
     64941 TIP3     18342    TIP3     H1       HT       0.417000       1.00800           0
     64942 TIP3     18342    TIP3     H2       HT       0.417000       1.00800           0
     64943 TIP3     18343    TIP3     OH2      OT      -0.834000       15.9994           0
     64944 TIP3     18343    TIP3     H1       HT       0.417000       1.00800           0
     64945 TIP3     18343    TIP3     H2       HT       0.417000       1.00800           0
     64946 TIP3     18344    TIP3     OH2      OT      -0.834000       15.9994           0
     64947 TIP3     18344    TIP3     H1       HT       0.417000       1.00800           0
     64948 TIP3     18344    TIP3     H2       HT       0.417000       1.00800           0
     64949 TIP3     18345    TIP3     OH2      OT      -0.834000       15.9994           0
     64950 TIP3     18345    TIP3     H1       HT       0.417000       1.00800           0
     64951 TIP3     18345    TIP3     H2       HT       0.417000       1.00800           0
     64952 TIP3     18346    TIP3     OH2      OT      -0.834000       15.9994           0
     64953 TIP3     18346    TIP3     H1       HT       0.417000       1.00800           0
     64954 TIP3     18346    TIP3     H2       HT       0.417000       1.00800           0
     64955 TIP3     18347    TIP3     OH2      OT      -0.834000       15.9994           0
     64956 TIP3     18347    TIP3     H1       HT       0.417000       1.00800           0
     64957 TIP3     18347    TIP3     H2       HT       0.417000       1.00800           0
     64958 TIP3     18348    TIP3     OH2      OT      -0.834000       15.9994           0
     64959 TIP3     18348    TIP3     H1       HT       0.417000       1.00800           0
     64960 TIP3     18348    TIP3     H2       HT       0.417000       1.00800           0
     64961 TIP3     18349    TIP3     OH2      OT      -0.834000       15.9994           0
     64962 TIP3     18349    TIP3     H1       HT       0.417000       1.00800           0
     64963 TIP3     18349    TIP3     H2       HT       0.417000       1.00800           0
     64964 TIP3     18350    TIP3     OH2      OT      -0.834000       15.9994           0
     64965 TIP3     18350    TIP3     H1       HT       0.417000       1.00800           0
     64966 TIP3     18350    TIP3     H2       HT       0.417000       1.00800           0
     64967 TIP3     18351    TIP3     OH2      OT      -0.834000       15.9994           0
     64968 TIP3     18351    TIP3     H1       HT       0.417000       1.00800           0
     64969 TIP3     18351    TIP3     H2       HT       0.417000       1.00800           0
     64970 TIP3     18352    TIP3     OH2      OT      -0.834000       15.9994           0
     64971 TIP3     18352    TIP3     H1       HT       0.417000       1.00800           0
     64972 TIP3     18352    TIP3     H2       HT       0.417000       1.00800           0
     64973 TIP3     18353    TIP3     OH2      OT      -0.834000       15.9994           0
     64974 TIP3     18353    TIP3     H1       HT       0.417000       1.00800           0
     64975 TIP3     18353    TIP3     H2       HT       0.417000       1.00800           0
     64976 TIP3     18354    TIP3     OH2      OT      -0.834000       15.9994           0
     64977 TIP3     18354    TIP3     H1       HT       0.417000       1.00800           0
     64978 TIP3     18354    TIP3     H2       HT       0.417000       1.00800           0
     64979 TIP3     18355    TIP3     OH2      OT      -0.834000       15.9994           0
     64980 TIP3     18355    TIP3     H1       HT       0.417000       1.00800           0
     64981 TIP3     18355    TIP3     H2       HT       0.417000       1.00800           0
     64982 TIP3     18356    TIP3     OH2      OT      -0.834000       15.9994           0
     64983 TIP3     18356    TIP3     H1       HT       0.417000       1.00800           0
     64984 TIP3     18356    TIP3     H2       HT       0.417000       1.00800           0
     64985 TIP3     18357    TIP3     OH2      OT      -0.834000       15.9994           0
     64986 TIP3     18357    TIP3     H1       HT       0.417000       1.00800           0
     64987 TIP3     18357    TIP3     H2       HT       0.417000       1.00800           0
     64988 TIP3     18358    TIP3     OH2      OT      -0.834000       15.9994           0
     64989 TIP3     18358    TIP3     H1       HT       0.417000       1.00800           0
     64990 TIP3     18358    TIP3     H2       HT       0.417000       1.00800           0
     64991 TIP3     18359    TIP3     OH2      OT      -0.834000       15.9994           0
     64992 TIP3     18359    TIP3     H1       HT       0.417000       1.00800           0
     64993 TIP3     18359    TIP3     H2       HT       0.417000       1.00800           0
     64994 TIP3     18360    TIP3     OH2      OT      -0.834000       15.9994           0
     64995 TIP3     18360    TIP3     H1       HT       0.417000       1.00800           0
     64996 TIP3     18360    TIP3     H2       HT       0.417000       1.00800           0
     64997 TIP3     18361    TIP3     OH2      OT      -0.834000       15.9994           0
     64998 TIP3     18361    TIP3     H1       HT       0.417000       1.00800           0
     64999 TIP3     18361    TIP3     H2       HT       0.417000       1.00800           0
     65000 TIP3     18362    TIP3     OH2      OT      -0.834000       15.9994           0
     65001 TIP3     18362    TIP3     H1       HT       0.417000       1.00800           0
     65002 TIP3     18362    TIP3     H2       HT       0.417000       1.00800           0
     65003 TIP3     18363    TIP3     OH2      OT      -0.834000       15.9994           0
     65004 TIP3     18363    TIP3     H1       HT       0.417000       1.00800           0
     65005 TIP3     18363    TIP3     H2       HT       0.417000       1.00800           0
     65006 TIP3     18364    TIP3     OH2      OT      -0.834000       15.9994           0
     65007 TIP3     18364    TIP3     H1       HT       0.417000       1.00800           0
     65008 TIP3     18364    TIP3     H2       HT       0.417000       1.00800           0
     65009 TIP3     18365    TIP3     OH2      OT      -0.834000       15.9994           0
     65010 TIP3     18365    TIP3     H1       HT       0.417000       1.00800           0
     65011 TIP3     18365    TIP3     H2       HT       0.417000       1.00800           0
     65012 TIP3     18366    TIP3     OH2      OT      -0.834000       15.9994           0
     65013 TIP3     18366    TIP3     H1       HT       0.417000       1.00800           0
     65014 TIP3     18366    TIP3     H2       HT       0.417000       1.00800           0
     65015 TIP3     18367    TIP3     OH2      OT      -0.834000       15.9994           0
     65016 TIP3     18367    TIP3     H1       HT       0.417000       1.00800           0
     65017 TIP3     18367    TIP3     H2       HT       0.417000       1.00800           0
     65018 TIP3     18368    TIP3     OH2      OT      -0.834000       15.9994           0
     65019 TIP3     18368    TIP3     H1       HT       0.417000       1.00800           0
     65020 TIP3     18368    TIP3     H2       HT       0.417000       1.00800           0
     65021 TIP3     18369    TIP3     OH2      OT      -0.834000       15.9994           0
     65022 TIP3     18369    TIP3     H1       HT       0.417000       1.00800           0
     65023 TIP3     18369    TIP3     H2       HT       0.417000       1.00800           0
     65024 TIP3     18370    TIP3     OH2      OT      -0.834000       15.9994           0
     65025 TIP3     18370    TIP3     H1       HT       0.417000       1.00800           0
     65026 TIP3     18370    TIP3     H2       HT       0.417000       1.00800           0
     65027 TIP3     18371    TIP3     OH2      OT      -0.834000       15.9994           0
     65028 TIP3     18371    TIP3     H1       HT       0.417000       1.00800           0
     65029 TIP3     18371    TIP3     H2       HT       0.417000       1.00800           0
     65030 TIP3     18372    TIP3     OH2      OT      -0.834000       15.9994           0
     65031 TIP3     18372    TIP3     H1       HT       0.417000       1.00800           0
     65032 TIP3     18372    TIP3     H2       HT       0.417000       1.00800           0
     65033 TIP3     18373    TIP3     OH2      OT      -0.834000       15.9994           0
     65034 TIP3     18373    TIP3     H1       HT       0.417000       1.00800           0
     65035 TIP3     18373    TIP3     H2       HT       0.417000       1.00800           0
     65036 TIP3     18374    TIP3     OH2      OT      -0.834000       15.9994           0
     65037 TIP3     18374    TIP3     H1       HT       0.417000       1.00800           0
     65038 TIP3     18374    TIP3     H2       HT       0.417000       1.00800           0
     65039 TIP3     18375    TIP3     OH2      OT      -0.834000       15.9994           0
     65040 TIP3     18375    TIP3     H1       HT       0.417000       1.00800           0
     65041 TIP3     18375    TIP3     H2       HT       0.417000       1.00800           0
     65042 TIP3     18376    TIP3     OH2      OT      -0.834000       15.9994           0
     65043 TIP3     18376    TIP3     H1       HT       0.417000       1.00800           0
     65044 TIP3     18376    TIP3     H2       HT       0.417000       1.00800           0
     65045 TIP3     18377    TIP3     OH2      OT      -0.834000       15.9994           0
     65046 TIP3     18377    TIP3     H1       HT       0.417000       1.00800           0
     65047 TIP3     18377    TIP3     H2       HT       0.417000       1.00800           0
     65048 TIP3     18378    TIP3     OH2      OT      -0.834000       15.9994           0
     65049 TIP3     18378    TIP3     H1       HT       0.417000       1.00800           0
     65050 TIP3     18378    TIP3     H2       HT       0.417000       1.00800           0
     65051 TIP3     18379    TIP3     OH2      OT      -0.834000       15.9994           0
     65052 TIP3     18379    TIP3     H1       HT       0.417000       1.00800           0
     65053 TIP3     18379    TIP3     H2       HT       0.417000       1.00800           0
     65054 TIP3     18380    TIP3     OH2      OT      -0.834000       15.9994           0
     65055 TIP3     18380    TIP3     H1       HT       0.417000       1.00800           0
     65056 TIP3     18380    TIP3     H2       HT       0.417000       1.00800           0
     65057 TIP3     18381    TIP3     OH2      OT      -0.834000       15.9994           0
     65058 TIP3     18381    TIP3     H1       HT       0.417000       1.00800           0
     65059 TIP3     18381    TIP3     H2       HT       0.417000       1.00800           0
     65060 TIP3     18382    TIP3     OH2      OT      -0.834000       15.9994           0
     65061 TIP3     18382    TIP3     H1       HT       0.417000       1.00800           0
     65062 TIP3     18382    TIP3     H2       HT       0.417000       1.00800           0
     65063 TIP3     18383    TIP3     OH2      OT      -0.834000       15.9994           0
     65064 TIP3     18383    TIP3     H1       HT       0.417000       1.00800           0
     65065 TIP3     18383    TIP3     H2       HT       0.417000       1.00800           0
     65066 TIP3     18384    TIP3     OH2      OT      -0.834000       15.9994           0
     65067 TIP3     18384    TIP3     H1       HT       0.417000       1.00800           0
     65068 TIP3     18384    TIP3     H2       HT       0.417000       1.00800           0
     65069 TIP3     18385    TIP3     OH2      OT      -0.834000       15.9994           0
     65070 TIP3     18385    TIP3     H1       HT       0.417000       1.00800           0
     65071 TIP3     18385    TIP3     H2       HT       0.417000       1.00800           0
     65072 TIP3     18386    TIP3     OH2      OT      -0.834000       15.9994           0
     65073 TIP3     18386    TIP3     H1       HT       0.417000       1.00800           0
     65074 TIP3     18386    TIP3     H2       HT       0.417000       1.00800           0
     65075 TIP3     18387    TIP3     OH2      OT      -0.834000       15.9994           0
     65076 TIP3     18387    TIP3     H1       HT       0.417000       1.00800           0
     65077 TIP3     18387    TIP3     H2       HT       0.417000       1.00800           0
     65078 TIP3     18388    TIP3     OH2      OT      -0.834000       15.9994           0
     65079 TIP3     18388    TIP3     H1       HT       0.417000       1.00800           0
     65080 TIP3     18388    TIP3     H2       HT       0.417000       1.00800           0
     65081 TIP3     18389    TIP3     OH2      OT      -0.834000       15.9994           0
     65082 TIP3     18389    TIP3     H1       HT       0.417000       1.00800           0
     65083 TIP3     18389    TIP3     H2       HT       0.417000       1.00800           0
     65084 TIP3     18390    TIP3     OH2      OT      -0.834000       15.9994           0
     65085 TIP3     18390    TIP3     H1       HT       0.417000       1.00800           0
     65086 TIP3     18390    TIP3     H2       HT       0.417000       1.00800           0
     65087 TIP3     18391    TIP3     OH2      OT      -0.834000       15.9994           0
     65088 TIP3     18391    TIP3     H1       HT       0.417000       1.00800           0
     65089 TIP3     18391    TIP3     H2       HT       0.417000       1.00800           0
     65090 TIP3     18392    TIP3     OH2      OT      -0.834000       15.9994           0
     65091 TIP3     18392    TIP3     H1       HT       0.417000       1.00800           0
     65092 TIP3     18392    TIP3     H2       HT       0.417000       1.00800           0
     65093 TIP3     18393    TIP3     OH2      OT      -0.834000       15.9994           0
     65094 TIP3     18393    TIP3     H1       HT       0.417000       1.00800           0
     65095 TIP3     18393    TIP3     H2       HT       0.417000       1.00800           0
     65096 TIP3     18394    TIP3     OH2      OT      -0.834000       15.9994           0
     65097 TIP3     18394    TIP3     H1       HT       0.417000       1.00800           0
     65098 TIP3     18394    TIP3     H2       HT       0.417000       1.00800           0
     65099 TIP3     18395    TIP3     OH2      OT      -0.834000       15.9994           0
     65100 TIP3     18395    TIP3     H1       HT       0.417000       1.00800           0
     65101 TIP3     18395    TIP3     H2       HT       0.417000       1.00800           0
     65102 TIP3     18396    TIP3     OH2      OT      -0.834000       15.9994           0
     65103 TIP3     18396    TIP3     H1       HT       0.417000       1.00800           0
     65104 TIP3     18396    TIP3     H2       HT       0.417000       1.00800           0
     65105 TIP3     18397    TIP3     OH2      OT      -0.834000       15.9994           0
     65106 TIP3     18397    TIP3     H1       HT       0.417000       1.00800           0
     65107 TIP3     18397    TIP3     H2       HT       0.417000       1.00800           0
     65108 TIP3     18398    TIP3     OH2      OT      -0.834000       15.9994           0
     65109 TIP3     18398    TIP3     H1       HT       0.417000       1.00800           0
     65110 TIP3     18398    TIP3     H2       HT       0.417000       1.00800           0
     65111 TIP3     18399    TIP3     OH2      OT      -0.834000       15.9994           0
     65112 TIP3     18399    TIP3     H1       HT       0.417000       1.00800           0
     65113 TIP3     18399    TIP3     H2       HT       0.417000       1.00800           0
     65114 TIP3     18400    TIP3     OH2      OT      -0.834000       15.9994           0
     65115 TIP3     18400    TIP3     H1       HT       0.417000       1.00800           0
     65116 TIP3     18400    TIP3     H2       HT       0.417000       1.00800           0
     65117 TIP3     18401    TIP3     OH2      OT      -0.834000       15.9994           0
     65118 TIP3     18401    TIP3     H1       HT       0.417000       1.00800           0
     65119 TIP3     18401    TIP3     H2       HT       0.417000       1.00800           0
     65120 TIP3     18402    TIP3     OH2      OT      -0.834000       15.9994           0
     65121 TIP3     18402    TIP3     H1       HT       0.417000       1.00800           0
     65122 TIP3     18402    TIP3     H2       HT       0.417000       1.00800           0
     65123 TIP3     18403    TIP3     OH2      OT      -0.834000       15.9994           0
     65124 TIP3     18403    TIP3     H1       HT       0.417000       1.00800           0
     65125 TIP3     18403    TIP3     H2       HT       0.417000       1.00800           0
     65126 TIP3     18404    TIP3     OH2      OT      -0.834000       15.9994           0
     65127 TIP3     18404    TIP3     H1       HT       0.417000       1.00800           0
     65128 TIP3     18404    TIP3     H2       HT       0.417000       1.00800           0
     65129 TIP3     18405    TIP3     OH2      OT      -0.834000       15.9994           0
     65130 TIP3     18405    TIP3     H1       HT       0.417000       1.00800           0
     65131 TIP3     18405    TIP3     H2       HT       0.417000       1.00800           0
     65132 TIP3     18406    TIP3     OH2      OT      -0.834000       15.9994           0
     65133 TIP3     18406    TIP3     H1       HT       0.417000       1.00800           0
     65134 TIP3     18406    TIP3     H2       HT       0.417000       1.00800           0
     65135 TIP3     18407    TIP3     OH2      OT      -0.834000       15.9994           0
     65136 TIP3     18407    TIP3     H1       HT       0.417000       1.00800           0
     65137 TIP3     18407    TIP3     H2       HT       0.417000       1.00800           0
     65138 TIP3     18408    TIP3     OH2      OT      -0.834000       15.9994           0
     65139 TIP3     18408    TIP3     H1       HT       0.417000       1.00800           0
     65140 TIP3     18408    TIP3     H2       HT       0.417000       1.00800           0
     65141 TIP3     18409    TIP3     OH2      OT      -0.834000       15.9994           0
     65142 TIP3     18409    TIP3     H1       HT       0.417000       1.00800           0
     65143 TIP3     18409    TIP3     H2       HT       0.417000       1.00800           0
     65144 TIP3     18410    TIP3     OH2      OT      -0.834000       15.9994           0
     65145 TIP3     18410    TIP3     H1       HT       0.417000       1.00800           0
     65146 TIP3     18410    TIP3     H2       HT       0.417000       1.00800           0
     65147 TIP3     18411    TIP3     OH2      OT      -0.834000       15.9994           0
     65148 TIP3     18411    TIP3     H1       HT       0.417000       1.00800           0
     65149 TIP3     18411    TIP3     H2       HT       0.417000       1.00800           0
     65150 TIP3     18412    TIP3     OH2      OT      -0.834000       15.9994           0
     65151 TIP3     18412    TIP3     H1       HT       0.417000       1.00800           0
     65152 TIP3     18412    TIP3     H2       HT       0.417000       1.00800           0
     65153 TIP3     18413    TIP3     OH2      OT      -0.834000       15.9994           0
     65154 TIP3     18413    TIP3     H1       HT       0.417000       1.00800           0
     65155 TIP3     18413    TIP3     H2       HT       0.417000       1.00800           0
     65156 TIP3     18414    TIP3     OH2      OT      -0.834000       15.9994           0
     65157 TIP3     18414    TIP3     H1       HT       0.417000       1.00800           0
     65158 TIP3     18414    TIP3     H2       HT       0.417000       1.00800           0
     65159 TIP3     18415    TIP3     OH2      OT      -0.834000       15.9994           0
     65160 TIP3     18415    TIP3     H1       HT       0.417000       1.00800           0
     65161 TIP3     18415    TIP3     H2       HT       0.417000       1.00800           0
     65162 TIP3     18416    TIP3     OH2      OT      -0.834000       15.9994           0
     65163 TIP3     18416    TIP3     H1       HT       0.417000       1.00800           0
     65164 TIP3     18416    TIP3     H2       HT       0.417000       1.00800           0
     65165 TIP3     18417    TIP3     OH2      OT      -0.834000       15.9994           0
     65166 TIP3     18417    TIP3     H1       HT       0.417000       1.00800           0
     65167 TIP3     18417    TIP3     H2       HT       0.417000       1.00800           0
     65168 TIP3     18418    TIP3     OH2      OT      -0.834000       15.9994           0
     65169 TIP3     18418    TIP3     H1       HT       0.417000       1.00800           0
     65170 TIP3     18418    TIP3     H2       HT       0.417000       1.00800           0
     65171 TIP3     18419    TIP3     OH2      OT      -0.834000       15.9994           0
     65172 TIP3     18419    TIP3     H1       HT       0.417000       1.00800           0
     65173 TIP3     18419    TIP3     H2       HT       0.417000       1.00800           0
     65174 TIP3     18420    TIP3     OH2      OT      -0.834000       15.9994           0
     65175 TIP3     18420    TIP3     H1       HT       0.417000       1.00800           0
     65176 TIP3     18420    TIP3     H2       HT       0.417000       1.00800           0
     65177 TIP3     18421    TIP3     OH2      OT      -0.834000       15.9994           0
     65178 TIP3     18421    TIP3     H1       HT       0.417000       1.00800           0
     65179 TIP3     18421    TIP3     H2       HT       0.417000       1.00800           0
     65180 TIP3     18422    TIP3     OH2      OT      -0.834000       15.9994           0
     65181 TIP3     18422    TIP3     H1       HT       0.417000       1.00800           0
     65182 TIP3     18422    TIP3     H2       HT       0.417000       1.00800           0
     65183 TIP3     18423    TIP3     OH2      OT      -0.834000       15.9994           0
     65184 TIP3     18423    TIP3     H1       HT       0.417000       1.00800           0
     65185 TIP3     18423    TIP3     H2       HT       0.417000       1.00800           0
     65186 TIP3     18424    TIP3     OH2      OT      -0.834000       15.9994           0
     65187 TIP3     18424    TIP3     H1       HT       0.417000       1.00800           0
     65188 TIP3     18424    TIP3     H2       HT       0.417000       1.00800           0
     65189 TIP3     18425    TIP3     OH2      OT      -0.834000       15.9994           0
     65190 TIP3     18425    TIP3     H1       HT       0.417000       1.00800           0
     65191 TIP3     18425    TIP3     H2       HT       0.417000       1.00800           0
     65192 TIP3     18426    TIP3     OH2      OT      -0.834000       15.9994           0
     65193 TIP3     18426    TIP3     H1       HT       0.417000       1.00800           0
     65194 TIP3     18426    TIP3     H2       HT       0.417000       1.00800           0
     65195 TIP3     18427    TIP3     OH2      OT      -0.834000       15.9994           0
     65196 TIP3     18427    TIP3     H1       HT       0.417000       1.00800           0
     65197 TIP3     18427    TIP3     H2       HT       0.417000       1.00800           0
     65198 TIP3     18428    TIP3     OH2      OT      -0.834000       15.9994           0
     65199 TIP3     18428    TIP3     H1       HT       0.417000       1.00800           0
     65200 TIP3     18428    TIP3     H2       HT       0.417000       1.00800           0
     65201 TIP3     18429    TIP3     OH2      OT      -0.834000       15.9994           0
     65202 TIP3     18429    TIP3     H1       HT       0.417000       1.00800           0
     65203 TIP3     18429    TIP3     H2       HT       0.417000       1.00800           0
     65204 TIP3     18430    TIP3     OH2      OT      -0.834000       15.9994           0
     65205 TIP3     18430    TIP3     H1       HT       0.417000       1.00800           0
     65206 TIP3     18430    TIP3     H2       HT       0.417000       1.00800           0
     65207 TIP3     18431    TIP3     OH2      OT      -0.834000       15.9994           0
     65208 TIP3     18431    TIP3     H1       HT       0.417000       1.00800           0
     65209 TIP3     18431    TIP3     H2       HT       0.417000       1.00800           0
     65210 TIP3     18432    TIP3     OH2      OT      -0.834000       15.9994           0
     65211 TIP3     18432    TIP3     H1       HT       0.417000       1.00800           0
     65212 TIP3     18432    TIP3     H2       HT       0.417000       1.00800           0
     65213 TIP3     18433    TIP3     OH2      OT      -0.834000       15.9994           0
     65214 TIP3     18433    TIP3     H1       HT       0.417000       1.00800           0
     65215 TIP3     18433    TIP3     H2       HT       0.417000       1.00800           0
     65216 TIP3     18434    TIP3     OH2      OT      -0.834000       15.9994           0
     65217 TIP3     18434    TIP3     H1       HT       0.417000       1.00800           0
     65218 TIP3     18434    TIP3     H2       HT       0.417000       1.00800           0
     65219 TIP3     18435    TIP3     OH2      OT      -0.834000       15.9994           0
     65220 TIP3     18435    TIP3     H1       HT       0.417000       1.00800           0
     65221 TIP3     18435    TIP3     H2       HT       0.417000       1.00800           0
     65222 TIP3     18436    TIP3     OH2      OT      -0.834000       15.9994           0
     65223 TIP3     18436    TIP3     H1       HT       0.417000       1.00800           0
     65224 TIP3     18436    TIP3     H2       HT       0.417000       1.00800           0
     65225 TIP3     18437    TIP3     OH2      OT      -0.834000       15.9994           0
     65226 TIP3     18437    TIP3     H1       HT       0.417000       1.00800           0
     65227 TIP3     18437    TIP3     H2       HT       0.417000       1.00800           0
     65228 TIP3     18438    TIP3     OH2      OT      -0.834000       15.9994           0
     65229 TIP3     18438    TIP3     H1       HT       0.417000       1.00800           0
     65230 TIP3     18438    TIP3     H2       HT       0.417000       1.00800           0
     65231 TIP3     18439    TIP3     OH2      OT      -0.834000       15.9994           0
     65232 TIP3     18439    TIP3     H1       HT       0.417000       1.00800           0
     65233 TIP3     18439    TIP3     H2       HT       0.417000       1.00800           0
     65234 TIP3     18440    TIP3     OH2      OT      -0.834000       15.9994           0
     65235 TIP3     18440    TIP3     H1       HT       0.417000       1.00800           0
     65236 TIP3     18440    TIP3     H2       HT       0.417000       1.00800           0
     65237 TIP3     18441    TIP3     OH2      OT      -0.834000       15.9994           0
     65238 TIP3     18441    TIP3     H1       HT       0.417000       1.00800           0
     65239 TIP3     18441    TIP3     H2       HT       0.417000       1.00800           0
     65240 TIP3     18442    TIP3     OH2      OT      -0.834000       15.9994           0
     65241 TIP3     18442    TIP3     H1       HT       0.417000       1.00800           0
     65242 TIP3     18442    TIP3     H2       HT       0.417000       1.00800           0
     65243 TIP3     18443    TIP3     OH2      OT      -0.834000       15.9994           0
     65244 TIP3     18443    TIP3     H1       HT       0.417000       1.00800           0
     65245 TIP3     18443    TIP3     H2       HT       0.417000       1.00800           0
     65246 TIP3     18444    TIP3     OH2      OT      -0.834000       15.9994           0
     65247 TIP3     18444    TIP3     H1       HT       0.417000       1.00800           0
     65248 TIP3     18444    TIP3     H2       HT       0.417000       1.00800           0
     65249 TIP3     18445    TIP3     OH2      OT      -0.834000       15.9994           0
     65250 TIP3     18445    TIP3     H1       HT       0.417000       1.00800           0
     65251 TIP3     18445    TIP3     H2       HT       0.417000       1.00800           0
     65252 TIP3     18446    TIP3     OH2      OT      -0.834000       15.9994           0
     65253 TIP3     18446    TIP3     H1       HT       0.417000       1.00800           0
     65254 TIP3     18446    TIP3     H2       HT       0.417000       1.00800           0
     65255 TIP3     18447    TIP3     OH2      OT      -0.834000       15.9994           0
     65256 TIP3     18447    TIP3     H1       HT       0.417000       1.00800           0
     65257 TIP3     18447    TIP3     H2       HT       0.417000       1.00800           0
     65258 TIP3     18448    TIP3     OH2      OT      -0.834000       15.9994           0
     65259 TIP3     18448    TIP3     H1       HT       0.417000       1.00800           0
     65260 TIP3     18448    TIP3     H2       HT       0.417000       1.00800           0
     65261 TIP3     18449    TIP3     OH2      OT      -0.834000       15.9994           0
     65262 TIP3     18449    TIP3     H1       HT       0.417000       1.00800           0
     65263 TIP3     18449    TIP3     H2       HT       0.417000       1.00800           0
     65264 TIP3     18450    TIP3     OH2      OT      -0.834000       15.9994           0
     65265 TIP3     18450    TIP3     H1       HT       0.417000       1.00800           0
     65266 TIP3     18450    TIP3     H2       HT       0.417000       1.00800           0
     65267 TIP3     18451    TIP3     OH2      OT      -0.834000       15.9994           0
     65268 TIP3     18451    TIP3     H1       HT       0.417000       1.00800           0
     65269 TIP3     18451    TIP3     H2       HT       0.417000       1.00800           0
     65270 TIP3     18452    TIP3     OH2      OT      -0.834000       15.9994           0
     65271 TIP3     18452    TIP3     H1       HT       0.417000       1.00800           0
     65272 TIP3     18452    TIP3     H2       HT       0.417000       1.00800           0
     65273 TIP3     18453    TIP3     OH2      OT      -0.834000       15.9994           0
     65274 TIP3     18453    TIP3     H1       HT       0.417000       1.00800           0
     65275 TIP3     18453    TIP3     H2       HT       0.417000       1.00800           0
     65276 TIP3     18454    TIP3     OH2      OT      -0.834000       15.9994           0
     65277 TIP3     18454    TIP3     H1       HT       0.417000       1.00800           0
     65278 TIP3     18454    TIP3     H2       HT       0.417000       1.00800           0
     65279 TIP3     18455    TIP3     OH2      OT      -0.834000       15.9994           0
     65280 TIP3     18455    TIP3     H1       HT       0.417000       1.00800           0
     65281 TIP3     18455    TIP3     H2       HT       0.417000       1.00800           0
     65282 TIP3     18456    TIP3     OH2      OT      -0.834000       15.9994           0
     65283 TIP3     18456    TIP3     H1       HT       0.417000       1.00800           0
     65284 TIP3     18456    TIP3     H2       HT       0.417000       1.00800           0
     65285 TIP3     18457    TIP3     OH2      OT      -0.834000       15.9994           0
     65286 TIP3     18457    TIP3     H1       HT       0.417000       1.00800           0
     65287 TIP3     18457    TIP3     H2       HT       0.417000       1.00800           0
     65288 TIP3     18458    TIP3     OH2      OT      -0.834000       15.9994           0
     65289 TIP3     18458    TIP3     H1       HT       0.417000       1.00800           0
     65290 TIP3     18458    TIP3     H2       HT       0.417000       1.00800           0
     65291 TIP3     18459    TIP3     OH2      OT      -0.834000       15.9994           0
     65292 TIP3     18459    TIP3     H1       HT       0.417000       1.00800           0
     65293 TIP3     18459    TIP3     H2       HT       0.417000       1.00800           0
     65294 TIP3     18460    TIP3     OH2      OT      -0.834000       15.9994           0
     65295 TIP3     18460    TIP3     H1       HT       0.417000       1.00800           0
     65296 TIP3     18460    TIP3     H2       HT       0.417000       1.00800           0
     65297 TIP3     18461    TIP3     OH2      OT      -0.834000       15.9994           0
     65298 TIP3     18461    TIP3     H1       HT       0.417000       1.00800           0
     65299 TIP3     18461    TIP3     H2       HT       0.417000       1.00800           0
     65300 TIP3     18462    TIP3     OH2      OT      -0.834000       15.9994           0
     65301 TIP3     18462    TIP3     H1       HT       0.417000       1.00800           0
     65302 TIP3     18462    TIP3     H2       HT       0.417000       1.00800           0
     65303 TIP3     18463    TIP3     OH2      OT      -0.834000       15.9994           0
     65304 TIP3     18463    TIP3     H1       HT       0.417000       1.00800           0
     65305 TIP3     18463    TIP3     H2       HT       0.417000       1.00800           0
     65306 TIP3     18464    TIP3     OH2      OT      -0.834000       15.9994           0
     65307 TIP3     18464    TIP3     H1       HT       0.417000       1.00800           0
     65308 TIP3     18464    TIP3     H2       HT       0.417000       1.00800           0
     65309 TIP3     18465    TIP3     OH2      OT      -0.834000       15.9994           0
     65310 TIP3     18465    TIP3     H1       HT       0.417000       1.00800           0
     65311 TIP3     18465    TIP3     H2       HT       0.417000       1.00800           0
     65312 TIP3     18466    TIP3     OH2      OT      -0.834000       15.9994           0
     65313 TIP3     18466    TIP3     H1       HT       0.417000       1.00800           0
     65314 TIP3     18466    TIP3     H2       HT       0.417000       1.00800           0
     65315 TIP3     18467    TIP3     OH2      OT      -0.834000       15.9994           0
     65316 TIP3     18467    TIP3     H1       HT       0.417000       1.00800           0
     65317 TIP3     18467    TIP3     H2       HT       0.417000       1.00800           0
     65318 TIP3     18468    TIP3     OH2      OT      -0.834000       15.9994           0
     65319 TIP3     18468    TIP3     H1       HT       0.417000       1.00800           0
     65320 TIP3     18468    TIP3     H2       HT       0.417000       1.00800           0
     65321 TIP3     18469    TIP3     OH2      OT      -0.834000       15.9994           0
     65322 TIP3     18469    TIP3     H1       HT       0.417000       1.00800           0
     65323 TIP3     18469    TIP3     H2       HT       0.417000       1.00800           0
     65324 TIP3     18470    TIP3     OH2      OT      -0.834000       15.9994           0
     65325 TIP3     18470    TIP3     H1       HT       0.417000       1.00800           0
     65326 TIP3     18470    TIP3     H2       HT       0.417000       1.00800           0
     65327 TIP3     18471    TIP3     OH2      OT      -0.834000       15.9994           0
     65328 TIP3     18471    TIP3     H1       HT       0.417000       1.00800           0
     65329 TIP3     18471    TIP3     H2       HT       0.417000       1.00800           0
     65330 TIP3     18472    TIP3     OH2      OT      -0.834000       15.9994           0
     65331 TIP3     18472    TIP3     H1       HT       0.417000       1.00800           0
     65332 TIP3     18472    TIP3     H2       HT       0.417000       1.00800           0
     65333 TIP3     18473    TIP3     OH2      OT      -0.834000       15.9994           0
     65334 TIP3     18473    TIP3     H1       HT       0.417000       1.00800           0
     65335 TIP3     18473    TIP3     H2       HT       0.417000       1.00800           0
     65336 TIP3     18474    TIP3     OH2      OT      -0.834000       15.9994           0
     65337 TIP3     18474    TIP3     H1       HT       0.417000       1.00800           0
     65338 TIP3     18474    TIP3     H2       HT       0.417000       1.00800           0
     65339 TIP3     18475    TIP3     OH2      OT      -0.834000       15.9994           0
     65340 TIP3     18475    TIP3     H1       HT       0.417000       1.00800           0
     65341 TIP3     18475    TIP3     H2       HT       0.417000       1.00800           0
     65342 TIP3     18476    TIP3     OH2      OT      -0.834000       15.9994           0
     65343 TIP3     18476    TIP3     H1       HT       0.417000       1.00800           0
     65344 TIP3     18476    TIP3     H2       HT       0.417000       1.00800           0
     65345 TIP3     18477    TIP3     OH2      OT      -0.834000       15.9994           0
     65346 TIP3     18477    TIP3     H1       HT       0.417000       1.00800           0
     65347 TIP3     18477    TIP3     H2       HT       0.417000       1.00800           0
     65348 TIP3     18478    TIP3     OH2      OT      -0.834000       15.9994           0
     65349 TIP3     18478    TIP3     H1       HT       0.417000       1.00800           0
     65350 TIP3     18478    TIP3     H2       HT       0.417000       1.00800           0
     65351 TIP3     18479    TIP3     OH2      OT      -0.834000       15.9994           0
     65352 TIP3     18479    TIP3     H1       HT       0.417000       1.00800           0
     65353 TIP3     18479    TIP3     H2       HT       0.417000       1.00800           0
     65354 TIP3     18480    TIP3     OH2      OT      -0.834000       15.9994           0
     65355 TIP3     18480    TIP3     H1       HT       0.417000       1.00800           0
     65356 TIP3     18480    TIP3     H2       HT       0.417000       1.00800           0
     65357 TIP3     18481    TIP3     OH2      OT      -0.834000       15.9994           0
     65358 TIP3     18481    TIP3     H1       HT       0.417000       1.00800           0
     65359 TIP3     18481    TIP3     H2       HT       0.417000       1.00800           0
     65360 TIP3     18482    TIP3     OH2      OT      -0.834000       15.9994           0
     65361 TIP3     18482    TIP3     H1       HT       0.417000       1.00800           0
     65362 TIP3     18482    TIP3     H2       HT       0.417000       1.00800           0
     65363 TIP3     18483    TIP3     OH2      OT      -0.834000       15.9994           0
     65364 TIP3     18483    TIP3     H1       HT       0.417000       1.00800           0
     65365 TIP3     18483    TIP3     H2       HT       0.417000       1.00800           0
     65366 TIP3     18484    TIP3     OH2      OT      -0.834000       15.9994           0
     65367 TIP3     18484    TIP3     H1       HT       0.417000       1.00800           0
     65368 TIP3     18484    TIP3     H2       HT       0.417000       1.00800           0
     65369 TIP3     18485    TIP3     OH2      OT      -0.834000       15.9994           0
     65370 TIP3     18485    TIP3     H1       HT       0.417000       1.00800           0
     65371 TIP3     18485    TIP3     H2       HT       0.417000       1.00800           0
     65372 TIP3     18486    TIP3     OH2      OT      -0.834000       15.9994           0
     65373 TIP3     18486    TIP3     H1       HT       0.417000       1.00800           0
     65374 TIP3     18486    TIP3     H2       HT       0.417000       1.00800           0
     65375 TIP3     18487    TIP3     OH2      OT      -0.834000       15.9994           0
     65376 TIP3     18487    TIP3     H1       HT       0.417000       1.00800           0
     65377 TIP3     18487    TIP3     H2       HT       0.417000       1.00800           0
     65378 TIP3     18488    TIP3     OH2      OT      -0.834000       15.9994           0
     65379 TIP3     18488    TIP3     H1       HT       0.417000       1.00800           0
     65380 TIP3     18488    TIP3     H2       HT       0.417000       1.00800           0
     65381 TIP3     18489    TIP3     OH2      OT      -0.834000       15.9994           0
     65382 TIP3     18489    TIP3     H1       HT       0.417000       1.00800           0
     65383 TIP3     18489    TIP3     H2       HT       0.417000       1.00800           0
     65384 TIP3     18490    TIP3     OH2      OT      -0.834000       15.9994           0
     65385 TIP3     18490    TIP3     H1       HT       0.417000       1.00800           0
     65386 TIP3     18490    TIP3     H2       HT       0.417000       1.00800           0
     65387 TIP3     18491    TIP3     OH2      OT      -0.834000       15.9994           0
     65388 TIP3     18491    TIP3     H1       HT       0.417000       1.00800           0
     65389 TIP3     18491    TIP3     H2       HT       0.417000       1.00800           0
     65390 TIP3     18492    TIP3     OH2      OT      -0.834000       15.9994           0
     65391 TIP3     18492    TIP3     H1       HT       0.417000       1.00800           0
     65392 TIP3     18492    TIP3     H2       HT       0.417000       1.00800           0
     65393 TIP3     18493    TIP3     OH2      OT      -0.834000       15.9994           0
     65394 TIP3     18493    TIP3     H1       HT       0.417000       1.00800           0
     65395 TIP3     18493    TIP3     H2       HT       0.417000       1.00800           0
     65396 TIP3     18494    TIP3     OH2      OT      -0.834000       15.9994           0
     65397 TIP3     18494    TIP3     H1       HT       0.417000       1.00800           0
     65398 TIP3     18494    TIP3     H2       HT       0.417000       1.00800           0
     65399 TIP3     18495    TIP3     OH2      OT      -0.834000       15.9994           0
     65400 TIP3     18495    TIP3     H1       HT       0.417000       1.00800           0
     65401 TIP3     18495    TIP3     H2       HT       0.417000       1.00800           0
     65402 TIP3     18496    TIP3     OH2      OT      -0.834000       15.9994           0
     65403 TIP3     18496    TIP3     H1       HT       0.417000       1.00800           0
     65404 TIP3     18496    TIP3     H2       HT       0.417000       1.00800           0
     65405 TIP3     18497    TIP3     OH2      OT      -0.834000       15.9994           0
     65406 TIP3     18497    TIP3     H1       HT       0.417000       1.00800           0
     65407 TIP3     18497    TIP3     H2       HT       0.417000       1.00800           0
     65408 TIP3     18498    TIP3     OH2      OT      -0.834000       15.9994           0
     65409 TIP3     18498    TIP3     H1       HT       0.417000       1.00800           0
     65410 TIP3     18498    TIP3     H2       HT       0.417000       1.00800           0
     65411 TIP3     18499    TIP3     OH2      OT      -0.834000       15.9994           0
     65412 TIP3     18499    TIP3     H1       HT       0.417000       1.00800           0
     65413 TIP3     18499    TIP3     H2       HT       0.417000       1.00800           0
     65414 TIP3     18500    TIP3     OH2      OT      -0.834000       15.9994           0
     65415 TIP3     18500    TIP3     H1       HT       0.417000       1.00800           0
     65416 TIP3     18500    TIP3     H2       HT       0.417000       1.00800           0
     65417 TIP3     18501    TIP3     OH2      OT      -0.834000       15.9994           0
     65418 TIP3     18501    TIP3     H1       HT       0.417000       1.00800           0
     65419 TIP3     18501    TIP3     H2       HT       0.417000       1.00800           0
     65420 TIP3     18502    TIP3     OH2      OT      -0.834000       15.9994           0
     65421 TIP3     18502    TIP3     H1       HT       0.417000       1.00800           0
     65422 TIP3     18502    TIP3     H2       HT       0.417000       1.00800           0
     65423 TIP3     18503    TIP3     OH2      OT      -0.834000       15.9994           0
     65424 TIP3     18503    TIP3     H1       HT       0.417000       1.00800           0
     65425 TIP3     18503    TIP3     H2       HT       0.417000       1.00800           0
     65426 TIP3     18504    TIP3     OH2      OT      -0.834000       15.9994           0
     65427 TIP3     18504    TIP3     H1       HT       0.417000       1.00800           0
     65428 TIP3     18504    TIP3     H2       HT       0.417000       1.00800           0
     65429 TIP3     18505    TIP3     OH2      OT      -0.834000       15.9994           0
     65430 TIP3     18505    TIP3     H1       HT       0.417000       1.00800           0
     65431 TIP3     18505    TIP3     H2       HT       0.417000       1.00800           0
     65432 TIP3     18506    TIP3     OH2      OT      -0.834000       15.9994           0
     65433 TIP3     18506    TIP3     H1       HT       0.417000       1.00800           0
     65434 TIP3     18506    TIP3     H2       HT       0.417000       1.00800           0
     65435 TIP3     18507    TIP3     OH2      OT      -0.834000       15.9994           0
     65436 TIP3     18507    TIP3     H1       HT       0.417000       1.00800           0
     65437 TIP3     18507    TIP3     H2       HT       0.417000       1.00800           0
     65438 TIP3     18508    TIP3     OH2      OT      -0.834000       15.9994           0
     65439 TIP3     18508    TIP3     H1       HT       0.417000       1.00800           0
     65440 TIP3     18508    TIP3     H2       HT       0.417000       1.00800           0
     65441 TIP3     18509    TIP3     OH2      OT      -0.834000       15.9994           0
     65442 TIP3     18509    TIP3     H1       HT       0.417000       1.00800           0
     65443 TIP3     18509    TIP3     H2       HT       0.417000       1.00800           0
     65444 TIP3     18510    TIP3     OH2      OT      -0.834000       15.9994           0
     65445 TIP3     18510    TIP3     H1       HT       0.417000       1.00800           0
     65446 TIP3     18510    TIP3     H2       HT       0.417000       1.00800           0
     65447 TIP3     18511    TIP3     OH2      OT      -0.834000       15.9994           0
     65448 TIP3     18511    TIP3     H1       HT       0.417000       1.00800           0
     65449 TIP3     18511    TIP3     H2       HT       0.417000       1.00800           0
     65450 TIP3     18512    TIP3     OH2      OT      -0.834000       15.9994           0
     65451 TIP3     18512    TIP3     H1       HT       0.417000       1.00800           0
     65452 TIP3     18512    TIP3     H2       HT       0.417000       1.00800           0
     65453 TIP3     18513    TIP3     OH2      OT      -0.834000       15.9994           0
     65454 TIP3     18513    TIP3     H1       HT       0.417000       1.00800           0
     65455 TIP3     18513    TIP3     H2       HT       0.417000       1.00800           0
     65456 TIP3     18514    TIP3     OH2      OT      -0.834000       15.9994           0
     65457 TIP3     18514    TIP3     H1       HT       0.417000       1.00800           0
     65458 TIP3     18514    TIP3     H2       HT       0.417000       1.00800           0
     65459 TIP3     18515    TIP3     OH2      OT      -0.834000       15.9994           0
     65460 TIP3     18515    TIP3     H1       HT       0.417000       1.00800           0
     65461 TIP3     18515    TIP3     H2       HT       0.417000       1.00800           0
     65462 TIP3     18516    TIP3     OH2      OT      -0.834000       15.9994           0
     65463 TIP3     18516    TIP3     H1       HT       0.417000       1.00800           0
     65464 TIP3     18516    TIP3     H2       HT       0.417000       1.00800           0
     65465 TIP3     18517    TIP3     OH2      OT      -0.834000       15.9994           0
     65466 TIP3     18517    TIP3     H1       HT       0.417000       1.00800           0
     65467 TIP3     18517    TIP3     H2       HT       0.417000       1.00800           0
     65468 TIP3     18518    TIP3     OH2      OT      -0.834000       15.9994           0
     65469 TIP3     18518    TIP3     H1       HT       0.417000       1.00800           0
     65470 TIP3     18518    TIP3     H2       HT       0.417000       1.00800           0
     65471 TIP3     18519    TIP3     OH2      OT      -0.834000       15.9994           0
     65472 TIP3     18519    TIP3     H1       HT       0.417000       1.00800           0
     65473 TIP3     18519    TIP3     H2       HT       0.417000       1.00800           0
     65474 TIP3     18520    TIP3     OH2      OT      -0.834000       15.9994           0
     65475 TIP3     18520    TIP3     H1       HT       0.417000       1.00800           0
     65476 TIP3     18520    TIP3     H2       HT       0.417000       1.00800           0
     65477 TIP3     18521    TIP3     OH2      OT      -0.834000       15.9994           0
     65478 TIP3     18521    TIP3     H1       HT       0.417000       1.00800           0
     65479 TIP3     18521    TIP3     H2       HT       0.417000       1.00800           0
     65480 TIP3     18522    TIP3     OH2      OT      -0.834000       15.9994           0
     65481 TIP3     18522    TIP3     H1       HT       0.417000       1.00800           0
     65482 TIP3     18522    TIP3     H2       HT       0.417000       1.00800           0
     65483 TIP3     18523    TIP3     OH2      OT      -0.834000       15.9994           0
     65484 TIP3     18523    TIP3     H1       HT       0.417000       1.00800           0
     65485 TIP3     18523    TIP3     H2       HT       0.417000       1.00800           0
     65486 TIP3     18524    TIP3     OH2      OT      -0.834000       15.9994           0
     65487 TIP3     18524    TIP3     H1       HT       0.417000       1.00800           0
     65488 TIP3     18524    TIP3     H2       HT       0.417000       1.00800           0
     65489 TIP3     18525    TIP3     OH2      OT      -0.834000       15.9994           0
     65490 TIP3     18525    TIP3     H1       HT       0.417000       1.00800           0
     65491 TIP3     18525    TIP3     H2       HT       0.417000       1.00800           0
     65492 TIP3     18526    TIP3     OH2      OT      -0.834000       15.9994           0
     65493 TIP3     18526    TIP3     H1       HT       0.417000       1.00800           0
     65494 TIP3     18526    TIP3     H2       HT       0.417000       1.00800           0
     65495 TIP3     18527    TIP3     OH2      OT      -0.834000       15.9994           0
     65496 TIP3     18527    TIP3     H1       HT       0.417000       1.00800           0
     65497 TIP3     18527    TIP3     H2       HT       0.417000       1.00800           0
     65498 TIP3     18528    TIP3     OH2      OT      -0.834000       15.9994           0
     65499 TIP3     18528    TIP3     H1       HT       0.417000       1.00800           0
     65500 TIP3     18528    TIP3     H2       HT       0.417000       1.00800           0
     65501 TIP3     18529    TIP3     OH2      OT      -0.834000       15.9994           0
     65502 TIP3     18529    TIP3     H1       HT       0.417000       1.00800           0
     65503 TIP3     18529    TIP3     H2       HT       0.417000       1.00800           0
     65504 TIP3     18530    TIP3     OH2      OT      -0.834000       15.9994           0
     65505 TIP3     18530    TIP3     H1       HT       0.417000       1.00800           0
     65506 TIP3     18530    TIP3     H2       HT       0.417000       1.00800           0
     65507 TIP3     18531    TIP3     OH2      OT      -0.834000       15.9994           0
     65508 TIP3     18531    TIP3     H1       HT       0.417000       1.00800           0
     65509 TIP3     18531    TIP3     H2       HT       0.417000       1.00800           0
     65510 TIP3     18532    TIP3     OH2      OT      -0.834000       15.9994           0
     65511 TIP3     18532    TIP3     H1       HT       0.417000       1.00800           0
     65512 TIP3     18532    TIP3     H2       HT       0.417000       1.00800           0
     65513 TIP3     18533    TIP3     OH2      OT      -0.834000       15.9994           0
     65514 TIP3     18533    TIP3     H1       HT       0.417000       1.00800           0
     65515 TIP3     18533    TIP3     H2       HT       0.417000       1.00800           0
     65516 TIP3     18534    TIP3     OH2      OT      -0.834000       15.9994           0
     65517 TIP3     18534    TIP3     H1       HT       0.417000       1.00800           0
     65518 TIP3     18534    TIP3     H2       HT       0.417000       1.00800           0
     65519 TIP3     18535    TIP3     OH2      OT      -0.834000       15.9994           0
     65520 TIP3     18535    TIP3     H1       HT       0.417000       1.00800           0
     65521 TIP3     18535    TIP3     H2       HT       0.417000       1.00800           0
     65522 TIP3     18536    TIP3     OH2      OT      -0.834000       15.9994           0
     65523 TIP3     18536    TIP3     H1       HT       0.417000       1.00800           0
     65524 TIP3     18536    TIP3     H2       HT       0.417000       1.00800           0
     65525 TIP3     18537    TIP3     OH2      OT      -0.834000       15.9994           0
     65526 TIP3     18537    TIP3     H1       HT       0.417000       1.00800           0
     65527 TIP3     18537    TIP3     H2       HT       0.417000       1.00800           0
     65528 TIP3     18538    TIP3     OH2      OT      -0.834000       15.9994           0
     65529 TIP3     18538    TIP3     H1       HT       0.417000       1.00800           0
     65530 TIP3     18538    TIP3     H2       HT       0.417000       1.00800           0
     65531 TIP3     18539    TIP3     OH2      OT      -0.834000       15.9994           0
     65532 TIP3     18539    TIP3     H1       HT       0.417000       1.00800           0
     65533 TIP3     18539    TIP3     H2       HT       0.417000       1.00800           0
     65534 TIP3     18540    TIP3     OH2      OT      -0.834000       15.9994           0
     65535 TIP3     18540    TIP3     H1       HT       0.417000       1.00800           0
     65536 TIP3     18540    TIP3     H2       HT       0.417000       1.00800           0
     65537 TIP3     18541    TIP3     OH2      OT      -0.834000       15.9994           0
     65538 TIP3     18541    TIP3     H1       HT       0.417000       1.00800           0
     65539 TIP3     18541    TIP3     H2       HT       0.417000       1.00800           0
     65540 TIP3     18542    TIP3     OH2      OT      -0.834000       15.9994           0
     65541 TIP3     18542    TIP3     H1       HT       0.417000       1.00800           0
     65542 TIP3     18542    TIP3     H2       HT       0.417000       1.00800           0
     65543 TIP3     18543    TIP3     OH2      OT      -0.834000       15.9994           0
     65544 TIP3     18543    TIP3     H1       HT       0.417000       1.00800           0
     65545 TIP3     18543    TIP3     H2       HT       0.417000       1.00800           0
     65546 TIP3     18544    TIP3     OH2      OT      -0.834000       15.9994           0
     65547 TIP3     18544    TIP3     H1       HT       0.417000       1.00800           0
     65548 TIP3     18544    TIP3     H2       HT       0.417000       1.00800           0
     65549 TIP3     18545    TIP3     OH2      OT      -0.834000       15.9994           0
     65550 TIP3     18545    TIP3     H1       HT       0.417000       1.00800           0
     65551 TIP3     18545    TIP3     H2       HT       0.417000       1.00800           0
     65552 TIP3     18546    TIP3     OH2      OT      -0.834000       15.9994           0
     65553 TIP3     18546    TIP3     H1       HT       0.417000       1.00800           0
     65554 TIP3     18546    TIP3     H2       HT       0.417000       1.00800           0
     65555 TIP3     18547    TIP3     OH2      OT      -0.834000       15.9994           0
     65556 TIP3     18547    TIP3     H1       HT       0.417000       1.00800           0
     65557 TIP3     18547    TIP3     H2       HT       0.417000       1.00800           0
     65558 TIP3     18548    TIP3     OH2      OT      -0.834000       15.9994           0
     65559 TIP3     18548    TIP3     H1       HT       0.417000       1.00800           0
     65560 TIP3     18548    TIP3     H2       HT       0.417000       1.00800           0
     65561 TIP3     18549    TIP3     OH2      OT      -0.834000       15.9994           0
     65562 TIP3     18549    TIP3     H1       HT       0.417000       1.00800           0
     65563 TIP3     18549    TIP3     H2       HT       0.417000       1.00800           0
     65564 TIP3     18550    TIP3     OH2      OT      -0.834000       15.9994           0
     65565 TIP3     18550    TIP3     H1       HT       0.417000       1.00800           0
     65566 TIP3     18550    TIP3     H2       HT       0.417000       1.00800           0
     65567 TIP3     18551    TIP3     OH2      OT      -0.834000       15.9994           0
     65568 TIP3     18551    TIP3     H1       HT       0.417000       1.00800           0
     65569 TIP3     18551    TIP3     H2       HT       0.417000       1.00800           0
     65570 TIP3     18552    TIP3     OH2      OT      -0.834000       15.9994           0
     65571 TIP3     18552    TIP3     H1       HT       0.417000       1.00800           0
     65572 TIP3     18552    TIP3     H2       HT       0.417000       1.00800           0
     65573 TIP3     18553    TIP3     OH2      OT      -0.834000       15.9994           0
     65574 TIP3     18553    TIP3     H1       HT       0.417000       1.00800           0
     65575 TIP3     18553    TIP3     H2       HT       0.417000       1.00800           0
     65576 TIP3     18554    TIP3     OH2      OT      -0.834000       15.9994           0
     65577 TIP3     18554    TIP3     H1       HT       0.417000       1.00800           0
     65578 TIP3     18554    TIP3     H2       HT       0.417000       1.00800           0
     65579 TIP3     18555    TIP3     OH2      OT      -0.834000       15.9994           0
     65580 TIP3     18555    TIP3     H1       HT       0.417000       1.00800           0
     65581 TIP3     18555    TIP3     H2       HT       0.417000       1.00800           0
     65582 TIP3     18556    TIP3     OH2      OT      -0.834000       15.9994           0
     65583 TIP3     18556    TIP3     H1       HT       0.417000       1.00800           0
     65584 TIP3     18556    TIP3     H2       HT       0.417000       1.00800           0
     65585 TIP3     18557    TIP3     OH2      OT      -0.834000       15.9994           0
     65586 TIP3     18557    TIP3     H1       HT       0.417000       1.00800           0
     65587 TIP3     18557    TIP3     H2       HT       0.417000       1.00800           0
     65588 TIP3     18558    TIP3     OH2      OT      -0.834000       15.9994           0
     65589 TIP3     18558    TIP3     H1       HT       0.417000       1.00800           0
     65590 TIP3     18558    TIP3     H2       HT       0.417000       1.00800           0
     65591 TIP3     18559    TIP3     OH2      OT      -0.834000       15.9994           0
     65592 TIP3     18559    TIP3     H1       HT       0.417000       1.00800           0
     65593 TIP3     18559    TIP3     H2       HT       0.417000       1.00800           0
     65594 TIP3     18560    TIP3     OH2      OT      -0.834000       15.9994           0
     65595 TIP3     18560    TIP3     H1       HT       0.417000       1.00800           0
     65596 TIP3     18560    TIP3     H2       HT       0.417000       1.00800           0
     65597 TIP3     18561    TIP3     OH2      OT      -0.834000       15.9994           0
     65598 TIP3     18561    TIP3     H1       HT       0.417000       1.00800           0
     65599 TIP3     18561    TIP3     H2       HT       0.417000       1.00800           0
     65600 TIP3     18562    TIP3     OH2      OT      -0.834000       15.9994           0
     65601 TIP3     18562    TIP3     H1       HT       0.417000       1.00800           0
     65602 TIP3     18562    TIP3     H2       HT       0.417000       1.00800           0
     65603 TIP3     18563    TIP3     OH2      OT      -0.834000       15.9994           0
     65604 TIP3     18563    TIP3     H1       HT       0.417000       1.00800           0
     65605 TIP3     18563    TIP3     H2       HT       0.417000       1.00800           0
     65606 TIP3     18564    TIP3     OH2      OT      -0.834000       15.9994           0
     65607 TIP3     18564    TIP3     H1       HT       0.417000       1.00800           0
     65608 TIP3     18564    TIP3     H2       HT       0.417000       1.00800           0
     65609 TIP3     18565    TIP3     OH2      OT      -0.834000       15.9994           0
     65610 TIP3     18565    TIP3     H1       HT       0.417000       1.00800           0
     65611 TIP3     18565    TIP3     H2       HT       0.417000       1.00800           0
     65612 TIP3     18566    TIP3     OH2      OT      -0.834000       15.9994           0
     65613 TIP3     18566    TIP3     H1       HT       0.417000       1.00800           0
     65614 TIP3     18566    TIP3     H2       HT       0.417000       1.00800           0
     65615 TIP3     18567    TIP3     OH2      OT      -0.834000       15.9994           0
     65616 TIP3     18567    TIP3     H1       HT       0.417000       1.00800           0
     65617 TIP3     18567    TIP3     H2       HT       0.417000       1.00800           0
     65618 TIP3     18568    TIP3     OH2      OT      -0.834000       15.9994           0
     65619 TIP3     18568    TIP3     H1       HT       0.417000       1.00800           0
     65620 TIP3     18568    TIP3     H2       HT       0.417000       1.00800           0
     65621 TIP3     18569    TIP3     OH2      OT      -0.834000       15.9994           0
     65622 TIP3     18569    TIP3     H1       HT       0.417000       1.00800           0
     65623 TIP3     18569    TIP3     H2       HT       0.417000       1.00800           0
     65624 TIP3     18570    TIP3     OH2      OT      -0.834000       15.9994           0
     65625 TIP3     18570    TIP3     H1       HT       0.417000       1.00800           0
     65626 TIP3     18570    TIP3     H2       HT       0.417000       1.00800           0
     65627 TIP3     18571    TIP3     OH2      OT      -0.834000       15.9994           0
     65628 TIP3     18571    TIP3     H1       HT       0.417000       1.00800           0
     65629 TIP3     18571    TIP3     H2       HT       0.417000       1.00800           0
     65630 TIP3     18572    TIP3     OH2      OT      -0.834000       15.9994           0
     65631 TIP3     18572    TIP3     H1       HT       0.417000       1.00800           0
     65632 TIP3     18572    TIP3     H2       HT       0.417000       1.00800           0
     65633 TIP3     18573    TIP3     OH2      OT      -0.834000       15.9994           0
     65634 TIP3     18573    TIP3     H1       HT       0.417000       1.00800           0
     65635 TIP3     18573    TIP3     H2       HT       0.417000       1.00800           0
     65636 TIP3     18574    TIP3     OH2      OT      -0.834000       15.9994           0
     65637 TIP3     18574    TIP3     H1       HT       0.417000       1.00800           0
     65638 TIP3     18574    TIP3     H2       HT       0.417000       1.00800           0
     65639 TIP3     18575    TIP3     OH2      OT      -0.834000       15.9994           0
     65640 TIP3     18575    TIP3     H1       HT       0.417000       1.00800           0
     65641 TIP3     18575    TIP3     H2       HT       0.417000       1.00800           0
     65642 TIP3     18576    TIP3     OH2      OT      -0.834000       15.9994           0
     65643 TIP3     18576    TIP3     H1       HT       0.417000       1.00800           0
     65644 TIP3     18576    TIP3     H2       HT       0.417000       1.00800           0
     65645 TIP3     18577    TIP3     OH2      OT      -0.834000       15.9994           0
     65646 TIP3     18577    TIP3     H1       HT       0.417000       1.00800           0
     65647 TIP3     18577    TIP3     H2       HT       0.417000       1.00800           0
     65648 TIP3     18578    TIP3     OH2      OT      -0.834000       15.9994           0
     65649 TIP3     18578    TIP3     H1       HT       0.417000       1.00800           0
     65650 TIP3     18578    TIP3     H2       HT       0.417000       1.00800           0
     65651 TIP3     18579    TIP3     OH2      OT      -0.834000       15.9994           0
     65652 TIP3     18579    TIP3     H1       HT       0.417000       1.00800           0
     65653 TIP3     18579    TIP3     H2       HT       0.417000       1.00800           0
     65654 TIP3     18580    TIP3     OH2      OT      -0.834000       15.9994           0
     65655 TIP3     18580    TIP3     H1       HT       0.417000       1.00800           0
     65656 TIP3     18580    TIP3     H2       HT       0.417000       1.00800           0
     65657 TIP3     18581    TIP3     OH2      OT      -0.834000       15.9994           0
     65658 TIP3     18581    TIP3     H1       HT       0.417000       1.00800           0
     65659 TIP3     18581    TIP3     H2       HT       0.417000       1.00800           0
     65660 TIP3     18582    TIP3     OH2      OT      -0.834000       15.9994           0
     65661 TIP3     18582    TIP3     H1       HT       0.417000       1.00800           0
     65662 TIP3     18582    TIP3     H2       HT       0.417000       1.00800           0
     65663 TIP3     18583    TIP3     OH2      OT      -0.834000       15.9994           0
     65664 TIP3     18583    TIP3     H1       HT       0.417000       1.00800           0
     65665 TIP3     18583    TIP3     H2       HT       0.417000       1.00800           0
     65666 TIP3     18584    TIP3     OH2      OT      -0.834000       15.9994           0
     65667 TIP3     18584    TIP3     H1       HT       0.417000       1.00800           0
     65668 TIP3     18584    TIP3     H2       HT       0.417000       1.00800           0
     65669 TIP3     18585    TIP3     OH2      OT      -0.834000       15.9994           0
     65670 TIP3     18585    TIP3     H1       HT       0.417000       1.00800           0
     65671 TIP3     18585    TIP3     H2       HT       0.417000       1.00800           0
     65672 TIP3     18586    TIP3     OH2      OT      -0.834000       15.9994           0
     65673 TIP3     18586    TIP3     H1       HT       0.417000       1.00800           0
     65674 TIP3     18586    TIP3     H2       HT       0.417000       1.00800           0
     65675 TIP3     18587    TIP3     OH2      OT      -0.834000       15.9994           0
     65676 TIP3     18587    TIP3     H1       HT       0.417000       1.00800           0
     65677 TIP3     18587    TIP3     H2       HT       0.417000       1.00800           0
     65678 TIP3     18588    TIP3     OH2      OT      -0.834000       15.9994           0
     65679 TIP3     18588    TIP3     H1       HT       0.417000       1.00800           0
     65680 TIP3     18588    TIP3     H2       HT       0.417000       1.00800           0
     65681 TIP3     18589    TIP3     OH2      OT      -0.834000       15.9994           0
     65682 TIP3     18589    TIP3     H1       HT       0.417000       1.00800           0
     65683 TIP3     18589    TIP3     H2       HT       0.417000       1.00800           0
     65684 TIP3     18590    TIP3     OH2      OT      -0.834000       15.9994           0
     65685 TIP3     18590    TIP3     H1       HT       0.417000       1.00800           0
     65686 TIP3     18590    TIP3     H2       HT       0.417000       1.00800           0
     65687 TIP3     18591    TIP3     OH2      OT      -0.834000       15.9994           0
     65688 TIP3     18591    TIP3     H1       HT       0.417000       1.00800           0
     65689 TIP3     18591    TIP3     H2       HT       0.417000       1.00800           0
     65690 TIP3     18592    TIP3     OH2      OT      -0.834000       15.9994           0
     65691 TIP3     18592    TIP3     H1       HT       0.417000       1.00800           0
     65692 TIP3     18592    TIP3     H2       HT       0.417000       1.00800           0
     65693 TIP3     18593    TIP3     OH2      OT      -0.834000       15.9994           0
     65694 TIP3     18593    TIP3     H1       HT       0.417000       1.00800           0
     65695 TIP3     18593    TIP3     H2       HT       0.417000       1.00800           0
     65696 TIP3     18594    TIP3     OH2      OT      -0.834000       15.9994           0
     65697 TIP3     18594    TIP3     H1       HT       0.417000       1.00800           0
     65698 TIP3     18594    TIP3     H2       HT       0.417000       1.00800           0
     65699 TIP3     18595    TIP3     OH2      OT      -0.834000       15.9994           0
     65700 TIP3     18595    TIP3     H1       HT       0.417000       1.00800           0
     65701 TIP3     18595    TIP3     H2       HT       0.417000       1.00800           0
     65702 TIP3     18596    TIP3     OH2      OT      -0.834000       15.9994           0
     65703 TIP3     18596    TIP3     H1       HT       0.417000       1.00800           0
     65704 TIP3     18596    TIP3     H2       HT       0.417000       1.00800           0
     65705 TIP3     18597    TIP3     OH2      OT      -0.834000       15.9994           0
     65706 TIP3     18597    TIP3     H1       HT       0.417000       1.00800           0
     65707 TIP3     18597    TIP3     H2       HT       0.417000       1.00800           0
     65708 TIP3     18598    TIP3     OH2      OT      -0.834000       15.9994           0
     65709 TIP3     18598    TIP3     H1       HT       0.417000       1.00800           0
     65710 TIP3     18598    TIP3     H2       HT       0.417000       1.00800           0
     65711 TIP3     18599    TIP3     OH2      OT      -0.834000       15.9994           0
     65712 TIP3     18599    TIP3     H1       HT       0.417000       1.00800           0
     65713 TIP3     18599    TIP3     H2       HT       0.417000       1.00800           0
     65714 TIP3     18600    TIP3     OH2      OT      -0.834000       15.9994           0
     65715 TIP3     18600    TIP3     H1       HT       0.417000       1.00800           0
     65716 TIP3     18600    TIP3     H2       HT       0.417000       1.00800           0
     65717 TIP3     18601    TIP3     OH2      OT      -0.834000       15.9994           0
     65718 TIP3     18601    TIP3     H1       HT       0.417000       1.00800           0
     65719 TIP3     18601    TIP3     H2       HT       0.417000       1.00800           0
     65720 TIP3     18602    TIP3     OH2      OT      -0.834000       15.9994           0
     65721 TIP3     18602    TIP3     H1       HT       0.417000       1.00800           0
     65722 TIP3     18602    TIP3     H2       HT       0.417000       1.00800           0
     65723 TIP3     18603    TIP3     OH2      OT      -0.834000       15.9994           0
     65724 TIP3     18603    TIP3     H1       HT       0.417000       1.00800           0
     65725 TIP3     18603    TIP3     H2       HT       0.417000       1.00800           0
     65726 TIP3     18604    TIP3     OH2      OT      -0.834000       15.9994           0
     65727 TIP3     18604    TIP3     H1       HT       0.417000       1.00800           0
     65728 TIP3     18604    TIP3     H2       HT       0.417000       1.00800           0
     65729 TIP3     18605    TIP3     OH2      OT      -0.834000       15.9994           0
     65730 TIP3     18605    TIP3     H1       HT       0.417000       1.00800           0
     65731 TIP3     18605    TIP3     H2       HT       0.417000       1.00800           0
     65732 TIP3     18606    TIP3     OH2      OT      -0.834000       15.9994           0
     65733 TIP3     18606    TIP3     H1       HT       0.417000       1.00800           0
     65734 TIP3     18606    TIP3     H2       HT       0.417000       1.00800           0
     65735 TIP3     18607    TIP3     OH2      OT      -0.834000       15.9994           0
     65736 TIP3     18607    TIP3     H1       HT       0.417000       1.00800           0
     65737 TIP3     18607    TIP3     H2       HT       0.417000       1.00800           0
     65738 TIP3     18608    TIP3     OH2      OT      -0.834000       15.9994           0
     65739 TIP3     18608    TIP3     H1       HT       0.417000       1.00800           0
     65740 TIP3     18608    TIP3     H2       HT       0.417000       1.00800           0
     65741 TIP3     18609    TIP3     OH2      OT      -0.834000       15.9994           0
     65742 TIP3     18609    TIP3     H1       HT       0.417000       1.00800           0
     65743 TIP3     18609    TIP3     H2       HT       0.417000       1.00800           0
     65744 TIP3     18610    TIP3     OH2      OT      -0.834000       15.9994           0
     65745 TIP3     18610    TIP3     H1       HT       0.417000       1.00800           0
     65746 TIP3     18610    TIP3     H2       HT       0.417000       1.00800           0
     65747 TIP3     18611    TIP3     OH2      OT      -0.834000       15.9994           0
     65748 TIP3     18611    TIP3     H1       HT       0.417000       1.00800           0
     65749 TIP3     18611    TIP3     H2       HT       0.417000       1.00800           0
     65750 TIP3     18612    TIP3     OH2      OT      -0.834000       15.9994           0
     65751 TIP3     18612    TIP3     H1       HT       0.417000       1.00800           0
     65752 TIP3     18612    TIP3     H2       HT       0.417000       1.00800           0
     65753 TIP3     18613    TIP3     OH2      OT      -0.834000       15.9994           0
     65754 TIP3     18613    TIP3     H1       HT       0.417000       1.00800           0
     65755 TIP3     18613    TIP3     H2       HT       0.417000       1.00800           0
     65756 TIP3     18614    TIP3     OH2      OT      -0.834000       15.9994           0
     65757 TIP3     18614    TIP3     H1       HT       0.417000       1.00800           0
     65758 TIP3     18614    TIP3     H2       HT       0.417000       1.00800           0
     65759 TIP3     18615    TIP3     OH2      OT      -0.834000       15.9994           0
     65760 TIP3     18615    TIP3     H1       HT       0.417000       1.00800           0
     65761 TIP3     18615    TIP3     H2       HT       0.417000       1.00800           0
     65762 TIP3     18616    TIP3     OH2      OT      -0.834000       15.9994           0
     65763 TIP3     18616    TIP3     H1       HT       0.417000       1.00800           0
     65764 TIP3     18616    TIP3     H2       HT       0.417000       1.00800           0
     65765 TIP3     18617    TIP3     OH2      OT      -0.834000       15.9994           0
     65766 TIP3     18617    TIP3     H1       HT       0.417000       1.00800           0
     65767 TIP3     18617    TIP3     H2       HT       0.417000       1.00800           0
     65768 TIP3     18618    TIP3     OH2      OT      -0.834000       15.9994           0
     65769 TIP3     18618    TIP3     H1       HT       0.417000       1.00800           0
     65770 TIP3     18618    TIP3     H2       HT       0.417000       1.00800           0
     65771 TIP3     18619    TIP3     OH2      OT      -0.834000       15.9994           0
     65772 TIP3     18619    TIP3     H1       HT       0.417000       1.00800           0
     65773 TIP3     18619    TIP3     H2       HT       0.417000       1.00800           0
     65774 TIP3     18620    TIP3     OH2      OT      -0.834000       15.9994           0
     65775 TIP3     18620    TIP3     H1       HT       0.417000       1.00800           0
     65776 TIP3     18620    TIP3     H2       HT       0.417000       1.00800           0
     65777 TIP3     18621    TIP3     OH2      OT      -0.834000       15.9994           0
     65778 TIP3     18621    TIP3     H1       HT       0.417000       1.00800           0
     65779 TIP3     18621    TIP3     H2       HT       0.417000       1.00800           0
     65780 TIP3     18622    TIP3     OH2      OT      -0.834000       15.9994           0
     65781 TIP3     18622    TIP3     H1       HT       0.417000       1.00800           0
     65782 TIP3     18622    TIP3     H2       HT       0.417000       1.00800           0
     65783 TIP3     18623    TIP3     OH2      OT      -0.834000       15.9994           0
     65784 TIP3     18623    TIP3     H1       HT       0.417000       1.00800           0
     65785 TIP3     18623    TIP3     H2       HT       0.417000       1.00800           0
     65786 TIP3     18624    TIP3     OH2      OT      -0.834000       15.9994           0
     65787 TIP3     18624    TIP3     H1       HT       0.417000       1.00800           0
     65788 TIP3     18624    TIP3     H2       HT       0.417000       1.00800           0
     65789 TIP3     18625    TIP3     OH2      OT      -0.834000       15.9994           0
     65790 TIP3     18625    TIP3     H1       HT       0.417000       1.00800           0
     65791 TIP3     18625    TIP3     H2       HT       0.417000       1.00800           0
     65792 TIP3     18626    TIP3     OH2      OT      -0.834000       15.9994           0
     65793 TIP3     18626    TIP3     H1       HT       0.417000       1.00800           0
     65794 TIP3     18626    TIP3     H2       HT       0.417000       1.00800           0
     65795 TIP3     18627    TIP3     OH2      OT      -0.834000       15.9994           0
     65796 TIP3     18627    TIP3     H1       HT       0.417000       1.00800           0
     65797 TIP3     18627    TIP3     H2       HT       0.417000       1.00800           0
     65798 TIP3     18628    TIP3     OH2      OT      -0.834000       15.9994           0
     65799 TIP3     18628    TIP3     H1       HT       0.417000       1.00800           0
     65800 TIP3     18628    TIP3     H2       HT       0.417000       1.00800           0
     65801 TIP3     18629    TIP3     OH2      OT      -0.834000       15.9994           0
     65802 TIP3     18629    TIP3     H1       HT       0.417000       1.00800           0
     65803 TIP3     18629    TIP3     H2       HT       0.417000       1.00800           0
     65804 TIP3     18630    TIP3     OH2      OT      -0.834000       15.9994           0
     65805 TIP3     18630    TIP3     H1       HT       0.417000       1.00800           0
     65806 TIP3     18630    TIP3     H2       HT       0.417000       1.00800           0
     65807 TIP3     18631    TIP3     OH2      OT      -0.834000       15.9994           0
     65808 TIP3     18631    TIP3     H1       HT       0.417000       1.00800           0
     65809 TIP3     18631    TIP3     H2       HT       0.417000       1.00800           0
     65810 TIP3     18632    TIP3     OH2      OT      -0.834000       15.9994           0
     65811 TIP3     18632    TIP3     H1       HT       0.417000       1.00800           0
     65812 TIP3     18632    TIP3     H2       HT       0.417000       1.00800           0
     65813 TIP3     18633    TIP3     OH2      OT      -0.834000       15.9994           0
     65814 TIP3     18633    TIP3     H1       HT       0.417000       1.00800           0
     65815 TIP3     18633    TIP3     H2       HT       0.417000       1.00800           0
     65816 TIP3     18634    TIP3     OH2      OT      -0.834000       15.9994           0
     65817 TIP3     18634    TIP3     H1       HT       0.417000       1.00800           0
     65818 TIP3     18634    TIP3     H2       HT       0.417000       1.00800           0
     65819 TIP3     18635    TIP3     OH2      OT      -0.834000       15.9994           0
     65820 TIP3     18635    TIP3     H1       HT       0.417000       1.00800           0
     65821 TIP3     18635    TIP3     H2       HT       0.417000       1.00800           0
     65822 TIP3     18636    TIP3     OH2      OT      -0.834000       15.9994           0
     65823 TIP3     18636    TIP3     H1       HT       0.417000       1.00800           0
     65824 TIP3     18636    TIP3     H2       HT       0.417000       1.00800           0
     65825 TIP3     18637    TIP3     OH2      OT      -0.834000       15.9994           0
     65826 TIP3     18637    TIP3     H1       HT       0.417000       1.00800           0
     65827 TIP3     18637    TIP3     H2       HT       0.417000       1.00800           0
     65828 TIP3     18638    TIP3     OH2      OT      -0.834000       15.9994           0
     65829 TIP3     18638    TIP3     H1       HT       0.417000       1.00800           0
     65830 TIP3     18638    TIP3     H2       HT       0.417000       1.00800           0
     65831 TIP3     18639    TIP3     OH2      OT      -0.834000       15.9994           0
     65832 TIP3     18639    TIP3     H1       HT       0.417000       1.00800           0
     65833 TIP3     18639    TIP3     H2       HT       0.417000       1.00800           0
     65834 TIP3     18640    TIP3     OH2      OT      -0.834000       15.9994           0
     65835 TIP3     18640    TIP3     H1       HT       0.417000       1.00800           0
     65836 TIP3     18640    TIP3     H2       HT       0.417000       1.00800           0
     65837 TIP3     18641    TIP3     OH2      OT      -0.834000       15.9994           0
     65838 TIP3     18641    TIP3     H1       HT       0.417000       1.00800           0
     65839 TIP3     18641    TIP3     H2       HT       0.417000       1.00800           0
     65840 TIP3     18642    TIP3     OH2      OT      -0.834000       15.9994           0
     65841 TIP3     18642    TIP3     H1       HT       0.417000       1.00800           0
     65842 TIP3     18642    TIP3     H2       HT       0.417000       1.00800           0
     65843 TIP3     18643    TIP3     OH2      OT      -0.834000       15.9994           0
     65844 TIP3     18643    TIP3     H1       HT       0.417000       1.00800           0
     65845 TIP3     18643    TIP3     H2       HT       0.417000       1.00800           0
     65846 TIP3     18644    TIP3     OH2      OT      -0.834000       15.9994           0
     65847 TIP3     18644    TIP3     H1       HT       0.417000       1.00800           0
     65848 TIP3     18644    TIP3     H2       HT       0.417000       1.00800           0
     65849 TIP3     18645    TIP3     OH2      OT      -0.834000       15.9994           0
     65850 TIP3     18645    TIP3     H1       HT       0.417000       1.00800           0
     65851 TIP3     18645    TIP3     H2       HT       0.417000       1.00800           0
     65852 TIP3     18646    TIP3     OH2      OT      -0.834000       15.9994           0
     65853 TIP3     18646    TIP3     H1       HT       0.417000       1.00800           0
     65854 TIP3     18646    TIP3     H2       HT       0.417000       1.00800           0
     65855 TIP3     18647    TIP3     OH2      OT      -0.834000       15.9994           0
     65856 TIP3     18647    TIP3     H1       HT       0.417000       1.00800           0
     65857 TIP3     18647    TIP3     H2       HT       0.417000       1.00800           0
     65858 TIP3     18648    TIP3     OH2      OT      -0.834000       15.9994           0
     65859 TIP3     18648    TIP3     H1       HT       0.417000       1.00800           0
     65860 TIP3     18648    TIP3     H2       HT       0.417000       1.00800           0
     65861 TIP3     18649    TIP3     OH2      OT      -0.834000       15.9994           0
     65862 TIP3     18649    TIP3     H1       HT       0.417000       1.00800           0
     65863 TIP3     18649    TIP3     H2       HT       0.417000       1.00800           0
     65864 TIP3     18650    TIP3     OH2      OT      -0.834000       15.9994           0
     65865 TIP3     18650    TIP3     H1       HT       0.417000       1.00800           0
     65866 TIP3     18650    TIP3     H2       HT       0.417000       1.00800           0
     65867 TIP3     18651    TIP3     OH2      OT      -0.834000       15.9994           0
     65868 TIP3     18651    TIP3     H1       HT       0.417000       1.00800           0
     65869 TIP3     18651    TIP3     H2       HT       0.417000       1.00800           0
     65870 TIP3     18652    TIP3     OH2      OT      -0.834000       15.9994           0
     65871 TIP3     18652    TIP3     H1       HT       0.417000       1.00800           0
     65872 TIP3     18652    TIP3     H2       HT       0.417000       1.00800           0
     65873 TIP3     18653    TIP3     OH2      OT      -0.834000       15.9994           0
     65874 TIP3     18653    TIP3     H1       HT       0.417000       1.00800           0
     65875 TIP3     18653    TIP3     H2       HT       0.417000       1.00800           0
     65876 TIP3     18654    TIP3     OH2      OT      -0.834000       15.9994           0
     65877 TIP3     18654    TIP3     H1       HT       0.417000       1.00800           0
     65878 TIP3     18654    TIP3     H2       HT       0.417000       1.00800           0
     65879 TIP3     18655    TIP3     OH2      OT      -0.834000       15.9994           0
     65880 TIP3     18655    TIP3     H1       HT       0.417000       1.00800           0
     65881 TIP3     18655    TIP3     H2       HT       0.417000       1.00800           0
     65882 TIP3     18656    TIP3     OH2      OT      -0.834000       15.9994           0
     65883 TIP3     18656    TIP3     H1       HT       0.417000       1.00800           0
     65884 TIP3     18656    TIP3     H2       HT       0.417000       1.00800           0
     65885 TIP3     18657    TIP3     OH2      OT      -0.834000       15.9994           0
     65886 TIP3     18657    TIP3     H1       HT       0.417000       1.00800           0
     65887 TIP3     18657    TIP3     H2       HT       0.417000       1.00800           0
     65888 TIP3     18658    TIP3     OH2      OT      -0.834000       15.9994           0
     65889 TIP3     18658    TIP3     H1       HT       0.417000       1.00800           0
     65890 TIP3     18658    TIP3     H2       HT       0.417000       1.00800           0
     65891 TIP3     18659    TIP3     OH2      OT      -0.834000       15.9994           0
     65892 TIP3     18659    TIP3     H1       HT       0.417000       1.00800           0
     65893 TIP3     18659    TIP3     H2       HT       0.417000       1.00800           0
     65894 TIP3     18660    TIP3     OH2      OT      -0.834000       15.9994           0
     65895 TIP3     18660    TIP3     H1       HT       0.417000       1.00800           0
     65896 TIP3     18660    TIP3     H2       HT       0.417000       1.00800           0
     65897 TIP3     18661    TIP3     OH2      OT      -0.834000       15.9994           0
     65898 TIP3     18661    TIP3     H1       HT       0.417000       1.00800           0
     65899 TIP3     18661    TIP3     H2       HT       0.417000       1.00800           0
     65900 TIP3     18662    TIP3     OH2      OT      -0.834000       15.9994           0
     65901 TIP3     18662    TIP3     H1       HT       0.417000       1.00800           0
     65902 TIP3     18662    TIP3     H2       HT       0.417000       1.00800           0
     65903 TIP3     18663    TIP3     OH2      OT      -0.834000       15.9994           0
     65904 TIP3     18663    TIP3     H1       HT       0.417000       1.00800           0
     65905 TIP3     18663    TIP3     H2       HT       0.417000       1.00800           0
     65906 TIP3     18664    TIP3     OH2      OT      -0.834000       15.9994           0
     65907 TIP3     18664    TIP3     H1       HT       0.417000       1.00800           0
     65908 TIP3     18664    TIP3     H2       HT       0.417000       1.00800           0
     65909 TIP3     18665    TIP3     OH2      OT      -0.834000       15.9994           0
     65910 TIP3     18665    TIP3     H1       HT       0.417000       1.00800           0
     65911 TIP3     18665    TIP3     H2       HT       0.417000       1.00800           0
     65912 TIP3     18666    TIP3     OH2      OT      -0.834000       15.9994           0
     65913 TIP3     18666    TIP3     H1       HT       0.417000       1.00800           0
     65914 TIP3     18666    TIP3     H2       HT       0.417000       1.00800           0
     65915 TIP3     18667    TIP3     OH2      OT      -0.834000       15.9994           0
     65916 TIP3     18667    TIP3     H1       HT       0.417000       1.00800           0
     65917 TIP3     18667    TIP3     H2       HT       0.417000       1.00800           0
     65918 TIP3     18668    TIP3     OH2      OT      -0.834000       15.9994           0
     65919 TIP3     18668    TIP3     H1       HT       0.417000       1.00800           0
     65920 TIP3     18668    TIP3     H2       HT       0.417000       1.00800           0
     65921 TIP3     18669    TIP3     OH2      OT      -0.834000       15.9994           0
     65922 TIP3     18669    TIP3     H1       HT       0.417000       1.00800           0
     65923 TIP3     18669    TIP3     H2       HT       0.417000       1.00800           0
     65924 TIP3     18670    TIP3     OH2      OT      -0.834000       15.9994           0
     65925 TIP3     18670    TIP3     H1       HT       0.417000       1.00800           0
     65926 TIP3     18670    TIP3     H2       HT       0.417000       1.00800           0
     65927 TIP3     18671    TIP3     OH2      OT      -0.834000       15.9994           0
     65928 TIP3     18671    TIP3     H1       HT       0.417000       1.00800           0
     65929 TIP3     18671    TIP3     H2       HT       0.417000       1.00800           0
     65930 TIP3     18672    TIP3     OH2      OT      -0.834000       15.9994           0
     65931 TIP3     18672    TIP3     H1       HT       0.417000       1.00800           0
     65932 TIP3     18672    TIP3     H2       HT       0.417000       1.00800           0
     65933 TIP3     18673    TIP3     OH2      OT      -0.834000       15.9994           0
     65934 TIP3     18673    TIP3     H1       HT       0.417000       1.00800           0
     65935 TIP3     18673    TIP3     H2       HT       0.417000       1.00800           0
     65936 TIP3     18674    TIP3     OH2      OT      -0.834000       15.9994           0
     65937 TIP3     18674    TIP3     H1       HT       0.417000       1.00800           0
     65938 TIP3     18674    TIP3     H2       HT       0.417000       1.00800           0
     65939 TIP3     18675    TIP3     OH2      OT      -0.834000       15.9994           0
     65940 TIP3     18675    TIP3     H1       HT       0.417000       1.00800           0
     65941 TIP3     18675    TIP3     H2       HT       0.417000       1.00800           0
     65942 TIP3     18676    TIP3     OH2      OT      -0.834000       15.9994           0
     65943 TIP3     18676    TIP3     H1       HT       0.417000       1.00800           0
     65944 TIP3     18676    TIP3     H2       HT       0.417000       1.00800           0
     65945 TIP3     18677    TIP3     OH2      OT      -0.834000       15.9994           0
     65946 TIP3     18677    TIP3     H1       HT       0.417000       1.00800           0
     65947 TIP3     18677    TIP3     H2       HT       0.417000       1.00800           0
     65948 TIP3     18678    TIP3     OH2      OT      -0.834000       15.9994           0
     65949 TIP3     18678    TIP3     H1       HT       0.417000       1.00800           0
     65950 TIP3     18678    TIP3     H2       HT       0.417000       1.00800           0
     65951 TIP3     18679    TIP3     OH2      OT      -0.834000       15.9994           0
     65952 TIP3     18679    TIP3     H1       HT       0.417000       1.00800           0
     65953 TIP3     18679    TIP3     H2       HT       0.417000       1.00800           0
     65954 TIP3     18680    TIP3     OH2      OT      -0.834000       15.9994           0
     65955 TIP3     18680    TIP3     H1       HT       0.417000       1.00800           0
     65956 TIP3     18680    TIP3     H2       HT       0.417000       1.00800           0
     65957 TIP3     18681    TIP3     OH2      OT      -0.834000       15.9994           0
     65958 TIP3     18681    TIP3     H1       HT       0.417000       1.00800           0
     65959 TIP3     18681    TIP3     H2       HT       0.417000       1.00800           0
     65960 TIP3     18682    TIP3     OH2      OT      -0.834000       15.9994           0
     65961 TIP3     18682    TIP3     H1       HT       0.417000       1.00800           0
     65962 TIP3     18682    TIP3     H2       HT       0.417000       1.00800           0
     65963 TIP3     18683    TIP3     OH2      OT      -0.834000       15.9994           0
     65964 TIP3     18683    TIP3     H1       HT       0.417000       1.00800           0
     65965 TIP3     18683    TIP3     H2       HT       0.417000       1.00800           0
     65966 TIP3     18684    TIP3     OH2      OT      -0.834000       15.9994           0
     65967 TIP3     18684    TIP3     H1       HT       0.417000       1.00800           0
     65968 TIP3     18684    TIP3     H2       HT       0.417000       1.00800           0
     65969 TIP3     18685    TIP3     OH2      OT      -0.834000       15.9994           0
     65970 TIP3     18685    TIP3     H1       HT       0.417000       1.00800           0
     65971 TIP3     18685    TIP3     H2       HT       0.417000       1.00800           0
     65972 TIP3     18686    TIP3     OH2      OT      -0.834000       15.9994           0
     65973 TIP3     18686    TIP3     H1       HT       0.417000       1.00800           0
     65974 TIP3     18686    TIP3     H2       HT       0.417000       1.00800           0
     65975 TIP3     18687    TIP3     OH2      OT      -0.834000       15.9994           0
     65976 TIP3     18687    TIP3     H1       HT       0.417000       1.00800           0
     65977 TIP3     18687    TIP3     H2       HT       0.417000       1.00800           0
     65978 TIP3     18688    TIP3     OH2      OT      -0.834000       15.9994           0
     65979 TIP3     18688    TIP3     H1       HT       0.417000       1.00800           0
     65980 TIP3     18688    TIP3     H2       HT       0.417000       1.00800           0
     65981 TIP3     18689    TIP3     OH2      OT      -0.834000       15.9994           0
     65982 TIP3     18689    TIP3     H1       HT       0.417000       1.00800           0
     65983 TIP3     18689    TIP3     H2       HT       0.417000       1.00800           0
     65984 TIP3     18690    TIP3     OH2      OT      -0.834000       15.9994           0
     65985 TIP3     18690    TIP3     H1       HT       0.417000       1.00800           0
     65986 TIP3     18690    TIP3     H2       HT       0.417000       1.00800           0
     65987 TIP3     18691    TIP3     OH2      OT      -0.834000       15.9994           0
     65988 TIP3     18691    TIP3     H1       HT       0.417000       1.00800           0
     65989 TIP3     18691    TIP3     H2       HT       0.417000       1.00800           0
     65990 TIP3     18692    TIP3     OH2      OT      -0.834000       15.9994           0
     65991 TIP3     18692    TIP3     H1       HT       0.417000       1.00800           0
     65992 TIP3     18692    TIP3     H2       HT       0.417000       1.00800           0
     65993 TIP3     18693    TIP3     OH2      OT      -0.834000       15.9994           0
     65994 TIP3     18693    TIP3     H1       HT       0.417000       1.00800           0
     65995 TIP3     18693    TIP3     H2       HT       0.417000       1.00800           0
     65996 TIP3     18694    TIP3     OH2      OT      -0.834000       15.9994           0
     65997 TIP3     18694    TIP3     H1       HT       0.417000       1.00800           0
     65998 TIP3     18694    TIP3     H2       HT       0.417000       1.00800           0
     65999 TIP3     18695    TIP3     OH2      OT      -0.834000       15.9994           0
     66000 TIP3     18695    TIP3     H1       HT       0.417000       1.00800           0
     66001 TIP3     18695    TIP3     H2       HT       0.417000       1.00800           0
     66002 TIP3     18696    TIP3     OH2      OT      -0.834000       15.9994           0
     66003 TIP3     18696    TIP3     H1       HT       0.417000       1.00800           0
     66004 TIP3     18696    TIP3     H2       HT       0.417000       1.00800           0
     66005 TIP3     18697    TIP3     OH2      OT      -0.834000       15.9994           0
     66006 TIP3     18697    TIP3     H1       HT       0.417000       1.00800           0
     66007 TIP3     18697    TIP3     H2       HT       0.417000       1.00800           0
     66008 TIP3     18698    TIP3     OH2      OT      -0.834000       15.9994           0
     66009 TIP3     18698    TIP3     H1       HT       0.417000       1.00800           0
     66010 TIP3     18698    TIP3     H2       HT       0.417000       1.00800           0
     66011 TIP3     18699    TIP3     OH2      OT      -0.834000       15.9994           0
     66012 TIP3     18699    TIP3     H1       HT       0.417000       1.00800           0
     66013 TIP3     18699    TIP3     H2       HT       0.417000       1.00800           0
     66014 TIP3     18700    TIP3     OH2      OT      -0.834000       15.9994           0
     66015 TIP3     18700    TIP3     H1       HT       0.417000       1.00800           0
     66016 TIP3     18700    TIP3     H2       HT       0.417000       1.00800           0
     66017 TIP3     18701    TIP3     OH2      OT      -0.834000       15.9994           0
     66018 TIP3     18701    TIP3     H1       HT       0.417000       1.00800           0
     66019 TIP3     18701    TIP3     H2       HT       0.417000       1.00800           0
     66020 TIP3     18702    TIP3     OH2      OT      -0.834000       15.9994           0
     66021 TIP3     18702    TIP3     H1       HT       0.417000       1.00800           0
     66022 TIP3     18702    TIP3     H2       HT       0.417000       1.00800           0
     66023 TIP3     18703    TIP3     OH2      OT      -0.834000       15.9994           0
     66024 TIP3     18703    TIP3     H1       HT       0.417000       1.00800           0
     66025 TIP3     18703    TIP3     H2       HT       0.417000       1.00800           0
     66026 TIP3     18704    TIP3     OH2      OT      -0.834000       15.9994           0
     66027 TIP3     18704    TIP3     H1       HT       0.417000       1.00800           0
     66028 TIP3     18704    TIP3     H2       HT       0.417000       1.00800           0
     66029 TIP3     18705    TIP3     OH2      OT      -0.834000       15.9994           0
     66030 TIP3     18705    TIP3     H1       HT       0.417000       1.00800           0
     66031 TIP3     18705    TIP3     H2       HT       0.417000       1.00800           0
     66032 TIP3     18706    TIP3     OH2      OT      -0.834000       15.9994           0
     66033 TIP3     18706    TIP3     H1       HT       0.417000       1.00800           0
     66034 TIP3     18706    TIP3     H2       HT       0.417000       1.00800           0
     66035 TIP3     18707    TIP3     OH2      OT      -0.834000       15.9994           0
     66036 TIP3     18707    TIP3     H1       HT       0.417000       1.00800           0
     66037 TIP3     18707    TIP3     H2       HT       0.417000       1.00800           0
     66038 TIP3     18708    TIP3     OH2      OT      -0.834000       15.9994           0
     66039 TIP3     18708    TIP3     H1       HT       0.417000       1.00800           0
     66040 TIP3     18708    TIP3     H2       HT       0.417000       1.00800           0
     66041 TIP3     18709    TIP3     OH2      OT      -0.834000       15.9994           0
     66042 TIP3     18709    TIP3     H1       HT       0.417000       1.00800           0
     66043 TIP3     18709    TIP3     H2       HT       0.417000       1.00800           0
     66044 TIP3     18710    TIP3     OH2      OT      -0.834000       15.9994           0
     66045 TIP3     18710    TIP3     H1       HT       0.417000       1.00800           0
     66046 TIP3     18710    TIP3     H2       HT       0.417000       1.00800           0
     66047 TIP3     18711    TIP3     OH2      OT      -0.834000       15.9994           0
     66048 TIP3     18711    TIP3     H1       HT       0.417000       1.00800           0
     66049 TIP3     18711    TIP3     H2       HT       0.417000       1.00800           0
     66050 TIP3     18712    TIP3     OH2      OT      -0.834000       15.9994           0
     66051 TIP3     18712    TIP3     H1       HT       0.417000       1.00800           0
     66052 TIP3     18712    TIP3     H2       HT       0.417000       1.00800           0
     66053 TIP3     18713    TIP3     OH2      OT      -0.834000       15.9994           0
     66054 TIP3     18713    TIP3     H1       HT       0.417000       1.00800           0
     66055 TIP3     18713    TIP3     H2       HT       0.417000       1.00800           0
     66056 TIP3     18714    TIP3     OH2      OT      -0.834000       15.9994           0
     66057 TIP3     18714    TIP3     H1       HT       0.417000       1.00800           0
     66058 TIP3     18714    TIP3     H2       HT       0.417000       1.00800           0
     66059 TIP3     18715    TIP3     OH2      OT      -0.834000       15.9994           0
     66060 TIP3     18715    TIP3     H1       HT       0.417000       1.00800           0
     66061 TIP3     18715    TIP3     H2       HT       0.417000       1.00800           0
     66062 TIP3     18716    TIP3     OH2      OT      -0.834000       15.9994           0
     66063 TIP3     18716    TIP3     H1       HT       0.417000       1.00800           0
     66064 TIP3     18716    TIP3     H2       HT       0.417000       1.00800           0
     66065 TIP3     18717    TIP3     OH2      OT      -0.834000       15.9994           0
     66066 TIP3     18717    TIP3     H1       HT       0.417000       1.00800           0
     66067 TIP3     18717    TIP3     H2       HT       0.417000       1.00800           0
     66068 TIP3     18718    TIP3     OH2      OT      -0.834000       15.9994           0
     66069 TIP3     18718    TIP3     H1       HT       0.417000       1.00800           0
     66070 TIP3     18718    TIP3     H2       HT       0.417000       1.00800           0
     66071 TIP3     18719    TIP3     OH2      OT      -0.834000       15.9994           0
     66072 TIP3     18719    TIP3     H1       HT       0.417000       1.00800           0
     66073 TIP3     18719    TIP3     H2       HT       0.417000       1.00800           0
     66074 TIP3     18720    TIP3     OH2      OT      -0.834000       15.9994           0
     66075 TIP3     18720    TIP3     H1       HT       0.417000       1.00800           0
     66076 TIP3     18720    TIP3     H2       HT       0.417000       1.00800           0
     66077 TIP3     18721    TIP3     OH2      OT      -0.834000       15.9994           0
     66078 TIP3     18721    TIP3     H1       HT       0.417000       1.00800           0
     66079 TIP3     18721    TIP3     H2       HT       0.417000       1.00800           0
     66080 TIP3     18722    TIP3     OH2      OT      -0.834000       15.9994           0
     66081 TIP3     18722    TIP3     H1       HT       0.417000       1.00800           0
     66082 TIP3     18722    TIP3     H2       HT       0.417000       1.00800           0
     66083 TIP3     18723    TIP3     OH2      OT      -0.834000       15.9994           0
     66084 TIP3     18723    TIP3     H1       HT       0.417000       1.00800           0
     66085 TIP3     18723    TIP3     H2       HT       0.417000       1.00800           0
     66086 TIP3     18724    TIP3     OH2      OT      -0.834000       15.9994           0
     66087 TIP3     18724    TIP3     H1       HT       0.417000       1.00800           0
     66088 TIP3     18724    TIP3     H2       HT       0.417000       1.00800           0
     66089 TIP3     18725    TIP3     OH2      OT      -0.834000       15.9994           0
     66090 TIP3     18725    TIP3     H1       HT       0.417000       1.00800           0
     66091 TIP3     18725    TIP3     H2       HT       0.417000       1.00800           0
     66092 TIP3     18726    TIP3     OH2      OT      -0.834000       15.9994           0
     66093 TIP3     18726    TIP3     H1       HT       0.417000       1.00800           0
     66094 TIP3     18726    TIP3     H2       HT       0.417000       1.00800           0
     66095 TIP3     18727    TIP3     OH2      OT      -0.834000       15.9994           0
     66096 TIP3     18727    TIP3     H1       HT       0.417000       1.00800           0
     66097 TIP3     18727    TIP3     H2       HT       0.417000       1.00800           0
     66098 TIP3     18728    TIP3     OH2      OT      -0.834000       15.9994           0
     66099 TIP3     18728    TIP3     H1       HT       0.417000       1.00800           0
     66100 TIP3     18728    TIP3     H2       HT       0.417000       1.00800           0
     66101 TIP3     18729    TIP3     OH2      OT      -0.834000       15.9994           0
     66102 TIP3     18729    TIP3     H1       HT       0.417000       1.00800           0
     66103 TIP3     18729    TIP3     H2       HT       0.417000       1.00800           0
     66104 TIP3     18730    TIP3     OH2      OT      -0.834000       15.9994           0
     66105 TIP3     18730    TIP3     H1       HT       0.417000       1.00800           0
     66106 TIP3     18730    TIP3     H2       HT       0.417000       1.00800           0
     66107 TIP3     18731    TIP3     OH2      OT      -0.834000       15.9994           0
     66108 TIP3     18731    TIP3     H1       HT       0.417000       1.00800           0
     66109 TIP3     18731    TIP3     H2       HT       0.417000       1.00800           0
     66110 TIP3     18732    TIP3     OH2      OT      -0.834000       15.9994           0
     66111 TIP3     18732    TIP3     H1       HT       0.417000       1.00800           0
     66112 TIP3     18732    TIP3     H2       HT       0.417000       1.00800           0
     66113 TIP3     18733    TIP3     OH2      OT      -0.834000       15.9994           0
     66114 TIP3     18733    TIP3     H1       HT       0.417000       1.00800           0
     66115 TIP3     18733    TIP3     H2       HT       0.417000       1.00800           0
     66116 TIP3     18734    TIP3     OH2      OT      -0.834000       15.9994           0
     66117 TIP3     18734    TIP3     H1       HT       0.417000       1.00800           0
     66118 TIP3     18734    TIP3     H2       HT       0.417000       1.00800           0
     66119 TIP3     18735    TIP3     OH2      OT      -0.834000       15.9994           0
     66120 TIP3     18735    TIP3     H1       HT       0.417000       1.00800           0
     66121 TIP3     18735    TIP3     H2       HT       0.417000       1.00800           0
     66122 TIP3     18736    TIP3     OH2      OT      -0.834000       15.9994           0
     66123 TIP3     18736    TIP3     H1       HT       0.417000       1.00800           0
     66124 TIP3     18736    TIP3     H2       HT       0.417000       1.00800           0
     66125 TIP3     18737    TIP3     OH2      OT      -0.834000       15.9994           0
     66126 TIP3     18737    TIP3     H1       HT       0.417000       1.00800           0
     66127 TIP3     18737    TIP3     H2       HT       0.417000       1.00800           0
     66128 TIP3     18738    TIP3     OH2      OT      -0.834000       15.9994           0
     66129 TIP3     18738    TIP3     H1       HT       0.417000       1.00800           0
     66130 TIP3     18738    TIP3     H2       HT       0.417000       1.00800           0
     66131 TIP3     18739    TIP3     OH2      OT      -0.834000       15.9994           0
     66132 TIP3     18739    TIP3     H1       HT       0.417000       1.00800           0
     66133 TIP3     18739    TIP3     H2       HT       0.417000       1.00800           0
     66134 TIP3     18740    TIP3     OH2      OT      -0.834000       15.9994           0
     66135 TIP3     18740    TIP3     H1       HT       0.417000       1.00800           0
     66136 TIP3     18740    TIP3     H2       HT       0.417000       1.00800           0
     66137 TIP3     18741    TIP3     OH2      OT      -0.834000       15.9994           0
     66138 TIP3     18741    TIP3     H1       HT       0.417000       1.00800           0
     66139 TIP3     18741    TIP3     H2       HT       0.417000       1.00800           0
     66140 TIP3     18742    TIP3     OH2      OT      -0.834000       15.9994           0
     66141 TIP3     18742    TIP3     H1       HT       0.417000       1.00800           0
     66142 TIP3     18742    TIP3     H2       HT       0.417000       1.00800           0
     66143 TIP3     18743    TIP3     OH2      OT      -0.834000       15.9994           0
     66144 TIP3     18743    TIP3     H1       HT       0.417000       1.00800           0
     66145 TIP3     18743    TIP3     H2       HT       0.417000       1.00800           0
     66146 TIP3     18744    TIP3     OH2      OT      -0.834000       15.9994           0
     66147 TIP3     18744    TIP3     H1       HT       0.417000       1.00800           0
     66148 TIP3     18744    TIP3     H2       HT       0.417000       1.00800           0
     66149 TIP3     18745    TIP3     OH2      OT      -0.834000       15.9994           0
     66150 TIP3     18745    TIP3     H1       HT       0.417000       1.00800           0
     66151 TIP3     18745    TIP3     H2       HT       0.417000       1.00800           0
     66152 TIP3     18746    TIP3     OH2      OT      -0.834000       15.9994           0
     66153 TIP3     18746    TIP3     H1       HT       0.417000       1.00800           0
     66154 TIP3     18746    TIP3     H2       HT       0.417000       1.00800           0
     66155 TIP3     18747    TIP3     OH2      OT      -0.834000       15.9994           0
     66156 TIP3     18747    TIP3     H1       HT       0.417000       1.00800           0
     66157 TIP3     18747    TIP3     H2       HT       0.417000       1.00800           0
     66158 TIP3     18748    TIP3     OH2      OT      -0.834000       15.9994           0
     66159 TIP3     18748    TIP3     H1       HT       0.417000       1.00800           0
     66160 TIP3     18748    TIP3     H2       HT       0.417000       1.00800           0
     66161 TIP3     18749    TIP3     OH2      OT      -0.834000       15.9994           0
     66162 TIP3     18749    TIP3     H1       HT       0.417000       1.00800           0
     66163 TIP3     18749    TIP3     H2       HT       0.417000       1.00800           0
     66164 TIP3     18750    TIP3     OH2      OT      -0.834000       15.9994           0
     66165 TIP3     18750    TIP3     H1       HT       0.417000       1.00800           0
     66166 TIP3     18750    TIP3     H2       HT       0.417000       1.00800           0
     66167 TIP3     18751    TIP3     OH2      OT      -0.834000       15.9994           0
     66168 TIP3     18751    TIP3     H1       HT       0.417000       1.00800           0
     66169 TIP3     18751    TIP3     H2       HT       0.417000       1.00800           0
     66170 TIP3     18752    TIP3     OH2      OT      -0.834000       15.9994           0
     66171 TIP3     18752    TIP3     H1       HT       0.417000       1.00800           0
     66172 TIP3     18752    TIP3     H2       HT       0.417000       1.00800           0
     66173 TIP3     18753    TIP3     OH2      OT      -0.834000       15.9994           0
     66174 TIP3     18753    TIP3     H1       HT       0.417000       1.00800           0
     66175 TIP3     18753    TIP3     H2       HT       0.417000       1.00800           0
     66176 TIP3     18754    TIP3     OH2      OT      -0.834000       15.9994           0
     66177 TIP3     18754    TIP3     H1       HT       0.417000       1.00800           0
     66178 TIP3     18754    TIP3     H2       HT       0.417000       1.00800           0
     66179 TIP3     18755    TIP3     OH2      OT      -0.834000       15.9994           0
     66180 TIP3     18755    TIP3     H1       HT       0.417000       1.00800           0
     66181 TIP3     18755    TIP3     H2       HT       0.417000       1.00800           0
     66182 TIP3     18756    TIP3     OH2      OT      -0.834000       15.9994           0
     66183 TIP3     18756    TIP3     H1       HT       0.417000       1.00800           0
     66184 TIP3     18756    TIP3     H2       HT       0.417000       1.00800           0
     66185 TIP3     18757    TIP3     OH2      OT      -0.834000       15.9994           0
     66186 TIP3     18757    TIP3     H1       HT       0.417000       1.00800           0
     66187 TIP3     18757    TIP3     H2       HT       0.417000       1.00800           0
     66188 TIP3     18758    TIP3     OH2      OT      -0.834000       15.9994           0
     66189 TIP3     18758    TIP3     H1       HT       0.417000       1.00800           0
     66190 TIP3     18758    TIP3     H2       HT       0.417000       1.00800           0
     66191 TIP3     18759    TIP3     OH2      OT      -0.834000       15.9994           0
     66192 TIP3     18759    TIP3     H1       HT       0.417000       1.00800           0
     66193 TIP3     18759    TIP3     H2       HT       0.417000       1.00800           0
     66194 TIP3     18760    TIP3     OH2      OT      -0.834000       15.9994           0
     66195 TIP3     18760    TIP3     H1       HT       0.417000       1.00800           0
     66196 TIP3     18760    TIP3     H2       HT       0.417000       1.00800           0
     66197 TIP3     18761    TIP3     OH2      OT      -0.834000       15.9994           0
     66198 TIP3     18761    TIP3     H1       HT       0.417000       1.00800           0
     66199 TIP3     18761    TIP3     H2       HT       0.417000       1.00800           0
     66200 TIP3     18762    TIP3     OH2      OT      -0.834000       15.9994           0
     66201 TIP3     18762    TIP3     H1       HT       0.417000       1.00800           0
     66202 TIP3     18762    TIP3     H2       HT       0.417000       1.00800           0
     66203 TIP3     18763    TIP3     OH2      OT      -0.834000       15.9994           0
     66204 TIP3     18763    TIP3     H1       HT       0.417000       1.00800           0
     66205 TIP3     18763    TIP3     H2       HT       0.417000       1.00800           0
     66206 TIP3     18764    TIP3     OH2      OT      -0.834000       15.9994           0
     66207 TIP3     18764    TIP3     H1       HT       0.417000       1.00800           0
     66208 TIP3     18764    TIP3     H2       HT       0.417000       1.00800           0
     66209 TIP3     18765    TIP3     OH2      OT      -0.834000       15.9994           0
     66210 TIP3     18765    TIP3     H1       HT       0.417000       1.00800           0
     66211 TIP3     18765    TIP3     H2       HT       0.417000       1.00800           0
     66212 TIP3     18766    TIP3     OH2      OT      -0.834000       15.9994           0
     66213 TIP3     18766    TIP3     H1       HT       0.417000       1.00800           0
     66214 TIP3     18766    TIP3     H2       HT       0.417000       1.00800           0
     66215 TIP3     18767    TIP3     OH2      OT      -0.834000       15.9994           0
     66216 TIP3     18767    TIP3     H1       HT       0.417000       1.00800           0
     66217 TIP3     18767    TIP3     H2       HT       0.417000       1.00800           0
     66218 TIP3     18768    TIP3     OH2      OT      -0.834000       15.9994           0
     66219 TIP3     18768    TIP3     H1       HT       0.417000       1.00800           0
     66220 TIP3     18768    TIP3     H2       HT       0.417000       1.00800           0
     66221 TIP3     18769    TIP3     OH2      OT      -0.834000       15.9994           0
     66222 TIP3     18769    TIP3     H1       HT       0.417000       1.00800           0
     66223 TIP3     18769    TIP3     H2       HT       0.417000       1.00800           0
     66224 TIP3     18770    TIP3     OH2      OT      -0.834000       15.9994           0
     66225 TIP3     18770    TIP3     H1       HT       0.417000       1.00800           0
     66226 TIP3     18770    TIP3     H2       HT       0.417000       1.00800           0
     66227 TIP3     18771    TIP3     OH2      OT      -0.834000       15.9994           0
     66228 TIP3     18771    TIP3     H1       HT       0.417000       1.00800           0
     66229 TIP3     18771    TIP3     H2       HT       0.417000       1.00800           0
     66230 TIP3     18772    TIP3     OH2      OT      -0.834000       15.9994           0
     66231 TIP3     18772    TIP3     H1       HT       0.417000       1.00800           0
     66232 TIP3     18772    TIP3     H2       HT       0.417000       1.00800           0
     66233 TIP3     18773    TIP3     OH2      OT      -0.834000       15.9994           0
     66234 TIP3     18773    TIP3     H1       HT       0.417000       1.00800           0
     66235 TIP3     18773    TIP3     H2       HT       0.417000       1.00800           0
     66236 TIP3     18774    TIP3     OH2      OT      -0.834000       15.9994           0
     66237 TIP3     18774    TIP3     H1       HT       0.417000       1.00800           0
     66238 TIP3     18774    TIP3     H2       HT       0.417000       1.00800           0
     66239 TIP3     18775    TIP3     OH2      OT      -0.834000       15.9994           0
     66240 TIP3     18775    TIP3     H1       HT       0.417000       1.00800           0
     66241 TIP3     18775    TIP3     H2       HT       0.417000       1.00800           0
     66242 TIP3     18776    TIP3     OH2      OT      -0.834000       15.9994           0
     66243 TIP3     18776    TIP3     H1       HT       0.417000       1.00800           0
     66244 TIP3     18776    TIP3     H2       HT       0.417000       1.00800           0
     66245 TIP3     18777    TIP3     OH2      OT      -0.834000       15.9994           0
     66246 TIP3     18777    TIP3     H1       HT       0.417000       1.00800           0
     66247 TIP3     18777    TIP3     H2       HT       0.417000       1.00800           0
     66248 TIP3     18778    TIP3     OH2      OT      -0.834000       15.9994           0
     66249 TIP3     18778    TIP3     H1       HT       0.417000       1.00800           0
     66250 TIP3     18778    TIP3     H2       HT       0.417000       1.00800           0
     66251 TIP3     18779    TIP3     OH2      OT      -0.834000       15.9994           0
     66252 TIP3     18779    TIP3     H1       HT       0.417000       1.00800           0
     66253 TIP3     18779    TIP3     H2       HT       0.417000       1.00800           0
     66254 TIP3     18780    TIP3     OH2      OT      -0.834000       15.9994           0
     66255 TIP3     18780    TIP3     H1       HT       0.417000       1.00800           0
     66256 TIP3     18780    TIP3     H2       HT       0.417000       1.00800           0
     66257 TIP3     18781    TIP3     OH2      OT      -0.834000       15.9994           0
     66258 TIP3     18781    TIP3     H1       HT       0.417000       1.00800           0
     66259 TIP3     18781    TIP3     H2       HT       0.417000       1.00800           0
     66260 TIP3     18782    TIP3     OH2      OT      -0.834000       15.9994           0
     66261 TIP3     18782    TIP3     H1       HT       0.417000       1.00800           0
     66262 TIP3     18782    TIP3     H2       HT       0.417000       1.00800           0
     66263 TIP3     18783    TIP3     OH2      OT      -0.834000       15.9994           0
     66264 TIP3     18783    TIP3     H1       HT       0.417000       1.00800           0
     66265 TIP3     18783    TIP3     H2       HT       0.417000       1.00800           0
     66266 TIP3     18784    TIP3     OH2      OT      -0.834000       15.9994           0
     66267 TIP3     18784    TIP3     H1       HT       0.417000       1.00800           0
     66268 TIP3     18784    TIP3     H2       HT       0.417000       1.00800           0
     66269 TIP3     18785    TIP3     OH2      OT      -0.834000       15.9994           0
     66270 TIP3     18785    TIP3     H1       HT       0.417000       1.00800           0
     66271 TIP3     18785    TIP3     H2       HT       0.417000       1.00800           0
     66272 TIP3     18786    TIP3     OH2      OT      -0.834000       15.9994           0
     66273 TIP3     18786    TIP3     H1       HT       0.417000       1.00800           0
     66274 TIP3     18786    TIP3     H2       HT       0.417000       1.00800           0
     66275 TIP3     18787    TIP3     OH2      OT      -0.834000       15.9994           0
     66276 TIP3     18787    TIP3     H1       HT       0.417000       1.00800           0
     66277 TIP3     18787    TIP3     H2       HT       0.417000       1.00800           0
     66278 TIP3     18788    TIP3     OH2      OT      -0.834000       15.9994           0
     66279 TIP3     18788    TIP3     H1       HT       0.417000       1.00800           0
     66280 TIP3     18788    TIP3     H2       HT       0.417000       1.00800           0
     66281 TIP3     18789    TIP3     OH2      OT      -0.834000       15.9994           0
     66282 TIP3     18789    TIP3     H1       HT       0.417000       1.00800           0
     66283 TIP3     18789    TIP3     H2       HT       0.417000       1.00800           0
     66284 TIP3     18790    TIP3     OH2      OT      -0.834000       15.9994           0
     66285 TIP3     18790    TIP3     H1       HT       0.417000       1.00800           0
     66286 TIP3     18790    TIP3     H2       HT       0.417000       1.00800           0
     66287 TIP3     18791    TIP3     OH2      OT      -0.834000       15.9994           0
     66288 TIP3     18791    TIP3     H1       HT       0.417000       1.00800           0
     66289 TIP3     18791    TIP3     H2       HT       0.417000       1.00800           0
     66290 TIP3     18792    TIP3     OH2      OT      -0.834000       15.9994           0
     66291 TIP3     18792    TIP3     H1       HT       0.417000       1.00800           0
     66292 TIP3     18792    TIP3     H2       HT       0.417000       1.00800           0
     66293 TIP3     18793    TIP3     OH2      OT      -0.834000       15.9994           0
     66294 TIP3     18793    TIP3     H1       HT       0.417000       1.00800           0
     66295 TIP3     18793    TIP3     H2       HT       0.417000       1.00800           0
     66296 TIP3     18794    TIP3     OH2      OT      -0.834000       15.9994           0
     66297 TIP3     18794    TIP3     H1       HT       0.417000       1.00800           0
     66298 TIP3     18794    TIP3     H2       HT       0.417000       1.00800           0
     66299 TIP3     18795    TIP3     OH2      OT      -0.834000       15.9994           0
     66300 TIP3     18795    TIP3     H1       HT       0.417000       1.00800           0
     66301 TIP3     18795    TIP3     H2       HT       0.417000       1.00800           0
     66302 TIP3     18796    TIP3     OH2      OT      -0.834000       15.9994           0
     66303 TIP3     18796    TIP3     H1       HT       0.417000       1.00800           0
     66304 TIP3     18796    TIP3     H2       HT       0.417000       1.00800           0
     66305 TIP3     18797    TIP3     OH2      OT      -0.834000       15.9994           0
     66306 TIP3     18797    TIP3     H1       HT       0.417000       1.00800           0
     66307 TIP3     18797    TIP3     H2       HT       0.417000       1.00800           0
     66308 TIP3     18798    TIP3     OH2      OT      -0.834000       15.9994           0
     66309 TIP3     18798    TIP3     H1       HT       0.417000       1.00800           0
     66310 TIP3     18798    TIP3     H2       HT       0.417000       1.00800           0
     66311 TIP3     18799    TIP3     OH2      OT      -0.834000       15.9994           0
     66312 TIP3     18799    TIP3     H1       HT       0.417000       1.00800           0
     66313 TIP3     18799    TIP3     H2       HT       0.417000       1.00800           0
     66314 TIP3     18800    TIP3     OH2      OT      -0.834000       15.9994           0
     66315 TIP3     18800    TIP3     H1       HT       0.417000       1.00800           0
     66316 TIP3     18800    TIP3     H2       HT       0.417000       1.00800           0
     66317 TIP3     18801    TIP3     OH2      OT      -0.834000       15.9994           0
     66318 TIP3     18801    TIP3     H1       HT       0.417000       1.00800           0
     66319 TIP3     18801    TIP3     H2       HT       0.417000       1.00800           0
     66320 TIP3     18802    TIP3     OH2      OT      -0.834000       15.9994           0
     66321 TIP3     18802    TIP3     H1       HT       0.417000       1.00800           0
     66322 TIP3     18802    TIP3     H2       HT       0.417000       1.00800           0
     66323 TIP3     18803    TIP3     OH2      OT      -0.834000       15.9994           0
     66324 TIP3     18803    TIP3     H1       HT       0.417000       1.00800           0
     66325 TIP3     18803    TIP3     H2       HT       0.417000       1.00800           0
     66326 TIP3     18804    TIP3     OH2      OT      -0.834000       15.9994           0
     66327 TIP3     18804    TIP3     H1       HT       0.417000       1.00800           0
     66328 TIP3     18804    TIP3     H2       HT       0.417000       1.00800           0
     66329 TIP3     18805    TIP3     OH2      OT      -0.834000       15.9994           0
     66330 TIP3     18805    TIP3     H1       HT       0.417000       1.00800           0
     66331 TIP3     18805    TIP3     H2       HT       0.417000       1.00800           0
     66332 TIP3     18806    TIP3     OH2      OT      -0.834000       15.9994           0
     66333 TIP3     18806    TIP3     H1       HT       0.417000       1.00800           0
     66334 TIP3     18806    TIP3     H2       HT       0.417000       1.00800           0
     66335 TIP3     18807    TIP3     OH2      OT      -0.834000       15.9994           0
     66336 TIP3     18807    TIP3     H1       HT       0.417000       1.00800           0
     66337 TIP3     18807    TIP3     H2       HT       0.417000       1.00800           0
     66338 TIP3     18808    TIP3     OH2      OT      -0.834000       15.9994           0
     66339 TIP3     18808    TIP3     H1       HT       0.417000       1.00800           0
     66340 TIP3     18808    TIP3     H2       HT       0.417000       1.00800           0
     66341 TIP3     18809    TIP3     OH2      OT      -0.834000       15.9994           0
     66342 TIP3     18809    TIP3     H1       HT       0.417000       1.00800           0
     66343 TIP3     18809    TIP3     H2       HT       0.417000       1.00800           0
     66344 TIP3     18810    TIP3     OH2      OT      -0.834000       15.9994           0
     66345 TIP3     18810    TIP3     H1       HT       0.417000       1.00800           0
     66346 TIP3     18810    TIP3     H2       HT       0.417000       1.00800           0
     66347 TIP3     18811    TIP3     OH2      OT      -0.834000       15.9994           0
     66348 TIP3     18811    TIP3     H1       HT       0.417000       1.00800           0
     66349 TIP3     18811    TIP3     H2       HT       0.417000       1.00800           0
     66350 TIP3     18812    TIP3     OH2      OT      -0.834000       15.9994           0
     66351 TIP3     18812    TIP3     H1       HT       0.417000       1.00800           0
     66352 TIP3     18812    TIP3     H2       HT       0.417000       1.00800           0
     66353 TIP3     18813    TIP3     OH2      OT      -0.834000       15.9994           0
     66354 TIP3     18813    TIP3     H1       HT       0.417000       1.00800           0
     66355 TIP3     18813    TIP3     H2       HT       0.417000       1.00800           0
     66356 TIP3     18814    TIP3     OH2      OT      -0.834000       15.9994           0
     66357 TIP3     18814    TIP3     H1       HT       0.417000       1.00800           0
     66358 TIP3     18814    TIP3     H2       HT       0.417000       1.00800           0
     66359 TIP3     18815    TIP3     OH2      OT      -0.834000       15.9994           0
     66360 TIP3     18815    TIP3     H1       HT       0.417000       1.00800           0
     66361 TIP3     18815    TIP3     H2       HT       0.417000       1.00800           0
     66362 TIP3     18816    TIP3     OH2      OT      -0.834000       15.9994           0
     66363 TIP3     18816    TIP3     H1       HT       0.417000       1.00800           0
     66364 TIP3     18816    TIP3     H2       HT       0.417000       1.00800           0
     66365 TIP3     18817    TIP3     OH2      OT      -0.834000       15.9994           0
     66366 TIP3     18817    TIP3     H1       HT       0.417000       1.00800           0
     66367 TIP3     18817    TIP3     H2       HT       0.417000       1.00800           0
     66368 TIP3     18818    TIP3     OH2      OT      -0.834000       15.9994           0
     66369 TIP3     18818    TIP3     H1       HT       0.417000       1.00800           0
     66370 TIP3     18818    TIP3     H2       HT       0.417000       1.00800           0
     66371 TIP3     18819    TIP3     OH2      OT      -0.834000       15.9994           0
     66372 TIP3     18819    TIP3     H1       HT       0.417000       1.00800           0
     66373 TIP3     18819    TIP3     H2       HT       0.417000       1.00800           0
     66374 TIP3     18820    TIP3     OH2      OT      -0.834000       15.9994           0
     66375 TIP3     18820    TIP3     H1       HT       0.417000       1.00800           0
     66376 TIP3     18820    TIP3     H2       HT       0.417000       1.00800           0
     66377 TIP3     18821    TIP3     OH2      OT      -0.834000       15.9994           0
     66378 TIP3     18821    TIP3     H1       HT       0.417000       1.00800           0
     66379 TIP3     18821    TIP3     H2       HT       0.417000       1.00800           0
     66380 TIP3     18822    TIP3     OH2      OT      -0.834000       15.9994           0
     66381 TIP3     18822    TIP3     H1       HT       0.417000       1.00800           0
     66382 TIP3     18822    TIP3     H2       HT       0.417000       1.00800           0
     66383 TIP3     18823    TIP3     OH2      OT      -0.834000       15.9994           0
     66384 TIP3     18823    TIP3     H1       HT       0.417000       1.00800           0
     66385 TIP3     18823    TIP3     H2       HT       0.417000       1.00800           0
     66386 TIP3     18824    TIP3     OH2      OT      -0.834000       15.9994           0
     66387 TIP3     18824    TIP3     H1       HT       0.417000       1.00800           0
     66388 TIP3     18824    TIP3     H2       HT       0.417000       1.00800           0
     66389 TIP3     18825    TIP3     OH2      OT      -0.834000       15.9994           0
     66390 TIP3     18825    TIP3     H1       HT       0.417000       1.00800           0
     66391 TIP3     18825    TIP3     H2       HT       0.417000       1.00800           0
     66392 TIP3     18826    TIP3     OH2      OT      -0.834000       15.9994           0
     66393 TIP3     18826    TIP3     H1       HT       0.417000       1.00800           0
     66394 TIP3     18826    TIP3     H2       HT       0.417000       1.00800           0
     66395 TIP3     18827    TIP3     OH2      OT      -0.834000       15.9994           0
     66396 TIP3     18827    TIP3     H1       HT       0.417000       1.00800           0
     66397 TIP3     18827    TIP3     H2       HT       0.417000       1.00800           0
     66398 TIP3     18828    TIP3     OH2      OT      -0.834000       15.9994           0
     66399 TIP3     18828    TIP3     H1       HT       0.417000       1.00800           0
     66400 TIP3     18828    TIP3     H2       HT       0.417000       1.00800           0
     66401 TIP3     18829    TIP3     OH2      OT      -0.834000       15.9994           0
     66402 TIP3     18829    TIP3     H1       HT       0.417000       1.00800           0
     66403 TIP3     18829    TIP3     H2       HT       0.417000       1.00800           0
     66404 TIP3     18830    TIP3     OH2      OT      -0.834000       15.9994           0
     66405 TIP3     18830    TIP3     H1       HT       0.417000       1.00800           0
     66406 TIP3     18830    TIP3     H2       HT       0.417000       1.00800           0
     66407 TIP3     18831    TIP3     OH2      OT      -0.834000       15.9994           0
     66408 TIP3     18831    TIP3     H1       HT       0.417000       1.00800           0
     66409 TIP3     18831    TIP3     H2       HT       0.417000       1.00800           0
     66410 TIP3     18832    TIP3     OH2      OT      -0.834000       15.9994           0
     66411 TIP3     18832    TIP3     H1       HT       0.417000       1.00800           0
     66412 TIP3     18832    TIP3     H2       HT       0.417000       1.00800           0
     66413 TIP3     18833    TIP3     OH2      OT      -0.834000       15.9994           0
     66414 TIP3     18833    TIP3     H1       HT       0.417000       1.00800           0
     66415 TIP3     18833    TIP3     H2       HT       0.417000       1.00800           0
     66416 TIP3     18834    TIP3     OH2      OT      -0.834000       15.9994           0
     66417 TIP3     18834    TIP3     H1       HT       0.417000       1.00800           0
     66418 TIP3     18834    TIP3     H2       HT       0.417000       1.00800           0
     66419 TIP3     18835    TIP3     OH2      OT      -0.834000       15.9994           0
     66420 TIP3     18835    TIP3     H1       HT       0.417000       1.00800           0
     66421 TIP3     18835    TIP3     H2       HT       0.417000       1.00800           0
     66422 TIP3     18836    TIP3     OH2      OT      -0.834000       15.9994           0
     66423 TIP3     18836    TIP3     H1       HT       0.417000       1.00800           0
     66424 TIP3     18836    TIP3     H2       HT       0.417000       1.00800           0
     66425 TIP3     18837    TIP3     OH2      OT      -0.834000       15.9994           0
     66426 TIP3     18837    TIP3     H1       HT       0.417000       1.00800           0
     66427 TIP3     18837    TIP3     H2       HT       0.417000       1.00800           0
     66428 TIP3     18838    TIP3     OH2      OT      -0.834000       15.9994           0
     66429 TIP3     18838    TIP3     H1       HT       0.417000       1.00800           0
     66430 TIP3     18838    TIP3     H2       HT       0.417000       1.00800           0
     66431 TIP3     18839    TIP3     OH2      OT      -0.834000       15.9994           0
     66432 TIP3     18839    TIP3     H1       HT       0.417000       1.00800           0
     66433 TIP3     18839    TIP3     H2       HT       0.417000       1.00800           0
     66434 TIP3     18840    TIP3     OH2      OT      -0.834000       15.9994           0
     66435 TIP3     18840    TIP3     H1       HT       0.417000       1.00800           0
     66436 TIP3     18840    TIP3     H2       HT       0.417000       1.00800           0
     66437 TIP3     18841    TIP3     OH2      OT      -0.834000       15.9994           0
     66438 TIP3     18841    TIP3     H1       HT       0.417000       1.00800           0
     66439 TIP3     18841    TIP3     H2       HT       0.417000       1.00800           0
     66440 TIP3     18842    TIP3     OH2      OT      -0.834000       15.9994           0
     66441 TIP3     18842    TIP3     H1       HT       0.417000       1.00800           0
     66442 TIP3     18842    TIP3     H2       HT       0.417000       1.00800           0
     66443 TIP3     18843    TIP3     OH2      OT      -0.834000       15.9994           0
     66444 TIP3     18843    TIP3     H1       HT       0.417000       1.00800           0
     66445 TIP3     18843    TIP3     H2       HT       0.417000       1.00800           0
     66446 TIP3     18844    TIP3     OH2      OT      -0.834000       15.9994           0
     66447 TIP3     18844    TIP3     H1       HT       0.417000       1.00800           0
     66448 TIP3     18844    TIP3     H2       HT       0.417000       1.00800           0
     66449 TIP3     18845    TIP3     OH2      OT      -0.834000       15.9994           0
     66450 TIP3     18845    TIP3     H1       HT       0.417000       1.00800           0
     66451 TIP3     18845    TIP3     H2       HT       0.417000       1.00800           0
     66452 TIP3     18846    TIP3     OH2      OT      -0.834000       15.9994           0
     66453 TIP3     18846    TIP3     H1       HT       0.417000       1.00800           0
     66454 TIP3     18846    TIP3     H2       HT       0.417000       1.00800           0
     66455 TIP3     18847    TIP3     OH2      OT      -0.834000       15.9994           0
     66456 TIP3     18847    TIP3     H1       HT       0.417000       1.00800           0
     66457 TIP3     18847    TIP3     H2       HT       0.417000       1.00800           0
     66458 TIP3     18848    TIP3     OH2      OT      -0.834000       15.9994           0
     66459 TIP3     18848    TIP3     H1       HT       0.417000       1.00800           0
     66460 TIP3     18848    TIP3     H2       HT       0.417000       1.00800           0
     66461 TIP3     18849    TIP3     OH2      OT      -0.834000       15.9994           0
     66462 TIP3     18849    TIP3     H1       HT       0.417000       1.00800           0
     66463 TIP3     18849    TIP3     H2       HT       0.417000       1.00800           0
     66464 TIP3     18850    TIP3     OH2      OT      -0.834000       15.9994           0
     66465 TIP3     18850    TIP3     H1       HT       0.417000       1.00800           0
     66466 TIP3     18850    TIP3     H2       HT       0.417000       1.00800           0
     66467 TIP3     18851    TIP3     OH2      OT      -0.834000       15.9994           0
     66468 TIP3     18851    TIP3     H1       HT       0.417000       1.00800           0
     66469 TIP3     18851    TIP3     H2       HT       0.417000       1.00800           0
     66470 TIP3     18852    TIP3     OH2      OT      -0.834000       15.9994           0
     66471 TIP3     18852    TIP3     H1       HT       0.417000       1.00800           0
     66472 TIP3     18852    TIP3     H2       HT       0.417000       1.00800           0
     66473 TIP3     18853    TIP3     OH2      OT      -0.834000       15.9994           0
     66474 TIP3     18853    TIP3     H1       HT       0.417000       1.00800           0
     66475 TIP3     18853    TIP3     H2       HT       0.417000       1.00800           0
     66476 TIP3     18854    TIP3     OH2      OT      -0.834000       15.9994           0
     66477 TIP3     18854    TIP3     H1       HT       0.417000       1.00800           0
     66478 TIP3     18854    TIP3     H2       HT       0.417000       1.00800           0
     66479 TIP3     18855    TIP3     OH2      OT      -0.834000       15.9994           0
     66480 TIP3     18855    TIP3     H1       HT       0.417000       1.00800           0
     66481 TIP3     18855    TIP3     H2       HT       0.417000       1.00800           0
     66482 TIP3     18856    TIP3     OH2      OT      -0.834000       15.9994           0
     66483 TIP3     18856    TIP3     H1       HT       0.417000       1.00800           0
     66484 TIP3     18856    TIP3     H2       HT       0.417000       1.00800           0
     66485 TIP3     18857    TIP3     OH2      OT      -0.834000       15.9994           0
     66486 TIP3     18857    TIP3     H1       HT       0.417000       1.00800           0
     66487 TIP3     18857    TIP3     H2       HT       0.417000       1.00800           0
     66488 TIP3     18858    TIP3     OH2      OT      -0.834000       15.9994           0
     66489 TIP3     18858    TIP3     H1       HT       0.417000       1.00800           0
     66490 TIP3     18858    TIP3     H2       HT       0.417000       1.00800           0
     66491 TIP3     18859    TIP3     OH2      OT      -0.834000       15.9994           0
     66492 TIP3     18859    TIP3     H1       HT       0.417000       1.00800           0
     66493 TIP3     18859    TIP3     H2       HT       0.417000       1.00800           0
     66494 TIP3     18860    TIP3     OH2      OT      -0.834000       15.9994           0
     66495 TIP3     18860    TIP3     H1       HT       0.417000       1.00800           0
     66496 TIP3     18860    TIP3     H2       HT       0.417000       1.00800           0
     66497 TIP3     18861    TIP3     OH2      OT      -0.834000       15.9994           0
     66498 TIP3     18861    TIP3     H1       HT       0.417000       1.00800           0
     66499 TIP3     18861    TIP3     H2       HT       0.417000       1.00800           0
     66500 TIP3     18862    TIP3     OH2      OT      -0.834000       15.9994           0
     66501 TIP3     18862    TIP3     H1       HT       0.417000       1.00800           0
     66502 TIP3     18862    TIP3     H2       HT       0.417000       1.00800           0
     66503 TIP3     18863    TIP3     OH2      OT      -0.834000       15.9994           0
     66504 TIP3     18863    TIP3     H1       HT       0.417000       1.00800           0
     66505 TIP3     18863    TIP3     H2       HT       0.417000       1.00800           0
     66506 TIP3     18864    TIP3     OH2      OT      -0.834000       15.9994           0
     66507 TIP3     18864    TIP3     H1       HT       0.417000       1.00800           0
     66508 TIP3     18864    TIP3     H2       HT       0.417000       1.00800           0
     66509 TIP3     18865    TIP3     OH2      OT      -0.834000       15.9994           0
     66510 TIP3     18865    TIP3     H1       HT       0.417000       1.00800           0
     66511 TIP3     18865    TIP3     H2       HT       0.417000       1.00800           0
     66512 TIP3     18866    TIP3     OH2      OT      -0.834000       15.9994           0
     66513 TIP3     18866    TIP3     H1       HT       0.417000       1.00800           0
     66514 TIP3     18866    TIP3     H2       HT       0.417000       1.00800           0
     66515 TIP3     18867    TIP3     OH2      OT      -0.834000       15.9994           0
     66516 TIP3     18867    TIP3     H1       HT       0.417000       1.00800           0
     66517 TIP3     18867    TIP3     H2       HT       0.417000       1.00800           0
     66518 TIP3     18868    TIP3     OH2      OT      -0.834000       15.9994           0
     66519 TIP3     18868    TIP3     H1       HT       0.417000       1.00800           0
     66520 TIP3     18868    TIP3     H2       HT       0.417000       1.00800           0
     66521 TIP3     18869    TIP3     OH2      OT      -0.834000       15.9994           0
     66522 TIP3     18869    TIP3     H1       HT       0.417000       1.00800           0
     66523 TIP3     18869    TIP3     H2       HT       0.417000       1.00800           0
     66524 TIP3     18870    TIP3     OH2      OT      -0.834000       15.9994           0
     66525 TIP3     18870    TIP3     H1       HT       0.417000       1.00800           0
     66526 TIP3     18870    TIP3     H2       HT       0.417000       1.00800           0
     66527 TIP3     18871    TIP3     OH2      OT      -0.834000       15.9994           0
     66528 TIP3     18871    TIP3     H1       HT       0.417000       1.00800           0
     66529 TIP3     18871    TIP3     H2       HT       0.417000       1.00800           0
     66530 TIP3     18872    TIP3     OH2      OT      -0.834000       15.9994           0
     66531 TIP3     18872    TIP3     H1       HT       0.417000       1.00800           0
     66532 TIP3     18872    TIP3     H2       HT       0.417000       1.00800           0
     66533 TIP3     18873    TIP3     OH2      OT      -0.834000       15.9994           0
     66534 TIP3     18873    TIP3     H1       HT       0.417000       1.00800           0
     66535 TIP3     18873    TIP3     H2       HT       0.417000       1.00800           0
     66536 TIP3     18874    TIP3     OH2      OT      -0.834000       15.9994           0
     66537 TIP3     18874    TIP3     H1       HT       0.417000       1.00800           0
     66538 TIP3     18874    TIP3     H2       HT       0.417000       1.00800           0
     66539 TIP3     18875    TIP3     OH2      OT      -0.834000       15.9994           0
     66540 TIP3     18875    TIP3     H1       HT       0.417000       1.00800           0
     66541 TIP3     18875    TIP3     H2       HT       0.417000       1.00800           0
     66542 TIP3     18876    TIP3     OH2      OT      -0.834000       15.9994           0
     66543 TIP3     18876    TIP3     H1       HT       0.417000       1.00800           0
     66544 TIP3     18876    TIP3     H2       HT       0.417000       1.00800           0
     66545 TIP3     18877    TIP3     OH2      OT      -0.834000       15.9994           0
     66546 TIP3     18877    TIP3     H1       HT       0.417000       1.00800           0
     66547 TIP3     18877    TIP3     H2       HT       0.417000       1.00800           0
     66548 TIP3     18878    TIP3     OH2      OT      -0.834000       15.9994           0
     66549 TIP3     18878    TIP3     H1       HT       0.417000       1.00800           0
     66550 TIP3     18878    TIP3     H2       HT       0.417000       1.00800           0
     66551 TIP3     18879    TIP3     OH2      OT      -0.834000       15.9994           0
     66552 TIP3     18879    TIP3     H1       HT       0.417000       1.00800           0
     66553 TIP3     18879    TIP3     H2       HT       0.417000       1.00800           0
     66554 TIP3     18880    TIP3     OH2      OT      -0.834000       15.9994           0
     66555 TIP3     18880    TIP3     H1       HT       0.417000       1.00800           0
     66556 TIP3     18880    TIP3     H2       HT       0.417000       1.00800           0
     66557 TIP3     18881    TIP3     OH2      OT      -0.834000       15.9994           0
     66558 TIP3     18881    TIP3     H1       HT       0.417000       1.00800           0
     66559 TIP3     18881    TIP3     H2       HT       0.417000       1.00800           0
     66560 TIP3     18882    TIP3     OH2      OT      -0.834000       15.9994           0
     66561 TIP3     18882    TIP3     H1       HT       0.417000       1.00800           0
     66562 TIP3     18882    TIP3     H2       HT       0.417000       1.00800           0
     66563 TIP3     18883    TIP3     OH2      OT      -0.834000       15.9994           0
     66564 TIP3     18883    TIP3     H1       HT       0.417000       1.00800           0
     66565 TIP3     18883    TIP3     H2       HT       0.417000       1.00800           0
     66566 TIP3     18884    TIP3     OH2      OT      -0.834000       15.9994           0
     66567 TIP3     18884    TIP3     H1       HT       0.417000       1.00800           0
     66568 TIP3     18884    TIP3     H2       HT       0.417000       1.00800           0
     66569 TIP3     18885    TIP3     OH2      OT      -0.834000       15.9994           0
     66570 TIP3     18885    TIP3     H1       HT       0.417000       1.00800           0
     66571 TIP3     18885    TIP3     H2       HT       0.417000       1.00800           0
     66572 TIP3     18886    TIP3     OH2      OT      -0.834000       15.9994           0
     66573 TIP3     18886    TIP3     H1       HT       0.417000       1.00800           0
     66574 TIP3     18886    TIP3     H2       HT       0.417000       1.00800           0
     66575 TIP3     18887    TIP3     OH2      OT      -0.834000       15.9994           0
     66576 TIP3     18887    TIP3     H1       HT       0.417000       1.00800           0
     66577 TIP3     18887    TIP3     H2       HT       0.417000       1.00800           0
     66578 TIP3     18888    TIP3     OH2      OT      -0.834000       15.9994           0
     66579 TIP3     18888    TIP3     H1       HT       0.417000       1.00800           0
     66580 TIP3     18888    TIP3     H2       HT       0.417000       1.00800           0
     66581 TIP3     18889    TIP3     OH2      OT      -0.834000       15.9994           0
     66582 TIP3     18889    TIP3     H1       HT       0.417000       1.00800           0
     66583 TIP3     18889    TIP3     H2       HT       0.417000       1.00800           0
     66584 TIP3     18890    TIP3     OH2      OT      -0.834000       15.9994           0
     66585 TIP3     18890    TIP3     H1       HT       0.417000       1.00800           0
     66586 TIP3     18890    TIP3     H2       HT       0.417000       1.00800           0
     66587 TIP3     18891    TIP3     OH2      OT      -0.834000       15.9994           0
     66588 TIP3     18891    TIP3     H1       HT       0.417000       1.00800           0
     66589 TIP3     18891    TIP3     H2       HT       0.417000       1.00800           0
     66590 TIP3     18892    TIP3     OH2      OT      -0.834000       15.9994           0
     66591 TIP3     18892    TIP3     H1       HT       0.417000       1.00800           0
     66592 TIP3     18892    TIP3     H2       HT       0.417000       1.00800           0
     66593 TIP3     18893    TIP3     OH2      OT      -0.834000       15.9994           0
     66594 TIP3     18893    TIP3     H1       HT       0.417000       1.00800           0
     66595 TIP3     18893    TIP3     H2       HT       0.417000       1.00800           0
     66596 TIP3     18894    TIP3     OH2      OT      -0.834000       15.9994           0
     66597 TIP3     18894    TIP3     H1       HT       0.417000       1.00800           0
     66598 TIP3     18894    TIP3     H2       HT       0.417000       1.00800           0
     66599 TIP3     18895    TIP3     OH2      OT      -0.834000       15.9994           0
     66600 TIP3     18895    TIP3     H1       HT       0.417000       1.00800           0
     66601 TIP3     18895    TIP3     H2       HT       0.417000       1.00800           0
     66602 TIP3     18896    TIP3     OH2      OT      -0.834000       15.9994           0
     66603 TIP3     18896    TIP3     H1       HT       0.417000       1.00800           0
     66604 TIP3     18896    TIP3     H2       HT       0.417000       1.00800           0
     66605 TIP3     18897    TIP3     OH2      OT      -0.834000       15.9994           0
     66606 TIP3     18897    TIP3     H1       HT       0.417000       1.00800           0
     66607 TIP3     18897    TIP3     H2       HT       0.417000       1.00800           0
     66608 TIP3     18898    TIP3     OH2      OT      -0.834000       15.9994           0
     66609 TIP3     18898    TIP3     H1       HT       0.417000       1.00800           0
     66610 TIP3     18898    TIP3     H2       HT       0.417000       1.00800           0
     66611 TIP3     18899    TIP3     OH2      OT      -0.834000       15.9994           0
     66612 TIP3     18899    TIP3     H1       HT       0.417000       1.00800           0
     66613 TIP3     18899    TIP3     H2       HT       0.417000       1.00800           0
     66614 TIP3     18900    TIP3     OH2      OT      -0.834000       15.9994           0
     66615 TIP3     18900    TIP3     H1       HT       0.417000       1.00800           0
     66616 TIP3     18900    TIP3     H2       HT       0.417000       1.00800           0
     66617 TIP3     18901    TIP3     OH2      OT      -0.834000       15.9994           0
     66618 TIP3     18901    TIP3     H1       HT       0.417000       1.00800           0
     66619 TIP3     18901    TIP3     H2       HT       0.417000       1.00800           0
     66620 TIP3     18902    TIP3     OH2      OT      -0.834000       15.9994           0
     66621 TIP3     18902    TIP3     H1       HT       0.417000       1.00800           0
     66622 TIP3     18902    TIP3     H2       HT       0.417000       1.00800           0
     66623 TIP3     18903    TIP3     OH2      OT      -0.834000       15.9994           0
     66624 TIP3     18903    TIP3     H1       HT       0.417000       1.00800           0
     66625 TIP3     18903    TIP3     H2       HT       0.417000       1.00800           0
     66626 TIP3     18904    TIP3     OH2      OT      -0.834000       15.9994           0
     66627 TIP3     18904    TIP3     H1       HT       0.417000       1.00800           0
     66628 TIP3     18904    TIP3     H2       HT       0.417000       1.00800           0
     66629 TIP3     18905    TIP3     OH2      OT      -0.834000       15.9994           0
     66630 TIP3     18905    TIP3     H1       HT       0.417000       1.00800           0
     66631 TIP3     18905    TIP3     H2       HT       0.417000       1.00800           0
     66632 TIP3     18906    TIP3     OH2      OT      -0.834000       15.9994           0
     66633 TIP3     18906    TIP3     H1       HT       0.417000       1.00800           0
     66634 TIP3     18906    TIP3     H2       HT       0.417000       1.00800           0
     66635 TIP3     18907    TIP3     OH2      OT      -0.834000       15.9994           0
     66636 TIP3     18907    TIP3     H1       HT       0.417000       1.00800           0
     66637 TIP3     18907    TIP3     H2       HT       0.417000       1.00800           0
     66638 TIP3     18908    TIP3     OH2      OT      -0.834000       15.9994           0
     66639 TIP3     18908    TIP3     H1       HT       0.417000       1.00800           0
     66640 TIP3     18908    TIP3     H2       HT       0.417000       1.00800           0
     66641 TIP3     18909    TIP3     OH2      OT      -0.834000       15.9994           0
     66642 TIP3     18909    TIP3     H1       HT       0.417000       1.00800           0
     66643 TIP3     18909    TIP3     H2       HT       0.417000       1.00800           0
     66644 TIP3     18910    TIP3     OH2      OT      -0.834000       15.9994           0
     66645 TIP3     18910    TIP3     H1       HT       0.417000       1.00800           0
     66646 TIP3     18910    TIP3     H2       HT       0.417000       1.00800           0
     66647 TIP3     18911    TIP3     OH2      OT      -0.834000       15.9994           0
     66648 TIP3     18911    TIP3     H1       HT       0.417000       1.00800           0
     66649 TIP3     18911    TIP3     H2       HT       0.417000       1.00800           0
     66650 TIP3     18912    TIP3     OH2      OT      -0.834000       15.9994           0
     66651 TIP3     18912    TIP3     H1       HT       0.417000       1.00800           0
     66652 TIP3     18912    TIP3     H2       HT       0.417000       1.00800           0
     66653 TIP3     18913    TIP3     OH2      OT      -0.834000       15.9994           0
     66654 TIP3     18913    TIP3     H1       HT       0.417000       1.00800           0
     66655 TIP3     18913    TIP3     H2       HT       0.417000       1.00800           0
     66656 TIP3     18914    TIP3     OH2      OT      -0.834000       15.9994           0
     66657 TIP3     18914    TIP3     H1       HT       0.417000       1.00800           0
     66658 TIP3     18914    TIP3     H2       HT       0.417000       1.00800           0
     66659 TIP3     18915    TIP3     OH2      OT      -0.834000       15.9994           0
     66660 TIP3     18915    TIP3     H1       HT       0.417000       1.00800           0
     66661 TIP3     18915    TIP3     H2       HT       0.417000       1.00800           0
     66662 TIP3     18916    TIP3     OH2      OT      -0.834000       15.9994           0
     66663 TIP3     18916    TIP3     H1       HT       0.417000       1.00800           0
     66664 TIP3     18916    TIP3     H2       HT       0.417000       1.00800           0
     66665 TIP3     18917    TIP3     OH2      OT      -0.834000       15.9994           0
     66666 TIP3     18917    TIP3     H1       HT       0.417000       1.00800           0
     66667 TIP3     18917    TIP3     H2       HT       0.417000       1.00800           0
     66668 TIP3     18918    TIP3     OH2      OT      -0.834000       15.9994           0
     66669 TIP3     18918    TIP3     H1       HT       0.417000       1.00800           0
     66670 TIP3     18918    TIP3     H2       HT       0.417000       1.00800           0
     66671 TIP3     18919    TIP3     OH2      OT      -0.834000       15.9994           0
     66672 TIP3     18919    TIP3     H1       HT       0.417000       1.00800           0
     66673 TIP3     18919    TIP3     H2       HT       0.417000       1.00800           0
     66674 TIP3     18920    TIP3     OH2      OT      -0.834000       15.9994           0
     66675 TIP3     18920    TIP3     H1       HT       0.417000       1.00800           0
     66676 TIP3     18920    TIP3     H2       HT       0.417000       1.00800           0
     66677 TIP3     18921    TIP3     OH2      OT      -0.834000       15.9994           0
     66678 TIP3     18921    TIP3     H1       HT       0.417000       1.00800           0
     66679 TIP3     18921    TIP3     H2       HT       0.417000       1.00800           0
     66680 TIP3     18922    TIP3     OH2      OT      -0.834000       15.9994           0
     66681 TIP3     18922    TIP3     H1       HT       0.417000       1.00800           0
     66682 TIP3     18922    TIP3     H2       HT       0.417000       1.00800           0
     66683 TIP3     18923    TIP3     OH2      OT      -0.834000       15.9994           0
     66684 TIP3     18923    TIP3     H1       HT       0.417000       1.00800           0
     66685 TIP3     18923    TIP3     H2       HT       0.417000       1.00800           0
     66686 TIP3     18924    TIP3     OH2      OT      -0.834000       15.9994           0
     66687 TIP3     18924    TIP3     H1       HT       0.417000       1.00800           0
     66688 TIP3     18924    TIP3     H2       HT       0.417000       1.00800           0
     66689 TIP3     18925    TIP3     OH2      OT      -0.834000       15.9994           0
     66690 TIP3     18925    TIP3     H1       HT       0.417000       1.00800           0
     66691 TIP3     18925    TIP3     H2       HT       0.417000       1.00800           0
     66692 TIP3     18926    TIP3     OH2      OT      -0.834000       15.9994           0
     66693 TIP3     18926    TIP3     H1       HT       0.417000       1.00800           0
     66694 TIP3     18926    TIP3     H2       HT       0.417000       1.00800           0
     66695 TIP3     18927    TIP3     OH2      OT      -0.834000       15.9994           0
     66696 TIP3     18927    TIP3     H1       HT       0.417000       1.00800           0
     66697 TIP3     18927    TIP3     H2       HT       0.417000       1.00800           0
     66698 TIP3     18928    TIP3     OH2      OT      -0.834000       15.9994           0
     66699 TIP3     18928    TIP3     H1       HT       0.417000       1.00800           0
     66700 TIP3     18928    TIP3     H2       HT       0.417000       1.00800           0
     66701 TIP3     18929    TIP3     OH2      OT      -0.834000       15.9994           0
     66702 TIP3     18929    TIP3     H1       HT       0.417000       1.00800           0
     66703 TIP3     18929    TIP3     H2       HT       0.417000       1.00800           0
     66704 TIP3     18930    TIP3     OH2      OT      -0.834000       15.9994           0
     66705 TIP3     18930    TIP3     H1       HT       0.417000       1.00800           0
     66706 TIP3     18930    TIP3     H2       HT       0.417000       1.00800           0
     66707 TIP3     18931    TIP3     OH2      OT      -0.834000       15.9994           0
     66708 TIP3     18931    TIP3     H1       HT       0.417000       1.00800           0
     66709 TIP3     18931    TIP3     H2       HT       0.417000       1.00800           0
     66710 TIP3     18932    TIP3     OH2      OT      -0.834000       15.9994           0
     66711 TIP3     18932    TIP3     H1       HT       0.417000       1.00800           0
     66712 TIP3     18932    TIP3     H2       HT       0.417000       1.00800           0
     66713 TIP3     18933    TIP3     OH2      OT      -0.834000       15.9994           0
     66714 TIP3     18933    TIP3     H1       HT       0.417000       1.00800           0
     66715 TIP3     18933    TIP3     H2       HT       0.417000       1.00800           0
     66716 TIP3     18934    TIP3     OH2      OT      -0.834000       15.9994           0
     66717 TIP3     18934    TIP3     H1       HT       0.417000       1.00800           0
     66718 TIP3     18934    TIP3     H2       HT       0.417000       1.00800           0
     66719 TIP3     18935    TIP3     OH2      OT      -0.834000       15.9994           0
     66720 TIP3     18935    TIP3     H1       HT       0.417000       1.00800           0
     66721 TIP3     18935    TIP3     H2       HT       0.417000       1.00800           0
     66722 TIP3     18936    TIP3     OH2      OT      -0.834000       15.9994           0
     66723 TIP3     18936    TIP3     H1       HT       0.417000       1.00800           0
     66724 TIP3     18936    TIP3     H2       HT       0.417000       1.00800           0
     66725 TIP3     18937    TIP3     OH2      OT      -0.834000       15.9994           0
     66726 TIP3     18937    TIP3     H1       HT       0.417000       1.00800           0
     66727 TIP3     18937    TIP3     H2       HT       0.417000       1.00800           0
     66728 TIP3     18938    TIP3     OH2      OT      -0.834000       15.9994           0
     66729 TIP3     18938    TIP3     H1       HT       0.417000       1.00800           0
     66730 TIP3     18938    TIP3     H2       HT       0.417000       1.00800           0
     66731 TIP3     18939    TIP3     OH2      OT      -0.834000       15.9994           0
     66732 TIP3     18939    TIP3     H1       HT       0.417000       1.00800           0
     66733 TIP3     18939    TIP3     H2       HT       0.417000       1.00800           0
     66734 TIP3     18940    TIP3     OH2      OT      -0.834000       15.9994           0
     66735 TIP3     18940    TIP3     H1       HT       0.417000       1.00800           0
     66736 TIP3     18940    TIP3     H2       HT       0.417000       1.00800           0
     66737 TIP3     18941    TIP3     OH2      OT      -0.834000       15.9994           0
     66738 TIP3     18941    TIP3     H1       HT       0.417000       1.00800           0
     66739 TIP3     18941    TIP3     H2       HT       0.417000       1.00800           0
     66740 TIP3     18942    TIP3     OH2      OT      -0.834000       15.9994           0
     66741 TIP3     18942    TIP3     H1       HT       0.417000       1.00800           0
     66742 TIP3     18942    TIP3     H2       HT       0.417000       1.00800           0
     66743 TIP3     18943    TIP3     OH2      OT      -0.834000       15.9994           0
     66744 TIP3     18943    TIP3     H1       HT       0.417000       1.00800           0
     66745 TIP3     18943    TIP3     H2       HT       0.417000       1.00800           0
     66746 TIP3     18944    TIP3     OH2      OT      -0.834000       15.9994           0
     66747 TIP3     18944    TIP3     H1       HT       0.417000       1.00800           0
     66748 TIP3     18944    TIP3     H2       HT       0.417000       1.00800           0
     66749 TIP3     18945    TIP3     OH2      OT      -0.834000       15.9994           0
     66750 TIP3     18945    TIP3     H1       HT       0.417000       1.00800           0
     66751 TIP3     18945    TIP3     H2       HT       0.417000       1.00800           0
     66752 TIP3     18946    TIP3     OH2      OT      -0.834000       15.9994           0
     66753 TIP3     18946    TIP3     H1       HT       0.417000       1.00800           0
     66754 TIP3     18946    TIP3     H2       HT       0.417000       1.00800           0
     66755 TIP3     18947    TIP3     OH2      OT      -0.834000       15.9994           0
     66756 TIP3     18947    TIP3     H1       HT       0.417000       1.00800           0
     66757 TIP3     18947    TIP3     H2       HT       0.417000       1.00800           0
     66758 TIP3     18948    TIP3     OH2      OT      -0.834000       15.9994           0
     66759 TIP3     18948    TIP3     H1       HT       0.417000       1.00800           0
     66760 TIP3     18948    TIP3     H2       HT       0.417000       1.00800           0
     66761 TIP3     18949    TIP3     OH2      OT      -0.834000       15.9994           0
     66762 TIP3     18949    TIP3     H1       HT       0.417000       1.00800           0
     66763 TIP3     18949    TIP3     H2       HT       0.417000       1.00800           0
     66764 TIP3     18950    TIP3     OH2      OT      -0.834000       15.9994           0
     66765 TIP3     18950    TIP3     H1       HT       0.417000       1.00800           0
     66766 TIP3     18950    TIP3     H2       HT       0.417000       1.00800           0
     66767 TIP3     18951    TIP3     OH2      OT      -0.834000       15.9994           0
     66768 TIP3     18951    TIP3     H1       HT       0.417000       1.00800           0
     66769 TIP3     18951    TIP3     H2       HT       0.417000       1.00800           0
     66770 TIP3     18952    TIP3     OH2      OT      -0.834000       15.9994           0
     66771 TIP3     18952    TIP3     H1       HT       0.417000       1.00800           0
     66772 TIP3     18952    TIP3     H2       HT       0.417000       1.00800           0
     66773 TIP3     18953    TIP3     OH2      OT      -0.834000       15.9994           0
     66774 TIP3     18953    TIP3     H1       HT       0.417000       1.00800           0
     66775 TIP3     18953    TIP3     H2       HT       0.417000       1.00800           0
     66776 TIP3     18954    TIP3     OH2      OT      -0.834000       15.9994           0
     66777 TIP3     18954    TIP3     H1       HT       0.417000       1.00800           0
     66778 TIP3     18954    TIP3     H2       HT       0.417000       1.00800           0
     66779 TIP3     18955    TIP3     OH2      OT      -0.834000       15.9994           0
     66780 TIP3     18955    TIP3     H1       HT       0.417000       1.00800           0
     66781 TIP3     18955    TIP3     H2       HT       0.417000       1.00800           0
     66782 TIP3     18956    TIP3     OH2      OT      -0.834000       15.9994           0
     66783 TIP3     18956    TIP3     H1       HT       0.417000       1.00800           0
     66784 TIP3     18956    TIP3     H2       HT       0.417000       1.00800           0
     66785 TIP3     18957    TIP3     OH2      OT      -0.834000       15.9994           0
     66786 TIP3     18957    TIP3     H1       HT       0.417000       1.00800           0
     66787 TIP3     18957    TIP3     H2       HT       0.417000       1.00800           0
     66788 TIP3     18958    TIP3     OH2      OT      -0.834000       15.9994           0
     66789 TIP3     18958    TIP3     H1       HT       0.417000       1.00800           0
     66790 TIP3     18958    TIP3     H2       HT       0.417000       1.00800           0
     66791 TIP3     18959    TIP3     OH2      OT      -0.834000       15.9994           0
     66792 TIP3     18959    TIP3     H1       HT       0.417000       1.00800           0
     66793 TIP3     18959    TIP3     H2       HT       0.417000       1.00800           0
     66794 TIP3     18960    TIP3     OH2      OT      -0.834000       15.9994           0
     66795 TIP3     18960    TIP3     H1       HT       0.417000       1.00800           0
     66796 TIP3     18960    TIP3     H2       HT       0.417000       1.00800           0
     66797 TIP3     18961    TIP3     OH2      OT      -0.834000       15.9994           0
     66798 TIP3     18961    TIP3     H1       HT       0.417000       1.00800           0
     66799 TIP3     18961    TIP3     H2       HT       0.417000       1.00800           0
     66800 TIP3     18962    TIP3     OH2      OT      -0.834000       15.9994           0
     66801 TIP3     18962    TIP3     H1       HT       0.417000       1.00800           0
     66802 TIP3     18962    TIP3     H2       HT       0.417000       1.00800           0
     66803 TIP3     18963    TIP3     OH2      OT      -0.834000       15.9994           0
     66804 TIP3     18963    TIP3     H1       HT       0.417000       1.00800           0
     66805 TIP3     18963    TIP3     H2       HT       0.417000       1.00800           0
     66806 TIP3     18964    TIP3     OH2      OT      -0.834000       15.9994           0
     66807 TIP3     18964    TIP3     H1       HT       0.417000       1.00800           0
     66808 TIP3     18964    TIP3     H2       HT       0.417000       1.00800           0
     66809 TIP3     18965    TIP3     OH2      OT      -0.834000       15.9994           0
     66810 TIP3     18965    TIP3     H1       HT       0.417000       1.00800           0
     66811 TIP3     18965    TIP3     H2       HT       0.417000       1.00800           0
     66812 TIP3     18966    TIP3     OH2      OT      -0.834000       15.9994           0
     66813 TIP3     18966    TIP3     H1       HT       0.417000       1.00800           0
     66814 TIP3     18966    TIP3     H2       HT       0.417000       1.00800           0
     66815 TIP3     18967    TIP3     OH2      OT      -0.834000       15.9994           0
     66816 TIP3     18967    TIP3     H1       HT       0.417000       1.00800           0
     66817 TIP3     18967    TIP3     H2       HT       0.417000       1.00800           0
     66818 TIP3     18968    TIP3     OH2      OT      -0.834000       15.9994           0
     66819 TIP3     18968    TIP3     H1       HT       0.417000       1.00800           0
     66820 TIP3     18968    TIP3     H2       HT       0.417000       1.00800           0
     66821 TIP3     18969    TIP3     OH2      OT      -0.834000       15.9994           0
     66822 TIP3     18969    TIP3     H1       HT       0.417000       1.00800           0
     66823 TIP3     18969    TIP3     H2       HT       0.417000       1.00800           0
     66824 TIP3     18970    TIP3     OH2      OT      -0.834000       15.9994           0
     66825 TIP3     18970    TIP3     H1       HT       0.417000       1.00800           0
     66826 TIP3     18970    TIP3     H2       HT       0.417000       1.00800           0
     66827 TIP3     18971    TIP3     OH2      OT      -0.834000       15.9994           0
     66828 TIP3     18971    TIP3     H1       HT       0.417000       1.00800           0
     66829 TIP3     18971    TIP3     H2       HT       0.417000       1.00800           0
     66830 TIP3     18972    TIP3     OH2      OT      -0.834000       15.9994           0
     66831 TIP3     18972    TIP3     H1       HT       0.417000       1.00800           0
     66832 TIP3     18972    TIP3     H2       HT       0.417000       1.00800           0
     66833 TIP3     18973    TIP3     OH2      OT      -0.834000       15.9994           0
     66834 TIP3     18973    TIP3     H1       HT       0.417000       1.00800           0
     66835 TIP3     18973    TIP3     H2       HT       0.417000       1.00800           0
     66836 TIP3     18974    TIP3     OH2      OT      -0.834000       15.9994           0
     66837 TIP3     18974    TIP3     H1       HT       0.417000       1.00800           0
     66838 TIP3     18974    TIP3     H2       HT       0.417000       1.00800           0
     66839 TIP3     18975    TIP3     OH2      OT      -0.834000       15.9994           0
     66840 TIP3     18975    TIP3     H1       HT       0.417000       1.00800           0
     66841 TIP3     18975    TIP3     H2       HT       0.417000       1.00800           0
     66842 TIP3     18976    TIP3     OH2      OT      -0.834000       15.9994           0
     66843 TIP3     18976    TIP3     H1       HT       0.417000       1.00800           0
     66844 TIP3     18976    TIP3     H2       HT       0.417000       1.00800           0
     66845 TIP3     18977    TIP3     OH2      OT      -0.834000       15.9994           0
     66846 TIP3     18977    TIP3     H1       HT       0.417000       1.00800           0
     66847 TIP3     18977    TIP3     H2       HT       0.417000       1.00800           0
     66848 TIP3     18978    TIP3     OH2      OT      -0.834000       15.9994           0
     66849 TIP3     18978    TIP3     H1       HT       0.417000       1.00800           0
     66850 TIP3     18978    TIP3     H2       HT       0.417000       1.00800           0
     66851 TIP3     18979    TIP3     OH2      OT      -0.834000       15.9994           0
     66852 TIP3     18979    TIP3     H1       HT       0.417000       1.00800           0
     66853 TIP3     18979    TIP3     H2       HT       0.417000       1.00800           0
     66854 TIP3     18980    TIP3     OH2      OT      -0.834000       15.9994           0
     66855 TIP3     18980    TIP3     H1       HT       0.417000       1.00800           0
     66856 TIP3     18980    TIP3     H2       HT       0.417000       1.00800           0
     66857 TIP3     18981    TIP3     OH2      OT      -0.834000       15.9994           0
     66858 TIP3     18981    TIP3     H1       HT       0.417000       1.00800           0
     66859 TIP3     18981    TIP3     H2       HT       0.417000       1.00800           0
     66860 TIP3     18982    TIP3     OH2      OT      -0.834000       15.9994           0
     66861 TIP3     18982    TIP3     H1       HT       0.417000       1.00800           0
     66862 TIP3     18982    TIP3     H2       HT       0.417000       1.00800           0
     66863 TIP3     18983    TIP3     OH2      OT      -0.834000       15.9994           0
     66864 TIP3     18983    TIP3     H1       HT       0.417000       1.00800           0
     66865 TIP3     18983    TIP3     H2       HT       0.417000       1.00800           0
     66866 TIP3     18984    TIP3     OH2      OT      -0.834000       15.9994           0
     66867 TIP3     18984    TIP3     H1       HT       0.417000       1.00800           0
     66868 TIP3     18984    TIP3     H2       HT       0.417000       1.00800           0
     66869 TIP3     18985    TIP3     OH2      OT      -0.834000       15.9994           0
     66870 TIP3     18985    TIP3     H1       HT       0.417000       1.00800           0
     66871 TIP3     18985    TIP3     H2       HT       0.417000       1.00800           0
     66872 TIP3     18986    TIP3     OH2      OT      -0.834000       15.9994           0
     66873 TIP3     18986    TIP3     H1       HT       0.417000       1.00800           0
     66874 TIP3     18986    TIP3     H2       HT       0.417000       1.00800           0
     66875 TIP3     18987    TIP3     OH2      OT      -0.834000       15.9994           0
     66876 TIP3     18987    TIP3     H1       HT       0.417000       1.00800           0
     66877 TIP3     18987    TIP3     H2       HT       0.417000       1.00800           0
     66878 TIP3     18988    TIP3     OH2      OT      -0.834000       15.9994           0
     66879 TIP3     18988    TIP3     H1       HT       0.417000       1.00800           0
     66880 TIP3     18988    TIP3     H2       HT       0.417000       1.00800           0
     66881 TIP3     18989    TIP3     OH2      OT      -0.834000       15.9994           0
     66882 TIP3     18989    TIP3     H1       HT       0.417000       1.00800           0
     66883 TIP3     18989    TIP3     H2       HT       0.417000       1.00800           0
     66884 TIP3     18990    TIP3     OH2      OT      -0.834000       15.9994           0
     66885 TIP3     18990    TIP3     H1       HT       0.417000       1.00800           0
     66886 TIP3     18990    TIP3     H2       HT       0.417000       1.00800           0
     66887 TIP3     18991    TIP3     OH2      OT      -0.834000       15.9994           0
     66888 TIP3     18991    TIP3     H1       HT       0.417000       1.00800           0
     66889 TIP3     18991    TIP3     H2       HT       0.417000       1.00800           0
     66890 TIP3     18992    TIP3     OH2      OT      -0.834000       15.9994           0
     66891 TIP3     18992    TIP3     H1       HT       0.417000       1.00800           0
     66892 TIP3     18992    TIP3     H2       HT       0.417000       1.00800           0
     66893 TIP3     18993    TIP3     OH2      OT      -0.834000       15.9994           0
     66894 TIP3     18993    TIP3     H1       HT       0.417000       1.00800           0
     66895 TIP3     18993    TIP3     H2       HT       0.417000       1.00800           0
     66896 TIP3     18994    TIP3     OH2      OT      -0.834000       15.9994           0
     66897 TIP3     18994    TIP3     H1       HT       0.417000       1.00800           0
     66898 TIP3     18994    TIP3     H2       HT       0.417000       1.00800           0
     66899 TIP3     18995    TIP3     OH2      OT      -0.834000       15.9994           0
     66900 TIP3     18995    TIP3     H1       HT       0.417000       1.00800           0
     66901 TIP3     18995    TIP3     H2       HT       0.417000       1.00800           0
     66902 TIP3     18996    TIP3     OH2      OT      -0.834000       15.9994           0
     66903 TIP3     18996    TIP3     H1       HT       0.417000       1.00800           0
     66904 TIP3     18996    TIP3     H2       HT       0.417000       1.00800           0
     66905 TIP3     18997    TIP3     OH2      OT      -0.834000       15.9994           0
     66906 TIP3     18997    TIP3     H1       HT       0.417000       1.00800           0
     66907 TIP3     18997    TIP3     H2       HT       0.417000       1.00800           0
     66908 TIP3     18998    TIP3     OH2      OT      -0.834000       15.9994           0
     66909 TIP3     18998    TIP3     H1       HT       0.417000       1.00800           0
     66910 TIP3     18998    TIP3     H2       HT       0.417000       1.00800           0
     66911 TIP3     18999    TIP3     OH2      OT      -0.834000       15.9994           0
     66912 TIP3     18999    TIP3     H1       HT       0.417000       1.00800           0
     66913 TIP3     18999    TIP3     H2       HT       0.417000       1.00800           0
     66914 TIP3     19000    TIP3     OH2      OT      -0.834000       15.9994           0
     66915 TIP3     19000    TIP3     H1       HT       0.417000       1.00800           0
     66916 TIP3     19000    TIP3     H2       HT       0.417000       1.00800           0
     66917 TIP3     19001    TIP3     OH2      OT      -0.834000       15.9994           0
     66918 TIP3     19001    TIP3     H1       HT       0.417000       1.00800           0
     66919 TIP3     19001    TIP3     H2       HT       0.417000       1.00800           0
     66920 TIP3     19002    TIP3     OH2      OT      -0.834000       15.9994           0
     66921 TIP3     19002    TIP3     H1       HT       0.417000       1.00800           0
     66922 TIP3     19002    TIP3     H2       HT       0.417000       1.00800           0
     66923 TIP3     19003    TIP3     OH2      OT      -0.834000       15.9994           0
     66924 TIP3     19003    TIP3     H1       HT       0.417000       1.00800           0
     66925 TIP3     19003    TIP3     H2       HT       0.417000       1.00800           0
     66926 TIP3     19004    TIP3     OH2      OT      -0.834000       15.9994           0
     66927 TIP3     19004    TIP3     H1       HT       0.417000       1.00800           0
     66928 TIP3     19004    TIP3     H2       HT       0.417000       1.00800           0
     66929 TIP3     19005    TIP3     OH2      OT      -0.834000       15.9994           0
     66930 TIP3     19005    TIP3     H1       HT       0.417000       1.00800           0
     66931 TIP3     19005    TIP3     H2       HT       0.417000       1.00800           0
     66932 TIP3     19006    TIP3     OH2      OT      -0.834000       15.9994           0
     66933 TIP3     19006    TIP3     H1       HT       0.417000       1.00800           0
     66934 TIP3     19006    TIP3     H2       HT       0.417000       1.00800           0
     66935 TIP3     19007    TIP3     OH2      OT      -0.834000       15.9994           0
     66936 TIP3     19007    TIP3     H1       HT       0.417000       1.00800           0
     66937 TIP3     19007    TIP3     H2       HT       0.417000       1.00800           0
     66938 TIP3     19008    TIP3     OH2      OT      -0.834000       15.9994           0
     66939 TIP3     19008    TIP3     H1       HT       0.417000       1.00800           0
     66940 TIP3     19008    TIP3     H2       HT       0.417000       1.00800           0
     66941 TIP3     19009    TIP3     OH2      OT      -0.834000       15.9994           0
     66942 TIP3     19009    TIP3     H1       HT       0.417000       1.00800           0
     66943 TIP3     19009    TIP3     H2       HT       0.417000       1.00800           0
     66944 TIP3     19010    TIP3     OH2      OT      -0.834000       15.9994           0
     66945 TIP3     19010    TIP3     H1       HT       0.417000       1.00800           0
     66946 TIP3     19010    TIP3     H2       HT       0.417000       1.00800           0
     66947 TIP3     19011    TIP3     OH2      OT      -0.834000       15.9994           0
     66948 TIP3     19011    TIP3     H1       HT       0.417000       1.00800           0
     66949 TIP3     19011    TIP3     H2       HT       0.417000       1.00800           0
     66950 TIP3     19012    TIP3     OH2      OT      -0.834000       15.9994           0
     66951 TIP3     19012    TIP3     H1       HT       0.417000       1.00800           0
     66952 TIP3     19012    TIP3     H2       HT       0.417000       1.00800           0
     66953 TIP3     19013    TIP3     OH2      OT      -0.834000       15.9994           0
     66954 TIP3     19013    TIP3     H1       HT       0.417000       1.00800           0
     66955 TIP3     19013    TIP3     H2       HT       0.417000       1.00800           0
     66956 TIP3     19014    TIP3     OH2      OT      -0.834000       15.9994           0
     66957 TIP3     19014    TIP3     H1       HT       0.417000       1.00800           0
     66958 TIP3     19014    TIP3     H2       HT       0.417000       1.00800           0
     66959 TIP3     19015    TIP3     OH2      OT      -0.834000       15.9994           0
     66960 TIP3     19015    TIP3     H1       HT       0.417000       1.00800           0
     66961 TIP3     19015    TIP3     H2       HT       0.417000       1.00800           0
     66962 TIP3     19016    TIP3     OH2      OT      -0.834000       15.9994           0
     66963 TIP3     19016    TIP3     H1       HT       0.417000       1.00800           0
     66964 TIP3     19016    TIP3     H2       HT       0.417000       1.00800           0
     66965 TIP3     19017    TIP3     OH2      OT      -0.834000       15.9994           0
     66966 TIP3     19017    TIP3     H1       HT       0.417000       1.00800           0
     66967 TIP3     19017    TIP3     H2       HT       0.417000       1.00800           0
     66968 TIP3     19018    TIP3     OH2      OT      -0.834000       15.9994           0
     66969 TIP3     19018    TIP3     H1       HT       0.417000       1.00800           0
     66970 TIP3     19018    TIP3     H2       HT       0.417000       1.00800           0
     66971 TIP3     19019    TIP3     OH2      OT      -0.834000       15.9994           0
     66972 TIP3     19019    TIP3     H1       HT       0.417000       1.00800           0
     66973 TIP3     19019    TIP3     H2       HT       0.417000       1.00800           0
     66974 TIP3     19020    TIP3     OH2      OT      -0.834000       15.9994           0
     66975 TIP3     19020    TIP3     H1       HT       0.417000       1.00800           0
     66976 TIP3     19020    TIP3     H2       HT       0.417000       1.00800           0
     66977 TIP3     19021    TIP3     OH2      OT      -0.834000       15.9994           0
     66978 TIP3     19021    TIP3     H1       HT       0.417000       1.00800           0
     66979 TIP3     19021    TIP3     H2       HT       0.417000       1.00800           0
     66980 TIP3     19022    TIP3     OH2      OT      -0.834000       15.9994           0
     66981 TIP3     19022    TIP3     H1       HT       0.417000       1.00800           0
     66982 TIP3     19022    TIP3     H2       HT       0.417000       1.00800           0
     66983 TIP3     19023    TIP3     OH2      OT      -0.834000       15.9994           0
     66984 TIP3     19023    TIP3     H1       HT       0.417000       1.00800           0
     66985 TIP3     19023    TIP3     H2       HT       0.417000       1.00800           0
     66986 TIP3     19024    TIP3     OH2      OT      -0.834000       15.9994           0
     66987 TIP3     19024    TIP3     H1       HT       0.417000       1.00800           0
     66988 TIP3     19024    TIP3     H2       HT       0.417000       1.00800           0
     66989 TIP3     19025    TIP3     OH2      OT      -0.834000       15.9994           0
     66990 TIP3     19025    TIP3     H1       HT       0.417000       1.00800           0
     66991 TIP3     19025    TIP3     H2       HT       0.417000       1.00800           0
     66992 TIP3     19026    TIP3     OH2      OT      -0.834000       15.9994           0
     66993 TIP3     19026    TIP3     H1       HT       0.417000       1.00800           0
     66994 TIP3     19026    TIP3     H2       HT       0.417000       1.00800           0
     66995 TIP3     19027    TIP3     OH2      OT      -0.834000       15.9994           0
     66996 TIP3     19027    TIP3     H1       HT       0.417000       1.00800           0
     66997 TIP3     19027    TIP3     H2       HT       0.417000       1.00800           0
     66998 TIP3     19028    TIP3     OH2      OT      -0.834000       15.9994           0
     66999 TIP3     19028    TIP3     H1       HT       0.417000       1.00800           0
     67000 TIP3     19028    TIP3     H2       HT       0.417000       1.00800           0
     67001 TIP3     19029    TIP3     OH2      OT      -0.834000       15.9994           0
     67002 TIP3     19029    TIP3     H1       HT       0.417000       1.00800           0
     67003 TIP3     19029    TIP3     H2       HT       0.417000       1.00800           0
     67004 TIP3     19030    TIP3     OH2      OT      -0.834000       15.9994           0
     67005 TIP3     19030    TIP3     H1       HT       0.417000       1.00800           0
     67006 TIP3     19030    TIP3     H2       HT       0.417000       1.00800           0
     67007 TIP3     19031    TIP3     OH2      OT      -0.834000       15.9994           0
     67008 TIP3     19031    TIP3     H1       HT       0.417000       1.00800           0
     67009 TIP3     19031    TIP3     H2       HT       0.417000       1.00800           0
     67010 TIP3     19032    TIP3     OH2      OT      -0.834000       15.9994           0
     67011 TIP3     19032    TIP3     H1       HT       0.417000       1.00800           0
     67012 TIP3     19032    TIP3     H2       HT       0.417000       1.00800           0
     67013 TIP3     19033    TIP3     OH2      OT      -0.834000       15.9994           0
     67014 TIP3     19033    TIP3     H1       HT       0.417000       1.00800           0
     67015 TIP3     19033    TIP3     H2       HT       0.417000       1.00800           0
     67016 TIP3     19034    TIP3     OH2      OT      -0.834000       15.9994           0
     67017 TIP3     19034    TIP3     H1       HT       0.417000       1.00800           0
     67018 TIP3     19034    TIP3     H2       HT       0.417000       1.00800           0
     67019 TIP3     19035    TIP3     OH2      OT      -0.834000       15.9994           0
     67020 TIP3     19035    TIP3     H1       HT       0.417000       1.00800           0
     67021 TIP3     19035    TIP3     H2       HT       0.417000       1.00800           0
     67022 TIP3     19036    TIP3     OH2      OT      -0.834000       15.9994           0
     67023 TIP3     19036    TIP3     H1       HT       0.417000       1.00800           0
     67024 TIP3     19036    TIP3     H2       HT       0.417000       1.00800           0
     67025 TIP3     19037    TIP3     OH2      OT      -0.834000       15.9994           0
     67026 TIP3     19037    TIP3     H1       HT       0.417000       1.00800           0
     67027 TIP3     19037    TIP3     H2       HT       0.417000       1.00800           0
     67028 TIP3     19038    TIP3     OH2      OT      -0.834000       15.9994           0
     67029 TIP3     19038    TIP3     H1       HT       0.417000       1.00800           0
     67030 TIP3     19038    TIP3     H2       HT       0.417000       1.00800           0
     67031 TIP3     19039    TIP3     OH2      OT      -0.834000       15.9994           0
     67032 TIP3     19039    TIP3     H1       HT       0.417000       1.00800           0
     67033 TIP3     19039    TIP3     H2       HT       0.417000       1.00800           0
     67034 TIP3     19040    TIP3     OH2      OT      -0.834000       15.9994           0
     67035 TIP3     19040    TIP3     H1       HT       0.417000       1.00800           0
     67036 TIP3     19040    TIP3     H2       HT       0.417000       1.00800           0
     67037 TIP3     19041    TIP3     OH2      OT      -0.834000       15.9994           0
     67038 TIP3     19041    TIP3     H1       HT       0.417000       1.00800           0
     67039 TIP3     19041    TIP3     H2       HT       0.417000       1.00800           0
     67040 TIP3     19042    TIP3     OH2      OT      -0.834000       15.9994           0
     67041 TIP3     19042    TIP3     H1       HT       0.417000       1.00800           0
     67042 TIP3     19042    TIP3     H2       HT       0.417000       1.00800           0
     67043 TIP3     19043    TIP3     OH2      OT      -0.834000       15.9994           0
     67044 TIP3     19043    TIP3     H1       HT       0.417000       1.00800           0
     67045 TIP3     19043    TIP3     H2       HT       0.417000       1.00800           0
     67046 TIP3     19044    TIP3     OH2      OT      -0.834000       15.9994           0
     67047 TIP3     19044    TIP3     H1       HT       0.417000       1.00800           0
     67048 TIP3     19044    TIP3     H2       HT       0.417000       1.00800           0
     67049 TIP3     19045    TIP3     OH2      OT      -0.834000       15.9994           0
     67050 TIP3     19045    TIP3     H1       HT       0.417000       1.00800           0
     67051 TIP3     19045    TIP3     H2       HT       0.417000       1.00800           0
     67052 TIP3     19046    TIP3     OH2      OT      -0.834000       15.9994           0
     67053 TIP3     19046    TIP3     H1       HT       0.417000       1.00800           0
     67054 TIP3     19046    TIP3     H2       HT       0.417000       1.00800           0
     67055 TIP3     19047    TIP3     OH2      OT      -0.834000       15.9994           0
     67056 TIP3     19047    TIP3     H1       HT       0.417000       1.00800           0
     67057 TIP3     19047    TIP3     H2       HT       0.417000       1.00800           0
     67058 TIP3     19048    TIP3     OH2      OT      -0.834000       15.9994           0
     67059 TIP3     19048    TIP3     H1       HT       0.417000       1.00800           0
     67060 TIP3     19048    TIP3     H2       HT       0.417000       1.00800           0
     67061 TIP3     19049    TIP3     OH2      OT      -0.834000       15.9994           0
     67062 TIP3     19049    TIP3     H1       HT       0.417000       1.00800           0
     67063 TIP3     19049    TIP3     H2       HT       0.417000       1.00800           0
     67064 TIP3     19050    TIP3     OH2      OT      -0.834000       15.9994           0
     67065 TIP3     19050    TIP3     H1       HT       0.417000       1.00800           0
     67066 TIP3     19050    TIP3     H2       HT       0.417000       1.00800           0
     67067 TIP3     19051    TIP3     OH2      OT      -0.834000       15.9994           0
     67068 TIP3     19051    TIP3     H1       HT       0.417000       1.00800           0
     67069 TIP3     19051    TIP3     H2       HT       0.417000       1.00800           0
     67070 TIP3     19052    TIP3     OH2      OT      -0.834000       15.9994           0
     67071 TIP3     19052    TIP3     H1       HT       0.417000       1.00800           0
     67072 TIP3     19052    TIP3     H2       HT       0.417000       1.00800           0
     67073 TIP3     19053    TIP3     OH2      OT      -0.834000       15.9994           0
     67074 TIP3     19053    TIP3     H1       HT       0.417000       1.00800           0
     67075 TIP3     19053    TIP3     H2       HT       0.417000       1.00800           0
     67076 TIP3     19054    TIP3     OH2      OT      -0.834000       15.9994           0
     67077 TIP3     19054    TIP3     H1       HT       0.417000       1.00800           0
     67078 TIP3     19054    TIP3     H2       HT       0.417000       1.00800           0
     67079 TIP3     19055    TIP3     OH2      OT      -0.834000       15.9994           0
     67080 TIP3     19055    TIP3     H1       HT       0.417000       1.00800           0
     67081 TIP3     19055    TIP3     H2       HT       0.417000       1.00800           0
     67082 TIP3     19056    TIP3     OH2      OT      -0.834000       15.9994           0
     67083 TIP3     19056    TIP3     H1       HT       0.417000       1.00800           0
     67084 TIP3     19056    TIP3     H2       HT       0.417000       1.00800           0
     67085 TIP3     19057    TIP3     OH2      OT      -0.834000       15.9994           0
     67086 TIP3     19057    TIP3     H1       HT       0.417000       1.00800           0
     67087 TIP3     19057    TIP3     H2       HT       0.417000       1.00800           0
     67088 TIP3     19058    TIP3     OH2      OT      -0.834000       15.9994           0
     67089 TIP3     19058    TIP3     H1       HT       0.417000       1.00800           0
     67090 TIP3     19058    TIP3     H2       HT       0.417000       1.00800           0
     67091 TIP3     19059    TIP3     OH2      OT      -0.834000       15.9994           0
     67092 TIP3     19059    TIP3     H1       HT       0.417000       1.00800           0
     67093 TIP3     19059    TIP3     H2       HT       0.417000       1.00800           0
     67094 TIP3     19060    TIP3     OH2      OT      -0.834000       15.9994           0
     67095 TIP3     19060    TIP3     H1       HT       0.417000       1.00800           0
     67096 TIP3     19060    TIP3     H2       HT       0.417000       1.00800           0
     67097 TIP3     19061    TIP3     OH2      OT      -0.834000       15.9994           0
     67098 TIP3     19061    TIP3     H1       HT       0.417000       1.00800           0
     67099 TIP3     19061    TIP3     H2       HT       0.417000       1.00800           0
     67100 TIP3     19062    TIP3     OH2      OT      -0.834000       15.9994           0
     67101 TIP3     19062    TIP3     H1       HT       0.417000       1.00800           0
     67102 TIP3     19062    TIP3     H2       HT       0.417000       1.00800           0
     67103 TIP3     19063    TIP3     OH2      OT      -0.834000       15.9994           0
     67104 TIP3     19063    TIP3     H1       HT       0.417000       1.00800           0
     67105 TIP3     19063    TIP3     H2       HT       0.417000       1.00800           0
     67106 TIP3     19064    TIP3     OH2      OT      -0.834000       15.9994           0
     67107 TIP3     19064    TIP3     H1       HT       0.417000       1.00800           0
     67108 TIP3     19064    TIP3     H2       HT       0.417000       1.00800           0
     67109 TIP3     19065    TIP3     OH2      OT      -0.834000       15.9994           0
     67110 TIP3     19065    TIP3     H1       HT       0.417000       1.00800           0
     67111 TIP3     19065    TIP3     H2       HT       0.417000       1.00800           0
     67112 TIP3     19066    TIP3     OH2      OT      -0.834000       15.9994           0
     67113 TIP3     19066    TIP3     H1       HT       0.417000       1.00800           0
     67114 TIP3     19066    TIP3     H2       HT       0.417000       1.00800           0
     67115 TIP3     19067    TIP3     OH2      OT      -0.834000       15.9994           0
     67116 TIP3     19067    TIP3     H1       HT       0.417000       1.00800           0
     67117 TIP3     19067    TIP3     H2       HT       0.417000       1.00800           0
     67118 TIP3     19068    TIP3     OH2      OT      -0.834000       15.9994           0
     67119 TIP3     19068    TIP3     H1       HT       0.417000       1.00800           0
     67120 TIP3     19068    TIP3     H2       HT       0.417000       1.00800           0
     67121 TIP3     19069    TIP3     OH2      OT      -0.834000       15.9994           0
     67122 TIP3     19069    TIP3     H1       HT       0.417000       1.00800           0
     67123 TIP3     19069    TIP3     H2       HT       0.417000       1.00800           0
     67124 TIP3     19070    TIP3     OH2      OT      -0.834000       15.9994           0
     67125 TIP3     19070    TIP3     H1       HT       0.417000       1.00800           0
     67126 TIP3     19070    TIP3     H2       HT       0.417000       1.00800           0
     67127 TIP3     19071    TIP3     OH2      OT      -0.834000       15.9994           0
     67128 TIP3     19071    TIP3     H1       HT       0.417000       1.00800           0
     67129 TIP3     19071    TIP3     H2       HT       0.417000       1.00800           0
     67130 TIP3     19072    TIP3     OH2      OT      -0.834000       15.9994           0
     67131 TIP3     19072    TIP3     H1       HT       0.417000       1.00800           0
     67132 TIP3     19072    TIP3     H2       HT       0.417000       1.00800           0
     67133 TIP3     19073    TIP3     OH2      OT      -0.834000       15.9994           0
     67134 TIP3     19073    TIP3     H1       HT       0.417000       1.00800           0
     67135 TIP3     19073    TIP3     H2       HT       0.417000       1.00800           0
     67136 TIP3     19074    TIP3     OH2      OT      -0.834000       15.9994           0
     67137 TIP3     19074    TIP3     H1       HT       0.417000       1.00800           0
     67138 TIP3     19074    TIP3     H2       HT       0.417000       1.00800           0
     67139 TIP3     19075    TIP3     OH2      OT      -0.834000       15.9994           0
     67140 TIP3     19075    TIP3     H1       HT       0.417000       1.00800           0
     67141 TIP3     19075    TIP3     H2       HT       0.417000       1.00800           0
     67142 TIP3     19076    TIP3     OH2      OT      -0.834000       15.9994           0
     67143 TIP3     19076    TIP3     H1       HT       0.417000       1.00800           0
     67144 TIP3     19076    TIP3     H2       HT       0.417000       1.00800           0
     67145 TIP3     19077    TIP3     OH2      OT      -0.834000       15.9994           0
     67146 TIP3     19077    TIP3     H1       HT       0.417000       1.00800           0
     67147 TIP3     19077    TIP3     H2       HT       0.417000       1.00800           0
     67148 TIP3     19078    TIP3     OH2      OT      -0.834000       15.9994           0
     67149 TIP3     19078    TIP3     H1       HT       0.417000       1.00800           0
     67150 TIP3     19078    TIP3     H2       HT       0.417000       1.00800           0
     67151 TIP3     19079    TIP3     OH2      OT      -0.834000       15.9994           0
     67152 TIP3     19079    TIP3     H1       HT       0.417000       1.00800           0
     67153 TIP3     19079    TIP3     H2       HT       0.417000       1.00800           0
     67154 TIP3     19080    TIP3     OH2      OT      -0.834000       15.9994           0
     67155 TIP3     19080    TIP3     H1       HT       0.417000       1.00800           0
     67156 TIP3     19080    TIP3     H2       HT       0.417000       1.00800           0
     67157 TIP3     19081    TIP3     OH2      OT      -0.834000       15.9994           0
     67158 TIP3     19081    TIP3     H1       HT       0.417000       1.00800           0
     67159 TIP3     19081    TIP3     H2       HT       0.417000       1.00800           0
     67160 TIP3     19082    TIP3     OH2      OT      -0.834000       15.9994           0
     67161 TIP3     19082    TIP3     H1       HT       0.417000       1.00800           0
     67162 TIP3     19082    TIP3     H2       HT       0.417000       1.00800           0
     67163 TIP3     19083    TIP3     OH2      OT      -0.834000       15.9994           0
     67164 TIP3     19083    TIP3     H1       HT       0.417000       1.00800           0
     67165 TIP3     19083    TIP3     H2       HT       0.417000       1.00800           0
     67166 TIP3     19084    TIP3     OH2      OT      -0.834000       15.9994           0
     67167 TIP3     19084    TIP3     H1       HT       0.417000       1.00800           0
     67168 TIP3     19084    TIP3     H2       HT       0.417000       1.00800           0
     67169 TIP3     19085    TIP3     OH2      OT      -0.834000       15.9994           0
     67170 TIP3     19085    TIP3     H1       HT       0.417000       1.00800           0
     67171 TIP3     19085    TIP3     H2       HT       0.417000       1.00800           0
     67172 TIP3     19086    TIP3     OH2      OT      -0.834000       15.9994           0
     67173 TIP3     19086    TIP3     H1       HT       0.417000       1.00800           0
     67174 TIP3     19086    TIP3     H2       HT       0.417000       1.00800           0
     67175 TIP3     19087    TIP3     OH2      OT      -0.834000       15.9994           0
     67176 TIP3     19087    TIP3     H1       HT       0.417000       1.00800           0
     67177 TIP3     19087    TIP3     H2       HT       0.417000       1.00800           0
     67178 TIP3     19088    TIP3     OH2      OT      -0.834000       15.9994           0
     67179 TIP3     19088    TIP3     H1       HT       0.417000       1.00800           0
     67180 TIP3     19088    TIP3     H2       HT       0.417000       1.00800           0
     67181 TIP3     19089    TIP3     OH2      OT      -0.834000       15.9994           0
     67182 TIP3     19089    TIP3     H1       HT       0.417000       1.00800           0
     67183 TIP3     19089    TIP3     H2       HT       0.417000       1.00800           0
     67184 TIP3     19090    TIP3     OH2      OT      -0.834000       15.9994           0
     67185 TIP3     19090    TIP3     H1       HT       0.417000       1.00800           0
     67186 TIP3     19090    TIP3     H2       HT       0.417000       1.00800           0
     67187 TIP3     19091    TIP3     OH2      OT      -0.834000       15.9994           0
     67188 TIP3     19091    TIP3     H1       HT       0.417000       1.00800           0
     67189 TIP3     19091    TIP3     H2       HT       0.417000       1.00800           0
     67190 TIP3     19092    TIP3     OH2      OT      -0.834000       15.9994           0
     67191 TIP3     19092    TIP3     H1       HT       0.417000       1.00800           0
     67192 TIP3     19092    TIP3     H2       HT       0.417000       1.00800           0
     67193 TIP3     19093    TIP3     OH2      OT      -0.834000       15.9994           0
     67194 TIP3     19093    TIP3     H1       HT       0.417000       1.00800           0
     67195 TIP3     19093    TIP3     H2       HT       0.417000       1.00800           0
     67196 TIP3     19094    TIP3     OH2      OT      -0.834000       15.9994           0
     67197 TIP3     19094    TIP3     H1       HT       0.417000       1.00800           0
     67198 TIP3     19094    TIP3     H2       HT       0.417000       1.00800           0
     67199 TIP3     19095    TIP3     OH2      OT      -0.834000       15.9994           0
     67200 TIP3     19095    TIP3     H1       HT       0.417000       1.00800           0
     67201 TIP3     19095    TIP3     H2       HT       0.417000       1.00800           0
     67202 TIP3     19096    TIP3     OH2      OT      -0.834000       15.9994           0
     67203 TIP3     19096    TIP3     H1       HT       0.417000       1.00800           0
     67204 TIP3     19096    TIP3     H2       HT       0.417000       1.00800           0
     67205 TIP3     19097    TIP3     OH2      OT      -0.834000       15.9994           0
     67206 TIP3     19097    TIP3     H1       HT       0.417000       1.00800           0
     67207 TIP3     19097    TIP3     H2       HT       0.417000       1.00800           0
     67208 TIP3     19098    TIP3     OH2      OT      -0.834000       15.9994           0
     67209 TIP3     19098    TIP3     H1       HT       0.417000       1.00800           0
     67210 TIP3     19098    TIP3     H2       HT       0.417000       1.00800           0
     67211 TIP3     19099    TIP3     OH2      OT      -0.834000       15.9994           0
     67212 TIP3     19099    TIP3     H1       HT       0.417000       1.00800           0
     67213 TIP3     19099    TIP3     H2       HT       0.417000       1.00800           0
     67214 TIP3     19100    TIP3     OH2      OT      -0.834000       15.9994           0
     67215 TIP3     19100    TIP3     H1       HT       0.417000       1.00800           0
     67216 TIP3     19100    TIP3     H2       HT       0.417000       1.00800           0
     67217 TIP3     19101    TIP3     OH2      OT      -0.834000       15.9994           0
     67218 TIP3     19101    TIP3     H1       HT       0.417000       1.00800           0
     67219 TIP3     19101    TIP3     H2       HT       0.417000       1.00800           0
     67220 TIP3     19102    TIP3     OH2      OT      -0.834000       15.9994           0
     67221 TIP3     19102    TIP3     H1       HT       0.417000       1.00800           0
     67222 TIP3     19102    TIP3     H2       HT       0.417000       1.00800           0
     67223 TIP3     19103    TIP3     OH2      OT      -0.834000       15.9994           0
     67224 TIP3     19103    TIP3     H1       HT       0.417000       1.00800           0
     67225 TIP3     19103    TIP3     H2       HT       0.417000       1.00800           0
     67226 TIP3     19104    TIP3     OH2      OT      -0.834000       15.9994           0
     67227 TIP3     19104    TIP3     H1       HT       0.417000       1.00800           0
     67228 TIP3     19104    TIP3     H2       HT       0.417000       1.00800           0
     67229 TIP3     19105    TIP3     OH2      OT      -0.834000       15.9994           0
     67230 TIP3     19105    TIP3     H1       HT       0.417000       1.00800           0
     67231 TIP3     19105    TIP3     H2       HT       0.417000       1.00800           0
     67232 TIP3     19106    TIP3     OH2      OT      -0.834000       15.9994           0
     67233 TIP3     19106    TIP3     H1       HT       0.417000       1.00800           0
     67234 TIP3     19106    TIP3     H2       HT       0.417000       1.00800           0
     67235 TIP3     19107    TIP3     OH2      OT      -0.834000       15.9994           0
     67236 TIP3     19107    TIP3     H1       HT       0.417000       1.00800           0
     67237 TIP3     19107    TIP3     H2       HT       0.417000       1.00800           0
     67238 TIP3     19108    TIP3     OH2      OT      -0.834000       15.9994           0
     67239 TIP3     19108    TIP3     H1       HT       0.417000       1.00800           0
     67240 TIP3     19108    TIP3     H2       HT       0.417000       1.00800           0
     67241 TIP3     19109    TIP3     OH2      OT      -0.834000       15.9994           0
     67242 TIP3     19109    TIP3     H1       HT       0.417000       1.00800           0
     67243 TIP3     19109    TIP3     H2       HT       0.417000       1.00800           0
     67244 TIP3     19110    TIP3     OH2      OT      -0.834000       15.9994           0
     67245 TIP3     19110    TIP3     H1       HT       0.417000       1.00800           0
     67246 TIP3     19110    TIP3     H2       HT       0.417000       1.00800           0
     67247 TIP3     19111    TIP3     OH2      OT      -0.834000       15.9994           0
     67248 TIP3     19111    TIP3     H1       HT       0.417000       1.00800           0
     67249 TIP3     19111    TIP3     H2       HT       0.417000       1.00800           0
     67250 TIP3     19112    TIP3     OH2      OT      -0.834000       15.9994           0
     67251 TIP3     19112    TIP3     H1       HT       0.417000       1.00800           0
     67252 TIP3     19112    TIP3     H2       HT       0.417000       1.00800           0
     67253 TIP3     19113    TIP3     OH2      OT      -0.834000       15.9994           0
     67254 TIP3     19113    TIP3     H1       HT       0.417000       1.00800           0
     67255 TIP3     19113    TIP3     H2       HT       0.417000       1.00800           0
     67256 TIP3     19114    TIP3     OH2      OT      -0.834000       15.9994           0
     67257 TIP3     19114    TIP3     H1       HT       0.417000       1.00800           0
     67258 TIP3     19114    TIP3     H2       HT       0.417000       1.00800           0
     67259 TIP3     19115    TIP3     OH2      OT      -0.834000       15.9994           0
     67260 TIP3     19115    TIP3     H1       HT       0.417000       1.00800           0
     67261 TIP3     19115    TIP3     H2       HT       0.417000       1.00800           0
     67262 TIP3     19116    TIP3     OH2      OT      -0.834000       15.9994           0
     67263 TIP3     19116    TIP3     H1       HT       0.417000       1.00800           0
     67264 TIP3     19116    TIP3     H2       HT       0.417000       1.00800           0
     67265 TIP3     19117    TIP3     OH2      OT      -0.834000       15.9994           0
     67266 TIP3     19117    TIP3     H1       HT       0.417000       1.00800           0
     67267 TIP3     19117    TIP3     H2       HT       0.417000       1.00800           0
     67268 TIP3     19118    TIP3     OH2      OT      -0.834000       15.9994           0
     67269 TIP3     19118    TIP3     H1       HT       0.417000       1.00800           0
     67270 TIP3     19118    TIP3     H2       HT       0.417000       1.00800           0
     67271 TIP3     19119    TIP3     OH2      OT      -0.834000       15.9994           0
     67272 TIP3     19119    TIP3     H1       HT       0.417000       1.00800           0
     67273 TIP3     19119    TIP3     H2       HT       0.417000       1.00800           0
     67274 TIP3     19120    TIP3     OH2      OT      -0.834000       15.9994           0
     67275 TIP3     19120    TIP3     H1       HT       0.417000       1.00800           0
     67276 TIP3     19120    TIP3     H2       HT       0.417000       1.00800           0
     67277 TIP3     19121    TIP3     OH2      OT      -0.834000       15.9994           0
     67278 TIP3     19121    TIP3     H1       HT       0.417000       1.00800           0
     67279 TIP3     19121    TIP3     H2       HT       0.417000       1.00800           0
     67280 TIP3     19122    TIP3     OH2      OT      -0.834000       15.9994           0
     67281 TIP3     19122    TIP3     H1       HT       0.417000       1.00800           0
     67282 TIP3     19122    TIP3     H2       HT       0.417000       1.00800           0
     67283 TIP3     19123    TIP3     OH2      OT      -0.834000       15.9994           0
     67284 TIP3     19123    TIP3     H1       HT       0.417000       1.00800           0
     67285 TIP3     19123    TIP3     H2       HT       0.417000       1.00800           0
     67286 TIP3     19124    TIP3     OH2      OT      -0.834000       15.9994           0
     67287 TIP3     19124    TIP3     H1       HT       0.417000       1.00800           0
     67288 TIP3     19124    TIP3     H2       HT       0.417000       1.00800           0
     67289 TIP3     19125    TIP3     OH2      OT      -0.834000       15.9994           0
     67290 TIP3     19125    TIP3     H1       HT       0.417000       1.00800           0
     67291 TIP3     19125    TIP3     H2       HT       0.417000       1.00800           0
     67292 TIP3     19126    TIP3     OH2      OT      -0.834000       15.9994           0
     67293 TIP3     19126    TIP3     H1       HT       0.417000       1.00800           0
     67294 TIP3     19126    TIP3     H2       HT       0.417000       1.00800           0
     67295 TIP3     19127    TIP3     OH2      OT      -0.834000       15.9994           0
     67296 TIP3     19127    TIP3     H1       HT       0.417000       1.00800           0
     67297 TIP3     19127    TIP3     H2       HT       0.417000       1.00800           0
     67298 TIP3     19128    TIP3     OH2      OT      -0.834000       15.9994           0
     67299 TIP3     19128    TIP3     H1       HT       0.417000       1.00800           0
     67300 TIP3     19128    TIP3     H2       HT       0.417000       1.00800           0
     67301 TIP3     19129    TIP3     OH2      OT      -0.834000       15.9994           0
     67302 TIP3     19129    TIP3     H1       HT       0.417000       1.00800           0
     67303 TIP3     19129    TIP3     H2       HT       0.417000       1.00800           0
     67304 TIP3     19130    TIP3     OH2      OT      -0.834000       15.9994           0
     67305 TIP3     19130    TIP3     H1       HT       0.417000       1.00800           0
     67306 TIP3     19130    TIP3     H2       HT       0.417000       1.00800           0
     67307 TIP3     19131    TIP3     OH2      OT      -0.834000       15.9994           0
     67308 TIP3     19131    TIP3     H1       HT       0.417000       1.00800           0
     67309 TIP3     19131    TIP3     H2       HT       0.417000       1.00800           0
     67310 TIP3     19132    TIP3     OH2      OT      -0.834000       15.9994           0
     67311 TIP3     19132    TIP3     H1       HT       0.417000       1.00800           0
     67312 TIP3     19132    TIP3     H2       HT       0.417000       1.00800           0
     67313 TIP3     19133    TIP3     OH2      OT      -0.834000       15.9994           0
     67314 TIP3     19133    TIP3     H1       HT       0.417000       1.00800           0
     67315 TIP3     19133    TIP3     H2       HT       0.417000       1.00800           0
     67316 TIP3     19134    TIP3     OH2      OT      -0.834000       15.9994           0
     67317 TIP3     19134    TIP3     H1       HT       0.417000       1.00800           0
     67318 TIP3     19134    TIP3     H2       HT       0.417000       1.00800           0
     67319 TIP3     19135    TIP3     OH2      OT      -0.834000       15.9994           0
     67320 TIP3     19135    TIP3     H1       HT       0.417000       1.00800           0
     67321 TIP3     19135    TIP3     H2       HT       0.417000       1.00800           0
     67322 TIP3     19136    TIP3     OH2      OT      -0.834000       15.9994           0
     67323 TIP3     19136    TIP3     H1       HT       0.417000       1.00800           0
     67324 TIP3     19136    TIP3     H2       HT       0.417000       1.00800           0
     67325 TIP3     19137    TIP3     OH2      OT      -0.834000       15.9994           0
     67326 TIP3     19137    TIP3     H1       HT       0.417000       1.00800           0
     67327 TIP3     19137    TIP3     H2       HT       0.417000       1.00800           0
     67328 TIP3     19138    TIP3     OH2      OT      -0.834000       15.9994           0
     67329 TIP3     19138    TIP3     H1       HT       0.417000       1.00800           0
     67330 TIP3     19138    TIP3     H2       HT       0.417000       1.00800           0
     67331 TIP3     19139    TIP3     OH2      OT      -0.834000       15.9994           0
     67332 TIP3     19139    TIP3     H1       HT       0.417000       1.00800           0
     67333 TIP3     19139    TIP3     H2       HT       0.417000       1.00800           0
     67334 TIP3     19140    TIP3     OH2      OT      -0.834000       15.9994           0
     67335 TIP3     19140    TIP3     H1       HT       0.417000       1.00800           0
     67336 TIP3     19140    TIP3     H2       HT       0.417000       1.00800           0
     67337 TIP3     19141    TIP3     OH2      OT      -0.834000       15.9994           0
     67338 TIP3     19141    TIP3     H1       HT       0.417000       1.00800           0
     67339 TIP3     19141    TIP3     H2       HT       0.417000       1.00800           0
     67340 TIP3     19142    TIP3     OH2      OT      -0.834000       15.9994           0
     67341 TIP3     19142    TIP3     H1       HT       0.417000       1.00800           0
     67342 TIP3     19142    TIP3     H2       HT       0.417000       1.00800           0
     67343 TIP3     19143    TIP3     OH2      OT      -0.834000       15.9994           0
     67344 TIP3     19143    TIP3     H1       HT       0.417000       1.00800           0
     67345 TIP3     19143    TIP3     H2       HT       0.417000       1.00800           0
     67346 TIP3     19144    TIP3     OH2      OT      -0.834000       15.9994           0
     67347 TIP3     19144    TIP3     H1       HT       0.417000       1.00800           0
     67348 TIP3     19144    TIP3     H2       HT       0.417000       1.00800           0
     67349 TIP3     19145    TIP3     OH2      OT      -0.834000       15.9994           0
     67350 TIP3     19145    TIP3     H1       HT       0.417000       1.00800           0
     67351 TIP3     19145    TIP3     H2       HT       0.417000       1.00800           0
     67352 TIP3     19146    TIP3     OH2      OT      -0.834000       15.9994           0
     67353 TIP3     19146    TIP3     H1       HT       0.417000       1.00800           0
     67354 TIP3     19146    TIP3     H2       HT       0.417000       1.00800           0
     67355 TIP3     19147    TIP3     OH2      OT      -0.834000       15.9994           0
     67356 TIP3     19147    TIP3     H1       HT       0.417000       1.00800           0
     67357 TIP3     19147    TIP3     H2       HT       0.417000       1.00800           0
     67358 TIP3     19148    TIP3     OH2      OT      -0.834000       15.9994           0
     67359 TIP3     19148    TIP3     H1       HT       0.417000       1.00800           0
     67360 TIP3     19148    TIP3     H2       HT       0.417000       1.00800           0
     67361 TIP3     19149    TIP3     OH2      OT      -0.834000       15.9994           0
     67362 TIP3     19149    TIP3     H1       HT       0.417000       1.00800           0
     67363 TIP3     19149    TIP3     H2       HT       0.417000       1.00800           0
     67364 TIP3     19150    TIP3     OH2      OT      -0.834000       15.9994           0
     67365 TIP3     19150    TIP3     H1       HT       0.417000       1.00800           0
     67366 TIP3     19150    TIP3     H2       HT       0.417000       1.00800           0
     67367 TIP3     19151    TIP3     OH2      OT      -0.834000       15.9994           0
     67368 TIP3     19151    TIP3     H1       HT       0.417000       1.00800           0
     67369 TIP3     19151    TIP3     H2       HT       0.417000       1.00800           0
     67370 TIP3     19152    TIP3     OH2      OT      -0.834000       15.9994           0
     67371 TIP3     19152    TIP3     H1       HT       0.417000       1.00800           0
     67372 TIP3     19152    TIP3     H2       HT       0.417000       1.00800           0
     67373 TIP3     19153    TIP3     OH2      OT      -0.834000       15.9994           0
     67374 TIP3     19153    TIP3     H1       HT       0.417000       1.00800           0
     67375 TIP3     19153    TIP3     H2       HT       0.417000       1.00800           0
     67376 TIP3     19154    TIP3     OH2      OT      -0.834000       15.9994           0
     67377 TIP3     19154    TIP3     H1       HT       0.417000       1.00800           0
     67378 TIP3     19154    TIP3     H2       HT       0.417000       1.00800           0
     67379 TIP3     19155    TIP3     OH2      OT      -0.834000       15.9994           0
     67380 TIP3     19155    TIP3     H1       HT       0.417000       1.00800           0
     67381 TIP3     19155    TIP3     H2       HT       0.417000       1.00800           0
     67382 TIP3     19156    TIP3     OH2      OT      -0.834000       15.9994           0
     67383 TIP3     19156    TIP3     H1       HT       0.417000       1.00800           0
     67384 TIP3     19156    TIP3     H2       HT       0.417000       1.00800           0
     67385 TIP3     19157    TIP3     OH2      OT      -0.834000       15.9994           0
     67386 TIP3     19157    TIP3     H1       HT       0.417000       1.00800           0
     67387 TIP3     19157    TIP3     H2       HT       0.417000       1.00800           0
     67388 TIP3     19158    TIP3     OH2      OT      -0.834000       15.9994           0
     67389 TIP3     19158    TIP3     H1       HT       0.417000       1.00800           0
     67390 TIP3     19158    TIP3     H2       HT       0.417000       1.00800           0
     67391 TIP3     19159    TIP3     OH2      OT      -0.834000       15.9994           0
     67392 TIP3     19159    TIP3     H1       HT       0.417000       1.00800           0
     67393 TIP3     19159    TIP3     H2       HT       0.417000       1.00800           0
     67394 TIP3     19160    TIP3     OH2      OT      -0.834000       15.9994           0
     67395 TIP3     19160    TIP3     H1       HT       0.417000       1.00800           0
     67396 TIP3     19160    TIP3     H2       HT       0.417000       1.00800           0
     67397 TIP3     19161    TIP3     OH2      OT      -0.834000       15.9994           0
     67398 TIP3     19161    TIP3     H1       HT       0.417000       1.00800           0
     67399 TIP3     19161    TIP3     H2       HT       0.417000       1.00800           0
     67400 TIP3     19162    TIP3     OH2      OT      -0.834000       15.9994           0
     67401 TIP3     19162    TIP3     H1       HT       0.417000       1.00800           0
     67402 TIP3     19162    TIP3     H2       HT       0.417000       1.00800           0
     67403 TIP3     19163    TIP3     OH2      OT      -0.834000       15.9994           0
     67404 TIP3     19163    TIP3     H1       HT       0.417000       1.00800           0
     67405 TIP3     19163    TIP3     H2       HT       0.417000       1.00800           0
     67406 TIP3     19164    TIP3     OH2      OT      -0.834000       15.9994           0
     67407 TIP3     19164    TIP3     H1       HT       0.417000       1.00800           0
     67408 TIP3     19164    TIP3     H2       HT       0.417000       1.00800           0
     67409 TIP3     19165    TIP3     OH2      OT      -0.834000       15.9994           0
     67410 TIP3     19165    TIP3     H1       HT       0.417000       1.00800           0
     67411 TIP3     19165    TIP3     H2       HT       0.417000       1.00800           0
     67412 TIP3     19166    TIP3     OH2      OT      -0.834000       15.9994           0
     67413 TIP3     19166    TIP3     H1       HT       0.417000       1.00800           0
     67414 TIP3     19166    TIP3     H2       HT       0.417000       1.00800           0
     67415 TIP3     19167    TIP3     OH2      OT      -0.834000       15.9994           0
     67416 TIP3     19167    TIP3     H1       HT       0.417000       1.00800           0
     67417 TIP3     19167    TIP3     H2       HT       0.417000       1.00800           0
     67418 TIP3     19168    TIP3     OH2      OT      -0.834000       15.9994           0
     67419 TIP3     19168    TIP3     H1       HT       0.417000       1.00800           0
     67420 TIP3     19168    TIP3     H2       HT       0.417000       1.00800           0
     67421 TIP3     19169    TIP3     OH2      OT      -0.834000       15.9994           0
     67422 TIP3     19169    TIP3     H1       HT       0.417000       1.00800           0
     67423 TIP3     19169    TIP3     H2       HT       0.417000       1.00800           0
     67424 TIP3     19170    TIP3     OH2      OT      -0.834000       15.9994           0
     67425 TIP3     19170    TIP3     H1       HT       0.417000       1.00800           0
     67426 TIP3     19170    TIP3     H2       HT       0.417000       1.00800           0
     67427 TIP3     19171    TIP3     OH2      OT      -0.834000       15.9994           0
     67428 TIP3     19171    TIP3     H1       HT       0.417000       1.00800           0
     67429 TIP3     19171    TIP3     H2       HT       0.417000       1.00800           0
     67430 TIP3     19172    TIP3     OH2      OT      -0.834000       15.9994           0
     67431 TIP3     19172    TIP3     H1       HT       0.417000       1.00800           0
     67432 TIP3     19172    TIP3     H2       HT       0.417000       1.00800           0
     67433 TIP3     19173    TIP3     OH2      OT      -0.834000       15.9994           0
     67434 TIP3     19173    TIP3     H1       HT       0.417000       1.00800           0
     67435 TIP3     19173    TIP3     H2       HT       0.417000       1.00800           0
     67436 TIP3     19174    TIP3     OH2      OT      -0.834000       15.9994           0
     67437 TIP3     19174    TIP3     H1       HT       0.417000       1.00800           0
     67438 TIP3     19174    TIP3     H2       HT       0.417000       1.00800           0
     67439 TIP3     19175    TIP3     OH2      OT      -0.834000       15.9994           0
     67440 TIP3     19175    TIP3     H1       HT       0.417000       1.00800           0
     67441 TIP3     19175    TIP3     H2       HT       0.417000       1.00800           0
     67442 TIP3     19176    TIP3     OH2      OT      -0.834000       15.9994           0
     67443 TIP3     19176    TIP3     H1       HT       0.417000       1.00800           0
     67444 TIP3     19176    TIP3     H2       HT       0.417000       1.00800           0
     67445 TIP3     19177    TIP3     OH2      OT      -0.834000       15.9994           0
     67446 TIP3     19177    TIP3     H1       HT       0.417000       1.00800           0
     67447 TIP3     19177    TIP3     H2       HT       0.417000       1.00800           0
     67448 TIP3     19178    TIP3     OH2      OT      -0.834000       15.9994           0
     67449 TIP3     19178    TIP3     H1       HT       0.417000       1.00800           0
     67450 TIP3     19178    TIP3     H2       HT       0.417000       1.00800           0
     67451 TIP3     19179    TIP3     OH2      OT      -0.834000       15.9994           0
     67452 TIP3     19179    TIP3     H1       HT       0.417000       1.00800           0
     67453 TIP3     19179    TIP3     H2       HT       0.417000       1.00800           0
     67454 TIP3     19180    TIP3     OH2      OT      -0.834000       15.9994           0
     67455 TIP3     19180    TIP3     H1       HT       0.417000       1.00800           0
     67456 TIP3     19180    TIP3     H2       HT       0.417000       1.00800           0
     67457 TIP3     19181    TIP3     OH2      OT      -0.834000       15.9994           0
     67458 TIP3     19181    TIP3     H1       HT       0.417000       1.00800           0
     67459 TIP3     19181    TIP3     H2       HT       0.417000       1.00800           0
     67460 TIP3     19182    TIP3     OH2      OT      -0.834000       15.9994           0
     67461 TIP3     19182    TIP3     H1       HT       0.417000       1.00800           0
     67462 TIP3     19182    TIP3     H2       HT       0.417000       1.00800           0
     67463 TIP3     19183    TIP3     OH2      OT      -0.834000       15.9994           0
     67464 TIP3     19183    TIP3     H1       HT       0.417000       1.00800           0
     67465 TIP3     19183    TIP3     H2       HT       0.417000       1.00800           0
     67466 TIP3     19184    TIP3     OH2      OT      -0.834000       15.9994           0
     67467 TIP3     19184    TIP3     H1       HT       0.417000       1.00800           0
     67468 TIP3     19184    TIP3     H2       HT       0.417000       1.00800           0
     67469 TIP3     19185    TIP3     OH2      OT      -0.834000       15.9994           0
     67470 TIP3     19185    TIP3     H1       HT       0.417000       1.00800           0
     67471 TIP3     19185    TIP3     H2       HT       0.417000       1.00800           0
     67472 TIP3     19186    TIP3     OH2      OT      -0.834000       15.9994           0
     67473 TIP3     19186    TIP3     H1       HT       0.417000       1.00800           0
     67474 TIP3     19186    TIP3     H2       HT       0.417000       1.00800           0
     67475 TIP3     19187    TIP3     OH2      OT      -0.834000       15.9994           0
     67476 TIP3     19187    TIP3     H1       HT       0.417000       1.00800           0
     67477 TIP3     19187    TIP3     H2       HT       0.417000       1.00800           0
     67478 TIP3     19188    TIP3     OH2      OT      -0.834000       15.9994           0
     67479 TIP3     19188    TIP3     H1       HT       0.417000       1.00800           0
     67480 TIP3     19188    TIP3     H2       HT       0.417000       1.00800           0
     67481 TIP3     19189    TIP3     OH2      OT      -0.834000       15.9994           0
     67482 TIP3     19189    TIP3     H1       HT       0.417000       1.00800           0
     67483 TIP3     19189    TIP3     H2       HT       0.417000       1.00800           0
     67484 TIP3     19190    TIP3     OH2      OT      -0.834000       15.9994           0
     67485 TIP3     19190    TIP3     H1       HT       0.417000       1.00800           0
     67486 TIP3     19190    TIP3     H2       HT       0.417000       1.00800           0
     67487 TIP3     19191    TIP3     OH2      OT      -0.834000       15.9994           0
     67488 TIP3     19191    TIP3     H1       HT       0.417000       1.00800           0
     67489 TIP3     19191    TIP3     H2       HT       0.417000       1.00800           0
     67490 TIP3     19192    TIP3     OH2      OT      -0.834000       15.9994           0
     67491 TIP3     19192    TIP3     H1       HT       0.417000       1.00800           0
     67492 TIP3     19192    TIP3     H2       HT       0.417000       1.00800           0
     67493 TIP3     19193    TIP3     OH2      OT      -0.834000       15.9994           0
     67494 TIP3     19193    TIP3     H1       HT       0.417000       1.00800           0
     67495 TIP3     19193    TIP3     H2       HT       0.417000       1.00800           0
     67496 TIP3     19194    TIP3     OH2      OT      -0.834000       15.9994           0
     67497 TIP3     19194    TIP3     H1       HT       0.417000       1.00800           0
     67498 TIP3     19194    TIP3     H2       HT       0.417000       1.00800           0
     67499 TIP3     19195    TIP3     OH2      OT      -0.834000       15.9994           0
     67500 TIP3     19195    TIP3     H1       HT       0.417000       1.00800           0
     67501 TIP3     19195    TIP3     H2       HT       0.417000       1.00800           0
     67502 TIP3     19196    TIP3     OH2      OT      -0.834000       15.9994           0
     67503 TIP3     19196    TIP3     H1       HT       0.417000       1.00800           0
     67504 TIP3     19196    TIP3     H2       HT       0.417000       1.00800           0
     67505 TIP3     19197    TIP3     OH2      OT      -0.834000       15.9994           0
     67506 TIP3     19197    TIP3     H1       HT       0.417000       1.00800           0
     67507 TIP3     19197    TIP3     H2       HT       0.417000       1.00800           0
     67508 TIP3     19198    TIP3     OH2      OT      -0.834000       15.9994           0
     67509 TIP3     19198    TIP3     H1       HT       0.417000       1.00800           0
     67510 TIP3     19198    TIP3     H2       HT       0.417000       1.00800           0
     67511 TIP3     19199    TIP3     OH2      OT      -0.834000       15.9994           0
     67512 TIP3     19199    TIP3     H1       HT       0.417000       1.00800           0
     67513 TIP3     19199    TIP3     H2       HT       0.417000       1.00800           0
     67514 TIP3     19200    TIP3     OH2      OT      -0.834000       15.9994           0
     67515 TIP3     19200    TIP3     H1       HT       0.417000       1.00800           0
     67516 TIP3     19200    TIP3     H2       HT       0.417000       1.00800           0
     67517 TIP3     19201    TIP3     OH2      OT      -0.834000       15.9994           0
     67518 TIP3     19201    TIP3     H1       HT       0.417000       1.00800           0
     67519 TIP3     19201    TIP3     H2       HT       0.417000       1.00800           0
     67520 TIP3     19202    TIP3     OH2      OT      -0.834000       15.9994           0
     67521 TIP3     19202    TIP3     H1       HT       0.417000       1.00800           0
     67522 TIP3     19202    TIP3     H2       HT       0.417000       1.00800           0
     67523 TIP3     19203    TIP3     OH2      OT      -0.834000       15.9994           0
     67524 TIP3     19203    TIP3     H1       HT       0.417000       1.00800           0
     67525 TIP3     19203    TIP3     H2       HT       0.417000       1.00800           0
     67526 TIP3     19204    TIP3     OH2      OT      -0.834000       15.9994           0
     67527 TIP3     19204    TIP3     H1       HT       0.417000       1.00800           0
     67528 TIP3     19204    TIP3     H2       HT       0.417000       1.00800           0
     67529 TIP3     19205    TIP3     OH2      OT      -0.834000       15.9994           0
     67530 TIP3     19205    TIP3     H1       HT       0.417000       1.00800           0
     67531 TIP3     19205    TIP3     H2       HT       0.417000       1.00800           0
     67532 TIP3     19206    TIP3     OH2      OT      -0.834000       15.9994           0
     67533 TIP3     19206    TIP3     H1       HT       0.417000       1.00800           0
     67534 TIP3     19206    TIP3     H2       HT       0.417000       1.00800           0
     67535 TIP3     19207    TIP3     OH2      OT      -0.834000       15.9994           0
     67536 TIP3     19207    TIP3     H1       HT       0.417000       1.00800           0
     67537 TIP3     19207    TIP3     H2       HT       0.417000       1.00800           0
     67538 TIP3     19208    TIP3     OH2      OT      -0.834000       15.9994           0
     67539 TIP3     19208    TIP3     H1       HT       0.417000       1.00800           0
     67540 TIP3     19208    TIP3     H2       HT       0.417000       1.00800           0
     67541 TIP3     19209    TIP3     OH2      OT      -0.834000       15.9994           0
     67542 TIP3     19209    TIP3     H1       HT       0.417000       1.00800           0
     67543 TIP3     19209    TIP3     H2       HT       0.417000       1.00800           0
     67544 TIP3     19210    TIP3     OH2      OT      -0.834000       15.9994           0
     67545 TIP3     19210    TIP3     H1       HT       0.417000       1.00800           0
     67546 TIP3     19210    TIP3     H2       HT       0.417000       1.00800           0
     67547 TIP3     19211    TIP3     OH2      OT      -0.834000       15.9994           0
     67548 TIP3     19211    TIP3     H1       HT       0.417000       1.00800           0
     67549 TIP3     19211    TIP3     H2       HT       0.417000       1.00800           0
     67550 TIP3     19212    TIP3     OH2      OT      -0.834000       15.9994           0
     67551 TIP3     19212    TIP3     H1       HT       0.417000       1.00800           0
     67552 TIP3     19212    TIP3     H2       HT       0.417000       1.00800           0
     67553 TIP3     19213    TIP3     OH2      OT      -0.834000       15.9994           0
     67554 TIP3     19213    TIP3     H1       HT       0.417000       1.00800           0
     67555 TIP3     19213    TIP3     H2       HT       0.417000       1.00800           0
     67556 TIP3     19214    TIP3     OH2      OT      -0.834000       15.9994           0
     67557 TIP3     19214    TIP3     H1       HT       0.417000       1.00800           0
     67558 TIP3     19214    TIP3     H2       HT       0.417000       1.00800           0
     67559 TIP3     19215    TIP3     OH2      OT      -0.834000       15.9994           0
     67560 TIP3     19215    TIP3     H1       HT       0.417000       1.00800           0
     67561 TIP3     19215    TIP3     H2       HT       0.417000       1.00800           0
     67562 TIP3     19216    TIP3     OH2      OT      -0.834000       15.9994           0
     67563 TIP3     19216    TIP3     H1       HT       0.417000       1.00800           0
     67564 TIP3     19216    TIP3     H2       HT       0.417000       1.00800           0
     67565 TIP3     19217    TIP3     OH2      OT      -0.834000       15.9994           0
     67566 TIP3     19217    TIP3     H1       HT       0.417000       1.00800           0
     67567 TIP3     19217    TIP3     H2       HT       0.417000       1.00800           0
     67568 TIP3     19218    TIP3     OH2      OT      -0.834000       15.9994           0
     67569 TIP3     19218    TIP3     H1       HT       0.417000       1.00800           0
     67570 TIP3     19218    TIP3     H2       HT       0.417000       1.00800           0
     67571 TIP3     19219    TIP3     OH2      OT      -0.834000       15.9994           0
     67572 TIP3     19219    TIP3     H1       HT       0.417000       1.00800           0
     67573 TIP3     19219    TIP3     H2       HT       0.417000       1.00800           0
     67574 TIP3     19220    TIP3     OH2      OT      -0.834000       15.9994           0
     67575 TIP3     19220    TIP3     H1       HT       0.417000       1.00800           0
     67576 TIP3     19220    TIP3     H2       HT       0.417000       1.00800           0
     67577 TIP3     19221    TIP3     OH2      OT      -0.834000       15.9994           0
     67578 TIP3     19221    TIP3     H1       HT       0.417000       1.00800           0
     67579 TIP3     19221    TIP3     H2       HT       0.417000       1.00800           0
     67580 TIP3     19222    TIP3     OH2      OT      -0.834000       15.9994           0
     67581 TIP3     19222    TIP3     H1       HT       0.417000       1.00800           0
     67582 TIP3     19222    TIP3     H2       HT       0.417000       1.00800           0
     67583 TIP3     19223    TIP3     OH2      OT      -0.834000       15.9994           0
     67584 TIP3     19223    TIP3     H1       HT       0.417000       1.00800           0
     67585 TIP3     19223    TIP3     H2       HT       0.417000       1.00800           0
     67586 TIP3     19224    TIP3     OH2      OT      -0.834000       15.9994           0
     67587 TIP3     19224    TIP3     H1       HT       0.417000       1.00800           0
     67588 TIP3     19224    TIP3     H2       HT       0.417000       1.00800           0
     67589 TIP3     19225    TIP3     OH2      OT      -0.834000       15.9994           0
     67590 TIP3     19225    TIP3     H1       HT       0.417000       1.00800           0
     67591 TIP3     19225    TIP3     H2       HT       0.417000       1.00800           0
     67592 TIP3     19226    TIP3     OH2      OT      -0.834000       15.9994           0
     67593 TIP3     19226    TIP3     H1       HT       0.417000       1.00800           0
     67594 TIP3     19226    TIP3     H2       HT       0.417000       1.00800           0
     67595 TIP3     19227    TIP3     OH2      OT      -0.834000       15.9994           0
     67596 TIP3     19227    TIP3     H1       HT       0.417000       1.00800           0
     67597 TIP3     19227    TIP3     H2       HT       0.417000       1.00800           0
     67598 TIP3     19228    TIP3     OH2      OT      -0.834000       15.9994           0
     67599 TIP3     19228    TIP3     H1       HT       0.417000       1.00800           0
     67600 TIP3     19228    TIP3     H2       HT       0.417000       1.00800           0
     67601 TIP3     19229    TIP3     OH2      OT      -0.834000       15.9994           0
     67602 TIP3     19229    TIP3     H1       HT       0.417000       1.00800           0
     67603 TIP3     19229    TIP3     H2       HT       0.417000       1.00800           0
     67604 TIP3     19230    TIP3     OH2      OT      -0.834000       15.9994           0
     67605 TIP3     19230    TIP3     H1       HT       0.417000       1.00800           0
     67606 TIP3     19230    TIP3     H2       HT       0.417000       1.00800           0
     67607 TIP3     19231    TIP3     OH2      OT      -0.834000       15.9994           0
     67608 TIP3     19231    TIP3     H1       HT       0.417000       1.00800           0
     67609 TIP3     19231    TIP3     H2       HT       0.417000       1.00800           0
     67610 TIP3     19232    TIP3     OH2      OT      -0.834000       15.9994           0
     67611 TIP3     19232    TIP3     H1       HT       0.417000       1.00800           0
     67612 TIP3     19232    TIP3     H2       HT       0.417000       1.00800           0
     67613 TIP3     19233    TIP3     OH2      OT      -0.834000       15.9994           0
     67614 TIP3     19233    TIP3     H1       HT       0.417000       1.00800           0
     67615 TIP3     19233    TIP3     H2       HT       0.417000       1.00800           0
     67616 TIP3     19234    TIP3     OH2      OT      -0.834000       15.9994           0
     67617 TIP3     19234    TIP3     H1       HT       0.417000       1.00800           0
     67618 TIP3     19234    TIP3     H2       HT       0.417000       1.00800           0
     67619 TIP3     19235    TIP3     OH2      OT      -0.834000       15.9994           0
     67620 TIP3     19235    TIP3     H1       HT       0.417000       1.00800           0
     67621 TIP3     19235    TIP3     H2       HT       0.417000       1.00800           0
     67622 TIP3     19236    TIP3     OH2      OT      -0.834000       15.9994           0
     67623 TIP3     19236    TIP3     H1       HT       0.417000       1.00800           0
     67624 TIP3     19236    TIP3     H2       HT       0.417000       1.00800           0
     67625 TIP3     19237    TIP3     OH2      OT      -0.834000       15.9994           0
     67626 TIP3     19237    TIP3     H1       HT       0.417000       1.00800           0
     67627 TIP3     19237    TIP3     H2       HT       0.417000       1.00800           0
     67628 TIP3     19238    TIP3     OH2      OT      -0.834000       15.9994           0
     67629 TIP3     19238    TIP3     H1       HT       0.417000       1.00800           0
     67630 TIP3     19238    TIP3     H2       HT       0.417000       1.00800           0
     67631 TIP3     19239    TIP3     OH2      OT      -0.834000       15.9994           0
     67632 TIP3     19239    TIP3     H1       HT       0.417000       1.00800           0
     67633 TIP3     19239    TIP3     H2       HT       0.417000       1.00800           0
     67634 TIP3     19240    TIP3     OH2      OT      -0.834000       15.9994           0
     67635 TIP3     19240    TIP3     H1       HT       0.417000       1.00800           0
     67636 TIP3     19240    TIP3     H2       HT       0.417000       1.00800           0
     67637 TIP3     19241    TIP3     OH2      OT      -0.834000       15.9994           0
     67638 TIP3     19241    TIP3     H1       HT       0.417000       1.00800           0
     67639 TIP3     19241    TIP3     H2       HT       0.417000       1.00800           0
     67640 TIP3     19242    TIP3     OH2      OT      -0.834000       15.9994           0
     67641 TIP3     19242    TIP3     H1       HT       0.417000       1.00800           0
     67642 TIP3     19242    TIP3     H2       HT       0.417000       1.00800           0
     67643 TIP3     19243    TIP3     OH2      OT      -0.834000       15.9994           0
     67644 TIP3     19243    TIP3     H1       HT       0.417000       1.00800           0
     67645 TIP3     19243    TIP3     H2       HT       0.417000       1.00800           0
     67646 TIP3     19244    TIP3     OH2      OT      -0.834000       15.9994           0
     67647 TIP3     19244    TIP3     H1       HT       0.417000       1.00800           0
     67648 TIP3     19244    TIP3     H2       HT       0.417000       1.00800           0
     67649 TIP3     19245    TIP3     OH2      OT      -0.834000       15.9994           0
     67650 TIP3     19245    TIP3     H1       HT       0.417000       1.00800           0
     67651 TIP3     19245    TIP3     H2       HT       0.417000       1.00800           0
     67652 TIP3     19246    TIP3     OH2      OT      -0.834000       15.9994           0
     67653 TIP3     19246    TIP3     H1       HT       0.417000       1.00800           0
     67654 TIP3     19246    TIP3     H2       HT       0.417000       1.00800           0
     67655 TIP3     19247    TIP3     OH2      OT      -0.834000       15.9994           0
     67656 TIP3     19247    TIP3     H1       HT       0.417000       1.00800           0
     67657 TIP3     19247    TIP3     H2       HT       0.417000       1.00800           0
     67658 TIP3     19248    TIP3     OH2      OT      -0.834000       15.9994           0
     67659 TIP3     19248    TIP3     H1       HT       0.417000       1.00800           0
     67660 TIP3     19248    TIP3     H2       HT       0.417000       1.00800           0
     67661 TIP3     19249    TIP3     OH2      OT      -0.834000       15.9994           0
     67662 TIP3     19249    TIP3     H1       HT       0.417000       1.00800           0
     67663 TIP3     19249    TIP3     H2       HT       0.417000       1.00800           0
     67664 TIP3     19250    TIP3     OH2      OT      -0.834000       15.9994           0
     67665 TIP3     19250    TIP3     H1       HT       0.417000       1.00800           0
     67666 TIP3     19250    TIP3     H2       HT       0.417000       1.00800           0
     67667 TIP3     19251    TIP3     OH2      OT      -0.834000       15.9994           0
     67668 TIP3     19251    TIP3     H1       HT       0.417000       1.00800           0
     67669 TIP3     19251    TIP3     H2       HT       0.417000       1.00800           0
     67670 TIP3     19252    TIP3     OH2      OT      -0.834000       15.9994           0
     67671 TIP3     19252    TIP3     H1       HT       0.417000       1.00800           0
     67672 TIP3     19252    TIP3     H2       HT       0.417000       1.00800           0
     67673 TIP3     19253    TIP3     OH2      OT      -0.834000       15.9994           0
     67674 TIP3     19253    TIP3     H1       HT       0.417000       1.00800           0
     67675 TIP3     19253    TIP3     H2       HT       0.417000       1.00800           0
     67676 TIP3     19254    TIP3     OH2      OT      -0.834000       15.9994           0
     67677 TIP3     19254    TIP3     H1       HT       0.417000       1.00800           0
     67678 TIP3     19254    TIP3     H2       HT       0.417000       1.00800           0
     67679 TIP3     19255    TIP3     OH2      OT      -0.834000       15.9994           0
     67680 TIP3     19255    TIP3     H1       HT       0.417000       1.00800           0
     67681 TIP3     19255    TIP3     H2       HT       0.417000       1.00800           0
     67682 TIP3     19256    TIP3     OH2      OT      -0.834000       15.9994           0
     67683 TIP3     19256    TIP3     H1       HT       0.417000       1.00800           0
     67684 TIP3     19256    TIP3     H2       HT       0.417000       1.00800           0
     67685 TIP3     19257    TIP3     OH2      OT      -0.834000       15.9994           0
     67686 TIP3     19257    TIP3     H1       HT       0.417000       1.00800           0
     67687 TIP3     19257    TIP3     H2       HT       0.417000       1.00800           0
     67688 TIP3     19258    TIP3     OH2      OT      -0.834000       15.9994           0
     67689 TIP3     19258    TIP3     H1       HT       0.417000       1.00800           0
     67690 TIP3     19258    TIP3     H2       HT       0.417000       1.00800           0
     67691 TIP3     19259    TIP3     OH2      OT      -0.834000       15.9994           0
     67692 TIP3     19259    TIP3     H1       HT       0.417000       1.00800           0
     67693 TIP3     19259    TIP3     H2       HT       0.417000       1.00800           0
     67694 TIP3     19260    TIP3     OH2      OT      -0.834000       15.9994           0
     67695 TIP3     19260    TIP3     H1       HT       0.417000       1.00800           0
     67696 TIP3     19260    TIP3     H2       HT       0.417000       1.00800           0
     67697 TIP3     19261    TIP3     OH2      OT      -0.834000       15.9994           0
     67698 TIP3     19261    TIP3     H1       HT       0.417000       1.00800           0
     67699 TIP3     19261    TIP3     H2       HT       0.417000       1.00800           0
     67700 TIP3     19262    TIP3     OH2      OT      -0.834000       15.9994           0
     67701 TIP3     19262    TIP3     H1       HT       0.417000       1.00800           0
     67702 TIP3     19262    TIP3     H2       HT       0.417000       1.00800           0
     67703 TIP3     19263    TIP3     OH2      OT      -0.834000       15.9994           0
     67704 TIP3     19263    TIP3     H1       HT       0.417000       1.00800           0
     67705 TIP3     19263    TIP3     H2       HT       0.417000       1.00800           0
     67706 TIP3     19264    TIP3     OH2      OT      -0.834000       15.9994           0
     67707 TIP3     19264    TIP3     H1       HT       0.417000       1.00800           0
     67708 TIP3     19264    TIP3     H2       HT       0.417000       1.00800           0
     67709 TIP3     19265    TIP3     OH2      OT      -0.834000       15.9994           0
     67710 TIP3     19265    TIP3     H1       HT       0.417000       1.00800           0
     67711 TIP3     19265    TIP3     H2       HT       0.417000       1.00800           0
     67712 TIP3     19266    TIP3     OH2      OT      -0.834000       15.9994           0
     67713 TIP3     19266    TIP3     H1       HT       0.417000       1.00800           0
     67714 TIP3     19266    TIP3     H2       HT       0.417000       1.00800           0
     67715 TIP3     19267    TIP3     OH2      OT      -0.834000       15.9994           0
     67716 TIP3     19267    TIP3     H1       HT       0.417000       1.00800           0
     67717 TIP3     19267    TIP3     H2       HT       0.417000       1.00800           0
     67718 TIP3     19268    TIP3     OH2      OT      -0.834000       15.9994           0
     67719 TIP3     19268    TIP3     H1       HT       0.417000       1.00800           0
     67720 TIP3     19268    TIP3     H2       HT       0.417000       1.00800           0
     67721 TIP3     19269    TIP3     OH2      OT      -0.834000       15.9994           0
     67722 TIP3     19269    TIP3     H1       HT       0.417000       1.00800           0
     67723 TIP3     19269    TIP3     H2       HT       0.417000       1.00800           0
     67724 TIP3     19270    TIP3     OH2      OT      -0.834000       15.9994           0
     67725 TIP3     19270    TIP3     H1       HT       0.417000       1.00800           0
     67726 TIP3     19270    TIP3     H2       HT       0.417000       1.00800           0
     67727 TIP3     19271    TIP3     OH2      OT      -0.834000       15.9994           0
     67728 TIP3     19271    TIP3     H1       HT       0.417000       1.00800           0
     67729 TIP3     19271    TIP3     H2       HT       0.417000       1.00800           0
     67730 TIP3     19272    TIP3     OH2      OT      -0.834000       15.9994           0
     67731 TIP3     19272    TIP3     H1       HT       0.417000       1.00800           0
     67732 TIP3     19272    TIP3     H2       HT       0.417000       1.00800           0
     67733 TIP3     19273    TIP3     OH2      OT      -0.834000       15.9994           0
     67734 TIP3     19273    TIP3     H1       HT       0.417000       1.00800           0
     67735 TIP3     19273    TIP3     H2       HT       0.417000       1.00800           0
     67736 TIP3     19274    TIP3     OH2      OT      -0.834000       15.9994           0
     67737 TIP3     19274    TIP3     H1       HT       0.417000       1.00800           0
     67738 TIP3     19274    TIP3     H2       HT       0.417000       1.00800           0
     67739 TIP3     19275    TIP3     OH2      OT      -0.834000       15.9994           0
     67740 TIP3     19275    TIP3     H1       HT       0.417000       1.00800           0
     67741 TIP3     19275    TIP3     H2       HT       0.417000       1.00800           0
     67742 TIP3     19276    TIP3     OH2      OT      -0.834000       15.9994           0
     67743 TIP3     19276    TIP3     H1       HT       0.417000       1.00800           0
     67744 TIP3     19276    TIP3     H2       HT       0.417000       1.00800           0
     67745 TIP3     19277    TIP3     OH2      OT      -0.834000       15.9994           0
     67746 TIP3     19277    TIP3     H1       HT       0.417000       1.00800           0
     67747 TIP3     19277    TIP3     H2       HT       0.417000       1.00800           0
     67748 TIP3     19278    TIP3     OH2      OT      -0.834000       15.9994           0
     67749 TIP3     19278    TIP3     H1       HT       0.417000       1.00800           0
     67750 TIP3     19278    TIP3     H2       HT       0.417000       1.00800           0
     67751 TIP3     19279    TIP3     OH2      OT      -0.834000       15.9994           0
     67752 TIP3     19279    TIP3     H1       HT       0.417000       1.00800           0
     67753 TIP3     19279    TIP3     H2       HT       0.417000       1.00800           0
     67754 TIP3     19280    TIP3     OH2      OT      -0.834000       15.9994           0
     67755 TIP3     19280    TIP3     H1       HT       0.417000       1.00800           0
     67756 TIP3     19280    TIP3     H2       HT       0.417000       1.00800           0
     67757 TIP3     19281    TIP3     OH2      OT      -0.834000       15.9994           0
     67758 TIP3     19281    TIP3     H1       HT       0.417000       1.00800           0
     67759 TIP3     19281    TIP3     H2       HT       0.417000       1.00800           0
     67760 TIP3     19282    TIP3     OH2      OT      -0.834000       15.9994           0
     67761 TIP3     19282    TIP3     H1       HT       0.417000       1.00800           0
     67762 TIP3     19282    TIP3     H2       HT       0.417000       1.00800           0
     67763 TIP3     19283    TIP3     OH2      OT      -0.834000       15.9994           0
     67764 TIP3     19283    TIP3     H1       HT       0.417000       1.00800           0
     67765 TIP3     19283    TIP3     H2       HT       0.417000       1.00800           0
     67766 TIP3     19284    TIP3     OH2      OT      -0.834000       15.9994           0
     67767 TIP3     19284    TIP3     H1       HT       0.417000       1.00800           0
     67768 TIP3     19284    TIP3     H2       HT       0.417000       1.00800           0
     67769 TIP3     19285    TIP3     OH2      OT      -0.834000       15.9994           0
     67770 TIP3     19285    TIP3     H1       HT       0.417000       1.00800           0
     67771 TIP3     19285    TIP3     H2       HT       0.417000       1.00800           0
     67772 TIP3     19286    TIP3     OH2      OT      -0.834000       15.9994           0
     67773 TIP3     19286    TIP3     H1       HT       0.417000       1.00800           0
     67774 TIP3     19286    TIP3     H2       HT       0.417000       1.00800           0
     67775 TIP3     19287    TIP3     OH2      OT      -0.834000       15.9994           0
     67776 TIP3     19287    TIP3     H1       HT       0.417000       1.00800           0
     67777 TIP3     19287    TIP3     H2       HT       0.417000       1.00800           0
     67778 TIP3     19288    TIP3     OH2      OT      -0.834000       15.9994           0
     67779 TIP3     19288    TIP3     H1       HT       0.417000       1.00800           0
     67780 TIP3     19288    TIP3     H2       HT       0.417000       1.00800           0
     67781 TIP3     19289    TIP3     OH2      OT      -0.834000       15.9994           0
     67782 TIP3     19289    TIP3     H1       HT       0.417000       1.00800           0
     67783 TIP3     19289    TIP3     H2       HT       0.417000       1.00800           0
     67784 TIP3     19290    TIP3     OH2      OT      -0.834000       15.9994           0
     67785 TIP3     19290    TIP3     H1       HT       0.417000       1.00800           0
     67786 TIP3     19290    TIP3     H2       HT       0.417000       1.00800           0
     67787 TIP3     19291    TIP3     OH2      OT      -0.834000       15.9994           0
     67788 TIP3     19291    TIP3     H1       HT       0.417000       1.00800           0
     67789 TIP3     19291    TIP3     H2       HT       0.417000       1.00800           0
     67790 TIP3     19292    TIP3     OH2      OT      -0.834000       15.9994           0
     67791 TIP3     19292    TIP3     H1       HT       0.417000       1.00800           0
     67792 TIP3     19292    TIP3     H2       HT       0.417000       1.00800           0
     67793 TIP3     19293    TIP3     OH2      OT      -0.834000       15.9994           0
     67794 TIP3     19293    TIP3     H1       HT       0.417000       1.00800           0
     67795 TIP3     19293    TIP3     H2       HT       0.417000       1.00800           0
     67796 TIP3     19294    TIP3     OH2      OT      -0.834000       15.9994           0
     67797 TIP3     19294    TIP3     H1       HT       0.417000       1.00800           0
     67798 TIP3     19294    TIP3     H2       HT       0.417000       1.00800           0
     67799 TIP3     19295    TIP3     OH2      OT      -0.834000       15.9994           0
     67800 TIP3     19295    TIP3     H1       HT       0.417000       1.00800           0
     67801 TIP3     19295    TIP3     H2       HT       0.417000       1.00800           0
     67802 TIP3     19296    TIP3     OH2      OT      -0.834000       15.9994           0
     67803 TIP3     19296    TIP3     H1       HT       0.417000       1.00800           0
     67804 TIP3     19296    TIP3     H2       HT       0.417000       1.00800           0
     67805 TIP3     19297    TIP3     OH2      OT      -0.834000       15.9994           0
     67806 TIP3     19297    TIP3     H1       HT       0.417000       1.00800           0
     67807 TIP3     19297    TIP3     H2       HT       0.417000       1.00800           0
     67808 TIP3     19298    TIP3     OH2      OT      -0.834000       15.9994           0
     67809 TIP3     19298    TIP3     H1       HT       0.417000       1.00800           0
     67810 TIP3     19298    TIP3     H2       HT       0.417000       1.00800           0
     67811 TIP3     19299    TIP3     OH2      OT      -0.834000       15.9994           0
     67812 TIP3     19299    TIP3     H1       HT       0.417000       1.00800           0
     67813 TIP3     19299    TIP3     H2       HT       0.417000       1.00800           0
     67814 TIP3     19300    TIP3     OH2      OT      -0.834000       15.9994           0
     67815 TIP3     19300    TIP3     H1       HT       0.417000       1.00800           0
     67816 TIP3     19300    TIP3     H2       HT       0.417000       1.00800           0
     67817 TIP3     19301    TIP3     OH2      OT      -0.834000       15.9994           0
     67818 TIP3     19301    TIP3     H1       HT       0.417000       1.00800           0
     67819 TIP3     19301    TIP3     H2       HT       0.417000       1.00800           0
     67820 TIP3     19302    TIP3     OH2      OT      -0.834000       15.9994           0
     67821 TIP3     19302    TIP3     H1       HT       0.417000       1.00800           0
     67822 TIP3     19302    TIP3     H2       HT       0.417000       1.00800           0
     67823 TIP3     19303    TIP3     OH2      OT      -0.834000       15.9994           0
     67824 TIP3     19303    TIP3     H1       HT       0.417000       1.00800           0
     67825 TIP3     19303    TIP3     H2       HT       0.417000       1.00800           0
     67826 TIP3     19304    TIP3     OH2      OT      -0.834000       15.9994           0
     67827 TIP3     19304    TIP3     H1       HT       0.417000       1.00800           0
     67828 TIP3     19304    TIP3     H2       HT       0.417000       1.00800           0
     67829 TIP3     19305    TIP3     OH2      OT      -0.834000       15.9994           0
     67830 TIP3     19305    TIP3     H1       HT       0.417000       1.00800           0
     67831 TIP3     19305    TIP3     H2       HT       0.417000       1.00800           0
     67832 TIP3     19306    TIP3     OH2      OT      -0.834000       15.9994           0
     67833 TIP3     19306    TIP3     H1       HT       0.417000       1.00800           0
     67834 TIP3     19306    TIP3     H2       HT       0.417000       1.00800           0
     67835 TIP3     19307    TIP3     OH2      OT      -0.834000       15.9994           0
     67836 TIP3     19307    TIP3     H1       HT       0.417000       1.00800           0
     67837 TIP3     19307    TIP3     H2       HT       0.417000       1.00800           0
     67838 TIP3     19308    TIP3     OH2      OT      -0.834000       15.9994           0
     67839 TIP3     19308    TIP3     H1       HT       0.417000       1.00800           0
     67840 TIP3     19308    TIP3     H2       HT       0.417000       1.00800           0
     67841 TIP3     19309    TIP3     OH2      OT      -0.834000       15.9994           0
     67842 TIP3     19309    TIP3     H1       HT       0.417000       1.00800           0
     67843 TIP3     19309    TIP3     H2       HT       0.417000       1.00800           0
     67844 TIP3     19310    TIP3     OH2      OT      -0.834000       15.9994           0
     67845 TIP3     19310    TIP3     H1       HT       0.417000       1.00800           0
     67846 TIP3     19310    TIP3     H2       HT       0.417000       1.00800           0
     67847 TIP3     19311    TIP3     OH2      OT      -0.834000       15.9994           0
     67848 TIP3     19311    TIP3     H1       HT       0.417000       1.00800           0
     67849 TIP3     19311    TIP3     H2       HT       0.417000       1.00800           0
     67850 TIP3     19312    TIP3     OH2      OT      -0.834000       15.9994           0
     67851 TIP3     19312    TIP3     H1       HT       0.417000       1.00800           0
     67852 TIP3     19312    TIP3     H2       HT       0.417000       1.00800           0
     67853 TIP3     19313    TIP3     OH2      OT      -0.834000       15.9994           0
     67854 TIP3     19313    TIP3     H1       HT       0.417000       1.00800           0
     67855 TIP3     19313    TIP3     H2       HT       0.417000       1.00800           0
     67856 TIP3     19314    TIP3     OH2      OT      -0.834000       15.9994           0
     67857 TIP3     19314    TIP3     H1       HT       0.417000       1.00800           0
     67858 TIP3     19314    TIP3     H2       HT       0.417000       1.00800           0
     67859 TIP3     19315    TIP3     OH2      OT      -0.834000       15.9994           0
     67860 TIP3     19315    TIP3     H1       HT       0.417000       1.00800           0
     67861 TIP3     19315    TIP3     H2       HT       0.417000       1.00800           0
     67862 TIP3     19316    TIP3     OH2      OT      -0.834000       15.9994           0
     67863 TIP3     19316    TIP3     H1       HT       0.417000       1.00800           0
     67864 TIP3     19316    TIP3     H2       HT       0.417000       1.00800           0
     67865 TIP3     19317    TIP3     OH2      OT      -0.834000       15.9994           0
     67866 TIP3     19317    TIP3     H1       HT       0.417000       1.00800           0
     67867 TIP3     19317    TIP3     H2       HT       0.417000       1.00800           0
     67868 TIP3     19318    TIP3     OH2      OT      -0.834000       15.9994           0
     67869 TIP3     19318    TIP3     H1       HT       0.417000       1.00800           0
     67870 TIP3     19318    TIP3     H2       HT       0.417000       1.00800           0
     67871 TIP3     19319    TIP3     OH2      OT      -0.834000       15.9994           0
     67872 TIP3     19319    TIP3     H1       HT       0.417000       1.00800           0
     67873 TIP3     19319    TIP3     H2       HT       0.417000       1.00800           0
     67874 TIP3     19320    TIP3     OH2      OT      -0.834000       15.9994           0
     67875 TIP3     19320    TIP3     H1       HT       0.417000       1.00800           0
     67876 TIP3     19320    TIP3     H2       HT       0.417000       1.00800           0
     67877 TIP3     19321    TIP3     OH2      OT      -0.834000       15.9994           0
     67878 TIP3     19321    TIP3     H1       HT       0.417000       1.00800           0
     67879 TIP3     19321    TIP3     H2       HT       0.417000       1.00800           0
     67880 TIP3     19322    TIP3     OH2      OT      -0.834000       15.9994           0
     67881 TIP3     19322    TIP3     H1       HT       0.417000       1.00800           0
     67882 TIP3     19322    TIP3     H2       HT       0.417000       1.00800           0
     67883 TIP3     19323    TIP3     OH2      OT      -0.834000       15.9994           0
     67884 TIP3     19323    TIP3     H1       HT       0.417000       1.00800           0
     67885 TIP3     19323    TIP3     H2       HT       0.417000       1.00800           0
     67886 TIP3     19324    TIP3     OH2      OT      -0.834000       15.9994           0
     67887 TIP3     19324    TIP3     H1       HT       0.417000       1.00800           0
     67888 TIP3     19324    TIP3     H2       HT       0.417000       1.00800           0
     67889 TIP3     19325    TIP3     OH2      OT      -0.834000       15.9994           0
     67890 TIP3     19325    TIP3     H1       HT       0.417000       1.00800           0
     67891 TIP3     19325    TIP3     H2       HT       0.417000       1.00800           0
     67892 TIP3     19326    TIP3     OH2      OT      -0.834000       15.9994           0
     67893 TIP3     19326    TIP3     H1       HT       0.417000       1.00800           0
     67894 TIP3     19326    TIP3     H2       HT       0.417000       1.00800           0
     67895 TIP3     19327    TIP3     OH2      OT      -0.834000       15.9994           0
     67896 TIP3     19327    TIP3     H1       HT       0.417000       1.00800           0
     67897 TIP3     19327    TIP3     H2       HT       0.417000       1.00800           0
     67898 TIP3     19328    TIP3     OH2      OT      -0.834000       15.9994           0
     67899 TIP3     19328    TIP3     H1       HT       0.417000       1.00800           0
     67900 TIP3     19328    TIP3     H2       HT       0.417000       1.00800           0
     67901 TIP3     19329    TIP3     OH2      OT      -0.834000       15.9994           0
     67902 TIP3     19329    TIP3     H1       HT       0.417000       1.00800           0
     67903 TIP3     19329    TIP3     H2       HT       0.417000       1.00800           0
     67904 TIP3     19330    TIP3     OH2      OT      -0.834000       15.9994           0
     67905 TIP3     19330    TIP3     H1       HT       0.417000       1.00800           0
     67906 TIP3     19330    TIP3     H2       HT       0.417000       1.00800           0
     67907 TIP3     19331    TIP3     OH2      OT      -0.834000       15.9994           0
     67908 TIP3     19331    TIP3     H1       HT       0.417000       1.00800           0
     67909 TIP3     19331    TIP3     H2       HT       0.417000       1.00800           0
     67910 TIP3     19332    TIP3     OH2      OT      -0.834000       15.9994           0
     67911 TIP3     19332    TIP3     H1       HT       0.417000       1.00800           0
     67912 TIP3     19332    TIP3     H2       HT       0.417000       1.00800           0
     67913 TIP3     19333    TIP3     OH2      OT      -0.834000       15.9994           0
     67914 TIP3     19333    TIP3     H1       HT       0.417000       1.00800           0
     67915 TIP3     19333    TIP3     H2       HT       0.417000       1.00800           0
     67916 TIP3     19334    TIP3     OH2      OT      -0.834000       15.9994           0
     67917 TIP3     19334    TIP3     H1       HT       0.417000       1.00800           0
     67918 TIP3     19334    TIP3     H2       HT       0.417000       1.00800           0
     67919 TIP3     19335    TIP3     OH2      OT      -0.834000       15.9994           0
     67920 TIP3     19335    TIP3     H1       HT       0.417000       1.00800           0
     67921 TIP3     19335    TIP3     H2       HT       0.417000       1.00800           0
     67922 TIP3     19336    TIP3     OH2      OT      -0.834000       15.9994           0
     67923 TIP3     19336    TIP3     H1       HT       0.417000       1.00800           0
     67924 TIP3     19336    TIP3     H2       HT       0.417000       1.00800           0
     67925 TIP3     19337    TIP3     OH2      OT      -0.834000       15.9994           0
     67926 TIP3     19337    TIP3     H1       HT       0.417000       1.00800           0
     67927 TIP3     19337    TIP3     H2       HT       0.417000       1.00800           0
     67928 TIP3     19338    TIP3     OH2      OT      -0.834000       15.9994           0
     67929 TIP3     19338    TIP3     H1       HT       0.417000       1.00800           0
     67930 TIP3     19338    TIP3     H2       HT       0.417000       1.00800           0
     67931 TIP3     19339    TIP3     OH2      OT      -0.834000       15.9994           0
     67932 TIP3     19339    TIP3     H1       HT       0.417000       1.00800           0
     67933 TIP3     19339    TIP3     H2       HT       0.417000       1.00800           0
     67934 TIP3     19340    TIP3     OH2      OT      -0.834000       15.9994           0
     67935 TIP3     19340    TIP3     H1       HT       0.417000       1.00800           0
     67936 TIP3     19340    TIP3     H2       HT       0.417000       1.00800           0
     67937 TIP3     19341    TIP3     OH2      OT      -0.834000       15.9994           0
     67938 TIP3     19341    TIP3     H1       HT       0.417000       1.00800           0
     67939 TIP3     19341    TIP3     H2       HT       0.417000       1.00800           0
     67940 TIP3     19342    TIP3     OH2      OT      -0.834000       15.9994           0
     67941 TIP3     19342    TIP3     H1       HT       0.417000       1.00800           0
     67942 TIP3     19342    TIP3     H2       HT       0.417000       1.00800           0
     67943 TIP3     19343    TIP3     OH2      OT      -0.834000       15.9994           0
     67944 TIP3     19343    TIP3     H1       HT       0.417000       1.00800           0
     67945 TIP3     19343    TIP3     H2       HT       0.417000       1.00800           0
     67946 TIP3     19344    TIP3     OH2      OT      -0.834000       15.9994           0
     67947 TIP3     19344    TIP3     H1       HT       0.417000       1.00800           0
     67948 TIP3     19344    TIP3     H2       HT       0.417000       1.00800           0
     67949 TIP3     19345    TIP3     OH2      OT      -0.834000       15.9994           0
     67950 TIP3     19345    TIP3     H1       HT       0.417000       1.00800           0
     67951 TIP3     19345    TIP3     H2       HT       0.417000       1.00800           0
     67952 TIP3     19346    TIP3     OH2      OT      -0.834000       15.9994           0
     67953 TIP3     19346    TIP3     H1       HT       0.417000       1.00800           0
     67954 TIP3     19346    TIP3     H2       HT       0.417000       1.00800           0
     67955 TIP3     19347    TIP3     OH2      OT      -0.834000       15.9994           0
     67956 TIP3     19347    TIP3     H1       HT       0.417000       1.00800           0
     67957 TIP3     19347    TIP3     H2       HT       0.417000       1.00800           0
     67958 TIP3     19348    TIP3     OH2      OT      -0.834000       15.9994           0
     67959 TIP3     19348    TIP3     H1       HT       0.417000       1.00800           0
     67960 TIP3     19348    TIP3     H2       HT       0.417000       1.00800           0
     67961 TIP3     19349    TIP3     OH2      OT      -0.834000       15.9994           0
     67962 TIP3     19349    TIP3     H1       HT       0.417000       1.00800           0
     67963 TIP3     19349    TIP3     H2       HT       0.417000       1.00800           0
     67964 TIP3     19350    TIP3     OH2      OT      -0.834000       15.9994           0
     67965 TIP3     19350    TIP3     H1       HT       0.417000       1.00800           0
     67966 TIP3     19350    TIP3     H2       HT       0.417000       1.00800           0
     67967 TIP3     19351    TIP3     OH2      OT      -0.834000       15.9994           0
     67968 TIP3     19351    TIP3     H1       HT       0.417000       1.00800           0
     67969 TIP3     19351    TIP3     H2       HT       0.417000       1.00800           0
     67970 TIP3     19352    TIP3     OH2      OT      -0.834000       15.9994           0
     67971 TIP3     19352    TIP3     H1       HT       0.417000       1.00800           0
     67972 TIP3     19352    TIP3     H2       HT       0.417000       1.00800           0
     67973 TIP3     19353    TIP3     OH2      OT      -0.834000       15.9994           0
     67974 TIP3     19353    TIP3     H1       HT       0.417000       1.00800           0
     67975 TIP3     19353    TIP3     H2       HT       0.417000       1.00800           0
     67976 TIP3     19354    TIP3     OH2      OT      -0.834000       15.9994           0
     67977 TIP3     19354    TIP3     H1       HT       0.417000       1.00800           0
     67978 TIP3     19354    TIP3     H2       HT       0.417000       1.00800           0
     67979 TIP3     19355    TIP3     OH2      OT      -0.834000       15.9994           0
     67980 TIP3     19355    TIP3     H1       HT       0.417000       1.00800           0
     67981 TIP3     19355    TIP3     H2       HT       0.417000       1.00800           0
     67982 TIP3     19356    TIP3     OH2      OT      -0.834000       15.9994           0
     67983 TIP3     19356    TIP3     H1       HT       0.417000       1.00800           0
     67984 TIP3     19356    TIP3     H2       HT       0.417000       1.00800           0
     67985 TIP3     19357    TIP3     OH2      OT      -0.834000       15.9994           0
     67986 TIP3     19357    TIP3     H1       HT       0.417000       1.00800           0
     67987 TIP3     19357    TIP3     H2       HT       0.417000       1.00800           0
     67988 TIP3     19358    TIP3     OH2      OT      -0.834000       15.9994           0
     67989 TIP3     19358    TIP3     H1       HT       0.417000       1.00800           0
     67990 TIP3     19358    TIP3     H2       HT       0.417000       1.00800           0
     67991 TIP3     19359    TIP3     OH2      OT      -0.834000       15.9994           0
     67992 TIP3     19359    TIP3     H1       HT       0.417000       1.00800           0
     67993 TIP3     19359    TIP3     H2       HT       0.417000       1.00800           0
     67994 TIP3     19360    TIP3     OH2      OT      -0.834000       15.9994           0
     67995 TIP3     19360    TIP3     H1       HT       0.417000       1.00800           0
     67996 TIP3     19360    TIP3     H2       HT       0.417000       1.00800           0
     67997 TIP3     19361    TIP3     OH2      OT      -0.834000       15.9994           0
     67998 TIP3     19361    TIP3     H1       HT       0.417000       1.00800           0
     67999 TIP3     19361    TIP3     H2       HT       0.417000       1.00800           0
     68000 TIP3     19362    TIP3     OH2      OT      -0.834000       15.9994           0
     68001 TIP3     19362    TIP3     H1       HT       0.417000       1.00800           0
     68002 TIP3     19362    TIP3     H2       HT       0.417000       1.00800           0
     68003 TIP3     19363    TIP3     OH2      OT      -0.834000       15.9994           0
     68004 TIP3     19363    TIP3     H1       HT       0.417000       1.00800           0
     68005 TIP3     19363    TIP3     H2       HT       0.417000       1.00800           0
     68006 TIP3     19364    TIP3     OH2      OT      -0.834000       15.9994           0
     68007 TIP3     19364    TIP3     H1       HT       0.417000       1.00800           0
     68008 TIP3     19364    TIP3     H2       HT       0.417000       1.00800           0
     68009 TIP3     19365    TIP3     OH2      OT      -0.834000       15.9994           0
     68010 TIP3     19365    TIP3     H1       HT       0.417000       1.00800           0
     68011 TIP3     19365    TIP3     H2       HT       0.417000       1.00800           0
     68012 TIP3     19366    TIP3     OH2      OT      -0.834000       15.9994           0
     68013 TIP3     19366    TIP3     H1       HT       0.417000       1.00800           0
     68014 TIP3     19366    TIP3     H2       HT       0.417000       1.00800           0
     68015 TIP3     19367    TIP3     OH2      OT      -0.834000       15.9994           0
     68016 TIP3     19367    TIP3     H1       HT       0.417000       1.00800           0
     68017 TIP3     19367    TIP3     H2       HT       0.417000       1.00800           0
     68018 TIP3     19368    TIP3     OH2      OT      -0.834000       15.9994           0
     68019 TIP3     19368    TIP3     H1       HT       0.417000       1.00800           0
     68020 TIP3     19368    TIP3     H2       HT       0.417000       1.00800           0
     68021 TIP3     19369    TIP3     OH2      OT      -0.834000       15.9994           0
     68022 TIP3     19369    TIP3     H1       HT       0.417000       1.00800           0
     68023 TIP3     19369    TIP3     H2       HT       0.417000       1.00800           0
     68024 TIP3     19370    TIP3     OH2      OT      -0.834000       15.9994           0
     68025 TIP3     19370    TIP3     H1       HT       0.417000       1.00800           0
     68026 TIP3     19370    TIP3     H2       HT       0.417000       1.00800           0
     68027 TIP3     19371    TIP3     OH2      OT      -0.834000       15.9994           0
     68028 TIP3     19371    TIP3     H1       HT       0.417000       1.00800           0
     68029 TIP3     19371    TIP3     H2       HT       0.417000       1.00800           0
     68030 TIP3     19372    TIP3     OH2      OT      -0.834000       15.9994           0
     68031 TIP3     19372    TIP3     H1       HT       0.417000       1.00800           0
     68032 TIP3     19372    TIP3     H2       HT       0.417000       1.00800           0
     68033 TIP3     19373    TIP3     OH2      OT      -0.834000       15.9994           0
     68034 TIP3     19373    TIP3     H1       HT       0.417000       1.00800           0
     68035 TIP3     19373    TIP3     H2       HT       0.417000       1.00800           0
     68036 TIP3     19374    TIP3     OH2      OT      -0.834000       15.9994           0
     68037 TIP3     19374    TIP3     H1       HT       0.417000       1.00800           0
     68038 TIP3     19374    TIP3     H2       HT       0.417000       1.00800           0
     68039 TIP3     19375    TIP3     OH2      OT      -0.834000       15.9994           0
     68040 TIP3     19375    TIP3     H1       HT       0.417000       1.00800           0
     68041 TIP3     19375    TIP3     H2       HT       0.417000       1.00800           0
     68042 TIP3     19376    TIP3     OH2      OT      -0.834000       15.9994           0
     68043 TIP3     19376    TIP3     H1       HT       0.417000       1.00800           0
     68044 TIP3     19376    TIP3     H2       HT       0.417000       1.00800           0
     68045 TIP3     19377    TIP3     OH2      OT      -0.834000       15.9994           0
     68046 TIP3     19377    TIP3     H1       HT       0.417000       1.00800           0
     68047 TIP3     19377    TIP3     H2       HT       0.417000       1.00800           0
     68048 TIP3     19378    TIP3     OH2      OT      -0.834000       15.9994           0
     68049 TIP3     19378    TIP3     H1       HT       0.417000       1.00800           0
     68050 TIP3     19378    TIP3     H2       HT       0.417000       1.00800           0
     68051 TIP3     19379    TIP3     OH2      OT      -0.834000       15.9994           0
     68052 TIP3     19379    TIP3     H1       HT       0.417000       1.00800           0
     68053 TIP3     19379    TIP3     H2       HT       0.417000       1.00800           0
     68054 TIP3     19380    TIP3     OH2      OT      -0.834000       15.9994           0
     68055 TIP3     19380    TIP3     H1       HT       0.417000       1.00800           0
     68056 TIP3     19380    TIP3     H2       HT       0.417000       1.00800           0
     68057 TIP3     19381    TIP3     OH2      OT      -0.834000       15.9994           0
     68058 TIP3     19381    TIP3     H1       HT       0.417000       1.00800           0
     68059 TIP3     19381    TIP3     H2       HT       0.417000       1.00800           0
     68060 TIP3     19382    TIP3     OH2      OT      -0.834000       15.9994           0
     68061 TIP3     19382    TIP3     H1       HT       0.417000       1.00800           0
     68062 TIP3     19382    TIP3     H2       HT       0.417000       1.00800           0
     68063 TIP3     19383    TIP3     OH2      OT      -0.834000       15.9994           0
     68064 TIP3     19383    TIP3     H1       HT       0.417000       1.00800           0
     68065 TIP3     19383    TIP3     H2       HT       0.417000       1.00800           0
     68066 TIP3     19384    TIP3     OH2      OT      -0.834000       15.9994           0
     68067 TIP3     19384    TIP3     H1       HT       0.417000       1.00800           0
     68068 TIP3     19384    TIP3     H2       HT       0.417000       1.00800           0
     68069 TIP3     19385    TIP3     OH2      OT      -0.834000       15.9994           0
     68070 TIP3     19385    TIP3     H1       HT       0.417000       1.00800           0
     68071 TIP3     19385    TIP3     H2       HT       0.417000       1.00800           0
     68072 TIP3     19386    TIP3     OH2      OT      -0.834000       15.9994           0
     68073 TIP3     19386    TIP3     H1       HT       0.417000       1.00800           0
     68074 TIP3     19386    TIP3     H2       HT       0.417000       1.00800           0
     68075 TIP3     19387    TIP3     OH2      OT      -0.834000       15.9994           0
     68076 TIP3     19387    TIP3     H1       HT       0.417000       1.00800           0
     68077 TIP3     19387    TIP3     H2       HT       0.417000       1.00800           0
     68078 TIP3     19388    TIP3     OH2      OT      -0.834000       15.9994           0
     68079 TIP3     19388    TIP3     H1       HT       0.417000       1.00800           0
     68080 TIP3     19388    TIP3     H2       HT       0.417000       1.00800           0
     68081 TIP3     19389    TIP3     OH2      OT      -0.834000       15.9994           0
     68082 TIP3     19389    TIP3     H1       HT       0.417000       1.00800           0
     68083 TIP3     19389    TIP3     H2       HT       0.417000       1.00800           0
     68084 TIP3     19390    TIP3     OH2      OT      -0.834000       15.9994           0
     68085 TIP3     19390    TIP3     H1       HT       0.417000       1.00800           0
     68086 TIP3     19390    TIP3     H2       HT       0.417000       1.00800           0
     68087 TIP3     19391    TIP3     OH2      OT      -0.834000       15.9994           0
     68088 TIP3     19391    TIP3     H1       HT       0.417000       1.00800           0
     68089 TIP3     19391    TIP3     H2       HT       0.417000       1.00800           0
     68090 TIP3     19392    TIP3     OH2      OT      -0.834000       15.9994           0
     68091 TIP3     19392    TIP3     H1       HT       0.417000       1.00800           0
     68092 TIP3     19392    TIP3     H2       HT       0.417000       1.00800           0
     68093 TIP3     19393    TIP3     OH2      OT      -0.834000       15.9994           0
     68094 TIP3     19393    TIP3     H1       HT       0.417000       1.00800           0
     68095 TIP3     19393    TIP3     H2       HT       0.417000       1.00800           0
     68096 TIP3     19394    TIP3     OH2      OT      -0.834000       15.9994           0
     68097 TIP3     19394    TIP3     H1       HT       0.417000       1.00800           0
     68098 TIP3     19394    TIP3     H2       HT       0.417000       1.00800           0
     68099 TIP3     19395    TIP3     OH2      OT      -0.834000       15.9994           0
     68100 TIP3     19395    TIP3     H1       HT       0.417000       1.00800           0
     68101 TIP3     19395    TIP3     H2       HT       0.417000       1.00800           0
     68102 TIP3     19396    TIP3     OH2      OT      -0.834000       15.9994           0
     68103 TIP3     19396    TIP3     H1       HT       0.417000       1.00800           0
     68104 TIP3     19396    TIP3     H2       HT       0.417000       1.00800           0
     68105 TIP3     19397    TIP3     OH2      OT      -0.834000       15.9994           0
     68106 TIP3     19397    TIP3     H1       HT       0.417000       1.00800           0
     68107 TIP3     19397    TIP3     H2       HT       0.417000       1.00800           0
     68108 TIP3     19398    TIP3     OH2      OT      -0.834000       15.9994           0
     68109 TIP3     19398    TIP3     H1       HT       0.417000       1.00800           0
     68110 TIP3     19398    TIP3     H2       HT       0.417000       1.00800           0
     68111 TIP3     19399    TIP3     OH2      OT      -0.834000       15.9994           0
     68112 TIP3     19399    TIP3     H1       HT       0.417000       1.00800           0
     68113 TIP3     19399    TIP3     H2       HT       0.417000       1.00800           0
     68114 TIP3     19400    TIP3     OH2      OT      -0.834000       15.9994           0
     68115 TIP3     19400    TIP3     H1       HT       0.417000       1.00800           0
     68116 TIP3     19400    TIP3     H2       HT       0.417000       1.00800           0
     68117 TIP3     19401    TIP3     OH2      OT      -0.834000       15.9994           0
     68118 TIP3     19401    TIP3     H1       HT       0.417000       1.00800           0
     68119 TIP3     19401    TIP3     H2       HT       0.417000       1.00800           0
     68120 TIP3     19402    TIP3     OH2      OT      -0.834000       15.9994           0
     68121 TIP3     19402    TIP3     H1       HT       0.417000       1.00800           0
     68122 TIP3     19402    TIP3     H2       HT       0.417000       1.00800           0
     68123 TIP3     19403    TIP3     OH2      OT      -0.834000       15.9994           0
     68124 TIP3     19403    TIP3     H1       HT       0.417000       1.00800           0
     68125 TIP3     19403    TIP3     H2       HT       0.417000       1.00800           0
     68126 TIP3     19404    TIP3     OH2      OT      -0.834000       15.9994           0
     68127 TIP3     19404    TIP3     H1       HT       0.417000       1.00800           0
     68128 TIP3     19404    TIP3     H2       HT       0.417000       1.00800           0
     68129 TIP3     19405    TIP3     OH2      OT      -0.834000       15.9994           0
     68130 TIP3     19405    TIP3     H1       HT       0.417000       1.00800           0
     68131 TIP3     19405    TIP3     H2       HT       0.417000       1.00800           0
     68132 TIP3     19406    TIP3     OH2      OT      -0.834000       15.9994           0
     68133 TIP3     19406    TIP3     H1       HT       0.417000       1.00800           0
     68134 TIP3     19406    TIP3     H2       HT       0.417000       1.00800           0
     68135 TIP3     19407    TIP3     OH2      OT      -0.834000       15.9994           0
     68136 TIP3     19407    TIP3     H1       HT       0.417000       1.00800           0
     68137 TIP3     19407    TIP3     H2       HT       0.417000       1.00800           0
     68138 TIP3     19408    TIP3     OH2      OT      -0.834000       15.9994           0
     68139 TIP3     19408    TIP3     H1       HT       0.417000       1.00800           0
     68140 TIP3     19408    TIP3     H2       HT       0.417000       1.00800           0
     68141 TIP3     19409    TIP3     OH2      OT      -0.834000       15.9994           0
     68142 TIP3     19409    TIP3     H1       HT       0.417000       1.00800           0
     68143 TIP3     19409    TIP3     H2       HT       0.417000       1.00800           0
     68144 TIP3     19410    TIP3     OH2      OT      -0.834000       15.9994           0
     68145 TIP3     19410    TIP3     H1       HT       0.417000       1.00800           0
     68146 TIP3     19410    TIP3     H2       HT       0.417000       1.00800           0
     68147 TIP3     19411    TIP3     OH2      OT      -0.834000       15.9994           0
     68148 TIP3     19411    TIP3     H1       HT       0.417000       1.00800           0
     68149 TIP3     19411    TIP3     H2       HT       0.417000       1.00800           0
     68150 TIP3     19412    TIP3     OH2      OT      -0.834000       15.9994           0
     68151 TIP3     19412    TIP3     H1       HT       0.417000       1.00800           0
     68152 TIP3     19412    TIP3     H2       HT       0.417000       1.00800           0
     68153 TIP3     19413    TIP3     OH2      OT      -0.834000       15.9994           0
     68154 TIP3     19413    TIP3     H1       HT       0.417000       1.00800           0
     68155 TIP3     19413    TIP3     H2       HT       0.417000       1.00800           0
     68156 TIP3     19414    TIP3     OH2      OT      -0.834000       15.9994           0
     68157 TIP3     19414    TIP3     H1       HT       0.417000       1.00800           0
     68158 TIP3     19414    TIP3     H2       HT       0.417000       1.00800           0
     68159 TIP3     19415    TIP3     OH2      OT      -0.834000       15.9994           0
     68160 TIP3     19415    TIP3     H1       HT       0.417000       1.00800           0
     68161 TIP3     19415    TIP3     H2       HT       0.417000       1.00800           0
     68162 TIP3     19416    TIP3     OH2      OT      -0.834000       15.9994           0
     68163 TIP3     19416    TIP3     H1       HT       0.417000       1.00800           0
     68164 TIP3     19416    TIP3     H2       HT       0.417000       1.00800           0
     68165 TIP3     19417    TIP3     OH2      OT      -0.834000       15.9994           0
     68166 TIP3     19417    TIP3     H1       HT       0.417000       1.00800           0
     68167 TIP3     19417    TIP3     H2       HT       0.417000       1.00800           0
     68168 TIP3     19418    TIP3     OH2      OT      -0.834000       15.9994           0
     68169 TIP3     19418    TIP3     H1       HT       0.417000       1.00800           0
     68170 TIP3     19418    TIP3     H2       HT       0.417000       1.00800           0
     68171 TIP3     19419    TIP3     OH2      OT      -0.834000       15.9994           0
     68172 TIP3     19419    TIP3     H1       HT       0.417000       1.00800           0
     68173 TIP3     19419    TIP3     H2       HT       0.417000       1.00800           0
     68174 TIP3     19420    TIP3     OH2      OT      -0.834000       15.9994           0
     68175 TIP3     19420    TIP3     H1       HT       0.417000       1.00800           0
     68176 TIP3     19420    TIP3     H2       HT       0.417000       1.00800           0
     68177 TIP3     19421    TIP3     OH2      OT      -0.834000       15.9994           0
     68178 TIP3     19421    TIP3     H1       HT       0.417000       1.00800           0
     68179 TIP3     19421    TIP3     H2       HT       0.417000       1.00800           0
     68180 TIP3     19422    TIP3     OH2      OT      -0.834000       15.9994           0
     68181 TIP3     19422    TIP3     H1       HT       0.417000       1.00800           0
     68182 TIP3     19422    TIP3     H2       HT       0.417000       1.00800           0
     68183 TIP3     19423    TIP3     OH2      OT      -0.834000       15.9994           0
     68184 TIP3     19423    TIP3     H1       HT       0.417000       1.00800           0
     68185 TIP3     19423    TIP3     H2       HT       0.417000       1.00800           0
     68186 TIP3     19424    TIP3     OH2      OT      -0.834000       15.9994           0
     68187 TIP3     19424    TIP3     H1       HT       0.417000       1.00800           0
     68188 TIP3     19424    TIP3     H2       HT       0.417000       1.00800           0
     68189 TIP3     19425    TIP3     OH2      OT      -0.834000       15.9994           0
     68190 TIP3     19425    TIP3     H1       HT       0.417000       1.00800           0
     68191 TIP3     19425    TIP3     H2       HT       0.417000       1.00800           0
     68192 TIP3     19426    TIP3     OH2      OT      -0.834000       15.9994           0
     68193 TIP3     19426    TIP3     H1       HT       0.417000       1.00800           0
     68194 TIP3     19426    TIP3     H2       HT       0.417000       1.00800           0
     68195 TIP3     19427    TIP3     OH2      OT      -0.834000       15.9994           0
     68196 TIP3     19427    TIP3     H1       HT       0.417000       1.00800           0
     68197 TIP3     19427    TIP3     H2       HT       0.417000       1.00800           0
     68198 TIP3     19428    TIP3     OH2      OT      -0.834000       15.9994           0
     68199 TIP3     19428    TIP3     H1       HT       0.417000       1.00800           0
     68200 TIP3     19428    TIP3     H2       HT       0.417000       1.00800           0
     68201 TIP3     19429    TIP3     OH2      OT      -0.834000       15.9994           0
     68202 TIP3     19429    TIP3     H1       HT       0.417000       1.00800           0
     68203 TIP3     19429    TIP3     H2       HT       0.417000       1.00800           0
     68204 TIP3     19430    TIP3     OH2      OT      -0.834000       15.9994           0
     68205 TIP3     19430    TIP3     H1       HT       0.417000       1.00800           0
     68206 TIP3     19430    TIP3     H2       HT       0.417000       1.00800           0
     68207 TIP3     19431    TIP3     OH2      OT      -0.834000       15.9994           0
     68208 TIP3     19431    TIP3     H1       HT       0.417000       1.00800           0
     68209 TIP3     19431    TIP3     H2       HT       0.417000       1.00800           0
     68210 TIP3     19432    TIP3     OH2      OT      -0.834000       15.9994           0
     68211 TIP3     19432    TIP3     H1       HT       0.417000       1.00800           0
     68212 TIP3     19432    TIP3     H2       HT       0.417000       1.00800           0
     68213 TIP3     19433    TIP3     OH2      OT      -0.834000       15.9994           0
     68214 TIP3     19433    TIP3     H1       HT       0.417000       1.00800           0
     68215 TIP3     19433    TIP3     H2       HT       0.417000       1.00800           0
     68216 TIP3     19434    TIP3     OH2      OT      -0.834000       15.9994           0
     68217 TIP3     19434    TIP3     H1       HT       0.417000       1.00800           0
     68218 TIP3     19434    TIP3     H2       HT       0.417000       1.00800           0
     68219 TIP3     19435    TIP3     OH2      OT      -0.834000       15.9994           0
     68220 TIP3     19435    TIP3     H1       HT       0.417000       1.00800           0
     68221 TIP3     19435    TIP3     H2       HT       0.417000       1.00800           0
     68222 TIP3     19436    TIP3     OH2      OT      -0.834000       15.9994           0
     68223 TIP3     19436    TIP3     H1       HT       0.417000       1.00800           0
     68224 TIP3     19436    TIP3     H2       HT       0.417000       1.00800           0
     68225 TIP3     19437    TIP3     OH2      OT      -0.834000       15.9994           0
     68226 TIP3     19437    TIP3     H1       HT       0.417000       1.00800           0
     68227 TIP3     19437    TIP3     H2       HT       0.417000       1.00800           0
     68228 TIP3     19438    TIP3     OH2      OT      -0.834000       15.9994           0
     68229 TIP3     19438    TIP3     H1       HT       0.417000       1.00800           0
     68230 TIP3     19438    TIP3     H2       HT       0.417000       1.00800           0
     68231 TIP3     19439    TIP3     OH2      OT      -0.834000       15.9994           0
     68232 TIP3     19439    TIP3     H1       HT       0.417000       1.00800           0
     68233 TIP3     19439    TIP3     H2       HT       0.417000       1.00800           0
     68234 TIP3     19440    TIP3     OH2      OT      -0.834000       15.9994           0
     68235 TIP3     19440    TIP3     H1       HT       0.417000       1.00800           0
     68236 TIP3     19440    TIP3     H2       HT       0.417000       1.00800           0
     68237 TIP3     19441    TIP3     OH2      OT      -0.834000       15.9994           0
     68238 TIP3     19441    TIP3     H1       HT       0.417000       1.00800           0
     68239 TIP3     19441    TIP3     H2       HT       0.417000       1.00800           0
     68240 TIP3     19442    TIP3     OH2      OT      -0.834000       15.9994           0
     68241 TIP3     19442    TIP3     H1       HT       0.417000       1.00800           0
     68242 TIP3     19442    TIP3     H2       HT       0.417000       1.00800           0
     68243 TIP3     19443    TIP3     OH2      OT      -0.834000       15.9994           0
     68244 TIP3     19443    TIP3     H1       HT       0.417000       1.00800           0
     68245 TIP3     19443    TIP3     H2       HT       0.417000       1.00800           0
     68246 TIP3     19444    TIP3     OH2      OT      -0.834000       15.9994           0
     68247 TIP3     19444    TIP3     H1       HT       0.417000       1.00800           0
     68248 TIP3     19444    TIP3     H2       HT       0.417000       1.00800           0
     68249 TIP3     19445    TIP3     OH2      OT      -0.834000       15.9994           0
     68250 TIP3     19445    TIP3     H1       HT       0.417000       1.00800           0
     68251 TIP3     19445    TIP3     H2       HT       0.417000       1.00800           0
     68252 TIP3     19446    TIP3     OH2      OT      -0.834000       15.9994           0
     68253 TIP3     19446    TIP3     H1       HT       0.417000       1.00800           0
     68254 TIP3     19446    TIP3     H2       HT       0.417000       1.00800           0
     68255 TIP3     19447    TIP3     OH2      OT      -0.834000       15.9994           0
     68256 TIP3     19447    TIP3     H1       HT       0.417000       1.00800           0
     68257 TIP3     19447    TIP3     H2       HT       0.417000       1.00800           0
     68258 TIP3     19448    TIP3     OH2      OT      -0.834000       15.9994           0
     68259 TIP3     19448    TIP3     H1       HT       0.417000       1.00800           0
     68260 TIP3     19448    TIP3     H2       HT       0.417000       1.00800           0
     68261 TIP3     19449    TIP3     OH2      OT      -0.834000       15.9994           0
     68262 TIP3     19449    TIP3     H1       HT       0.417000       1.00800           0
     68263 TIP3     19449    TIP3     H2       HT       0.417000       1.00800           0
     68264 TIP3     19450    TIP3     OH2      OT      -0.834000       15.9994           0
     68265 TIP3     19450    TIP3     H1       HT       0.417000       1.00800           0
     68266 TIP3     19450    TIP3     H2       HT       0.417000       1.00800           0
     68267 TIP3     19451    TIP3     OH2      OT      -0.834000       15.9994           0
     68268 TIP3     19451    TIP3     H1       HT       0.417000       1.00800           0
     68269 TIP3     19451    TIP3     H2       HT       0.417000       1.00800           0
     68270 TIP3     19452    TIP3     OH2      OT      -0.834000       15.9994           0
     68271 TIP3     19452    TIP3     H1       HT       0.417000       1.00800           0
     68272 TIP3     19452    TIP3     H2       HT       0.417000       1.00800           0
     68273 TIP3     19453    TIP3     OH2      OT      -0.834000       15.9994           0
     68274 TIP3     19453    TIP3     H1       HT       0.417000       1.00800           0
     68275 TIP3     19453    TIP3     H2       HT       0.417000       1.00800           0
     68276 TIP3     19454    TIP3     OH2      OT      -0.834000       15.9994           0
     68277 TIP3     19454    TIP3     H1       HT       0.417000       1.00800           0
     68278 TIP3     19454    TIP3     H2       HT       0.417000       1.00800           0
     68279 TIP3     19455    TIP3     OH2      OT      -0.834000       15.9994           0
     68280 TIP3     19455    TIP3     H1       HT       0.417000       1.00800           0
     68281 TIP3     19455    TIP3     H2       HT       0.417000       1.00800           0
     68282 TIP3     19456    TIP3     OH2      OT      -0.834000       15.9994           0
     68283 TIP3     19456    TIP3     H1       HT       0.417000       1.00800           0
     68284 TIP3     19456    TIP3     H2       HT       0.417000       1.00800           0
     68285 TIP3     19457    TIP3     OH2      OT      -0.834000       15.9994           0
     68286 TIP3     19457    TIP3     H1       HT       0.417000       1.00800           0
     68287 TIP3     19457    TIP3     H2       HT       0.417000       1.00800           0
     68288 TIP3     19458    TIP3     OH2      OT      -0.834000       15.9994           0
     68289 TIP3     19458    TIP3     H1       HT       0.417000       1.00800           0
     68290 TIP3     19458    TIP3     H2       HT       0.417000       1.00800           0
     68291 TIP3     19459    TIP3     OH2      OT      -0.834000       15.9994           0
     68292 TIP3     19459    TIP3     H1       HT       0.417000       1.00800           0
     68293 TIP3     19459    TIP3     H2       HT       0.417000       1.00800           0
     68294 TIP3     19460    TIP3     OH2      OT      -0.834000       15.9994           0
     68295 TIP3     19460    TIP3     H1       HT       0.417000       1.00800           0
     68296 TIP3     19460    TIP3     H2       HT       0.417000       1.00800           0
     68297 TIP3     19461    TIP3     OH2      OT      -0.834000       15.9994           0
     68298 TIP3     19461    TIP3     H1       HT       0.417000       1.00800           0
     68299 TIP3     19461    TIP3     H2       HT       0.417000       1.00800           0
     68300 TIP3     19462    TIP3     OH2      OT      -0.834000       15.9994           0
     68301 TIP3     19462    TIP3     H1       HT       0.417000       1.00800           0
     68302 TIP3     19462    TIP3     H2       HT       0.417000       1.00800           0
     68303 TIP3     19463    TIP3     OH2      OT      -0.834000       15.9994           0
     68304 TIP3     19463    TIP3     H1       HT       0.417000       1.00800           0
     68305 TIP3     19463    TIP3     H2       HT       0.417000       1.00800           0
     68306 TIP3     19464    TIP3     OH2      OT      -0.834000       15.9994           0
     68307 TIP3     19464    TIP3     H1       HT       0.417000       1.00800           0
     68308 TIP3     19464    TIP3     H2       HT       0.417000       1.00800           0
     68309 TIP3     19465    TIP3     OH2      OT      -0.834000       15.9994           0
     68310 TIP3     19465    TIP3     H1       HT       0.417000       1.00800           0
     68311 TIP3     19465    TIP3     H2       HT       0.417000       1.00800           0
     68312 TIP3     19466    TIP3     OH2      OT      -0.834000       15.9994           0
     68313 TIP3     19466    TIP3     H1       HT       0.417000       1.00800           0
     68314 TIP3     19466    TIP3     H2       HT       0.417000       1.00800           0
     68315 TIP3     19467    TIP3     OH2      OT      -0.834000       15.9994           0
     68316 TIP3     19467    TIP3     H1       HT       0.417000       1.00800           0
     68317 TIP3     19467    TIP3     H2       HT       0.417000       1.00800           0
     68318 TIP3     19468    TIP3     OH2      OT      -0.834000       15.9994           0
     68319 TIP3     19468    TIP3     H1       HT       0.417000       1.00800           0
     68320 TIP3     19468    TIP3     H2       HT       0.417000       1.00800           0
     68321 TIP3     19469    TIP3     OH2      OT      -0.834000       15.9994           0
     68322 TIP3     19469    TIP3     H1       HT       0.417000       1.00800           0
     68323 TIP3     19469    TIP3     H2       HT       0.417000       1.00800           0
     68324 TIP3     19470    TIP3     OH2      OT      -0.834000       15.9994           0
     68325 TIP3     19470    TIP3     H1       HT       0.417000       1.00800           0
     68326 TIP3     19470    TIP3     H2       HT       0.417000       1.00800           0
     68327 TIP3     19471    TIP3     OH2      OT      -0.834000       15.9994           0
     68328 TIP3     19471    TIP3     H1       HT       0.417000       1.00800           0
     68329 TIP3     19471    TIP3     H2       HT       0.417000       1.00800           0
     68330 TIP3     19472    TIP3     OH2      OT      -0.834000       15.9994           0
     68331 TIP3     19472    TIP3     H1       HT       0.417000       1.00800           0
     68332 TIP3     19472    TIP3     H2       HT       0.417000       1.00800           0
     68333 TIP3     19473    TIP3     OH2      OT      -0.834000       15.9994           0
     68334 TIP3     19473    TIP3     H1       HT       0.417000       1.00800           0
     68335 TIP3     19473    TIP3     H2       HT       0.417000       1.00800           0
     68336 TIP3     19474    TIP3     OH2      OT      -0.834000       15.9994           0
     68337 TIP3     19474    TIP3     H1       HT       0.417000       1.00800           0
     68338 TIP3     19474    TIP3     H2       HT       0.417000       1.00800           0
     68339 TIP3     19475    TIP3     OH2      OT      -0.834000       15.9994           0
     68340 TIP3     19475    TIP3     H1       HT       0.417000       1.00800           0
     68341 TIP3     19475    TIP3     H2       HT       0.417000       1.00800           0
     68342 TIP3     19476    TIP3     OH2      OT      -0.834000       15.9994           0
     68343 TIP3     19476    TIP3     H1       HT       0.417000       1.00800           0
     68344 TIP3     19476    TIP3     H2       HT       0.417000       1.00800           0
     68345 TIP3     19477    TIP3     OH2      OT      -0.834000       15.9994           0
     68346 TIP3     19477    TIP3     H1       HT       0.417000       1.00800           0
     68347 TIP3     19477    TIP3     H2       HT       0.417000       1.00800           0
     68348 TIP3     19478    TIP3     OH2      OT      -0.834000       15.9994           0
     68349 TIP3     19478    TIP3     H1       HT       0.417000       1.00800           0
     68350 TIP3     19478    TIP3     H2       HT       0.417000       1.00800           0
     68351 TIP3     19479    TIP3     OH2      OT      -0.834000       15.9994           0
     68352 TIP3     19479    TIP3     H1       HT       0.417000       1.00800           0
     68353 TIP3     19479    TIP3     H2       HT       0.417000       1.00800           0
     68354 TIP3     19480    TIP3     OH2      OT      -0.834000       15.9994           0
     68355 TIP3     19480    TIP3     H1       HT       0.417000       1.00800           0
     68356 TIP3     19480    TIP3     H2       HT       0.417000       1.00800           0
     68357 TIP3     19481    TIP3     OH2      OT      -0.834000       15.9994           0
     68358 TIP3     19481    TIP3     H1       HT       0.417000       1.00800           0
     68359 TIP3     19481    TIP3     H2       HT       0.417000       1.00800           0
     68360 TIP3     19482    TIP3     OH2      OT      -0.834000       15.9994           0
     68361 TIP3     19482    TIP3     H1       HT       0.417000       1.00800           0
     68362 TIP3     19482    TIP3     H2       HT       0.417000       1.00800           0
     68363 TIP3     19483    TIP3     OH2      OT      -0.834000       15.9994           0
     68364 TIP3     19483    TIP3     H1       HT       0.417000       1.00800           0
     68365 TIP3     19483    TIP3     H2       HT       0.417000       1.00800           0
     68366 TIP3     19484    TIP3     OH2      OT      -0.834000       15.9994           0
     68367 TIP3     19484    TIP3     H1       HT       0.417000       1.00800           0
     68368 TIP3     19484    TIP3     H2       HT       0.417000       1.00800           0
     68369 TIP3     19485    TIP3     OH2      OT      -0.834000       15.9994           0
     68370 TIP3     19485    TIP3     H1       HT       0.417000       1.00800           0
     68371 TIP3     19485    TIP3     H2       HT       0.417000       1.00800           0
     68372 TIP3     19486    TIP3     OH2      OT      -0.834000       15.9994           0
     68373 TIP3     19486    TIP3     H1       HT       0.417000       1.00800           0
     68374 TIP3     19486    TIP3     H2       HT       0.417000       1.00800           0
     68375 TIP3     19487    TIP3     OH2      OT      -0.834000       15.9994           0
     68376 TIP3     19487    TIP3     H1       HT       0.417000       1.00800           0
     68377 TIP3     19487    TIP3     H2       HT       0.417000       1.00800           0
     68378 TIP3     19488    TIP3     OH2      OT      -0.834000       15.9994           0
     68379 TIP3     19488    TIP3     H1       HT       0.417000       1.00800           0
     68380 TIP3     19488    TIP3     H2       HT       0.417000       1.00800           0
     68381 TIP3     19489    TIP3     OH2      OT      -0.834000       15.9994           0
     68382 TIP3     19489    TIP3     H1       HT       0.417000       1.00800           0
     68383 TIP3     19489    TIP3     H2       HT       0.417000       1.00800           0
     68384 TIP3     19490    TIP3     OH2      OT      -0.834000       15.9994           0
     68385 TIP3     19490    TIP3     H1       HT       0.417000       1.00800           0
     68386 TIP3     19490    TIP3     H2       HT       0.417000       1.00800           0
     68387 TIP3     19491    TIP3     OH2      OT      -0.834000       15.9994           0
     68388 TIP3     19491    TIP3     H1       HT       0.417000       1.00800           0
     68389 TIP3     19491    TIP3     H2       HT       0.417000       1.00800           0
     68390 TIP3     19492    TIP3     OH2      OT      -0.834000       15.9994           0
     68391 TIP3     19492    TIP3     H1       HT       0.417000       1.00800           0
     68392 TIP3     19492    TIP3     H2       HT       0.417000       1.00800           0
     68393 TIP3     19493    TIP3     OH2      OT      -0.834000       15.9994           0
     68394 TIP3     19493    TIP3     H1       HT       0.417000       1.00800           0
     68395 TIP3     19493    TIP3     H2       HT       0.417000       1.00800           0
     68396 TIP3     19494    TIP3     OH2      OT      -0.834000       15.9994           0
     68397 TIP3     19494    TIP3     H1       HT       0.417000       1.00800           0
     68398 TIP3     19494    TIP3     H2       HT       0.417000       1.00800           0
     68399 TIP3     19495    TIP3     OH2      OT      -0.834000       15.9994           0
     68400 TIP3     19495    TIP3     H1       HT       0.417000       1.00800           0
     68401 TIP3     19495    TIP3     H2       HT       0.417000       1.00800           0
     68402 TIP3     19496    TIP3     OH2      OT      -0.834000       15.9994           0
     68403 TIP3     19496    TIP3     H1       HT       0.417000       1.00800           0
     68404 TIP3     19496    TIP3     H2       HT       0.417000       1.00800           0
     68405 TIP3     19497    TIP3     OH2      OT      -0.834000       15.9994           0
     68406 TIP3     19497    TIP3     H1       HT       0.417000       1.00800           0
     68407 TIP3     19497    TIP3     H2       HT       0.417000       1.00800           0
     68408 TIP3     19498    TIP3     OH2      OT      -0.834000       15.9994           0
     68409 TIP3     19498    TIP3     H1       HT       0.417000       1.00800           0
     68410 TIP3     19498    TIP3     H2       HT       0.417000       1.00800           0
     68411 TIP3     19499    TIP3     OH2      OT      -0.834000       15.9994           0
     68412 TIP3     19499    TIP3     H1       HT       0.417000       1.00800           0
     68413 TIP3     19499    TIP3     H2       HT       0.417000       1.00800           0
     68414 TIP3     19500    TIP3     OH2      OT      -0.834000       15.9994           0
     68415 TIP3     19500    TIP3     H1       HT       0.417000       1.00800           0
     68416 TIP3     19500    TIP3     H2       HT       0.417000       1.00800           0
     68417 TIP3     19501    TIP3     OH2      OT      -0.834000       15.9994           0
     68418 TIP3     19501    TIP3     H1       HT       0.417000       1.00800           0
     68419 TIP3     19501    TIP3     H2       HT       0.417000       1.00800           0
     68420 TIP3     19502    TIP3     OH2      OT      -0.834000       15.9994           0
     68421 TIP3     19502    TIP3     H1       HT       0.417000       1.00800           0
     68422 TIP3     19502    TIP3     H2       HT       0.417000       1.00800           0
     68423 TIP3     19503    TIP3     OH2      OT      -0.834000       15.9994           0
     68424 TIP3     19503    TIP3     H1       HT       0.417000       1.00800           0
     68425 TIP3     19503    TIP3     H2       HT       0.417000       1.00800           0
     68426 TIP3     19504    TIP3     OH2      OT      -0.834000       15.9994           0
     68427 TIP3     19504    TIP3     H1       HT       0.417000       1.00800           0
     68428 TIP3     19504    TIP3     H2       HT       0.417000       1.00800           0
     68429 TIP3     19505    TIP3     OH2      OT      -0.834000       15.9994           0
     68430 TIP3     19505    TIP3     H1       HT       0.417000       1.00800           0
     68431 TIP3     19505    TIP3     H2       HT       0.417000       1.00800           0
     68432 TIP3     19506    TIP3     OH2      OT      -0.834000       15.9994           0
     68433 TIP3     19506    TIP3     H1       HT       0.417000       1.00800           0
     68434 TIP3     19506    TIP3     H2       HT       0.417000       1.00800           0
     68435 TIP3     19507    TIP3     OH2      OT      -0.834000       15.9994           0
     68436 TIP3     19507    TIP3     H1       HT       0.417000       1.00800           0
     68437 TIP3     19507    TIP3     H2       HT       0.417000       1.00800           0
     68438 TIP3     19508    TIP3     OH2      OT      -0.834000       15.9994           0
     68439 TIP3     19508    TIP3     H1       HT       0.417000       1.00800           0
     68440 TIP3     19508    TIP3     H2       HT       0.417000       1.00800           0
     68441 TIP3     19509    TIP3     OH2      OT      -0.834000       15.9994           0
     68442 TIP3     19509    TIP3     H1       HT       0.417000       1.00800           0
     68443 TIP3     19509    TIP3     H2       HT       0.417000       1.00800           0
     68444 TIP3     19510    TIP3     OH2      OT      -0.834000       15.9994           0
     68445 TIP3     19510    TIP3     H1       HT       0.417000       1.00800           0
     68446 TIP3     19510    TIP3     H2       HT       0.417000       1.00800           0
     68447 TIP3     19511    TIP3     OH2      OT      -0.834000       15.9994           0
     68448 TIP3     19511    TIP3     H1       HT       0.417000       1.00800           0
     68449 TIP3     19511    TIP3     H2       HT       0.417000       1.00800           0
     68450 TIP3     19512    TIP3     OH2      OT      -0.834000       15.9994           0
     68451 TIP3     19512    TIP3     H1       HT       0.417000       1.00800           0
     68452 TIP3     19512    TIP3     H2       HT       0.417000       1.00800           0
     68453 TIP3     19513    TIP3     OH2      OT      -0.834000       15.9994           0
     68454 TIP3     19513    TIP3     H1       HT       0.417000       1.00800           0
     68455 TIP3     19513    TIP3     H2       HT       0.417000       1.00800           0
     68456 TIP3     19514    TIP3     OH2      OT      -0.834000       15.9994           0
     68457 TIP3     19514    TIP3     H1       HT       0.417000       1.00800           0
     68458 TIP3     19514    TIP3     H2       HT       0.417000       1.00800           0
     68459 TIP3     19515    TIP3     OH2      OT      -0.834000       15.9994           0
     68460 TIP3     19515    TIP3     H1       HT       0.417000       1.00800           0
     68461 TIP3     19515    TIP3     H2       HT       0.417000       1.00800           0
     68462 TIP3     19516    TIP3     OH2      OT      -0.834000       15.9994           0
     68463 TIP3     19516    TIP3     H1       HT       0.417000       1.00800           0
     68464 TIP3     19516    TIP3     H2       HT       0.417000       1.00800           0
     68465 TIP3     19517    TIP3     OH2      OT      -0.834000       15.9994           0
     68466 TIP3     19517    TIP3     H1       HT       0.417000       1.00800           0
     68467 TIP3     19517    TIP3     H2       HT       0.417000       1.00800           0
     68468 TIP3     19518    TIP3     OH2      OT      -0.834000       15.9994           0
     68469 TIP3     19518    TIP3     H1       HT       0.417000       1.00800           0
     68470 TIP3     19518    TIP3     H2       HT       0.417000       1.00800           0
     68471 TIP3     19519    TIP3     OH2      OT      -0.834000       15.9994           0
     68472 TIP3     19519    TIP3     H1       HT       0.417000       1.00800           0
     68473 TIP3     19519    TIP3     H2       HT       0.417000       1.00800           0
     68474 TIP3     19520    TIP3     OH2      OT      -0.834000       15.9994           0
     68475 TIP3     19520    TIP3     H1       HT       0.417000       1.00800           0
     68476 TIP3     19520    TIP3     H2       HT       0.417000       1.00800           0
     68477 TIP3     19521    TIP3     OH2      OT      -0.834000       15.9994           0
     68478 TIP3     19521    TIP3     H1       HT       0.417000       1.00800           0
     68479 TIP3     19521    TIP3     H2       HT       0.417000       1.00800           0
     68480 TIP3     19522    TIP3     OH2      OT      -0.834000       15.9994           0
     68481 TIP3     19522    TIP3     H1       HT       0.417000       1.00800           0
     68482 TIP3     19522    TIP3     H2       HT       0.417000       1.00800           0
     68483 TIP3     19523    TIP3     OH2      OT      -0.834000       15.9994           0
     68484 TIP3     19523    TIP3     H1       HT       0.417000       1.00800           0
     68485 TIP3     19523    TIP3     H2       HT       0.417000       1.00800           0
     68486 TIP3     19524    TIP3     OH2      OT      -0.834000       15.9994           0
     68487 TIP3     19524    TIP3     H1       HT       0.417000       1.00800           0
     68488 TIP3     19524    TIP3     H2       HT       0.417000       1.00800           0
     68489 TIP3     19525    TIP3     OH2      OT      -0.834000       15.9994           0
     68490 TIP3     19525    TIP3     H1       HT       0.417000       1.00800           0
     68491 TIP3     19525    TIP3     H2       HT       0.417000       1.00800           0
     68492 TIP3     19526    TIP3     OH2      OT      -0.834000       15.9994           0
     68493 TIP3     19526    TIP3     H1       HT       0.417000       1.00800           0
     68494 TIP3     19526    TIP3     H2       HT       0.417000       1.00800           0
     68495 TIP3     19527    TIP3     OH2      OT      -0.834000       15.9994           0
     68496 TIP3     19527    TIP3     H1       HT       0.417000       1.00800           0
     68497 TIP3     19527    TIP3     H2       HT       0.417000       1.00800           0
     68498 TIP3     19528    TIP3     OH2      OT      -0.834000       15.9994           0
     68499 TIP3     19528    TIP3     H1       HT       0.417000       1.00800           0
     68500 TIP3     19528    TIP3     H2       HT       0.417000       1.00800           0
     68501 TIP3     19529    TIP3     OH2      OT      -0.834000       15.9994           0
     68502 TIP3     19529    TIP3     H1       HT       0.417000       1.00800           0
     68503 TIP3     19529    TIP3     H2       HT       0.417000       1.00800           0
     68504 TIP3     19530    TIP3     OH2      OT      -0.834000       15.9994           0
     68505 TIP3     19530    TIP3     H1       HT       0.417000       1.00800           0
     68506 TIP3     19530    TIP3     H2       HT       0.417000       1.00800           0
     68507 TIP3     19531    TIP3     OH2      OT      -0.834000       15.9994           0
     68508 TIP3     19531    TIP3     H1       HT       0.417000       1.00800           0
     68509 TIP3     19531    TIP3     H2       HT       0.417000       1.00800           0
     68510 TIP3     19532    TIP3     OH2      OT      -0.834000       15.9994           0
     68511 TIP3     19532    TIP3     H1       HT       0.417000       1.00800           0
     68512 TIP3     19532    TIP3     H2       HT       0.417000       1.00800           0
     68513 TIP3     19533    TIP3     OH2      OT      -0.834000       15.9994           0
     68514 TIP3     19533    TIP3     H1       HT       0.417000       1.00800           0
     68515 TIP3     19533    TIP3     H2       HT       0.417000       1.00800           0
     68516 TIP3     19534    TIP3     OH2      OT      -0.834000       15.9994           0
     68517 TIP3     19534    TIP3     H1       HT       0.417000       1.00800           0
     68518 TIP3     19534    TIP3     H2       HT       0.417000       1.00800           0
     68519 TIP3     19535    TIP3     OH2      OT      -0.834000       15.9994           0
     68520 TIP3     19535    TIP3     H1       HT       0.417000       1.00800           0
     68521 TIP3     19535    TIP3     H2       HT       0.417000       1.00800           0
     68522 TIP3     19536    TIP3     OH2      OT      -0.834000       15.9994           0
     68523 TIP3     19536    TIP3     H1       HT       0.417000       1.00800           0
     68524 TIP3     19536    TIP3     H2       HT       0.417000       1.00800           0
     68525 TIP3     19537    TIP3     OH2      OT      -0.834000       15.9994           0
     68526 TIP3     19537    TIP3     H1       HT       0.417000       1.00800           0
     68527 TIP3     19537    TIP3     H2       HT       0.417000       1.00800           0
     68528 TIP3     19538    TIP3     OH2      OT      -0.834000       15.9994           0
     68529 TIP3     19538    TIP3     H1       HT       0.417000       1.00800           0
     68530 TIP3     19538    TIP3     H2       HT       0.417000       1.00800           0
     68531 TIP3     19539    TIP3     OH2      OT      -0.834000       15.9994           0
     68532 TIP3     19539    TIP3     H1       HT       0.417000       1.00800           0
     68533 TIP3     19539    TIP3     H2       HT       0.417000       1.00800           0
     68534 TIP3     19540    TIP3     OH2      OT      -0.834000       15.9994           0
     68535 TIP3     19540    TIP3     H1       HT       0.417000       1.00800           0
     68536 TIP3     19540    TIP3     H2       HT       0.417000       1.00800           0
     68537 TIP3     19541    TIP3     OH2      OT      -0.834000       15.9994           0
     68538 TIP3     19541    TIP3     H1       HT       0.417000       1.00800           0
     68539 TIP3     19541    TIP3     H2       HT       0.417000       1.00800           0
     68540 TIP3     19542    TIP3     OH2      OT      -0.834000       15.9994           0
     68541 TIP3     19542    TIP3     H1       HT       0.417000       1.00800           0
     68542 TIP3     19542    TIP3     H2       HT       0.417000       1.00800           0
     68543 TIP3     19543    TIP3     OH2      OT      -0.834000       15.9994           0
     68544 TIP3     19543    TIP3     H1       HT       0.417000       1.00800           0
     68545 TIP3     19543    TIP3     H2       HT       0.417000       1.00800           0
     68546 TIP3     19544    TIP3     OH2      OT      -0.834000       15.9994           0
     68547 TIP3     19544    TIP3     H1       HT       0.417000       1.00800           0
     68548 TIP3     19544    TIP3     H2       HT       0.417000       1.00800           0
     68549 TIP3     19545    TIP3     OH2      OT      -0.834000       15.9994           0
     68550 TIP3     19545    TIP3     H1       HT       0.417000       1.00800           0
     68551 TIP3     19545    TIP3     H2       HT       0.417000       1.00800           0
     68552 TIP3     19546    TIP3     OH2      OT      -0.834000       15.9994           0
     68553 TIP3     19546    TIP3     H1       HT       0.417000       1.00800           0
     68554 TIP3     19546    TIP3     H2       HT       0.417000       1.00800           0
     68555 TIP3     19547    TIP3     OH2      OT      -0.834000       15.9994           0
     68556 TIP3     19547    TIP3     H1       HT       0.417000       1.00800           0
     68557 TIP3     19547    TIP3     H2       HT       0.417000       1.00800           0
     68558 TIP3     19548    TIP3     OH2      OT      -0.834000       15.9994           0
     68559 TIP3     19548    TIP3     H1       HT       0.417000       1.00800           0
     68560 TIP3     19548    TIP3     H2       HT       0.417000       1.00800           0
     68561 TIP3     19549    TIP3     OH2      OT      -0.834000       15.9994           0
     68562 TIP3     19549    TIP3     H1       HT       0.417000       1.00800           0
     68563 TIP3     19549    TIP3     H2       HT       0.417000       1.00800           0
     68564 TIP3     19550    TIP3     OH2      OT      -0.834000       15.9994           0
     68565 TIP3     19550    TIP3     H1       HT       0.417000       1.00800           0
     68566 TIP3     19550    TIP3     H2       HT       0.417000       1.00800           0
     68567 TIP3     19551    TIP3     OH2      OT      -0.834000       15.9994           0
     68568 TIP3     19551    TIP3     H1       HT       0.417000       1.00800           0
     68569 TIP3     19551    TIP3     H2       HT       0.417000       1.00800           0
     68570 TIP3     19552    TIP3     OH2      OT      -0.834000       15.9994           0
     68571 TIP3     19552    TIP3     H1       HT       0.417000       1.00800           0
     68572 TIP3     19552    TIP3     H2       HT       0.417000       1.00800           0
     68573 TIP3     19553    TIP3     OH2      OT      -0.834000       15.9994           0
     68574 TIP3     19553    TIP3     H1       HT       0.417000       1.00800           0
     68575 TIP3     19553    TIP3     H2       HT       0.417000       1.00800           0
     68576 TIP3     19554    TIP3     OH2      OT      -0.834000       15.9994           0
     68577 TIP3     19554    TIP3     H1       HT       0.417000       1.00800           0
     68578 TIP3     19554    TIP3     H2       HT       0.417000       1.00800           0
     68579 TIP3     19555    TIP3     OH2      OT      -0.834000       15.9994           0
     68580 TIP3     19555    TIP3     H1       HT       0.417000       1.00800           0
     68581 TIP3     19555    TIP3     H2       HT       0.417000       1.00800           0
     68582 TIP3     19556    TIP3     OH2      OT      -0.834000       15.9994           0
     68583 TIP3     19556    TIP3     H1       HT       0.417000       1.00800           0
     68584 TIP3     19556    TIP3     H2       HT       0.417000       1.00800           0
     68585 TIP3     19557    TIP3     OH2      OT      -0.834000       15.9994           0
     68586 TIP3     19557    TIP3     H1       HT       0.417000       1.00800           0
     68587 TIP3     19557    TIP3     H2       HT       0.417000       1.00800           0
     68588 TIP3     19558    TIP3     OH2      OT      -0.834000       15.9994           0
     68589 TIP3     19558    TIP3     H1       HT       0.417000       1.00800           0
     68590 TIP3     19558    TIP3     H2       HT       0.417000       1.00800           0
     68591 TIP3     19559    TIP3     OH2      OT      -0.834000       15.9994           0
     68592 TIP3     19559    TIP3     H1       HT       0.417000       1.00800           0
     68593 TIP3     19559    TIP3     H2       HT       0.417000       1.00800           0
     68594 TIP3     19560    TIP3     OH2      OT      -0.834000       15.9994           0
     68595 TIP3     19560    TIP3     H1       HT       0.417000       1.00800           0
     68596 TIP3     19560    TIP3     H2       HT       0.417000       1.00800           0
     68597 TIP3     19561    TIP3     OH2      OT      -0.834000       15.9994           0
     68598 TIP3     19561    TIP3     H1       HT       0.417000       1.00800           0
     68599 TIP3     19561    TIP3     H2       HT       0.417000       1.00800           0
     68600 TIP3     19562    TIP3     OH2      OT      -0.834000       15.9994           0
     68601 TIP3     19562    TIP3     H1       HT       0.417000       1.00800           0
     68602 TIP3     19562    TIP3     H2       HT       0.417000       1.00800           0
     68603 TIP3     19563    TIP3     OH2      OT      -0.834000       15.9994           0
     68604 TIP3     19563    TIP3     H1       HT       0.417000       1.00800           0
     68605 TIP3     19563    TIP3     H2       HT       0.417000       1.00800           0
     68606 TIP3     19564    TIP3     OH2      OT      -0.834000       15.9994           0
     68607 TIP3     19564    TIP3     H1       HT       0.417000       1.00800           0
     68608 TIP3     19564    TIP3     H2       HT       0.417000       1.00800           0
     68609 TIP3     19565    TIP3     OH2      OT      -0.834000       15.9994           0
     68610 TIP3     19565    TIP3     H1       HT       0.417000       1.00800           0
     68611 TIP3     19565    TIP3     H2       HT       0.417000       1.00800           0
     68612 TIP3     19566    TIP3     OH2      OT      -0.834000       15.9994           0
     68613 TIP3     19566    TIP3     H1       HT       0.417000       1.00800           0
     68614 TIP3     19566    TIP3     H2       HT       0.417000       1.00800           0
     68615 TIP3     19567    TIP3     OH2      OT      -0.834000       15.9994           0
     68616 TIP3     19567    TIP3     H1       HT       0.417000       1.00800           0
     68617 TIP3     19567    TIP3     H2       HT       0.417000       1.00800           0
     68618 TIP3     19568    TIP3     OH2      OT      -0.834000       15.9994           0
     68619 TIP3     19568    TIP3     H1       HT       0.417000       1.00800           0
     68620 TIP3     19568    TIP3     H2       HT       0.417000       1.00800           0
     68621 TIP3     19569    TIP3     OH2      OT      -0.834000       15.9994           0
     68622 TIP3     19569    TIP3     H1       HT       0.417000       1.00800           0
     68623 TIP3     19569    TIP3     H2       HT       0.417000       1.00800           0
     68624 TIP3     19570    TIP3     OH2      OT      -0.834000       15.9994           0
     68625 TIP3     19570    TIP3     H1       HT       0.417000       1.00800           0
     68626 TIP3     19570    TIP3     H2       HT       0.417000       1.00800           0
     68627 TIP3     19571    TIP3     OH2      OT      -0.834000       15.9994           0
     68628 TIP3     19571    TIP3     H1       HT       0.417000       1.00800           0
     68629 TIP3     19571    TIP3     H2       HT       0.417000       1.00800           0
     68630 TIP3     19572    TIP3     OH2      OT      -0.834000       15.9994           0
     68631 TIP3     19572    TIP3     H1       HT       0.417000       1.00800           0
     68632 TIP3     19572    TIP3     H2       HT       0.417000       1.00800           0
     68633 TIP3     19573    TIP3     OH2      OT      -0.834000       15.9994           0
     68634 TIP3     19573    TIP3     H1       HT       0.417000       1.00800           0
     68635 TIP3     19573    TIP3     H2       HT       0.417000       1.00800           0
     68636 TIP3     19574    TIP3     OH2      OT      -0.834000       15.9994           0
     68637 TIP3     19574    TIP3     H1       HT       0.417000       1.00800           0
     68638 TIP3     19574    TIP3     H2       HT       0.417000       1.00800           0
     68639 TIP3     19575    TIP3     OH2      OT      -0.834000       15.9994           0
     68640 TIP3     19575    TIP3     H1       HT       0.417000       1.00800           0
     68641 TIP3     19575    TIP3     H2       HT       0.417000       1.00800           0
     68642 TIP3     19576    TIP3     OH2      OT      -0.834000       15.9994           0
     68643 TIP3     19576    TIP3     H1       HT       0.417000       1.00800           0
     68644 TIP3     19576    TIP3     H2       HT       0.417000       1.00800           0
     68645 TIP3     19577    TIP3     OH2      OT      -0.834000       15.9994           0
     68646 TIP3     19577    TIP3     H1       HT       0.417000       1.00800           0
     68647 TIP3     19577    TIP3     H2       HT       0.417000       1.00800           0
     68648 TIP3     19578    TIP3     OH2      OT      -0.834000       15.9994           0
     68649 TIP3     19578    TIP3     H1       HT       0.417000       1.00800           0
     68650 TIP3     19578    TIP3     H2       HT       0.417000       1.00800           0
     68651 TIP3     19579    TIP3     OH2      OT      -0.834000       15.9994           0
     68652 TIP3     19579    TIP3     H1       HT       0.417000       1.00800           0
     68653 TIP3     19579    TIP3     H2       HT       0.417000       1.00800           0
     68654 TIP3     19580    TIP3     OH2      OT      -0.834000       15.9994           0
     68655 TIP3     19580    TIP3     H1       HT       0.417000       1.00800           0
     68656 TIP3     19580    TIP3     H2       HT       0.417000       1.00800           0
     68657 TIP3     19581    TIP3     OH2      OT      -0.834000       15.9994           0
     68658 TIP3     19581    TIP3     H1       HT       0.417000       1.00800           0
     68659 TIP3     19581    TIP3     H2       HT       0.417000       1.00800           0
     68660 TIP3     19582    TIP3     OH2      OT      -0.834000       15.9994           0
     68661 TIP3     19582    TIP3     H1       HT       0.417000       1.00800           0
     68662 TIP3     19582    TIP3     H2       HT       0.417000       1.00800           0
     68663 TIP3     19583    TIP3     OH2      OT      -0.834000       15.9994           0
     68664 TIP3     19583    TIP3     H1       HT       0.417000       1.00800           0
     68665 TIP3     19583    TIP3     H2       HT       0.417000       1.00800           0
     68666 TIP3     19584    TIP3     OH2      OT      -0.834000       15.9994           0
     68667 TIP3     19584    TIP3     H1       HT       0.417000       1.00800           0
     68668 TIP3     19584    TIP3     H2       HT       0.417000       1.00800           0
     68669 TIP3     19585    TIP3     OH2      OT      -0.834000       15.9994           0
     68670 TIP3     19585    TIP3     H1       HT       0.417000       1.00800           0
     68671 TIP3     19585    TIP3     H2       HT       0.417000       1.00800           0
     68672 TIP3     19586    TIP3     OH2      OT      -0.834000       15.9994           0
     68673 TIP3     19586    TIP3     H1       HT       0.417000       1.00800           0
     68674 TIP3     19586    TIP3     H2       HT       0.417000       1.00800           0
     68675 TIP3     19587    TIP3     OH2      OT      -0.834000       15.9994           0
     68676 TIP3     19587    TIP3     H1       HT       0.417000       1.00800           0
     68677 TIP3     19587    TIP3     H2       HT       0.417000       1.00800           0
     68678 TIP3     19588    TIP3     OH2      OT      -0.834000       15.9994           0
     68679 TIP3     19588    TIP3     H1       HT       0.417000       1.00800           0
     68680 TIP3     19588    TIP3     H2       HT       0.417000       1.00800           0
     68681 TIP3     19589    TIP3     OH2      OT      -0.834000       15.9994           0
     68682 TIP3     19589    TIP3     H1       HT       0.417000       1.00800           0
     68683 TIP3     19589    TIP3     H2       HT       0.417000       1.00800           0
     68684 TIP3     19590    TIP3     OH2      OT      -0.834000       15.9994           0
     68685 TIP3     19590    TIP3     H1       HT       0.417000       1.00800           0
     68686 TIP3     19590    TIP3     H2       HT       0.417000       1.00800           0
     68687 TIP3     19591    TIP3     OH2      OT      -0.834000       15.9994           0
     68688 TIP3     19591    TIP3     H1       HT       0.417000       1.00800           0
     68689 TIP3     19591    TIP3     H2       HT       0.417000       1.00800           0
     68690 TIP3     19592    TIP3     OH2      OT      -0.834000       15.9994           0
     68691 TIP3     19592    TIP3     H1       HT       0.417000       1.00800           0
     68692 TIP3     19592    TIP3     H2       HT       0.417000       1.00800           0
     68693 TIP3     19593    TIP3     OH2      OT      -0.834000       15.9994           0
     68694 TIP3     19593    TIP3     H1       HT       0.417000       1.00800           0
     68695 TIP3     19593    TIP3     H2       HT       0.417000       1.00800           0
     68696 TIP3     19594    TIP3     OH2      OT      -0.834000       15.9994           0
     68697 TIP3     19594    TIP3     H1       HT       0.417000       1.00800           0
     68698 TIP3     19594    TIP3     H2       HT       0.417000       1.00800           0
     68699 TIP3     19595    TIP3     OH2      OT      -0.834000       15.9994           0
     68700 TIP3     19595    TIP3     H1       HT       0.417000       1.00800           0
     68701 TIP3     19595    TIP3     H2       HT       0.417000       1.00800           0
     68702 TIP3     19596    TIP3     OH2      OT      -0.834000       15.9994           0
     68703 TIP3     19596    TIP3     H1       HT       0.417000       1.00800           0
     68704 TIP3     19596    TIP3     H2       HT       0.417000       1.00800           0
     68705 TIP3     19597    TIP3     OH2      OT      -0.834000       15.9994           0
     68706 TIP3     19597    TIP3     H1       HT       0.417000       1.00800           0
     68707 TIP3     19597    TIP3     H2       HT       0.417000       1.00800           0
     68708 TIP3     19598    TIP3     OH2      OT      -0.834000       15.9994           0
     68709 TIP3     19598    TIP3     H1       HT       0.417000       1.00800           0
     68710 TIP3     19598    TIP3     H2       HT       0.417000       1.00800           0
     68711 TIP3     19599    TIP3     OH2      OT      -0.834000       15.9994           0
     68712 TIP3     19599    TIP3     H1       HT       0.417000       1.00800           0
     68713 TIP3     19599    TIP3     H2       HT       0.417000       1.00800           0
     68714 TIP3     19600    TIP3     OH2      OT      -0.834000       15.9994           0
     68715 TIP3     19600    TIP3     H1       HT       0.417000       1.00800           0
     68716 TIP3     19600    TIP3     H2       HT       0.417000       1.00800           0
     68717 TIP3     19601    TIP3     OH2      OT      -0.834000       15.9994           0
     68718 TIP3     19601    TIP3     H1       HT       0.417000       1.00800           0
     68719 TIP3     19601    TIP3     H2       HT       0.417000       1.00800           0
     68720 TIP3     19602    TIP3     OH2      OT      -0.834000       15.9994           0
     68721 TIP3     19602    TIP3     H1       HT       0.417000       1.00800           0
     68722 TIP3     19602    TIP3     H2       HT       0.417000       1.00800           0
     68723 TIP3     19603    TIP3     OH2      OT      -0.834000       15.9994           0
     68724 TIP3     19603    TIP3     H1       HT       0.417000       1.00800           0
     68725 TIP3     19603    TIP3     H2       HT       0.417000       1.00800           0
     68726 TIP3     19604    TIP3     OH2      OT      -0.834000       15.9994           0
     68727 TIP3     19604    TIP3     H1       HT       0.417000       1.00800           0
     68728 TIP3     19604    TIP3     H2       HT       0.417000       1.00800           0
     68729 TIP3     19605    TIP3     OH2      OT      -0.834000       15.9994           0
     68730 TIP3     19605    TIP3     H1       HT       0.417000       1.00800           0
     68731 TIP3     19605    TIP3     H2       HT       0.417000       1.00800           0
     68732 TIP3     19606    TIP3     OH2      OT      -0.834000       15.9994           0
     68733 TIP3     19606    TIP3     H1       HT       0.417000       1.00800           0
     68734 TIP3     19606    TIP3     H2       HT       0.417000       1.00800           0
     68735 TIP3     19607    TIP3     OH2      OT      -0.834000       15.9994           0
     68736 TIP3     19607    TIP3     H1       HT       0.417000       1.00800           0
     68737 TIP3     19607    TIP3     H2       HT       0.417000       1.00800           0
     68738 TIP3     19608    TIP3     OH2      OT      -0.834000       15.9994           0
     68739 TIP3     19608    TIP3     H1       HT       0.417000       1.00800           0
     68740 TIP3     19608    TIP3     H2       HT       0.417000       1.00800           0
     68741 TIP3     19609    TIP3     OH2      OT      -0.834000       15.9994           0
     68742 TIP3     19609    TIP3     H1       HT       0.417000       1.00800           0
     68743 TIP3     19609    TIP3     H2       HT       0.417000       1.00800           0
     68744 TIP3     19610    TIP3     OH2      OT      -0.834000       15.9994           0
     68745 TIP3     19610    TIP3     H1       HT       0.417000       1.00800           0
     68746 TIP3     19610    TIP3     H2       HT       0.417000       1.00800           0
     68747 TIP3     19611    TIP3     OH2      OT      -0.834000       15.9994           0
     68748 TIP3     19611    TIP3     H1       HT       0.417000       1.00800           0
     68749 TIP3     19611    TIP3     H2       HT       0.417000       1.00800           0
     68750 TIP3     19612    TIP3     OH2      OT      -0.834000       15.9994           0
     68751 TIP3     19612    TIP3     H1       HT       0.417000       1.00800           0
     68752 TIP3     19612    TIP3     H2       HT       0.417000       1.00800           0
     68753 TIP3     19613    TIP3     OH2      OT      -0.834000       15.9994           0
     68754 TIP3     19613    TIP3     H1       HT       0.417000       1.00800           0
     68755 TIP3     19613    TIP3     H2       HT       0.417000       1.00800           0
     68756 TIP3     19614    TIP3     OH2      OT      -0.834000       15.9994           0
     68757 TIP3     19614    TIP3     H1       HT       0.417000       1.00800           0
     68758 TIP3     19614    TIP3     H2       HT       0.417000       1.00800           0
     68759 TIP3     19615    TIP3     OH2      OT      -0.834000       15.9994           0
     68760 TIP3     19615    TIP3     H1       HT       0.417000       1.00800           0
     68761 TIP3     19615    TIP3     H2       HT       0.417000       1.00800           0
     68762 TIP3     19616    TIP3     OH2      OT      -0.834000       15.9994           0
     68763 TIP3     19616    TIP3     H1       HT       0.417000       1.00800           0
     68764 TIP3     19616    TIP3     H2       HT       0.417000       1.00800           0
     68765 TIP3     19617    TIP3     OH2      OT      -0.834000       15.9994           0
     68766 TIP3     19617    TIP3     H1       HT       0.417000       1.00800           0
     68767 TIP3     19617    TIP3     H2       HT       0.417000       1.00800           0
     68768 TIP3     19618    TIP3     OH2      OT      -0.834000       15.9994           0
     68769 TIP3     19618    TIP3     H1       HT       0.417000       1.00800           0
     68770 TIP3     19618    TIP3     H2       HT       0.417000       1.00800           0
     68771 TIP3     19619    TIP3     OH2      OT      -0.834000       15.9994           0
     68772 TIP3     19619    TIP3     H1       HT       0.417000       1.00800           0
     68773 TIP3     19619    TIP3     H2       HT       0.417000       1.00800           0
     68774 TIP3     19620    TIP3     OH2      OT      -0.834000       15.9994           0
     68775 TIP3     19620    TIP3     H1       HT       0.417000       1.00800           0
     68776 TIP3     19620    TIP3     H2       HT       0.417000       1.00800           0
     68777 TIP3     19621    TIP3     OH2      OT      -0.834000       15.9994           0
     68778 TIP3     19621    TIP3     H1       HT       0.417000       1.00800           0
     68779 TIP3     19621    TIP3     H2       HT       0.417000       1.00800           0
     68780 TIP3     19622    TIP3     OH2      OT      -0.834000       15.9994           0
     68781 TIP3     19622    TIP3     H1       HT       0.417000       1.00800           0
     68782 TIP3     19622    TIP3     H2       HT       0.417000       1.00800           0
     68783 TIP3     19623    TIP3     OH2      OT      -0.834000       15.9994           0
     68784 TIP3     19623    TIP3     H1       HT       0.417000       1.00800           0
     68785 TIP3     19623    TIP3     H2       HT       0.417000       1.00800           0
     68786 TIP3     19624    TIP3     OH2      OT      -0.834000       15.9994           0
     68787 TIP3     19624    TIP3     H1       HT       0.417000       1.00800           0
     68788 TIP3     19624    TIP3     H2       HT       0.417000       1.00800           0
     68789 TIP3     19625    TIP3     OH2      OT      -0.834000       15.9994           0
     68790 TIP3     19625    TIP3     H1       HT       0.417000       1.00800           0
     68791 TIP3     19625    TIP3     H2       HT       0.417000       1.00800           0
     68792 TIP3     19626    TIP3     OH2      OT      -0.834000       15.9994           0
     68793 TIP3     19626    TIP3     H1       HT       0.417000       1.00800           0
     68794 TIP3     19626    TIP3     H2       HT       0.417000       1.00800           0
     68795 TIP3     19627    TIP3     OH2      OT      -0.834000       15.9994           0
     68796 TIP3     19627    TIP3     H1       HT       0.417000       1.00800           0
     68797 TIP3     19627    TIP3     H2       HT       0.417000       1.00800           0
     68798 TIP3     19628    TIP3     OH2      OT      -0.834000       15.9994           0
     68799 TIP3     19628    TIP3     H1       HT       0.417000       1.00800           0
     68800 TIP3     19628    TIP3     H2       HT       0.417000       1.00800           0
     68801 TIP3     19629    TIP3     OH2      OT      -0.834000       15.9994           0
     68802 TIP3     19629    TIP3     H1       HT       0.417000       1.00800           0
     68803 TIP3     19629    TIP3     H2       HT       0.417000       1.00800           0
     68804 TIP3     19630    TIP3     OH2      OT      -0.834000       15.9994           0
     68805 TIP3     19630    TIP3     H1       HT       0.417000       1.00800           0
     68806 TIP3     19630    TIP3     H2       HT       0.417000       1.00800           0
     68807 TIP3     19631    TIP3     OH2      OT      -0.834000       15.9994           0
     68808 TIP3     19631    TIP3     H1       HT       0.417000       1.00800           0
     68809 TIP3     19631    TIP3     H2       HT       0.417000       1.00800           0
     68810 TIP3     19632    TIP3     OH2      OT      -0.834000       15.9994           0
     68811 TIP3     19632    TIP3     H1       HT       0.417000       1.00800           0
     68812 TIP3     19632    TIP3     H2       HT       0.417000       1.00800           0
     68813 TIP3     19633    TIP3     OH2      OT      -0.834000       15.9994           0
     68814 TIP3     19633    TIP3     H1       HT       0.417000       1.00800           0
     68815 TIP3     19633    TIP3     H2       HT       0.417000       1.00800           0
     68816 TIP3     19634    TIP3     OH2      OT      -0.834000       15.9994           0
     68817 TIP3     19634    TIP3     H1       HT       0.417000       1.00800           0
     68818 TIP3     19634    TIP3     H2       HT       0.417000       1.00800           0
     68819 TIP3     19635    TIP3     OH2      OT      -0.834000       15.9994           0
     68820 TIP3     19635    TIP3     H1       HT       0.417000       1.00800           0
     68821 TIP3     19635    TIP3     H2       HT       0.417000       1.00800           0
     68822 TIP3     19636    TIP3     OH2      OT      -0.834000       15.9994           0
     68823 TIP3     19636    TIP3     H1       HT       0.417000       1.00800           0
     68824 TIP3     19636    TIP3     H2       HT       0.417000       1.00800           0
     68825 TIP3     19637    TIP3     OH2      OT      -0.834000       15.9994           0
     68826 TIP3     19637    TIP3     H1       HT       0.417000       1.00800           0
     68827 TIP3     19637    TIP3     H2       HT       0.417000       1.00800           0
     68828 TIP3     19638    TIP3     OH2      OT      -0.834000       15.9994           0
     68829 TIP3     19638    TIP3     H1       HT       0.417000       1.00800           0
     68830 TIP3     19638    TIP3     H2       HT       0.417000       1.00800           0
     68831 TIP3     19639    TIP3     OH2      OT      -0.834000       15.9994           0
     68832 TIP3     19639    TIP3     H1       HT       0.417000       1.00800           0
     68833 TIP3     19639    TIP3     H2       HT       0.417000       1.00800           0
     68834 TIP3     19640    TIP3     OH2      OT      -0.834000       15.9994           0
     68835 TIP3     19640    TIP3     H1       HT       0.417000       1.00800           0
     68836 TIP3     19640    TIP3     H2       HT       0.417000       1.00800           0
     68837 TIP3     19641    TIP3     OH2      OT      -0.834000       15.9994           0
     68838 TIP3     19641    TIP3     H1       HT       0.417000       1.00800           0
     68839 TIP3     19641    TIP3     H2       HT       0.417000       1.00800           0
     68840 TIP3     19642    TIP3     OH2      OT      -0.834000       15.9994           0
     68841 TIP3     19642    TIP3     H1       HT       0.417000       1.00800           0
     68842 TIP3     19642    TIP3     H2       HT       0.417000       1.00800           0
     68843 TIP3     19643    TIP3     OH2      OT      -0.834000       15.9994           0
     68844 TIP3     19643    TIP3     H1       HT       0.417000       1.00800           0
     68845 TIP3     19643    TIP3     H2       HT       0.417000       1.00800           0
     68846 TIP3     19644    TIP3     OH2      OT      -0.834000       15.9994           0
     68847 TIP3     19644    TIP3     H1       HT       0.417000       1.00800           0
     68848 TIP3     19644    TIP3     H2       HT       0.417000       1.00800           0
     68849 TIP3     19645    TIP3     OH2      OT      -0.834000       15.9994           0
     68850 TIP3     19645    TIP3     H1       HT       0.417000       1.00800           0
     68851 TIP3     19645    TIP3     H2       HT       0.417000       1.00800           0
     68852 TIP3     19646    TIP3     OH2      OT      -0.834000       15.9994           0
     68853 TIP3     19646    TIP3     H1       HT       0.417000       1.00800           0
     68854 TIP3     19646    TIP3     H2       HT       0.417000       1.00800           0
     68855 TIP3     19647    TIP3     OH2      OT      -0.834000       15.9994           0
     68856 TIP3     19647    TIP3     H1       HT       0.417000       1.00800           0
     68857 TIP3     19647    TIP3     H2       HT       0.417000       1.00800           0
     68858 TIP3     19648    TIP3     OH2      OT      -0.834000       15.9994           0
     68859 TIP3     19648    TIP3     H1       HT       0.417000       1.00800           0
     68860 TIP3     19648    TIP3     H2       HT       0.417000       1.00800           0
     68861 TIP3     19649    TIP3     OH2      OT      -0.834000       15.9994           0
     68862 TIP3     19649    TIP3     H1       HT       0.417000       1.00800           0
     68863 TIP3     19649    TIP3     H2       HT       0.417000       1.00800           0
     68864 TIP3     19650    TIP3     OH2      OT      -0.834000       15.9994           0
     68865 TIP3     19650    TIP3     H1       HT       0.417000       1.00800           0
     68866 TIP3     19650    TIP3     H2       HT       0.417000       1.00800           0
     68867 TIP3     19651    TIP3     OH2      OT      -0.834000       15.9994           0
     68868 TIP3     19651    TIP3     H1       HT       0.417000       1.00800           0
     68869 TIP3     19651    TIP3     H2       HT       0.417000       1.00800           0
     68870 TIP3     19652    TIP3     OH2      OT      -0.834000       15.9994           0
     68871 TIP3     19652    TIP3     H1       HT       0.417000       1.00800           0
     68872 TIP3     19652    TIP3     H2       HT       0.417000       1.00800           0
     68873 TIP3     19653    TIP3     OH2      OT      -0.834000       15.9994           0
     68874 TIP3     19653    TIP3     H1       HT       0.417000       1.00800           0
     68875 TIP3     19653    TIP3     H2       HT       0.417000       1.00800           0
     68876 TIP3     19654    TIP3     OH2      OT      -0.834000       15.9994           0
     68877 TIP3     19654    TIP3     H1       HT       0.417000       1.00800           0
     68878 TIP3     19654    TIP3     H2       HT       0.417000       1.00800           0
     68879 TIP3     19655    TIP3     OH2      OT      -0.834000       15.9994           0
     68880 TIP3     19655    TIP3     H1       HT       0.417000       1.00800           0
     68881 TIP3     19655    TIP3     H2       HT       0.417000       1.00800           0
     68882 TIP3     19656    TIP3     OH2      OT      -0.834000       15.9994           0
     68883 TIP3     19656    TIP3     H1       HT       0.417000       1.00800           0
     68884 TIP3     19656    TIP3     H2       HT       0.417000       1.00800           0
     68885 TIP3     19657    TIP3     OH2      OT      -0.834000       15.9994           0
     68886 TIP3     19657    TIP3     H1       HT       0.417000       1.00800           0
     68887 TIP3     19657    TIP3     H2       HT       0.417000       1.00800           0
     68888 TIP3     19658    TIP3     OH2      OT      -0.834000       15.9994           0
     68889 TIP3     19658    TIP3     H1       HT       0.417000       1.00800           0
     68890 TIP3     19658    TIP3     H2       HT       0.417000       1.00800           0
     68891 TIP3     19659    TIP3     OH2      OT      -0.834000       15.9994           0
     68892 TIP3     19659    TIP3     H1       HT       0.417000       1.00800           0
     68893 TIP3     19659    TIP3     H2       HT       0.417000       1.00800           0
     68894 TIP3     19660    TIP3     OH2      OT      -0.834000       15.9994           0
     68895 TIP3     19660    TIP3     H1       HT       0.417000       1.00800           0
     68896 TIP3     19660    TIP3     H2       HT       0.417000       1.00800           0
     68897 TIP3     19661    TIP3     OH2      OT      -0.834000       15.9994           0
     68898 TIP3     19661    TIP3     H1       HT       0.417000       1.00800           0
     68899 TIP3     19661    TIP3     H2       HT       0.417000       1.00800           0
     68900 TIP3     19662    TIP3     OH2      OT      -0.834000       15.9994           0
     68901 TIP3     19662    TIP3     H1       HT       0.417000       1.00800           0
     68902 TIP3     19662    TIP3     H2       HT       0.417000       1.00800           0
     68903 TIP3     19663    TIP3     OH2      OT      -0.834000       15.9994           0
     68904 TIP3     19663    TIP3     H1       HT       0.417000       1.00800           0
     68905 TIP3     19663    TIP3     H2       HT       0.417000       1.00800           0
     68906 TIP3     19664    TIP3     OH2      OT      -0.834000       15.9994           0
     68907 TIP3     19664    TIP3     H1       HT       0.417000       1.00800           0
     68908 TIP3     19664    TIP3     H2       HT       0.417000       1.00800           0
     68909 TIP3     19665    TIP3     OH2      OT      -0.834000       15.9994           0
     68910 TIP3     19665    TIP3     H1       HT       0.417000       1.00800           0
     68911 TIP3     19665    TIP3     H2       HT       0.417000       1.00800           0
     68912 TIP3     19666    TIP3     OH2      OT      -0.834000       15.9994           0
     68913 TIP3     19666    TIP3     H1       HT       0.417000       1.00800           0
     68914 TIP3     19666    TIP3     H2       HT       0.417000       1.00800           0
     68915 TIP3     19667    TIP3     OH2      OT      -0.834000       15.9994           0
     68916 TIP3     19667    TIP3     H1       HT       0.417000       1.00800           0
     68917 TIP3     19667    TIP3     H2       HT       0.417000       1.00800           0
     68918 TIP3     19668    TIP3     OH2      OT      -0.834000       15.9994           0
     68919 TIP3     19668    TIP3     H1       HT       0.417000       1.00800           0
     68920 TIP3     19668    TIP3     H2       HT       0.417000       1.00800           0
     68921 TIP3     19669    TIP3     OH2      OT      -0.834000       15.9994           0
     68922 TIP3     19669    TIP3     H1       HT       0.417000       1.00800           0
     68923 TIP3     19669    TIP3     H2       HT       0.417000       1.00800           0
     68924 TIP3     19670    TIP3     OH2      OT      -0.834000       15.9994           0
     68925 TIP3     19670    TIP3     H1       HT       0.417000       1.00800           0
     68926 TIP3     19670    TIP3     H2       HT       0.417000       1.00800           0
     68927 TIP3     19671    TIP3     OH2      OT      -0.834000       15.9994           0
     68928 TIP3     19671    TIP3     H1       HT       0.417000       1.00800           0
     68929 TIP3     19671    TIP3     H2       HT       0.417000       1.00800           0
     68930 TIP3     19672    TIP3     OH2      OT      -0.834000       15.9994           0
     68931 TIP3     19672    TIP3     H1       HT       0.417000       1.00800           0
     68932 TIP3     19672    TIP3     H2       HT       0.417000       1.00800           0
     68933 TIP3     19673    TIP3     OH2      OT      -0.834000       15.9994           0
     68934 TIP3     19673    TIP3     H1       HT       0.417000       1.00800           0
     68935 TIP3     19673    TIP3     H2       HT       0.417000       1.00800           0
     68936 TIP3     19674    TIP3     OH2      OT      -0.834000       15.9994           0
     68937 TIP3     19674    TIP3     H1       HT       0.417000       1.00800           0
     68938 TIP3     19674    TIP3     H2       HT       0.417000       1.00800           0
     68939 TIP3     19675    TIP3     OH2      OT      -0.834000       15.9994           0
     68940 TIP3     19675    TIP3     H1       HT       0.417000       1.00800           0
     68941 TIP3     19675    TIP3     H2       HT       0.417000       1.00800           0
     68942 TIP3     19676    TIP3     OH2      OT      -0.834000       15.9994           0
     68943 TIP3     19676    TIP3     H1       HT       0.417000       1.00800           0
     68944 TIP3     19676    TIP3     H2       HT       0.417000       1.00800           0
     68945 TIP3     19677    TIP3     OH2      OT      -0.834000       15.9994           0
     68946 TIP3     19677    TIP3     H1       HT       0.417000       1.00800           0
     68947 TIP3     19677    TIP3     H2       HT       0.417000       1.00800           0
     68948 TIP3     19678    TIP3     OH2      OT      -0.834000       15.9994           0
     68949 TIP3     19678    TIP3     H1       HT       0.417000       1.00800           0
     68950 TIP3     19678    TIP3     H2       HT       0.417000       1.00800           0
     68951 TIP3     19679    TIP3     OH2      OT      -0.834000       15.9994           0
     68952 TIP3     19679    TIP3     H1       HT       0.417000       1.00800           0
     68953 TIP3     19679    TIP3     H2       HT       0.417000       1.00800           0
     68954 TIP3     19680    TIP3     OH2      OT      -0.834000       15.9994           0
     68955 TIP3     19680    TIP3     H1       HT       0.417000       1.00800           0
     68956 TIP3     19680    TIP3     H2       HT       0.417000       1.00800           0
     68957 TIP3     19681    TIP3     OH2      OT      -0.834000       15.9994           0
     68958 TIP3     19681    TIP3     H1       HT       0.417000       1.00800           0
     68959 TIP3     19681    TIP3     H2       HT       0.417000       1.00800           0
     68960 TIP3     19682    TIP3     OH2      OT      -0.834000       15.9994           0
     68961 TIP3     19682    TIP3     H1       HT       0.417000       1.00800           0
     68962 TIP3     19682    TIP3     H2       HT       0.417000       1.00800           0
     68963 TIP3     19683    TIP3     OH2      OT      -0.834000       15.9994           0
     68964 TIP3     19683    TIP3     H1       HT       0.417000       1.00800           0
     68965 TIP3     19683    TIP3     H2       HT       0.417000       1.00800           0
     68966 TIP3     19684    TIP3     OH2      OT      -0.834000       15.9994           0
     68967 TIP3     19684    TIP3     H1       HT       0.417000       1.00800           0
     68968 TIP3     19684    TIP3     H2       HT       0.417000       1.00800           0
     68969 TIP3     19685    TIP3     OH2      OT      -0.834000       15.9994           0
     68970 TIP3     19685    TIP3     H1       HT       0.417000       1.00800           0
     68971 TIP3     19685    TIP3     H2       HT       0.417000       1.00800           0
     68972 TIP3     19686    TIP3     OH2      OT      -0.834000       15.9994           0
     68973 TIP3     19686    TIP3     H1       HT       0.417000       1.00800           0
     68974 TIP3     19686    TIP3     H2       HT       0.417000       1.00800           0
     68975 TIP3     19687    TIP3     OH2      OT      -0.834000       15.9994           0
     68976 TIP3     19687    TIP3     H1       HT       0.417000       1.00800           0
     68977 TIP3     19687    TIP3     H2       HT       0.417000       1.00800           0
     68978 TIP3     19688    TIP3     OH2      OT      -0.834000       15.9994           0
     68979 TIP3     19688    TIP3     H1       HT       0.417000       1.00800           0
     68980 TIP3     19688    TIP3     H2       HT       0.417000       1.00800           0
     68981 TIP3     19689    TIP3     OH2      OT      -0.834000       15.9994           0
     68982 TIP3     19689    TIP3     H1       HT       0.417000       1.00800           0
     68983 TIP3     19689    TIP3     H2       HT       0.417000       1.00800           0
     68984 TIP3     19690    TIP3     OH2      OT      -0.834000       15.9994           0
     68985 TIP3     19690    TIP3     H1       HT       0.417000       1.00800           0
     68986 TIP3     19690    TIP3     H2       HT       0.417000       1.00800           0
     68987 TIP3     19691    TIP3     OH2      OT      -0.834000       15.9994           0
     68988 TIP3     19691    TIP3     H1       HT       0.417000       1.00800           0
     68989 TIP3     19691    TIP3     H2       HT       0.417000       1.00800           0
     68990 TIP3     19692    TIP3     OH2      OT      -0.834000       15.9994           0
     68991 TIP3     19692    TIP3     H1       HT       0.417000       1.00800           0
     68992 TIP3     19692    TIP3     H2       HT       0.417000       1.00800           0
     68993 TIP3     19693    TIP3     OH2      OT      -0.834000       15.9994           0
     68994 TIP3     19693    TIP3     H1       HT       0.417000       1.00800           0
     68995 TIP3     19693    TIP3     H2       HT       0.417000       1.00800           0
     68996 TIP3     19694    TIP3     OH2      OT      -0.834000       15.9994           0
     68997 TIP3     19694    TIP3     H1       HT       0.417000       1.00800           0
     68998 TIP3     19694    TIP3     H2       HT       0.417000       1.00800           0
     68999 TIP3     19695    TIP3     OH2      OT      -0.834000       15.9994           0
     69000 TIP3     19695    TIP3     H1       HT       0.417000       1.00800           0
     69001 TIP3     19695    TIP3     H2       HT       0.417000       1.00800           0
     69002 TIP3     19696    TIP3     OH2      OT      -0.834000       15.9994           0
     69003 TIP3     19696    TIP3     H1       HT       0.417000       1.00800           0
     69004 TIP3     19696    TIP3     H2       HT       0.417000       1.00800           0
     69005 TIP3     19697    TIP3     OH2      OT      -0.834000       15.9994           0
     69006 TIP3     19697    TIP3     H1       HT       0.417000       1.00800           0
     69007 TIP3     19697    TIP3     H2       HT       0.417000       1.00800           0
     69008 TIP3     19698    TIP3     OH2      OT      -0.834000       15.9994           0
     69009 TIP3     19698    TIP3     H1       HT       0.417000       1.00800           0
     69010 TIP3     19698    TIP3     H2       HT       0.417000       1.00800           0
     69011 TIP3     19699    TIP3     OH2      OT      -0.834000       15.9994           0
     69012 TIP3     19699    TIP3     H1       HT       0.417000       1.00800           0
     69013 TIP3     19699    TIP3     H2       HT       0.417000       1.00800           0
     69014 TIP3     19700    TIP3     OH2      OT      -0.834000       15.9994           0
     69015 TIP3     19700    TIP3     H1       HT       0.417000       1.00800           0
     69016 TIP3     19700    TIP3     H2       HT       0.417000       1.00800           0
     69017 TIP3     19701    TIP3     OH2      OT      -0.834000       15.9994           0
     69018 TIP3     19701    TIP3     H1       HT       0.417000       1.00800           0
     69019 TIP3     19701    TIP3     H2       HT       0.417000       1.00800           0
     69020 TIP3     19702    TIP3     OH2      OT      -0.834000       15.9994           0
     69021 TIP3     19702    TIP3     H1       HT       0.417000       1.00800           0
     69022 TIP3     19702    TIP3     H2       HT       0.417000       1.00800           0
     69023 TIP3     19703    TIP3     OH2      OT      -0.834000       15.9994           0
     69024 TIP3     19703    TIP3     H1       HT       0.417000       1.00800           0
     69025 TIP3     19703    TIP3     H2       HT       0.417000       1.00800           0
     69026 TIP3     19704    TIP3     OH2      OT      -0.834000       15.9994           0
     69027 TIP3     19704    TIP3     H1       HT       0.417000       1.00800           0
     69028 TIP3     19704    TIP3     H2       HT       0.417000       1.00800           0
     69029 TIP3     19705    TIP3     OH2      OT      -0.834000       15.9994           0
     69030 TIP3     19705    TIP3     H1       HT       0.417000       1.00800           0
     69031 TIP3     19705    TIP3     H2       HT       0.417000       1.00800           0
     69032 TIP3     19706    TIP3     OH2      OT      -0.834000       15.9994           0
     69033 TIP3     19706    TIP3     H1       HT       0.417000       1.00800           0
     69034 TIP3     19706    TIP3     H2       HT       0.417000       1.00800           0
     69035 TIP3     19707    TIP3     OH2      OT      -0.834000       15.9994           0
     69036 TIP3     19707    TIP3     H1       HT       0.417000       1.00800           0
     69037 TIP3     19707    TIP3     H2       HT       0.417000       1.00800           0
     69038 TIP3     19708    TIP3     OH2      OT      -0.834000       15.9994           0
     69039 TIP3     19708    TIP3     H1       HT       0.417000       1.00800           0
     69040 TIP3     19708    TIP3     H2       HT       0.417000       1.00800           0
     69041 TIP3     19709    TIP3     OH2      OT      -0.834000       15.9994           0
     69042 TIP3     19709    TIP3     H1       HT       0.417000       1.00800           0
     69043 TIP3     19709    TIP3     H2       HT       0.417000       1.00800           0
     69044 TIP3     19710    TIP3     OH2      OT      -0.834000       15.9994           0
     69045 TIP3     19710    TIP3     H1       HT       0.417000       1.00800           0
     69046 TIP3     19710    TIP3     H2       HT       0.417000       1.00800           0
     69047 TIP3     19711    TIP3     OH2      OT      -0.834000       15.9994           0
     69048 TIP3     19711    TIP3     H1       HT       0.417000       1.00800           0
     69049 TIP3     19711    TIP3     H2       HT       0.417000       1.00800           0
     69050 TIP3     19712    TIP3     OH2      OT      -0.834000       15.9994           0
     69051 TIP3     19712    TIP3     H1       HT       0.417000       1.00800           0
     69052 TIP3     19712    TIP3     H2       HT       0.417000       1.00800           0
     69053 TIP3     19713    TIP3     OH2      OT      -0.834000       15.9994           0
     69054 TIP3     19713    TIP3     H1       HT       0.417000       1.00800           0
     69055 TIP3     19713    TIP3     H2       HT       0.417000       1.00800           0
     69056 TIP3     19714    TIP3     OH2      OT      -0.834000       15.9994           0
     69057 TIP3     19714    TIP3     H1       HT       0.417000       1.00800           0
     69058 TIP3     19714    TIP3     H2       HT       0.417000       1.00800           0
     69059 TIP3     19715    TIP3     OH2      OT      -0.834000       15.9994           0
     69060 TIP3     19715    TIP3     H1       HT       0.417000       1.00800           0
     69061 TIP3     19715    TIP3     H2       HT       0.417000       1.00800           0
     69062 TIP3     19716    TIP3     OH2      OT      -0.834000       15.9994           0
     69063 TIP3     19716    TIP3     H1       HT       0.417000       1.00800           0
     69064 TIP3     19716    TIP3     H2       HT       0.417000       1.00800           0
     69065 TIP3     19717    TIP3     OH2      OT      -0.834000       15.9994           0
     69066 TIP3     19717    TIP3     H1       HT       0.417000       1.00800           0
     69067 TIP3     19717    TIP3     H2       HT       0.417000       1.00800           0
     69068 TIP3     19718    TIP3     OH2      OT      -0.834000       15.9994           0
     69069 TIP3     19718    TIP3     H1       HT       0.417000       1.00800           0
     69070 TIP3     19718    TIP3     H2       HT       0.417000       1.00800           0
     69071 TIP3     19719    TIP3     OH2      OT      -0.834000       15.9994           0
     69072 TIP3     19719    TIP3     H1       HT       0.417000       1.00800           0
     69073 TIP3     19719    TIP3     H2       HT       0.417000       1.00800           0
     69074 TIP3     19720    TIP3     OH2      OT      -0.834000       15.9994           0
     69075 TIP3     19720    TIP3     H1       HT       0.417000       1.00800           0
     69076 TIP3     19720    TIP3     H2       HT       0.417000       1.00800           0
     69077 TIP3     19721    TIP3     OH2      OT      -0.834000       15.9994           0
     69078 TIP3     19721    TIP3     H1       HT       0.417000       1.00800           0
     69079 TIP3     19721    TIP3     H2       HT       0.417000       1.00800           0
     69080 TIP3     19722    TIP3     OH2      OT      -0.834000       15.9994           0
     69081 TIP3     19722    TIP3     H1       HT       0.417000       1.00800           0
     69082 TIP3     19722    TIP3     H2       HT       0.417000       1.00800           0
     69083 TIP3     19723    TIP3     OH2      OT      -0.834000       15.9994           0
     69084 TIP3     19723    TIP3     H1       HT       0.417000       1.00800           0
     69085 TIP3     19723    TIP3     H2       HT       0.417000       1.00800           0
     69086 TIP3     19724    TIP3     OH2      OT      -0.834000       15.9994           0
     69087 TIP3     19724    TIP3     H1       HT       0.417000       1.00800           0
     69088 TIP3     19724    TIP3     H2       HT       0.417000       1.00800           0
     69089 TIP3     19725    TIP3     OH2      OT      -0.834000       15.9994           0
     69090 TIP3     19725    TIP3     H1       HT       0.417000       1.00800           0
     69091 TIP3     19725    TIP3     H2       HT       0.417000       1.00800           0
     69092 TIP3     19726    TIP3     OH2      OT      -0.834000       15.9994           0
     69093 TIP3     19726    TIP3     H1       HT       0.417000       1.00800           0
     69094 TIP3     19726    TIP3     H2       HT       0.417000       1.00800           0
     69095 TIP3     19727    TIP3     OH2      OT      -0.834000       15.9994           0
     69096 TIP3     19727    TIP3     H1       HT       0.417000       1.00800           0
     69097 TIP3     19727    TIP3     H2       HT       0.417000       1.00800           0
     69098 TIP3     19728    TIP3     OH2      OT      -0.834000       15.9994           0
     69099 TIP3     19728    TIP3     H1       HT       0.417000       1.00800           0
     69100 TIP3     19728    TIP3     H2       HT       0.417000       1.00800           0
     69101 TIP3     19729    TIP3     OH2      OT      -0.834000       15.9994           0
     69102 TIP3     19729    TIP3     H1       HT       0.417000       1.00800           0
     69103 TIP3     19729    TIP3     H2       HT       0.417000       1.00800           0
     69104 TIP3     19730    TIP3     OH2      OT      -0.834000       15.9994           0
     69105 TIP3     19730    TIP3     H1       HT       0.417000       1.00800           0
     69106 TIP3     19730    TIP3     H2       HT       0.417000       1.00800           0
     69107 TIP3     19731    TIP3     OH2      OT      -0.834000       15.9994           0
     69108 TIP3     19731    TIP3     H1       HT       0.417000       1.00800           0
     69109 TIP3     19731    TIP3     H2       HT       0.417000       1.00800           0
     69110 TIP3     19732    TIP3     OH2      OT      -0.834000       15.9994           0
     69111 TIP3     19732    TIP3     H1       HT       0.417000       1.00800           0
     69112 TIP3     19732    TIP3     H2       HT       0.417000       1.00800           0
     69113 TIP3     19733    TIP3     OH2      OT      -0.834000       15.9994           0
     69114 TIP3     19733    TIP3     H1       HT       0.417000       1.00800           0
     69115 TIP3     19733    TIP3     H2       HT       0.417000       1.00800           0
     69116 TIP3     19734    TIP3     OH2      OT      -0.834000       15.9994           0
     69117 TIP3     19734    TIP3     H1       HT       0.417000       1.00800           0
     69118 TIP3     19734    TIP3     H2       HT       0.417000       1.00800           0
     69119 TIP3     19735    TIP3     OH2      OT      -0.834000       15.9994           0
     69120 TIP3     19735    TIP3     H1       HT       0.417000       1.00800           0
     69121 TIP3     19735    TIP3     H2       HT       0.417000       1.00800           0
     69122 TIP3     19736    TIP3     OH2      OT      -0.834000       15.9994           0
     69123 TIP3     19736    TIP3     H1       HT       0.417000       1.00800           0
     69124 TIP3     19736    TIP3     H2       HT       0.417000       1.00800           0
     69125 TIP3     19737    TIP3     OH2      OT      -0.834000       15.9994           0
     69126 TIP3     19737    TIP3     H1       HT       0.417000       1.00800           0
     69127 TIP3     19737    TIP3     H2       HT       0.417000       1.00800           0
     69128 TIP3     19738    TIP3     OH2      OT      -0.834000       15.9994           0
     69129 TIP3     19738    TIP3     H1       HT       0.417000       1.00800           0
     69130 TIP3     19738    TIP3     H2       HT       0.417000       1.00800           0
     69131 TIP3     19739    TIP3     OH2      OT      -0.834000       15.9994           0
     69132 TIP3     19739    TIP3     H1       HT       0.417000       1.00800           0
     69133 TIP3     19739    TIP3     H2       HT       0.417000       1.00800           0
     69134 TIP3     19740    TIP3     OH2      OT      -0.834000       15.9994           0
     69135 TIP3     19740    TIP3     H1       HT       0.417000       1.00800           0
     69136 TIP3     19740    TIP3     H2       HT       0.417000       1.00800           0
     69137 TIP3     19741    TIP3     OH2      OT      -0.834000       15.9994           0
     69138 TIP3     19741    TIP3     H1       HT       0.417000       1.00800           0
     69139 TIP3     19741    TIP3     H2       HT       0.417000       1.00800           0
     69140 TIP3     19742    TIP3     OH2      OT      -0.834000       15.9994           0
     69141 TIP3     19742    TIP3     H1       HT       0.417000       1.00800           0
     69142 TIP3     19742    TIP3     H2       HT       0.417000       1.00800           0
     69143 TIP3     19743    TIP3     OH2      OT      -0.834000       15.9994           0
     69144 TIP3     19743    TIP3     H1       HT       0.417000       1.00800           0
     69145 TIP3     19743    TIP3     H2       HT       0.417000       1.00800           0
     69146 TIP3     19744    TIP3     OH2      OT      -0.834000       15.9994           0
     69147 TIP3     19744    TIP3     H1       HT       0.417000       1.00800           0
     69148 TIP3     19744    TIP3     H2       HT       0.417000       1.00800           0
     69149 TIP3     19745    TIP3     OH2      OT      -0.834000       15.9994           0
     69150 TIP3     19745    TIP3     H1       HT       0.417000       1.00800           0
     69151 TIP3     19745    TIP3     H2       HT       0.417000       1.00800           0
     69152 TIP3     19746    TIP3     OH2      OT      -0.834000       15.9994           0
     69153 TIP3     19746    TIP3     H1       HT       0.417000       1.00800           0
     69154 TIP3     19746    TIP3     H2       HT       0.417000       1.00800           0
     69155 TIP3     19747    TIP3     OH2      OT      -0.834000       15.9994           0
     69156 TIP3     19747    TIP3     H1       HT       0.417000       1.00800           0
     69157 TIP3     19747    TIP3     H2       HT       0.417000       1.00800           0
     69158 TIP3     19748    TIP3     OH2      OT      -0.834000       15.9994           0
     69159 TIP3     19748    TIP3     H1       HT       0.417000       1.00800           0
     69160 TIP3     19748    TIP3     H2       HT       0.417000       1.00800           0
     69161 TIP3     19749    TIP3     OH2      OT      -0.834000       15.9994           0
     69162 TIP3     19749    TIP3     H1       HT       0.417000       1.00800           0
     69163 TIP3     19749    TIP3     H2       HT       0.417000       1.00800           0
     69164 TIP3     19750    TIP3     OH2      OT      -0.834000       15.9994           0
     69165 TIP3     19750    TIP3     H1       HT       0.417000       1.00800           0
     69166 TIP3     19750    TIP3     H2       HT       0.417000       1.00800           0
     69167 TIP3     19751    TIP3     OH2      OT      -0.834000       15.9994           0
     69168 TIP3     19751    TIP3     H1       HT       0.417000       1.00800           0
     69169 TIP3     19751    TIP3     H2       HT       0.417000       1.00800           0
     69170 TIP3     19752    TIP3     OH2      OT      -0.834000       15.9994           0
     69171 TIP3     19752    TIP3     H1       HT       0.417000       1.00800           0
     69172 TIP3     19752    TIP3     H2       HT       0.417000       1.00800           0
     69173 TIP3     19753    TIP3     OH2      OT      -0.834000       15.9994           0
     69174 TIP3     19753    TIP3     H1       HT       0.417000       1.00800           0
     69175 TIP3     19753    TIP3     H2       HT       0.417000       1.00800           0
     69176 TIP3     19754    TIP3     OH2      OT      -0.834000       15.9994           0
     69177 TIP3     19754    TIP3     H1       HT       0.417000       1.00800           0
     69178 TIP3     19754    TIP3     H2       HT       0.417000       1.00800           0
     69179 TIP3     19755    TIP3     OH2      OT      -0.834000       15.9994           0
     69180 TIP3     19755    TIP3     H1       HT       0.417000       1.00800           0
     69181 TIP3     19755    TIP3     H2       HT       0.417000       1.00800           0
     69182 TIP3     19756    TIP3     OH2      OT      -0.834000       15.9994           0
     69183 TIP3     19756    TIP3     H1       HT       0.417000       1.00800           0
     69184 TIP3     19756    TIP3     H2       HT       0.417000       1.00800           0
     69185 TIP3     19757    TIP3     OH2      OT      -0.834000       15.9994           0
     69186 TIP3     19757    TIP3     H1       HT       0.417000       1.00800           0
     69187 TIP3     19757    TIP3     H2       HT       0.417000       1.00800           0
     69188 TIP3     19758    TIP3     OH2      OT      -0.834000       15.9994           0
     69189 TIP3     19758    TIP3     H1       HT       0.417000       1.00800           0
     69190 TIP3     19758    TIP3     H2       HT       0.417000       1.00800           0
     69191 TIP3     19759    TIP3     OH2      OT      -0.834000       15.9994           0
     69192 TIP3     19759    TIP3     H1       HT       0.417000       1.00800           0
     69193 TIP3     19759    TIP3     H2       HT       0.417000       1.00800           0
     69194 TIP3     19760    TIP3     OH2      OT      -0.834000       15.9994           0
     69195 TIP3     19760    TIP3     H1       HT       0.417000       1.00800           0
     69196 TIP3     19760    TIP3     H2       HT       0.417000       1.00800           0
     69197 TIP3     19761    TIP3     OH2      OT      -0.834000       15.9994           0
     69198 TIP3     19761    TIP3     H1       HT       0.417000       1.00800           0
     69199 TIP3     19761    TIP3     H2       HT       0.417000       1.00800           0
     69200 TIP3     19762    TIP3     OH2      OT      -0.834000       15.9994           0
     69201 TIP3     19762    TIP3     H1       HT       0.417000       1.00800           0
     69202 TIP3     19762    TIP3     H2       HT       0.417000       1.00800           0
     69203 TIP3     19763    TIP3     OH2      OT      -0.834000       15.9994           0
     69204 TIP3     19763    TIP3     H1       HT       0.417000       1.00800           0
     69205 TIP3     19763    TIP3     H2       HT       0.417000       1.00800           0
     69206 TIP3     19764    TIP3     OH2      OT      -0.834000       15.9994           0
     69207 TIP3     19764    TIP3     H1       HT       0.417000       1.00800           0
     69208 TIP3     19764    TIP3     H2       HT       0.417000       1.00800           0
     69209 TIP3     19765    TIP3     OH2      OT      -0.834000       15.9994           0
     69210 TIP3     19765    TIP3     H1       HT       0.417000       1.00800           0
     69211 TIP3     19765    TIP3     H2       HT       0.417000       1.00800           0
     69212 TIP3     19766    TIP3     OH2      OT      -0.834000       15.9994           0
     69213 TIP3     19766    TIP3     H1       HT       0.417000       1.00800           0
     69214 TIP3     19766    TIP3     H2       HT       0.417000       1.00800           0
     69215 TIP3     19767    TIP3     OH2      OT      -0.834000       15.9994           0
     69216 TIP3     19767    TIP3     H1       HT       0.417000       1.00800           0
     69217 TIP3     19767    TIP3     H2       HT       0.417000       1.00800           0
     69218 TIP3     19768    TIP3     OH2      OT      -0.834000       15.9994           0
     69219 TIP3     19768    TIP3     H1       HT       0.417000       1.00800           0
     69220 TIP3     19768    TIP3     H2       HT       0.417000       1.00800           0
     69221 TIP3     19769    TIP3     OH2      OT      -0.834000       15.9994           0
     69222 TIP3     19769    TIP3     H1       HT       0.417000       1.00800           0
     69223 TIP3     19769    TIP3     H2       HT       0.417000       1.00800           0
     69224 TIP3     19770    TIP3     OH2      OT      -0.834000       15.9994           0
     69225 TIP3     19770    TIP3     H1       HT       0.417000       1.00800           0
     69226 TIP3     19770    TIP3     H2       HT       0.417000       1.00800           0
     69227 TIP3     19771    TIP3     OH2      OT      -0.834000       15.9994           0
     69228 TIP3     19771    TIP3     H1       HT       0.417000       1.00800           0
     69229 TIP3     19771    TIP3     H2       HT       0.417000       1.00800           0
     69230 TIP3     19772    TIP3     OH2      OT      -0.834000       15.9994           0
     69231 TIP3     19772    TIP3     H1       HT       0.417000       1.00800           0
     69232 TIP3     19772    TIP3     H2       HT       0.417000       1.00800           0
     69233 TIP3     19773    TIP3     OH2      OT      -0.834000       15.9994           0
     69234 TIP3     19773    TIP3     H1       HT       0.417000       1.00800           0
     69235 TIP3     19773    TIP3     H2       HT       0.417000       1.00800           0
     69236 TIP3     19774    TIP3     OH2      OT      -0.834000       15.9994           0
     69237 TIP3     19774    TIP3     H1       HT       0.417000       1.00800           0
     69238 TIP3     19774    TIP3     H2       HT       0.417000       1.00800           0
     69239 TIP3     19775    TIP3     OH2      OT      -0.834000       15.9994           0
     69240 TIP3     19775    TIP3     H1       HT       0.417000       1.00800           0
     69241 TIP3     19775    TIP3     H2       HT       0.417000       1.00800           0
     69242 TIP3     19776    TIP3     OH2      OT      -0.834000       15.9994           0
     69243 TIP3     19776    TIP3     H1       HT       0.417000       1.00800           0
     69244 TIP3     19776    TIP3     H2       HT       0.417000       1.00800           0
     69245 TIP3     19777    TIP3     OH2      OT      -0.834000       15.9994           0
     69246 TIP3     19777    TIP3     H1       HT       0.417000       1.00800           0
     69247 TIP3     19777    TIP3     H2       HT       0.417000       1.00800           0
     69248 TIP3     19778    TIP3     OH2      OT      -0.834000       15.9994           0
     69249 TIP3     19778    TIP3     H1       HT       0.417000       1.00800           0
     69250 TIP3     19778    TIP3     H2       HT       0.417000       1.00800           0
     69251 TIP3     19779    TIP3     OH2      OT      -0.834000       15.9994           0
     69252 TIP3     19779    TIP3     H1       HT       0.417000       1.00800           0
     69253 TIP3     19779    TIP3     H2       HT       0.417000       1.00800           0
     69254 TIP3     19780    TIP3     OH2      OT      -0.834000       15.9994           0
     69255 TIP3     19780    TIP3     H1       HT       0.417000       1.00800           0
     69256 TIP3     19780    TIP3     H2       HT       0.417000       1.00800           0
     69257 TIP3     19781    TIP3     OH2      OT      -0.834000       15.9994           0
     69258 TIP3     19781    TIP3     H1       HT       0.417000       1.00800           0
     69259 TIP3     19781    TIP3     H2       HT       0.417000       1.00800           0
     69260 TIP3     19782    TIP3     OH2      OT      -0.834000       15.9994           0
     69261 TIP3     19782    TIP3     H1       HT       0.417000       1.00800           0
     69262 TIP3     19782    TIP3     H2       HT       0.417000       1.00800           0
     69263 TIP3     19783    TIP3     OH2      OT      -0.834000       15.9994           0
     69264 TIP3     19783    TIP3     H1       HT       0.417000       1.00800           0
     69265 TIP3     19783    TIP3     H2       HT       0.417000       1.00800           0
     69266 TIP3     19784    TIP3     OH2      OT      -0.834000       15.9994           0
     69267 TIP3     19784    TIP3     H1       HT       0.417000       1.00800           0
     69268 TIP3     19784    TIP3     H2       HT       0.417000       1.00800           0
     69269 TIP3     19785    TIP3     OH2      OT      -0.834000       15.9994           0
     69270 TIP3     19785    TIP3     H1       HT       0.417000       1.00800           0
     69271 TIP3     19785    TIP3     H2       HT       0.417000       1.00800           0
     69272 TIP3     19786    TIP3     OH2      OT      -0.834000       15.9994           0
     69273 TIP3     19786    TIP3     H1       HT       0.417000       1.00800           0
     69274 TIP3     19786    TIP3     H2       HT       0.417000       1.00800           0
     69275 TIP3     19787    TIP3     OH2      OT      -0.834000       15.9994           0
     69276 TIP3     19787    TIP3     H1       HT       0.417000       1.00800           0
     69277 TIP3     19787    TIP3     H2       HT       0.417000       1.00800           0
     69278 TIP3     19788    TIP3     OH2      OT      -0.834000       15.9994           0
     69279 TIP3     19788    TIP3     H1       HT       0.417000       1.00800           0
     69280 TIP3     19788    TIP3     H2       HT       0.417000       1.00800           0
     69281 TIP3     19789    TIP3     OH2      OT      -0.834000       15.9994           0
     69282 TIP3     19789    TIP3     H1       HT       0.417000       1.00800           0
     69283 TIP3     19789    TIP3     H2       HT       0.417000       1.00800           0
     69284 TIP3     19790    TIP3     OH2      OT      -0.834000       15.9994           0
     69285 TIP3     19790    TIP3     H1       HT       0.417000       1.00800           0
     69286 TIP3     19790    TIP3     H2       HT       0.417000       1.00800           0
     69287 TIP3     19791    TIP3     OH2      OT      -0.834000       15.9994           0
     69288 TIP3     19791    TIP3     H1       HT       0.417000       1.00800           0
     69289 TIP3     19791    TIP3     H2       HT       0.417000       1.00800           0
     69290 TIP3     19792    TIP3     OH2      OT      -0.834000       15.9994           0
     69291 TIP3     19792    TIP3     H1       HT       0.417000       1.00800           0
     69292 TIP3     19792    TIP3     H2       HT       0.417000       1.00800           0
     69293 TIP3     19793    TIP3     OH2      OT      -0.834000       15.9994           0
     69294 TIP3     19793    TIP3     H1       HT       0.417000       1.00800           0
     69295 TIP3     19793    TIP3     H2       HT       0.417000       1.00800           0
     69296 TIP3     19794    TIP3     OH2      OT      -0.834000       15.9994           0
     69297 TIP3     19794    TIP3     H1       HT       0.417000       1.00800           0
     69298 TIP3     19794    TIP3     H2       HT       0.417000       1.00800           0
     69299 TIP3     19795    TIP3     OH2      OT      -0.834000       15.9994           0
     69300 TIP3     19795    TIP3     H1       HT       0.417000       1.00800           0
     69301 TIP3     19795    TIP3     H2       HT       0.417000       1.00800           0
     69302 TIP3     19796    TIP3     OH2      OT      -0.834000       15.9994           0
     69303 TIP3     19796    TIP3     H1       HT       0.417000       1.00800           0
     69304 TIP3     19796    TIP3     H2       HT       0.417000       1.00800           0
     69305 TIP3     19797    TIP3     OH2      OT      -0.834000       15.9994           0
     69306 TIP3     19797    TIP3     H1       HT       0.417000       1.00800           0
     69307 TIP3     19797    TIP3     H2       HT       0.417000       1.00800           0
     69308 TIP3     19798    TIP3     OH2      OT      -0.834000       15.9994           0
     69309 TIP3     19798    TIP3     H1       HT       0.417000       1.00800           0
     69310 TIP3     19798    TIP3     H2       HT       0.417000       1.00800           0
     69311 TIP3     19799    TIP3     OH2      OT      -0.834000       15.9994           0
     69312 TIP3     19799    TIP3     H1       HT       0.417000       1.00800           0
     69313 TIP3     19799    TIP3     H2       HT       0.417000       1.00800           0
     69314 TIP3     19800    TIP3     OH2      OT      -0.834000       15.9994           0
     69315 TIP3     19800    TIP3     H1       HT       0.417000       1.00800           0
     69316 TIP3     19800    TIP3     H2       HT       0.417000       1.00800           0
     69317 TIP3     19801    TIP3     OH2      OT      -0.834000       15.9994           0
     69318 TIP3     19801    TIP3     H1       HT       0.417000       1.00800           0
     69319 TIP3     19801    TIP3     H2       HT       0.417000       1.00800           0
     69320 TIP3     19802    TIP3     OH2      OT      -0.834000       15.9994           0
     69321 TIP3     19802    TIP3     H1       HT       0.417000       1.00800           0
     69322 TIP3     19802    TIP3     H2       HT       0.417000       1.00800           0
     69323 TIP3     19803    TIP3     OH2      OT      -0.834000       15.9994           0
     69324 TIP3     19803    TIP3     H1       HT       0.417000       1.00800           0
     69325 TIP3     19803    TIP3     H2       HT       0.417000       1.00800           0
     69326 TIP3     19804    TIP3     OH2      OT      -0.834000       15.9994           0
     69327 TIP3     19804    TIP3     H1       HT       0.417000       1.00800           0
     69328 TIP3     19804    TIP3     H2       HT       0.417000       1.00800           0
     69329 TIP3     19805    TIP3     OH2      OT      -0.834000       15.9994           0
     69330 TIP3     19805    TIP3     H1       HT       0.417000       1.00800           0
     69331 TIP3     19805    TIP3     H2       HT       0.417000       1.00800           0
     69332 TIP3     19806    TIP3     OH2      OT      -0.834000       15.9994           0
     69333 TIP3     19806    TIP3     H1       HT       0.417000       1.00800           0
     69334 TIP3     19806    TIP3     H2       HT       0.417000       1.00800           0
     69335 TIP3     19807    TIP3     OH2      OT      -0.834000       15.9994           0
     69336 TIP3     19807    TIP3     H1       HT       0.417000       1.00800           0
     69337 TIP3     19807    TIP3     H2       HT       0.417000       1.00800           0
     69338 TIP3     19808    TIP3     OH2      OT      -0.834000       15.9994           0
     69339 TIP3     19808    TIP3     H1       HT       0.417000       1.00800           0
     69340 TIP3     19808    TIP3     H2       HT       0.417000       1.00800           0
     69341 TIP3     19809    TIP3     OH2      OT      -0.834000       15.9994           0
     69342 TIP3     19809    TIP3     H1       HT       0.417000       1.00800           0
     69343 TIP3     19809    TIP3     H2       HT       0.417000       1.00800           0
     69344 TIP3     19810    TIP3     OH2      OT      -0.834000       15.9994           0
     69345 TIP3     19810    TIP3     H1       HT       0.417000       1.00800           0
     69346 TIP3     19810    TIP3     H2       HT       0.417000       1.00800           0
     69347 TIP3     19811    TIP3     OH2      OT      -0.834000       15.9994           0
     69348 TIP3     19811    TIP3     H1       HT       0.417000       1.00800           0
     69349 TIP3     19811    TIP3     H2       HT       0.417000       1.00800           0
     69350 TIP3     19812    TIP3     OH2      OT      -0.834000       15.9994           0
     69351 TIP3     19812    TIP3     H1       HT       0.417000       1.00800           0
     69352 TIP3     19812    TIP3     H2       HT       0.417000       1.00800           0
     69353 TIP3     19813    TIP3     OH2      OT      -0.834000       15.9994           0
     69354 TIP3     19813    TIP3     H1       HT       0.417000       1.00800           0
     69355 TIP3     19813    TIP3     H2       HT       0.417000       1.00800           0
     69356 TIP3     19814    TIP3     OH2      OT      -0.834000       15.9994           0
     69357 TIP3     19814    TIP3     H1       HT       0.417000       1.00800           0
     69358 TIP3     19814    TIP3     H2       HT       0.417000       1.00800           0
     69359 TIP3     19815    TIP3     OH2      OT      -0.834000       15.9994           0
     69360 TIP3     19815    TIP3     H1       HT       0.417000       1.00800           0
     69361 TIP3     19815    TIP3     H2       HT       0.417000       1.00800           0
     69362 TIP3     19816    TIP3     OH2      OT      -0.834000       15.9994           0
     69363 TIP3     19816    TIP3     H1       HT       0.417000       1.00800           0
     69364 TIP3     19816    TIP3     H2       HT       0.417000       1.00800           0
     69365 TIP3     19817    TIP3     OH2      OT      -0.834000       15.9994           0
     69366 TIP3     19817    TIP3     H1       HT       0.417000       1.00800           0
     69367 TIP3     19817    TIP3     H2       HT       0.417000       1.00800           0
     69368 TIP3     19818    TIP3     OH2      OT      -0.834000       15.9994           0
     69369 TIP3     19818    TIP3     H1       HT       0.417000       1.00800           0
     69370 TIP3     19818    TIP3     H2       HT       0.417000       1.00800           0
     69371 TIP3     19819    TIP3     OH2      OT      -0.834000       15.9994           0
     69372 TIP3     19819    TIP3     H1       HT       0.417000       1.00800           0
     69373 TIP3     19819    TIP3     H2       HT       0.417000       1.00800           0
     69374 TIP3     19820    TIP3     OH2      OT      -0.834000       15.9994           0
     69375 TIP3     19820    TIP3     H1       HT       0.417000       1.00800           0
     69376 TIP3     19820    TIP3     H2       HT       0.417000       1.00800           0
     69377 TIP3     19821    TIP3     OH2      OT      -0.834000       15.9994           0
     69378 TIP3     19821    TIP3     H1       HT       0.417000       1.00800           0
     69379 TIP3     19821    TIP3     H2       HT       0.417000       1.00800           0
     69380 TIP3     19822    TIP3     OH2      OT      -0.834000       15.9994           0
     69381 TIP3     19822    TIP3     H1       HT       0.417000       1.00800           0
     69382 TIP3     19822    TIP3     H2       HT       0.417000       1.00800           0
     69383 TIP3     19823    TIP3     OH2      OT      -0.834000       15.9994           0
     69384 TIP3     19823    TIP3     H1       HT       0.417000       1.00800           0
     69385 TIP3     19823    TIP3     H2       HT       0.417000       1.00800           0
     69386 TIP3     19824    TIP3     OH2      OT      -0.834000       15.9994           0
     69387 TIP3     19824    TIP3     H1       HT       0.417000       1.00800           0
     69388 TIP3     19824    TIP3     H2       HT       0.417000       1.00800           0
     69389 TIP3     19825    TIP3     OH2      OT      -0.834000       15.9994           0
     69390 TIP3     19825    TIP3     H1       HT       0.417000       1.00800           0
     69391 TIP3     19825    TIP3     H2       HT       0.417000       1.00800           0
     69392 TIP3     19826    TIP3     OH2      OT      -0.834000       15.9994           0
     69393 TIP3     19826    TIP3     H1       HT       0.417000       1.00800           0
     69394 TIP3     19826    TIP3     H2       HT       0.417000       1.00800           0
     69395 TIP3     19827    TIP3     OH2      OT      -0.834000       15.9994           0
     69396 TIP3     19827    TIP3     H1       HT       0.417000       1.00800           0
     69397 TIP3     19827    TIP3     H2       HT       0.417000       1.00800           0
     69398 TIP3     19828    TIP3     OH2      OT      -0.834000       15.9994           0
     69399 TIP3     19828    TIP3     H1       HT       0.417000       1.00800           0
     69400 TIP3     19828    TIP3     H2       HT       0.417000       1.00800           0
     69401 TIP3     19829    TIP3     OH2      OT      -0.834000       15.9994           0
     69402 TIP3     19829    TIP3     H1       HT       0.417000       1.00800           0
     69403 TIP3     19829    TIP3     H2       HT       0.417000       1.00800           0
     69404 TIP3     19830    TIP3     OH2      OT      -0.834000       15.9994           0
     69405 TIP3     19830    TIP3     H1       HT       0.417000       1.00800           0
     69406 TIP3     19830    TIP3     H2       HT       0.417000       1.00800           0
     69407 TIP3     19831    TIP3     OH2      OT      -0.834000       15.9994           0
     69408 TIP3     19831    TIP3     H1       HT       0.417000       1.00800           0
     69409 TIP3     19831    TIP3     H2       HT       0.417000       1.00800           0
     69410 TIP3     19832    TIP3     OH2      OT      -0.834000       15.9994           0
     69411 TIP3     19832    TIP3     H1       HT       0.417000       1.00800           0
     69412 TIP3     19832    TIP3     H2       HT       0.417000       1.00800           0
     69413 TIP3     19833    TIP3     OH2      OT      -0.834000       15.9994           0
     69414 TIP3     19833    TIP3     H1       HT       0.417000       1.00800           0
     69415 TIP3     19833    TIP3     H2       HT       0.417000       1.00800           0
     69416 TIP3     19834    TIP3     OH2      OT      -0.834000       15.9994           0
     69417 TIP3     19834    TIP3     H1       HT       0.417000       1.00800           0
     69418 TIP3     19834    TIP3     H2       HT       0.417000       1.00800           0
     69419 TIP3     19835    TIP3     OH2      OT      -0.834000       15.9994           0
     69420 TIP3     19835    TIP3     H1       HT       0.417000       1.00800           0
     69421 TIP3     19835    TIP3     H2       HT       0.417000       1.00800           0
     69422 TIP3     19836    TIP3     OH2      OT      -0.834000       15.9994           0
     69423 TIP3     19836    TIP3     H1       HT       0.417000       1.00800           0
     69424 TIP3     19836    TIP3     H2       HT       0.417000       1.00800           0
     69425 TIP3     19837    TIP3     OH2      OT      -0.834000       15.9994           0
     69426 TIP3     19837    TIP3     H1       HT       0.417000       1.00800           0
     69427 TIP3     19837    TIP3     H2       HT       0.417000       1.00800           0
     69428 TIP3     19838    TIP3     OH2      OT      -0.834000       15.9994           0
     69429 TIP3     19838    TIP3     H1       HT       0.417000       1.00800           0
     69430 TIP3     19838    TIP3     H2       HT       0.417000       1.00800           0
     69431 TIP3     19839    TIP3     OH2      OT      -0.834000       15.9994           0
     69432 TIP3     19839    TIP3     H1       HT       0.417000       1.00800           0
     69433 TIP3     19839    TIP3     H2       HT       0.417000       1.00800           0
     69434 TIP3     19840    TIP3     OH2      OT      -0.834000       15.9994           0
     69435 TIP3     19840    TIP3     H1       HT       0.417000       1.00800           0
     69436 TIP3     19840    TIP3     H2       HT       0.417000       1.00800           0
     69437 TIP3     19841    TIP3     OH2      OT      -0.834000       15.9994           0
     69438 TIP3     19841    TIP3     H1       HT       0.417000       1.00800           0
     69439 TIP3     19841    TIP3     H2       HT       0.417000       1.00800           0
     69440 TIP3     19842    TIP3     OH2      OT      -0.834000       15.9994           0
     69441 TIP3     19842    TIP3     H1       HT       0.417000       1.00800           0
     69442 TIP3     19842    TIP3     H2       HT       0.417000       1.00800           0
     69443 TIP3     19843    TIP3     OH2      OT      -0.834000       15.9994           0
     69444 TIP3     19843    TIP3     H1       HT       0.417000       1.00800           0
     69445 TIP3     19843    TIP3     H2       HT       0.417000       1.00800           0
     69446 TIP3     19844    TIP3     OH2      OT      -0.834000       15.9994           0
     69447 TIP3     19844    TIP3     H1       HT       0.417000       1.00800           0
     69448 TIP3     19844    TIP3     H2       HT       0.417000       1.00800           0
     69449 TIP3     19845    TIP3     OH2      OT      -0.834000       15.9994           0
     69450 TIP3     19845    TIP3     H1       HT       0.417000       1.00800           0
     69451 TIP3     19845    TIP3     H2       HT       0.417000       1.00800           0
     69452 TIP3     19846    TIP3     OH2      OT      -0.834000       15.9994           0
     69453 TIP3     19846    TIP3     H1       HT       0.417000       1.00800           0
     69454 TIP3     19846    TIP3     H2       HT       0.417000       1.00800           0
     69455 TIP3     19847    TIP3     OH2      OT      -0.834000       15.9994           0
     69456 TIP3     19847    TIP3     H1       HT       0.417000       1.00800           0
     69457 TIP3     19847    TIP3     H2       HT       0.417000       1.00800           0
     69458 TIP3     19848    TIP3     OH2      OT      -0.834000       15.9994           0
     69459 TIP3     19848    TIP3     H1       HT       0.417000       1.00800           0
     69460 TIP3     19848    TIP3     H2       HT       0.417000       1.00800           0
     69461 TIP3     19849    TIP3     OH2      OT      -0.834000       15.9994           0
     69462 TIP3     19849    TIP3     H1       HT       0.417000       1.00800           0
     69463 TIP3     19849    TIP3     H2       HT       0.417000       1.00800           0
     69464 TIP3     19850    TIP3     OH2      OT      -0.834000       15.9994           0
     69465 TIP3     19850    TIP3     H1       HT       0.417000       1.00800           0
     69466 TIP3     19850    TIP3     H2       HT       0.417000       1.00800           0
     69467 TIP3     19851    TIP3     OH2      OT      -0.834000       15.9994           0
     69468 TIP3     19851    TIP3     H1       HT       0.417000       1.00800           0
     69469 TIP3     19851    TIP3     H2       HT       0.417000       1.00800           0
     69470 TIP3     19852    TIP3     OH2      OT      -0.834000       15.9994           0
     69471 TIP3     19852    TIP3     H1       HT       0.417000       1.00800           0
     69472 TIP3     19852    TIP3     H2       HT       0.417000       1.00800           0
     69473 TIP3     19853    TIP3     OH2      OT      -0.834000       15.9994           0
     69474 TIP3     19853    TIP3     H1       HT       0.417000       1.00800           0
     69475 TIP3     19853    TIP3     H2       HT       0.417000       1.00800           0
     69476 TIP3     19854    TIP3     OH2      OT      -0.834000       15.9994           0
     69477 TIP3     19854    TIP3     H1       HT       0.417000       1.00800           0
     69478 TIP3     19854    TIP3     H2       HT       0.417000       1.00800           0
     69479 TIP3     19855    TIP3     OH2      OT      -0.834000       15.9994           0
     69480 TIP3     19855    TIP3     H1       HT       0.417000       1.00800           0
     69481 TIP3     19855    TIP3     H2       HT       0.417000       1.00800           0
     69482 TIP3     19856    TIP3     OH2      OT      -0.834000       15.9994           0
     69483 TIP3     19856    TIP3     H1       HT       0.417000       1.00800           0
     69484 TIP3     19856    TIP3     H2       HT       0.417000       1.00800           0
     69485 TIP3     19857    TIP3     OH2      OT      -0.834000       15.9994           0
     69486 TIP3     19857    TIP3     H1       HT       0.417000       1.00800           0
     69487 TIP3     19857    TIP3     H2       HT       0.417000       1.00800           0
     69488 TIP3     19858    TIP3     OH2      OT      -0.834000       15.9994           0
     69489 TIP3     19858    TIP3     H1       HT       0.417000       1.00800           0
     69490 TIP3     19858    TIP3     H2       HT       0.417000       1.00800           0
     69491 TIP3     19859    TIP3     OH2      OT      -0.834000       15.9994           0
     69492 TIP3     19859    TIP3     H1       HT       0.417000       1.00800           0
     69493 TIP3     19859    TIP3     H2       HT       0.417000       1.00800           0
     69494 TIP3     19860    TIP3     OH2      OT      -0.834000       15.9994           0
     69495 TIP3     19860    TIP3     H1       HT       0.417000       1.00800           0
     69496 TIP3     19860    TIP3     H2       HT       0.417000       1.00800           0
     69497 TIP3     19861    TIP3     OH2      OT      -0.834000       15.9994           0
     69498 TIP3     19861    TIP3     H1       HT       0.417000       1.00800           0
     69499 TIP3     19861    TIP3     H2       HT       0.417000       1.00800           0
     69500 TIP3     19862    TIP3     OH2      OT      -0.834000       15.9994           0
     69501 TIP3     19862    TIP3     H1       HT       0.417000       1.00800           0
     69502 TIP3     19862    TIP3     H2       HT       0.417000       1.00800           0
     69503 TIP3     19863    TIP3     OH2      OT      -0.834000       15.9994           0
     69504 TIP3     19863    TIP3     H1       HT       0.417000       1.00800           0
     69505 TIP3     19863    TIP3     H2       HT       0.417000       1.00800           0
     69506 TIP3     19864    TIP3     OH2      OT      -0.834000       15.9994           0
     69507 TIP3     19864    TIP3     H1       HT       0.417000       1.00800           0
     69508 TIP3     19864    TIP3     H2       HT       0.417000       1.00800           0
     69509 TIP3     19865    TIP3     OH2      OT      -0.834000       15.9994           0
     69510 TIP3     19865    TIP3     H1       HT       0.417000       1.00800           0
     69511 TIP3     19865    TIP3     H2       HT       0.417000       1.00800           0
     69512 TIP3     19866    TIP3     OH2      OT      -0.834000       15.9994           0
     69513 TIP3     19866    TIP3     H1       HT       0.417000       1.00800           0
     69514 TIP3     19866    TIP3     H2       HT       0.417000       1.00800           0
     69515 TIP3     19867    TIP3     OH2      OT      -0.834000       15.9994           0
     69516 TIP3     19867    TIP3     H1       HT       0.417000       1.00800           0
     69517 TIP3     19867    TIP3     H2       HT       0.417000       1.00800           0
     69518 TIP3     19868    TIP3     OH2      OT      -0.834000       15.9994           0
     69519 TIP3     19868    TIP3     H1       HT       0.417000       1.00800           0
     69520 TIP3     19868    TIP3     H2       HT       0.417000       1.00800           0
     69521 TIP3     19869    TIP3     OH2      OT      -0.834000       15.9994           0
     69522 TIP3     19869    TIP3     H1       HT       0.417000       1.00800           0
     69523 TIP3     19869    TIP3     H2       HT       0.417000       1.00800           0
     69524 TIP3     19870    TIP3     OH2      OT      -0.834000       15.9994           0
     69525 TIP3     19870    TIP3     H1       HT       0.417000       1.00800           0
     69526 TIP3     19870    TIP3     H2       HT       0.417000       1.00800           0
     69527 TIP3     19871    TIP3     OH2      OT      -0.834000       15.9994           0
     69528 TIP3     19871    TIP3     H1       HT       0.417000       1.00800           0
     69529 TIP3     19871    TIP3     H2       HT       0.417000       1.00800           0
     69530 TIP3     19872    TIP3     OH2      OT      -0.834000       15.9994           0
     69531 TIP3     19872    TIP3     H1       HT       0.417000       1.00800           0
     69532 TIP3     19872    TIP3     H2       HT       0.417000       1.00800           0
     69533 TIP3     19873    TIP3     OH2      OT      -0.834000       15.9994           0
     69534 TIP3     19873    TIP3     H1       HT       0.417000       1.00800           0
     69535 TIP3     19873    TIP3     H2       HT       0.417000       1.00800           0
     69536 TIP3     19874    TIP3     OH2      OT      -0.834000       15.9994           0
     69537 TIP3     19874    TIP3     H1       HT       0.417000       1.00800           0
     69538 TIP3     19874    TIP3     H2       HT       0.417000       1.00800           0
     69539 TIP3     19875    TIP3     OH2      OT      -0.834000       15.9994           0
     69540 TIP3     19875    TIP3     H1       HT       0.417000       1.00800           0
     69541 TIP3     19875    TIP3     H2       HT       0.417000       1.00800           0
     69542 TIP3     19876    TIP3     OH2      OT      -0.834000       15.9994           0
     69543 TIP3     19876    TIP3     H1       HT       0.417000       1.00800           0
     69544 TIP3     19876    TIP3     H2       HT       0.417000       1.00800           0
     69545 TIP3     19877    TIP3     OH2      OT      -0.834000       15.9994           0
     69546 TIP3     19877    TIP3     H1       HT       0.417000       1.00800           0
     69547 TIP3     19877    TIP3     H2       HT       0.417000       1.00800           0
     69548 TIP3     19878    TIP3     OH2      OT      -0.834000       15.9994           0
     69549 TIP3     19878    TIP3     H1       HT       0.417000       1.00800           0
     69550 TIP3     19878    TIP3     H2       HT       0.417000       1.00800           0
     69551 TIP3     19879    TIP3     OH2      OT      -0.834000       15.9994           0
     69552 TIP3     19879    TIP3     H1       HT       0.417000       1.00800           0
     69553 TIP3     19879    TIP3     H2       HT       0.417000       1.00800           0
     69554 TIP3     19880    TIP3     OH2      OT      -0.834000       15.9994           0
     69555 TIP3     19880    TIP3     H1       HT       0.417000       1.00800           0
     69556 TIP3     19880    TIP3     H2       HT       0.417000       1.00800           0
     69557 TIP3     19881    TIP3     OH2      OT      -0.834000       15.9994           0
     69558 TIP3     19881    TIP3     H1       HT       0.417000       1.00800           0
     69559 TIP3     19881    TIP3     H2       HT       0.417000       1.00800           0
     69560 TIP3     19882    TIP3     OH2      OT      -0.834000       15.9994           0
     69561 TIP3     19882    TIP3     H1       HT       0.417000       1.00800           0
     69562 TIP3     19882    TIP3     H2       HT       0.417000       1.00800           0
     69563 TIP3     19883    TIP3     OH2      OT      -0.834000       15.9994           0
     69564 TIP3     19883    TIP3     H1       HT       0.417000       1.00800           0
     69565 TIP3     19883    TIP3     H2       HT       0.417000       1.00800           0
     69566 TIP3     19884    TIP3     OH2      OT      -0.834000       15.9994           0
     69567 TIP3     19884    TIP3     H1       HT       0.417000       1.00800           0
     69568 TIP3     19884    TIP3     H2       HT       0.417000       1.00800           0
     69569 TIP3     19885    TIP3     OH2      OT      -0.834000       15.9994           0
     69570 TIP3     19885    TIP3     H1       HT       0.417000       1.00800           0
     69571 TIP3     19885    TIP3     H2       HT       0.417000       1.00800           0
     69572 TIP3     19886    TIP3     OH2      OT      -0.834000       15.9994           0
     69573 TIP3     19886    TIP3     H1       HT       0.417000       1.00800           0
     69574 TIP3     19886    TIP3     H2       HT       0.417000       1.00800           0
     69575 TIP3     19887    TIP3     OH2      OT      -0.834000       15.9994           0
     69576 TIP3     19887    TIP3     H1       HT       0.417000       1.00800           0
     69577 TIP3     19887    TIP3     H2       HT       0.417000       1.00800           0
     69578 TIP3     19888    TIP3     OH2      OT      -0.834000       15.9994           0
     69579 TIP3     19888    TIP3     H1       HT       0.417000       1.00800           0
     69580 TIP3     19888    TIP3     H2       HT       0.417000       1.00800           0
     69581 TIP3     19889    TIP3     OH2      OT      -0.834000       15.9994           0
     69582 TIP3     19889    TIP3     H1       HT       0.417000       1.00800           0
     69583 TIP3     19889    TIP3     H2       HT       0.417000       1.00800           0
     69584 TIP3     19890    TIP3     OH2      OT      -0.834000       15.9994           0
     69585 TIP3     19890    TIP3     H1       HT       0.417000       1.00800           0
     69586 TIP3     19890    TIP3     H2       HT       0.417000       1.00800           0
     69587 TIP3     19891    TIP3     OH2      OT      -0.834000       15.9994           0
     69588 TIP3     19891    TIP3     H1       HT       0.417000       1.00800           0
     69589 TIP3     19891    TIP3     H2       HT       0.417000       1.00800           0
     69590 TIP3     19892    TIP3     OH2      OT      -0.834000       15.9994           0
     69591 TIP3     19892    TIP3     H1       HT       0.417000       1.00800           0
     69592 TIP3     19892    TIP3     H2       HT       0.417000       1.00800           0
     69593 TIP3     19893    TIP3     OH2      OT      -0.834000       15.9994           0
     69594 TIP3     19893    TIP3     H1       HT       0.417000       1.00800           0
     69595 TIP3     19893    TIP3     H2       HT       0.417000       1.00800           0
     69596 TIP3     19894    TIP3     OH2      OT      -0.834000       15.9994           0
     69597 TIP3     19894    TIP3     H1       HT       0.417000       1.00800           0
     69598 TIP3     19894    TIP3     H2       HT       0.417000       1.00800           0
     69599 TIP3     19895    TIP3     OH2      OT      -0.834000       15.9994           0
     69600 TIP3     19895    TIP3     H1       HT       0.417000       1.00800           0
     69601 TIP3     19895    TIP3     H2       HT       0.417000       1.00800           0
     69602 TIP3     19896    TIP3     OH2      OT      -0.834000       15.9994           0
     69603 TIP3     19896    TIP3     H1       HT       0.417000       1.00800           0
     69604 TIP3     19896    TIP3     H2       HT       0.417000       1.00800           0
     69605 TIP3     19897    TIP3     OH2      OT      -0.834000       15.9994           0
     69606 TIP3     19897    TIP3     H1       HT       0.417000       1.00800           0
     69607 TIP3     19897    TIP3     H2       HT       0.417000       1.00800           0
     69608 TIP3     19898    TIP3     OH2      OT      -0.834000       15.9994           0
     69609 TIP3     19898    TIP3     H1       HT       0.417000       1.00800           0
     69610 TIP3     19898    TIP3     H2       HT       0.417000       1.00800           0
     69611 TIP3     19899    TIP3     OH2      OT      -0.834000       15.9994           0
     69612 TIP3     19899    TIP3     H1       HT       0.417000       1.00800           0
     69613 TIP3     19899    TIP3     H2       HT       0.417000       1.00800           0
     69614 TIP3     19900    TIP3     OH2      OT      -0.834000       15.9994           0
     69615 TIP3     19900    TIP3     H1       HT       0.417000       1.00800           0
     69616 TIP3     19900    TIP3     H2       HT       0.417000       1.00800           0
     69617 TIP3     19901    TIP3     OH2      OT      -0.834000       15.9994           0
     69618 TIP3     19901    TIP3     H1       HT       0.417000       1.00800           0
     69619 TIP3     19901    TIP3     H2       HT       0.417000       1.00800           0
     69620 TIP3     19902    TIP3     OH2      OT      -0.834000       15.9994           0
     69621 TIP3     19902    TIP3     H1       HT       0.417000       1.00800           0
     69622 TIP3     19902    TIP3     H2       HT       0.417000       1.00800           0
     69623 TIP3     19903    TIP3     OH2      OT      -0.834000       15.9994           0
     69624 TIP3     19903    TIP3     H1       HT       0.417000       1.00800           0
     69625 TIP3     19903    TIP3     H2       HT       0.417000       1.00800           0
     69626 TIP3     19904    TIP3     OH2      OT      -0.834000       15.9994           0
     69627 TIP3     19904    TIP3     H1       HT       0.417000       1.00800           0
     69628 TIP3     19904    TIP3     H2       HT       0.417000       1.00800           0
     69629 TIP3     19905    TIP3     OH2      OT      -0.834000       15.9994           0
     69630 TIP3     19905    TIP3     H1       HT       0.417000       1.00800           0
     69631 TIP3     19905    TIP3     H2       HT       0.417000       1.00800           0
     69632 TIP3     19906    TIP3     OH2      OT      -0.834000       15.9994           0
     69633 TIP3     19906    TIP3     H1       HT       0.417000       1.00800           0
     69634 TIP3     19906    TIP3     H2       HT       0.417000       1.00800           0
     69635 TIP3     19907    TIP3     OH2      OT      -0.834000       15.9994           0
     69636 TIP3     19907    TIP3     H1       HT       0.417000       1.00800           0
     69637 TIP3     19907    TIP3     H2       HT       0.417000       1.00800           0
     69638 TIP3     19908    TIP3     OH2      OT      -0.834000       15.9994           0
     69639 TIP3     19908    TIP3     H1       HT       0.417000       1.00800           0
     69640 TIP3     19908    TIP3     H2       HT       0.417000       1.00800           0
     69641 TIP3     19909    TIP3     OH2      OT      -0.834000       15.9994           0
     69642 TIP3     19909    TIP3     H1       HT       0.417000       1.00800           0
     69643 TIP3     19909    TIP3     H2       HT       0.417000       1.00800           0
     69644 TIP3     19910    TIP3     OH2      OT      -0.834000       15.9994           0
     69645 TIP3     19910    TIP3     H1       HT       0.417000       1.00800           0
     69646 TIP3     19910    TIP3     H2       HT       0.417000       1.00800           0
     69647 TIP3     19911    TIP3     OH2      OT      -0.834000       15.9994           0
     69648 TIP3     19911    TIP3     H1       HT       0.417000       1.00800           0
     69649 TIP3     19911    TIP3     H2       HT       0.417000       1.00800           0
     69650 TIP3     19912    TIP3     OH2      OT      -0.834000       15.9994           0
     69651 TIP3     19912    TIP3     H1       HT       0.417000       1.00800           0
     69652 TIP3     19912    TIP3     H2       HT       0.417000       1.00800           0
     69653 TIP3     19913    TIP3     OH2      OT      -0.834000       15.9994           0
     69654 TIP3     19913    TIP3     H1       HT       0.417000       1.00800           0
     69655 TIP3     19913    TIP3     H2       HT       0.417000       1.00800           0
     69656 TIP3     19914    TIP3     OH2      OT      -0.834000       15.9994           0
     69657 TIP3     19914    TIP3     H1       HT       0.417000       1.00800           0
     69658 TIP3     19914    TIP3     H2       HT       0.417000       1.00800           0
     69659 TIP3     19915    TIP3     OH2      OT      -0.834000       15.9994           0
     69660 TIP3     19915    TIP3     H1       HT       0.417000       1.00800           0
     69661 TIP3     19915    TIP3     H2       HT       0.417000       1.00800           0
     69662 TIP3     19916    TIP3     OH2      OT      -0.834000       15.9994           0
     69663 TIP3     19916    TIP3     H1       HT       0.417000       1.00800           0
     69664 TIP3     19916    TIP3     H2       HT       0.417000       1.00800           0
     69665 TIP3     19917    TIP3     OH2      OT      -0.834000       15.9994           0
     69666 TIP3     19917    TIP3     H1       HT       0.417000       1.00800           0
     69667 TIP3     19917    TIP3     H2       HT       0.417000       1.00800           0
     69668 TIP3     19918    TIP3     OH2      OT      -0.834000       15.9994           0
     69669 TIP3     19918    TIP3     H1       HT       0.417000       1.00800           0
     69670 TIP3     19918    TIP3     H2       HT       0.417000       1.00800           0
     69671 TIP3     19919    TIP3     OH2      OT      -0.834000       15.9994           0
     69672 TIP3     19919    TIP3     H1       HT       0.417000       1.00800           0
     69673 TIP3     19919    TIP3     H2       HT       0.417000       1.00800           0
     69674 TIP3     19920    TIP3     OH2      OT      -0.834000       15.9994           0
     69675 TIP3     19920    TIP3     H1       HT       0.417000       1.00800           0
     69676 TIP3     19920    TIP3     H2       HT       0.417000       1.00800           0
     69677 TIP3     19921    TIP3     OH2      OT      -0.834000       15.9994           0
     69678 TIP3     19921    TIP3     H1       HT       0.417000       1.00800           0
     69679 TIP3     19921    TIP3     H2       HT       0.417000       1.00800           0
     69680 TIP3     19922    TIP3     OH2      OT      -0.834000       15.9994           0
     69681 TIP3     19922    TIP3     H1       HT       0.417000       1.00800           0
     69682 TIP3     19922    TIP3     H2       HT       0.417000       1.00800           0
     69683 TIP3     19923    TIP3     OH2      OT      -0.834000       15.9994           0
     69684 TIP3     19923    TIP3     H1       HT       0.417000       1.00800           0
     69685 TIP3     19923    TIP3     H2       HT       0.417000       1.00800           0
     69686 TIP3     19924    TIP3     OH2      OT      -0.834000       15.9994           0
     69687 TIP3     19924    TIP3     H1       HT       0.417000       1.00800           0
     69688 TIP3     19924    TIP3     H2       HT       0.417000       1.00800           0
     69689 TIP3     19925    TIP3     OH2      OT      -0.834000       15.9994           0
     69690 TIP3     19925    TIP3     H1       HT       0.417000       1.00800           0
     69691 TIP3     19925    TIP3     H2       HT       0.417000       1.00800           0
     69692 TIP3     19926    TIP3     OH2      OT      -0.834000       15.9994           0
     69693 TIP3     19926    TIP3     H1       HT       0.417000       1.00800           0
     69694 TIP3     19926    TIP3     H2       HT       0.417000       1.00800           0
     69695 TIP3     19927    TIP3     OH2      OT      -0.834000       15.9994           0
     69696 TIP3     19927    TIP3     H1       HT       0.417000       1.00800           0
     69697 TIP3     19927    TIP3     H2       HT       0.417000       1.00800           0
     69698 TIP3     19928    TIP3     OH2      OT      -0.834000       15.9994           0
     69699 TIP3     19928    TIP3     H1       HT       0.417000       1.00800           0
     69700 TIP3     19928    TIP3     H2       HT       0.417000       1.00800           0
     69701 TIP3     19929    TIP3     OH2      OT      -0.834000       15.9994           0
     69702 TIP3     19929    TIP3     H1       HT       0.417000       1.00800           0
     69703 TIP3     19929    TIP3     H2       HT       0.417000       1.00800           0
     69704 TIP3     19930    TIP3     OH2      OT      -0.834000       15.9994           0
     69705 TIP3     19930    TIP3     H1       HT       0.417000       1.00800           0
     69706 TIP3     19930    TIP3     H2       HT       0.417000       1.00800           0
     69707 TIP3     19931    TIP3     OH2      OT      -0.834000       15.9994           0
     69708 TIP3     19931    TIP3     H1       HT       0.417000       1.00800           0
     69709 TIP3     19931    TIP3     H2       HT       0.417000       1.00800           0
     69710 TIP3     19932    TIP3     OH2      OT      -0.834000       15.9994           0
     69711 TIP3     19932    TIP3     H1       HT       0.417000       1.00800           0
     69712 TIP3     19932    TIP3     H2       HT       0.417000       1.00800           0
     69713 TIP3     19933    TIP3     OH2      OT      -0.834000       15.9994           0
     69714 TIP3     19933    TIP3     H1       HT       0.417000       1.00800           0
     69715 TIP3     19933    TIP3     H2       HT       0.417000       1.00800           0
     69716 TIP3     19934    TIP3     OH2      OT      -0.834000       15.9994           0
     69717 TIP3     19934    TIP3     H1       HT       0.417000       1.00800           0
     69718 TIP3     19934    TIP3     H2       HT       0.417000       1.00800           0
     69719 TIP3     19935    TIP3     OH2      OT      -0.834000       15.9994           0
     69720 TIP3     19935    TIP3     H1       HT       0.417000       1.00800           0
     69721 TIP3     19935    TIP3     H2       HT       0.417000       1.00800           0
     69722 TIP3     19936    TIP3     OH2      OT      -0.834000       15.9994           0
     69723 TIP3     19936    TIP3     H1       HT       0.417000       1.00800           0
     69724 TIP3     19936    TIP3     H2       HT       0.417000       1.00800           0
     69725 TIP3     19937    TIP3     OH2      OT      -0.834000       15.9994           0
     69726 TIP3     19937    TIP3     H1       HT       0.417000       1.00800           0
     69727 TIP3     19937    TIP3     H2       HT       0.417000       1.00800           0
     69728 TIP3     19938    TIP3     OH2      OT      -0.834000       15.9994           0
     69729 TIP3     19938    TIP3     H1       HT       0.417000       1.00800           0
     69730 TIP3     19938    TIP3     H2       HT       0.417000       1.00800           0
     69731 TIP3     19939    TIP3     OH2      OT      -0.834000       15.9994           0
     69732 TIP3     19939    TIP3     H1       HT       0.417000       1.00800           0
     69733 TIP3     19939    TIP3     H2       HT       0.417000       1.00800           0
     69734 TIP3     19940    TIP3     OH2      OT      -0.834000       15.9994           0
     69735 TIP3     19940    TIP3     H1       HT       0.417000       1.00800           0
     69736 TIP3     19940    TIP3     H2       HT       0.417000       1.00800           0
     69737 TIP3     19941    TIP3     OH2      OT      -0.834000       15.9994           0
     69738 TIP3     19941    TIP3     H1       HT       0.417000       1.00800           0
     69739 TIP3     19941    TIP3     H2       HT       0.417000       1.00800           0
     69740 TIP3     19942    TIP3     OH2      OT      -0.834000       15.9994           0
     69741 TIP3     19942    TIP3     H1       HT       0.417000       1.00800           0
     69742 TIP3     19942    TIP3     H2       HT       0.417000       1.00800           0
     69743 TIP3     19943    TIP3     OH2      OT      -0.834000       15.9994           0
     69744 TIP3     19943    TIP3     H1       HT       0.417000       1.00800           0
     69745 TIP3     19943    TIP3     H2       HT       0.417000       1.00800           0
     69746 TIP3     19944    TIP3     OH2      OT      -0.834000       15.9994           0
     69747 TIP3     19944    TIP3     H1       HT       0.417000       1.00800           0
     69748 TIP3     19944    TIP3     H2       HT       0.417000       1.00800           0
     69749 TIP3     19945    TIP3     OH2      OT      -0.834000       15.9994           0
     69750 TIP3     19945    TIP3     H1       HT       0.417000       1.00800           0
     69751 TIP3     19945    TIP3     H2       HT       0.417000       1.00800           0
     69752 TIP3     19946    TIP3     OH2      OT      -0.834000       15.9994           0
     69753 TIP3     19946    TIP3     H1       HT       0.417000       1.00800           0
     69754 TIP3     19946    TIP3     H2       HT       0.417000       1.00800           0
     69755 TIP3     19947    TIP3     OH2      OT      -0.834000       15.9994           0
     69756 TIP3     19947    TIP3     H1       HT       0.417000       1.00800           0
     69757 TIP3     19947    TIP3     H2       HT       0.417000       1.00800           0
     69758 TIP3     19948    TIP3     OH2      OT      -0.834000       15.9994           0
     69759 TIP3     19948    TIP3     H1       HT       0.417000       1.00800           0
     69760 TIP3     19948    TIP3     H2       HT       0.417000       1.00800           0
     69761 TIP3     19949    TIP3     OH2      OT      -0.834000       15.9994           0
     69762 TIP3     19949    TIP3     H1       HT       0.417000       1.00800           0
     69763 TIP3     19949    TIP3     H2       HT       0.417000       1.00800           0
     69764 TIP3     19950    TIP3     OH2      OT      -0.834000       15.9994           0
     69765 TIP3     19950    TIP3     H1       HT       0.417000       1.00800           0
     69766 TIP3     19950    TIP3     H2       HT       0.417000       1.00800           0
     69767 TIP3     19951    TIP3     OH2      OT      -0.834000       15.9994           0
     69768 TIP3     19951    TIP3     H1       HT       0.417000       1.00800           0
     69769 TIP3     19951    TIP3     H2       HT       0.417000       1.00800           0
     69770 TIP3     19952    TIP3     OH2      OT      -0.834000       15.9994           0
     69771 TIP3     19952    TIP3     H1       HT       0.417000       1.00800           0
     69772 TIP3     19952    TIP3     H2       HT       0.417000       1.00800           0
     69773 TIP3     19953    TIP3     OH2      OT      -0.834000       15.9994           0
     69774 TIP3     19953    TIP3     H1       HT       0.417000       1.00800           0
     69775 TIP3     19953    TIP3     H2       HT       0.417000       1.00800           0
     69776 TIP3     19954    TIP3     OH2      OT      -0.834000       15.9994           0
     69777 TIP3     19954    TIP3     H1       HT       0.417000       1.00800           0
     69778 TIP3     19954    TIP3     H2       HT       0.417000       1.00800           0
     69779 TIP3     19955    TIP3     OH2      OT      -0.834000       15.9994           0
     69780 TIP3     19955    TIP3     H1       HT       0.417000       1.00800           0
     69781 TIP3     19955    TIP3     H2       HT       0.417000       1.00800           0
     69782 TIP3     19956    TIP3     OH2      OT      -0.834000       15.9994           0
     69783 TIP3     19956    TIP3     H1       HT       0.417000       1.00800           0
     69784 TIP3     19956    TIP3     H2       HT       0.417000       1.00800           0
     69785 TIP3     19957    TIP3     OH2      OT      -0.834000       15.9994           0
     69786 TIP3     19957    TIP3     H1       HT       0.417000       1.00800           0
     69787 TIP3     19957    TIP3     H2       HT       0.417000       1.00800           0
     69788 TIP3     19958    TIP3     OH2      OT      -0.834000       15.9994           0
     69789 TIP3     19958    TIP3     H1       HT       0.417000       1.00800           0
     69790 TIP3     19958    TIP3     H2       HT       0.417000       1.00800           0
     69791 TIP3     19959    TIP3     OH2      OT      -0.834000       15.9994           0
     69792 TIP3     19959    TIP3     H1       HT       0.417000       1.00800           0
     69793 TIP3     19959    TIP3     H2       HT       0.417000       1.00800           0
     69794 TIP3     19960    TIP3     OH2      OT      -0.834000       15.9994           0
     69795 TIP3     19960    TIP3     H1       HT       0.417000       1.00800           0
     69796 TIP3     19960    TIP3     H2       HT       0.417000       1.00800           0
     69797 TIP3     19961    TIP3     OH2      OT      -0.834000       15.9994           0
     69798 TIP3     19961    TIP3     H1       HT       0.417000       1.00800           0
     69799 TIP3     19961    TIP3     H2       HT       0.417000       1.00800           0
     69800 TIP3     19962    TIP3     OH2      OT      -0.834000       15.9994           0
     69801 TIP3     19962    TIP3     H1       HT       0.417000       1.00800           0
     69802 TIP3     19962    TIP3     H2       HT       0.417000       1.00800           0
     69803 TIP3     19963    TIP3     OH2      OT      -0.834000       15.9994           0
     69804 TIP3     19963    TIP3     H1       HT       0.417000       1.00800           0
     69805 TIP3     19963    TIP3     H2       HT       0.417000       1.00800           0
     69806 TIP3     19964    TIP3     OH2      OT      -0.834000       15.9994           0
     69807 TIP3     19964    TIP3     H1       HT       0.417000       1.00800           0
     69808 TIP3     19964    TIP3     H2       HT       0.417000       1.00800           0
     69809 TIP3     19965    TIP3     OH2      OT      -0.834000       15.9994           0
     69810 TIP3     19965    TIP3     H1       HT       0.417000       1.00800           0
     69811 TIP3     19965    TIP3     H2       HT       0.417000       1.00800           0
     69812 TIP3     19966    TIP3     OH2      OT      -0.834000       15.9994           0
     69813 TIP3     19966    TIP3     H1       HT       0.417000       1.00800           0
     69814 TIP3     19966    TIP3     H2       HT       0.417000       1.00800           0
     69815 TIP3     19967    TIP3     OH2      OT      -0.834000       15.9994           0
     69816 TIP3     19967    TIP3     H1       HT       0.417000       1.00800           0
     69817 TIP3     19967    TIP3     H2       HT       0.417000       1.00800           0
     69818 TIP3     19968    TIP3     OH2      OT      -0.834000       15.9994           0
     69819 TIP3     19968    TIP3     H1       HT       0.417000       1.00800           0
     69820 TIP3     19968    TIP3     H2       HT       0.417000       1.00800           0
     69821 TIP3     19969    TIP3     OH2      OT      -0.834000       15.9994           0
     69822 TIP3     19969    TIP3     H1       HT       0.417000       1.00800           0
     69823 TIP3     19969    TIP3     H2       HT       0.417000       1.00800           0
     69824 TIP3     19970    TIP3     OH2      OT      -0.834000       15.9994           0
     69825 TIP3     19970    TIP3     H1       HT       0.417000       1.00800           0
     69826 TIP3     19970    TIP3     H2       HT       0.417000       1.00800           0
     69827 TIP3     19971    TIP3     OH2      OT      -0.834000       15.9994           0
     69828 TIP3     19971    TIP3     H1       HT       0.417000       1.00800           0
     69829 TIP3     19971    TIP3     H2       HT       0.417000       1.00800           0
     69830 TIP3     19972    TIP3     OH2      OT      -0.834000       15.9994           0
     69831 TIP3     19972    TIP3     H1       HT       0.417000       1.00800           0
     69832 TIP3     19972    TIP3     H2       HT       0.417000       1.00800           0
     69833 TIP3     19973    TIP3     OH2      OT      -0.834000       15.9994           0
     69834 TIP3     19973    TIP3     H1       HT       0.417000       1.00800           0
     69835 TIP3     19973    TIP3     H2       HT       0.417000       1.00800           0
     69836 TIP3     19974    TIP3     OH2      OT      -0.834000       15.9994           0
     69837 TIP3     19974    TIP3     H1       HT       0.417000       1.00800           0
     69838 TIP3     19974    TIP3     H2       HT       0.417000       1.00800           0
     69839 TIP3     19975    TIP3     OH2      OT      -0.834000       15.9994           0
     69840 TIP3     19975    TIP3     H1       HT       0.417000       1.00800           0
     69841 TIP3     19975    TIP3     H2       HT       0.417000       1.00800           0
     69842 TIP3     19976    TIP3     OH2      OT      -0.834000       15.9994           0
     69843 TIP3     19976    TIP3     H1       HT       0.417000       1.00800           0
     69844 TIP3     19976    TIP3     H2       HT       0.417000       1.00800           0
     69845 TIP3     19977    TIP3     OH2      OT      -0.834000       15.9994           0
     69846 TIP3     19977    TIP3     H1       HT       0.417000       1.00800           0
     69847 TIP3     19977    TIP3     H2       HT       0.417000       1.00800           0
     69848 TIP3     19978    TIP3     OH2      OT      -0.834000       15.9994           0
     69849 TIP3     19978    TIP3     H1       HT       0.417000       1.00800           0
     69850 TIP3     19978    TIP3     H2       HT       0.417000       1.00800           0
     69851 TIP3     19979    TIP3     OH2      OT      -0.834000       15.9994           0
     69852 TIP3     19979    TIP3     H1       HT       0.417000       1.00800           0
     69853 TIP3     19979    TIP3     H2       HT       0.417000       1.00800           0
     69854 TIP3     19980    TIP3     OH2      OT      -0.834000       15.9994           0
     69855 TIP3     19980    TIP3     H1       HT       0.417000       1.00800           0
     69856 TIP3     19980    TIP3     H2       HT       0.417000       1.00800           0
     69857 TIP3     19981    TIP3     OH2      OT      -0.834000       15.9994           0
     69858 TIP3     19981    TIP3     H1       HT       0.417000       1.00800           0
     69859 TIP3     19981    TIP3     H2       HT       0.417000       1.00800           0
     69860 TIP3     19982    TIP3     OH2      OT      -0.834000       15.9994           0
     69861 TIP3     19982    TIP3     H1       HT       0.417000       1.00800           0
     69862 TIP3     19982    TIP3     H2       HT       0.417000       1.00800           0
     69863 TIP3     19983    TIP3     OH2      OT      -0.834000       15.9994           0
     69864 TIP3     19983    TIP3     H1       HT       0.417000       1.00800           0
     69865 TIP3     19983    TIP3     H2       HT       0.417000       1.00800           0
     69866 TIP3     19984    TIP3     OH2      OT      -0.834000       15.9994           0
     69867 TIP3     19984    TIP3     H1       HT       0.417000       1.00800           0
     69868 TIP3     19984    TIP3     H2       HT       0.417000       1.00800           0
     69869 TIP3     19985    TIP3     OH2      OT      -0.834000       15.9994           0
     69870 TIP3     19985    TIP3     H1       HT       0.417000       1.00800           0
     69871 TIP3     19985    TIP3     H2       HT       0.417000       1.00800           0
     69872 TIP3     19986    TIP3     OH2      OT      -0.834000       15.9994           0
     69873 TIP3     19986    TIP3     H1       HT       0.417000       1.00800           0
     69874 TIP3     19986    TIP3     H2       HT       0.417000       1.00800           0
     69875 TIP3     19987    TIP3     OH2      OT      -0.834000       15.9994           0
     69876 TIP3     19987    TIP3     H1       HT       0.417000       1.00800           0
     69877 TIP3     19987    TIP3     H2       HT       0.417000       1.00800           0
     69878 TIP3     19988    TIP3     OH2      OT      -0.834000       15.9994           0
     69879 TIP3     19988    TIP3     H1       HT       0.417000       1.00800           0
     69880 TIP3     19988    TIP3     H2       HT       0.417000       1.00800           0
     69881 TIP3     19989    TIP3     OH2      OT      -0.834000       15.9994           0
     69882 TIP3     19989    TIP3     H1       HT       0.417000       1.00800           0
     69883 TIP3     19989    TIP3     H2       HT       0.417000       1.00800           0
     69884 TIP3     19990    TIP3     OH2      OT      -0.834000       15.9994           0
     69885 TIP3     19990    TIP3     H1       HT       0.417000       1.00800           0
     69886 TIP3     19990    TIP3     H2       HT       0.417000       1.00800           0
     69887 TIP3     19991    TIP3     OH2      OT      -0.834000       15.9994           0
     69888 TIP3     19991    TIP3     H1       HT       0.417000       1.00800           0
     69889 TIP3     19991    TIP3     H2       HT       0.417000       1.00800           0
     69890 TIP3     19992    TIP3     OH2      OT      -0.834000       15.9994           0
     69891 TIP3     19992    TIP3     H1       HT       0.417000       1.00800           0
     69892 TIP3     19992    TIP3     H2       HT       0.417000       1.00800           0
     69893 TIP3     19993    TIP3     OH2      OT      -0.834000       15.9994           0
     69894 TIP3     19993    TIP3     H1       HT       0.417000       1.00800           0
     69895 TIP3     19993    TIP3     H2       HT       0.417000       1.00800           0
     69896 TIP3     19994    TIP3     OH2      OT      -0.834000       15.9994           0
     69897 TIP3     19994    TIP3     H1       HT       0.417000       1.00800           0
     69898 TIP3     19994    TIP3     H2       HT       0.417000       1.00800           0
     69899 TIP3     19995    TIP3     OH2      OT      -0.834000       15.9994           0
     69900 TIP3     19995    TIP3     H1       HT       0.417000       1.00800           0
     69901 TIP3     19995    TIP3     H2       HT       0.417000       1.00800           0
     69902 TIP3     19996    TIP3     OH2      OT      -0.834000       15.9994           0
     69903 TIP3     19996    TIP3     H1       HT       0.417000       1.00800           0
     69904 TIP3     19996    TIP3     H2       HT       0.417000       1.00800           0
     69905 TIP3     19997    TIP3     OH2      OT      -0.834000       15.9994           0
     69906 TIP3     19997    TIP3     H1       HT       0.417000       1.00800           0
     69907 TIP3     19997    TIP3     H2       HT       0.417000       1.00800           0
     69908 TIP3     19998    TIP3     OH2      OT      -0.834000       15.9994           0
     69909 TIP3     19998    TIP3     H1       HT       0.417000       1.00800           0
     69910 TIP3     19998    TIP3     H2       HT       0.417000       1.00800           0
     69911 TIP3     19999    TIP3     OH2      OT      -0.834000       15.9994           0
     69912 TIP3     19999    TIP3     H1       HT       0.417000       1.00800           0
     69913 TIP3     19999    TIP3     H2       HT       0.417000       1.00800           0
     69914 TIP3     20000    TIP3     OH2      OT      -0.834000       15.9994           0
     69915 TIP3     20000    TIP3     H1       HT       0.417000       1.00800           0
     69916 TIP3     20000    TIP3     H2       HT       0.417000       1.00800           0
     69917 TIP3     20001    TIP3     OH2      OT      -0.834000       15.9994           0
     69918 TIP3     20001    TIP3     H1       HT       0.417000       1.00800           0
     69919 TIP3     20001    TIP3     H2       HT       0.417000       1.00800           0
     69920 TIP3     20002    TIP3     OH2      OT      -0.834000       15.9994           0
     69921 TIP3     20002    TIP3     H1       HT       0.417000       1.00800           0
     69922 TIP3     20002    TIP3     H2       HT       0.417000       1.00800           0
     69923 TIP3     20003    TIP3     OH2      OT      -0.834000       15.9994           0
     69924 TIP3     20003    TIP3     H1       HT       0.417000       1.00800           0
     69925 TIP3     20003    TIP3     H2       HT       0.417000       1.00800           0
     69926 TIP3     20004    TIP3     OH2      OT      -0.834000       15.9994           0
     69927 TIP3     20004    TIP3     H1       HT       0.417000       1.00800           0
     69928 TIP3     20004    TIP3     H2       HT       0.417000       1.00800           0
     69929 TIP3     20005    TIP3     OH2      OT      -0.834000       15.9994           0
     69930 TIP3     20005    TIP3     H1       HT       0.417000       1.00800           0
     69931 TIP3     20005    TIP3     H2       HT       0.417000       1.00800           0
     69932 TIP3     20006    TIP3     OH2      OT      -0.834000       15.9994           0
     69933 TIP3     20006    TIP3     H1       HT       0.417000       1.00800           0
     69934 TIP3     20006    TIP3     H2       HT       0.417000       1.00800           0
     69935 TIP3     20007    TIP3     OH2      OT      -0.834000       15.9994           0
     69936 TIP3     20007    TIP3     H1       HT       0.417000       1.00800           0
     69937 TIP3     20007    TIP3     H2       HT       0.417000       1.00800           0
     69938 TIP3     20008    TIP3     OH2      OT      -0.834000       15.9994           0
     69939 TIP3     20008    TIP3     H1       HT       0.417000       1.00800           0
     69940 TIP3     20008    TIP3     H2       HT       0.417000       1.00800           0
     69941 TIP3     20009    TIP3     OH2      OT      -0.834000       15.9994           0
     69942 TIP3     20009    TIP3     H1       HT       0.417000       1.00800           0
     69943 TIP3     20009    TIP3     H2       HT       0.417000       1.00800           0
     69944 TIP3     20010    TIP3     OH2      OT      -0.834000       15.9994           0
     69945 TIP3     20010    TIP3     H1       HT       0.417000       1.00800           0
     69946 TIP3     20010    TIP3     H2       HT       0.417000       1.00800           0
     69947 TIP3     20011    TIP3     OH2      OT      -0.834000       15.9994           0
     69948 TIP3     20011    TIP3     H1       HT       0.417000       1.00800           0
     69949 TIP3     20011    TIP3     H2       HT       0.417000       1.00800           0
     69950 TIP3     20012    TIP3     OH2      OT      -0.834000       15.9994           0
     69951 TIP3     20012    TIP3     H1       HT       0.417000       1.00800           0
     69952 TIP3     20012    TIP3     H2       HT       0.417000       1.00800           0
     69953 TIP3     20013    TIP3     OH2      OT      -0.834000       15.9994           0
     69954 TIP3     20013    TIP3     H1       HT       0.417000       1.00800           0
     69955 TIP3     20013    TIP3     H2       HT       0.417000       1.00800           0
     69956 TIP3     20014    TIP3     OH2      OT      -0.834000       15.9994           0
     69957 TIP3     20014    TIP3     H1       HT       0.417000       1.00800           0
     69958 TIP3     20014    TIP3     H2       HT       0.417000       1.00800           0
     69959 TIP3     20015    TIP3     OH2      OT      -0.834000       15.9994           0
     69960 TIP3     20015    TIP3     H1       HT       0.417000       1.00800           0
     69961 TIP3     20015    TIP3     H2       HT       0.417000       1.00800           0
     69962 TIP3     20016    TIP3     OH2      OT      -0.834000       15.9994           0
     69963 TIP3     20016    TIP3     H1       HT       0.417000       1.00800           0
     69964 TIP3     20016    TIP3     H2       HT       0.417000       1.00800           0
     69965 TIP3     20017    TIP3     OH2      OT      -0.834000       15.9994           0
     69966 TIP3     20017    TIP3     H1       HT       0.417000       1.00800           0
     69967 TIP3     20017    TIP3     H2       HT       0.417000       1.00800           0
     69968 TIP3     20018    TIP3     OH2      OT      -0.834000       15.9994           0
     69969 TIP3     20018    TIP3     H1       HT       0.417000       1.00800           0
     69970 TIP3     20018    TIP3     H2       HT       0.417000       1.00800           0
     69971 TIP3     20019    TIP3     OH2      OT      -0.834000       15.9994           0
     69972 TIP3     20019    TIP3     H1       HT       0.417000       1.00800           0
     69973 TIP3     20019    TIP3     H2       HT       0.417000       1.00800           0
     69974 TIP3     20020    TIP3     OH2      OT      -0.834000       15.9994           0
     69975 TIP3     20020    TIP3     H1       HT       0.417000       1.00800           0
     69976 TIP3     20020    TIP3     H2       HT       0.417000       1.00800           0
     69977 TIP3     20021    TIP3     OH2      OT      -0.834000       15.9994           0
     69978 TIP3     20021    TIP3     H1       HT       0.417000       1.00800           0
     69979 TIP3     20021    TIP3     H2       HT       0.417000       1.00800           0
     69980 TIP3     20022    TIP3     OH2      OT      -0.834000       15.9994           0
     69981 TIP3     20022    TIP3     H1       HT       0.417000       1.00800           0
     69982 TIP3     20022    TIP3     H2       HT       0.417000       1.00800           0
     69983 TIP3     20023    TIP3     OH2      OT      -0.834000       15.9994           0
     69984 TIP3     20023    TIP3     H1       HT       0.417000       1.00800           0
     69985 TIP3     20023    TIP3     H2       HT       0.417000       1.00800           0
     69986 TIP3     20024    TIP3     OH2      OT      -0.834000       15.9994           0
     69987 TIP3     20024    TIP3     H1       HT       0.417000       1.00800           0
     69988 TIP3     20024    TIP3     H2       HT       0.417000       1.00800           0
     69989 TIP3     20025    TIP3     OH2      OT      -0.834000       15.9994           0
     69990 TIP3     20025    TIP3     H1       HT       0.417000       1.00800           0
     69991 TIP3     20025    TIP3     H2       HT       0.417000       1.00800           0
     69992 TIP3     20026    TIP3     OH2      OT      -0.834000       15.9994           0
     69993 TIP3     20026    TIP3     H1       HT       0.417000       1.00800           0
     69994 TIP3     20026    TIP3     H2       HT       0.417000       1.00800           0
     69995 TIP3     20027    TIP3     OH2      OT      -0.834000       15.9994           0
     69996 TIP3     20027    TIP3     H1       HT       0.417000       1.00800           0
     69997 TIP3     20027    TIP3     H2       HT       0.417000       1.00800           0
     69998 TIP3     20028    TIP3     OH2      OT      -0.834000       15.9994           0
     69999 TIP3     20028    TIP3     H1       HT       0.417000       1.00800           0
     70000 TIP3     20028    TIP3     H2       HT       0.417000       1.00800           0
     70001 TIP3     20029    TIP3     OH2      OT      -0.834000       15.9994           0
     70002 TIP3     20029    TIP3     H1       HT       0.417000       1.00800           0
     70003 TIP3     20029    TIP3     H2       HT       0.417000       1.00800           0
     70004 TIP3     20030    TIP3     OH2      OT      -0.834000       15.9994           0
     70005 TIP3     20030    TIP3     H1       HT       0.417000       1.00800           0
     70006 TIP3     20030    TIP3     H2       HT       0.417000       1.00800           0
     70007 TIP3     20031    TIP3     OH2      OT      -0.834000       15.9994           0
     70008 TIP3     20031    TIP3     H1       HT       0.417000       1.00800           0
     70009 TIP3     20031    TIP3     H2       HT       0.417000       1.00800           0
     70010 TIP3     20032    TIP3     OH2      OT      -0.834000       15.9994           0
     70011 TIP3     20032    TIP3     H1       HT       0.417000       1.00800           0
     70012 TIP3     20032    TIP3     H2       HT       0.417000       1.00800           0
     70013 TIP3     20033    TIP3     OH2      OT      -0.834000       15.9994           0
     70014 TIP3     20033    TIP3     H1       HT       0.417000       1.00800           0
     70015 TIP3     20033    TIP3     H2       HT       0.417000       1.00800           0
     70016 TIP3     20034    TIP3     OH2      OT      -0.834000       15.9994           0
     70017 TIP3     20034    TIP3     H1       HT       0.417000       1.00800           0
     70018 TIP3     20034    TIP3     H2       HT       0.417000       1.00800           0
     70019 TIP3     20035    TIP3     OH2      OT      -0.834000       15.9994           0
     70020 TIP3     20035    TIP3     H1       HT       0.417000       1.00800           0
     70021 TIP3     20035    TIP3     H2       HT       0.417000       1.00800           0
     70022 TIP3     20036    TIP3     OH2      OT      -0.834000       15.9994           0
     70023 TIP3     20036    TIP3     H1       HT       0.417000       1.00800           0
     70024 TIP3     20036    TIP3     H2       HT       0.417000       1.00800           0
     70025 TIP3     20037    TIP3     OH2      OT      -0.834000       15.9994           0
     70026 TIP3     20037    TIP3     H1       HT       0.417000       1.00800           0
     70027 TIP3     20037    TIP3     H2       HT       0.417000       1.00800           0
     70028 TIP3     20038    TIP3     OH2      OT      -0.834000       15.9994           0
     70029 TIP3     20038    TIP3     H1       HT       0.417000       1.00800           0
     70030 TIP3     20038    TIP3     H2       HT       0.417000       1.00800           0
     70031 TIP3     20039    TIP3     OH2      OT      -0.834000       15.9994           0
     70032 TIP3     20039    TIP3     H1       HT       0.417000       1.00800           0
     70033 TIP3     20039    TIP3     H2       HT       0.417000       1.00800           0
     70034 TIP3     20040    TIP3     OH2      OT      -0.834000       15.9994           0
     70035 TIP3     20040    TIP3     H1       HT       0.417000       1.00800           0
     70036 TIP3     20040    TIP3     H2       HT       0.417000       1.00800           0
     70037 TIP3     20041    TIP3     OH2      OT      -0.834000       15.9994           0
     70038 TIP3     20041    TIP3     H1       HT       0.417000       1.00800           0
     70039 TIP3     20041    TIP3     H2       HT       0.417000       1.00800           0
     70040 TIP3     20042    TIP3     OH2      OT      -0.834000       15.9994           0
     70041 TIP3     20042    TIP3     H1       HT       0.417000       1.00800           0
     70042 TIP3     20042    TIP3     H2       HT       0.417000       1.00800           0
     70043 TIP3     20043    TIP3     OH2      OT      -0.834000       15.9994           0
     70044 TIP3     20043    TIP3     H1       HT       0.417000       1.00800           0
     70045 TIP3     20043    TIP3     H2       HT       0.417000       1.00800           0
     70046 TIP3     20044    TIP3     OH2      OT      -0.834000       15.9994           0
     70047 TIP3     20044    TIP3     H1       HT       0.417000       1.00800           0
     70048 TIP3     20044    TIP3     H2       HT       0.417000       1.00800           0
     70049 TIP3     20045    TIP3     OH2      OT      -0.834000       15.9994           0
     70050 TIP3     20045    TIP3     H1       HT       0.417000       1.00800           0
     70051 TIP3     20045    TIP3     H2       HT       0.417000       1.00800           0
     70052 TIP3     20046    TIP3     OH2      OT      -0.834000       15.9994           0
     70053 TIP3     20046    TIP3     H1       HT       0.417000       1.00800           0
     70054 TIP3     20046    TIP3     H2       HT       0.417000       1.00800           0
     70055 TIP3     20047    TIP3     OH2      OT      -0.834000       15.9994           0
     70056 TIP3     20047    TIP3     H1       HT       0.417000       1.00800           0
     70057 TIP3     20047    TIP3     H2       HT       0.417000       1.00800           0
     70058 TIP3     20048    TIP3     OH2      OT      -0.834000       15.9994           0
     70059 TIP3     20048    TIP3     H1       HT       0.417000       1.00800           0
     70060 TIP3     20048    TIP3     H2       HT       0.417000       1.00800           0
     70061 TIP3     20049    TIP3     OH2      OT      -0.834000       15.9994           0
     70062 TIP3     20049    TIP3     H1       HT       0.417000       1.00800           0
     70063 TIP3     20049    TIP3     H2       HT       0.417000       1.00800           0
     70064 TIP3     20050    TIP3     OH2      OT      -0.834000       15.9994           0
     70065 TIP3     20050    TIP3     H1       HT       0.417000       1.00800           0
     70066 TIP3     20050    TIP3     H2       HT       0.417000       1.00800           0
     70067 TIP3     20051    TIP3     OH2      OT      -0.834000       15.9994           0
     70068 TIP3     20051    TIP3     H1       HT       0.417000       1.00800           0
     70069 TIP3     20051    TIP3     H2       HT       0.417000       1.00800           0
     70070 TIP3     20052    TIP3     OH2      OT      -0.834000       15.9994           0
     70071 TIP3     20052    TIP3     H1       HT       0.417000       1.00800           0
     70072 TIP3     20052    TIP3     H2       HT       0.417000       1.00800           0
     70073 TIP3     20053    TIP3     OH2      OT      -0.834000       15.9994           0
     70074 TIP3     20053    TIP3     H1       HT       0.417000       1.00800           0
     70075 TIP3     20053    TIP3     H2       HT       0.417000       1.00800           0
     70076 TIP3     20054    TIP3     OH2      OT      -0.834000       15.9994           0
     70077 TIP3     20054    TIP3     H1       HT       0.417000       1.00800           0
     70078 TIP3     20054    TIP3     H2       HT       0.417000       1.00800           0
     70079 TIP3     20055    TIP3     OH2      OT      -0.834000       15.9994           0
     70080 TIP3     20055    TIP3     H1       HT       0.417000       1.00800           0
     70081 TIP3     20055    TIP3     H2       HT       0.417000       1.00800           0
     70082 TIP3     20056    TIP3     OH2      OT      -0.834000       15.9994           0
     70083 TIP3     20056    TIP3     H1       HT       0.417000       1.00800           0
     70084 TIP3     20056    TIP3     H2       HT       0.417000       1.00800           0
     70085 TIP3     20057    TIP3     OH2      OT      -0.834000       15.9994           0
     70086 TIP3     20057    TIP3     H1       HT       0.417000       1.00800           0
     70087 TIP3     20057    TIP3     H2       HT       0.417000       1.00800           0
     70088 TIP3     20058    TIP3     OH2      OT      -0.834000       15.9994           0
     70089 TIP3     20058    TIP3     H1       HT       0.417000       1.00800           0
     70090 TIP3     20058    TIP3     H2       HT       0.417000       1.00800           0
     70091 TIP3     20059    TIP3     OH2      OT      -0.834000       15.9994           0
     70092 TIP3     20059    TIP3     H1       HT       0.417000       1.00800           0
     70093 TIP3     20059    TIP3     H2       HT       0.417000       1.00800           0
     70094 TIP3     20060    TIP3     OH2      OT      -0.834000       15.9994           0
     70095 TIP3     20060    TIP3     H1       HT       0.417000       1.00800           0
     70096 TIP3     20060    TIP3     H2       HT       0.417000       1.00800           0
     70097 TIP3     20061    TIP3     OH2      OT      -0.834000       15.9994           0
     70098 TIP3     20061    TIP3     H1       HT       0.417000       1.00800           0
     70099 TIP3     20061    TIP3     H2       HT       0.417000       1.00800           0
     70100 TIP3     20062    TIP3     OH2      OT      -0.834000       15.9994           0
     70101 TIP3     20062    TIP3     H1       HT       0.417000       1.00800           0
     70102 TIP3     20062    TIP3     H2       HT       0.417000       1.00800           0
     70103 TIP3     20063    TIP3     OH2      OT      -0.834000       15.9994           0
     70104 TIP3     20063    TIP3     H1       HT       0.417000       1.00800           0
     70105 TIP3     20063    TIP3     H2       HT       0.417000       1.00800           0
     70106 TIP3     20064    TIP3     OH2      OT      -0.834000       15.9994           0
     70107 TIP3     20064    TIP3     H1       HT       0.417000       1.00800           0
     70108 TIP3     20064    TIP3     H2       HT       0.417000       1.00800           0
     70109 TIP3     20065    TIP3     OH2      OT      -0.834000       15.9994           0
     70110 TIP3     20065    TIP3     H1       HT       0.417000       1.00800           0
     70111 TIP3     20065    TIP3     H2       HT       0.417000       1.00800           0
     70112 TIP3     20066    TIP3     OH2      OT      -0.834000       15.9994           0
     70113 TIP3     20066    TIP3     H1       HT       0.417000       1.00800           0
     70114 TIP3     20066    TIP3     H2       HT       0.417000       1.00800           0
     70115 TIP3     20067    TIP3     OH2      OT      -0.834000       15.9994           0
     70116 TIP3     20067    TIP3     H1       HT       0.417000       1.00800           0
     70117 TIP3     20067    TIP3     H2       HT       0.417000       1.00800           0
     70118 TIP3     20068    TIP3     OH2      OT      -0.834000       15.9994           0
     70119 TIP3     20068    TIP3     H1       HT       0.417000       1.00800           0
     70120 TIP3     20068    TIP3     H2       HT       0.417000       1.00800           0
     70121 TIP3     20069    TIP3     OH2      OT      -0.834000       15.9994           0
     70122 TIP3     20069    TIP3     H1       HT       0.417000       1.00800           0
     70123 TIP3     20069    TIP3     H2       HT       0.417000       1.00800           0
     70124 TIP3     20070    TIP3     OH2      OT      -0.834000       15.9994           0
     70125 TIP3     20070    TIP3     H1       HT       0.417000       1.00800           0
     70126 TIP3     20070    TIP3     H2       HT       0.417000       1.00800           0
     70127 TIP3     20071    TIP3     OH2      OT      -0.834000       15.9994           0
     70128 TIP3     20071    TIP3     H1       HT       0.417000       1.00800           0
     70129 TIP3     20071    TIP3     H2       HT       0.417000       1.00800           0
     70130 TIP3     20072    TIP3     OH2      OT      -0.834000       15.9994           0
     70131 TIP3     20072    TIP3     H1       HT       0.417000       1.00800           0
     70132 TIP3     20072    TIP3     H2       HT       0.417000       1.00800           0
     70133 TIP3     20073    TIP3     OH2      OT      -0.834000       15.9994           0
     70134 TIP3     20073    TIP3     H1       HT       0.417000       1.00800           0
     70135 TIP3     20073    TIP3     H2       HT       0.417000       1.00800           0
     70136 TIP3     20074    TIP3     OH2      OT      -0.834000       15.9994           0
     70137 TIP3     20074    TIP3     H1       HT       0.417000       1.00800           0
     70138 TIP3     20074    TIP3     H2       HT       0.417000       1.00800           0
     70139 TIP3     20075    TIP3     OH2      OT      -0.834000       15.9994           0
     70140 TIP3     20075    TIP3     H1       HT       0.417000       1.00800           0
     70141 TIP3     20075    TIP3     H2       HT       0.417000       1.00800           0
     70142 TIP3     20076    TIP3     OH2      OT      -0.834000       15.9994           0
     70143 TIP3     20076    TIP3     H1       HT       0.417000       1.00800           0
     70144 TIP3     20076    TIP3     H2       HT       0.417000       1.00800           0
     70145 TIP3     20077    TIP3     OH2      OT      -0.834000       15.9994           0
     70146 TIP3     20077    TIP3     H1       HT       0.417000       1.00800           0
     70147 TIP3     20077    TIP3     H2       HT       0.417000       1.00800           0
     70148 TIP3     20078    TIP3     OH2      OT      -0.834000       15.9994           0
     70149 TIP3     20078    TIP3     H1       HT       0.417000       1.00800           0
     70150 TIP3     20078    TIP3     H2       HT       0.417000       1.00800           0
     70151 TIP3     20079    TIP3     OH2      OT      -0.834000       15.9994           0
     70152 TIP3     20079    TIP3     H1       HT       0.417000       1.00800           0
     70153 TIP3     20079    TIP3     H2       HT       0.417000       1.00800           0
     70154 TIP3     20080    TIP3     OH2      OT      -0.834000       15.9994           0
     70155 TIP3     20080    TIP3     H1       HT       0.417000       1.00800           0
     70156 TIP3     20080    TIP3     H2       HT       0.417000       1.00800           0
     70157 TIP3     20081    TIP3     OH2      OT      -0.834000       15.9994           0
     70158 TIP3     20081    TIP3     H1       HT       0.417000       1.00800           0
     70159 TIP3     20081    TIP3     H2       HT       0.417000       1.00800           0
     70160 TIP3     20082    TIP3     OH2      OT      -0.834000       15.9994           0
     70161 TIP3     20082    TIP3     H1       HT       0.417000       1.00800           0
     70162 TIP3     20082    TIP3     H2       HT       0.417000       1.00800           0
     70163 TIP3     20083    TIP3     OH2      OT      -0.834000       15.9994           0
     70164 TIP3     20083    TIP3     H1       HT       0.417000       1.00800           0
     70165 TIP3     20083    TIP3     H2       HT       0.417000       1.00800           0
     70166 TIP3     20084    TIP3     OH2      OT      -0.834000       15.9994           0
     70167 TIP3     20084    TIP3     H1       HT       0.417000       1.00800           0
     70168 TIP3     20084    TIP3     H2       HT       0.417000       1.00800           0
     70169 TIP3     20085    TIP3     OH2      OT      -0.834000       15.9994           0
     70170 TIP3     20085    TIP3     H1       HT       0.417000       1.00800           0
     70171 TIP3     20085    TIP3     H2       HT       0.417000       1.00800           0
     70172 TIP3     20086    TIP3     OH2      OT      -0.834000       15.9994           0
     70173 TIP3     20086    TIP3     H1       HT       0.417000       1.00800           0
     70174 TIP3     20086    TIP3     H2       HT       0.417000       1.00800           0
     70175 TIP3     20087    TIP3     OH2      OT      -0.834000       15.9994           0
     70176 TIP3     20087    TIP3     H1       HT       0.417000       1.00800           0
     70177 TIP3     20087    TIP3     H2       HT       0.417000       1.00800           0
     70178 TIP3     20088    TIP3     OH2      OT      -0.834000       15.9994           0
     70179 TIP3     20088    TIP3     H1       HT       0.417000       1.00800           0
     70180 TIP3     20088    TIP3     H2       HT       0.417000       1.00800           0
     70181 TIP3     20089    TIP3     OH2      OT      -0.834000       15.9994           0
     70182 TIP3     20089    TIP3     H1       HT       0.417000       1.00800           0
     70183 TIP3     20089    TIP3     H2       HT       0.417000       1.00800           0
     70184 TIP3     20090    TIP3     OH2      OT      -0.834000       15.9994           0
     70185 TIP3     20090    TIP3     H1       HT       0.417000       1.00800           0
     70186 TIP3     20090    TIP3     H2       HT       0.417000       1.00800           0
     70187 TIP3     20091    TIP3     OH2      OT      -0.834000       15.9994           0
     70188 TIP3     20091    TIP3     H1       HT       0.417000       1.00800           0
     70189 TIP3     20091    TIP3     H2       HT       0.417000       1.00800           0
     70190 TIP3     20092    TIP3     OH2      OT      -0.834000       15.9994           0
     70191 TIP3     20092    TIP3     H1       HT       0.417000       1.00800           0
     70192 TIP3     20092    TIP3     H2       HT       0.417000       1.00800           0
     70193 TIP3     20093    TIP3     OH2      OT      -0.834000       15.9994           0
     70194 TIP3     20093    TIP3     H1       HT       0.417000       1.00800           0
     70195 TIP3     20093    TIP3     H2       HT       0.417000       1.00800           0
     70196 TIP3     20094    TIP3     OH2      OT      -0.834000       15.9994           0
     70197 TIP3     20094    TIP3     H1       HT       0.417000       1.00800           0
     70198 TIP3     20094    TIP3     H2       HT       0.417000       1.00800           0
     70199 TIP3     20095    TIP3     OH2      OT      -0.834000       15.9994           0
     70200 TIP3     20095    TIP3     H1       HT       0.417000       1.00800           0
     70201 TIP3     20095    TIP3     H2       HT       0.417000       1.00800           0
     70202 TIP3     20096    TIP3     OH2      OT      -0.834000       15.9994           0
     70203 TIP3     20096    TIP3     H1       HT       0.417000       1.00800           0
     70204 TIP3     20096    TIP3     H2       HT       0.417000       1.00800           0
     70205 TIP3     20097    TIP3     OH2      OT      -0.834000       15.9994           0
     70206 TIP3     20097    TIP3     H1       HT       0.417000       1.00800           0
     70207 TIP3     20097    TIP3     H2       HT       0.417000       1.00800           0
     70208 TIP3     20098    TIP3     OH2      OT      -0.834000       15.9994           0
     70209 TIP3     20098    TIP3     H1       HT       0.417000       1.00800           0
     70210 TIP3     20098    TIP3     H2       HT       0.417000       1.00800           0
     70211 TIP3     20099    TIP3     OH2      OT      -0.834000       15.9994           0
     70212 TIP3     20099    TIP3     H1       HT       0.417000       1.00800           0
     70213 TIP3     20099    TIP3     H2       HT       0.417000       1.00800           0
     70214 TIP3     20100    TIP3     OH2      OT      -0.834000       15.9994           0
     70215 TIP3     20100    TIP3     H1       HT       0.417000       1.00800           0
     70216 TIP3     20100    TIP3     H2       HT       0.417000       1.00800           0
     70217 TIP3     20101    TIP3     OH2      OT      -0.834000       15.9994           0
     70218 TIP3     20101    TIP3     H1       HT       0.417000       1.00800           0
     70219 TIP3     20101    TIP3     H2       HT       0.417000       1.00800           0
     70220 TIP3     20102    TIP3     OH2      OT      -0.834000       15.9994           0
     70221 TIP3     20102    TIP3     H1       HT       0.417000       1.00800           0
     70222 TIP3     20102    TIP3     H2       HT       0.417000       1.00800           0
     70223 TIP3     20103    TIP3     OH2      OT      -0.834000       15.9994           0
     70224 TIP3     20103    TIP3     H1       HT       0.417000       1.00800           0
     70225 TIP3     20103    TIP3     H2       HT       0.417000       1.00800           0
     70226 TIP3     20104    TIP3     OH2      OT      -0.834000       15.9994           0
     70227 TIP3     20104    TIP3     H1       HT       0.417000       1.00800           0
     70228 TIP3     20104    TIP3     H2       HT       0.417000       1.00800           0
     70229 TIP3     20105    TIP3     OH2      OT      -0.834000       15.9994           0
     70230 TIP3     20105    TIP3     H1       HT       0.417000       1.00800           0
     70231 TIP3     20105    TIP3     H2       HT       0.417000       1.00800           0
     70232 TIP3     20106    TIP3     OH2      OT      -0.834000       15.9994           0
     70233 TIP3     20106    TIP3     H1       HT       0.417000       1.00800           0
     70234 TIP3     20106    TIP3     H2       HT       0.417000       1.00800           0
     70235 TIP3     20107    TIP3     OH2      OT      -0.834000       15.9994           0
     70236 TIP3     20107    TIP3     H1       HT       0.417000       1.00800           0
     70237 TIP3     20107    TIP3     H2       HT       0.417000       1.00800           0
     70238 TIP3     20108    TIP3     OH2      OT      -0.834000       15.9994           0
     70239 TIP3     20108    TIP3     H1       HT       0.417000       1.00800           0
     70240 TIP3     20108    TIP3     H2       HT       0.417000       1.00800           0
     70241 TIP3     20109    TIP3     OH2      OT      -0.834000       15.9994           0
     70242 TIP3     20109    TIP3     H1       HT       0.417000       1.00800           0
     70243 TIP3     20109    TIP3     H2       HT       0.417000       1.00800           0
     70244 TIP3     20110    TIP3     OH2      OT      -0.834000       15.9994           0
     70245 TIP3     20110    TIP3     H1       HT       0.417000       1.00800           0
     70246 TIP3     20110    TIP3     H2       HT       0.417000       1.00800           0
     70247 TIP3     20111    TIP3     OH2      OT      -0.834000       15.9994           0
     70248 TIP3     20111    TIP3     H1       HT       0.417000       1.00800           0
     70249 TIP3     20111    TIP3     H2       HT       0.417000       1.00800           0
     70250 TIP3     20112    TIP3     OH2      OT      -0.834000       15.9994           0
     70251 TIP3     20112    TIP3     H1       HT       0.417000       1.00800           0
     70252 TIP3     20112    TIP3     H2       HT       0.417000       1.00800           0
     70253 TIP3     20113    TIP3     OH2      OT      -0.834000       15.9994           0
     70254 TIP3     20113    TIP3     H1       HT       0.417000       1.00800           0
     70255 TIP3     20113    TIP3     H2       HT       0.417000       1.00800           0
     70256 TIP3     20114    TIP3     OH2      OT      -0.834000       15.9994           0
     70257 TIP3     20114    TIP3     H1       HT       0.417000       1.00800           0
     70258 TIP3     20114    TIP3     H2       HT       0.417000       1.00800           0
     70259 TIP3     20115    TIP3     OH2      OT      -0.834000       15.9994           0
     70260 TIP3     20115    TIP3     H1       HT       0.417000       1.00800           0
     70261 TIP3     20115    TIP3     H2       HT       0.417000       1.00800           0
     70262 TIP3     20116    TIP3     OH2      OT      -0.834000       15.9994           0
     70263 TIP3     20116    TIP3     H1       HT       0.417000       1.00800           0
     70264 TIP3     20116    TIP3     H2       HT       0.417000       1.00800           0
     70265 TIP3     20117    TIP3     OH2      OT      -0.834000       15.9994           0
     70266 TIP3     20117    TIP3     H1       HT       0.417000       1.00800           0
     70267 TIP3     20117    TIP3     H2       HT       0.417000       1.00800           0
     70268 TIP3     20118    TIP3     OH2      OT      -0.834000       15.9994           0
     70269 TIP3     20118    TIP3     H1       HT       0.417000       1.00800           0
     70270 TIP3     20118    TIP3     H2       HT       0.417000       1.00800           0
     70271 TIP3     20119    TIP3     OH2      OT      -0.834000       15.9994           0
     70272 TIP3     20119    TIP3     H1       HT       0.417000       1.00800           0
     70273 TIP3     20119    TIP3     H2       HT       0.417000       1.00800           0
     70274 TIP3     20120    TIP3     OH2      OT      -0.834000       15.9994           0
     70275 TIP3     20120    TIP3     H1       HT       0.417000       1.00800           0
     70276 TIP3     20120    TIP3     H2       HT       0.417000       1.00800           0
     70277 TIP3     20121    TIP3     OH2      OT      -0.834000       15.9994           0
     70278 TIP3     20121    TIP3     H1       HT       0.417000       1.00800           0
     70279 TIP3     20121    TIP3     H2       HT       0.417000       1.00800           0
     70280 TIP3     20122    TIP3     OH2      OT      -0.834000       15.9994           0
     70281 TIP3     20122    TIP3     H1       HT       0.417000       1.00800           0
     70282 TIP3     20122    TIP3     H2       HT       0.417000       1.00800           0
     70283 TIP3     20123    TIP3     OH2      OT      -0.834000       15.9994           0
     70284 TIP3     20123    TIP3     H1       HT       0.417000       1.00800           0
     70285 TIP3     20123    TIP3     H2       HT       0.417000       1.00800           0
     70286 TIP3     20124    TIP3     OH2      OT      -0.834000       15.9994           0
     70287 TIP3     20124    TIP3     H1       HT       0.417000       1.00800           0
     70288 TIP3     20124    TIP3     H2       HT       0.417000       1.00800           0
     70289 TIP3     20125    TIP3     OH2      OT      -0.834000       15.9994           0
     70290 TIP3     20125    TIP3     H1       HT       0.417000       1.00800           0
     70291 TIP3     20125    TIP3     H2       HT       0.417000       1.00800           0
     70292 TIP3     20126    TIP3     OH2      OT      -0.834000       15.9994           0
     70293 TIP3     20126    TIP3     H1       HT       0.417000       1.00800           0
     70294 TIP3     20126    TIP3     H2       HT       0.417000       1.00800           0
     70295 TIP3     20127    TIP3     OH2      OT      -0.834000       15.9994           0
     70296 TIP3     20127    TIP3     H1       HT       0.417000       1.00800           0
     70297 TIP3     20127    TIP3     H2       HT       0.417000       1.00800           0
     70298 TIP3     20128    TIP3     OH2      OT      -0.834000       15.9994           0
     70299 TIP3     20128    TIP3     H1       HT       0.417000       1.00800           0
     70300 TIP3     20128    TIP3     H2       HT       0.417000       1.00800           0
     70301 TIP3     20129    TIP3     OH2      OT      -0.834000       15.9994           0
     70302 TIP3     20129    TIP3     H1       HT       0.417000       1.00800           0
     70303 TIP3     20129    TIP3     H2       HT       0.417000       1.00800           0
     70304 TIP3     20130    TIP3     OH2      OT      -0.834000       15.9994           0
     70305 TIP3     20130    TIP3     H1       HT       0.417000       1.00800           0
     70306 TIP3     20130    TIP3     H2       HT       0.417000       1.00800           0
     70307 TIP3     20131    TIP3     OH2      OT      -0.834000       15.9994           0
     70308 TIP3     20131    TIP3     H1       HT       0.417000       1.00800           0
     70309 TIP3     20131    TIP3     H2       HT       0.417000       1.00800           0
     70310 TIP3     20132    TIP3     OH2      OT      -0.834000       15.9994           0
     70311 TIP3     20132    TIP3     H1       HT       0.417000       1.00800           0
     70312 TIP3     20132    TIP3     H2       HT       0.417000       1.00800           0
     70313 TIP3     20133    TIP3     OH2      OT      -0.834000       15.9994           0
     70314 TIP3     20133    TIP3     H1       HT       0.417000       1.00800           0
     70315 TIP3     20133    TIP3     H2       HT       0.417000       1.00800           0
     70316 TIP3     20134    TIP3     OH2      OT      -0.834000       15.9994           0
     70317 TIP3     20134    TIP3     H1       HT       0.417000       1.00800           0
     70318 TIP3     20134    TIP3     H2       HT       0.417000       1.00800           0
     70319 TIP3     20135    TIP3     OH2      OT      -0.834000       15.9994           0
     70320 TIP3     20135    TIP3     H1       HT       0.417000       1.00800           0
     70321 TIP3     20135    TIP3     H2       HT       0.417000       1.00800           0
     70322 TIP3     20136    TIP3     OH2      OT      -0.834000       15.9994           0
     70323 TIP3     20136    TIP3     H1       HT       0.417000       1.00800           0
     70324 TIP3     20136    TIP3     H2       HT       0.417000       1.00800           0
     70325 TIP3     20137    TIP3     OH2      OT      -0.834000       15.9994           0
     70326 TIP3     20137    TIP3     H1       HT       0.417000       1.00800           0
     70327 TIP3     20137    TIP3     H2       HT       0.417000       1.00800           0
     70328 TIP3     20138    TIP3     OH2      OT      -0.834000       15.9994           0
     70329 TIP3     20138    TIP3     H1       HT       0.417000       1.00800           0
     70330 TIP3     20138    TIP3     H2       HT       0.417000       1.00800           0
     70331 TIP3     20139    TIP3     OH2      OT      -0.834000       15.9994           0
     70332 TIP3     20139    TIP3     H1       HT       0.417000       1.00800           0
     70333 TIP3     20139    TIP3     H2       HT       0.417000       1.00800           0
     70334 TIP3     20140    TIP3     OH2      OT      -0.834000       15.9994           0
     70335 TIP3     20140    TIP3     H1       HT       0.417000       1.00800           0
     70336 TIP3     20140    TIP3     H2       HT       0.417000       1.00800           0
     70337 TIP3     20141    TIP3     OH2      OT      -0.834000       15.9994           0
     70338 TIP3     20141    TIP3     H1       HT       0.417000       1.00800           0
     70339 TIP3     20141    TIP3     H2       HT       0.417000       1.00800           0
     70340 TIP3     20142    TIP3     OH2      OT      -0.834000       15.9994           0
     70341 TIP3     20142    TIP3     H1       HT       0.417000       1.00800           0
     70342 TIP3     20142    TIP3     H2       HT       0.417000       1.00800           0
     70343 TIP3     20143    TIP3     OH2      OT      -0.834000       15.9994           0
     70344 TIP3     20143    TIP3     H1       HT       0.417000       1.00800           0
     70345 TIP3     20143    TIP3     H2       HT       0.417000       1.00800           0
     70346 TIP3     20144    TIP3     OH2      OT      -0.834000       15.9994           0
     70347 TIP3     20144    TIP3     H1       HT       0.417000       1.00800           0
     70348 TIP3     20144    TIP3     H2       HT       0.417000       1.00800           0
     70349 TIP3     20145    TIP3     OH2      OT      -0.834000       15.9994           0
     70350 TIP3     20145    TIP3     H1       HT       0.417000       1.00800           0
     70351 TIP3     20145    TIP3     H2       HT       0.417000       1.00800           0
     70352 TIP3     20146    TIP3     OH2      OT      -0.834000       15.9994           0
     70353 TIP3     20146    TIP3     H1       HT       0.417000       1.00800           0
     70354 TIP3     20146    TIP3     H2       HT       0.417000       1.00800           0
     70355 TIP3     20147    TIP3     OH2      OT      -0.834000       15.9994           0
     70356 TIP3     20147    TIP3     H1       HT       0.417000       1.00800           0
     70357 TIP3     20147    TIP3     H2       HT       0.417000       1.00800           0
     70358 TIP3     20148    TIP3     OH2      OT      -0.834000       15.9994           0
     70359 TIP3     20148    TIP3     H1       HT       0.417000       1.00800           0
     70360 TIP3     20148    TIP3     H2       HT       0.417000       1.00800           0
     70361 TIP3     20149    TIP3     OH2      OT      -0.834000       15.9994           0
     70362 TIP3     20149    TIP3     H1       HT       0.417000       1.00800           0
     70363 TIP3     20149    TIP3     H2       HT       0.417000       1.00800           0
     70364 TIP3     20150    TIP3     OH2      OT      -0.834000       15.9994           0
     70365 TIP3     20150    TIP3     H1       HT       0.417000       1.00800           0
     70366 TIP3     20150    TIP3     H2       HT       0.417000       1.00800           0
     70367 TIP3     20151    TIP3     OH2      OT      -0.834000       15.9994           0
     70368 TIP3     20151    TIP3     H1       HT       0.417000       1.00800           0
     70369 TIP3     20151    TIP3     H2       HT       0.417000       1.00800           0
     70370 TIP3     20152    TIP3     OH2      OT      -0.834000       15.9994           0
     70371 TIP3     20152    TIP3     H1       HT       0.417000       1.00800           0
     70372 TIP3     20152    TIP3     H2       HT       0.417000       1.00800           0
     70373 TIP3     20153    TIP3     OH2      OT      -0.834000       15.9994           0
     70374 TIP3     20153    TIP3     H1       HT       0.417000       1.00800           0
     70375 TIP3     20153    TIP3     H2       HT       0.417000       1.00800           0
     70376 TIP3     20154    TIP3     OH2      OT      -0.834000       15.9994           0
     70377 TIP3     20154    TIP3     H1       HT       0.417000       1.00800           0
     70378 TIP3     20154    TIP3     H2       HT       0.417000       1.00800           0
     70379 TIP3     20155    TIP3     OH2      OT      -0.834000       15.9994           0
     70380 TIP3     20155    TIP3     H1       HT       0.417000       1.00800           0
     70381 TIP3     20155    TIP3     H2       HT       0.417000       1.00800           0
     70382 TIP3     20156    TIP3     OH2      OT      -0.834000       15.9994           0
     70383 TIP3     20156    TIP3     H1       HT       0.417000       1.00800           0
     70384 TIP3     20156    TIP3     H2       HT       0.417000       1.00800           0
     70385 TIP3     20157    TIP3     OH2      OT      -0.834000       15.9994           0
     70386 TIP3     20157    TIP3     H1       HT       0.417000       1.00800           0
     70387 TIP3     20157    TIP3     H2       HT       0.417000       1.00800           0
     70388 TIP3     20158    TIP3     OH2      OT      -0.834000       15.9994           0
     70389 TIP3     20158    TIP3     H1       HT       0.417000       1.00800           0
     70390 TIP3     20158    TIP3     H2       HT       0.417000       1.00800           0
     70391 TIP3     20159    TIP3     OH2      OT      -0.834000       15.9994           0
     70392 TIP3     20159    TIP3     H1       HT       0.417000       1.00800           0
     70393 TIP3     20159    TIP3     H2       HT       0.417000       1.00800           0
     70394 TIP3     20160    TIP3     OH2      OT      -0.834000       15.9994           0
     70395 TIP3     20160    TIP3     H1       HT       0.417000       1.00800           0
     70396 TIP3     20160    TIP3     H2       HT       0.417000       1.00800           0
     70397 TIP3     20161    TIP3     OH2      OT      -0.834000       15.9994           0
     70398 TIP3     20161    TIP3     H1       HT       0.417000       1.00800           0
     70399 TIP3     20161    TIP3     H2       HT       0.417000       1.00800           0
     70400 TIP3     20162    TIP3     OH2      OT      -0.834000       15.9994           0
     70401 TIP3     20162    TIP3     H1       HT       0.417000       1.00800           0
     70402 TIP3     20162    TIP3     H2       HT       0.417000       1.00800           0
     70403 TIP3     20163    TIP3     OH2      OT      -0.834000       15.9994           0
     70404 TIP3     20163    TIP3     H1       HT       0.417000       1.00800           0
     70405 TIP3     20163    TIP3     H2       HT       0.417000       1.00800           0
     70406 TIP3     20164    TIP3     OH2      OT      -0.834000       15.9994           0
     70407 TIP3     20164    TIP3     H1       HT       0.417000       1.00800           0
     70408 TIP3     20164    TIP3     H2       HT       0.417000       1.00800           0
     70409 TIP3     20165    TIP3     OH2      OT      -0.834000       15.9994           0
     70410 TIP3     20165    TIP3     H1       HT       0.417000       1.00800           0
     70411 TIP3     20165    TIP3     H2       HT       0.417000       1.00800           0
     70412 TIP3     20166    TIP3     OH2      OT      -0.834000       15.9994           0
     70413 TIP3     20166    TIP3     H1       HT       0.417000       1.00800           0
     70414 TIP3     20166    TIP3     H2       HT       0.417000       1.00800           0
     70415 TIP3     20167    TIP3     OH2      OT      -0.834000       15.9994           0
     70416 TIP3     20167    TIP3     H1       HT       0.417000       1.00800           0
     70417 TIP3     20167    TIP3     H2       HT       0.417000       1.00800           0
     70418 TIP3     20168    TIP3     OH2      OT      -0.834000       15.9994           0
     70419 TIP3     20168    TIP3     H1       HT       0.417000       1.00800           0
     70420 TIP3     20168    TIP3     H2       HT       0.417000       1.00800           0
     70421 TIP3     20169    TIP3     OH2      OT      -0.834000       15.9994           0
     70422 TIP3     20169    TIP3     H1       HT       0.417000       1.00800           0
     70423 TIP3     20169    TIP3     H2       HT       0.417000       1.00800           0
     70424 TIP3     20170    TIP3     OH2      OT      -0.834000       15.9994           0
     70425 TIP3     20170    TIP3     H1       HT       0.417000       1.00800           0
     70426 TIP3     20170    TIP3     H2       HT       0.417000       1.00800           0
     70427 TIP3     20171    TIP3     OH2      OT      -0.834000       15.9994           0
     70428 TIP3     20171    TIP3     H1       HT       0.417000       1.00800           0
     70429 TIP3     20171    TIP3     H2       HT       0.417000       1.00800           0
     70430 TIP3     20172    TIP3     OH2      OT      -0.834000       15.9994           0
     70431 TIP3     20172    TIP3     H1       HT       0.417000       1.00800           0
     70432 TIP3     20172    TIP3     H2       HT       0.417000       1.00800           0
     70433 TIP3     20173    TIP3     OH2      OT      -0.834000       15.9994           0
     70434 TIP3     20173    TIP3     H1       HT       0.417000       1.00800           0
     70435 TIP3     20173    TIP3     H2       HT       0.417000       1.00800           0
     70436 TIP3     20174    TIP3     OH2      OT      -0.834000       15.9994           0
     70437 TIP3     20174    TIP3     H1       HT       0.417000       1.00800           0
     70438 TIP3     20174    TIP3     H2       HT       0.417000       1.00800           0
     70439 TIP3     20175    TIP3     OH2      OT      -0.834000       15.9994           0
     70440 TIP3     20175    TIP3     H1       HT       0.417000       1.00800           0
     70441 TIP3     20175    TIP3     H2       HT       0.417000       1.00800           0
     70442 TIP3     20176    TIP3     OH2      OT      -0.834000       15.9994           0
     70443 TIP3     20176    TIP3     H1       HT       0.417000       1.00800           0
     70444 TIP3     20176    TIP3     H2       HT       0.417000       1.00800           0
     70445 TIP3     20177    TIP3     OH2      OT      -0.834000       15.9994           0
     70446 TIP3     20177    TIP3     H1       HT       0.417000       1.00800           0
     70447 TIP3     20177    TIP3     H2       HT       0.417000       1.00800           0
     70448 TIP3     20178    TIP3     OH2      OT      -0.834000       15.9994           0
     70449 TIP3     20178    TIP3     H1       HT       0.417000       1.00800           0
     70450 TIP3     20178    TIP3     H2       HT       0.417000       1.00800           0
     70451 TIP3     20179    TIP3     OH2      OT      -0.834000       15.9994           0
     70452 TIP3     20179    TIP3     H1       HT       0.417000       1.00800           0
     70453 TIP3     20179    TIP3     H2       HT       0.417000       1.00800           0
     70454 TIP3     20180    TIP3     OH2      OT      -0.834000       15.9994           0
     70455 TIP3     20180    TIP3     H1       HT       0.417000       1.00800           0
     70456 TIP3     20180    TIP3     H2       HT       0.417000       1.00800           0
     70457 TIP3     20181    TIP3     OH2      OT      -0.834000       15.9994           0
     70458 TIP3     20181    TIP3     H1       HT       0.417000       1.00800           0
     70459 TIP3     20181    TIP3     H2       HT       0.417000       1.00800           0
     70460 TIP3     20182    TIP3     OH2      OT      -0.834000       15.9994           0
     70461 TIP3     20182    TIP3     H1       HT       0.417000       1.00800           0
     70462 TIP3     20182    TIP3     H2       HT       0.417000       1.00800           0
     70463 TIP3     20183    TIP3     OH2      OT      -0.834000       15.9994           0
     70464 TIP3     20183    TIP3     H1       HT       0.417000       1.00800           0
     70465 TIP3     20183    TIP3     H2       HT       0.417000       1.00800           0
     70466 TIP3     20184    TIP3     OH2      OT      -0.834000       15.9994           0
     70467 TIP3     20184    TIP3     H1       HT       0.417000       1.00800           0
     70468 TIP3     20184    TIP3     H2       HT       0.417000       1.00800           0
     70469 TIP3     20185    TIP3     OH2      OT      -0.834000       15.9994           0
     70470 TIP3     20185    TIP3     H1       HT       0.417000       1.00800           0
     70471 TIP3     20185    TIP3     H2       HT       0.417000       1.00800           0
     70472 TIP3     20186    TIP3     OH2      OT      -0.834000       15.9994           0
     70473 TIP3     20186    TIP3     H1       HT       0.417000       1.00800           0
     70474 TIP3     20186    TIP3     H2       HT       0.417000       1.00800           0
     70475 TIP3     20187    TIP3     OH2      OT      -0.834000       15.9994           0
     70476 TIP3     20187    TIP3     H1       HT       0.417000       1.00800           0
     70477 TIP3     20187    TIP3     H2       HT       0.417000       1.00800           0
     70478 TIP3     20188    TIP3     OH2      OT      -0.834000       15.9994           0
     70479 TIP3     20188    TIP3     H1       HT       0.417000       1.00800           0
     70480 TIP3     20188    TIP3     H2       HT       0.417000       1.00800           0
     70481 TIP3     20189    TIP3     OH2      OT      -0.834000       15.9994           0
     70482 TIP3     20189    TIP3     H1       HT       0.417000       1.00800           0
     70483 TIP3     20189    TIP3     H2       HT       0.417000       1.00800           0
     70484 TIP3     20190    TIP3     OH2      OT      -0.834000       15.9994           0
     70485 TIP3     20190    TIP3     H1       HT       0.417000       1.00800           0
     70486 TIP3     20190    TIP3     H2       HT       0.417000       1.00800           0
     70487 TIP3     20191    TIP3     OH2      OT      -0.834000       15.9994           0
     70488 TIP3     20191    TIP3     H1       HT       0.417000       1.00800           0
     70489 TIP3     20191    TIP3     H2       HT       0.417000       1.00800           0
     70490 TIP3     20192    TIP3     OH2      OT      -0.834000       15.9994           0
     70491 TIP3     20192    TIP3     H1       HT       0.417000       1.00800           0
     70492 TIP3     20192    TIP3     H2       HT       0.417000       1.00800           0
     70493 TIP3     20193    TIP3     OH2      OT      -0.834000       15.9994           0
     70494 TIP3     20193    TIP3     H1       HT       0.417000       1.00800           0
     70495 TIP3     20193    TIP3     H2       HT       0.417000       1.00800           0
     70496 TIP3     20194    TIP3     OH2      OT      -0.834000       15.9994           0
     70497 TIP3     20194    TIP3     H1       HT       0.417000       1.00800           0
     70498 TIP3     20194    TIP3     H2       HT       0.417000       1.00800           0
     70499 TIP3     20195    TIP3     OH2      OT      -0.834000       15.9994           0
     70500 TIP3     20195    TIP3     H1       HT       0.417000       1.00800           0
     70501 TIP3     20195    TIP3     H2       HT       0.417000       1.00800           0
     70502 TIP3     20196    TIP3     OH2      OT      -0.834000       15.9994           0
     70503 TIP3     20196    TIP3     H1       HT       0.417000       1.00800           0
     70504 TIP3     20196    TIP3     H2       HT       0.417000       1.00800           0
     70505 TIP3     20197    TIP3     OH2      OT      -0.834000       15.9994           0
     70506 TIP3     20197    TIP3     H1       HT       0.417000       1.00800           0
     70507 TIP3     20197    TIP3     H2       HT       0.417000       1.00800           0
     70508 TIP3     20198    TIP3     OH2      OT      -0.834000       15.9994           0
     70509 TIP3     20198    TIP3     H1       HT       0.417000       1.00800           0
     70510 TIP3     20198    TIP3     H2       HT       0.417000       1.00800           0
     70511 TIP3     20199    TIP3     OH2      OT      -0.834000       15.9994           0
     70512 TIP3     20199    TIP3     H1       HT       0.417000       1.00800           0
     70513 TIP3     20199    TIP3     H2       HT       0.417000       1.00800           0
     70514 TIP3     20200    TIP3     OH2      OT      -0.834000       15.9994           0
     70515 TIP3     20200    TIP3     H1       HT       0.417000       1.00800           0
     70516 TIP3     20200    TIP3     H2       HT       0.417000       1.00800           0
     70517 TIP3     20201    TIP3     OH2      OT      -0.834000       15.9994           0
     70518 TIP3     20201    TIP3     H1       HT       0.417000       1.00800           0
     70519 TIP3     20201    TIP3     H2       HT       0.417000       1.00800           0
     70520 TIP3     20202    TIP3     OH2      OT      -0.834000       15.9994           0
     70521 TIP3     20202    TIP3     H1       HT       0.417000       1.00800           0
     70522 TIP3     20202    TIP3     H2       HT       0.417000       1.00800           0
     70523 TIP3     20203    TIP3     OH2      OT      -0.834000       15.9994           0
     70524 TIP3     20203    TIP3     H1       HT       0.417000       1.00800           0
     70525 TIP3     20203    TIP3     H2       HT       0.417000       1.00800           0
     70526 TIP3     20204    TIP3     OH2      OT      -0.834000       15.9994           0
     70527 TIP3     20204    TIP3     H1       HT       0.417000       1.00800           0
     70528 TIP3     20204    TIP3     H2       HT       0.417000       1.00800           0
     70529 TIP3     20205    TIP3     OH2      OT      -0.834000       15.9994           0
     70530 TIP3     20205    TIP3     H1       HT       0.417000       1.00800           0
     70531 TIP3     20205    TIP3     H2       HT       0.417000       1.00800           0
     70532 TIP3     20206    TIP3     OH2      OT      -0.834000       15.9994           0
     70533 TIP3     20206    TIP3     H1       HT       0.417000       1.00800           0
     70534 TIP3     20206    TIP3     H2       HT       0.417000       1.00800           0
     70535 TIP3     20207    TIP3     OH2      OT      -0.834000       15.9994           0
     70536 TIP3     20207    TIP3     H1       HT       0.417000       1.00800           0
     70537 TIP3     20207    TIP3     H2       HT       0.417000       1.00800           0
     70538 TIP3     20208    TIP3     OH2      OT      -0.834000       15.9994           0
     70539 TIP3     20208    TIP3     H1       HT       0.417000       1.00800           0
     70540 TIP3     20208    TIP3     H2       HT       0.417000       1.00800           0
     70541 TIP3     20209    TIP3     OH2      OT      -0.834000       15.9994           0
     70542 TIP3     20209    TIP3     H1       HT       0.417000       1.00800           0
     70543 TIP3     20209    TIP3     H2       HT       0.417000       1.00800           0
     70544 TIP3     20210    TIP3     OH2      OT      -0.834000       15.9994           0
     70545 TIP3     20210    TIP3     H1       HT       0.417000       1.00800           0
     70546 TIP3     20210    TIP3     H2       HT       0.417000       1.00800           0
     70547 TIP3     20211    TIP3     OH2      OT      -0.834000       15.9994           0
     70548 TIP3     20211    TIP3     H1       HT       0.417000       1.00800           0
     70549 TIP3     20211    TIP3     H2       HT       0.417000       1.00800           0
     70550 TIP3     20212    TIP3     OH2      OT      -0.834000       15.9994           0
     70551 TIP3     20212    TIP3     H1       HT       0.417000       1.00800           0
     70552 TIP3     20212    TIP3     H2       HT       0.417000       1.00800           0
     70553 TIP3     20213    TIP3     OH2      OT      -0.834000       15.9994           0
     70554 TIP3     20213    TIP3     H1       HT       0.417000       1.00800           0
     70555 TIP3     20213    TIP3     H2       HT       0.417000       1.00800           0
     70556 TIP3     20214    TIP3     OH2      OT      -0.834000       15.9994           0
     70557 TIP3     20214    TIP3     H1       HT       0.417000       1.00800           0
     70558 TIP3     20214    TIP3     H2       HT       0.417000       1.00800           0
     70559 TIP3     20215    TIP3     OH2      OT      -0.834000       15.9994           0
     70560 TIP3     20215    TIP3     H1       HT       0.417000       1.00800           0
     70561 TIP3     20215    TIP3     H2       HT       0.417000       1.00800           0
     70562 TIP3     20216    TIP3     OH2      OT      -0.834000       15.9994           0
     70563 TIP3     20216    TIP3     H1       HT       0.417000       1.00800           0
     70564 TIP3     20216    TIP3     H2       HT       0.417000       1.00800           0
     70565 TIP3     20217    TIP3     OH2      OT      -0.834000       15.9994           0
     70566 TIP3     20217    TIP3     H1       HT       0.417000       1.00800           0
     70567 TIP3     20217    TIP3     H2       HT       0.417000       1.00800           0
     70568 TIP3     20218    TIP3     OH2      OT      -0.834000       15.9994           0
     70569 TIP3     20218    TIP3     H1       HT       0.417000       1.00800           0
     70570 TIP3     20218    TIP3     H2       HT       0.417000       1.00800           0
     70571 TIP3     20219    TIP3     OH2      OT      -0.834000       15.9994           0
     70572 TIP3     20219    TIP3     H1       HT       0.417000       1.00800           0
     70573 TIP3     20219    TIP3     H2       HT       0.417000       1.00800           0
     70574 TIP3     20220    TIP3     OH2      OT      -0.834000       15.9994           0
     70575 TIP3     20220    TIP3     H1       HT       0.417000       1.00800           0
     70576 TIP3     20220    TIP3     H2       HT       0.417000       1.00800           0
     70577 TIP3     20221    TIP3     OH2      OT      -0.834000       15.9994           0
     70578 TIP3     20221    TIP3     H1       HT       0.417000       1.00800           0
     70579 TIP3     20221    TIP3     H2       HT       0.417000       1.00800           0
     70580 TIP3     20222    TIP3     OH2      OT      -0.834000       15.9994           0
     70581 TIP3     20222    TIP3     H1       HT       0.417000       1.00800           0
     70582 TIP3     20222    TIP3     H2       HT       0.417000       1.00800           0
     70583 TIP3     20223    TIP3     OH2      OT      -0.834000       15.9994           0
     70584 TIP3     20223    TIP3     H1       HT       0.417000       1.00800           0
     70585 TIP3     20223    TIP3     H2       HT       0.417000       1.00800           0
     70586 TIP3     20224    TIP3     OH2      OT      -0.834000       15.9994           0
     70587 TIP3     20224    TIP3     H1       HT       0.417000       1.00800           0
     70588 TIP3     20224    TIP3     H2       HT       0.417000       1.00800           0
     70589 TIP3     20225    TIP3     OH2      OT      -0.834000       15.9994           0
     70590 TIP3     20225    TIP3     H1       HT       0.417000       1.00800           0
     70591 TIP3     20225    TIP3     H2       HT       0.417000       1.00800           0
     70592 TIP3     20226    TIP3     OH2      OT      -0.834000       15.9994           0
     70593 TIP3     20226    TIP3     H1       HT       0.417000       1.00800           0
     70594 TIP3     20226    TIP3     H2       HT       0.417000       1.00800           0
     70595 TIP3     20227    TIP3     OH2      OT      -0.834000       15.9994           0
     70596 TIP3     20227    TIP3     H1       HT       0.417000       1.00800           0
     70597 TIP3     20227    TIP3     H2       HT       0.417000       1.00800           0
     70598 TIP3     20228    TIP3     OH2      OT      -0.834000       15.9994           0
     70599 TIP3     20228    TIP3     H1       HT       0.417000       1.00800           0
     70600 TIP3     20228    TIP3     H2       HT       0.417000       1.00800           0
     70601 TIP3     20229    TIP3     OH2      OT      -0.834000       15.9994           0
     70602 TIP3     20229    TIP3     H1       HT       0.417000       1.00800           0
     70603 TIP3     20229    TIP3     H2       HT       0.417000       1.00800           0
     70604 TIP3     20230    TIP3     OH2      OT      -0.834000       15.9994           0
     70605 TIP3     20230    TIP3     H1       HT       0.417000       1.00800           0
     70606 TIP3     20230    TIP3     H2       HT       0.417000       1.00800           0
     70607 TIP3     20231    TIP3     OH2      OT      -0.834000       15.9994           0
     70608 TIP3     20231    TIP3     H1       HT       0.417000       1.00800           0
     70609 TIP3     20231    TIP3     H2       HT       0.417000       1.00800           0
     70610 TIP3     20232    TIP3     OH2      OT      -0.834000       15.9994           0
     70611 TIP3     20232    TIP3     H1       HT       0.417000       1.00800           0
     70612 TIP3     20232    TIP3     H2       HT       0.417000       1.00800           0
     70613 TIP3     20233    TIP3     OH2      OT      -0.834000       15.9994           0
     70614 TIP3     20233    TIP3     H1       HT       0.417000       1.00800           0
     70615 TIP3     20233    TIP3     H2       HT       0.417000       1.00800           0
     70616 TIP3     20234    TIP3     OH2      OT      -0.834000       15.9994           0
     70617 TIP3     20234    TIP3     H1       HT       0.417000       1.00800           0
     70618 TIP3     20234    TIP3     H2       HT       0.417000       1.00800           0
     70619 TIP3     20235    TIP3     OH2      OT      -0.834000       15.9994           0
     70620 TIP3     20235    TIP3     H1       HT       0.417000       1.00800           0
     70621 TIP3     20235    TIP3     H2       HT       0.417000       1.00800           0
     70622 TIP3     20236    TIP3     OH2      OT      -0.834000       15.9994           0
     70623 TIP3     20236    TIP3     H1       HT       0.417000       1.00800           0
     70624 TIP3     20236    TIP3     H2       HT       0.417000       1.00800           0
     70625 TIP3     20237    TIP3     OH2      OT      -0.834000       15.9994           0
     70626 TIP3     20237    TIP3     H1       HT       0.417000       1.00800           0
     70627 TIP3     20237    TIP3     H2       HT       0.417000       1.00800           0
     70628 TIP3     20238    TIP3     OH2      OT      -0.834000       15.9994           0
     70629 TIP3     20238    TIP3     H1       HT       0.417000       1.00800           0
     70630 TIP3     20238    TIP3     H2       HT       0.417000       1.00800           0
     70631 TIP3     20239    TIP3     OH2      OT      -0.834000       15.9994           0
     70632 TIP3     20239    TIP3     H1       HT       0.417000       1.00800           0
     70633 TIP3     20239    TIP3     H2       HT       0.417000       1.00800           0
     70634 TIP3     20240    TIP3     OH2      OT      -0.834000       15.9994           0
     70635 TIP3     20240    TIP3     H1       HT       0.417000       1.00800           0
     70636 TIP3     20240    TIP3     H2       HT       0.417000       1.00800           0
     70637 TIP3     20241    TIP3     OH2      OT      -0.834000       15.9994           0
     70638 TIP3     20241    TIP3     H1       HT       0.417000       1.00800           0
     70639 TIP3     20241    TIP3     H2       HT       0.417000       1.00800           0
     70640 TIP3     20242    TIP3     OH2      OT      -0.834000       15.9994           0
     70641 TIP3     20242    TIP3     H1       HT       0.417000       1.00800           0
     70642 TIP3     20242    TIP3     H2       HT       0.417000       1.00800           0
     70643 TIP3     20243    TIP3     OH2      OT      -0.834000       15.9994           0
     70644 TIP3     20243    TIP3     H1       HT       0.417000       1.00800           0
     70645 TIP3     20243    TIP3     H2       HT       0.417000       1.00800           0
     70646 TIP3     20244    TIP3     OH2      OT      -0.834000       15.9994           0
     70647 TIP3     20244    TIP3     H1       HT       0.417000       1.00800           0
     70648 TIP3     20244    TIP3     H2       HT       0.417000       1.00800           0
     70649 TIP3     20245    TIP3     OH2      OT      -0.834000       15.9994           0
     70650 TIP3     20245    TIP3     H1       HT       0.417000       1.00800           0
     70651 TIP3     20245    TIP3     H2       HT       0.417000       1.00800           0
     70652 TIP3     20246    TIP3     OH2      OT      -0.834000       15.9994           0
     70653 TIP3     20246    TIP3     H1       HT       0.417000       1.00800           0
     70654 TIP3     20246    TIP3     H2       HT       0.417000       1.00800           0
     70655 TIP3     20247    TIP3     OH2      OT      -0.834000       15.9994           0
     70656 TIP3     20247    TIP3     H1       HT       0.417000       1.00800           0
     70657 TIP3     20247    TIP3     H2       HT       0.417000       1.00800           0
     70658 TIP3     20248    TIP3     OH2      OT      -0.834000       15.9994           0
     70659 TIP3     20248    TIP3     H1       HT       0.417000       1.00800           0
     70660 TIP3     20248    TIP3     H2       HT       0.417000       1.00800           0
     70661 TIP3     20249    TIP3     OH2      OT      -0.834000       15.9994           0
     70662 TIP3     20249    TIP3     H1       HT       0.417000       1.00800           0
     70663 TIP3     20249    TIP3     H2       HT       0.417000       1.00800           0
     70664 TIP3     20250    TIP3     OH2      OT      -0.834000       15.9994           0
     70665 TIP3     20250    TIP3     H1       HT       0.417000       1.00800           0
     70666 TIP3     20250    TIP3     H2       HT       0.417000       1.00800           0
     70667 TIP3     20251    TIP3     OH2      OT      -0.834000       15.9994           0
     70668 TIP3     20251    TIP3     H1       HT       0.417000       1.00800           0
     70669 TIP3     20251    TIP3     H2       HT       0.417000       1.00800           0
     70670 TIP3     20252    TIP3     OH2      OT      -0.834000       15.9994           0
     70671 TIP3     20252    TIP3     H1       HT       0.417000       1.00800           0
     70672 TIP3     20252    TIP3     H2       HT       0.417000       1.00800           0
     70673 TIP3     20253    TIP3     OH2      OT      -0.834000       15.9994           0
     70674 TIP3     20253    TIP3     H1       HT       0.417000       1.00800           0
     70675 TIP3     20253    TIP3     H2       HT       0.417000       1.00800           0
     70676 TIP3     20254    TIP3     OH2      OT      -0.834000       15.9994           0
     70677 TIP3     20254    TIP3     H1       HT       0.417000       1.00800           0
     70678 TIP3     20254    TIP3     H2       HT       0.417000       1.00800           0
     70679 TIP3     20255    TIP3     OH2      OT      -0.834000       15.9994           0
     70680 TIP3     20255    TIP3     H1       HT       0.417000       1.00800           0
     70681 TIP3     20255    TIP3     H2       HT       0.417000       1.00800           0
     70682 TIP3     20256    TIP3     OH2      OT      -0.834000       15.9994           0
     70683 TIP3     20256    TIP3     H1       HT       0.417000       1.00800           0
     70684 TIP3     20256    TIP3     H2       HT       0.417000       1.00800           0
     70685 TIP3     20257    TIP3     OH2      OT      -0.834000       15.9994           0
     70686 TIP3     20257    TIP3     H1       HT       0.417000       1.00800           0
     70687 TIP3     20257    TIP3     H2       HT       0.417000       1.00800           0
     70688 TIP3     20258    TIP3     OH2      OT      -0.834000       15.9994           0
     70689 TIP3     20258    TIP3     H1       HT       0.417000       1.00800           0
     70690 TIP3     20258    TIP3     H2       HT       0.417000       1.00800           0
     70691 TIP3     20259    TIP3     OH2      OT      -0.834000       15.9994           0
     70692 TIP3     20259    TIP3     H1       HT       0.417000       1.00800           0
     70693 TIP3     20259    TIP3     H2       HT       0.417000       1.00800           0
     70694 TIP3     20260    TIP3     OH2      OT      -0.834000       15.9994           0
     70695 TIP3     20260    TIP3     H1       HT       0.417000       1.00800           0
     70696 TIP3     20260    TIP3     H2       HT       0.417000       1.00800           0
     70697 TIP3     20261    TIP3     OH2      OT      -0.834000       15.9994           0
     70698 TIP3     20261    TIP3     H1       HT       0.417000       1.00800           0
     70699 TIP3     20261    TIP3     H2       HT       0.417000       1.00800           0
     70700 TIP3     20262    TIP3     OH2      OT      -0.834000       15.9994           0
     70701 TIP3     20262    TIP3     H1       HT       0.417000       1.00800           0
     70702 TIP3     20262    TIP3     H2       HT       0.417000       1.00800           0
     70703 TIP3     20263    TIP3     OH2      OT      -0.834000       15.9994           0
     70704 TIP3     20263    TIP3     H1       HT       0.417000       1.00800           0
     70705 TIP3     20263    TIP3     H2       HT       0.417000       1.00800           0
     70706 TIP3     20264    TIP3     OH2      OT      -0.834000       15.9994           0
     70707 TIP3     20264    TIP3     H1       HT       0.417000       1.00800           0
     70708 TIP3     20264    TIP3     H2       HT       0.417000       1.00800           0
     70709 TIP3     20265    TIP3     OH2      OT      -0.834000       15.9994           0
     70710 TIP3     20265    TIP3     H1       HT       0.417000       1.00800           0
     70711 TIP3     20265    TIP3     H2       HT       0.417000       1.00800           0
     70712 TIP3     20266    TIP3     OH2      OT      -0.834000       15.9994           0
     70713 TIP3     20266    TIP3     H1       HT       0.417000       1.00800           0
     70714 TIP3     20266    TIP3     H2       HT       0.417000       1.00800           0
     70715 TIP3     20267    TIP3     OH2      OT      -0.834000       15.9994           0
     70716 TIP3     20267    TIP3     H1       HT       0.417000       1.00800           0
     70717 TIP3     20267    TIP3     H2       HT       0.417000       1.00800           0
     70718 TIP3     20268    TIP3     OH2      OT      -0.834000       15.9994           0
     70719 TIP3     20268    TIP3     H1       HT       0.417000       1.00800           0
     70720 TIP3     20268    TIP3     H2       HT       0.417000       1.00800           0
     70721 TIP3     20269    TIP3     OH2      OT      -0.834000       15.9994           0
     70722 TIP3     20269    TIP3     H1       HT       0.417000       1.00800           0
     70723 TIP3     20269    TIP3     H2       HT       0.417000       1.00800           0
     70724 TIP3     20270    TIP3     OH2      OT      -0.834000       15.9994           0
     70725 TIP3     20270    TIP3     H1       HT       0.417000       1.00800           0
     70726 TIP3     20270    TIP3     H2       HT       0.417000       1.00800           0
     70727 TIP3     20271    TIP3     OH2      OT      -0.834000       15.9994           0
     70728 TIP3     20271    TIP3     H1       HT       0.417000       1.00800           0
     70729 TIP3     20271    TIP3     H2       HT       0.417000       1.00800           0
     70730 TIP3     20272    TIP3     OH2      OT      -0.834000       15.9994           0
     70731 TIP3     20272    TIP3     H1       HT       0.417000       1.00800           0
     70732 TIP3     20272    TIP3     H2       HT       0.417000       1.00800           0
     70733 TIP3     20273    TIP3     OH2      OT      -0.834000       15.9994           0
     70734 TIP3     20273    TIP3     H1       HT       0.417000       1.00800           0
     70735 TIP3     20273    TIP3     H2       HT       0.417000       1.00800           0
     70736 TIP3     20274    TIP3     OH2      OT      -0.834000       15.9994           0
     70737 TIP3     20274    TIP3     H1       HT       0.417000       1.00800           0
     70738 TIP3     20274    TIP3     H2       HT       0.417000       1.00800           0
     70739 TIP3     20275    TIP3     OH2      OT      -0.834000       15.9994           0
     70740 TIP3     20275    TIP3     H1       HT       0.417000       1.00800           0
     70741 TIP3     20275    TIP3     H2       HT       0.417000       1.00800           0
     70742 TIP3     20276    TIP3     OH2      OT      -0.834000       15.9994           0
     70743 TIP3     20276    TIP3     H1       HT       0.417000       1.00800           0
     70744 TIP3     20276    TIP3     H2       HT       0.417000       1.00800           0
     70745 TIP3     20277    TIP3     OH2      OT      -0.834000       15.9994           0
     70746 TIP3     20277    TIP3     H1       HT       0.417000       1.00800           0
     70747 TIP3     20277    TIP3     H2       HT       0.417000       1.00800           0
     70748 TIP3     20278    TIP3     OH2      OT      -0.834000       15.9994           0
     70749 TIP3     20278    TIP3     H1       HT       0.417000       1.00800           0
     70750 TIP3     20278    TIP3     H2       HT       0.417000       1.00800           0
     70751 TIP3     20279    TIP3     OH2      OT      -0.834000       15.9994           0
     70752 TIP3     20279    TIP3     H1       HT       0.417000       1.00800           0
     70753 TIP3     20279    TIP3     H2       HT       0.417000       1.00800           0
     70754 TIP3     20280    TIP3     OH2      OT      -0.834000       15.9994           0
     70755 TIP3     20280    TIP3     H1       HT       0.417000       1.00800           0
     70756 TIP3     20280    TIP3     H2       HT       0.417000       1.00800           0
     70757 TIP3     20281    TIP3     OH2      OT      -0.834000       15.9994           0
     70758 TIP3     20281    TIP3     H1       HT       0.417000       1.00800           0
     70759 TIP3     20281    TIP3     H2       HT       0.417000       1.00800           0
     70760 TIP3     20282    TIP3     OH2      OT      -0.834000       15.9994           0
     70761 TIP3     20282    TIP3     H1       HT       0.417000       1.00800           0
     70762 TIP3     20282    TIP3     H2       HT       0.417000       1.00800           0
     70763 TIP3     20283    TIP3     OH2      OT      -0.834000       15.9994           0
     70764 TIP3     20283    TIP3     H1       HT       0.417000       1.00800           0
     70765 TIP3     20283    TIP3     H2       HT       0.417000       1.00800           0
     70766 TIP3     20284    TIP3     OH2      OT      -0.834000       15.9994           0
     70767 TIP3     20284    TIP3     H1       HT       0.417000       1.00800           0
     70768 TIP3     20284    TIP3     H2       HT       0.417000       1.00800           0
     70769 TIP3     20285    TIP3     OH2      OT      -0.834000       15.9994           0
     70770 TIP3     20285    TIP3     H1       HT       0.417000       1.00800           0
     70771 TIP3     20285    TIP3     H2       HT       0.417000       1.00800           0
     70772 TIP3     20286    TIP3     OH2      OT      -0.834000       15.9994           0
     70773 TIP3     20286    TIP3     H1       HT       0.417000       1.00800           0
     70774 TIP3     20286    TIP3     H2       HT       0.417000       1.00800           0
     70775 TIP3     20287    TIP3     OH2      OT      -0.834000       15.9994           0
     70776 TIP3     20287    TIP3     H1       HT       0.417000       1.00800           0
     70777 TIP3     20287    TIP3     H2       HT       0.417000       1.00800           0
     70778 TIP3     20288    TIP3     OH2      OT      -0.834000       15.9994           0
     70779 TIP3     20288    TIP3     H1       HT       0.417000       1.00800           0
     70780 TIP3     20288    TIP3     H2       HT       0.417000       1.00800           0
     70781 TIP3     20289    TIP3     OH2      OT      -0.834000       15.9994           0
     70782 TIP3     20289    TIP3     H1       HT       0.417000       1.00800           0
     70783 TIP3     20289    TIP3     H2       HT       0.417000       1.00800           0
     70784 TIP3     20290    TIP3     OH2      OT      -0.834000       15.9994           0
     70785 TIP3     20290    TIP3     H1       HT       0.417000       1.00800           0
     70786 TIP3     20290    TIP3     H2       HT       0.417000       1.00800           0
     70787 TIP3     20291    TIP3     OH2      OT      -0.834000       15.9994           0
     70788 TIP3     20291    TIP3     H1       HT       0.417000       1.00800           0
     70789 TIP3     20291    TIP3     H2       HT       0.417000       1.00800           0
     70790 TIP3     20292    TIP3     OH2      OT      -0.834000       15.9994           0
     70791 TIP3     20292    TIP3     H1       HT       0.417000       1.00800           0
     70792 TIP3     20292    TIP3     H2       HT       0.417000       1.00800           0
     70793 TIP3     20293    TIP3     OH2      OT      -0.834000       15.9994           0
     70794 TIP3     20293    TIP3     H1       HT       0.417000       1.00800           0
     70795 TIP3     20293    TIP3     H2       HT       0.417000       1.00800           0
     70796 TIP3     20294    TIP3     OH2      OT      -0.834000       15.9994           0
     70797 TIP3     20294    TIP3     H1       HT       0.417000       1.00800           0
     70798 TIP3     20294    TIP3     H2       HT       0.417000       1.00800           0
     70799 TIP3     20295    TIP3     OH2      OT      -0.834000       15.9994           0
     70800 TIP3     20295    TIP3     H1       HT       0.417000       1.00800           0
     70801 TIP3     20295    TIP3     H2       HT       0.417000       1.00800           0
     70802 TIP3     20296    TIP3     OH2      OT      -0.834000       15.9994           0
     70803 TIP3     20296    TIP3     H1       HT       0.417000       1.00800           0
     70804 TIP3     20296    TIP3     H2       HT       0.417000       1.00800           0
     70805 TIP3     20297    TIP3     OH2      OT      -0.834000       15.9994           0
     70806 TIP3     20297    TIP3     H1       HT       0.417000       1.00800           0
     70807 TIP3     20297    TIP3     H2       HT       0.417000       1.00800           0
     70808 TIP3     20298    TIP3     OH2      OT      -0.834000       15.9994           0
     70809 TIP3     20298    TIP3     H1       HT       0.417000       1.00800           0
     70810 TIP3     20298    TIP3     H2       HT       0.417000       1.00800           0
     70811 TIP3     20299    TIP3     OH2      OT      -0.834000       15.9994           0
     70812 TIP3     20299    TIP3     H1       HT       0.417000       1.00800           0
     70813 TIP3     20299    TIP3     H2       HT       0.417000       1.00800           0
     70814 TIP3     20300    TIP3     OH2      OT      -0.834000       15.9994           0
     70815 TIP3     20300    TIP3     H1       HT       0.417000       1.00800           0
     70816 TIP3     20300    TIP3     H2       HT       0.417000       1.00800           0
     70817 TIP3     20301    TIP3     OH2      OT      -0.834000       15.9994           0
     70818 TIP3     20301    TIP3     H1       HT       0.417000       1.00800           0
     70819 TIP3     20301    TIP3     H2       HT       0.417000       1.00800           0
     70820 TIP3     20302    TIP3     OH2      OT      -0.834000       15.9994           0
     70821 TIP3     20302    TIP3     H1       HT       0.417000       1.00800           0
     70822 TIP3     20302    TIP3     H2       HT       0.417000       1.00800           0
     70823 TIP3     20303    TIP3     OH2      OT      -0.834000       15.9994           0
     70824 TIP3     20303    TIP3     H1       HT       0.417000       1.00800           0
     70825 TIP3     20303    TIP3     H2       HT       0.417000       1.00800           0
     70826 TIP3     20304    TIP3     OH2      OT      -0.834000       15.9994           0
     70827 TIP3     20304    TIP3     H1       HT       0.417000       1.00800           0
     70828 TIP3     20304    TIP3     H2       HT       0.417000       1.00800           0
     70829 TIP3     20305    TIP3     OH2      OT      -0.834000       15.9994           0
     70830 TIP3     20305    TIP3     H1       HT       0.417000       1.00800           0
     70831 TIP3     20305    TIP3     H2       HT       0.417000       1.00800           0
     70832 TIP3     20306    TIP3     OH2      OT      -0.834000       15.9994           0
     70833 TIP3     20306    TIP3     H1       HT       0.417000       1.00800           0
     70834 TIP3     20306    TIP3     H2       HT       0.417000       1.00800           0
     70835 TIP3     20307    TIP3     OH2      OT      -0.834000       15.9994           0
     70836 TIP3     20307    TIP3     H1       HT       0.417000       1.00800           0
     70837 TIP3     20307    TIP3     H2       HT       0.417000       1.00800           0
     70838 TIP3     20308    TIP3     OH2      OT      -0.834000       15.9994           0
     70839 TIP3     20308    TIP3     H1       HT       0.417000       1.00800           0
     70840 TIP3     20308    TIP3     H2       HT       0.417000       1.00800           0
     70841 TIP3     20309    TIP3     OH2      OT      -0.834000       15.9994           0
     70842 TIP3     20309    TIP3     H1       HT       0.417000       1.00800           0
     70843 TIP3     20309    TIP3     H2       HT       0.417000       1.00800           0
     70844 TIP3     20310    TIP3     OH2      OT      -0.834000       15.9994           0
     70845 TIP3     20310    TIP3     H1       HT       0.417000       1.00800           0
     70846 TIP3     20310    TIP3     H2       HT       0.417000       1.00800           0
     70847 TIP3     20311    TIP3     OH2      OT      -0.834000       15.9994           0
     70848 TIP3     20311    TIP3     H1       HT       0.417000       1.00800           0
     70849 TIP3     20311    TIP3     H2       HT       0.417000       1.00800           0
     70850 TIP3     20312    TIP3     OH2      OT      -0.834000       15.9994           0
     70851 TIP3     20312    TIP3     H1       HT       0.417000       1.00800           0
     70852 TIP3     20312    TIP3     H2       HT       0.417000       1.00800           0
     70853 TIP3     20313    TIP3     OH2      OT      -0.834000       15.9994           0
     70854 TIP3     20313    TIP3     H1       HT       0.417000       1.00800           0
     70855 TIP3     20313    TIP3     H2       HT       0.417000       1.00800           0
     70856 TIP3     20314    TIP3     OH2      OT      -0.834000       15.9994           0
     70857 TIP3     20314    TIP3     H1       HT       0.417000       1.00800           0
     70858 TIP3     20314    TIP3     H2       HT       0.417000       1.00800           0
     70859 TIP3     20315    TIP3     OH2      OT      -0.834000       15.9994           0
     70860 TIP3     20315    TIP3     H1       HT       0.417000       1.00800           0
     70861 TIP3     20315    TIP3     H2       HT       0.417000       1.00800           0
     70862 TIP3     20316    TIP3     OH2      OT      -0.834000       15.9994           0
     70863 TIP3     20316    TIP3     H1       HT       0.417000       1.00800           0
     70864 TIP3     20316    TIP3     H2       HT       0.417000       1.00800           0
     70865 TIP3     20317    TIP3     OH2      OT      -0.834000       15.9994           0
     70866 TIP3     20317    TIP3     H1       HT       0.417000       1.00800           0
     70867 TIP3     20317    TIP3     H2       HT       0.417000       1.00800           0
     70868 TIP3     20318    TIP3     OH2      OT      -0.834000       15.9994           0
     70869 TIP3     20318    TIP3     H1       HT       0.417000       1.00800           0
     70870 TIP3     20318    TIP3     H2       HT       0.417000       1.00800           0
     70871 TIP3     20319    TIP3     OH2      OT      -0.834000       15.9994           0
     70872 TIP3     20319    TIP3     H1       HT       0.417000       1.00800           0
     70873 TIP3     20319    TIP3     H2       HT       0.417000       1.00800           0
     70874 TIP3     20320    TIP3     OH2      OT      -0.834000       15.9994           0
     70875 TIP3     20320    TIP3     H1       HT       0.417000       1.00800           0
     70876 TIP3     20320    TIP3     H2       HT       0.417000       1.00800           0
     70877 TIP3     20321    TIP3     OH2      OT      -0.834000       15.9994           0
     70878 TIP3     20321    TIP3     H1       HT       0.417000       1.00800           0
     70879 TIP3     20321    TIP3     H2       HT       0.417000       1.00800           0
     70880 TIP3     20322    TIP3     OH2      OT      -0.834000       15.9994           0
     70881 TIP3     20322    TIP3     H1       HT       0.417000       1.00800           0
     70882 TIP3     20322    TIP3     H2       HT       0.417000       1.00800           0
     70883 TIP3     20323    TIP3     OH2      OT      -0.834000       15.9994           0
     70884 TIP3     20323    TIP3     H1       HT       0.417000       1.00800           0
     70885 TIP3     20323    TIP3     H2       HT       0.417000       1.00800           0
     70886 TIP3     20324    TIP3     OH2      OT      -0.834000       15.9994           0
     70887 TIP3     20324    TIP3     H1       HT       0.417000       1.00800           0
     70888 TIP3     20324    TIP3     H2       HT       0.417000       1.00800           0
     70889 TIP3     20325    TIP3     OH2      OT      -0.834000       15.9994           0
     70890 TIP3     20325    TIP3     H1       HT       0.417000       1.00800           0
     70891 TIP3     20325    TIP3     H2       HT       0.417000       1.00800           0
     70892 TIP3     20326    TIP3     OH2      OT      -0.834000       15.9994           0
     70893 TIP3     20326    TIP3     H1       HT       0.417000       1.00800           0
     70894 TIP3     20326    TIP3     H2       HT       0.417000       1.00800           0
     70895 TIP3     20327    TIP3     OH2      OT      -0.834000       15.9994           0
     70896 TIP3     20327    TIP3     H1       HT       0.417000       1.00800           0
     70897 TIP3     20327    TIP3     H2       HT       0.417000       1.00800           0
     70898 TIP3     20328    TIP3     OH2      OT      -0.834000       15.9994           0
     70899 TIP3     20328    TIP3     H1       HT       0.417000       1.00800           0
     70900 TIP3     20328    TIP3     H2       HT       0.417000       1.00800           0
     70901 TIP3     20329    TIP3     OH2      OT      -0.834000       15.9994           0
     70902 TIP3     20329    TIP3     H1       HT       0.417000       1.00800           0
     70903 TIP3     20329    TIP3     H2       HT       0.417000       1.00800           0
     70904 TIP3     20330    TIP3     OH2      OT      -0.834000       15.9994           0
     70905 TIP3     20330    TIP3     H1       HT       0.417000       1.00800           0
     70906 TIP3     20330    TIP3     H2       HT       0.417000       1.00800           0
     70907 TIP3     20331    TIP3     OH2      OT      -0.834000       15.9994           0
     70908 TIP3     20331    TIP3     H1       HT       0.417000       1.00800           0
     70909 TIP3     20331    TIP3     H2       HT       0.417000       1.00800           0
     70910 TIP3     20332    TIP3     OH2      OT      -0.834000       15.9994           0
     70911 TIP3     20332    TIP3     H1       HT       0.417000       1.00800           0
     70912 TIP3     20332    TIP3     H2       HT       0.417000       1.00800           0
     70913 TIP3     20333    TIP3     OH2      OT      -0.834000       15.9994           0
     70914 TIP3     20333    TIP3     H1       HT       0.417000       1.00800           0
     70915 TIP3     20333    TIP3     H2       HT       0.417000       1.00800           0
     70916 TIP3     20334    TIP3     OH2      OT      -0.834000       15.9994           0
     70917 TIP3     20334    TIP3     H1       HT       0.417000       1.00800           0
     70918 TIP3     20334    TIP3     H2       HT       0.417000       1.00800           0
     70919 TIP3     20335    TIP3     OH2      OT      -0.834000       15.9994           0
     70920 TIP3     20335    TIP3     H1       HT       0.417000       1.00800           0
     70921 TIP3     20335    TIP3     H2       HT       0.417000       1.00800           0
     70922 TIP3     20336    TIP3     OH2      OT      -0.834000       15.9994           0
     70923 TIP3     20336    TIP3     H1       HT       0.417000       1.00800           0
     70924 TIP3     20336    TIP3     H2       HT       0.417000       1.00800           0
     70925 TIP3     20337    TIP3     OH2      OT      -0.834000       15.9994           0
     70926 TIP3     20337    TIP3     H1       HT       0.417000       1.00800           0
     70927 TIP3     20337    TIP3     H2       HT       0.417000       1.00800           0
     70928 TIP3     20338    TIP3     OH2      OT      -0.834000       15.9994           0
     70929 TIP3     20338    TIP3     H1       HT       0.417000       1.00800           0
     70930 TIP3     20338    TIP3     H2       HT       0.417000       1.00800           0
     70931 TIP3     20339    TIP3     OH2      OT      -0.834000       15.9994           0
     70932 TIP3     20339    TIP3     H1       HT       0.417000       1.00800           0
     70933 TIP3     20339    TIP3     H2       HT       0.417000       1.00800           0
     70934 TIP3     20340    TIP3     OH2      OT      -0.834000       15.9994           0
     70935 TIP3     20340    TIP3     H1       HT       0.417000       1.00800           0
     70936 TIP3     20340    TIP3     H2       HT       0.417000       1.00800           0
     70937 TIP3     20341    TIP3     OH2      OT      -0.834000       15.9994           0
     70938 TIP3     20341    TIP3     H1       HT       0.417000       1.00800           0
     70939 TIP3     20341    TIP3     H2       HT       0.417000       1.00800           0
     70940 TIP3     20342    TIP3     OH2      OT      -0.834000       15.9994           0
     70941 TIP3     20342    TIP3     H1       HT       0.417000       1.00800           0
     70942 TIP3     20342    TIP3     H2       HT       0.417000       1.00800           0
     70943 TIP3     20343    TIP3     OH2      OT      -0.834000       15.9994           0
     70944 TIP3     20343    TIP3     H1       HT       0.417000       1.00800           0
     70945 TIP3     20343    TIP3     H2       HT       0.417000       1.00800           0
     70946 TIP3     20344    TIP3     OH2      OT      -0.834000       15.9994           0
     70947 TIP3     20344    TIP3     H1       HT       0.417000       1.00800           0
     70948 TIP3     20344    TIP3     H2       HT       0.417000       1.00800           0
     70949 TIP3     20345    TIP3     OH2      OT      -0.834000       15.9994           0
     70950 TIP3     20345    TIP3     H1       HT       0.417000       1.00800           0
     70951 TIP3     20345    TIP3     H2       HT       0.417000       1.00800           0
     70952 TIP3     20346    TIP3     OH2      OT      -0.834000       15.9994           0
     70953 TIP3     20346    TIP3     H1       HT       0.417000       1.00800           0
     70954 TIP3     20346    TIP3     H2       HT       0.417000       1.00800           0
     70955 TIP3     20347    TIP3     OH2      OT      -0.834000       15.9994           0
     70956 TIP3     20347    TIP3     H1       HT       0.417000       1.00800           0
     70957 TIP3     20347    TIP3     H2       HT       0.417000       1.00800           0
     70958 TIP3     20348    TIP3     OH2      OT      -0.834000       15.9994           0
     70959 TIP3     20348    TIP3     H1       HT       0.417000       1.00800           0
     70960 TIP3     20348    TIP3     H2       HT       0.417000       1.00800           0
     70961 TIP3     20349    TIP3     OH2      OT      -0.834000       15.9994           0
     70962 TIP3     20349    TIP3     H1       HT       0.417000       1.00800           0
     70963 TIP3     20349    TIP3     H2       HT       0.417000       1.00800           0
     70964 TIP3     20350    TIP3     OH2      OT      -0.834000       15.9994           0
     70965 TIP3     20350    TIP3     H1       HT       0.417000       1.00800           0
     70966 TIP3     20350    TIP3     H2       HT       0.417000       1.00800           0
     70967 TIP3     20351    TIP3     OH2      OT      -0.834000       15.9994           0
     70968 TIP3     20351    TIP3     H1       HT       0.417000       1.00800           0
     70969 TIP3     20351    TIP3     H2       HT       0.417000       1.00800           0
     70970 TIP3     20352    TIP3     OH2      OT      -0.834000       15.9994           0
     70971 TIP3     20352    TIP3     H1       HT       0.417000       1.00800           0
     70972 TIP3     20352    TIP3     H2       HT       0.417000       1.00800           0
     70973 TIP3     20353    TIP3     OH2      OT      -0.834000       15.9994           0
     70974 TIP3     20353    TIP3     H1       HT       0.417000       1.00800           0
     70975 TIP3     20353    TIP3     H2       HT       0.417000       1.00800           0
     70976 TIP3     20354    TIP3     OH2      OT      -0.834000       15.9994           0
     70977 TIP3     20354    TIP3     H1       HT       0.417000       1.00800           0
     70978 TIP3     20354    TIP3     H2       HT       0.417000       1.00800           0
     70979 TIP3     20355    TIP3     OH2      OT      -0.834000       15.9994           0
     70980 TIP3     20355    TIP3     H1       HT       0.417000       1.00800           0
     70981 TIP3     20355    TIP3     H2       HT       0.417000       1.00800           0
     70982 TIP3     20356    TIP3     OH2      OT      -0.834000       15.9994           0
     70983 TIP3     20356    TIP3     H1       HT       0.417000       1.00800           0
     70984 TIP3     20356    TIP3     H2       HT       0.417000       1.00800           0
     70985 TIP3     20357    TIP3     OH2      OT      -0.834000       15.9994           0
     70986 TIP3     20357    TIP3     H1       HT       0.417000       1.00800           0
     70987 TIP3     20357    TIP3     H2       HT       0.417000       1.00800           0
     70988 TIP3     20358    TIP3     OH2      OT      -0.834000       15.9994           0
     70989 TIP3     20358    TIP3     H1       HT       0.417000       1.00800           0
     70990 TIP3     20358    TIP3     H2       HT       0.417000       1.00800           0
     70991 TIP3     20359    TIP3     OH2      OT      -0.834000       15.9994           0
     70992 TIP3     20359    TIP3     H1       HT       0.417000       1.00800           0
     70993 TIP3     20359    TIP3     H2       HT       0.417000       1.00800           0
     70994 TIP3     20360    TIP3     OH2      OT      -0.834000       15.9994           0
     70995 TIP3     20360    TIP3     H1       HT       0.417000       1.00800           0
     70996 TIP3     20360    TIP3     H2       HT       0.417000       1.00800           0
     70997 TIP3     20361    TIP3     OH2      OT      -0.834000       15.9994           0
     70998 TIP3     20361    TIP3     H1       HT       0.417000       1.00800           0
     70999 TIP3     20361    TIP3     H2       HT       0.417000       1.00800           0
     71000 TIP3     20362    TIP3     OH2      OT      -0.834000       15.9994           0
     71001 TIP3     20362    TIP3     H1       HT       0.417000       1.00800           0
     71002 TIP3     20362    TIP3     H2       HT       0.417000       1.00800           0
     71003 TIP3     20363    TIP3     OH2      OT      -0.834000       15.9994           0
     71004 TIP3     20363    TIP3     H1       HT       0.417000       1.00800           0
     71005 TIP3     20363    TIP3     H2       HT       0.417000       1.00800           0
     71006 TIP3     20364    TIP3     OH2      OT      -0.834000       15.9994           0
     71007 TIP3     20364    TIP3     H1       HT       0.417000       1.00800           0
     71008 TIP3     20364    TIP3     H2       HT       0.417000       1.00800           0
     71009 TIP3     20365    TIP3     OH2      OT      -0.834000       15.9994           0
     71010 TIP3     20365    TIP3     H1       HT       0.417000       1.00800           0
     71011 TIP3     20365    TIP3     H2       HT       0.417000       1.00800           0
     71012 TIP3     20366    TIP3     OH2      OT      -0.834000       15.9994           0
     71013 TIP3     20366    TIP3     H1       HT       0.417000       1.00800           0
     71014 TIP3     20366    TIP3     H2       HT       0.417000       1.00800           0
     71015 TIP3     20367    TIP3     OH2      OT      -0.834000       15.9994           0
     71016 TIP3     20367    TIP3     H1       HT       0.417000       1.00800           0
     71017 TIP3     20367    TIP3     H2       HT       0.417000       1.00800           0
     71018 TIP3     20368    TIP3     OH2      OT      -0.834000       15.9994           0
     71019 TIP3     20368    TIP3     H1       HT       0.417000       1.00800           0
     71020 TIP3     20368    TIP3     H2       HT       0.417000       1.00800           0
     71021 TIP3     20369    TIP3     OH2      OT      -0.834000       15.9994           0
     71022 TIP3     20369    TIP3     H1       HT       0.417000       1.00800           0
     71023 TIP3     20369    TIP3     H2       HT       0.417000       1.00800           0
     71024 TIP3     20370    TIP3     OH2      OT      -0.834000       15.9994           0
     71025 TIP3     20370    TIP3     H1       HT       0.417000       1.00800           0
     71026 TIP3     20370    TIP3     H2       HT       0.417000       1.00800           0
     71027 TIP3     20371    TIP3     OH2      OT      -0.834000       15.9994           0
     71028 TIP3     20371    TIP3     H1       HT       0.417000       1.00800           0
     71029 TIP3     20371    TIP3     H2       HT       0.417000       1.00800           0
     71030 TIP3     20372    TIP3     OH2      OT      -0.834000       15.9994           0
     71031 TIP3     20372    TIP3     H1       HT       0.417000       1.00800           0
     71032 TIP3     20372    TIP3     H2       HT       0.417000       1.00800           0
     71033 TIP3     20373    TIP3     OH2      OT      -0.834000       15.9994           0
     71034 TIP3     20373    TIP3     H1       HT       0.417000       1.00800           0
     71035 TIP3     20373    TIP3     H2       HT       0.417000       1.00800           0
     71036 TIP3     20374    TIP3     OH2      OT      -0.834000       15.9994           0
     71037 TIP3     20374    TIP3     H1       HT       0.417000       1.00800           0
     71038 TIP3     20374    TIP3     H2       HT       0.417000       1.00800           0
     71039 TIP3     20375    TIP3     OH2      OT      -0.834000       15.9994           0
     71040 TIP3     20375    TIP3     H1       HT       0.417000       1.00800           0
     71041 TIP3     20375    TIP3     H2       HT       0.417000       1.00800           0
     71042 TIP3     20376    TIP3     OH2      OT      -0.834000       15.9994           0
     71043 TIP3     20376    TIP3     H1       HT       0.417000       1.00800           0
     71044 TIP3     20376    TIP3     H2       HT       0.417000       1.00800           0
     71045 TIP3     20377    TIP3     OH2      OT      -0.834000       15.9994           0
     71046 TIP3     20377    TIP3     H1       HT       0.417000       1.00800           0
     71047 TIP3     20377    TIP3     H2       HT       0.417000       1.00800           0
     71048 TIP3     20378    TIP3     OH2      OT      -0.834000       15.9994           0
     71049 TIP3     20378    TIP3     H1       HT       0.417000       1.00800           0
     71050 TIP3     20378    TIP3     H2       HT       0.417000       1.00800           0
     71051 TIP3     20379    TIP3     OH2      OT      -0.834000       15.9994           0
     71052 TIP3     20379    TIP3     H1       HT       0.417000       1.00800           0
     71053 TIP3     20379    TIP3     H2       HT       0.417000       1.00800           0
     71054 TIP3     20380    TIP3     OH2      OT      -0.834000       15.9994           0
     71055 TIP3     20380    TIP3     H1       HT       0.417000       1.00800           0
     71056 TIP3     20380    TIP3     H2       HT       0.417000       1.00800           0
     71057 TIP3     20381    TIP3     OH2      OT      -0.834000       15.9994           0
     71058 TIP3     20381    TIP3     H1       HT       0.417000       1.00800           0
     71059 TIP3     20381    TIP3     H2       HT       0.417000       1.00800           0
     71060 TIP3     20382    TIP3     OH2      OT      -0.834000       15.9994           0
     71061 TIP3     20382    TIP3     H1       HT       0.417000       1.00800           0
     71062 TIP3     20382    TIP3     H2       HT       0.417000       1.00800           0
     71063 TIP3     20383    TIP3     OH2      OT      -0.834000       15.9994           0
     71064 TIP3     20383    TIP3     H1       HT       0.417000       1.00800           0
     71065 TIP3     20383    TIP3     H2       HT       0.417000       1.00800           0
     71066 TIP3     20384    TIP3     OH2      OT      -0.834000       15.9994           0
     71067 TIP3     20384    TIP3     H1       HT       0.417000       1.00800           0
     71068 TIP3     20384    TIP3     H2       HT       0.417000       1.00800           0
     71069 TIP3     20385    TIP3     OH2      OT      -0.834000       15.9994           0
     71070 TIP3     20385    TIP3     H1       HT       0.417000       1.00800           0
     71071 TIP3     20385    TIP3     H2       HT       0.417000       1.00800           0
     71072 TIP3     20386    TIP3     OH2      OT      -0.834000       15.9994           0
     71073 TIP3     20386    TIP3     H1       HT       0.417000       1.00800           0
     71074 TIP3     20386    TIP3     H2       HT       0.417000       1.00800           0
     71075 TIP3     20387    TIP3     OH2      OT      -0.834000       15.9994           0
     71076 TIP3     20387    TIP3     H1       HT       0.417000       1.00800           0
     71077 TIP3     20387    TIP3     H2       HT       0.417000       1.00800           0
     71078 TIP3     20388    TIP3     OH2      OT      -0.834000       15.9994           0
     71079 TIP3     20388    TIP3     H1       HT       0.417000       1.00800           0
     71080 TIP3     20388    TIP3     H2       HT       0.417000       1.00800           0
     71081 TIP3     20389    TIP3     OH2      OT      -0.834000       15.9994           0
     71082 TIP3     20389    TIP3     H1       HT       0.417000       1.00800           0
     71083 TIP3     20389    TIP3     H2       HT       0.417000       1.00800           0
     71084 TIP3     20390    TIP3     OH2      OT      -0.834000       15.9994           0
     71085 TIP3     20390    TIP3     H1       HT       0.417000       1.00800           0
     71086 TIP3     20390    TIP3     H2       HT       0.417000       1.00800           0
     71087 TIP3     20391    TIP3     OH2      OT      -0.834000       15.9994           0
     71088 TIP3     20391    TIP3     H1       HT       0.417000       1.00800           0
     71089 TIP3     20391    TIP3     H2       HT       0.417000       1.00800           0
     71090 TIP3     20392    TIP3     OH2      OT      -0.834000       15.9994           0
     71091 TIP3     20392    TIP3     H1       HT       0.417000       1.00800           0
     71092 TIP3     20392    TIP3     H2       HT       0.417000       1.00800           0
     71093 TIP3     20393    TIP3     OH2      OT      -0.834000       15.9994           0
     71094 TIP3     20393    TIP3     H1       HT       0.417000       1.00800           0
     71095 TIP3     20393    TIP3     H2       HT       0.417000       1.00800           0
     71096 TIP3     20394    TIP3     OH2      OT      -0.834000       15.9994           0
     71097 TIP3     20394    TIP3     H1       HT       0.417000       1.00800           0
     71098 TIP3     20394    TIP3     H2       HT       0.417000       1.00800           0
     71099 TIP3     20395    TIP3     OH2      OT      -0.834000       15.9994           0
     71100 TIP3     20395    TIP3     H1       HT       0.417000       1.00800           0
     71101 TIP3     20395    TIP3     H2       HT       0.417000       1.00800           0
     71102 TIP3     20396    TIP3     OH2      OT      -0.834000       15.9994           0
     71103 TIP3     20396    TIP3     H1       HT       0.417000       1.00800           0
     71104 TIP3     20396    TIP3     H2       HT       0.417000       1.00800           0
     71105 TIP3     20397    TIP3     OH2      OT      -0.834000       15.9994           0
     71106 TIP3     20397    TIP3     H1       HT       0.417000       1.00800           0
     71107 TIP3     20397    TIP3     H2       HT       0.417000       1.00800           0
     71108 TIP3     20398    TIP3     OH2      OT      -0.834000       15.9994           0
     71109 TIP3     20398    TIP3     H1       HT       0.417000       1.00800           0
     71110 TIP3     20398    TIP3     H2       HT       0.417000       1.00800           0
     71111 TIP3     20399    TIP3     OH2      OT      -0.834000       15.9994           0
     71112 TIP3     20399    TIP3     H1       HT       0.417000       1.00800           0
     71113 TIP3     20399    TIP3     H2       HT       0.417000       1.00800           0
     71114 TIP3     20400    TIP3     OH2      OT      -0.834000       15.9994           0
     71115 TIP3     20400    TIP3     H1       HT       0.417000       1.00800           0
     71116 TIP3     20400    TIP3     H2       HT       0.417000       1.00800           0
     71117 TIP3     20401    TIP3     OH2      OT      -0.834000       15.9994           0
     71118 TIP3     20401    TIP3     H1       HT       0.417000       1.00800           0
     71119 TIP3     20401    TIP3     H2       HT       0.417000       1.00800           0
     71120 TIP3     20402    TIP3     OH2      OT      -0.834000       15.9994           0
     71121 TIP3     20402    TIP3     H1       HT       0.417000       1.00800           0
     71122 TIP3     20402    TIP3     H2       HT       0.417000       1.00800           0
     71123 TIP3     20403    TIP3     OH2      OT      -0.834000       15.9994           0
     71124 TIP3     20403    TIP3     H1       HT       0.417000       1.00800           0
     71125 TIP3     20403    TIP3     H2       HT       0.417000       1.00800           0
     71126 TIP3     20404    TIP3     OH2      OT      -0.834000       15.9994           0
     71127 TIP3     20404    TIP3     H1       HT       0.417000       1.00800           0
     71128 TIP3     20404    TIP3     H2       HT       0.417000       1.00800           0
     71129 TIP3     20405    TIP3     OH2      OT      -0.834000       15.9994           0
     71130 TIP3     20405    TIP3     H1       HT       0.417000       1.00800           0
     71131 TIP3     20405    TIP3     H2       HT       0.417000       1.00800           0
     71132 TIP3     20406    TIP3     OH2      OT      -0.834000       15.9994           0
     71133 TIP3     20406    TIP3     H1       HT       0.417000       1.00800           0
     71134 TIP3     20406    TIP3     H2       HT       0.417000       1.00800           0
     71135 TIP3     20407    TIP3     OH2      OT      -0.834000       15.9994           0
     71136 TIP3     20407    TIP3     H1       HT       0.417000       1.00800           0
     71137 TIP3     20407    TIP3     H2       HT       0.417000       1.00800           0
     71138 TIP3     20408    TIP3     OH2      OT      -0.834000       15.9994           0
     71139 TIP3     20408    TIP3     H1       HT       0.417000       1.00800           0
     71140 TIP3     20408    TIP3     H2       HT       0.417000       1.00800           0
     71141 TIP3     20409    TIP3     OH2      OT      -0.834000       15.9994           0
     71142 TIP3     20409    TIP3     H1       HT       0.417000       1.00800           0
     71143 TIP3     20409    TIP3     H2       HT       0.417000       1.00800           0
     71144 TIP3     20410    TIP3     OH2      OT      -0.834000       15.9994           0
     71145 TIP3     20410    TIP3     H1       HT       0.417000       1.00800           0
     71146 TIP3     20410    TIP3     H2       HT       0.417000       1.00800           0
     71147 TIP3     20411    TIP3     OH2      OT      -0.834000       15.9994           0
     71148 TIP3     20411    TIP3     H1       HT       0.417000       1.00800           0
     71149 TIP3     20411    TIP3     H2       HT       0.417000       1.00800           0
     71150 TIP3     20412    TIP3     OH2      OT      -0.834000       15.9994           0
     71151 TIP3     20412    TIP3     H1       HT       0.417000       1.00800           0
     71152 TIP3     20412    TIP3     H2       HT       0.417000       1.00800           0
     71153 TIP3     20413    TIP3     OH2      OT      -0.834000       15.9994           0
     71154 TIP3     20413    TIP3     H1       HT       0.417000       1.00800           0
     71155 TIP3     20413    TIP3     H2       HT       0.417000       1.00800           0
     71156 TIP3     20414    TIP3     OH2      OT      -0.834000       15.9994           0
     71157 TIP3     20414    TIP3     H1       HT       0.417000       1.00800           0
     71158 TIP3     20414    TIP3     H2       HT       0.417000       1.00800           0
     71159 TIP3     20415    TIP3     OH2      OT      -0.834000       15.9994           0
     71160 TIP3     20415    TIP3     H1       HT       0.417000       1.00800           0
     71161 TIP3     20415    TIP3     H2       HT       0.417000       1.00800           0
     71162 TIP3     20416    TIP3     OH2      OT      -0.834000       15.9994           0
     71163 TIP3     20416    TIP3     H1       HT       0.417000       1.00800           0
     71164 TIP3     20416    TIP3     H2       HT       0.417000       1.00800           0
     71165 TIP3     20417    TIP3     OH2      OT      -0.834000       15.9994           0
     71166 TIP3     20417    TIP3     H1       HT       0.417000       1.00800           0
     71167 TIP3     20417    TIP3     H2       HT       0.417000       1.00800           0
     71168 TIP3     20418    TIP3     OH2      OT      -0.834000       15.9994           0
     71169 TIP3     20418    TIP3     H1       HT       0.417000       1.00800           0
     71170 TIP3     20418    TIP3     H2       HT       0.417000       1.00800           0
     71171 TIP3     20419    TIP3     OH2      OT      -0.834000       15.9994           0
     71172 TIP3     20419    TIP3     H1       HT       0.417000       1.00800           0
     71173 TIP3     20419    TIP3     H2       HT       0.417000       1.00800           0
     71174 TIP3     20420    TIP3     OH2      OT      -0.834000       15.9994           0
     71175 TIP3     20420    TIP3     H1       HT       0.417000       1.00800           0
     71176 TIP3     20420    TIP3     H2       HT       0.417000       1.00800           0
     71177 TIP3     20421    TIP3     OH2      OT      -0.834000       15.9994           0
     71178 TIP3     20421    TIP3     H1       HT       0.417000       1.00800           0
     71179 TIP3     20421    TIP3     H2       HT       0.417000       1.00800           0
     71180 TIP3     20422    TIP3     OH2      OT      -0.834000       15.9994           0
     71181 TIP3     20422    TIP3     H1       HT       0.417000       1.00800           0
     71182 TIP3     20422    TIP3     H2       HT       0.417000       1.00800           0
     71183 TIP3     20423    TIP3     OH2      OT      -0.834000       15.9994           0
     71184 TIP3     20423    TIP3     H1       HT       0.417000       1.00800           0
     71185 TIP3     20423    TIP3     H2       HT       0.417000       1.00800           0
     71186 TIP3     20424    TIP3     OH2      OT      -0.834000       15.9994           0
     71187 TIP3     20424    TIP3     H1       HT       0.417000       1.00800           0
     71188 TIP3     20424    TIP3     H2       HT       0.417000       1.00800           0
     71189 TIP3     20425    TIP3     OH2      OT      -0.834000       15.9994           0
     71190 TIP3     20425    TIP3     H1       HT       0.417000       1.00800           0
     71191 TIP3     20425    TIP3     H2       HT       0.417000       1.00800           0
     71192 TIP3     20426    TIP3     OH2      OT      -0.834000       15.9994           0
     71193 TIP3     20426    TIP3     H1       HT       0.417000       1.00800           0
     71194 TIP3     20426    TIP3     H2       HT       0.417000       1.00800           0
     71195 TIP3     20427    TIP3     OH2      OT      -0.834000       15.9994           0
     71196 TIP3     20427    TIP3     H1       HT       0.417000       1.00800           0
     71197 TIP3     20427    TIP3     H2       HT       0.417000       1.00800           0
     71198 TIP3     20428    TIP3     OH2      OT      -0.834000       15.9994           0
     71199 TIP3     20428    TIP3     H1       HT       0.417000       1.00800           0
     71200 TIP3     20428    TIP3     H2       HT       0.417000       1.00800           0
     71201 TIP3     20429    TIP3     OH2      OT      -0.834000       15.9994           0
     71202 TIP3     20429    TIP3     H1       HT       0.417000       1.00800           0
     71203 TIP3     20429    TIP3     H2       HT       0.417000       1.00800           0
     71204 TIP3     20430    TIP3     OH2      OT      -0.834000       15.9994           0
     71205 TIP3     20430    TIP3     H1       HT       0.417000       1.00800           0
     71206 TIP3     20430    TIP3     H2       HT       0.417000       1.00800           0
     71207 TIP3     20431    TIP3     OH2      OT      -0.834000       15.9994           0
     71208 TIP3     20431    TIP3     H1       HT       0.417000       1.00800           0
     71209 TIP3     20431    TIP3     H2       HT       0.417000       1.00800           0
     71210 TIP3     20432    TIP3     OH2      OT      -0.834000       15.9994           0
     71211 TIP3     20432    TIP3     H1       HT       0.417000       1.00800           0
     71212 TIP3     20432    TIP3     H2       HT       0.417000       1.00800           0
     71213 TIP3     20433    TIP3     OH2      OT      -0.834000       15.9994           0
     71214 TIP3     20433    TIP3     H1       HT       0.417000       1.00800           0
     71215 TIP3     20433    TIP3     H2       HT       0.417000       1.00800           0
     71216 TIP3     20434    TIP3     OH2      OT      -0.834000       15.9994           0
     71217 TIP3     20434    TIP3     H1       HT       0.417000       1.00800           0
     71218 TIP3     20434    TIP3     H2       HT       0.417000       1.00800           0
     71219 TIP3     20435    TIP3     OH2      OT      -0.834000       15.9994           0
     71220 TIP3     20435    TIP3     H1       HT       0.417000       1.00800           0
     71221 TIP3     20435    TIP3     H2       HT       0.417000       1.00800           0
     71222 TIP3     20436    TIP3     OH2      OT      -0.834000       15.9994           0
     71223 TIP3     20436    TIP3     H1       HT       0.417000       1.00800           0
     71224 TIP3     20436    TIP3     H2       HT       0.417000       1.00800           0
     71225 TIP3     20437    TIP3     OH2      OT      -0.834000       15.9994           0
     71226 TIP3     20437    TIP3     H1       HT       0.417000       1.00800           0
     71227 TIP3     20437    TIP3     H2       HT       0.417000       1.00800           0
     71228 TIP3     20438    TIP3     OH2      OT      -0.834000       15.9994           0
     71229 TIP3     20438    TIP3     H1       HT       0.417000       1.00800           0
     71230 TIP3     20438    TIP3     H2       HT       0.417000       1.00800           0
     71231 TIP3     20439    TIP3     OH2      OT      -0.834000       15.9994           0
     71232 TIP3     20439    TIP3     H1       HT       0.417000       1.00800           0
     71233 TIP3     20439    TIP3     H2       HT       0.417000       1.00800           0
     71234 TIP3     20440    TIP3     OH2      OT      -0.834000       15.9994           0
     71235 TIP3     20440    TIP3     H1       HT       0.417000       1.00800           0
     71236 TIP3     20440    TIP3     H2       HT       0.417000       1.00800           0
     71237 TIP3     20441    TIP3     OH2      OT      -0.834000       15.9994           0
     71238 TIP3     20441    TIP3     H1       HT       0.417000       1.00800           0
     71239 TIP3     20441    TIP3     H2       HT       0.417000       1.00800           0
     71240 TIP3     20442    TIP3     OH2      OT      -0.834000       15.9994           0
     71241 TIP3     20442    TIP3     H1       HT       0.417000       1.00800           0
     71242 TIP3     20442    TIP3     H2       HT       0.417000       1.00800           0
     71243 TIP3     20443    TIP3     OH2      OT      -0.834000       15.9994           0
     71244 TIP3     20443    TIP3     H1       HT       0.417000       1.00800           0
     71245 TIP3     20443    TIP3     H2       HT       0.417000       1.00800           0
     71246 TIP3     20444    TIP3     OH2      OT      -0.834000       15.9994           0
     71247 TIP3     20444    TIP3     H1       HT       0.417000       1.00800           0
     71248 TIP3     20444    TIP3     H2       HT       0.417000       1.00800           0
     71249 TIP3     20445    TIP3     OH2      OT      -0.834000       15.9994           0
     71250 TIP3     20445    TIP3     H1       HT       0.417000       1.00800           0
     71251 TIP3     20445    TIP3     H2       HT       0.417000       1.00800           0
     71252 TIP3     20446    TIP3     OH2      OT      -0.834000       15.9994           0
     71253 TIP3     20446    TIP3     H1       HT       0.417000       1.00800           0
     71254 TIP3     20446    TIP3     H2       HT       0.417000       1.00800           0
     71255 TIP3     20447    TIP3     OH2      OT      -0.834000       15.9994           0
     71256 TIP3     20447    TIP3     H1       HT       0.417000       1.00800           0
     71257 TIP3     20447    TIP3     H2       HT       0.417000       1.00800           0
     71258 TIP3     20448    TIP3     OH2      OT      -0.834000       15.9994           0
     71259 TIP3     20448    TIP3     H1       HT       0.417000       1.00800           0
     71260 TIP3     20448    TIP3     H2       HT       0.417000       1.00800           0
     71261 TIP3     20449    TIP3     OH2      OT      -0.834000       15.9994           0
     71262 TIP3     20449    TIP3     H1       HT       0.417000       1.00800           0
     71263 TIP3     20449    TIP3     H2       HT       0.417000       1.00800           0
     71264 TIP3     20450    TIP3     OH2      OT      -0.834000       15.9994           0
     71265 TIP3     20450    TIP3     H1       HT       0.417000       1.00800           0
     71266 TIP3     20450    TIP3     H2       HT       0.417000       1.00800           0
     71267 TIP3     20451    TIP3     OH2      OT      -0.834000       15.9994           0
     71268 TIP3     20451    TIP3     H1       HT       0.417000       1.00800           0
     71269 TIP3     20451    TIP3     H2       HT       0.417000       1.00800           0
     71270 TIP3     20452    TIP3     OH2      OT      -0.834000       15.9994           0
     71271 TIP3     20452    TIP3     H1       HT       0.417000       1.00800           0
     71272 TIP3     20452    TIP3     H2       HT       0.417000       1.00800           0
     71273 TIP3     20453    TIP3     OH2      OT      -0.834000       15.9994           0
     71274 TIP3     20453    TIP3     H1       HT       0.417000       1.00800           0
     71275 TIP3     20453    TIP3     H2       HT       0.417000       1.00800           0
     71276 TIP3     20454    TIP3     OH2      OT      -0.834000       15.9994           0
     71277 TIP3     20454    TIP3     H1       HT       0.417000       1.00800           0
     71278 TIP3     20454    TIP3     H2       HT       0.417000       1.00800           0
     71279 TIP3     20455    TIP3     OH2      OT      -0.834000       15.9994           0
     71280 TIP3     20455    TIP3     H1       HT       0.417000       1.00800           0
     71281 TIP3     20455    TIP3     H2       HT       0.417000       1.00800           0
     71282 TIP3     20456    TIP3     OH2      OT      -0.834000       15.9994           0
     71283 TIP3     20456    TIP3     H1       HT       0.417000       1.00800           0
     71284 TIP3     20456    TIP3     H2       HT       0.417000       1.00800           0
     71285 TIP3     20457    TIP3     OH2      OT      -0.834000       15.9994           0
     71286 TIP3     20457    TIP3     H1       HT       0.417000       1.00800           0
     71287 TIP3     20457    TIP3     H2       HT       0.417000       1.00800           0
     71288 TIP3     20458    TIP3     OH2      OT      -0.834000       15.9994           0
     71289 TIP3     20458    TIP3     H1       HT       0.417000       1.00800           0
     71290 TIP3     20458    TIP3     H2       HT       0.417000       1.00800           0
     71291 TIP3     20459    TIP3     OH2      OT      -0.834000       15.9994           0
     71292 TIP3     20459    TIP3     H1       HT       0.417000       1.00800           0
     71293 TIP3     20459    TIP3     H2       HT       0.417000       1.00800           0
     71294 TIP3     20460    TIP3     OH2      OT      -0.834000       15.9994           0
     71295 TIP3     20460    TIP3     H1       HT       0.417000       1.00800           0
     71296 TIP3     20460    TIP3     H2       HT       0.417000       1.00800           0
     71297 TIP3     20461    TIP3     OH2      OT      -0.834000       15.9994           0
     71298 TIP3     20461    TIP3     H1       HT       0.417000       1.00800           0
     71299 TIP3     20461    TIP3     H2       HT       0.417000       1.00800           0
     71300 TIP3     20462    TIP3     OH2      OT      -0.834000       15.9994           0
     71301 TIP3     20462    TIP3     H1       HT       0.417000       1.00800           0
     71302 TIP3     20462    TIP3     H2       HT       0.417000       1.00800           0
     71303 TIP3     20463    TIP3     OH2      OT      -0.834000       15.9994           0
     71304 TIP3     20463    TIP3     H1       HT       0.417000       1.00800           0
     71305 TIP3     20463    TIP3     H2       HT       0.417000       1.00800           0
     71306 TIP3     20464    TIP3     OH2      OT      -0.834000       15.9994           0
     71307 TIP3     20464    TIP3     H1       HT       0.417000       1.00800           0
     71308 TIP3     20464    TIP3     H2       HT       0.417000       1.00800           0
     71309 TIP3     20465    TIP3     OH2      OT      -0.834000       15.9994           0
     71310 TIP3     20465    TIP3     H1       HT       0.417000       1.00800           0
     71311 TIP3     20465    TIP3     H2       HT       0.417000       1.00800           0
     71312 TIP3     20466    TIP3     OH2      OT      -0.834000       15.9994           0
     71313 TIP3     20466    TIP3     H1       HT       0.417000       1.00800           0
     71314 TIP3     20466    TIP3     H2       HT       0.417000       1.00800           0
     71315 TIP3     20467    TIP3     OH2      OT      -0.834000       15.9994           0
     71316 TIP3     20467    TIP3     H1       HT       0.417000       1.00800           0
     71317 TIP3     20467    TIP3     H2       HT       0.417000       1.00800           0
     71318 TIP3     20468    TIP3     OH2      OT      -0.834000       15.9994           0
     71319 TIP3     20468    TIP3     H1       HT       0.417000       1.00800           0
     71320 TIP3     20468    TIP3     H2       HT       0.417000       1.00800           0
     71321 TIP3     20469    TIP3     OH2      OT      -0.834000       15.9994           0
     71322 TIP3     20469    TIP3     H1       HT       0.417000       1.00800           0
     71323 TIP3     20469    TIP3     H2       HT       0.417000       1.00800           0
     71324 TIP3     20470    TIP3     OH2      OT      -0.834000       15.9994           0
     71325 TIP3     20470    TIP3     H1       HT       0.417000       1.00800           0
     71326 TIP3     20470    TIP3     H2       HT       0.417000       1.00800           0
     71327 TIP3     20471    TIP3     OH2      OT      -0.834000       15.9994           0
     71328 TIP3     20471    TIP3     H1       HT       0.417000       1.00800           0
     71329 TIP3     20471    TIP3     H2       HT       0.417000       1.00800           0
     71330 TIP3     20472    TIP3     OH2      OT      -0.834000       15.9994           0
     71331 TIP3     20472    TIP3     H1       HT       0.417000       1.00800           0
     71332 TIP3     20472    TIP3     H2       HT       0.417000       1.00800           0
     71333 TIP3     20473    TIP3     OH2      OT      -0.834000       15.9994           0
     71334 TIP3     20473    TIP3     H1       HT       0.417000       1.00800           0
     71335 TIP3     20473    TIP3     H2       HT       0.417000       1.00800           0
     71336 TIP3     20474    TIP3     OH2      OT      -0.834000       15.9994           0
     71337 TIP3     20474    TIP3     H1       HT       0.417000       1.00800           0
     71338 TIP3     20474    TIP3     H2       HT       0.417000       1.00800           0
     71339 TIP3     20475    TIP3     OH2      OT      -0.834000       15.9994           0
     71340 TIP3     20475    TIP3     H1       HT       0.417000       1.00800           0
     71341 TIP3     20475    TIP3     H2       HT       0.417000       1.00800           0
     71342 TIP3     20476    TIP3     OH2      OT      -0.834000       15.9994           0
     71343 TIP3     20476    TIP3     H1       HT       0.417000       1.00800           0
     71344 TIP3     20476    TIP3     H2       HT       0.417000       1.00800           0
     71345 TIP3     20477    TIP3     OH2      OT      -0.834000       15.9994           0
     71346 TIP3     20477    TIP3     H1       HT       0.417000       1.00800           0
     71347 TIP3     20477    TIP3     H2       HT       0.417000       1.00800           0
     71348 TIP3     20478    TIP3     OH2      OT      -0.834000       15.9994           0
     71349 TIP3     20478    TIP3     H1       HT       0.417000       1.00800           0
     71350 TIP3     20478    TIP3     H2       HT       0.417000       1.00800           0
     71351 TIP3     20479    TIP3     OH2      OT      -0.834000       15.9994           0
     71352 TIP3     20479    TIP3     H1       HT       0.417000       1.00800           0
     71353 TIP3     20479    TIP3     H2       HT       0.417000       1.00800           0
     71354 TIP3     20480    TIP3     OH2      OT      -0.834000       15.9994           0
     71355 TIP3     20480    TIP3     H1       HT       0.417000       1.00800           0
     71356 TIP3     20480    TIP3     H2       HT       0.417000       1.00800           0
     71357 TIP3     20481    TIP3     OH2      OT      -0.834000       15.9994           0
     71358 TIP3     20481    TIP3     H1       HT       0.417000       1.00800           0
     71359 TIP3     20481    TIP3     H2       HT       0.417000       1.00800           0
     71360 TIP3     20482    TIP3     OH2      OT      -0.834000       15.9994           0
     71361 TIP3     20482    TIP3     H1       HT       0.417000       1.00800           0
     71362 TIP3     20482    TIP3     H2       HT       0.417000       1.00800           0
     71363 TIP3     20483    TIP3     OH2      OT      -0.834000       15.9994           0
     71364 TIP3     20483    TIP3     H1       HT       0.417000       1.00800           0
     71365 TIP3     20483    TIP3     H2       HT       0.417000       1.00800           0
     71366 TIP3     20484    TIP3     OH2      OT      -0.834000       15.9994           0
     71367 TIP3     20484    TIP3     H1       HT       0.417000       1.00800           0
     71368 TIP3     20484    TIP3     H2       HT       0.417000       1.00800           0
     71369 TIP3     20485    TIP3     OH2      OT      -0.834000       15.9994           0
     71370 TIP3     20485    TIP3     H1       HT       0.417000       1.00800           0
     71371 TIP3     20485    TIP3     H2       HT       0.417000       1.00800           0
     71372 TIP3     20486    TIP3     OH2      OT      -0.834000       15.9994           0
     71373 TIP3     20486    TIP3     H1       HT       0.417000       1.00800           0
     71374 TIP3     20486    TIP3     H2       HT       0.417000       1.00800           0
     71375 TIP3     20487    TIP3     OH2      OT      -0.834000       15.9994           0
     71376 TIP3     20487    TIP3     H1       HT       0.417000       1.00800           0
     71377 TIP3     20487    TIP3     H2       HT       0.417000       1.00800           0
     71378 TIP3     20488    TIP3     OH2      OT      -0.834000       15.9994           0
     71379 TIP3     20488    TIP3     H1       HT       0.417000       1.00800           0
     71380 TIP3     20488    TIP3     H2       HT       0.417000       1.00800           0
     71381 TIP3     20489    TIP3     OH2      OT      -0.834000       15.9994           0
     71382 TIP3     20489    TIP3     H1       HT       0.417000       1.00800           0
     71383 TIP3     20489    TIP3     H2       HT       0.417000       1.00800           0
     71384 TIP3     20490    TIP3     OH2      OT      -0.834000       15.9994           0
     71385 TIP3     20490    TIP3     H1       HT       0.417000       1.00800           0
     71386 TIP3     20490    TIP3     H2       HT       0.417000       1.00800           0
     71387 TIP3     20491    TIP3     OH2      OT      -0.834000       15.9994           0
     71388 TIP3     20491    TIP3     H1       HT       0.417000       1.00800           0
     71389 TIP3     20491    TIP3     H2       HT       0.417000       1.00800           0
     71390 TIP3     20492    TIP3     OH2      OT      -0.834000       15.9994           0
     71391 TIP3     20492    TIP3     H1       HT       0.417000       1.00800           0
     71392 TIP3     20492    TIP3     H2       HT       0.417000       1.00800           0
     71393 TIP3     20493    TIP3     OH2      OT      -0.834000       15.9994           0
     71394 TIP3     20493    TIP3     H1       HT       0.417000       1.00800           0
     71395 TIP3     20493    TIP3     H2       HT       0.417000       1.00800           0
     71396 TIP3     20494    TIP3     OH2      OT      -0.834000       15.9994           0
     71397 TIP3     20494    TIP3     H1       HT       0.417000       1.00800           0
     71398 TIP3     20494    TIP3     H2       HT       0.417000       1.00800           0
     71399 TIP3     20495    TIP3     OH2      OT      -0.834000       15.9994           0
     71400 TIP3     20495    TIP3     H1       HT       0.417000       1.00800           0
     71401 TIP3     20495    TIP3     H2       HT       0.417000       1.00800           0
     71402 TIP3     20496    TIP3     OH2      OT      -0.834000       15.9994           0
     71403 TIP3     20496    TIP3     H1       HT       0.417000       1.00800           0
     71404 TIP3     20496    TIP3     H2       HT       0.417000       1.00800           0
     71405 TIP3     20497    TIP3     OH2      OT      -0.834000       15.9994           0
     71406 TIP3     20497    TIP3     H1       HT       0.417000       1.00800           0
     71407 TIP3     20497    TIP3     H2       HT       0.417000       1.00800           0
     71408 TIP3     20498    TIP3     OH2      OT      -0.834000       15.9994           0
     71409 TIP3     20498    TIP3     H1       HT       0.417000       1.00800           0
     71410 TIP3     20498    TIP3     H2       HT       0.417000       1.00800           0
     71411 TIP3     20499    TIP3     OH2      OT      -0.834000       15.9994           0
     71412 TIP3     20499    TIP3     H1       HT       0.417000       1.00800           0
     71413 TIP3     20499    TIP3     H2       HT       0.417000       1.00800           0
     71414 TIP3     20500    TIP3     OH2      OT      -0.834000       15.9994           0
     71415 TIP3     20500    TIP3     H1       HT       0.417000       1.00800           0
     71416 TIP3     20500    TIP3     H2       HT       0.417000       1.00800           0
     71417 TIP3     20501    TIP3     OH2      OT      -0.834000       15.9994           0
     71418 TIP3     20501    TIP3     H1       HT       0.417000       1.00800           0
     71419 TIP3     20501    TIP3     H2       HT       0.417000       1.00800           0
     71420 TIP3     20502    TIP3     OH2      OT      -0.834000       15.9994           0
     71421 TIP3     20502    TIP3     H1       HT       0.417000       1.00800           0
     71422 TIP3     20502    TIP3     H2       HT       0.417000       1.00800           0
     71423 TIP3     20503    TIP3     OH2      OT      -0.834000       15.9994           0
     71424 TIP3     20503    TIP3     H1       HT       0.417000       1.00800           0
     71425 TIP3     20503    TIP3     H2       HT       0.417000       1.00800           0
     71426 TIP3     20504    TIP3     OH2      OT      -0.834000       15.9994           0
     71427 TIP3     20504    TIP3     H1       HT       0.417000       1.00800           0
     71428 TIP3     20504    TIP3     H2       HT       0.417000       1.00800           0
     71429 TIP3     20505    TIP3     OH2      OT      -0.834000       15.9994           0
     71430 TIP3     20505    TIP3     H1       HT       0.417000       1.00800           0
     71431 TIP3     20505    TIP3     H2       HT       0.417000       1.00800           0
     71432 TIP3     20506    TIP3     OH2      OT      -0.834000       15.9994           0
     71433 TIP3     20506    TIP3     H1       HT       0.417000       1.00800           0
     71434 TIP3     20506    TIP3     H2       HT       0.417000       1.00800           0
     71435 TIP3     20507    TIP3     OH2      OT      -0.834000       15.9994           0
     71436 TIP3     20507    TIP3     H1       HT       0.417000       1.00800           0
     71437 TIP3     20507    TIP3     H2       HT       0.417000       1.00800           0
     71438 TIP3     20508    TIP3     OH2      OT      -0.834000       15.9994           0
     71439 TIP3     20508    TIP3     H1       HT       0.417000       1.00800           0
     71440 TIP3     20508    TIP3     H2       HT       0.417000       1.00800           0
     71441 TIP3     20509    TIP3     OH2      OT      -0.834000       15.9994           0
     71442 TIP3     20509    TIP3     H1       HT       0.417000       1.00800           0
     71443 TIP3     20509    TIP3     H2       HT       0.417000       1.00800           0
     71444 TIP3     20510    TIP3     OH2      OT      -0.834000       15.9994           0
     71445 TIP3     20510    TIP3     H1       HT       0.417000       1.00800           0
     71446 TIP3     20510    TIP3     H2       HT       0.417000       1.00800           0
     71447 TIP3     20511    TIP3     OH2      OT      -0.834000       15.9994           0
     71448 TIP3     20511    TIP3     H1       HT       0.417000       1.00800           0
     71449 TIP3     20511    TIP3     H2       HT       0.417000       1.00800           0
     71450 TIP3     20512    TIP3     OH2      OT      -0.834000       15.9994           0
     71451 TIP3     20512    TIP3     H1       HT       0.417000       1.00800           0
     71452 TIP3     20512    TIP3     H2       HT       0.417000       1.00800           0
     71453 TIP3     20513    TIP3     OH2      OT      -0.834000       15.9994           0
     71454 TIP3     20513    TIP3     H1       HT       0.417000       1.00800           0
     71455 TIP3     20513    TIP3     H2       HT       0.417000       1.00800           0
     71456 TIP3     20514    TIP3     OH2      OT      -0.834000       15.9994           0
     71457 TIP3     20514    TIP3     H1       HT       0.417000       1.00800           0
     71458 TIP3     20514    TIP3     H2       HT       0.417000       1.00800           0
     71459 TIP3     20515    TIP3     OH2      OT      -0.834000       15.9994           0
     71460 TIP3     20515    TIP3     H1       HT       0.417000       1.00800           0
     71461 TIP3     20515    TIP3     H2       HT       0.417000       1.00800           0
     71462 TIP3     20516    TIP3     OH2      OT      -0.834000       15.9994           0
     71463 TIP3     20516    TIP3     H1       HT       0.417000       1.00800           0
     71464 TIP3     20516    TIP3     H2       HT       0.417000       1.00800           0
     71465 TIP3     20517    TIP3     OH2      OT      -0.834000       15.9994           0
     71466 TIP3     20517    TIP3     H1       HT       0.417000       1.00800           0
     71467 TIP3     20517    TIP3     H2       HT       0.417000       1.00800           0
     71468 TIP3     20518    TIP3     OH2      OT      -0.834000       15.9994           0
     71469 TIP3     20518    TIP3     H1       HT       0.417000       1.00800           0
     71470 TIP3     20518    TIP3     H2       HT       0.417000       1.00800           0
     71471 TIP3     20519    TIP3     OH2      OT      -0.834000       15.9994           0
     71472 TIP3     20519    TIP3     H1       HT       0.417000       1.00800           0
     71473 TIP3     20519    TIP3     H2       HT       0.417000       1.00800           0
     71474 TIP3     20520    TIP3     OH2      OT      -0.834000       15.9994           0
     71475 TIP3     20520    TIP3     H1       HT       0.417000       1.00800           0
     71476 TIP3     20520    TIP3     H2       HT       0.417000       1.00800           0
     71477 TIP3     20521    TIP3     OH2      OT      -0.834000       15.9994           0
     71478 TIP3     20521    TIP3     H1       HT       0.417000       1.00800           0
     71479 TIP3     20521    TIP3     H2       HT       0.417000       1.00800           0
     71480 TIP3     20522    TIP3     OH2      OT      -0.834000       15.9994           0
     71481 TIP3     20522    TIP3     H1       HT       0.417000       1.00800           0
     71482 TIP3     20522    TIP3     H2       HT       0.417000       1.00800           0
     71483 TIP3     20523    TIP3     OH2      OT      -0.834000       15.9994           0
     71484 TIP3     20523    TIP3     H1       HT       0.417000       1.00800           0
     71485 TIP3     20523    TIP3     H2       HT       0.417000       1.00800           0
     71486 TIP3     20524    TIP3     OH2      OT      -0.834000       15.9994           0
     71487 TIP3     20524    TIP3     H1       HT       0.417000       1.00800           0
     71488 TIP3     20524    TIP3     H2       HT       0.417000       1.00800           0
     71489 TIP3     20525    TIP3     OH2      OT      -0.834000       15.9994           0
     71490 TIP3     20525    TIP3     H1       HT       0.417000       1.00800           0
     71491 TIP3     20525    TIP3     H2       HT       0.417000       1.00800           0
     71492 TIP3     20526    TIP3     OH2      OT      -0.834000       15.9994           0
     71493 TIP3     20526    TIP3     H1       HT       0.417000       1.00800           0
     71494 TIP3     20526    TIP3     H2       HT       0.417000       1.00800           0
     71495 TIP3     20527    TIP3     OH2      OT      -0.834000       15.9994           0
     71496 TIP3     20527    TIP3     H1       HT       0.417000       1.00800           0
     71497 TIP3     20527    TIP3     H2       HT       0.417000       1.00800           0
     71498 TIP3     20528    TIP3     OH2      OT      -0.834000       15.9994           0
     71499 TIP3     20528    TIP3     H1       HT       0.417000       1.00800           0
     71500 TIP3     20528    TIP3     H2       HT       0.417000       1.00800           0
     71501 TIP3     20529    TIP3     OH2      OT      -0.834000       15.9994           0
     71502 TIP3     20529    TIP3     H1       HT       0.417000       1.00800           0
     71503 TIP3     20529    TIP3     H2       HT       0.417000       1.00800           0
     71504 TIP3     20530    TIP3     OH2      OT      -0.834000       15.9994           0
     71505 TIP3     20530    TIP3     H1       HT       0.417000       1.00800           0
     71506 TIP3     20530    TIP3     H2       HT       0.417000       1.00800           0
     71507 TIP3     20531    TIP3     OH2      OT      -0.834000       15.9994           0
     71508 TIP3     20531    TIP3     H1       HT       0.417000       1.00800           0
     71509 TIP3     20531    TIP3     H2       HT       0.417000       1.00800           0
     71510 TIP3     20532    TIP3     OH2      OT      -0.834000       15.9994           0
     71511 TIP3     20532    TIP3     H1       HT       0.417000       1.00800           0
     71512 TIP3     20532    TIP3     H2       HT       0.417000       1.00800           0
     71513 TIP3     20533    TIP3     OH2      OT      -0.834000       15.9994           0
     71514 TIP3     20533    TIP3     H1       HT       0.417000       1.00800           0
     71515 TIP3     20533    TIP3     H2       HT       0.417000       1.00800           0
     71516 TIP3     20534    TIP3     OH2      OT      -0.834000       15.9994           0
     71517 TIP3     20534    TIP3     H1       HT       0.417000       1.00800           0
     71518 TIP3     20534    TIP3     H2       HT       0.417000       1.00800           0
     71519 TIP3     20535    TIP3     OH2      OT      -0.834000       15.9994           0
     71520 TIP3     20535    TIP3     H1       HT       0.417000       1.00800           0
     71521 TIP3     20535    TIP3     H2       HT       0.417000       1.00800           0
     71522 TIP3     20536    TIP3     OH2      OT      -0.834000       15.9994           0
     71523 TIP3     20536    TIP3     H1       HT       0.417000       1.00800           0
     71524 TIP3     20536    TIP3     H2       HT       0.417000       1.00800           0
     71525 TIP3     20537    TIP3     OH2      OT      -0.834000       15.9994           0
     71526 TIP3     20537    TIP3     H1       HT       0.417000       1.00800           0
     71527 TIP3     20537    TIP3     H2       HT       0.417000       1.00800           0
     71528 TIP3     20538    TIP3     OH2      OT      -0.834000       15.9994           0
     71529 TIP3     20538    TIP3     H1       HT       0.417000       1.00800           0
     71530 TIP3     20538    TIP3     H2       HT       0.417000       1.00800           0
     71531 TIP3     20539    TIP3     OH2      OT      -0.834000       15.9994           0
     71532 TIP3     20539    TIP3     H1       HT       0.417000       1.00800           0
     71533 TIP3     20539    TIP3     H2       HT       0.417000       1.00800           0
     71534 TIP3     20540    TIP3     OH2      OT      -0.834000       15.9994           0
     71535 TIP3     20540    TIP3     H1       HT       0.417000       1.00800           0
     71536 TIP3     20540    TIP3     H2       HT       0.417000       1.00800           0
     71537 TIP3     20541    TIP3     OH2      OT      -0.834000       15.9994           0
     71538 TIP3     20541    TIP3     H1       HT       0.417000       1.00800           0
     71539 TIP3     20541    TIP3     H2       HT       0.417000       1.00800           0
     71540 TIP3     20542    TIP3     OH2      OT      -0.834000       15.9994           0
     71541 TIP3     20542    TIP3     H1       HT       0.417000       1.00800           0
     71542 TIP3     20542    TIP3     H2       HT       0.417000       1.00800           0
     71543 TIP3     20543    TIP3     OH2      OT      -0.834000       15.9994           0
     71544 TIP3     20543    TIP3     H1       HT       0.417000       1.00800           0
     71545 TIP3     20543    TIP3     H2       HT       0.417000       1.00800           0
     71546 TIP3     20544    TIP3     OH2      OT      -0.834000       15.9994           0
     71547 TIP3     20544    TIP3     H1       HT       0.417000       1.00800           0
     71548 TIP3     20544    TIP3     H2       HT       0.417000       1.00800           0
     71549 TIP3     20545    TIP3     OH2      OT      -0.834000       15.9994           0
     71550 TIP3     20545    TIP3     H1       HT       0.417000       1.00800           0
     71551 TIP3     20545    TIP3     H2       HT       0.417000       1.00800           0
     71552 TIP3     20546    TIP3     OH2      OT      -0.834000       15.9994           0
     71553 TIP3     20546    TIP3     H1       HT       0.417000       1.00800           0
     71554 TIP3     20546    TIP3     H2       HT       0.417000       1.00800           0
     71555 TIP3     20547    TIP3     OH2      OT      -0.834000       15.9994           0
     71556 TIP3     20547    TIP3     H1       HT       0.417000       1.00800           0
     71557 TIP3     20547    TIP3     H2       HT       0.417000       1.00800           0
     71558 TIP3     20548    TIP3     OH2      OT      -0.834000       15.9994           0
     71559 TIP3     20548    TIP3     H1       HT       0.417000       1.00800           0
     71560 TIP3     20548    TIP3     H2       HT       0.417000       1.00800           0
     71561 TIP3     20549    TIP3     OH2      OT      -0.834000       15.9994           0
     71562 TIP3     20549    TIP3     H1       HT       0.417000       1.00800           0
     71563 TIP3     20549    TIP3     H2       HT       0.417000       1.00800           0
     71564 TIP3     20550    TIP3     OH2      OT      -0.834000       15.9994           0
     71565 TIP3     20550    TIP3     H1       HT       0.417000       1.00800           0
     71566 TIP3     20550    TIP3     H2       HT       0.417000       1.00800           0
     71567 TIP3     20551    TIP3     OH2      OT      -0.834000       15.9994           0
     71568 TIP3     20551    TIP3     H1       HT       0.417000       1.00800           0
     71569 TIP3     20551    TIP3     H2       HT       0.417000       1.00800           0
     71570 TIP3     20552    TIP3     OH2      OT      -0.834000       15.9994           0
     71571 TIP3     20552    TIP3     H1       HT       0.417000       1.00800           0
     71572 TIP3     20552    TIP3     H2       HT       0.417000       1.00800           0
     71573 TIP3     20553    TIP3     OH2      OT      -0.834000       15.9994           0
     71574 TIP3     20553    TIP3     H1       HT       0.417000       1.00800           0
     71575 TIP3     20553    TIP3     H2       HT       0.417000       1.00800           0
     71576 TIP3     20554    TIP3     OH2      OT      -0.834000       15.9994           0
     71577 TIP3     20554    TIP3     H1       HT       0.417000       1.00800           0
     71578 TIP3     20554    TIP3     H2       HT       0.417000       1.00800           0
     71579 TIP3     20555    TIP3     OH2      OT      -0.834000       15.9994           0
     71580 TIP3     20555    TIP3     H1       HT       0.417000       1.00800           0
     71581 TIP3     20555    TIP3     H2       HT       0.417000       1.00800           0
     71582 TIP3     20556    TIP3     OH2      OT      -0.834000       15.9994           0
     71583 TIP3     20556    TIP3     H1       HT       0.417000       1.00800           0
     71584 TIP3     20556    TIP3     H2       HT       0.417000       1.00800           0
     71585 TIP3     20557    TIP3     OH2      OT      -0.834000       15.9994           0
     71586 TIP3     20557    TIP3     H1       HT       0.417000       1.00800           0
     71587 TIP3     20557    TIP3     H2       HT       0.417000       1.00800           0
     71588 TIP3     20558    TIP3     OH2      OT      -0.834000       15.9994           0
     71589 TIP3     20558    TIP3     H1       HT       0.417000       1.00800           0
     71590 TIP3     20558    TIP3     H2       HT       0.417000       1.00800           0
     71591 TIP3     20559    TIP3     OH2      OT      -0.834000       15.9994           0
     71592 TIP3     20559    TIP3     H1       HT       0.417000       1.00800           0
     71593 TIP3     20559    TIP3     H2       HT       0.417000       1.00800           0
     71594 TIP3     20560    TIP3     OH2      OT      -0.834000       15.9994           0
     71595 TIP3     20560    TIP3     H1       HT       0.417000       1.00800           0
     71596 TIP3     20560    TIP3     H2       HT       0.417000       1.00800           0
     71597 TIP3     20561    TIP3     OH2      OT      -0.834000       15.9994           0
     71598 TIP3     20561    TIP3     H1       HT       0.417000       1.00800           0
     71599 TIP3     20561    TIP3     H2       HT       0.417000       1.00800           0
     71600 TIP3     20562    TIP3     OH2      OT      -0.834000       15.9994           0
     71601 TIP3     20562    TIP3     H1       HT       0.417000       1.00800           0
     71602 TIP3     20562    TIP3     H2       HT       0.417000       1.00800           0
     71603 TIP3     20563    TIP3     OH2      OT      -0.834000       15.9994           0
     71604 TIP3     20563    TIP3     H1       HT       0.417000       1.00800           0
     71605 TIP3     20563    TIP3     H2       HT       0.417000       1.00800           0
     71606 TIP3     20564    TIP3     OH2      OT      -0.834000       15.9994           0
     71607 TIP3     20564    TIP3     H1       HT       0.417000       1.00800           0
     71608 TIP3     20564    TIP3     H2       HT       0.417000       1.00800           0
     71609 TIP3     20565    TIP3     OH2      OT      -0.834000       15.9994           0
     71610 TIP3     20565    TIP3     H1       HT       0.417000       1.00800           0
     71611 TIP3     20565    TIP3     H2       HT       0.417000       1.00800           0
     71612 TIP3     20566    TIP3     OH2      OT      -0.834000       15.9994           0
     71613 TIP3     20566    TIP3     H1       HT       0.417000       1.00800           0
     71614 TIP3     20566    TIP3     H2       HT       0.417000       1.00800           0
     71615 TIP3     20567    TIP3     OH2      OT      -0.834000       15.9994           0
     71616 TIP3     20567    TIP3     H1       HT       0.417000       1.00800           0
     71617 TIP3     20567    TIP3     H2       HT       0.417000       1.00800           0
     71618 TIP3     20568    TIP3     OH2      OT      -0.834000       15.9994           0
     71619 TIP3     20568    TIP3     H1       HT       0.417000       1.00800           0
     71620 TIP3     20568    TIP3     H2       HT       0.417000       1.00800           0
     71621 TIP3     20569    TIP3     OH2      OT      -0.834000       15.9994           0
     71622 TIP3     20569    TIP3     H1       HT       0.417000       1.00800           0
     71623 TIP3     20569    TIP3     H2       HT       0.417000       1.00800           0
     71624 TIP3     20570    TIP3     OH2      OT      -0.834000       15.9994           0
     71625 TIP3     20570    TIP3     H1       HT       0.417000       1.00800           0
     71626 TIP3     20570    TIP3     H2       HT       0.417000       1.00800           0
     71627 TIP3     20571    TIP3     OH2      OT      -0.834000       15.9994           0
     71628 TIP3     20571    TIP3     H1       HT       0.417000       1.00800           0
     71629 TIP3     20571    TIP3     H2       HT       0.417000       1.00800           0
     71630 TIP3     20572    TIP3     OH2      OT      -0.834000       15.9994           0
     71631 TIP3     20572    TIP3     H1       HT       0.417000       1.00800           0
     71632 TIP3     20572    TIP3     H2       HT       0.417000       1.00800           0
     71633 TIP3     20573    TIP3     OH2      OT      -0.834000       15.9994           0
     71634 TIP3     20573    TIP3     H1       HT       0.417000       1.00800           0
     71635 TIP3     20573    TIP3     H2       HT       0.417000       1.00800           0
     71636 TIP3     20574    TIP3     OH2      OT      -0.834000       15.9994           0
     71637 TIP3     20574    TIP3     H1       HT       0.417000       1.00800           0
     71638 TIP3     20574    TIP3     H2       HT       0.417000       1.00800           0
     71639 TIP3     20575    TIP3     OH2      OT      -0.834000       15.9994           0
     71640 TIP3     20575    TIP3     H1       HT       0.417000       1.00800           0
     71641 TIP3     20575    TIP3     H2       HT       0.417000       1.00800           0
     71642 TIP3     20576    TIP3     OH2      OT      -0.834000       15.9994           0
     71643 TIP3     20576    TIP3     H1       HT       0.417000       1.00800           0
     71644 TIP3     20576    TIP3     H2       HT       0.417000       1.00800           0
     71645 TIP3     20577    TIP3     OH2      OT      -0.834000       15.9994           0
     71646 TIP3     20577    TIP3     H1       HT       0.417000       1.00800           0
     71647 TIP3     20577    TIP3     H2       HT       0.417000       1.00800           0
     71648 TIP3     20578    TIP3     OH2      OT      -0.834000       15.9994           0
     71649 TIP3     20578    TIP3     H1       HT       0.417000       1.00800           0
     71650 TIP3     20578    TIP3     H2       HT       0.417000       1.00800           0
     71651 TIP3     20579    TIP3     OH2      OT      -0.834000       15.9994           0
     71652 TIP3     20579    TIP3     H1       HT       0.417000       1.00800           0
     71653 TIP3     20579    TIP3     H2       HT       0.417000       1.00800           0
     71654 TIP3     20580    TIP3     OH2      OT      -0.834000       15.9994           0
     71655 TIP3     20580    TIP3     H1       HT       0.417000       1.00800           0
     71656 TIP3     20580    TIP3     H2       HT       0.417000       1.00800           0
     71657 TIP3     20581    TIP3     OH2      OT      -0.834000       15.9994           0
     71658 TIP3     20581    TIP3     H1       HT       0.417000       1.00800           0
     71659 TIP3     20581    TIP3     H2       HT       0.417000       1.00800           0
     71660 TIP3     20582    TIP3     OH2      OT      -0.834000       15.9994           0
     71661 TIP3     20582    TIP3     H1       HT       0.417000       1.00800           0
     71662 TIP3     20582    TIP3     H2       HT       0.417000       1.00800           0
     71663 TIP3     20583    TIP3     OH2      OT      -0.834000       15.9994           0
     71664 TIP3     20583    TIP3     H1       HT       0.417000       1.00800           0
     71665 TIP3     20583    TIP3     H2       HT       0.417000       1.00800           0
     71666 TIP3     20584    TIP3     OH2      OT      -0.834000       15.9994           0
     71667 TIP3     20584    TIP3     H1       HT       0.417000       1.00800           0
     71668 TIP3     20584    TIP3     H2       HT       0.417000       1.00800           0
     71669 TIP3     20585    TIP3     OH2      OT      -0.834000       15.9994           0
     71670 TIP3     20585    TIP3     H1       HT       0.417000       1.00800           0
     71671 TIP3     20585    TIP3     H2       HT       0.417000       1.00800           0
     71672 TIP3     20586    TIP3     OH2      OT      -0.834000       15.9994           0
     71673 TIP3     20586    TIP3     H1       HT       0.417000       1.00800           0
     71674 TIP3     20586    TIP3     H2       HT       0.417000       1.00800           0
     71675 TIP3     20587    TIP3     OH2      OT      -0.834000       15.9994           0
     71676 TIP3     20587    TIP3     H1       HT       0.417000       1.00800           0
     71677 TIP3     20587    TIP3     H2       HT       0.417000       1.00800           0
     71678 TIP3     20588    TIP3     OH2      OT      -0.834000       15.9994           0
     71679 TIP3     20588    TIP3     H1       HT       0.417000       1.00800           0
     71680 TIP3     20588    TIP3     H2       HT       0.417000       1.00800           0
     71681 TIP3     20589    TIP3     OH2      OT      -0.834000       15.9994           0
     71682 TIP3     20589    TIP3     H1       HT       0.417000       1.00800           0
     71683 TIP3     20589    TIP3     H2       HT       0.417000       1.00800           0
     71684 TIP3     20590    TIP3     OH2      OT      -0.834000       15.9994           0
     71685 TIP3     20590    TIP3     H1       HT       0.417000       1.00800           0
     71686 TIP3     20590    TIP3     H2       HT       0.417000       1.00800           0
     71687 TIP3     20591    TIP3     OH2      OT      -0.834000       15.9994           0
     71688 TIP3     20591    TIP3     H1       HT       0.417000       1.00800           0
     71689 TIP3     20591    TIP3     H2       HT       0.417000       1.00800           0
     71690 TIP3     20592    TIP3     OH2      OT      -0.834000       15.9994           0
     71691 TIP3     20592    TIP3     H1       HT       0.417000       1.00800           0
     71692 TIP3     20592    TIP3     H2       HT       0.417000       1.00800           0
     71693 TIP3     20593    TIP3     OH2      OT      -0.834000       15.9994           0
     71694 TIP3     20593    TIP3     H1       HT       0.417000       1.00800           0
     71695 TIP3     20593    TIP3     H2       HT       0.417000       1.00800           0
     71696 TIP3     20594    TIP3     OH2      OT      -0.834000       15.9994           0
     71697 TIP3     20594    TIP3     H1       HT       0.417000       1.00800           0
     71698 TIP3     20594    TIP3     H2       HT       0.417000       1.00800           0
     71699 TIP3     20595    TIP3     OH2      OT      -0.834000       15.9994           0
     71700 TIP3     20595    TIP3     H1       HT       0.417000       1.00800           0
     71701 TIP3     20595    TIP3     H2       HT       0.417000       1.00800           0
     71702 TIP3     20596    TIP3     OH2      OT      -0.834000       15.9994           0
     71703 TIP3     20596    TIP3     H1       HT       0.417000       1.00800           0
     71704 TIP3     20596    TIP3     H2       HT       0.417000       1.00800           0
     71705 TIP3     20597    TIP3     OH2      OT      -0.834000       15.9994           0
     71706 TIP3     20597    TIP3     H1       HT       0.417000       1.00800           0
     71707 TIP3     20597    TIP3     H2       HT       0.417000       1.00800           0
     71708 TIP3     20598    TIP3     OH2      OT      -0.834000       15.9994           0
     71709 TIP3     20598    TIP3     H1       HT       0.417000       1.00800           0
     71710 TIP3     20598    TIP3     H2       HT       0.417000       1.00800           0
     71711 TIP3     20599    TIP3     OH2      OT      -0.834000       15.9994           0
     71712 TIP3     20599    TIP3     H1       HT       0.417000       1.00800           0
     71713 TIP3     20599    TIP3     H2       HT       0.417000       1.00800           0
     71714 TIP3     20600    TIP3     OH2      OT      -0.834000       15.9994           0
     71715 TIP3     20600    TIP3     H1       HT       0.417000       1.00800           0
     71716 TIP3     20600    TIP3     H2       HT       0.417000       1.00800           0
     71717 TIP3     20601    TIP3     OH2      OT      -0.834000       15.9994           0
     71718 TIP3     20601    TIP3     H1       HT       0.417000       1.00800           0
     71719 TIP3     20601    TIP3     H2       HT       0.417000       1.00800           0
     71720 TIP3     20602    TIP3     OH2      OT      -0.834000       15.9994           0
     71721 TIP3     20602    TIP3     H1       HT       0.417000       1.00800           0
     71722 TIP3     20602    TIP3     H2       HT       0.417000       1.00800           0
     71723 TIP3     20603    TIP3     OH2      OT      -0.834000       15.9994           0
     71724 TIP3     20603    TIP3     H1       HT       0.417000       1.00800           0
     71725 TIP3     20603    TIP3     H2       HT       0.417000       1.00800           0
     71726 TIP3     20604    TIP3     OH2      OT      -0.834000       15.9994           0
     71727 TIP3     20604    TIP3     H1       HT       0.417000       1.00800           0
     71728 TIP3     20604    TIP3     H2       HT       0.417000       1.00800           0
     71729 TIP3     20605    TIP3     OH2      OT      -0.834000       15.9994           0
     71730 TIP3     20605    TIP3     H1       HT       0.417000       1.00800           0
     71731 TIP3     20605    TIP3     H2       HT       0.417000       1.00800           0
     71732 TIP3     20606    TIP3     OH2      OT      -0.834000       15.9994           0
     71733 TIP3     20606    TIP3     H1       HT       0.417000       1.00800           0
     71734 TIP3     20606    TIP3     H2       HT       0.417000       1.00800           0
     71735 TIP3     20607    TIP3     OH2      OT      -0.834000       15.9994           0
     71736 TIP3     20607    TIP3     H1       HT       0.417000       1.00800           0
     71737 TIP3     20607    TIP3     H2       HT       0.417000       1.00800           0
     71738 TIP3     20608    TIP3     OH2      OT      -0.834000       15.9994           0
     71739 TIP3     20608    TIP3     H1       HT       0.417000       1.00800           0
     71740 TIP3     20608    TIP3     H2       HT       0.417000       1.00800           0
     71741 TIP3     20609    TIP3     OH2      OT      -0.834000       15.9994           0
     71742 TIP3     20609    TIP3     H1       HT       0.417000       1.00800           0
     71743 TIP3     20609    TIP3     H2       HT       0.417000       1.00800           0
     71744 TIP3     20610    TIP3     OH2      OT      -0.834000       15.9994           0
     71745 TIP3     20610    TIP3     H1       HT       0.417000       1.00800           0
     71746 TIP3     20610    TIP3     H2       HT       0.417000       1.00800           0
     71747 TIP3     20611    TIP3     OH2      OT      -0.834000       15.9994           0
     71748 TIP3     20611    TIP3     H1       HT       0.417000       1.00800           0
     71749 TIP3     20611    TIP3     H2       HT       0.417000       1.00800           0
     71750 TIP3     20612    TIP3     OH2      OT      -0.834000       15.9994           0
     71751 TIP3     20612    TIP3     H1       HT       0.417000       1.00800           0
     71752 TIP3     20612    TIP3     H2       HT       0.417000       1.00800           0
     71753 TIP3     20613    TIP3     OH2      OT      -0.834000       15.9994           0
     71754 TIP3     20613    TIP3     H1       HT       0.417000       1.00800           0
     71755 TIP3     20613    TIP3     H2       HT       0.417000       1.00800           0
     71756 TIP3     20614    TIP3     OH2      OT      -0.834000       15.9994           0
     71757 TIP3     20614    TIP3     H1       HT       0.417000       1.00800           0
     71758 TIP3     20614    TIP3     H2       HT       0.417000       1.00800           0
     71759 TIP3     20615    TIP3     OH2      OT      -0.834000       15.9994           0
     71760 TIP3     20615    TIP3     H1       HT       0.417000       1.00800           0
     71761 TIP3     20615    TIP3     H2       HT       0.417000       1.00800           0
     71762 TIP3     20616    TIP3     OH2      OT      -0.834000       15.9994           0
     71763 TIP3     20616    TIP3     H1       HT       0.417000       1.00800           0
     71764 TIP3     20616    TIP3     H2       HT       0.417000       1.00800           0
     71765 TIP3     20617    TIP3     OH2      OT      -0.834000       15.9994           0
     71766 TIP3     20617    TIP3     H1       HT       0.417000       1.00800           0
     71767 TIP3     20617    TIP3     H2       HT       0.417000       1.00800           0
     71768 TIP3     20618    TIP3     OH2      OT      -0.834000       15.9994           0
     71769 TIP3     20618    TIP3     H1       HT       0.417000       1.00800           0
     71770 TIP3     20618    TIP3     H2       HT       0.417000       1.00800           0
     71771 TIP3     20619    TIP3     OH2      OT      -0.834000       15.9994           0
     71772 TIP3     20619    TIP3     H1       HT       0.417000       1.00800           0
     71773 TIP3     20619    TIP3     H2       HT       0.417000       1.00800           0
     71774 TIP3     20620    TIP3     OH2      OT      -0.834000       15.9994           0
     71775 TIP3     20620    TIP3     H1       HT       0.417000       1.00800           0
     71776 TIP3     20620    TIP3     H2       HT       0.417000       1.00800           0
     71777 TIP3     20621    TIP3     OH2      OT      -0.834000       15.9994           0
     71778 TIP3     20621    TIP3     H1       HT       0.417000       1.00800           0
     71779 TIP3     20621    TIP3     H2       HT       0.417000       1.00800           0
     71780 TIP3     20622    TIP3     OH2      OT      -0.834000       15.9994           0
     71781 TIP3     20622    TIP3     H1       HT       0.417000       1.00800           0
     71782 TIP3     20622    TIP3     H2       HT       0.417000       1.00800           0
     71783 TIP3     20623    TIP3     OH2      OT      -0.834000       15.9994           0
     71784 TIP3     20623    TIP3     H1       HT       0.417000       1.00800           0
     71785 TIP3     20623    TIP3     H2       HT       0.417000       1.00800           0
     71786 TIP3     20624    TIP3     OH2      OT      -0.834000       15.9994           0
     71787 TIP3     20624    TIP3     H1       HT       0.417000       1.00800           0
     71788 TIP3     20624    TIP3     H2       HT       0.417000       1.00800           0
     71789 TIP3     20625    TIP3     OH2      OT      -0.834000       15.9994           0
     71790 TIP3     20625    TIP3     H1       HT       0.417000       1.00800           0
     71791 TIP3     20625    TIP3     H2       HT       0.417000       1.00800           0
     71792 TIP3     20626    TIP3     OH2      OT      -0.834000       15.9994           0
     71793 TIP3     20626    TIP3     H1       HT       0.417000       1.00800           0
     71794 TIP3     20626    TIP3     H2       HT       0.417000       1.00800           0
     71795 TIP3     20627    TIP3     OH2      OT      -0.834000       15.9994           0
     71796 TIP3     20627    TIP3     H1       HT       0.417000       1.00800           0
     71797 TIP3     20627    TIP3     H2       HT       0.417000       1.00800           0
     71798 TIP3     20628    TIP3     OH2      OT      -0.834000       15.9994           0
     71799 TIP3     20628    TIP3     H1       HT       0.417000       1.00800           0
     71800 TIP3     20628    TIP3     H2       HT       0.417000       1.00800           0
     71801 TIP3     20629    TIP3     OH2      OT      -0.834000       15.9994           0
     71802 TIP3     20629    TIP3     H1       HT       0.417000       1.00800           0
     71803 TIP3     20629    TIP3     H2       HT       0.417000       1.00800           0
     71804 TIP3     20630    TIP3     OH2      OT      -0.834000       15.9994           0
     71805 TIP3     20630    TIP3     H1       HT       0.417000       1.00800           0
     71806 TIP3     20630    TIP3     H2       HT       0.417000       1.00800           0
     71807 TIP3     20631    TIP3     OH2      OT      -0.834000       15.9994           0
     71808 TIP3     20631    TIP3     H1       HT       0.417000       1.00800           0
     71809 TIP3     20631    TIP3     H2       HT       0.417000       1.00800           0
     71810 TIP3     20632    TIP3     OH2      OT      -0.834000       15.9994           0
     71811 TIP3     20632    TIP3     H1       HT       0.417000       1.00800           0
     71812 TIP3     20632    TIP3     H2       HT       0.417000       1.00800           0
     71813 TIP3     20633    TIP3     OH2      OT      -0.834000       15.9994           0
     71814 TIP3     20633    TIP3     H1       HT       0.417000       1.00800           0
     71815 TIP3     20633    TIP3     H2       HT       0.417000       1.00800           0
     71816 TIP3     20634    TIP3     OH2      OT      -0.834000       15.9994           0
     71817 TIP3     20634    TIP3     H1       HT       0.417000       1.00800           0
     71818 TIP3     20634    TIP3     H2       HT       0.417000       1.00800           0
     71819 TIP3     20635    TIP3     OH2      OT      -0.834000       15.9994           0
     71820 TIP3     20635    TIP3     H1       HT       0.417000       1.00800           0
     71821 TIP3     20635    TIP3     H2       HT       0.417000       1.00800           0
     71822 TIP3     20636    TIP3     OH2      OT      -0.834000       15.9994           0
     71823 TIP3     20636    TIP3     H1       HT       0.417000       1.00800           0
     71824 TIP3     20636    TIP3     H2       HT       0.417000       1.00800           0
     71825 TIP3     20637    TIP3     OH2      OT      -0.834000       15.9994           0
     71826 TIP3     20637    TIP3     H1       HT       0.417000       1.00800           0
     71827 TIP3     20637    TIP3     H2       HT       0.417000       1.00800           0
     71828 TIP3     20638    TIP3     OH2      OT      -0.834000       15.9994           0
     71829 TIP3     20638    TIP3     H1       HT       0.417000       1.00800           0
     71830 TIP3     20638    TIP3     H2       HT       0.417000       1.00800           0
     71831 TIP3     20639    TIP3     OH2      OT      -0.834000       15.9994           0
     71832 TIP3     20639    TIP3     H1       HT       0.417000       1.00800           0
     71833 TIP3     20639    TIP3     H2       HT       0.417000       1.00800           0
     71834 TIP3     20640    TIP3     OH2      OT      -0.834000       15.9994           0
     71835 TIP3     20640    TIP3     H1       HT       0.417000       1.00800           0
     71836 TIP3     20640    TIP3     H2       HT       0.417000       1.00800           0
     71837 TIP3     20641    TIP3     OH2      OT      -0.834000       15.9994           0
     71838 TIP3     20641    TIP3     H1       HT       0.417000       1.00800           0
     71839 TIP3     20641    TIP3     H2       HT       0.417000       1.00800           0
     71840 TIP3     20642    TIP3     OH2      OT      -0.834000       15.9994           0
     71841 TIP3     20642    TIP3     H1       HT       0.417000       1.00800           0
     71842 TIP3     20642    TIP3     H2       HT       0.417000       1.00800           0
     71843 TIP3     20643    TIP3     OH2      OT      -0.834000       15.9994           0
     71844 TIP3     20643    TIP3     H1       HT       0.417000       1.00800           0
     71845 TIP3     20643    TIP3     H2       HT       0.417000       1.00800           0
     71846 TIP3     20644    TIP3     OH2      OT      -0.834000       15.9994           0
     71847 TIP3     20644    TIP3     H1       HT       0.417000       1.00800           0
     71848 TIP3     20644    TIP3     H2       HT       0.417000       1.00800           0
     71849 TIP3     20645    TIP3     OH2      OT      -0.834000       15.9994           0
     71850 TIP3     20645    TIP3     H1       HT       0.417000       1.00800           0
     71851 TIP3     20645    TIP3     H2       HT       0.417000       1.00800           0
     71852 TIP3     20646    TIP3     OH2      OT      -0.834000       15.9994           0
     71853 TIP3     20646    TIP3     H1       HT       0.417000       1.00800           0
     71854 TIP3     20646    TIP3     H2       HT       0.417000       1.00800           0
     71855 TIP3     20647    TIP3     OH2      OT      -0.834000       15.9994           0
     71856 TIP3     20647    TIP3     H1       HT       0.417000       1.00800           0
     71857 TIP3     20647    TIP3     H2       HT       0.417000       1.00800           0
     71858 TIP3     20648    TIP3     OH2      OT      -0.834000       15.9994           0
     71859 TIP3     20648    TIP3     H1       HT       0.417000       1.00800           0
     71860 TIP3     20648    TIP3     H2       HT       0.417000       1.00800           0
     71861 TIP3     20649    TIP3     OH2      OT      -0.834000       15.9994           0
     71862 TIP3     20649    TIP3     H1       HT       0.417000       1.00800           0
     71863 TIP3     20649    TIP3     H2       HT       0.417000       1.00800           0
     71864 TIP3     20650    TIP3     OH2      OT      -0.834000       15.9994           0
     71865 TIP3     20650    TIP3     H1       HT       0.417000       1.00800           0
     71866 TIP3     20650    TIP3     H2       HT       0.417000       1.00800           0
     71867 TIP3     20651    TIP3     OH2      OT      -0.834000       15.9994           0
     71868 TIP3     20651    TIP3     H1       HT       0.417000       1.00800           0
     71869 TIP3     20651    TIP3     H2       HT       0.417000       1.00800           0
     71870 TIP3     20652    TIP3     OH2      OT      -0.834000       15.9994           0
     71871 TIP3     20652    TIP3     H1       HT       0.417000       1.00800           0
     71872 TIP3     20652    TIP3     H2       HT       0.417000       1.00800           0
     71873 TIP3     20653    TIP3     OH2      OT      -0.834000       15.9994           0
     71874 TIP3     20653    TIP3     H1       HT       0.417000       1.00800           0
     71875 TIP3     20653    TIP3     H2       HT       0.417000       1.00800           0
     71876 TIP3     20654    TIP3     OH2      OT      -0.834000       15.9994           0
     71877 TIP3     20654    TIP3     H1       HT       0.417000       1.00800           0
     71878 TIP3     20654    TIP3     H2       HT       0.417000       1.00800           0
     71879 TIP3     20655    TIP3     OH2      OT      -0.834000       15.9994           0
     71880 TIP3     20655    TIP3     H1       HT       0.417000       1.00800           0
     71881 TIP3     20655    TIP3     H2       HT       0.417000       1.00800           0
     71882 TIP3     20656    TIP3     OH2      OT      -0.834000       15.9994           0
     71883 TIP3     20656    TIP3     H1       HT       0.417000       1.00800           0
     71884 TIP3     20656    TIP3     H2       HT       0.417000       1.00800           0
     71885 TIP3     20657    TIP3     OH2      OT      -0.834000       15.9994           0
     71886 TIP3     20657    TIP3     H1       HT       0.417000       1.00800           0
     71887 TIP3     20657    TIP3     H2       HT       0.417000       1.00800           0
     71888 TIP3     20658    TIP3     OH2      OT      -0.834000       15.9994           0
     71889 TIP3     20658    TIP3     H1       HT       0.417000       1.00800           0
     71890 TIP3     20658    TIP3     H2       HT       0.417000       1.00800           0
     71891 TIP3     20659    TIP3     OH2      OT      -0.834000       15.9994           0
     71892 TIP3     20659    TIP3     H1       HT       0.417000       1.00800           0
     71893 TIP3     20659    TIP3     H2       HT       0.417000       1.00800           0
     71894 TIP3     20660    TIP3     OH2      OT      -0.834000       15.9994           0
     71895 TIP3     20660    TIP3     H1       HT       0.417000       1.00800           0
     71896 TIP3     20660    TIP3     H2       HT       0.417000       1.00800           0
     71897 TIP3     20661    TIP3     OH2      OT      -0.834000       15.9994           0
     71898 TIP3     20661    TIP3     H1       HT       0.417000       1.00800           0
     71899 TIP3     20661    TIP3     H2       HT       0.417000       1.00800           0
     71900 TIP3     20662    TIP3     OH2      OT      -0.834000       15.9994           0
     71901 TIP3     20662    TIP3     H1       HT       0.417000       1.00800           0
     71902 TIP3     20662    TIP3     H2       HT       0.417000       1.00800           0
     71903 TIP3     20663    TIP3     OH2      OT      -0.834000       15.9994           0
     71904 TIP3     20663    TIP3     H1       HT       0.417000       1.00800           0
     71905 TIP3     20663    TIP3     H2       HT       0.417000       1.00800           0
     71906 TIP3     20664    TIP3     OH2      OT      -0.834000       15.9994           0
     71907 TIP3     20664    TIP3     H1       HT       0.417000       1.00800           0
     71908 TIP3     20664    TIP3     H2       HT       0.417000       1.00800           0
     71909 TIP3     20665    TIP3     OH2      OT      -0.834000       15.9994           0
     71910 TIP3     20665    TIP3     H1       HT       0.417000       1.00800           0
     71911 TIP3     20665    TIP3     H2       HT       0.417000       1.00800           0
     71912 TIP3     20666    TIP3     OH2      OT      -0.834000       15.9994           0
     71913 TIP3     20666    TIP3     H1       HT       0.417000       1.00800           0
     71914 TIP3     20666    TIP3     H2       HT       0.417000       1.00800           0
     71915 TIP3     20667    TIP3     OH2      OT      -0.834000       15.9994           0
     71916 TIP3     20667    TIP3     H1       HT       0.417000       1.00800           0
     71917 TIP3     20667    TIP3     H2       HT       0.417000       1.00800           0
     71918 TIP3     20668    TIP3     OH2      OT      -0.834000       15.9994           0
     71919 TIP3     20668    TIP3     H1       HT       0.417000       1.00800           0
     71920 TIP3     20668    TIP3     H2       HT       0.417000       1.00800           0
     71921 TIP3     20669    TIP3     OH2      OT      -0.834000       15.9994           0
     71922 TIP3     20669    TIP3     H1       HT       0.417000       1.00800           0
     71923 TIP3     20669    TIP3     H2       HT       0.417000       1.00800           0
     71924 TIP3     20670    TIP3     OH2      OT      -0.834000       15.9994           0
     71925 TIP3     20670    TIP3     H1       HT       0.417000       1.00800           0
     71926 TIP3     20670    TIP3     H2       HT       0.417000       1.00800           0
     71927 TIP3     20671    TIP3     OH2      OT      -0.834000       15.9994           0
     71928 TIP3     20671    TIP3     H1       HT       0.417000       1.00800           0
     71929 TIP3     20671    TIP3     H2       HT       0.417000       1.00800           0
     71930 TIP3     20672    TIP3     OH2      OT      -0.834000       15.9994           0
     71931 TIP3     20672    TIP3     H1       HT       0.417000       1.00800           0
     71932 TIP3     20672    TIP3     H2       HT       0.417000       1.00800           0
     71933 TIP3     20673    TIP3     OH2      OT      -0.834000       15.9994           0
     71934 TIP3     20673    TIP3     H1       HT       0.417000       1.00800           0
     71935 TIP3     20673    TIP3     H2       HT       0.417000       1.00800           0
     71936 TIP3     20674    TIP3     OH2      OT      -0.834000       15.9994           0
     71937 TIP3     20674    TIP3     H1       HT       0.417000       1.00800           0
     71938 TIP3     20674    TIP3     H2       HT       0.417000       1.00800           0
     71939 TIP3     20675    TIP3     OH2      OT      -0.834000       15.9994           0
     71940 TIP3     20675    TIP3     H1       HT       0.417000       1.00800           0
     71941 TIP3     20675    TIP3     H2       HT       0.417000       1.00800           0
     71942 TIP3     20676    TIP3     OH2      OT      -0.834000       15.9994           0
     71943 TIP3     20676    TIP3     H1       HT       0.417000       1.00800           0
     71944 TIP3     20676    TIP3     H2       HT       0.417000       1.00800           0
     71945 TIP3     20677    TIP3     OH2      OT      -0.834000       15.9994           0
     71946 TIP3     20677    TIP3     H1       HT       0.417000       1.00800           0
     71947 TIP3     20677    TIP3     H2       HT       0.417000       1.00800           0
     71948 TIP3     20678    TIP3     OH2      OT      -0.834000       15.9994           0
     71949 TIP3     20678    TIP3     H1       HT       0.417000       1.00800           0
     71950 TIP3     20678    TIP3     H2       HT       0.417000       1.00800           0
     71951 TIP3     20679    TIP3     OH2      OT      -0.834000       15.9994           0
     71952 TIP3     20679    TIP3     H1       HT       0.417000       1.00800           0
     71953 TIP3     20679    TIP3     H2       HT       0.417000       1.00800           0
     71954 TIP3     20680    TIP3     OH2      OT      -0.834000       15.9994           0
     71955 TIP3     20680    TIP3     H1       HT       0.417000       1.00800           0
     71956 TIP3     20680    TIP3     H2       HT       0.417000       1.00800           0
     71957 TIP3     20681    TIP3     OH2      OT      -0.834000       15.9994           0
     71958 TIP3     20681    TIP3     H1       HT       0.417000       1.00800           0
     71959 TIP3     20681    TIP3     H2       HT       0.417000       1.00800           0
     71960 TIP3     20682    TIP3     OH2      OT      -0.834000       15.9994           0
     71961 TIP3     20682    TIP3     H1       HT       0.417000       1.00800           0
     71962 TIP3     20682    TIP3     H2       HT       0.417000       1.00800           0
     71963 TIP3     20683    TIP3     OH2      OT      -0.834000       15.9994           0
     71964 TIP3     20683    TIP3     H1       HT       0.417000       1.00800           0
     71965 TIP3     20683    TIP3     H2       HT       0.417000       1.00800           0
     71966 TIP3     20684    TIP3     OH2      OT      -0.834000       15.9994           0
     71967 TIP3     20684    TIP3     H1       HT       0.417000       1.00800           0
     71968 TIP3     20684    TIP3     H2       HT       0.417000       1.00800           0
     71969 TIP3     20685    TIP3     OH2      OT      -0.834000       15.9994           0
     71970 TIP3     20685    TIP3     H1       HT       0.417000       1.00800           0
     71971 TIP3     20685    TIP3     H2       HT       0.417000       1.00800           0
     71972 TIP3     20686    TIP3     OH2      OT      -0.834000       15.9994           0
     71973 TIP3     20686    TIP3     H1       HT       0.417000       1.00800           0
     71974 TIP3     20686    TIP3     H2       HT       0.417000       1.00800           0
     71975 TIP3     20687    TIP3     OH2      OT      -0.834000       15.9994           0
     71976 TIP3     20687    TIP3     H1       HT       0.417000       1.00800           0
     71977 TIP3     20687    TIP3     H2       HT       0.417000       1.00800           0
     71978 TIP3     20688    TIP3     OH2      OT      -0.834000       15.9994           0
     71979 TIP3     20688    TIP3     H1       HT       0.417000       1.00800           0
     71980 TIP3     20688    TIP3     H2       HT       0.417000       1.00800           0
     71981 TIP3     20689    TIP3     OH2      OT      -0.834000       15.9994           0
     71982 TIP3     20689    TIP3     H1       HT       0.417000       1.00800           0
     71983 TIP3     20689    TIP3     H2       HT       0.417000       1.00800           0
     71984 TIP3     20690    TIP3     OH2      OT      -0.834000       15.9994           0
     71985 TIP3     20690    TIP3     H1       HT       0.417000       1.00800           0
     71986 TIP3     20690    TIP3     H2       HT       0.417000       1.00800           0
     71987 TIP3     20691    TIP3     OH2      OT      -0.834000       15.9994           0
     71988 TIP3     20691    TIP3     H1       HT       0.417000       1.00800           0
     71989 TIP3     20691    TIP3     H2       HT       0.417000       1.00800           0
     71990 TIP3     20692    TIP3     OH2      OT      -0.834000       15.9994           0
     71991 TIP3     20692    TIP3     H1       HT       0.417000       1.00800           0
     71992 TIP3     20692    TIP3     H2       HT       0.417000       1.00800           0
     71993 TIP3     20693    TIP3     OH2      OT      -0.834000       15.9994           0
     71994 TIP3     20693    TIP3     H1       HT       0.417000       1.00800           0
     71995 TIP3     20693    TIP3     H2       HT       0.417000       1.00800           0
     71996 TIP3     20694    TIP3     OH2      OT      -0.834000       15.9994           0
     71997 TIP3     20694    TIP3     H1       HT       0.417000       1.00800           0
     71998 TIP3     20694    TIP3     H2       HT       0.417000       1.00800           0
     71999 TIP3     20695    TIP3     OH2      OT      -0.834000       15.9994           0
     72000 TIP3     20695    TIP3     H1       HT       0.417000       1.00800           0
     72001 TIP3     20695    TIP3     H2       HT       0.417000       1.00800           0
     72002 TIP3     20696    TIP3     OH2      OT      -0.834000       15.9994           0
     72003 TIP3     20696    TIP3     H1       HT       0.417000       1.00800           0
     72004 TIP3     20696    TIP3     H2       HT       0.417000       1.00800           0
     72005 TIP3     20697    TIP3     OH2      OT      -0.834000       15.9994           0
     72006 TIP3     20697    TIP3     H1       HT       0.417000       1.00800           0
     72007 TIP3     20697    TIP3     H2       HT       0.417000       1.00800           0
     72008 TIP3     20698    TIP3     OH2      OT      -0.834000       15.9994           0
     72009 TIP3     20698    TIP3     H1       HT       0.417000       1.00800           0
     72010 TIP3     20698    TIP3     H2       HT       0.417000       1.00800           0
     72011 TIP3     20699    TIP3     OH2      OT      -0.834000       15.9994           0
     72012 TIP3     20699    TIP3     H1       HT       0.417000       1.00800           0
     72013 TIP3     20699    TIP3     H2       HT       0.417000       1.00800           0
     72014 TIP3     20700    TIP3     OH2      OT      -0.834000       15.9994           0
     72015 TIP3     20700    TIP3     H1       HT       0.417000       1.00800           0
     72016 TIP3     20700    TIP3     H2       HT       0.417000       1.00800           0
     72017 TIP3     20701    TIP3     OH2      OT      -0.834000       15.9994           0
     72018 TIP3     20701    TIP3     H1       HT       0.417000       1.00800           0
     72019 TIP3     20701    TIP3     H2       HT       0.417000       1.00800           0
     72020 TIP3     20702    TIP3     OH2      OT      -0.834000       15.9994           0
     72021 TIP3     20702    TIP3     H1       HT       0.417000       1.00800           0
     72022 TIP3     20702    TIP3     H2       HT       0.417000       1.00800           0
     72023 TIP3     20703    TIP3     OH2      OT      -0.834000       15.9994           0
     72024 TIP3     20703    TIP3     H1       HT       0.417000       1.00800           0
     72025 TIP3     20703    TIP3     H2       HT       0.417000       1.00800           0
     72026 TIP3     20704    TIP3     OH2      OT      -0.834000       15.9994           0
     72027 TIP3     20704    TIP3     H1       HT       0.417000       1.00800           0
     72028 TIP3     20704    TIP3     H2       HT       0.417000       1.00800           0
     72029 TIP3     20705    TIP3     OH2      OT      -0.834000       15.9994           0
     72030 TIP3     20705    TIP3     H1       HT       0.417000       1.00800           0
     72031 TIP3     20705    TIP3     H2       HT       0.417000       1.00800           0
     72032 TIP3     20706    TIP3     OH2      OT      -0.834000       15.9994           0
     72033 TIP3     20706    TIP3     H1       HT       0.417000       1.00800           0
     72034 TIP3     20706    TIP3     H2       HT       0.417000       1.00800           0
     72035 TIP3     20707    TIP3     OH2      OT      -0.834000       15.9994           0
     72036 TIP3     20707    TIP3     H1       HT       0.417000       1.00800           0
     72037 TIP3     20707    TIP3     H2       HT       0.417000       1.00800           0
     72038 TIP3     20708    TIP3     OH2      OT      -0.834000       15.9994           0
     72039 TIP3     20708    TIP3     H1       HT       0.417000       1.00800           0
     72040 TIP3     20708    TIP3     H2       HT       0.417000       1.00800           0
     72041 TIP3     20709    TIP3     OH2      OT      -0.834000       15.9994           0
     72042 TIP3     20709    TIP3     H1       HT       0.417000       1.00800           0
     72043 TIP3     20709    TIP3     H2       HT       0.417000       1.00800           0
     72044 TIP3     20710    TIP3     OH2      OT      -0.834000       15.9994           0
     72045 TIP3     20710    TIP3     H1       HT       0.417000       1.00800           0
     72046 TIP3     20710    TIP3     H2       HT       0.417000       1.00800           0
     72047 TIP3     20711    TIP3     OH2      OT      -0.834000       15.9994           0
     72048 TIP3     20711    TIP3     H1       HT       0.417000       1.00800           0
     72049 TIP3     20711    TIP3     H2       HT       0.417000       1.00800           0
     72050 TIP3     20712    TIP3     OH2      OT      -0.834000       15.9994           0
     72051 TIP3     20712    TIP3     H1       HT       0.417000       1.00800           0
     72052 TIP3     20712    TIP3     H2       HT       0.417000       1.00800           0
     72053 TIP3     20713    TIP3     OH2      OT      -0.834000       15.9994           0
     72054 TIP3     20713    TIP3     H1       HT       0.417000       1.00800           0
     72055 TIP3     20713    TIP3     H2       HT       0.417000       1.00800           0
     72056 TIP3     20714    TIP3     OH2      OT      -0.834000       15.9994           0
     72057 TIP3     20714    TIP3     H1       HT       0.417000       1.00800           0
     72058 TIP3     20714    TIP3     H2       HT       0.417000       1.00800           0
     72059 TIP3     20715    TIP3     OH2      OT      -0.834000       15.9994           0
     72060 TIP3     20715    TIP3     H1       HT       0.417000       1.00800           0
     72061 TIP3     20715    TIP3     H2       HT       0.417000       1.00800           0
     72062 TIP3     20716    TIP3     OH2      OT      -0.834000       15.9994           0
     72063 TIP3     20716    TIP3     H1       HT       0.417000       1.00800           0
     72064 TIP3     20716    TIP3     H2       HT       0.417000       1.00800           0
     72065 TIP3     20717    TIP3     OH2      OT      -0.834000       15.9994           0
     72066 TIP3     20717    TIP3     H1       HT       0.417000       1.00800           0
     72067 TIP3     20717    TIP3     H2       HT       0.417000       1.00800           0
     72068 TIP3     20718    TIP3     OH2      OT      -0.834000       15.9994           0
     72069 TIP3     20718    TIP3     H1       HT       0.417000       1.00800           0
     72070 TIP3     20718    TIP3     H2       HT       0.417000       1.00800           0
     72071 TIP3     20719    TIP3     OH2      OT      -0.834000       15.9994           0
     72072 TIP3     20719    TIP3     H1       HT       0.417000       1.00800           0
     72073 TIP3     20719    TIP3     H2       HT       0.417000       1.00800           0
     72074 TIP3     20720    TIP3     OH2      OT      -0.834000       15.9994           0
     72075 TIP3     20720    TIP3     H1       HT       0.417000       1.00800           0
     72076 TIP3     20720    TIP3     H2       HT       0.417000       1.00800           0
     72077 TIP3     20721    TIP3     OH2      OT      -0.834000       15.9994           0
     72078 TIP3     20721    TIP3     H1       HT       0.417000       1.00800           0
     72079 TIP3     20721    TIP3     H2       HT       0.417000       1.00800           0
     72080 TIP3     20722    TIP3     OH2      OT      -0.834000       15.9994           0
     72081 TIP3     20722    TIP3     H1       HT       0.417000       1.00800           0
     72082 TIP3     20722    TIP3     H2       HT       0.417000       1.00800           0
     72083 TIP3     20723    TIP3     OH2      OT      -0.834000       15.9994           0
     72084 TIP3     20723    TIP3     H1       HT       0.417000       1.00800           0
     72085 TIP3     20723    TIP3     H2       HT       0.417000       1.00800           0
     72086 TIP3     20724    TIP3     OH2      OT      -0.834000       15.9994           0
     72087 TIP3     20724    TIP3     H1       HT       0.417000       1.00800           0
     72088 TIP3     20724    TIP3     H2       HT       0.417000       1.00800           0
     72089 TIP3     20725    TIP3     OH2      OT      -0.834000       15.9994           0
     72090 TIP3     20725    TIP3     H1       HT       0.417000       1.00800           0
     72091 TIP3     20725    TIP3     H2       HT       0.417000       1.00800           0
     72092 TIP3     20726    TIP3     OH2      OT      -0.834000       15.9994           0
     72093 TIP3     20726    TIP3     H1       HT       0.417000       1.00800           0
     72094 TIP3     20726    TIP3     H2       HT       0.417000       1.00800           0
     72095 TIP3     20727    TIP3     OH2      OT      -0.834000       15.9994           0
     72096 TIP3     20727    TIP3     H1       HT       0.417000       1.00800           0
     72097 TIP3     20727    TIP3     H2       HT       0.417000       1.00800           0
     72098 TIP3     20728    TIP3     OH2      OT      -0.834000       15.9994           0
     72099 TIP3     20728    TIP3     H1       HT       0.417000       1.00800           0
     72100 TIP3     20728    TIP3     H2       HT       0.417000       1.00800           0
     72101 TIP3     20729    TIP3     OH2      OT      -0.834000       15.9994           0
     72102 TIP3     20729    TIP3     H1       HT       0.417000       1.00800           0
     72103 TIP3     20729    TIP3     H2       HT       0.417000       1.00800           0
     72104 TIP3     20730    TIP3     OH2      OT      -0.834000       15.9994           0
     72105 TIP3     20730    TIP3     H1       HT       0.417000       1.00800           0
     72106 TIP3     20730    TIP3     H2       HT       0.417000       1.00800           0
     72107 TIP3     20731    TIP3     OH2      OT      -0.834000       15.9994           0
     72108 TIP3     20731    TIP3     H1       HT       0.417000       1.00800           0
     72109 TIP3     20731    TIP3     H2       HT       0.417000       1.00800           0
     72110 TIP3     20732    TIP3     OH2      OT      -0.834000       15.9994           0
     72111 TIP3     20732    TIP3     H1       HT       0.417000       1.00800           0
     72112 TIP3     20732    TIP3     H2       HT       0.417000       1.00800           0
     72113 TIP3     20733    TIP3     OH2      OT      -0.834000       15.9994           0
     72114 TIP3     20733    TIP3     H1       HT       0.417000       1.00800           0
     72115 TIP3     20733    TIP3     H2       HT       0.417000       1.00800           0
     72116 TIP3     20734    TIP3     OH2      OT      -0.834000       15.9994           0
     72117 TIP3     20734    TIP3     H1       HT       0.417000       1.00800           0
     72118 TIP3     20734    TIP3     H2       HT       0.417000       1.00800           0
     72119 TIP3     20735    TIP3     OH2      OT      -0.834000       15.9994           0
     72120 TIP3     20735    TIP3     H1       HT       0.417000       1.00800           0
     72121 TIP3     20735    TIP3     H2       HT       0.417000       1.00800           0
     72122 TIP3     20736    TIP3     OH2      OT      -0.834000       15.9994           0
     72123 TIP3     20736    TIP3     H1       HT       0.417000       1.00800           0
     72124 TIP3     20736    TIP3     H2       HT       0.417000       1.00800           0
     72125 TIP3     20737    TIP3     OH2      OT      -0.834000       15.9994           0
     72126 TIP3     20737    TIP3     H1       HT       0.417000       1.00800           0
     72127 TIP3     20737    TIP3     H2       HT       0.417000       1.00800           0
     72128 TIP3     20738    TIP3     OH2      OT      -0.834000       15.9994           0
     72129 TIP3     20738    TIP3     H1       HT       0.417000       1.00800           0
     72130 TIP3     20738    TIP3     H2       HT       0.417000       1.00800           0
     72131 TIP3     20739    TIP3     OH2      OT      -0.834000       15.9994           0
     72132 TIP3     20739    TIP3     H1       HT       0.417000       1.00800           0
     72133 TIP3     20739    TIP3     H2       HT       0.417000       1.00800           0
     72134 TIP3     20740    TIP3     OH2      OT      -0.834000       15.9994           0
     72135 TIP3     20740    TIP3     H1       HT       0.417000       1.00800           0
     72136 TIP3     20740    TIP3     H2       HT       0.417000       1.00800           0
     72137 TIP3     20741    TIP3     OH2      OT      -0.834000       15.9994           0
     72138 TIP3     20741    TIP3     H1       HT       0.417000       1.00800           0
     72139 TIP3     20741    TIP3     H2       HT       0.417000       1.00800           0
     72140 TIP3     20742    TIP3     OH2      OT      -0.834000       15.9994           0
     72141 TIP3     20742    TIP3     H1       HT       0.417000       1.00800           0
     72142 TIP3     20742    TIP3     H2       HT       0.417000       1.00800           0
     72143 TIP3     20743    TIP3     OH2      OT      -0.834000       15.9994           0
     72144 TIP3     20743    TIP3     H1       HT       0.417000       1.00800           0
     72145 TIP3     20743    TIP3     H2       HT       0.417000       1.00800           0
     72146 TIP3     20744    TIP3     OH2      OT      -0.834000       15.9994           0
     72147 TIP3     20744    TIP3     H1       HT       0.417000       1.00800           0
     72148 TIP3     20744    TIP3     H2       HT       0.417000       1.00800           0
     72149 TIP3     20745    TIP3     OH2      OT      -0.834000       15.9994           0
     72150 TIP3     20745    TIP3     H1       HT       0.417000       1.00800           0
     72151 TIP3     20745    TIP3     H2       HT       0.417000       1.00800           0
     72152 TIP3     20746    TIP3     OH2      OT      -0.834000       15.9994           0
     72153 TIP3     20746    TIP3     H1       HT       0.417000       1.00800           0
     72154 TIP3     20746    TIP3     H2       HT       0.417000       1.00800           0
     72155 TIP3     20747    TIP3     OH2      OT      -0.834000       15.9994           0
     72156 TIP3     20747    TIP3     H1       HT       0.417000       1.00800           0
     72157 TIP3     20747    TIP3     H2       HT       0.417000       1.00800           0
     72158 TIP3     20748    TIP3     OH2      OT      -0.834000       15.9994           0
     72159 TIP3     20748    TIP3     H1       HT       0.417000       1.00800           0
     72160 TIP3     20748    TIP3     H2       HT       0.417000       1.00800           0
     72161 TIP3     20749    TIP3     OH2      OT      -0.834000       15.9994           0
     72162 TIP3     20749    TIP3     H1       HT       0.417000       1.00800           0
     72163 TIP3     20749    TIP3     H2       HT       0.417000       1.00800           0
     72164 TIP3     20750    TIP3     OH2      OT      -0.834000       15.9994           0
     72165 TIP3     20750    TIP3     H1       HT       0.417000       1.00800           0
     72166 TIP3     20750    TIP3     H2       HT       0.417000       1.00800           0
     72167 TIP3     20751    TIP3     OH2      OT      -0.834000       15.9994           0
     72168 TIP3     20751    TIP3     H1       HT       0.417000       1.00800           0
     72169 TIP3     20751    TIP3     H2       HT       0.417000       1.00800           0
     72170 TIP3     20752    TIP3     OH2      OT      -0.834000       15.9994           0
     72171 TIP3     20752    TIP3     H1       HT       0.417000       1.00800           0
     72172 TIP3     20752    TIP3     H2       HT       0.417000       1.00800           0
     72173 TIP3     20753    TIP3     OH2      OT      -0.834000       15.9994           0
     72174 TIP3     20753    TIP3     H1       HT       0.417000       1.00800           0
     72175 TIP3     20753    TIP3     H2       HT       0.417000       1.00800           0
     72176 TIP3     20754    TIP3     OH2      OT      -0.834000       15.9994           0
     72177 TIP3     20754    TIP3     H1       HT       0.417000       1.00800           0
     72178 TIP3     20754    TIP3     H2       HT       0.417000       1.00800           0
     72179 TIP3     20755    TIP3     OH2      OT      -0.834000       15.9994           0
     72180 TIP3     20755    TIP3     H1       HT       0.417000       1.00800           0
     72181 TIP3     20755    TIP3     H2       HT       0.417000       1.00800           0
     72182 TIP3     20756    TIP3     OH2      OT      -0.834000       15.9994           0
     72183 TIP3     20756    TIP3     H1       HT       0.417000       1.00800           0
     72184 TIP3     20756    TIP3     H2       HT       0.417000       1.00800           0
     72185 TIP3     20757    TIP3     OH2      OT      -0.834000       15.9994           0
     72186 TIP3     20757    TIP3     H1       HT       0.417000       1.00800           0
     72187 TIP3     20757    TIP3     H2       HT       0.417000       1.00800           0
     72188 TIP3     20758    TIP3     OH2      OT      -0.834000       15.9994           0
     72189 TIP3     20758    TIP3     H1       HT       0.417000       1.00800           0
     72190 TIP3     20758    TIP3     H2       HT       0.417000       1.00800           0
     72191 TIP3     20759    TIP3     OH2      OT      -0.834000       15.9994           0
     72192 TIP3     20759    TIP3     H1       HT       0.417000       1.00800           0
     72193 TIP3     20759    TIP3     H2       HT       0.417000       1.00800           0
     72194 TIP3     20760    TIP3     OH2      OT      -0.834000       15.9994           0
     72195 TIP3     20760    TIP3     H1       HT       0.417000       1.00800           0
     72196 TIP3     20760    TIP3     H2       HT       0.417000       1.00800           0
     72197 TIP3     20761    TIP3     OH2      OT      -0.834000       15.9994           0
     72198 TIP3     20761    TIP3     H1       HT       0.417000       1.00800           0
     72199 TIP3     20761    TIP3     H2       HT       0.417000       1.00800           0
     72200 TIP3     20762    TIP3     OH2      OT      -0.834000       15.9994           0
     72201 TIP3     20762    TIP3     H1       HT       0.417000       1.00800           0
     72202 TIP3     20762    TIP3     H2       HT       0.417000       1.00800           0
     72203 TIP3     20763    TIP3     OH2      OT      -0.834000       15.9994           0
     72204 TIP3     20763    TIP3     H1       HT       0.417000       1.00800           0
     72205 TIP3     20763    TIP3     H2       HT       0.417000       1.00800           0
     72206 TIP3     20764    TIP3     OH2      OT      -0.834000       15.9994           0
     72207 TIP3     20764    TIP3     H1       HT       0.417000       1.00800           0
     72208 TIP3     20764    TIP3     H2       HT       0.417000       1.00800           0
     72209 TIP3     20765    TIP3     OH2      OT      -0.834000       15.9994           0
     72210 TIP3     20765    TIP3     H1       HT       0.417000       1.00800           0
     72211 TIP3     20765    TIP3     H2       HT       0.417000       1.00800           0
     72212 TIP3     20766    TIP3     OH2      OT      -0.834000       15.9994           0
     72213 TIP3     20766    TIP3     H1       HT       0.417000       1.00800           0
     72214 TIP3     20766    TIP3     H2       HT       0.417000       1.00800           0
     72215 TIP3     20767    TIP3     OH2      OT      -0.834000       15.9994           0
     72216 TIP3     20767    TIP3     H1       HT       0.417000       1.00800           0
     72217 TIP3     20767    TIP3     H2       HT       0.417000       1.00800           0
     72218 TIP3     20768    TIP3     OH2      OT      -0.834000       15.9994           0
     72219 TIP3     20768    TIP3     H1       HT       0.417000       1.00800           0
     72220 TIP3     20768    TIP3     H2       HT       0.417000       1.00800           0
     72221 TIP3     20769    TIP3     OH2      OT      -0.834000       15.9994           0
     72222 TIP3     20769    TIP3     H1       HT       0.417000       1.00800           0
     72223 TIP3     20769    TIP3     H2       HT       0.417000       1.00800           0
     72224 TIP3     20770    TIP3     OH2      OT      -0.834000       15.9994           0
     72225 TIP3     20770    TIP3     H1       HT       0.417000       1.00800           0
     72226 TIP3     20770    TIP3     H2       HT       0.417000       1.00800           0
     72227 TIP3     20771    TIP3     OH2      OT      -0.834000       15.9994           0
     72228 TIP3     20771    TIP3     H1       HT       0.417000       1.00800           0
     72229 TIP3     20771    TIP3     H2       HT       0.417000       1.00800           0
     72230 TIP3     20772    TIP3     OH2      OT      -0.834000       15.9994           0
     72231 TIP3     20772    TIP3     H1       HT       0.417000       1.00800           0
     72232 TIP3     20772    TIP3     H2       HT       0.417000       1.00800           0
     72233 TIP3     20773    TIP3     OH2      OT      -0.834000       15.9994           0
     72234 TIP3     20773    TIP3     H1       HT       0.417000       1.00800           0
     72235 TIP3     20773    TIP3     H2       HT       0.417000       1.00800           0
     72236 TIP3     20774    TIP3     OH2      OT      -0.834000       15.9994           0
     72237 TIP3     20774    TIP3     H1       HT       0.417000       1.00800           0
     72238 TIP3     20774    TIP3     H2       HT       0.417000       1.00800           0
     72239 TIP3     20775    TIP3     OH2      OT      -0.834000       15.9994           0
     72240 TIP3     20775    TIP3     H1       HT       0.417000       1.00800           0
     72241 TIP3     20775    TIP3     H2       HT       0.417000       1.00800           0
     72242 TIP3     20776    TIP3     OH2      OT      -0.834000       15.9994           0
     72243 TIP3     20776    TIP3     H1       HT       0.417000       1.00800           0
     72244 TIP3     20776    TIP3     H2       HT       0.417000       1.00800           0
     72245 TIP3     20777    TIP3     OH2      OT      -0.834000       15.9994           0
     72246 TIP3     20777    TIP3     H1       HT       0.417000       1.00800           0
     72247 TIP3     20777    TIP3     H2       HT       0.417000       1.00800           0
     72248 TIP3     20778    TIP3     OH2      OT      -0.834000       15.9994           0
     72249 TIP3     20778    TIP3     H1       HT       0.417000       1.00800           0
     72250 TIP3     20778    TIP3     H2       HT       0.417000       1.00800           0
     72251 TIP3     20779    TIP3     OH2      OT      -0.834000       15.9994           0
     72252 TIP3     20779    TIP3     H1       HT       0.417000       1.00800           0
     72253 TIP3     20779    TIP3     H2       HT       0.417000       1.00800           0
     72254 TIP3     20780    TIP3     OH2      OT      -0.834000       15.9994           0
     72255 TIP3     20780    TIP3     H1       HT       0.417000       1.00800           0
     72256 TIP3     20780    TIP3     H2       HT       0.417000       1.00800           0
     72257 TIP3     20781    TIP3     OH2      OT      -0.834000       15.9994           0
     72258 TIP3     20781    TIP3     H1       HT       0.417000       1.00800           0
     72259 TIP3     20781    TIP3     H2       HT       0.417000       1.00800           0
     72260 TIP3     20782    TIP3     OH2      OT      -0.834000       15.9994           0
     72261 TIP3     20782    TIP3     H1       HT       0.417000       1.00800           0
     72262 TIP3     20782    TIP3     H2       HT       0.417000       1.00800           0
     72263 TIP3     20783    TIP3     OH2      OT      -0.834000       15.9994           0
     72264 TIP3     20783    TIP3     H1       HT       0.417000       1.00800           0
     72265 TIP3     20783    TIP3     H2       HT       0.417000       1.00800           0
     72266 TIP3     20784    TIP3     OH2      OT      -0.834000       15.9994           0
     72267 TIP3     20784    TIP3     H1       HT       0.417000       1.00800           0
     72268 TIP3     20784    TIP3     H2       HT       0.417000       1.00800           0
     72269 TIP3     20785    TIP3     OH2      OT      -0.834000       15.9994           0
     72270 TIP3     20785    TIP3     H1       HT       0.417000       1.00800           0
     72271 TIP3     20785    TIP3     H2       HT       0.417000       1.00800           0
     72272 TIP3     20786    TIP3     OH2      OT      -0.834000       15.9994           0
     72273 TIP3     20786    TIP3     H1       HT       0.417000       1.00800           0
     72274 TIP3     20786    TIP3     H2       HT       0.417000       1.00800           0
     72275 TIP3     20787    TIP3     OH2      OT      -0.834000       15.9994           0
     72276 TIP3     20787    TIP3     H1       HT       0.417000       1.00800           0
     72277 TIP3     20787    TIP3     H2       HT       0.417000       1.00800           0
     72278 TIP3     20788    TIP3     OH2      OT      -0.834000       15.9994           0
     72279 TIP3     20788    TIP3     H1       HT       0.417000       1.00800           0
     72280 TIP3     20788    TIP3     H2       HT       0.417000       1.00800           0
     72281 TIP3     20789    TIP3     OH2      OT      -0.834000       15.9994           0
     72282 TIP3     20789    TIP3     H1       HT       0.417000       1.00800           0
     72283 TIP3     20789    TIP3     H2       HT       0.417000       1.00800           0
     72284 TIP3     20790    TIP3     OH2      OT      -0.834000       15.9994           0
     72285 TIP3     20790    TIP3     H1       HT       0.417000       1.00800           0
     72286 TIP3     20790    TIP3     H2       HT       0.417000       1.00800           0
     72287 TIP3     20791    TIP3     OH2      OT      -0.834000       15.9994           0
     72288 TIP3     20791    TIP3     H1       HT       0.417000       1.00800           0
     72289 TIP3     20791    TIP3     H2       HT       0.417000       1.00800           0
     72290 TIP3     20792    TIP3     OH2      OT      -0.834000       15.9994           0
     72291 TIP3     20792    TIP3     H1       HT       0.417000       1.00800           0
     72292 TIP3     20792    TIP3     H2       HT       0.417000       1.00800           0
     72293 TIP3     20793    TIP3     OH2      OT      -0.834000       15.9994           0
     72294 TIP3     20793    TIP3     H1       HT       0.417000       1.00800           0
     72295 TIP3     20793    TIP3     H2       HT       0.417000       1.00800           0
     72296 TIP3     20794    TIP3     OH2      OT      -0.834000       15.9994           0
     72297 TIP3     20794    TIP3     H1       HT       0.417000       1.00800           0
     72298 TIP3     20794    TIP3     H2       HT       0.417000       1.00800           0
     72299 TIP3     20795    TIP3     OH2      OT      -0.834000       15.9994           0
     72300 TIP3     20795    TIP3     H1       HT       0.417000       1.00800           0
     72301 TIP3     20795    TIP3     H2       HT       0.417000       1.00800           0
     72302 TIP3     20796    TIP3     OH2      OT      -0.834000       15.9994           0
     72303 TIP3     20796    TIP3     H1       HT       0.417000       1.00800           0
     72304 TIP3     20796    TIP3     H2       HT       0.417000       1.00800           0
     72305 TIP3     20797    TIP3     OH2      OT      -0.834000       15.9994           0
     72306 TIP3     20797    TIP3     H1       HT       0.417000       1.00800           0
     72307 TIP3     20797    TIP3     H2       HT       0.417000       1.00800           0
     72308 TIP3     20798    TIP3     OH2      OT      -0.834000       15.9994           0
     72309 TIP3     20798    TIP3     H1       HT       0.417000       1.00800           0
     72310 TIP3     20798    TIP3     H2       HT       0.417000       1.00800           0
     72311 TIP3     20799    TIP3     OH2      OT      -0.834000       15.9994           0
     72312 TIP3     20799    TIP3     H1       HT       0.417000       1.00800           0
     72313 TIP3     20799    TIP3     H2       HT       0.417000       1.00800           0
     72314 TIP3     20800    TIP3     OH2      OT      -0.834000       15.9994           0
     72315 TIP3     20800    TIP3     H1       HT       0.417000       1.00800           0
     72316 TIP3     20800    TIP3     H2       HT       0.417000       1.00800           0
     72317 TIP3     20801    TIP3     OH2      OT      -0.834000       15.9994           0
     72318 TIP3     20801    TIP3     H1       HT       0.417000       1.00800           0
     72319 TIP3     20801    TIP3     H2       HT       0.417000       1.00800           0
     72320 TIP3     20802    TIP3     OH2      OT      -0.834000       15.9994           0
     72321 TIP3     20802    TIP3     H1       HT       0.417000       1.00800           0
     72322 TIP3     20802    TIP3     H2       HT       0.417000       1.00800           0
     72323 TIP3     20803    TIP3     OH2      OT      -0.834000       15.9994           0
     72324 TIP3     20803    TIP3     H1       HT       0.417000       1.00800           0
     72325 TIP3     20803    TIP3     H2       HT       0.417000       1.00800           0
     72326 TIP3     20804    TIP3     OH2      OT      -0.834000       15.9994           0
     72327 TIP3     20804    TIP3     H1       HT       0.417000       1.00800           0
     72328 TIP3     20804    TIP3     H2       HT       0.417000       1.00800           0
     72329 TIP3     20805    TIP3     OH2      OT      -0.834000       15.9994           0
     72330 TIP3     20805    TIP3     H1       HT       0.417000       1.00800           0
     72331 TIP3     20805    TIP3     H2       HT       0.417000       1.00800           0
     72332 TIP3     20806    TIP3     OH2      OT      -0.834000       15.9994           0
     72333 TIP3     20806    TIP3     H1       HT       0.417000       1.00800           0
     72334 TIP3     20806    TIP3     H2       HT       0.417000       1.00800           0
     72335 TIP3     20807    TIP3     OH2      OT      -0.834000       15.9994           0
     72336 TIP3     20807    TIP3     H1       HT       0.417000       1.00800           0
     72337 TIP3     20807    TIP3     H2       HT       0.417000       1.00800           0
     72338 TIP3     20808    TIP3     OH2      OT      -0.834000       15.9994           0
     72339 TIP3     20808    TIP3     H1       HT       0.417000       1.00800           0
     72340 TIP3     20808    TIP3     H2       HT       0.417000       1.00800           0
     72341 TIP3     20809    TIP3     OH2      OT      -0.834000       15.9994           0
     72342 TIP3     20809    TIP3     H1       HT       0.417000       1.00800           0
     72343 TIP3     20809    TIP3     H2       HT       0.417000       1.00800           0
     72344 TIP3     20810    TIP3     OH2      OT      -0.834000       15.9994           0
     72345 TIP3     20810    TIP3     H1       HT       0.417000       1.00800           0
     72346 TIP3     20810    TIP3     H2       HT       0.417000       1.00800           0
     72347 TIP3     20811    TIP3     OH2      OT      -0.834000       15.9994           0
     72348 TIP3     20811    TIP3     H1       HT       0.417000       1.00800           0
     72349 TIP3     20811    TIP3     H2       HT       0.417000       1.00800           0
     72350 TIP3     20812    TIP3     OH2      OT      -0.834000       15.9994           0
     72351 TIP3     20812    TIP3     H1       HT       0.417000       1.00800           0
     72352 TIP3     20812    TIP3     H2       HT       0.417000       1.00800           0
     72353 TIP3     20813    TIP3     OH2      OT      -0.834000       15.9994           0
     72354 TIP3     20813    TIP3     H1       HT       0.417000       1.00800           0
     72355 TIP3     20813    TIP3     H2       HT       0.417000       1.00800           0
     72356 TIP3     20814    TIP3     OH2      OT      -0.834000       15.9994           0
     72357 TIP3     20814    TIP3     H1       HT       0.417000       1.00800           0
     72358 TIP3     20814    TIP3     H2       HT       0.417000       1.00800           0
     72359 TIP3     20815    TIP3     OH2      OT      -0.834000       15.9994           0
     72360 TIP3     20815    TIP3     H1       HT       0.417000       1.00800           0
     72361 TIP3     20815    TIP3     H2       HT       0.417000       1.00800           0
     72362 TIP3     20816    TIP3     OH2      OT      -0.834000       15.9994           0
     72363 TIP3     20816    TIP3     H1       HT       0.417000       1.00800           0
     72364 TIP3     20816    TIP3     H2       HT       0.417000       1.00800           0
     72365 TIP3     20817    TIP3     OH2      OT      -0.834000       15.9994           0
     72366 TIP3     20817    TIP3     H1       HT       0.417000       1.00800           0
     72367 TIP3     20817    TIP3     H2       HT       0.417000       1.00800           0
     72368 TIP3     20818    TIP3     OH2      OT      -0.834000       15.9994           0
     72369 TIP3     20818    TIP3     H1       HT       0.417000       1.00800           0
     72370 TIP3     20818    TIP3     H2       HT       0.417000       1.00800           0
     72371 TIP3     20819    TIP3     OH2      OT      -0.834000       15.9994           0
     72372 TIP3     20819    TIP3     H1       HT       0.417000       1.00800           0
     72373 TIP3     20819    TIP3     H2       HT       0.417000       1.00800           0
     72374 TIP3     20820    TIP3     OH2      OT      -0.834000       15.9994           0
     72375 TIP3     20820    TIP3     H1       HT       0.417000       1.00800           0
     72376 TIP3     20820    TIP3     H2       HT       0.417000       1.00800           0
     72377 TIP3     20821    TIP3     OH2      OT      -0.834000       15.9994           0
     72378 TIP3     20821    TIP3     H1       HT       0.417000       1.00800           0
     72379 TIP3     20821    TIP3     H2       HT       0.417000       1.00800           0
     72380 TIP3     20822    TIP3     OH2      OT      -0.834000       15.9994           0
     72381 TIP3     20822    TIP3     H1       HT       0.417000       1.00800           0
     72382 TIP3     20822    TIP3     H2       HT       0.417000       1.00800           0
     72383 TIP3     20823    TIP3     OH2      OT      -0.834000       15.9994           0
     72384 TIP3     20823    TIP3     H1       HT       0.417000       1.00800           0
     72385 TIP3     20823    TIP3     H2       HT       0.417000       1.00800           0
     72386 TIP3     20824    TIP3     OH2      OT      -0.834000       15.9994           0
     72387 TIP3     20824    TIP3     H1       HT       0.417000       1.00800           0
     72388 TIP3     20824    TIP3     H2       HT       0.417000       1.00800           0
     72389 TIP3     20825    TIP3     OH2      OT      -0.834000       15.9994           0
     72390 TIP3     20825    TIP3     H1       HT       0.417000       1.00800           0
     72391 TIP3     20825    TIP3     H2       HT       0.417000       1.00800           0
     72392 TIP3     20826    TIP3     OH2      OT      -0.834000       15.9994           0
     72393 TIP3     20826    TIP3     H1       HT       0.417000       1.00800           0
     72394 TIP3     20826    TIP3     H2       HT       0.417000       1.00800           0
     72395 TIP3     20827    TIP3     OH2      OT      -0.834000       15.9994           0
     72396 TIP3     20827    TIP3     H1       HT       0.417000       1.00800           0
     72397 TIP3     20827    TIP3     H2       HT       0.417000       1.00800           0
     72398 TIP3     20828    TIP3     OH2      OT      -0.834000       15.9994           0
     72399 TIP3     20828    TIP3     H1       HT       0.417000       1.00800           0
     72400 TIP3     20828    TIP3     H2       HT       0.417000       1.00800           0
     72401 TIP3     20829    TIP3     OH2      OT      -0.834000       15.9994           0
     72402 TIP3     20829    TIP3     H1       HT       0.417000       1.00800           0
     72403 TIP3     20829    TIP3     H2       HT       0.417000       1.00800           0
     72404 TIP3     20830    TIP3     OH2      OT      -0.834000       15.9994           0
     72405 TIP3     20830    TIP3     H1       HT       0.417000       1.00800           0
     72406 TIP3     20830    TIP3     H2       HT       0.417000       1.00800           0
     72407 TIP3     20831    TIP3     OH2      OT      -0.834000       15.9994           0
     72408 TIP3     20831    TIP3     H1       HT       0.417000       1.00800           0
     72409 TIP3     20831    TIP3     H2       HT       0.417000       1.00800           0
     72410 TIP3     20832    TIP3     OH2      OT      -0.834000       15.9994           0
     72411 TIP3     20832    TIP3     H1       HT       0.417000       1.00800           0
     72412 TIP3     20832    TIP3     H2       HT       0.417000       1.00800           0
     72413 TIP3     20833    TIP3     OH2      OT      -0.834000       15.9994           0
     72414 TIP3     20833    TIP3     H1       HT       0.417000       1.00800           0
     72415 TIP3     20833    TIP3     H2       HT       0.417000       1.00800           0
     72416 TIP3     20834    TIP3     OH2      OT      -0.834000       15.9994           0
     72417 TIP3     20834    TIP3     H1       HT       0.417000       1.00800           0
     72418 TIP3     20834    TIP3     H2       HT       0.417000       1.00800           0
     72419 TIP3     20835    TIP3     OH2      OT      -0.834000       15.9994           0
     72420 TIP3     20835    TIP3     H1       HT       0.417000       1.00800           0
     72421 TIP3     20835    TIP3     H2       HT       0.417000       1.00800           0
     72422 TIP3     20836    TIP3     OH2      OT      -0.834000       15.9994           0
     72423 TIP3     20836    TIP3     H1       HT       0.417000       1.00800           0
     72424 TIP3     20836    TIP3     H2       HT       0.417000       1.00800           0
     72425 TIP3     20837    TIP3     OH2      OT      -0.834000       15.9994           0
     72426 TIP3     20837    TIP3     H1       HT       0.417000       1.00800           0
     72427 TIP3     20837    TIP3     H2       HT       0.417000       1.00800           0
     72428 TIP3     20838    TIP3     OH2      OT      -0.834000       15.9994           0
     72429 TIP3     20838    TIP3     H1       HT       0.417000       1.00800           0
     72430 TIP3     20838    TIP3     H2       HT       0.417000       1.00800           0
     72431 TIP3     20839    TIP3     OH2      OT      -0.834000       15.9994           0
     72432 TIP3     20839    TIP3     H1       HT       0.417000       1.00800           0
     72433 TIP3     20839    TIP3     H2       HT       0.417000       1.00800           0
     72434 TIP3     20840    TIP3     OH2      OT      -0.834000       15.9994           0
     72435 TIP3     20840    TIP3     H1       HT       0.417000       1.00800           0
     72436 TIP3     20840    TIP3     H2       HT       0.417000       1.00800           0
     72437 TIP3     20841    TIP3     OH2      OT      -0.834000       15.9994           0
     72438 TIP3     20841    TIP3     H1       HT       0.417000       1.00800           0
     72439 TIP3     20841    TIP3     H2       HT       0.417000       1.00800           0
     72440 TIP3     20842    TIP3     OH2      OT      -0.834000       15.9994           0
     72441 TIP3     20842    TIP3     H1       HT       0.417000       1.00800           0
     72442 TIP3     20842    TIP3     H2       HT       0.417000       1.00800           0
     72443 TIP3     20843    TIP3     OH2      OT      -0.834000       15.9994           0
     72444 TIP3     20843    TIP3     H1       HT       0.417000       1.00800           0
     72445 TIP3     20843    TIP3     H2       HT       0.417000       1.00800           0
     72446 TIP3     20844    TIP3     OH2      OT      -0.834000       15.9994           0
     72447 TIP3     20844    TIP3     H1       HT       0.417000       1.00800           0
     72448 TIP3     20844    TIP3     H2       HT       0.417000       1.00800           0
     72449 TIP3     20845    TIP3     OH2      OT      -0.834000       15.9994           0
     72450 TIP3     20845    TIP3     H1       HT       0.417000       1.00800           0
     72451 TIP3     20845    TIP3     H2       HT       0.417000       1.00800           0
     72452 TIP3     20846    TIP3     OH2      OT      -0.834000       15.9994           0
     72453 TIP3     20846    TIP3     H1       HT       0.417000       1.00800           0
     72454 TIP3     20846    TIP3     H2       HT       0.417000       1.00800           0
     72455 TIP3     20847    TIP3     OH2      OT      -0.834000       15.9994           0
     72456 TIP3     20847    TIP3     H1       HT       0.417000       1.00800           0
     72457 TIP3     20847    TIP3     H2       HT       0.417000       1.00800           0
     72458 TIP3     20848    TIP3     OH2      OT      -0.834000       15.9994           0
     72459 TIP3     20848    TIP3     H1       HT       0.417000       1.00800           0
     72460 TIP3     20848    TIP3     H2       HT       0.417000       1.00800           0
     72461 TIP3     20849    TIP3     OH2      OT      -0.834000       15.9994           0
     72462 TIP3     20849    TIP3     H1       HT       0.417000       1.00800           0
     72463 TIP3     20849    TIP3     H2       HT       0.417000       1.00800           0
     72464 TIP3     20850    TIP3     OH2      OT      -0.834000       15.9994           0
     72465 TIP3     20850    TIP3     H1       HT       0.417000       1.00800           0
     72466 TIP3     20850    TIP3     H2       HT       0.417000       1.00800           0
     72467 TIP3     20851    TIP3     OH2      OT      -0.834000       15.9994           0
     72468 TIP3     20851    TIP3     H1       HT       0.417000       1.00800           0
     72469 TIP3     20851    TIP3     H2       HT       0.417000       1.00800           0
     72470 TIP3     20852    TIP3     OH2      OT      -0.834000       15.9994           0
     72471 TIP3     20852    TIP3     H1       HT       0.417000       1.00800           0
     72472 TIP3     20852    TIP3     H2       HT       0.417000       1.00800           0
     72473 TIP3     20853    TIP3     OH2      OT      -0.834000       15.9994           0
     72474 TIP3     20853    TIP3     H1       HT       0.417000       1.00800           0
     72475 TIP3     20853    TIP3     H2       HT       0.417000       1.00800           0
     72476 TIP3     20854    TIP3     OH2      OT      -0.834000       15.9994           0
     72477 TIP3     20854    TIP3     H1       HT       0.417000       1.00800           0
     72478 TIP3     20854    TIP3     H2       HT       0.417000       1.00800           0
     72479 TIP3     20855    TIP3     OH2      OT      -0.834000       15.9994           0
     72480 TIP3     20855    TIP3     H1       HT       0.417000       1.00800           0
     72481 TIP3     20855    TIP3     H2       HT       0.417000       1.00800           0
     72482 TIP3     20856    TIP3     OH2      OT      -0.834000       15.9994           0
     72483 TIP3     20856    TIP3     H1       HT       0.417000       1.00800           0
     72484 TIP3     20856    TIP3     H2       HT       0.417000       1.00800           0
     72485 TIP3     20857    TIP3     OH2      OT      -0.834000       15.9994           0
     72486 TIP3     20857    TIP3     H1       HT       0.417000       1.00800           0
     72487 TIP3     20857    TIP3     H2       HT       0.417000       1.00800           0
     72488 TIP3     20858    TIP3     OH2      OT      -0.834000       15.9994           0
     72489 TIP3     20858    TIP3     H1       HT       0.417000       1.00800           0
     72490 TIP3     20858    TIP3     H2       HT       0.417000       1.00800           0
     72491 TIP3     20859    TIP3     OH2      OT      -0.834000       15.9994           0
     72492 TIP3     20859    TIP3     H1       HT       0.417000       1.00800           0
     72493 TIP3     20859    TIP3     H2       HT       0.417000       1.00800           0
     72494 TIP3     20860    TIP3     OH2      OT      -0.834000       15.9994           0
     72495 TIP3     20860    TIP3     H1       HT       0.417000       1.00800           0
     72496 TIP3     20860    TIP3     H2       HT       0.417000       1.00800           0
     72497 TIP3     20861    TIP3     OH2      OT      -0.834000       15.9994           0
     72498 TIP3     20861    TIP3     H1       HT       0.417000       1.00800           0
     72499 TIP3     20861    TIP3     H2       HT       0.417000       1.00800           0
     72500 TIP3     20862    TIP3     OH2      OT      -0.834000       15.9994           0
     72501 TIP3     20862    TIP3     H1       HT       0.417000       1.00800           0
     72502 TIP3     20862    TIP3     H2       HT       0.417000       1.00800           0
     72503 TIP3     20863    TIP3     OH2      OT      -0.834000       15.9994           0
     72504 TIP3     20863    TIP3     H1       HT       0.417000       1.00800           0
     72505 TIP3     20863    TIP3     H2       HT       0.417000       1.00800           0
     72506 TIP3     20864    TIP3     OH2      OT      -0.834000       15.9994           0
     72507 TIP3     20864    TIP3     H1       HT       0.417000       1.00800           0
     72508 TIP3     20864    TIP3     H2       HT       0.417000       1.00800           0
     72509 TIP3     20865    TIP3     OH2      OT      -0.834000       15.9994           0
     72510 TIP3     20865    TIP3     H1       HT       0.417000       1.00800           0
     72511 TIP3     20865    TIP3     H2       HT       0.417000       1.00800           0
     72512 TIP3     20866    TIP3     OH2      OT      -0.834000       15.9994           0
     72513 TIP3     20866    TIP3     H1       HT       0.417000       1.00800           0
     72514 TIP3     20866    TIP3     H2       HT       0.417000       1.00800           0
     72515 TIP3     20867    TIP3     OH2      OT      -0.834000       15.9994           0
     72516 TIP3     20867    TIP3     H1       HT       0.417000       1.00800           0
     72517 TIP3     20867    TIP3     H2       HT       0.417000       1.00800           0
     72518 TIP3     20868    TIP3     OH2      OT      -0.834000       15.9994           0
     72519 TIP3     20868    TIP3     H1       HT       0.417000       1.00800           0
     72520 TIP3     20868    TIP3     H2       HT       0.417000       1.00800           0
     72521 TIP3     20869    TIP3     OH2      OT      -0.834000       15.9994           0
     72522 TIP3     20869    TIP3     H1       HT       0.417000       1.00800           0
     72523 TIP3     20869    TIP3     H2       HT       0.417000       1.00800           0
     72524 TIP3     20870    TIP3     OH2      OT      -0.834000       15.9994           0
     72525 TIP3     20870    TIP3     H1       HT       0.417000       1.00800           0
     72526 TIP3     20870    TIP3     H2       HT       0.417000       1.00800           0
     72527 TIP3     20871    TIP3     OH2      OT      -0.834000       15.9994           0
     72528 TIP3     20871    TIP3     H1       HT       0.417000       1.00800           0
     72529 TIP3     20871    TIP3     H2       HT       0.417000       1.00800           0
     72530 TIP3     20872    TIP3     OH2      OT      -0.834000       15.9994           0
     72531 TIP3     20872    TIP3     H1       HT       0.417000       1.00800           0
     72532 TIP3     20872    TIP3     H2       HT       0.417000       1.00800           0
     72533 TIP3     20873    TIP3     OH2      OT      -0.834000       15.9994           0
     72534 TIP3     20873    TIP3     H1       HT       0.417000       1.00800           0
     72535 TIP3     20873    TIP3     H2       HT       0.417000       1.00800           0
     72536 TIP3     20874    TIP3     OH2      OT      -0.834000       15.9994           0
     72537 TIP3     20874    TIP3     H1       HT       0.417000       1.00800           0
     72538 TIP3     20874    TIP3     H2       HT       0.417000       1.00800           0
     72539 TIP3     20875    TIP3     OH2      OT      -0.834000       15.9994           0
     72540 TIP3     20875    TIP3     H1       HT       0.417000       1.00800           0
     72541 TIP3     20875    TIP3     H2       HT       0.417000       1.00800           0
     72542 TIP3     20876    TIP3     OH2      OT      -0.834000       15.9994           0
     72543 TIP3     20876    TIP3     H1       HT       0.417000       1.00800           0
     72544 TIP3     20876    TIP3     H2       HT       0.417000       1.00800           0
     72545 TIP3     20877    TIP3     OH2      OT      -0.834000       15.9994           0
     72546 TIP3     20877    TIP3     H1       HT       0.417000       1.00800           0
     72547 TIP3     20877    TIP3     H2       HT       0.417000       1.00800           0
     72548 TIP3     20878    TIP3     OH2      OT      -0.834000       15.9994           0
     72549 TIP3     20878    TIP3     H1       HT       0.417000       1.00800           0
     72550 TIP3     20878    TIP3     H2       HT       0.417000       1.00800           0
     72551 TIP3     20879    TIP3     OH2      OT      -0.834000       15.9994           0
     72552 TIP3     20879    TIP3     H1       HT       0.417000       1.00800           0
     72553 TIP3     20879    TIP3     H2       HT       0.417000       1.00800           0
     72554 TIP3     20880    TIP3     OH2      OT      -0.834000       15.9994           0
     72555 TIP3     20880    TIP3     H1       HT       0.417000       1.00800           0
     72556 TIP3     20880    TIP3     H2       HT       0.417000       1.00800           0
     72557 TIP3     20881    TIP3     OH2      OT      -0.834000       15.9994           0
     72558 TIP3     20881    TIP3     H1       HT       0.417000       1.00800           0
     72559 TIP3     20881    TIP3     H2       HT       0.417000       1.00800           0
     72560 TIP3     20882    TIP3     OH2      OT      -0.834000       15.9994           0
     72561 TIP3     20882    TIP3     H1       HT       0.417000       1.00800           0
     72562 TIP3     20882    TIP3     H2       HT       0.417000       1.00800           0
     72563 TIP3     20883    TIP3     OH2      OT      -0.834000       15.9994           0
     72564 TIP3     20883    TIP3     H1       HT       0.417000       1.00800           0
     72565 TIP3     20883    TIP3     H2       HT       0.417000       1.00800           0
     72566 TIP3     20884    TIP3     OH2      OT      -0.834000       15.9994           0
     72567 TIP3     20884    TIP3     H1       HT       0.417000       1.00800           0
     72568 TIP3     20884    TIP3     H2       HT       0.417000       1.00800           0
     72569 TIP3     20885    TIP3     OH2      OT      -0.834000       15.9994           0
     72570 TIP3     20885    TIP3     H1       HT       0.417000       1.00800           0
     72571 TIP3     20885    TIP3     H2       HT       0.417000       1.00800           0
     72572 TIP3     20886    TIP3     OH2      OT      -0.834000       15.9994           0
     72573 TIP3     20886    TIP3     H1       HT       0.417000       1.00800           0
     72574 TIP3     20886    TIP3     H2       HT       0.417000       1.00800           0
     72575 TIP3     20887    TIP3     OH2      OT      -0.834000       15.9994           0
     72576 TIP3     20887    TIP3     H1       HT       0.417000       1.00800           0
     72577 TIP3     20887    TIP3     H2       HT       0.417000       1.00800           0
     72578 TIP3     20888    TIP3     OH2      OT      -0.834000       15.9994           0
     72579 TIP3     20888    TIP3     H1       HT       0.417000       1.00800           0
     72580 TIP3     20888    TIP3     H2       HT       0.417000       1.00800           0
     72581 TIP3     20889    TIP3     OH2      OT      -0.834000       15.9994           0
     72582 TIP3     20889    TIP3     H1       HT       0.417000       1.00800           0
     72583 TIP3     20889    TIP3     H2       HT       0.417000       1.00800           0
     72584 TIP3     20890    TIP3     OH2      OT      -0.834000       15.9994           0
     72585 TIP3     20890    TIP3     H1       HT       0.417000       1.00800           0
     72586 TIP3     20890    TIP3     H2       HT       0.417000       1.00800           0
     72587 TIP3     20891    TIP3     OH2      OT      -0.834000       15.9994           0
     72588 TIP3     20891    TIP3     H1       HT       0.417000       1.00800           0
     72589 TIP3     20891    TIP3     H2       HT       0.417000       1.00800           0
     72590 TIP3     20892    TIP3     OH2      OT      -0.834000       15.9994           0
     72591 TIP3     20892    TIP3     H1       HT       0.417000       1.00800           0
     72592 TIP3     20892    TIP3     H2       HT       0.417000       1.00800           0
     72593 TIP3     20893    TIP3     OH2      OT      -0.834000       15.9994           0
     72594 TIP3     20893    TIP3     H1       HT       0.417000       1.00800           0
     72595 TIP3     20893    TIP3     H2       HT       0.417000       1.00800           0
     72596 TIP3     20894    TIP3     OH2      OT      -0.834000       15.9994           0
     72597 TIP3     20894    TIP3     H1       HT       0.417000       1.00800           0
     72598 TIP3     20894    TIP3     H2       HT       0.417000       1.00800           0
     72599 TIP3     20895    TIP3     OH2      OT      -0.834000       15.9994           0
     72600 TIP3     20895    TIP3     H1       HT       0.417000       1.00800           0
     72601 TIP3     20895    TIP3     H2       HT       0.417000       1.00800           0
     72602 TIP3     20896    TIP3     OH2      OT      -0.834000       15.9994           0
     72603 TIP3     20896    TIP3     H1       HT       0.417000       1.00800           0
     72604 TIP3     20896    TIP3     H2       HT       0.417000       1.00800           0
     72605 TIP3     20897    TIP3     OH2      OT      -0.834000       15.9994           0
     72606 TIP3     20897    TIP3     H1       HT       0.417000       1.00800           0
     72607 TIP3     20897    TIP3     H2       HT       0.417000       1.00800           0
     72608 TIP3     20898    TIP3     OH2      OT      -0.834000       15.9994           0
     72609 TIP3     20898    TIP3     H1       HT       0.417000       1.00800           0
     72610 TIP3     20898    TIP3     H2       HT       0.417000       1.00800           0
     72611 TIP3     20899    TIP3     OH2      OT      -0.834000       15.9994           0
     72612 TIP3     20899    TIP3     H1       HT       0.417000       1.00800           0
     72613 TIP3     20899    TIP3     H2       HT       0.417000       1.00800           0
     72614 TIP3     20900    TIP3     OH2      OT      -0.834000       15.9994           0
     72615 TIP3     20900    TIP3     H1       HT       0.417000       1.00800           0
     72616 TIP3     20900    TIP3     H2       HT       0.417000       1.00800           0
     72617 TIP3     20901    TIP3     OH2      OT      -0.834000       15.9994           0
     72618 TIP3     20901    TIP3     H1       HT       0.417000       1.00800           0
     72619 TIP3     20901    TIP3     H2       HT       0.417000       1.00800           0
     72620 TIP3     20902    TIP3     OH2      OT      -0.834000       15.9994           0
     72621 TIP3     20902    TIP3     H1       HT       0.417000       1.00800           0
     72622 TIP3     20902    TIP3     H2       HT       0.417000       1.00800           0
     72623 TIP3     20903    TIP3     OH2      OT      -0.834000       15.9994           0
     72624 TIP3     20903    TIP3     H1       HT       0.417000       1.00800           0
     72625 TIP3     20903    TIP3     H2       HT       0.417000       1.00800           0
     72626 TIP3     20904    TIP3     OH2      OT      -0.834000       15.9994           0
     72627 TIP3     20904    TIP3     H1       HT       0.417000       1.00800           0
     72628 TIP3     20904    TIP3     H2       HT       0.417000       1.00800           0
     72629 TIP3     20905    TIP3     OH2      OT      -0.834000       15.9994           0
     72630 TIP3     20905    TIP3     H1       HT       0.417000       1.00800           0
     72631 TIP3     20905    TIP3     H2       HT       0.417000       1.00800           0
     72632 TIP3     20906    TIP3     OH2      OT      -0.834000       15.9994           0
     72633 TIP3     20906    TIP3     H1       HT       0.417000       1.00800           0
     72634 TIP3     20906    TIP3     H2       HT       0.417000       1.00800           0
     72635 TIP3     20907    TIP3     OH2      OT      -0.834000       15.9994           0
     72636 TIP3     20907    TIP3     H1       HT       0.417000       1.00800           0
     72637 TIP3     20907    TIP3     H2       HT       0.417000       1.00800           0
     72638 TIP3     20908    TIP3     OH2      OT      -0.834000       15.9994           0
     72639 TIP3     20908    TIP3     H1       HT       0.417000       1.00800           0
     72640 TIP3     20908    TIP3     H2       HT       0.417000       1.00800           0
     72641 TIP3     20909    TIP3     OH2      OT      -0.834000       15.9994           0
     72642 TIP3     20909    TIP3     H1       HT       0.417000       1.00800           0
     72643 TIP3     20909    TIP3     H2       HT       0.417000       1.00800           0
     72644 TIP3     20910    TIP3     OH2      OT      -0.834000       15.9994           0
     72645 TIP3     20910    TIP3     H1       HT       0.417000       1.00800           0
     72646 TIP3     20910    TIP3     H2       HT       0.417000       1.00800           0
     72647 TIP3     20911    TIP3     OH2      OT      -0.834000       15.9994           0
     72648 TIP3     20911    TIP3     H1       HT       0.417000       1.00800           0
     72649 TIP3     20911    TIP3     H2       HT       0.417000       1.00800           0
     72650 TIP3     20912    TIP3     OH2      OT      -0.834000       15.9994           0
     72651 TIP3     20912    TIP3     H1       HT       0.417000       1.00800           0
     72652 TIP3     20912    TIP3     H2       HT       0.417000       1.00800           0
     72653 TIP3     20913    TIP3     OH2      OT      -0.834000       15.9994           0
     72654 TIP3     20913    TIP3     H1       HT       0.417000       1.00800           0
     72655 TIP3     20913    TIP3     H2       HT       0.417000       1.00800           0
     72656 TIP3     20914    TIP3     OH2      OT      -0.834000       15.9994           0
     72657 TIP3     20914    TIP3     H1       HT       0.417000       1.00800           0
     72658 TIP3     20914    TIP3     H2       HT       0.417000       1.00800           0
     72659 TIP3     20915    TIP3     OH2      OT      -0.834000       15.9994           0
     72660 TIP3     20915    TIP3     H1       HT       0.417000       1.00800           0
     72661 TIP3     20915    TIP3     H2       HT       0.417000       1.00800           0
     72662 TIP3     20916    TIP3     OH2      OT      -0.834000       15.9994           0
     72663 TIP3     20916    TIP3     H1       HT       0.417000       1.00800           0
     72664 TIP3     20916    TIP3     H2       HT       0.417000       1.00800           0
     72665 TIP3     20917    TIP3     OH2      OT      -0.834000       15.9994           0
     72666 TIP3     20917    TIP3     H1       HT       0.417000       1.00800           0
     72667 TIP3     20917    TIP3     H2       HT       0.417000       1.00800           0
     72668 TIP3     20918    TIP3     OH2      OT      -0.834000       15.9994           0
     72669 TIP3     20918    TIP3     H1       HT       0.417000       1.00800           0
     72670 TIP3     20918    TIP3     H2       HT       0.417000       1.00800           0
     72671 TIP3     20919    TIP3     OH2      OT      -0.834000       15.9994           0
     72672 TIP3     20919    TIP3     H1       HT       0.417000       1.00800           0
     72673 TIP3     20919    TIP3     H2       HT       0.417000       1.00800           0
     72674 TIP3     20920    TIP3     OH2      OT      -0.834000       15.9994           0
     72675 TIP3     20920    TIP3     H1       HT       0.417000       1.00800           0
     72676 TIP3     20920    TIP3     H2       HT       0.417000       1.00800           0
     72677 TIP3     20921    TIP3     OH2      OT      -0.834000       15.9994           0
     72678 TIP3     20921    TIP3     H1       HT       0.417000       1.00800           0
     72679 TIP3     20921    TIP3     H2       HT       0.417000       1.00800           0
     72680 TIP3     20922    TIP3     OH2      OT      -0.834000       15.9994           0
     72681 TIP3     20922    TIP3     H1       HT       0.417000       1.00800           0
     72682 TIP3     20922    TIP3     H2       HT       0.417000       1.00800           0
     72683 TIP3     20923    TIP3     OH2      OT      -0.834000       15.9994           0
     72684 TIP3     20923    TIP3     H1       HT       0.417000       1.00800           0
     72685 TIP3     20923    TIP3     H2       HT       0.417000       1.00800           0
     72686 TIP3     20924    TIP3     OH2      OT      -0.834000       15.9994           0
     72687 TIP3     20924    TIP3     H1       HT       0.417000       1.00800           0
     72688 TIP3     20924    TIP3     H2       HT       0.417000       1.00800           0
     72689 TIP3     20925    TIP3     OH2      OT      -0.834000       15.9994           0
     72690 TIP3     20925    TIP3     H1       HT       0.417000       1.00800           0
     72691 TIP3     20925    TIP3     H2       HT       0.417000       1.00800           0
     72692 TIP3     20926    TIP3     OH2      OT      -0.834000       15.9994           0
     72693 TIP3     20926    TIP3     H1       HT       0.417000       1.00800           0
     72694 TIP3     20926    TIP3     H2       HT       0.417000       1.00800           0
     72695 TIP3     20927    TIP3     OH2      OT      -0.834000       15.9994           0
     72696 TIP3     20927    TIP3     H1       HT       0.417000       1.00800           0
     72697 TIP3     20927    TIP3     H2       HT       0.417000       1.00800           0
     72698 TIP3     20928    TIP3     OH2      OT      -0.834000       15.9994           0
     72699 TIP3     20928    TIP3     H1       HT       0.417000       1.00800           0
     72700 TIP3     20928    TIP3     H2       HT       0.417000       1.00800           0
     72701 TIP3     20929    TIP3     OH2      OT      -0.834000       15.9994           0
     72702 TIP3     20929    TIP3     H1       HT       0.417000       1.00800           0
     72703 TIP3     20929    TIP3     H2       HT       0.417000       1.00800           0
     72704 TIP3     20930    TIP3     OH2      OT      -0.834000       15.9994           0
     72705 TIP3     20930    TIP3     H1       HT       0.417000       1.00800           0
     72706 TIP3     20930    TIP3     H2       HT       0.417000       1.00800           0
     72707 TIP3     20931    TIP3     OH2      OT      -0.834000       15.9994           0
     72708 TIP3     20931    TIP3     H1       HT       0.417000       1.00800           0
     72709 TIP3     20931    TIP3     H2       HT       0.417000       1.00800           0
     72710 TIP3     20932    TIP3     OH2      OT      -0.834000       15.9994           0
     72711 TIP3     20932    TIP3     H1       HT       0.417000       1.00800           0
     72712 TIP3     20932    TIP3     H2       HT       0.417000       1.00800           0
     72713 TIP3     20933    TIP3     OH2      OT      -0.834000       15.9994           0
     72714 TIP3     20933    TIP3     H1       HT       0.417000       1.00800           0
     72715 TIP3     20933    TIP3     H2       HT       0.417000       1.00800           0
     72716 TIP3     20934    TIP3     OH2      OT      -0.834000       15.9994           0
     72717 TIP3     20934    TIP3     H1       HT       0.417000       1.00800           0
     72718 TIP3     20934    TIP3     H2       HT       0.417000       1.00800           0
     72719 TIP3     20935    TIP3     OH2      OT      -0.834000       15.9994           0
     72720 TIP3     20935    TIP3     H1       HT       0.417000       1.00800           0
     72721 TIP3     20935    TIP3     H2       HT       0.417000       1.00800           0
     72722 TIP3     20936    TIP3     OH2      OT      -0.834000       15.9994           0
     72723 TIP3     20936    TIP3     H1       HT       0.417000       1.00800           0
     72724 TIP3     20936    TIP3     H2       HT       0.417000       1.00800           0
     72725 TIP3     20937    TIP3     OH2      OT      -0.834000       15.9994           0
     72726 TIP3     20937    TIP3     H1       HT       0.417000       1.00800           0
     72727 TIP3     20937    TIP3     H2       HT       0.417000       1.00800           0
     72728 TIP3     20938    TIP3     OH2      OT      -0.834000       15.9994           0
     72729 TIP3     20938    TIP3     H1       HT       0.417000       1.00800           0
     72730 TIP3     20938    TIP3     H2       HT       0.417000       1.00800           0
     72731 TIP3     20939    TIP3     OH2      OT      -0.834000       15.9994           0
     72732 TIP3     20939    TIP3     H1       HT       0.417000       1.00800           0
     72733 TIP3     20939    TIP3     H2       HT       0.417000       1.00800           0
     72734 TIP3     20940    TIP3     OH2      OT      -0.834000       15.9994           0
     72735 TIP3     20940    TIP3     H1       HT       0.417000       1.00800           0
     72736 TIP3     20940    TIP3     H2       HT       0.417000       1.00800           0
     72737 TIP3     20941    TIP3     OH2      OT      -0.834000       15.9994           0
     72738 TIP3     20941    TIP3     H1       HT       0.417000       1.00800           0
     72739 TIP3     20941    TIP3     H2       HT       0.417000       1.00800           0
     72740 TIP3     20942    TIP3     OH2      OT      -0.834000       15.9994           0
     72741 TIP3     20942    TIP3     H1       HT       0.417000       1.00800           0
     72742 TIP3     20942    TIP3     H2       HT       0.417000       1.00800           0
     72743 TIP3     20943    TIP3     OH2      OT      -0.834000       15.9994           0
     72744 TIP3     20943    TIP3     H1       HT       0.417000       1.00800           0
     72745 TIP3     20943    TIP3     H2       HT       0.417000       1.00800           0
     72746 TIP3     20944    TIP3     OH2      OT      -0.834000       15.9994           0
     72747 TIP3     20944    TIP3     H1       HT       0.417000       1.00800           0
     72748 TIP3     20944    TIP3     H2       HT       0.417000       1.00800           0
     72749 TIP3     20945    TIP3     OH2      OT      -0.834000       15.9994           0
     72750 TIP3     20945    TIP3     H1       HT       0.417000       1.00800           0
     72751 TIP3     20945    TIP3     H2       HT       0.417000       1.00800           0
     72752 TIP3     20946    TIP3     OH2      OT      -0.834000       15.9994           0
     72753 TIP3     20946    TIP3     H1       HT       0.417000       1.00800           0
     72754 TIP3     20946    TIP3     H2       HT       0.417000       1.00800           0
     72755 TIP3     20947    TIP3     OH2      OT      -0.834000       15.9994           0
     72756 TIP3     20947    TIP3     H1       HT       0.417000       1.00800           0
     72757 TIP3     20947    TIP3     H2       HT       0.417000       1.00800           0
     72758 TIP3     20948    TIP3     OH2      OT      -0.834000       15.9994           0
     72759 TIP3     20948    TIP3     H1       HT       0.417000       1.00800           0
     72760 TIP3     20948    TIP3     H2       HT       0.417000       1.00800           0
     72761 TIP3     20949    TIP3     OH2      OT      -0.834000       15.9994           0
     72762 TIP3     20949    TIP3     H1       HT       0.417000       1.00800           0
     72763 TIP3     20949    TIP3     H2       HT       0.417000       1.00800           0
     72764 TIP3     20950    TIP3     OH2      OT      -0.834000       15.9994           0
     72765 TIP3     20950    TIP3     H1       HT       0.417000       1.00800           0
     72766 TIP3     20950    TIP3     H2       HT       0.417000       1.00800           0
     72767 TIP3     20951    TIP3     OH2      OT      -0.834000       15.9994           0
     72768 TIP3     20951    TIP3     H1       HT       0.417000       1.00800           0
     72769 TIP3     20951    TIP3     H2       HT       0.417000       1.00800           0
     72770 TIP3     20952    TIP3     OH2      OT      -0.834000       15.9994           0
     72771 TIP3     20952    TIP3     H1       HT       0.417000       1.00800           0
     72772 TIP3     20952    TIP3     H2       HT       0.417000       1.00800           0
     72773 TIP3     20953    TIP3     OH2      OT      -0.834000       15.9994           0
     72774 TIP3     20953    TIP3     H1       HT       0.417000       1.00800           0
     72775 TIP3     20953    TIP3     H2       HT       0.417000       1.00800           0
     72776 TIP3     20954    TIP3     OH2      OT      -0.834000       15.9994           0
     72777 TIP3     20954    TIP3     H1       HT       0.417000       1.00800           0
     72778 TIP3     20954    TIP3     H2       HT       0.417000       1.00800           0
     72779 TIP3     20955    TIP3     OH2      OT      -0.834000       15.9994           0
     72780 TIP3     20955    TIP3     H1       HT       0.417000       1.00800           0
     72781 TIP3     20955    TIP3     H2       HT       0.417000       1.00800           0
     72782 TIP3     20956    TIP3     OH2      OT      -0.834000       15.9994           0
     72783 TIP3     20956    TIP3     H1       HT       0.417000       1.00800           0
     72784 TIP3     20956    TIP3     H2       HT       0.417000       1.00800           0
     72785 TIP3     20957    TIP3     OH2      OT      -0.834000       15.9994           0
     72786 TIP3     20957    TIP3     H1       HT       0.417000       1.00800           0
     72787 TIP3     20957    TIP3     H2       HT       0.417000       1.00800           0
     72788 TIP3     20958    TIP3     OH2      OT      -0.834000       15.9994           0
     72789 TIP3     20958    TIP3     H1       HT       0.417000       1.00800           0
     72790 TIP3     20958    TIP3     H2       HT       0.417000       1.00800           0
     72791 TIP3     20959    TIP3     OH2      OT      -0.834000       15.9994           0
     72792 TIP3     20959    TIP3     H1       HT       0.417000       1.00800           0
     72793 TIP3     20959    TIP3     H2       HT       0.417000       1.00800           0
     72794 TIP3     20960    TIP3     OH2      OT      -0.834000       15.9994           0
     72795 TIP3     20960    TIP3     H1       HT       0.417000       1.00800           0
     72796 TIP3     20960    TIP3     H2       HT       0.417000       1.00800           0
     72797 TIP3     20961    TIP3     OH2      OT      -0.834000       15.9994           0
     72798 TIP3     20961    TIP3     H1       HT       0.417000       1.00800           0
     72799 TIP3     20961    TIP3     H2       HT       0.417000       1.00800           0
     72800 TIP3     20962    TIP3     OH2      OT      -0.834000       15.9994           0
     72801 TIP3     20962    TIP3     H1       HT       0.417000       1.00800           0
     72802 TIP3     20962    TIP3     H2       HT       0.417000       1.00800           0
     72803 TIP3     20963    TIP3     OH2      OT      -0.834000       15.9994           0
     72804 TIP3     20963    TIP3     H1       HT       0.417000       1.00800           0
     72805 TIP3     20963    TIP3     H2       HT       0.417000       1.00800           0
     72806 TIP3     20964    TIP3     OH2      OT      -0.834000       15.9994           0
     72807 TIP3     20964    TIP3     H1       HT       0.417000       1.00800           0
     72808 TIP3     20964    TIP3     H2       HT       0.417000       1.00800           0
     72809 TIP3     20965    TIP3     OH2      OT      -0.834000       15.9994           0
     72810 TIP3     20965    TIP3     H1       HT       0.417000       1.00800           0
     72811 TIP3     20965    TIP3     H2       HT       0.417000       1.00800           0
     72812 TIP3     20966    TIP3     OH2      OT      -0.834000       15.9994           0
     72813 TIP3     20966    TIP3     H1       HT       0.417000       1.00800           0
     72814 TIP3     20966    TIP3     H2       HT       0.417000       1.00800           0
     72815 TIP3     20967    TIP3     OH2      OT      -0.834000       15.9994           0
     72816 TIP3     20967    TIP3     H1       HT       0.417000       1.00800           0
     72817 TIP3     20967    TIP3     H2       HT       0.417000       1.00800           0
     72818 TIP3     20968    TIP3     OH2      OT      -0.834000       15.9994           0
     72819 TIP3     20968    TIP3     H1       HT       0.417000       1.00800           0
     72820 TIP3     20968    TIP3     H2       HT       0.417000       1.00800           0
     72821 TIP3     20969    TIP3     OH2      OT      -0.834000       15.9994           0
     72822 TIP3     20969    TIP3     H1       HT       0.417000       1.00800           0
     72823 TIP3     20969    TIP3     H2       HT       0.417000       1.00800           0
     72824 TIP3     20970    TIP3     OH2      OT      -0.834000       15.9994           0
     72825 TIP3     20970    TIP3     H1       HT       0.417000       1.00800           0
     72826 TIP3     20970    TIP3     H2       HT       0.417000       1.00800           0
     72827 TIP3     20971    TIP3     OH2      OT      -0.834000       15.9994           0
     72828 TIP3     20971    TIP3     H1       HT       0.417000       1.00800           0
     72829 TIP3     20971    TIP3     H2       HT       0.417000       1.00800           0
     72830 TIP3     20972    TIP3     OH2      OT      -0.834000       15.9994           0
     72831 TIP3     20972    TIP3     H1       HT       0.417000       1.00800           0
     72832 TIP3     20972    TIP3     H2       HT       0.417000       1.00800           0
     72833 TIP3     20973    TIP3     OH2      OT      -0.834000       15.9994           0
     72834 TIP3     20973    TIP3     H1       HT       0.417000       1.00800           0
     72835 TIP3     20973    TIP3     H2       HT       0.417000       1.00800           0
     72836 TIP3     20974    TIP3     OH2      OT      -0.834000       15.9994           0
     72837 TIP3     20974    TIP3     H1       HT       0.417000       1.00800           0
     72838 TIP3     20974    TIP3     H2       HT       0.417000       1.00800           0
     72839 TIP3     20975    TIP3     OH2      OT      -0.834000       15.9994           0
     72840 TIP3     20975    TIP3     H1       HT       0.417000       1.00800           0
     72841 TIP3     20975    TIP3     H2       HT       0.417000       1.00800           0
     72842 TIP3     20976    TIP3     OH2      OT      -0.834000       15.9994           0
     72843 TIP3     20976    TIP3     H1       HT       0.417000       1.00800           0
     72844 TIP3     20976    TIP3     H2       HT       0.417000       1.00800           0
     72845 TIP3     20977    TIP3     OH2      OT      -0.834000       15.9994           0
     72846 TIP3     20977    TIP3     H1       HT       0.417000       1.00800           0
     72847 TIP3     20977    TIP3     H2       HT       0.417000       1.00800           0
     72848 TIP3     20978    TIP3     OH2      OT      -0.834000       15.9994           0
     72849 TIP3     20978    TIP3     H1       HT       0.417000       1.00800           0
     72850 TIP3     20978    TIP3     H2       HT       0.417000       1.00800           0
     72851 TIP3     20979    TIP3     OH2      OT      -0.834000       15.9994           0
     72852 TIP3     20979    TIP3     H1       HT       0.417000       1.00800           0
     72853 TIP3     20979    TIP3     H2       HT       0.417000       1.00800           0
     72854 TIP3     20980    TIP3     OH2      OT      -0.834000       15.9994           0
     72855 TIP3     20980    TIP3     H1       HT       0.417000       1.00800           0
     72856 TIP3     20980    TIP3     H2       HT       0.417000       1.00800           0
     72857 TIP3     20981    TIP3     OH2      OT      -0.834000       15.9994           0
     72858 TIP3     20981    TIP3     H1       HT       0.417000       1.00800           0
     72859 TIP3     20981    TIP3     H2       HT       0.417000       1.00800           0
     72860 TIP3     20982    TIP3     OH2      OT      -0.834000       15.9994           0
     72861 TIP3     20982    TIP3     H1       HT       0.417000       1.00800           0
     72862 TIP3     20982    TIP3     H2       HT       0.417000       1.00800           0
     72863 TIP3     20983    TIP3     OH2      OT      -0.834000       15.9994           0
     72864 TIP3     20983    TIP3     H1       HT       0.417000       1.00800           0
     72865 TIP3     20983    TIP3     H2       HT       0.417000       1.00800           0
     72866 TIP3     20984    TIP3     OH2      OT      -0.834000       15.9994           0
     72867 TIP3     20984    TIP3     H1       HT       0.417000       1.00800           0
     72868 TIP3     20984    TIP3     H2       HT       0.417000       1.00800           0
     72869 TIP3     20985    TIP3     OH2      OT      -0.834000       15.9994           0
     72870 TIP3     20985    TIP3     H1       HT       0.417000       1.00800           0
     72871 TIP3     20985    TIP3     H2       HT       0.417000       1.00800           0
     72872 TIP3     20986    TIP3     OH2      OT      -0.834000       15.9994           0
     72873 TIP3     20986    TIP3     H1       HT       0.417000       1.00800           0
     72874 TIP3     20986    TIP3     H2       HT       0.417000       1.00800           0
     72875 TIP3     20987    TIP3     OH2      OT      -0.834000       15.9994           0
     72876 TIP3     20987    TIP3     H1       HT       0.417000       1.00800           0
     72877 TIP3     20987    TIP3     H2       HT       0.417000       1.00800           0
     72878 TIP3     20988    TIP3     OH2      OT      -0.834000       15.9994           0
     72879 TIP3     20988    TIP3     H1       HT       0.417000       1.00800           0
     72880 TIP3     20988    TIP3     H2       HT       0.417000       1.00800           0
     72881 TIP3     20989    TIP3     OH2      OT      -0.834000       15.9994           0
     72882 TIP3     20989    TIP3     H1       HT       0.417000       1.00800           0
     72883 TIP3     20989    TIP3     H2       HT       0.417000       1.00800           0
     72884 TIP3     20990    TIP3     OH2      OT      -0.834000       15.9994           0
     72885 TIP3     20990    TIP3     H1       HT       0.417000       1.00800           0
     72886 TIP3     20990    TIP3     H2       HT       0.417000       1.00800           0
     72887 TIP3     20991    TIP3     OH2      OT      -0.834000       15.9994           0
     72888 TIP3     20991    TIP3     H1       HT       0.417000       1.00800           0
     72889 TIP3     20991    TIP3     H2       HT       0.417000       1.00800           0
     72890 TIP3     20992    TIP3     OH2      OT      -0.834000       15.9994           0
     72891 TIP3     20992    TIP3     H1       HT       0.417000       1.00800           0
     72892 TIP3     20992    TIP3     H2       HT       0.417000       1.00800           0
     72893 TIP3     20993    TIP3     OH2      OT      -0.834000       15.9994           0
     72894 TIP3     20993    TIP3     H1       HT       0.417000       1.00800           0
     72895 TIP3     20993    TIP3     H2       HT       0.417000       1.00800           0
     72896 TIP3     20994    TIP3     OH2      OT      -0.834000       15.9994           0
     72897 TIP3     20994    TIP3     H1       HT       0.417000       1.00800           0
     72898 TIP3     20994    TIP3     H2       HT       0.417000       1.00800           0
     72899 TIP3     20995    TIP3     OH2      OT      -0.834000       15.9994           0
     72900 TIP3     20995    TIP3     H1       HT       0.417000       1.00800           0
     72901 TIP3     20995    TIP3     H2       HT       0.417000       1.00800           0
     72902 TIP3     20996    TIP3     OH2      OT      -0.834000       15.9994           0
     72903 TIP3     20996    TIP3     H1       HT       0.417000       1.00800           0
     72904 TIP3     20996    TIP3     H2       HT       0.417000       1.00800           0
     72905 TIP3     20997    TIP3     OH2      OT      -0.834000       15.9994           0
     72906 TIP3     20997    TIP3     H1       HT       0.417000       1.00800           0
     72907 TIP3     20997    TIP3     H2       HT       0.417000       1.00800           0
     72908 TIP3     20998    TIP3     OH2      OT      -0.834000       15.9994           0
     72909 TIP3     20998    TIP3     H1       HT       0.417000       1.00800           0
     72910 TIP3     20998    TIP3     H2       HT       0.417000       1.00800           0
     72911 TIP3     20999    TIP3     OH2      OT      -0.834000       15.9994           0
     72912 TIP3     20999    TIP3     H1       HT       0.417000       1.00800           0
     72913 TIP3     20999    TIP3     H2       HT       0.417000       1.00800           0
     72914 TIP3     21000    TIP3     OH2      OT      -0.834000       15.9994           0
     72915 TIP3     21000    TIP3     H1       HT       0.417000       1.00800           0
     72916 TIP3     21000    TIP3     H2       HT       0.417000       1.00800           0
     72917 TIP3     21001    TIP3     OH2      OT      -0.834000       15.9994           0
     72918 TIP3     21001    TIP3     H1       HT       0.417000       1.00800           0
     72919 TIP3     21001    TIP3     H2       HT       0.417000       1.00800           0
     72920 TIP3     21002    TIP3     OH2      OT      -0.834000       15.9994           0
     72921 TIP3     21002    TIP3     H1       HT       0.417000       1.00800           0
     72922 TIP3     21002    TIP3     H2       HT       0.417000       1.00800           0
     72923 TIP3     21003    TIP3     OH2      OT      -0.834000       15.9994           0
     72924 TIP3     21003    TIP3     H1       HT       0.417000       1.00800           0
     72925 TIP3     21003    TIP3     H2       HT       0.417000       1.00800           0
     72926 TIP3     21004    TIP3     OH2      OT      -0.834000       15.9994           0
     72927 TIP3     21004    TIP3     H1       HT       0.417000       1.00800           0
     72928 TIP3     21004    TIP3     H2       HT       0.417000       1.00800           0
     72929 TIP3     21005    TIP3     OH2      OT      -0.834000       15.9994           0
     72930 TIP3     21005    TIP3     H1       HT       0.417000       1.00800           0
     72931 TIP3     21005    TIP3     H2       HT       0.417000       1.00800           0
     72932 TIP3     21006    TIP3     OH2      OT      -0.834000       15.9994           0
     72933 TIP3     21006    TIP3     H1       HT       0.417000       1.00800           0
     72934 TIP3     21006    TIP3     H2       HT       0.417000       1.00800           0
     72935 TIP3     21007    TIP3     OH2      OT      -0.834000       15.9994           0
     72936 TIP3     21007    TIP3     H1       HT       0.417000       1.00800           0
     72937 TIP3     21007    TIP3     H2       HT       0.417000       1.00800           0
     72938 TIP3     21008    TIP3     OH2      OT      -0.834000       15.9994           0
     72939 TIP3     21008    TIP3     H1       HT       0.417000       1.00800           0
     72940 TIP3     21008    TIP3     H2       HT       0.417000       1.00800           0
     72941 TIP3     21009    TIP3     OH2      OT      -0.834000       15.9994           0
     72942 TIP3     21009    TIP3     H1       HT       0.417000       1.00800           0
     72943 TIP3     21009    TIP3     H2       HT       0.417000       1.00800           0
     72944 TIP3     21010    TIP3     OH2      OT      -0.834000       15.9994           0
     72945 TIP3     21010    TIP3     H1       HT       0.417000       1.00800           0
     72946 TIP3     21010    TIP3     H2       HT       0.417000       1.00800           0
     72947 TIP3     21011    TIP3     OH2      OT      -0.834000       15.9994           0
     72948 TIP3     21011    TIP3     H1       HT       0.417000       1.00800           0
     72949 TIP3     21011    TIP3     H2       HT       0.417000       1.00800           0
     72950 TIP3     21012    TIP3     OH2      OT      -0.834000       15.9994           0
     72951 TIP3     21012    TIP3     H1       HT       0.417000       1.00800           0
     72952 TIP3     21012    TIP3     H2       HT       0.417000       1.00800           0
     72953 TIP3     21013    TIP3     OH2      OT      -0.834000       15.9994           0
     72954 TIP3     21013    TIP3     H1       HT       0.417000       1.00800           0
     72955 TIP3     21013    TIP3     H2       HT       0.417000       1.00800           0
     72956 TIP3     21014    TIP3     OH2      OT      -0.834000       15.9994           0
     72957 TIP3     21014    TIP3     H1       HT       0.417000       1.00800           0
     72958 TIP3     21014    TIP3     H2       HT       0.417000       1.00800           0
     72959 TIP3     21015    TIP3     OH2      OT      -0.834000       15.9994           0
     72960 TIP3     21015    TIP3     H1       HT       0.417000       1.00800           0
     72961 TIP3     21015    TIP3     H2       HT       0.417000       1.00800           0
     72962 TIP3     21016    TIP3     OH2      OT      -0.834000       15.9994           0
     72963 TIP3     21016    TIP3     H1       HT       0.417000       1.00800           0
     72964 TIP3     21016    TIP3     H2       HT       0.417000       1.00800           0
     72965 TIP3     21017    TIP3     OH2      OT      -0.834000       15.9994           0
     72966 TIP3     21017    TIP3     H1       HT       0.417000       1.00800           0
     72967 TIP3     21017    TIP3     H2       HT       0.417000       1.00800           0
     72968 TIP3     21018    TIP3     OH2      OT      -0.834000       15.9994           0
     72969 TIP3     21018    TIP3     H1       HT       0.417000       1.00800           0
     72970 TIP3     21018    TIP3     H2       HT       0.417000       1.00800           0
     72971 TIP3     21019    TIP3     OH2      OT      -0.834000       15.9994           0
     72972 TIP3     21019    TIP3     H1       HT       0.417000       1.00800           0
     72973 TIP3     21019    TIP3     H2       HT       0.417000       1.00800           0
     72974 TIP3     21020    TIP3     OH2      OT      -0.834000       15.9994           0
     72975 TIP3     21020    TIP3     H1       HT       0.417000       1.00800           0
     72976 TIP3     21020    TIP3     H2       HT       0.417000       1.00800           0
     72977 TIP3     21021    TIP3     OH2      OT      -0.834000       15.9994           0
     72978 TIP3     21021    TIP3     H1       HT       0.417000       1.00800           0
     72979 TIP3     21021    TIP3     H2       HT       0.417000       1.00800           0
     72980 TIP3     21022    TIP3     OH2      OT      -0.834000       15.9994           0
     72981 TIP3     21022    TIP3     H1       HT       0.417000       1.00800           0
     72982 TIP3     21022    TIP3     H2       HT       0.417000       1.00800           0
     72983 TIP3     21023    TIP3     OH2      OT      -0.834000       15.9994           0
     72984 TIP3     21023    TIP3     H1       HT       0.417000       1.00800           0
     72985 TIP3     21023    TIP3     H2       HT       0.417000       1.00800           0
     72986 TIP3     21024    TIP3     OH2      OT      -0.834000       15.9994           0
     72987 TIP3     21024    TIP3     H1       HT       0.417000       1.00800           0
     72988 TIP3     21024    TIP3     H2       HT       0.417000       1.00800           0
     72989 TIP3     21025    TIP3     OH2      OT      -0.834000       15.9994           0
     72990 TIP3     21025    TIP3     H1       HT       0.417000       1.00800           0
     72991 TIP3     21025    TIP3     H2       HT       0.417000       1.00800           0
     72992 TIP3     21026    TIP3     OH2      OT      -0.834000       15.9994           0
     72993 TIP3     21026    TIP3     H1       HT       0.417000       1.00800           0
     72994 TIP3     21026    TIP3     H2       HT       0.417000       1.00800           0
     72995 TIP3     21027    TIP3     OH2      OT      -0.834000       15.9994           0
     72996 TIP3     21027    TIP3     H1       HT       0.417000       1.00800           0
     72997 TIP3     21027    TIP3     H2       HT       0.417000       1.00800           0
     72998 TIP3     21028    TIP3     OH2      OT      -0.834000       15.9994           0
     72999 TIP3     21028    TIP3     H1       HT       0.417000       1.00800           0
     73000 TIP3     21028    TIP3     H2       HT       0.417000       1.00800           0
     73001 TIP3     21029    TIP3     OH2      OT      -0.834000       15.9994           0
     73002 TIP3     21029    TIP3     H1       HT       0.417000       1.00800           0
     73003 TIP3     21029    TIP3     H2       HT       0.417000       1.00800           0
     73004 TIP3     21030    TIP3     OH2      OT      -0.834000       15.9994           0
     73005 TIP3     21030    TIP3     H1       HT       0.417000       1.00800           0
     73006 TIP3     21030    TIP3     H2       HT       0.417000       1.00800           0
     73007 TIP3     21031    TIP3     OH2      OT      -0.834000       15.9994           0
     73008 TIP3     21031    TIP3     H1       HT       0.417000       1.00800           0
     73009 TIP3     21031    TIP3     H2       HT       0.417000       1.00800           0
     73010 TIP3     21032    TIP3     OH2      OT      -0.834000       15.9994           0
     73011 TIP3     21032    TIP3     H1       HT       0.417000       1.00800           0
     73012 TIP3     21032    TIP3     H2       HT       0.417000       1.00800           0
     73013 TIP3     21033    TIP3     OH2      OT      -0.834000       15.9994           0
     73014 TIP3     21033    TIP3     H1       HT       0.417000       1.00800           0
     73015 TIP3     21033    TIP3     H2       HT       0.417000       1.00800           0
     73016 TIP3     21034    TIP3     OH2      OT      -0.834000       15.9994           0
     73017 TIP3     21034    TIP3     H1       HT       0.417000       1.00800           0
     73018 TIP3     21034    TIP3     H2       HT       0.417000       1.00800           0
     73019 TIP3     21035    TIP3     OH2      OT      -0.834000       15.9994           0
     73020 TIP3     21035    TIP3     H1       HT       0.417000       1.00800           0
     73021 TIP3     21035    TIP3     H2       HT       0.417000       1.00800           0
     73022 TIP3     21036    TIP3     OH2      OT      -0.834000       15.9994           0
     73023 TIP3     21036    TIP3     H1       HT       0.417000       1.00800           0
     73024 TIP3     21036    TIP3     H2       HT       0.417000       1.00800           0
     73025 TIP3     21037    TIP3     OH2      OT      -0.834000       15.9994           0
     73026 TIP3     21037    TIP3     H1       HT       0.417000       1.00800           0
     73027 TIP3     21037    TIP3     H2       HT       0.417000       1.00800           0
     73028 TIP3     21038    TIP3     OH2      OT      -0.834000       15.9994           0
     73029 TIP3     21038    TIP3     H1       HT       0.417000       1.00800           0
     73030 TIP3     21038    TIP3     H2       HT       0.417000       1.00800           0
     73031 TIP3     21039    TIP3     OH2      OT      -0.834000       15.9994           0
     73032 TIP3     21039    TIP3     H1       HT       0.417000       1.00800           0
     73033 TIP3     21039    TIP3     H2       HT       0.417000       1.00800           0
     73034 TIP3     21040    TIP3     OH2      OT      -0.834000       15.9994           0
     73035 TIP3     21040    TIP3     H1       HT       0.417000       1.00800           0
     73036 TIP3     21040    TIP3     H2       HT       0.417000       1.00800           0
     73037 TIP3     21041    TIP3     OH2      OT      -0.834000       15.9994           0
     73038 TIP3     21041    TIP3     H1       HT       0.417000       1.00800           0
     73039 TIP3     21041    TIP3     H2       HT       0.417000       1.00800           0
     73040 TIP3     21042    TIP3     OH2      OT      -0.834000       15.9994           0
     73041 TIP3     21042    TIP3     H1       HT       0.417000       1.00800           0
     73042 TIP3     21042    TIP3     H2       HT       0.417000       1.00800           0
     73043 TIP3     21043    TIP3     OH2      OT      -0.834000       15.9994           0
     73044 TIP3     21043    TIP3     H1       HT       0.417000       1.00800           0
     73045 TIP3     21043    TIP3     H2       HT       0.417000       1.00800           0
     73046 TIP3     21044    TIP3     OH2      OT      -0.834000       15.9994           0
     73047 TIP3     21044    TIP3     H1       HT       0.417000       1.00800           0
     73048 TIP3     21044    TIP3     H2       HT       0.417000       1.00800           0
     73049 TIP3     21045    TIP3     OH2      OT      -0.834000       15.9994           0
     73050 TIP3     21045    TIP3     H1       HT       0.417000       1.00800           0
     73051 TIP3     21045    TIP3     H2       HT       0.417000       1.00800           0
     73052 TIP3     21046    TIP3     OH2      OT      -0.834000       15.9994           0
     73053 TIP3     21046    TIP3     H1       HT       0.417000       1.00800           0
     73054 TIP3     21046    TIP3     H2       HT       0.417000       1.00800           0
     73055 TIP3     21047    TIP3     OH2      OT      -0.834000       15.9994           0
     73056 TIP3     21047    TIP3     H1       HT       0.417000       1.00800           0
     73057 TIP3     21047    TIP3     H2       HT       0.417000       1.00800           0
     73058 TIP3     21048    TIP3     OH2      OT      -0.834000       15.9994           0
     73059 TIP3     21048    TIP3     H1       HT       0.417000       1.00800           0
     73060 TIP3     21048    TIP3     H2       HT       0.417000       1.00800           0
     73061 TIP3     21049    TIP3     OH2      OT      -0.834000       15.9994           0
     73062 TIP3     21049    TIP3     H1       HT       0.417000       1.00800           0
     73063 TIP3     21049    TIP3     H2       HT       0.417000       1.00800           0
     73064 TIP3     21050    TIP3     OH2      OT      -0.834000       15.9994           0
     73065 TIP3     21050    TIP3     H1       HT       0.417000       1.00800           0
     73066 TIP3     21050    TIP3     H2       HT       0.417000       1.00800           0
     73067 TIP3     21051    TIP3     OH2      OT      -0.834000       15.9994           0
     73068 TIP3     21051    TIP3     H1       HT       0.417000       1.00800           0
     73069 TIP3     21051    TIP3     H2       HT       0.417000       1.00800           0
     73070 TIP3     21052    TIP3     OH2      OT      -0.834000       15.9994           0
     73071 TIP3     21052    TIP3     H1       HT       0.417000       1.00800           0
     73072 TIP3     21052    TIP3     H2       HT       0.417000       1.00800           0
     73073 TIP3     21053    TIP3     OH2      OT      -0.834000       15.9994           0
     73074 TIP3     21053    TIP3     H1       HT       0.417000       1.00800           0
     73075 TIP3     21053    TIP3     H2       HT       0.417000       1.00800           0
     73076 TIP3     21054    TIP3     OH2      OT      -0.834000       15.9994           0
     73077 TIP3     21054    TIP3     H1       HT       0.417000       1.00800           0
     73078 TIP3     21054    TIP3     H2       HT       0.417000       1.00800           0
     73079 TIP3     21055    TIP3     OH2      OT      -0.834000       15.9994           0
     73080 TIP3     21055    TIP3     H1       HT       0.417000       1.00800           0
     73081 TIP3     21055    TIP3     H2       HT       0.417000       1.00800           0
     73082 TIP3     21056    TIP3     OH2      OT      -0.834000       15.9994           0
     73083 TIP3     21056    TIP3     H1       HT       0.417000       1.00800           0
     73084 TIP3     21056    TIP3     H2       HT       0.417000       1.00800           0
     73085 TIP3     21057    TIP3     OH2      OT      -0.834000       15.9994           0
     73086 TIP3     21057    TIP3     H1       HT       0.417000       1.00800           0
     73087 TIP3     21057    TIP3     H2       HT       0.417000       1.00800           0
     73088 TIP3     21058    TIP3     OH2      OT      -0.834000       15.9994           0
     73089 TIP3     21058    TIP3     H1       HT       0.417000       1.00800           0
     73090 TIP3     21058    TIP3     H2       HT       0.417000       1.00800           0
     73091 TIP3     21059    TIP3     OH2      OT      -0.834000       15.9994           0
     73092 TIP3     21059    TIP3     H1       HT       0.417000       1.00800           0
     73093 TIP3     21059    TIP3     H2       HT       0.417000       1.00800           0
     73094 TIP3     21060    TIP3     OH2      OT      -0.834000       15.9994           0
     73095 TIP3     21060    TIP3     H1       HT       0.417000       1.00800           0
     73096 TIP3     21060    TIP3     H2       HT       0.417000       1.00800           0
     73097 TIP3     21061    TIP3     OH2      OT      -0.834000       15.9994           0
     73098 TIP3     21061    TIP3     H1       HT       0.417000       1.00800           0
     73099 TIP3     21061    TIP3     H2       HT       0.417000       1.00800           0
     73100 TIP3     21062    TIP3     OH2      OT      -0.834000       15.9994           0
     73101 TIP3     21062    TIP3     H1       HT       0.417000       1.00800           0
     73102 TIP3     21062    TIP3     H2       HT       0.417000       1.00800           0
     73103 TIP3     21063    TIP3     OH2      OT      -0.834000       15.9994           0
     73104 TIP3     21063    TIP3     H1       HT       0.417000       1.00800           0
     73105 TIP3     21063    TIP3     H2       HT       0.417000       1.00800           0
     73106 TIP3     21064    TIP3     OH2      OT      -0.834000       15.9994           0
     73107 TIP3     21064    TIP3     H1       HT       0.417000       1.00800           0
     73108 TIP3     21064    TIP3     H2       HT       0.417000       1.00800           0
     73109 TIP3     21065    TIP3     OH2      OT      -0.834000       15.9994           0
     73110 TIP3     21065    TIP3     H1       HT       0.417000       1.00800           0
     73111 TIP3     21065    TIP3     H2       HT       0.417000       1.00800           0
     73112 TIP3     21066    TIP3     OH2      OT      -0.834000       15.9994           0
     73113 TIP3     21066    TIP3     H1       HT       0.417000       1.00800           0
     73114 TIP3     21066    TIP3     H2       HT       0.417000       1.00800           0
     73115 TIP3     21067    TIP3     OH2      OT      -0.834000       15.9994           0
     73116 TIP3     21067    TIP3     H1       HT       0.417000       1.00800           0
     73117 TIP3     21067    TIP3     H2       HT       0.417000       1.00800           0
     73118 TIP3     21068    TIP3     OH2      OT      -0.834000       15.9994           0
     73119 TIP3     21068    TIP3     H1       HT       0.417000       1.00800           0
     73120 TIP3     21068    TIP3     H2       HT       0.417000       1.00800           0
     73121 TIP3     21069    TIP3     OH2      OT      -0.834000       15.9994           0
     73122 TIP3     21069    TIP3     H1       HT       0.417000       1.00800           0
     73123 TIP3     21069    TIP3     H2       HT       0.417000       1.00800           0
     73124 TIP3     21070    TIP3     OH2      OT      -0.834000       15.9994           0
     73125 TIP3     21070    TIP3     H1       HT       0.417000       1.00800           0
     73126 TIP3     21070    TIP3     H2       HT       0.417000       1.00800           0
     73127 TIP3     21071    TIP3     OH2      OT      -0.834000       15.9994           0
     73128 TIP3     21071    TIP3     H1       HT       0.417000       1.00800           0
     73129 TIP3     21071    TIP3     H2       HT       0.417000       1.00800           0
     73130 TIP3     21072    TIP3     OH2      OT      -0.834000       15.9994           0
     73131 TIP3     21072    TIP3     H1       HT       0.417000       1.00800           0
     73132 TIP3     21072    TIP3     H2       HT       0.417000       1.00800           0
     73133 TIP3     21073    TIP3     OH2      OT      -0.834000       15.9994           0
     73134 TIP3     21073    TIP3     H1       HT       0.417000       1.00800           0
     73135 TIP3     21073    TIP3     H2       HT       0.417000       1.00800           0
     73136 TIP3     21074    TIP3     OH2      OT      -0.834000       15.9994           0
     73137 TIP3     21074    TIP3     H1       HT       0.417000       1.00800           0
     73138 TIP3     21074    TIP3     H2       HT       0.417000       1.00800           0
     73139 TIP3     21075    TIP3     OH2      OT      -0.834000       15.9994           0
     73140 TIP3     21075    TIP3     H1       HT       0.417000       1.00800           0
     73141 TIP3     21075    TIP3     H2       HT       0.417000       1.00800           0
     73142 TIP3     21076    TIP3     OH2      OT      -0.834000       15.9994           0
     73143 TIP3     21076    TIP3     H1       HT       0.417000       1.00800           0
     73144 TIP3     21076    TIP3     H2       HT       0.417000       1.00800           0
     73145 TIP3     21077    TIP3     OH2      OT      -0.834000       15.9994           0
     73146 TIP3     21077    TIP3     H1       HT       0.417000       1.00800           0
     73147 TIP3     21077    TIP3     H2       HT       0.417000       1.00800           0
     73148 TIP3     21078    TIP3     OH2      OT      -0.834000       15.9994           0
     73149 TIP3     21078    TIP3     H1       HT       0.417000       1.00800           0
     73150 TIP3     21078    TIP3     H2       HT       0.417000       1.00800           0
     73151 TIP3     21079    TIP3     OH2      OT      -0.834000       15.9994           0
     73152 TIP3     21079    TIP3     H1       HT       0.417000       1.00800           0
     73153 TIP3     21079    TIP3     H2       HT       0.417000       1.00800           0
     73154 TIP3     21080    TIP3     OH2      OT      -0.834000       15.9994           0
     73155 TIP3     21080    TIP3     H1       HT       0.417000       1.00800           0
     73156 TIP3     21080    TIP3     H2       HT       0.417000       1.00800           0
     73157 TIP3     21081    TIP3     OH2      OT      -0.834000       15.9994           0
     73158 TIP3     21081    TIP3     H1       HT       0.417000       1.00800           0
     73159 TIP3     21081    TIP3     H2       HT       0.417000       1.00800           0
     73160 TIP3     21082    TIP3     OH2      OT      -0.834000       15.9994           0
     73161 TIP3     21082    TIP3     H1       HT       0.417000       1.00800           0
     73162 TIP3     21082    TIP3     H2       HT       0.417000       1.00800           0
     73163 TIP3     21083    TIP3     OH2      OT      -0.834000       15.9994           0
     73164 TIP3     21083    TIP3     H1       HT       0.417000       1.00800           0
     73165 TIP3     21083    TIP3     H2       HT       0.417000       1.00800           0
     73166 TIP3     21084    TIP3     OH2      OT      -0.834000       15.9994           0
     73167 TIP3     21084    TIP3     H1       HT       0.417000       1.00800           0
     73168 TIP3     21084    TIP3     H2       HT       0.417000       1.00800           0
     73169 TIP3     21085    TIP3     OH2      OT      -0.834000       15.9994           0
     73170 TIP3     21085    TIP3     H1       HT       0.417000       1.00800           0
     73171 TIP3     21085    TIP3     H2       HT       0.417000       1.00800           0
     73172 TIP3     21086    TIP3     OH2      OT      -0.834000       15.9994           0
     73173 TIP3     21086    TIP3     H1       HT       0.417000       1.00800           0
     73174 TIP3     21086    TIP3     H2       HT       0.417000       1.00800           0
     73175 TIP3     21087    TIP3     OH2      OT      -0.834000       15.9994           0
     73176 TIP3     21087    TIP3     H1       HT       0.417000       1.00800           0
     73177 TIP3     21087    TIP3     H2       HT       0.417000       1.00800           0
     73178 TIP3     21088    TIP3     OH2      OT      -0.834000       15.9994           0
     73179 TIP3     21088    TIP3     H1       HT       0.417000       1.00800           0
     73180 TIP3     21088    TIP3     H2       HT       0.417000       1.00800           0
     73181 TIP3     21089    TIP3     OH2      OT      -0.834000       15.9994           0
     73182 TIP3     21089    TIP3     H1       HT       0.417000       1.00800           0
     73183 TIP3     21089    TIP3     H2       HT       0.417000       1.00800           0
     73184 TIP3     21090    TIP3     OH2      OT      -0.834000       15.9994           0
     73185 TIP3     21090    TIP3     H1       HT       0.417000       1.00800           0
     73186 TIP3     21090    TIP3     H2       HT       0.417000       1.00800           0
     73187 TIP3     21091    TIP3     OH2      OT      -0.834000       15.9994           0
     73188 TIP3     21091    TIP3     H1       HT       0.417000       1.00800           0
     73189 TIP3     21091    TIP3     H2       HT       0.417000       1.00800           0
     73190 TIP3     21092    TIP3     OH2      OT      -0.834000       15.9994           0
     73191 TIP3     21092    TIP3     H1       HT       0.417000       1.00800           0
     73192 TIP3     21092    TIP3     H2       HT       0.417000       1.00800           0
     73193 TIP3     21093    TIP3     OH2      OT      -0.834000       15.9994           0
     73194 TIP3     21093    TIP3     H1       HT       0.417000       1.00800           0
     73195 TIP3     21093    TIP3     H2       HT       0.417000       1.00800           0
     73196 TIP3     21094    TIP3     OH2      OT      -0.834000       15.9994           0
     73197 TIP3     21094    TIP3     H1       HT       0.417000       1.00800           0
     73198 TIP3     21094    TIP3     H2       HT       0.417000       1.00800           0
     73199 TIP3     21095    TIP3     OH2      OT      -0.834000       15.9994           0
     73200 TIP3     21095    TIP3     H1       HT       0.417000       1.00800           0
     73201 TIP3     21095    TIP3     H2       HT       0.417000       1.00800           0
     73202 TIP3     21096    TIP3     OH2      OT      -0.834000       15.9994           0
     73203 TIP3     21096    TIP3     H1       HT       0.417000       1.00800           0
     73204 TIP3     21096    TIP3     H2       HT       0.417000       1.00800           0
     73205 TIP3     21097    TIP3     OH2      OT      -0.834000       15.9994           0
     73206 TIP3     21097    TIP3     H1       HT       0.417000       1.00800           0
     73207 TIP3     21097    TIP3     H2       HT       0.417000       1.00800           0
     73208 TIP3     21098    TIP3     OH2      OT      -0.834000       15.9994           0
     73209 TIP3     21098    TIP3     H1       HT       0.417000       1.00800           0
     73210 TIP3     21098    TIP3     H2       HT       0.417000       1.00800           0
     73211 TIP3     21099    TIP3     OH2      OT      -0.834000       15.9994           0
     73212 TIP3     21099    TIP3     H1       HT       0.417000       1.00800           0
     73213 TIP3     21099    TIP3     H2       HT       0.417000       1.00800           0
     73214 TIP3     21100    TIP3     OH2      OT      -0.834000       15.9994           0
     73215 TIP3     21100    TIP3     H1       HT       0.417000       1.00800           0
     73216 TIP3     21100    TIP3     H2       HT       0.417000       1.00800           0
     73217 TIP3     21101    TIP3     OH2      OT      -0.834000       15.9994           0
     73218 TIP3     21101    TIP3     H1       HT       0.417000       1.00800           0
     73219 TIP3     21101    TIP3     H2       HT       0.417000       1.00800           0
     73220 TIP3     21102    TIP3     OH2      OT      -0.834000       15.9994           0
     73221 TIP3     21102    TIP3     H1       HT       0.417000       1.00800           0
     73222 TIP3     21102    TIP3     H2       HT       0.417000       1.00800           0
     73223 TIP3     21103    TIP3     OH2      OT      -0.834000       15.9994           0
     73224 TIP3     21103    TIP3     H1       HT       0.417000       1.00800           0
     73225 TIP3     21103    TIP3     H2       HT       0.417000       1.00800           0
     73226 TIP3     21104    TIP3     OH2      OT      -0.834000       15.9994           0
     73227 TIP3     21104    TIP3     H1       HT       0.417000       1.00800           0
     73228 TIP3     21104    TIP3     H2       HT       0.417000       1.00800           0
     73229 TIP3     21105    TIP3     OH2      OT      -0.834000       15.9994           0
     73230 TIP3     21105    TIP3     H1       HT       0.417000       1.00800           0
     73231 TIP3     21105    TIP3     H2       HT       0.417000       1.00800           0
     73232 TIP3     21106    TIP3     OH2      OT      -0.834000       15.9994           0
     73233 TIP3     21106    TIP3     H1       HT       0.417000       1.00800           0
     73234 TIP3     21106    TIP3     H2       HT       0.417000       1.00800           0
     73235 TIP3     21107    TIP3     OH2      OT      -0.834000       15.9994           0
     73236 TIP3     21107    TIP3     H1       HT       0.417000       1.00800           0
     73237 TIP3     21107    TIP3     H2       HT       0.417000       1.00800           0
     73238 TIP3     21108    TIP3     OH2      OT      -0.834000       15.9994           0
     73239 TIP3     21108    TIP3     H1       HT       0.417000       1.00800           0
     73240 TIP3     21108    TIP3     H2       HT       0.417000       1.00800           0
     73241 TIP3     21109    TIP3     OH2      OT      -0.834000       15.9994           0
     73242 TIP3     21109    TIP3     H1       HT       0.417000       1.00800           0
     73243 TIP3     21109    TIP3     H2       HT       0.417000       1.00800           0
     73244 TIP3     21110    TIP3     OH2      OT      -0.834000       15.9994           0
     73245 TIP3     21110    TIP3     H1       HT       0.417000       1.00800           0
     73246 TIP3     21110    TIP3     H2       HT       0.417000       1.00800           0
     73247 TIP3     21111    TIP3     OH2      OT      -0.834000       15.9994           0
     73248 TIP3     21111    TIP3     H1       HT       0.417000       1.00800           0
     73249 TIP3     21111    TIP3     H2       HT       0.417000       1.00800           0
     73250 TIP3     21112    TIP3     OH2      OT      -0.834000       15.9994           0
     73251 TIP3     21112    TIP3     H1       HT       0.417000       1.00800           0
     73252 TIP3     21112    TIP3     H2       HT       0.417000       1.00800           0
     73253 TIP3     21113    TIP3     OH2      OT      -0.834000       15.9994           0
     73254 TIP3     21113    TIP3     H1       HT       0.417000       1.00800           0
     73255 TIP3     21113    TIP3     H2       HT       0.417000       1.00800           0
     73256 TIP3     21114    TIP3     OH2      OT      -0.834000       15.9994           0
     73257 TIP3     21114    TIP3     H1       HT       0.417000       1.00800           0
     73258 TIP3     21114    TIP3     H2       HT       0.417000       1.00800           0
     73259 TIP3     21115    TIP3     OH2      OT      -0.834000       15.9994           0
     73260 TIP3     21115    TIP3     H1       HT       0.417000       1.00800           0
     73261 TIP3     21115    TIP3     H2       HT       0.417000       1.00800           0
     73262 TIP3     21116    TIP3     OH2      OT      -0.834000       15.9994           0
     73263 TIP3     21116    TIP3     H1       HT       0.417000       1.00800           0
     73264 TIP3     21116    TIP3     H2       HT       0.417000       1.00800           0
     73265 TIP3     21117    TIP3     OH2      OT      -0.834000       15.9994           0
     73266 TIP3     21117    TIP3     H1       HT       0.417000       1.00800           0
     73267 TIP3     21117    TIP3     H2       HT       0.417000       1.00800           0
     73268 TIP3     21118    TIP3     OH2      OT      -0.834000       15.9994           0
     73269 TIP3     21118    TIP3     H1       HT       0.417000       1.00800           0
     73270 TIP3     21118    TIP3     H2       HT       0.417000       1.00800           0
     73271 TIP3     21119    TIP3     OH2      OT      -0.834000       15.9994           0
     73272 TIP3     21119    TIP3     H1       HT       0.417000       1.00800           0
     73273 TIP3     21119    TIP3     H2       HT       0.417000       1.00800           0
     73274 TIP3     21120    TIP3     OH2      OT      -0.834000       15.9994           0
     73275 TIP3     21120    TIP3     H1       HT       0.417000       1.00800           0
     73276 TIP3     21120    TIP3     H2       HT       0.417000       1.00800           0
     73277 TIP3     21121    TIP3     OH2      OT      -0.834000       15.9994           0
     73278 TIP3     21121    TIP3     H1       HT       0.417000       1.00800           0
     73279 TIP3     21121    TIP3     H2       HT       0.417000       1.00800           0
     73280 TIP3     21122    TIP3     OH2      OT      -0.834000       15.9994           0
     73281 TIP3     21122    TIP3     H1       HT       0.417000       1.00800           0
     73282 TIP3     21122    TIP3     H2       HT       0.417000       1.00800           0
     73283 TIP3     21123    TIP3     OH2      OT      -0.834000       15.9994           0
     73284 TIP3     21123    TIP3     H1       HT       0.417000       1.00800           0
     73285 TIP3     21123    TIP3     H2       HT       0.417000       1.00800           0
     73286 TIP3     21124    TIP3     OH2      OT      -0.834000       15.9994           0
     73287 TIP3     21124    TIP3     H1       HT       0.417000       1.00800           0
     73288 TIP3     21124    TIP3     H2       HT       0.417000       1.00800           0
     73289 TIP3     21125    TIP3     OH2      OT      -0.834000       15.9994           0
     73290 TIP3     21125    TIP3     H1       HT       0.417000       1.00800           0
     73291 TIP3     21125    TIP3     H2       HT       0.417000       1.00800           0
     73292 TIP3     21126    TIP3     OH2      OT      -0.834000       15.9994           0
     73293 TIP3     21126    TIP3     H1       HT       0.417000       1.00800           0
     73294 TIP3     21126    TIP3     H2       HT       0.417000       1.00800           0
     73295 TIP3     21127    TIP3     OH2      OT      -0.834000       15.9994           0
     73296 TIP3     21127    TIP3     H1       HT       0.417000       1.00800           0
     73297 TIP3     21127    TIP3     H2       HT       0.417000       1.00800           0
     73298 TIP3     21128    TIP3     OH2      OT      -0.834000       15.9994           0
     73299 TIP3     21128    TIP3     H1       HT       0.417000       1.00800           0
     73300 TIP3     21128    TIP3     H2       HT       0.417000       1.00800           0
     73301 TIP3     21129    TIP3     OH2      OT      -0.834000       15.9994           0
     73302 TIP3     21129    TIP3     H1       HT       0.417000       1.00800           0
     73303 TIP3     21129    TIP3     H2       HT       0.417000       1.00800           0
     73304 TIP3     21130    TIP3     OH2      OT      -0.834000       15.9994           0
     73305 TIP3     21130    TIP3     H1       HT       0.417000       1.00800           0
     73306 TIP3     21130    TIP3     H2       HT       0.417000       1.00800           0
     73307 TIP3     21131    TIP3     OH2      OT      -0.834000       15.9994           0
     73308 TIP3     21131    TIP3     H1       HT       0.417000       1.00800           0
     73309 TIP3     21131    TIP3     H2       HT       0.417000       1.00800           0
     73310 TIP3     21132    TIP3     OH2      OT      -0.834000       15.9994           0
     73311 TIP3     21132    TIP3     H1       HT       0.417000       1.00800           0
     73312 TIP3     21132    TIP3     H2       HT       0.417000       1.00800           0
     73313 TIP3     21133    TIP3     OH2      OT      -0.834000       15.9994           0
     73314 TIP3     21133    TIP3     H1       HT       0.417000       1.00800           0
     73315 TIP3     21133    TIP3     H2       HT       0.417000       1.00800           0
     73316 TIP3     21134    TIP3     OH2      OT      -0.834000       15.9994           0
     73317 TIP3     21134    TIP3     H1       HT       0.417000       1.00800           0
     73318 TIP3     21134    TIP3     H2       HT       0.417000       1.00800           0
     73319 TIP3     21135    TIP3     OH2      OT      -0.834000       15.9994           0
     73320 TIP3     21135    TIP3     H1       HT       0.417000       1.00800           0
     73321 TIP3     21135    TIP3     H2       HT       0.417000       1.00800           0
     73322 TIP3     21136    TIP3     OH2      OT      -0.834000       15.9994           0
     73323 TIP3     21136    TIP3     H1       HT       0.417000       1.00800           0
     73324 TIP3     21136    TIP3     H2       HT       0.417000       1.00800           0
     73325 TIP3     21137    TIP3     OH2      OT      -0.834000       15.9994           0
     73326 TIP3     21137    TIP3     H1       HT       0.417000       1.00800           0
     73327 TIP3     21137    TIP3     H2       HT       0.417000       1.00800           0
     73328 TIP3     21138    TIP3     OH2      OT      -0.834000       15.9994           0
     73329 TIP3     21138    TIP3     H1       HT       0.417000       1.00800           0
     73330 TIP3     21138    TIP3     H2       HT       0.417000       1.00800           0
     73331 TIP3     21139    TIP3     OH2      OT      -0.834000       15.9994           0
     73332 TIP3     21139    TIP3     H1       HT       0.417000       1.00800           0
     73333 TIP3     21139    TIP3     H2       HT       0.417000       1.00800           0
     73334 TIP3     21140    TIP3     OH2      OT      -0.834000       15.9994           0
     73335 TIP3     21140    TIP3     H1       HT       0.417000       1.00800           0
     73336 TIP3     21140    TIP3     H2       HT       0.417000       1.00800           0
     73337 TIP3     21141    TIP3     OH2      OT      -0.834000       15.9994           0
     73338 TIP3     21141    TIP3     H1       HT       0.417000       1.00800           0
     73339 TIP3     21141    TIP3     H2       HT       0.417000       1.00800           0
     73340 TIP3     21142    TIP3     OH2      OT      -0.834000       15.9994           0
     73341 TIP3     21142    TIP3     H1       HT       0.417000       1.00800           0
     73342 TIP3     21142    TIP3     H2       HT       0.417000       1.00800           0
     73343 TIP3     21143    TIP3     OH2      OT      -0.834000       15.9994           0
     73344 TIP3     21143    TIP3     H1       HT       0.417000       1.00800           0
     73345 TIP3     21143    TIP3     H2       HT       0.417000       1.00800           0
     73346 TIP3     21144    TIP3     OH2      OT      -0.834000       15.9994           0
     73347 TIP3     21144    TIP3     H1       HT       0.417000       1.00800           0
     73348 TIP3     21144    TIP3     H2       HT       0.417000       1.00800           0
     73349 TIP3     21145    TIP3     OH2      OT      -0.834000       15.9994           0
     73350 TIP3     21145    TIP3     H1       HT       0.417000       1.00800           0
     73351 TIP3     21145    TIP3     H2       HT       0.417000       1.00800           0
     73352 TIP3     21146    TIP3     OH2      OT      -0.834000       15.9994           0
     73353 TIP3     21146    TIP3     H1       HT       0.417000       1.00800           0
     73354 TIP3     21146    TIP3     H2       HT       0.417000       1.00800           0
     73355 TIP3     21147    TIP3     OH2      OT      -0.834000       15.9994           0
     73356 TIP3     21147    TIP3     H1       HT       0.417000       1.00800           0
     73357 TIP3     21147    TIP3     H2       HT       0.417000       1.00800           0
     73358 TIP3     21148    TIP3     OH2      OT      -0.834000       15.9994           0
     73359 TIP3     21148    TIP3     H1       HT       0.417000       1.00800           0
     73360 TIP3     21148    TIP3     H2       HT       0.417000       1.00800           0
     73361 TIP3     21149    TIP3     OH2      OT      -0.834000       15.9994           0
     73362 TIP3     21149    TIP3     H1       HT       0.417000       1.00800           0
     73363 TIP3     21149    TIP3     H2       HT       0.417000       1.00800           0
     73364 TIP3     21150    TIP3     OH2      OT      -0.834000       15.9994           0
     73365 TIP3     21150    TIP3     H1       HT       0.417000       1.00800           0
     73366 TIP3     21150    TIP3     H2       HT       0.417000       1.00800           0
     73367 TIP3     21151    TIP3     OH2      OT      -0.834000       15.9994           0
     73368 TIP3     21151    TIP3     H1       HT       0.417000       1.00800           0
     73369 TIP3     21151    TIP3     H2       HT       0.417000       1.00800           0
     73370 TIP3     21152    TIP3     OH2      OT      -0.834000       15.9994           0
     73371 TIP3     21152    TIP3     H1       HT       0.417000       1.00800           0
     73372 TIP3     21152    TIP3     H2       HT       0.417000       1.00800           0
     73373 TIP3     21153    TIP3     OH2      OT      -0.834000       15.9994           0
     73374 TIP3     21153    TIP3     H1       HT       0.417000       1.00800           0
     73375 TIP3     21153    TIP3     H2       HT       0.417000       1.00800           0
     73376 TIP3     21154    TIP3     OH2      OT      -0.834000       15.9994           0
     73377 TIP3     21154    TIP3     H1       HT       0.417000       1.00800           0
     73378 TIP3     21154    TIP3     H2       HT       0.417000       1.00800           0
     73379 TIP3     21155    TIP3     OH2      OT      -0.834000       15.9994           0
     73380 TIP3     21155    TIP3     H1       HT       0.417000       1.00800           0
     73381 TIP3     21155    TIP3     H2       HT       0.417000       1.00800           0
     73382 TIP3     21156    TIP3     OH2      OT      -0.834000       15.9994           0
     73383 TIP3     21156    TIP3     H1       HT       0.417000       1.00800           0
     73384 TIP3     21156    TIP3     H2       HT       0.417000       1.00800           0
     73385 TIP3     21157    TIP3     OH2      OT      -0.834000       15.9994           0
     73386 TIP3     21157    TIP3     H1       HT       0.417000       1.00800           0
     73387 TIP3     21157    TIP3     H2       HT       0.417000       1.00800           0
     73388 TIP3     21158    TIP3     OH2      OT      -0.834000       15.9994           0
     73389 TIP3     21158    TIP3     H1       HT       0.417000       1.00800           0
     73390 TIP3     21158    TIP3     H2       HT       0.417000       1.00800           0
     73391 TIP3     21159    TIP3     OH2      OT      -0.834000       15.9994           0
     73392 TIP3     21159    TIP3     H1       HT       0.417000       1.00800           0
     73393 TIP3     21159    TIP3     H2       HT       0.417000       1.00800           0
     73394 TIP3     21160    TIP3     OH2      OT      -0.834000       15.9994           0
     73395 TIP3     21160    TIP3     H1       HT       0.417000       1.00800           0
     73396 TIP3     21160    TIP3     H2       HT       0.417000       1.00800           0
     73397 TIP3     21161    TIP3     OH2      OT      -0.834000       15.9994           0
     73398 TIP3     21161    TIP3     H1       HT       0.417000       1.00800           0
     73399 TIP3     21161    TIP3     H2       HT       0.417000       1.00800           0
     73400 TIP3     21162    TIP3     OH2      OT      -0.834000       15.9994           0
     73401 TIP3     21162    TIP3     H1       HT       0.417000       1.00800           0
     73402 TIP3     21162    TIP3     H2       HT       0.417000       1.00800           0
     73403 TIP3     21163    TIP3     OH2      OT      -0.834000       15.9994           0
     73404 TIP3     21163    TIP3     H1       HT       0.417000       1.00800           0
     73405 TIP3     21163    TIP3     H2       HT       0.417000       1.00800           0
     73406 TIP3     21164    TIP3     OH2      OT      -0.834000       15.9994           0
     73407 TIP3     21164    TIP3     H1       HT       0.417000       1.00800           0
     73408 TIP3     21164    TIP3     H2       HT       0.417000       1.00800           0
     73409 TIP3     21165    TIP3     OH2      OT      -0.834000       15.9994           0
     73410 TIP3     21165    TIP3     H1       HT       0.417000       1.00800           0
     73411 TIP3     21165    TIP3     H2       HT       0.417000       1.00800           0
     73412 TIP3     21166    TIP3     OH2      OT      -0.834000       15.9994           0
     73413 TIP3     21166    TIP3     H1       HT       0.417000       1.00800           0
     73414 TIP3     21166    TIP3     H2       HT       0.417000       1.00800           0
     73415 TIP3     21167    TIP3     OH2      OT      -0.834000       15.9994           0
     73416 TIP3     21167    TIP3     H1       HT       0.417000       1.00800           0
     73417 TIP3     21167    TIP3     H2       HT       0.417000       1.00800           0
     73418 TIP3     21168    TIP3     OH2      OT      -0.834000       15.9994           0
     73419 TIP3     21168    TIP3     H1       HT       0.417000       1.00800           0
     73420 TIP3     21168    TIP3     H2       HT       0.417000       1.00800           0
     73421 TIP3     21169    TIP3     OH2      OT      -0.834000       15.9994           0
     73422 TIP3     21169    TIP3     H1       HT       0.417000       1.00800           0
     73423 TIP3     21169    TIP3     H2       HT       0.417000       1.00800           0
     73424 TIP3     21170    TIP3     OH2      OT      -0.834000       15.9994           0
     73425 TIP3     21170    TIP3     H1       HT       0.417000       1.00800           0
     73426 TIP3     21170    TIP3     H2       HT       0.417000       1.00800           0
     73427 TIP3     21171    TIP3     OH2      OT      -0.834000       15.9994           0
     73428 TIP3     21171    TIP3     H1       HT       0.417000       1.00800           0
     73429 TIP3     21171    TIP3     H2       HT       0.417000       1.00800           0
     73430 TIP3     21172    TIP3     OH2      OT      -0.834000       15.9994           0
     73431 TIP3     21172    TIP3     H1       HT       0.417000       1.00800           0
     73432 TIP3     21172    TIP3     H2       HT       0.417000       1.00800           0
     73433 TIP3     21173    TIP3     OH2      OT      -0.834000       15.9994           0
     73434 TIP3     21173    TIP3     H1       HT       0.417000       1.00800           0
     73435 TIP3     21173    TIP3     H2       HT       0.417000       1.00800           0
     73436 TIP3     21174    TIP3     OH2      OT      -0.834000       15.9994           0
     73437 TIP3     21174    TIP3     H1       HT       0.417000       1.00800           0
     73438 TIP3     21174    TIP3     H2       HT       0.417000       1.00800           0
     73439 TIP3     21175    TIP3     OH2      OT      -0.834000       15.9994           0
     73440 TIP3     21175    TIP3     H1       HT       0.417000       1.00800           0
     73441 TIP3     21175    TIP3     H2       HT       0.417000       1.00800           0
     73442 TIP3     21176    TIP3     OH2      OT      -0.834000       15.9994           0
     73443 TIP3     21176    TIP3     H1       HT       0.417000       1.00800           0
     73444 TIP3     21176    TIP3     H2       HT       0.417000       1.00800           0
     73445 TIP3     21177    TIP3     OH2      OT      -0.834000       15.9994           0
     73446 TIP3     21177    TIP3     H1       HT       0.417000       1.00800           0
     73447 TIP3     21177    TIP3     H2       HT       0.417000       1.00800           0
     73448 TIP3     21178    TIP3     OH2      OT      -0.834000       15.9994           0
     73449 TIP3     21178    TIP3     H1       HT       0.417000       1.00800           0
     73450 TIP3     21178    TIP3     H2       HT       0.417000       1.00800           0
     73451 TIP3     21179    TIP3     OH2      OT      -0.834000       15.9994           0
     73452 TIP3     21179    TIP3     H1       HT       0.417000       1.00800           0
     73453 TIP3     21179    TIP3     H2       HT       0.417000       1.00800           0
     73454 TIP3     21180    TIP3     OH2      OT      -0.834000       15.9994           0
     73455 TIP3     21180    TIP3     H1       HT       0.417000       1.00800           0
     73456 TIP3     21180    TIP3     H2       HT       0.417000       1.00800           0
     73457 TIP3     21181    TIP3     OH2      OT      -0.834000       15.9994           0
     73458 TIP3     21181    TIP3     H1       HT       0.417000       1.00800           0
     73459 TIP3     21181    TIP3     H2       HT       0.417000       1.00800           0
     73460 TIP3     21182    TIP3     OH2      OT      -0.834000       15.9994           0
     73461 TIP3     21182    TIP3     H1       HT       0.417000       1.00800           0
     73462 TIP3     21182    TIP3     H2       HT       0.417000       1.00800           0
     73463 TIP3     21183    TIP3     OH2      OT      -0.834000       15.9994           0
     73464 TIP3     21183    TIP3     H1       HT       0.417000       1.00800           0
     73465 TIP3     21183    TIP3     H2       HT       0.417000       1.00800           0
     73466 TIP3     21184    TIP3     OH2      OT      -0.834000       15.9994           0
     73467 TIP3     21184    TIP3     H1       HT       0.417000       1.00800           0
     73468 TIP3     21184    TIP3     H2       HT       0.417000       1.00800           0
     73469 TIP3     21185    TIP3     OH2      OT      -0.834000       15.9994           0
     73470 TIP3     21185    TIP3     H1       HT       0.417000       1.00800           0
     73471 TIP3     21185    TIP3     H2       HT       0.417000       1.00800           0
     73472 TIP3     21186    TIP3     OH2      OT      -0.834000       15.9994           0
     73473 TIP3     21186    TIP3     H1       HT       0.417000       1.00800           0
     73474 TIP3     21186    TIP3     H2       HT       0.417000       1.00800           0
     73475 TIP3     21187    TIP3     OH2      OT      -0.834000       15.9994           0
     73476 TIP3     21187    TIP3     H1       HT       0.417000       1.00800           0
     73477 TIP3     21187    TIP3     H2       HT       0.417000       1.00800           0
     73478 TIP3     21188    TIP3     OH2      OT      -0.834000       15.9994           0
     73479 TIP3     21188    TIP3     H1       HT       0.417000       1.00800           0
     73480 TIP3     21188    TIP3     H2       HT       0.417000       1.00800           0
     73481 TIP3     21189    TIP3     OH2      OT      -0.834000       15.9994           0
     73482 TIP3     21189    TIP3     H1       HT       0.417000       1.00800           0
     73483 TIP3     21189    TIP3     H2       HT       0.417000       1.00800           0
     73484 TIP3     21190    TIP3     OH2      OT      -0.834000       15.9994           0
     73485 TIP3     21190    TIP3     H1       HT       0.417000       1.00800           0
     73486 TIP3     21190    TIP3     H2       HT       0.417000       1.00800           0
     73487 TIP3     21191    TIP3     OH2      OT      -0.834000       15.9994           0
     73488 TIP3     21191    TIP3     H1       HT       0.417000       1.00800           0
     73489 TIP3     21191    TIP3     H2       HT       0.417000       1.00800           0
     73490 TIP3     21192    TIP3     OH2      OT      -0.834000       15.9994           0
     73491 TIP3     21192    TIP3     H1       HT       0.417000       1.00800           0
     73492 TIP3     21192    TIP3     H2       HT       0.417000       1.00800           0
     73493 TIP3     21193    TIP3     OH2      OT      -0.834000       15.9994           0
     73494 TIP3     21193    TIP3     H1       HT       0.417000       1.00800           0
     73495 TIP3     21193    TIP3     H2       HT       0.417000       1.00800           0
     73496 TIP3     21194    TIP3     OH2      OT      -0.834000       15.9994           0
     73497 TIP3     21194    TIP3     H1       HT       0.417000       1.00800           0
     73498 TIP3     21194    TIP3     H2       HT       0.417000       1.00800           0
     73499 TIP3     21195    TIP3     OH2      OT      -0.834000       15.9994           0
     73500 TIP3     21195    TIP3     H1       HT       0.417000       1.00800           0
     73501 TIP3     21195    TIP3     H2       HT       0.417000       1.00800           0
     73502 TIP3     21196    TIP3     OH2      OT      -0.834000       15.9994           0
     73503 TIP3     21196    TIP3     H1       HT       0.417000       1.00800           0
     73504 TIP3     21196    TIP3     H2       HT       0.417000       1.00800           0
     73505 TIP3     21197    TIP3     OH2      OT      -0.834000       15.9994           0
     73506 TIP3     21197    TIP3     H1       HT       0.417000       1.00800           0
     73507 TIP3     21197    TIP3     H2       HT       0.417000       1.00800           0
     73508 TIP3     21198    TIP3     OH2      OT      -0.834000       15.9994           0
     73509 TIP3     21198    TIP3     H1       HT       0.417000       1.00800           0
     73510 TIP3     21198    TIP3     H2       HT       0.417000       1.00800           0
     73511 TIP3     21199    TIP3     OH2      OT      -0.834000       15.9994           0
     73512 TIP3     21199    TIP3     H1       HT       0.417000       1.00800           0
     73513 TIP3     21199    TIP3     H2       HT       0.417000       1.00800           0
     73514 TIP3     21200    TIP3     OH2      OT      -0.834000       15.9994           0
     73515 TIP3     21200    TIP3     H1       HT       0.417000       1.00800           0
     73516 TIP3     21200    TIP3     H2       HT       0.417000       1.00800           0
     73517 TIP3     21201    TIP3     OH2      OT      -0.834000       15.9994           0
     73518 TIP3     21201    TIP3     H1       HT       0.417000       1.00800           0
     73519 TIP3     21201    TIP3     H2       HT       0.417000       1.00800           0
     73520 TIP3     21202    TIP3     OH2      OT      -0.834000       15.9994           0
     73521 TIP3     21202    TIP3     H1       HT       0.417000       1.00800           0
     73522 TIP3     21202    TIP3     H2       HT       0.417000       1.00800           0
     73523 TIP3     21203    TIP3     OH2      OT      -0.834000       15.9994           0
     73524 TIP3     21203    TIP3     H1       HT       0.417000       1.00800           0
     73525 TIP3     21203    TIP3     H2       HT       0.417000       1.00800           0
     73526 TIP3     21204    TIP3     OH2      OT      -0.834000       15.9994           0
     73527 TIP3     21204    TIP3     H1       HT       0.417000       1.00800           0
     73528 TIP3     21204    TIP3     H2       HT       0.417000       1.00800           0
     73529 TIP3     21205    TIP3     OH2      OT      -0.834000       15.9994           0
     73530 TIP3     21205    TIP3     H1       HT       0.417000       1.00800           0
     73531 TIP3     21205    TIP3     H2       HT       0.417000       1.00800           0
     73532 TIP3     21206    TIP3     OH2      OT      -0.834000       15.9994           0
     73533 TIP3     21206    TIP3     H1       HT       0.417000       1.00800           0
     73534 TIP3     21206    TIP3     H2       HT       0.417000       1.00800           0
     73535 TIP3     21207    TIP3     OH2      OT      -0.834000       15.9994           0
     73536 TIP3     21207    TIP3     H1       HT       0.417000       1.00800           0
     73537 TIP3     21207    TIP3     H2       HT       0.417000       1.00800           0
     73538 TIP3     21208    TIP3     OH2      OT      -0.834000       15.9994           0
     73539 TIP3     21208    TIP3     H1       HT       0.417000       1.00800           0
     73540 TIP3     21208    TIP3     H2       HT       0.417000       1.00800           0
     73541 TIP3     21209    TIP3     OH2      OT      -0.834000       15.9994           0
     73542 TIP3     21209    TIP3     H1       HT       0.417000       1.00800           0
     73543 TIP3     21209    TIP3     H2       HT       0.417000       1.00800           0
     73544 TIP3     21210    TIP3     OH2      OT      -0.834000       15.9994           0
     73545 TIP3     21210    TIP3     H1       HT       0.417000       1.00800           0
     73546 TIP3     21210    TIP3     H2       HT       0.417000       1.00800           0
     73547 TIP3     21211    TIP3     OH2      OT      -0.834000       15.9994           0
     73548 TIP3     21211    TIP3     H1       HT       0.417000       1.00800           0
     73549 TIP3     21211    TIP3     H2       HT       0.417000       1.00800           0
     73550 TIP3     21212    TIP3     OH2      OT      -0.834000       15.9994           0
     73551 TIP3     21212    TIP3     H1       HT       0.417000       1.00800           0
     73552 TIP3     21212    TIP3     H2       HT       0.417000       1.00800           0
     73553 TIP3     21213    TIP3     OH2      OT      -0.834000       15.9994           0
     73554 TIP3     21213    TIP3     H1       HT       0.417000       1.00800           0
     73555 TIP3     21213    TIP3     H2       HT       0.417000       1.00800           0
     73556 TIP3     21214    TIP3     OH2      OT      -0.834000       15.9994           0
     73557 TIP3     21214    TIP3     H1       HT       0.417000       1.00800           0
     73558 TIP3     21214    TIP3     H2       HT       0.417000       1.00800           0
     73559 TIP3     21215    TIP3     OH2      OT      -0.834000       15.9994           0
     73560 TIP3     21215    TIP3     H1       HT       0.417000       1.00800           0
     73561 TIP3     21215    TIP3     H2       HT       0.417000       1.00800           0
     73562 TIP3     21216    TIP3     OH2      OT      -0.834000       15.9994           0
     73563 TIP3     21216    TIP3     H1       HT       0.417000       1.00800           0
     73564 TIP3     21216    TIP3     H2       HT       0.417000       1.00800           0
     73565 TIP3     21217    TIP3     OH2      OT      -0.834000       15.9994           0
     73566 TIP3     21217    TIP3     H1       HT       0.417000       1.00800           0
     73567 TIP3     21217    TIP3     H2       HT       0.417000       1.00800           0
     73568 TIP3     21218    TIP3     OH2      OT      -0.834000       15.9994           0
     73569 TIP3     21218    TIP3     H1       HT       0.417000       1.00800           0
     73570 TIP3     21218    TIP3     H2       HT       0.417000       1.00800           0
     73571 TIP3     21219    TIP3     OH2      OT      -0.834000       15.9994           0
     73572 TIP3     21219    TIP3     H1       HT       0.417000       1.00800           0
     73573 TIP3     21219    TIP3     H2       HT       0.417000       1.00800           0
     73574 TIP3     21220    TIP3     OH2      OT      -0.834000       15.9994           0
     73575 TIP3     21220    TIP3     H1       HT       0.417000       1.00800           0
     73576 TIP3     21220    TIP3     H2       HT       0.417000       1.00800           0
     73577 TIP3     21221    TIP3     OH2      OT      -0.834000       15.9994           0
     73578 TIP3     21221    TIP3     H1       HT       0.417000       1.00800           0
     73579 TIP3     21221    TIP3     H2       HT       0.417000       1.00800           0
     73580 TIP3     21222    TIP3     OH2      OT      -0.834000       15.9994           0
     73581 TIP3     21222    TIP3     H1       HT       0.417000       1.00800           0
     73582 TIP3     21222    TIP3     H2       HT       0.417000       1.00800           0
     73583 TIP3     21223    TIP3     OH2      OT      -0.834000       15.9994           0
     73584 TIP3     21223    TIP3     H1       HT       0.417000       1.00800           0
     73585 TIP3     21223    TIP3     H2       HT       0.417000       1.00800           0
     73586 TIP3     21224    TIP3     OH2      OT      -0.834000       15.9994           0
     73587 TIP3     21224    TIP3     H1       HT       0.417000       1.00800           0
     73588 TIP3     21224    TIP3     H2       HT       0.417000       1.00800           0
     73589 TIP3     21225    TIP3     OH2      OT      -0.834000       15.9994           0
     73590 TIP3     21225    TIP3     H1       HT       0.417000       1.00800           0
     73591 TIP3     21225    TIP3     H2       HT       0.417000       1.00800           0
     73592 TIP3     21226    TIP3     OH2      OT      -0.834000       15.9994           0
     73593 TIP3     21226    TIP3     H1       HT       0.417000       1.00800           0
     73594 TIP3     21226    TIP3     H2       HT       0.417000       1.00800           0
     73595 TIP3     21227    TIP3     OH2      OT      -0.834000       15.9994           0
     73596 TIP3     21227    TIP3     H1       HT       0.417000       1.00800           0
     73597 TIP3     21227    TIP3     H2       HT       0.417000       1.00800           0
     73598 TIP3     21228    TIP3     OH2      OT      -0.834000       15.9994           0
     73599 TIP3     21228    TIP3     H1       HT       0.417000       1.00800           0
     73600 TIP3     21228    TIP3     H2       HT       0.417000       1.00800           0
     73601 TIP3     21229    TIP3     OH2      OT      -0.834000       15.9994           0
     73602 TIP3     21229    TIP3     H1       HT       0.417000       1.00800           0
     73603 TIP3     21229    TIP3     H2       HT       0.417000       1.00800           0
     73604 TIP3     21230    TIP3     OH2      OT      -0.834000       15.9994           0
     73605 TIP3     21230    TIP3     H1       HT       0.417000       1.00800           0
     73606 TIP3     21230    TIP3     H2       HT       0.417000       1.00800           0
     73607 TIP3     21231    TIP3     OH2      OT      -0.834000       15.9994           0
     73608 TIP3     21231    TIP3     H1       HT       0.417000       1.00800           0
     73609 TIP3     21231    TIP3     H2       HT       0.417000       1.00800           0
     73610 TIP3     21232    TIP3     OH2      OT      -0.834000       15.9994           0
     73611 TIP3     21232    TIP3     H1       HT       0.417000       1.00800           0
     73612 TIP3     21232    TIP3     H2       HT       0.417000       1.00800           0
     73613 TIP3     21233    TIP3     OH2      OT      -0.834000       15.9994           0
     73614 TIP3     21233    TIP3     H1       HT       0.417000       1.00800           0
     73615 TIP3     21233    TIP3     H2       HT       0.417000       1.00800           0
     73616 TIP3     21234    TIP3     OH2      OT      -0.834000       15.9994           0
     73617 TIP3     21234    TIP3     H1       HT       0.417000       1.00800           0
     73618 TIP3     21234    TIP3     H2       HT       0.417000       1.00800           0
     73619 TIP3     21235    TIP3     OH2      OT      -0.834000       15.9994           0
     73620 TIP3     21235    TIP3     H1       HT       0.417000       1.00800           0
     73621 TIP3     21235    TIP3     H2       HT       0.417000       1.00800           0
     73622 TIP3     21236    TIP3     OH2      OT      -0.834000       15.9994           0
     73623 TIP3     21236    TIP3     H1       HT       0.417000       1.00800           0
     73624 TIP3     21236    TIP3     H2       HT       0.417000       1.00800           0
     73625 TIP3     21237    TIP3     OH2      OT      -0.834000       15.9994           0
     73626 TIP3     21237    TIP3     H1       HT       0.417000       1.00800           0
     73627 TIP3     21237    TIP3     H2       HT       0.417000       1.00800           0
     73628 TIP3     21238    TIP3     OH2      OT      -0.834000       15.9994           0
     73629 TIP3     21238    TIP3     H1       HT       0.417000       1.00800           0
     73630 TIP3     21238    TIP3     H2       HT       0.417000       1.00800           0
     73631 TIP3     21239    TIP3     OH2      OT      -0.834000       15.9994           0
     73632 TIP3     21239    TIP3     H1       HT       0.417000       1.00800           0
     73633 TIP3     21239    TIP3     H2       HT       0.417000       1.00800           0
     73634 TIP3     21240    TIP3     OH2      OT      -0.834000       15.9994           0
     73635 TIP3     21240    TIP3     H1       HT       0.417000       1.00800           0
     73636 TIP3     21240    TIP3     H2       HT       0.417000       1.00800           0
     73637 TIP3     21241    TIP3     OH2      OT      -0.834000       15.9994           0
     73638 TIP3     21241    TIP3     H1       HT       0.417000       1.00800           0
     73639 TIP3     21241    TIP3     H2       HT       0.417000       1.00800           0
     73640 TIP3     21242    TIP3     OH2      OT      -0.834000       15.9994           0
     73641 TIP3     21242    TIP3     H1       HT       0.417000       1.00800           0
     73642 TIP3     21242    TIP3     H2       HT       0.417000       1.00800           0
     73643 TIP3     21243    TIP3     OH2      OT      -0.834000       15.9994           0
     73644 TIP3     21243    TIP3     H1       HT       0.417000       1.00800           0
     73645 TIP3     21243    TIP3     H2       HT       0.417000       1.00800           0
     73646 TIP3     21244    TIP3     OH2      OT      -0.834000       15.9994           0
     73647 TIP3     21244    TIP3     H1       HT       0.417000       1.00800           0
     73648 TIP3     21244    TIP3     H2       HT       0.417000       1.00800           0
     73649 TIP3     21245    TIP3     OH2      OT      -0.834000       15.9994           0
     73650 TIP3     21245    TIP3     H1       HT       0.417000       1.00800           0
     73651 TIP3     21245    TIP3     H2       HT       0.417000       1.00800           0
     73652 TIP3     21246    TIP3     OH2      OT      -0.834000       15.9994           0
     73653 TIP3     21246    TIP3     H1       HT       0.417000       1.00800           0
     73654 TIP3     21246    TIP3     H2       HT       0.417000       1.00800           0
     73655 TIP3     21247    TIP3     OH2      OT      -0.834000       15.9994           0
     73656 TIP3     21247    TIP3     H1       HT       0.417000       1.00800           0
     73657 TIP3     21247    TIP3     H2       HT       0.417000       1.00800           0
     73658 TIP3     21248    TIP3     OH2      OT      -0.834000       15.9994           0
     73659 TIP3     21248    TIP3     H1       HT       0.417000       1.00800           0
     73660 TIP3     21248    TIP3     H2       HT       0.417000       1.00800           0
     73661 TIP3     21249    TIP3     OH2      OT      -0.834000       15.9994           0
     73662 TIP3     21249    TIP3     H1       HT       0.417000       1.00800           0
     73663 TIP3     21249    TIP3     H2       HT       0.417000       1.00800           0
     73664 TIP3     21250    TIP3     OH2      OT      -0.834000       15.9994           0
     73665 TIP3     21250    TIP3     H1       HT       0.417000       1.00800           0
     73666 TIP3     21250    TIP3     H2       HT       0.417000       1.00800           0
     73667 TIP3     21251    TIP3     OH2      OT      -0.834000       15.9994           0
     73668 TIP3     21251    TIP3     H1       HT       0.417000       1.00800           0
     73669 TIP3     21251    TIP3     H2       HT       0.417000       1.00800           0
     73670 TIP3     21252    TIP3     OH2      OT      -0.834000       15.9994           0
     73671 TIP3     21252    TIP3     H1       HT       0.417000       1.00800           0
     73672 TIP3     21252    TIP3     H2       HT       0.417000       1.00800           0
     73673 TIP3     21253    TIP3     OH2      OT      -0.834000       15.9994           0
     73674 TIP3     21253    TIP3     H1       HT       0.417000       1.00800           0
     73675 TIP3     21253    TIP3     H2       HT       0.417000       1.00800           0
     73676 TIP3     21254    TIP3     OH2      OT      -0.834000       15.9994           0
     73677 TIP3     21254    TIP3     H1       HT       0.417000       1.00800           0
     73678 TIP3     21254    TIP3     H2       HT       0.417000       1.00800           0
     73679 TIP3     21255    TIP3     OH2      OT      -0.834000       15.9994           0
     73680 TIP3     21255    TIP3     H1       HT       0.417000       1.00800           0
     73681 TIP3     21255    TIP3     H2       HT       0.417000       1.00800           0
     73682 TIP3     21256    TIP3     OH2      OT      -0.834000       15.9994           0
     73683 TIP3     21256    TIP3     H1       HT       0.417000       1.00800           0
     73684 TIP3     21256    TIP3     H2       HT       0.417000       1.00800           0
     73685 TIP3     21257    TIP3     OH2      OT      -0.834000       15.9994           0
     73686 TIP3     21257    TIP3     H1       HT       0.417000       1.00800           0
     73687 TIP3     21257    TIP3     H2       HT       0.417000       1.00800           0
     73688 TIP3     21258    TIP3     OH2      OT      -0.834000       15.9994           0
     73689 TIP3     21258    TIP3     H1       HT       0.417000       1.00800           0
     73690 TIP3     21258    TIP3     H2       HT       0.417000       1.00800           0
     73691 TIP3     21259    TIP3     OH2      OT      -0.834000       15.9994           0
     73692 TIP3     21259    TIP3     H1       HT       0.417000       1.00800           0
     73693 TIP3     21259    TIP3     H2       HT       0.417000       1.00800           0
     73694 TIP3     21260    TIP3     OH2      OT      -0.834000       15.9994           0
     73695 TIP3     21260    TIP3     H1       HT       0.417000       1.00800           0
     73696 TIP3     21260    TIP3     H2       HT       0.417000       1.00800           0
     73697 TIP3     21261    TIP3     OH2      OT      -0.834000       15.9994           0
     73698 TIP3     21261    TIP3     H1       HT       0.417000       1.00800           0
     73699 TIP3     21261    TIP3     H2       HT       0.417000       1.00800           0
     73700 TIP3     21262    TIP3     OH2      OT      -0.834000       15.9994           0
     73701 TIP3     21262    TIP3     H1       HT       0.417000       1.00800           0
     73702 TIP3     21262    TIP3     H2       HT       0.417000       1.00800           0
     73703 TIP3     21263    TIP3     OH2      OT      -0.834000       15.9994           0
     73704 TIP3     21263    TIP3     H1       HT       0.417000       1.00800           0
     73705 TIP3     21263    TIP3     H2       HT       0.417000       1.00800           0
     73706 TIP3     21264    TIP3     OH2      OT      -0.834000       15.9994           0
     73707 TIP3     21264    TIP3     H1       HT       0.417000       1.00800           0
     73708 TIP3     21264    TIP3     H2       HT       0.417000       1.00800           0
     73709 TIP3     21265    TIP3     OH2      OT      -0.834000       15.9994           0
     73710 TIP3     21265    TIP3     H1       HT       0.417000       1.00800           0
     73711 TIP3     21265    TIP3     H2       HT       0.417000       1.00800           0
     73712 TIP3     21266    TIP3     OH2      OT      -0.834000       15.9994           0
     73713 TIP3     21266    TIP3     H1       HT       0.417000       1.00800           0
     73714 TIP3     21266    TIP3     H2       HT       0.417000       1.00800           0
     73715 TIP3     21267    TIP3     OH2      OT      -0.834000       15.9994           0
     73716 TIP3     21267    TIP3     H1       HT       0.417000       1.00800           0
     73717 TIP3     21267    TIP3     H2       HT       0.417000       1.00800           0
     73718 TIP3     21268    TIP3     OH2      OT      -0.834000       15.9994           0
     73719 TIP3     21268    TIP3     H1       HT       0.417000       1.00800           0
     73720 TIP3     21268    TIP3     H2       HT       0.417000       1.00800           0
     73721 TIP3     21269    TIP3     OH2      OT      -0.834000       15.9994           0
     73722 TIP3     21269    TIP3     H1       HT       0.417000       1.00800           0
     73723 TIP3     21269    TIP3     H2       HT       0.417000       1.00800           0
     73724 TIP3     21270    TIP3     OH2      OT      -0.834000       15.9994           0
     73725 TIP3     21270    TIP3     H1       HT       0.417000       1.00800           0
     73726 TIP3     21270    TIP3     H2       HT       0.417000       1.00800           0
     73727 TIP3     21271    TIP3     OH2      OT      -0.834000       15.9994           0
     73728 TIP3     21271    TIP3     H1       HT       0.417000       1.00800           0
     73729 TIP3     21271    TIP3     H2       HT       0.417000       1.00800           0
     73730 TIP3     21272    TIP3     OH2      OT      -0.834000       15.9994           0
     73731 TIP3     21272    TIP3     H1       HT       0.417000       1.00800           0
     73732 TIP3     21272    TIP3     H2       HT       0.417000       1.00800           0
     73733 TIP3     21273    TIP3     OH2      OT      -0.834000       15.9994           0
     73734 TIP3     21273    TIP3     H1       HT       0.417000       1.00800           0
     73735 TIP3     21273    TIP3     H2       HT       0.417000       1.00800           0
     73736 TIP3     21274    TIP3     OH2      OT      -0.834000       15.9994           0
     73737 TIP3     21274    TIP3     H1       HT       0.417000       1.00800           0
     73738 TIP3     21274    TIP3     H2       HT       0.417000       1.00800           0
     73739 TIP3     21275    TIP3     OH2      OT      -0.834000       15.9994           0
     73740 TIP3     21275    TIP3     H1       HT       0.417000       1.00800           0
     73741 TIP3     21275    TIP3     H2       HT       0.417000       1.00800           0
     73742 TIP3     21276    TIP3     OH2      OT      -0.834000       15.9994           0
     73743 TIP3     21276    TIP3     H1       HT       0.417000       1.00800           0
     73744 TIP3     21276    TIP3     H2       HT       0.417000       1.00800           0
     73745 TIP3     21277    TIP3     OH2      OT      -0.834000       15.9994           0
     73746 TIP3     21277    TIP3     H1       HT       0.417000       1.00800           0
     73747 TIP3     21277    TIP3     H2       HT       0.417000       1.00800           0
     73748 TIP3     21278    TIP3     OH2      OT      -0.834000       15.9994           0
     73749 TIP3     21278    TIP3     H1       HT       0.417000       1.00800           0
     73750 TIP3     21278    TIP3     H2       HT       0.417000       1.00800           0
     73751 TIP3     21279    TIP3     OH2      OT      -0.834000       15.9994           0
     73752 TIP3     21279    TIP3     H1       HT       0.417000       1.00800           0
     73753 TIP3     21279    TIP3     H2       HT       0.417000       1.00800           0
     73754 TIP3     21280    TIP3     OH2      OT      -0.834000       15.9994           0
     73755 TIP3     21280    TIP3     H1       HT       0.417000       1.00800           0
     73756 TIP3     21280    TIP3     H2       HT       0.417000       1.00800           0
     73757 TIP3     21281    TIP3     OH2      OT      -0.834000       15.9994           0
     73758 TIP3     21281    TIP3     H1       HT       0.417000       1.00800           0
     73759 TIP3     21281    TIP3     H2       HT       0.417000       1.00800           0
     73760 TIP3     21282    TIP3     OH2      OT      -0.834000       15.9994           0
     73761 TIP3     21282    TIP3     H1       HT       0.417000       1.00800           0
     73762 TIP3     21282    TIP3     H2       HT       0.417000       1.00800           0
     73763 TIP3     21283    TIP3     OH2      OT      -0.834000       15.9994           0
     73764 TIP3     21283    TIP3     H1       HT       0.417000       1.00800           0
     73765 TIP3     21283    TIP3     H2       HT       0.417000       1.00800           0
     73766 TIP3     21284    TIP3     OH2      OT      -0.834000       15.9994           0
     73767 TIP3     21284    TIP3     H1       HT       0.417000       1.00800           0
     73768 TIP3     21284    TIP3     H2       HT       0.417000       1.00800           0
     73769 TIP3     21285    TIP3     OH2      OT      -0.834000       15.9994           0
     73770 TIP3     21285    TIP3     H1       HT       0.417000       1.00800           0
     73771 TIP3     21285    TIP3     H2       HT       0.417000       1.00800           0
     73772 TIP3     21286    TIP3     OH2      OT      -0.834000       15.9994           0
     73773 TIP3     21286    TIP3     H1       HT       0.417000       1.00800           0
     73774 TIP3     21286    TIP3     H2       HT       0.417000       1.00800           0
     73775 TIP3     21287    TIP3     OH2      OT      -0.834000       15.9994           0
     73776 TIP3     21287    TIP3     H1       HT       0.417000       1.00800           0
     73777 TIP3     21287    TIP3     H2       HT       0.417000       1.00800           0
     73778 TIP3     21288    TIP3     OH2      OT      -0.834000       15.9994           0
     73779 TIP3     21288    TIP3     H1       HT       0.417000       1.00800           0
     73780 TIP3     21288    TIP3     H2       HT       0.417000       1.00800           0
     73781 TIP3     21289    TIP3     OH2      OT      -0.834000       15.9994           0
     73782 TIP3     21289    TIP3     H1       HT       0.417000       1.00800           0
     73783 TIP3     21289    TIP3     H2       HT       0.417000       1.00800           0
     73784 TIP3     21290    TIP3     OH2      OT      -0.834000       15.9994           0
     73785 TIP3     21290    TIP3     H1       HT       0.417000       1.00800           0
     73786 TIP3     21290    TIP3     H2       HT       0.417000       1.00800           0
     73787 TIP3     21291    TIP3     OH2      OT      -0.834000       15.9994           0
     73788 TIP3     21291    TIP3     H1       HT       0.417000       1.00800           0
     73789 TIP3     21291    TIP3     H2       HT       0.417000       1.00800           0
     73790 TIP3     21292    TIP3     OH2      OT      -0.834000       15.9994           0
     73791 TIP3     21292    TIP3     H1       HT       0.417000       1.00800           0
     73792 TIP3     21292    TIP3     H2       HT       0.417000       1.00800           0
     73793 TIP3     21293    TIP3     OH2      OT      -0.834000       15.9994           0
     73794 TIP3     21293    TIP3     H1       HT       0.417000       1.00800           0
     73795 TIP3     21293    TIP3     H2       HT       0.417000       1.00800           0
     73796 TIP3     21294    TIP3     OH2      OT      -0.834000       15.9994           0
     73797 TIP3     21294    TIP3     H1       HT       0.417000       1.00800           0
     73798 TIP3     21294    TIP3     H2       HT       0.417000       1.00800           0
     73799 TIP3     21295    TIP3     OH2      OT      -0.834000       15.9994           0
     73800 TIP3     21295    TIP3     H1       HT       0.417000       1.00800           0
     73801 TIP3     21295    TIP3     H2       HT       0.417000       1.00800           0
     73802 TIP3     21296    TIP3     OH2      OT      -0.834000       15.9994           0
     73803 TIP3     21296    TIP3     H1       HT       0.417000       1.00800           0
     73804 TIP3     21296    TIP3     H2       HT       0.417000       1.00800           0
     73805 TIP3     21297    TIP3     OH2      OT      -0.834000       15.9994           0
     73806 TIP3     21297    TIP3     H1       HT       0.417000       1.00800           0
     73807 TIP3     21297    TIP3     H2       HT       0.417000       1.00800           0
     73808 TIP3     21298    TIP3     OH2      OT      -0.834000       15.9994           0
     73809 TIP3     21298    TIP3     H1       HT       0.417000       1.00800           0
     73810 TIP3     21298    TIP3     H2       HT       0.417000       1.00800           0
     73811 TIP3     21299    TIP3     OH2      OT      -0.834000       15.9994           0
     73812 TIP3     21299    TIP3     H1       HT       0.417000       1.00800           0
     73813 TIP3     21299    TIP3     H2       HT       0.417000       1.00800           0
     73814 TIP3     21300    TIP3     OH2      OT      -0.834000       15.9994           0
     73815 TIP3     21300    TIP3     H1       HT       0.417000       1.00800           0
     73816 TIP3     21300    TIP3     H2       HT       0.417000       1.00800           0
     73817 TIP3     21301    TIP3     OH2      OT      -0.834000       15.9994           0
     73818 TIP3     21301    TIP3     H1       HT       0.417000       1.00800           0
     73819 TIP3     21301    TIP3     H2       HT       0.417000       1.00800           0
     73820 TIP3     21302    TIP3     OH2      OT      -0.834000       15.9994           0
     73821 TIP3     21302    TIP3     H1       HT       0.417000       1.00800           0
     73822 TIP3     21302    TIP3     H2       HT       0.417000       1.00800           0
     73823 TIP3     21303    TIP3     OH2      OT      -0.834000       15.9994           0
     73824 TIP3     21303    TIP3     H1       HT       0.417000       1.00800           0
     73825 TIP3     21303    TIP3     H2       HT       0.417000       1.00800           0
     73826 TIP3     21304    TIP3     OH2      OT      -0.834000       15.9994           0
     73827 TIP3     21304    TIP3     H1       HT       0.417000       1.00800           0
     73828 TIP3     21304    TIP3     H2       HT       0.417000       1.00800           0
     73829 TIP3     21305    TIP3     OH2      OT      -0.834000       15.9994           0
     73830 TIP3     21305    TIP3     H1       HT       0.417000       1.00800           0
     73831 TIP3     21305    TIP3     H2       HT       0.417000       1.00800           0
     73832 TIP3     21306    TIP3     OH2      OT      -0.834000       15.9994           0
     73833 TIP3     21306    TIP3     H1       HT       0.417000       1.00800           0
     73834 TIP3     21306    TIP3     H2       HT       0.417000       1.00800           0
     73835 TIP3     21307    TIP3     OH2      OT      -0.834000       15.9994           0
     73836 TIP3     21307    TIP3     H1       HT       0.417000       1.00800           0
     73837 TIP3     21307    TIP3     H2       HT       0.417000       1.00800           0
     73838 TIP3     21308    TIP3     OH2      OT      -0.834000       15.9994           0
     73839 TIP3     21308    TIP3     H1       HT       0.417000       1.00800           0
     73840 TIP3     21308    TIP3     H2       HT       0.417000       1.00800           0
     73841 TIP3     21309    TIP3     OH2      OT      -0.834000       15.9994           0
     73842 TIP3     21309    TIP3     H1       HT       0.417000       1.00800           0
     73843 TIP3     21309    TIP3     H2       HT       0.417000       1.00800           0
     73844 TIP3     21310    TIP3     OH2      OT      -0.834000       15.9994           0
     73845 TIP3     21310    TIP3     H1       HT       0.417000       1.00800           0
     73846 TIP3     21310    TIP3     H2       HT       0.417000       1.00800           0
     73847 TIP3     21311    TIP3     OH2      OT      -0.834000       15.9994           0
     73848 TIP3     21311    TIP3     H1       HT       0.417000       1.00800           0
     73849 TIP3     21311    TIP3     H2       HT       0.417000       1.00800           0
     73850 TIP3     21312    TIP3     OH2      OT      -0.834000       15.9994           0
     73851 TIP3     21312    TIP3     H1       HT       0.417000       1.00800           0
     73852 TIP3     21312    TIP3     H2       HT       0.417000       1.00800           0
     73853 TIP3     21313    TIP3     OH2      OT      -0.834000       15.9994           0
     73854 TIP3     21313    TIP3     H1       HT       0.417000       1.00800           0
     73855 TIP3     21313    TIP3     H2       HT       0.417000       1.00800           0
     73856 TIP3     21314    TIP3     OH2      OT      -0.834000       15.9994           0
     73857 TIP3     21314    TIP3     H1       HT       0.417000       1.00800           0
     73858 TIP3     21314    TIP3     H2       HT       0.417000       1.00800           0
     73859 TIP3     21315    TIP3     OH2      OT      -0.834000       15.9994           0
     73860 TIP3     21315    TIP3     H1       HT       0.417000       1.00800           0
     73861 TIP3     21315    TIP3     H2       HT       0.417000       1.00800           0
     73862 TIP3     21316    TIP3     OH2      OT      -0.834000       15.9994           0
     73863 TIP3     21316    TIP3     H1       HT       0.417000       1.00800           0
     73864 TIP3     21316    TIP3     H2       HT       0.417000       1.00800           0
     73865 TIP3     21317    TIP3     OH2      OT      -0.834000       15.9994           0
     73866 TIP3     21317    TIP3     H1       HT       0.417000       1.00800           0
     73867 TIP3     21317    TIP3     H2       HT       0.417000       1.00800           0
     73868 TIP3     21318    TIP3     OH2      OT      -0.834000       15.9994           0
     73869 TIP3     21318    TIP3     H1       HT       0.417000       1.00800           0
     73870 TIP3     21318    TIP3     H2       HT       0.417000       1.00800           0
     73871 TIP3     21319    TIP3     OH2      OT      -0.834000       15.9994           0
     73872 TIP3     21319    TIP3     H1       HT       0.417000       1.00800           0
     73873 TIP3     21319    TIP3     H2       HT       0.417000       1.00800           0
     73874 TIP3     21320    TIP3     OH2      OT      -0.834000       15.9994           0
     73875 TIP3     21320    TIP3     H1       HT       0.417000       1.00800           0
     73876 TIP3     21320    TIP3     H2       HT       0.417000       1.00800           0
     73877 TIP3     21321    TIP3     OH2      OT      -0.834000       15.9994           0
     73878 TIP3     21321    TIP3     H1       HT       0.417000       1.00800           0
     73879 TIP3     21321    TIP3     H2       HT       0.417000       1.00800           0
     73880 TIP3     21322    TIP3     OH2      OT      -0.834000       15.9994           0
     73881 TIP3     21322    TIP3     H1       HT       0.417000       1.00800           0
     73882 TIP3     21322    TIP3     H2       HT       0.417000       1.00800           0
     73883 TIP3     21323    TIP3     OH2      OT      -0.834000       15.9994           0
     73884 TIP3     21323    TIP3     H1       HT       0.417000       1.00800           0
     73885 TIP3     21323    TIP3     H2       HT       0.417000       1.00800           0
     73886 TIP3     21324    TIP3     OH2      OT      -0.834000       15.9994           0
     73887 TIP3     21324    TIP3     H1       HT       0.417000       1.00800           0
     73888 TIP3     21324    TIP3     H2       HT       0.417000       1.00800           0
     73889 TIP3     21325    TIP3     OH2      OT      -0.834000       15.9994           0
     73890 TIP3     21325    TIP3     H1       HT       0.417000       1.00800           0
     73891 TIP3     21325    TIP3     H2       HT       0.417000       1.00800           0
     73892 TIP3     21326    TIP3     OH2      OT      -0.834000       15.9994           0
     73893 TIP3     21326    TIP3     H1       HT       0.417000       1.00800           0
     73894 TIP3     21326    TIP3     H2       HT       0.417000       1.00800           0
     73895 TIP3     21327    TIP3     OH2      OT      -0.834000       15.9994           0
     73896 TIP3     21327    TIP3     H1       HT       0.417000       1.00800           0
     73897 TIP3     21327    TIP3     H2       HT       0.417000       1.00800           0
     73898 TIP3     21328    TIP3     OH2      OT      -0.834000       15.9994           0
     73899 TIP3     21328    TIP3     H1       HT       0.417000       1.00800           0
     73900 TIP3     21328    TIP3     H2       HT       0.417000       1.00800           0
     73901 TIP3     21329    TIP3     OH2      OT      -0.834000       15.9994           0
     73902 TIP3     21329    TIP3     H1       HT       0.417000       1.00800           0
     73903 TIP3     21329    TIP3     H2       HT       0.417000       1.00800           0
     73904 TIP3     21330    TIP3     OH2      OT      -0.834000       15.9994           0
     73905 TIP3     21330    TIP3     H1       HT       0.417000       1.00800           0
     73906 TIP3     21330    TIP3     H2       HT       0.417000       1.00800           0
     73907 TIP3     21331    TIP3     OH2      OT      -0.834000       15.9994           0
     73908 TIP3     21331    TIP3     H1       HT       0.417000       1.00800           0
     73909 TIP3     21331    TIP3     H2       HT       0.417000       1.00800           0
     73910 TIP3     21332    TIP3     OH2      OT      -0.834000       15.9994           0
     73911 TIP3     21332    TIP3     H1       HT       0.417000       1.00800           0
     73912 TIP3     21332    TIP3     H2       HT       0.417000       1.00800           0
     73913 TIP3     21333    TIP3     OH2      OT      -0.834000       15.9994           0
     73914 TIP3     21333    TIP3     H1       HT       0.417000       1.00800           0
     73915 TIP3     21333    TIP3     H2       HT       0.417000       1.00800           0
     73916 TIP3     21334    TIP3     OH2      OT      -0.834000       15.9994           0
     73917 TIP3     21334    TIP3     H1       HT       0.417000       1.00800           0
     73918 TIP3     21334    TIP3     H2       HT       0.417000       1.00800           0
     73919 TIP3     21335    TIP3     OH2      OT      -0.834000       15.9994           0
     73920 TIP3     21335    TIP3     H1       HT       0.417000       1.00800           0
     73921 TIP3     21335    TIP3     H2       HT       0.417000       1.00800           0
     73922 TIP3     21336    TIP3     OH2      OT      -0.834000       15.9994           0
     73923 TIP3     21336    TIP3     H1       HT       0.417000       1.00800           0
     73924 TIP3     21336    TIP3     H2       HT       0.417000       1.00800           0
     73925 TIP3     21337    TIP3     OH2      OT      -0.834000       15.9994           0
     73926 TIP3     21337    TIP3     H1       HT       0.417000       1.00800           0
     73927 TIP3     21337    TIP3     H2       HT       0.417000       1.00800           0
     73928 TIP3     21338    TIP3     OH2      OT      -0.834000       15.9994           0
     73929 TIP3     21338    TIP3     H1       HT       0.417000       1.00800           0
     73930 TIP3     21338    TIP3     H2       HT       0.417000       1.00800           0
     73931 TIP3     21339    TIP3     OH2      OT      -0.834000       15.9994           0
     73932 TIP3     21339    TIP3     H1       HT       0.417000       1.00800           0
     73933 TIP3     21339    TIP3     H2       HT       0.417000       1.00800           0
     73934 TIP3     21340    TIP3     OH2      OT      -0.834000       15.9994           0
     73935 TIP3     21340    TIP3     H1       HT       0.417000       1.00800           0
     73936 TIP3     21340    TIP3     H2       HT       0.417000       1.00800           0
     73937 TIP3     21341    TIP3     OH2      OT      -0.834000       15.9994           0
     73938 TIP3     21341    TIP3     H1       HT       0.417000       1.00800           0
     73939 TIP3     21341    TIP3     H2       HT       0.417000       1.00800           0
     73940 TIP3     21342    TIP3     OH2      OT      -0.834000       15.9994           0
     73941 TIP3     21342    TIP3     H1       HT       0.417000       1.00800           0
     73942 TIP3     21342    TIP3     H2       HT       0.417000       1.00800           0
     73943 TIP3     21343    TIP3     OH2      OT      -0.834000       15.9994           0
     73944 TIP3     21343    TIP3     H1       HT       0.417000       1.00800           0
     73945 TIP3     21343    TIP3     H2       HT       0.417000       1.00800           0
     73946 TIP3     21344    TIP3     OH2      OT      -0.834000       15.9994           0
     73947 TIP3     21344    TIP3     H1       HT       0.417000       1.00800           0
     73948 TIP3     21344    TIP3     H2       HT       0.417000       1.00800           0
     73949 TIP3     21345    TIP3     OH2      OT      -0.834000       15.9994           0
     73950 TIP3     21345    TIP3     H1       HT       0.417000       1.00800           0
     73951 TIP3     21345    TIP3     H2       HT       0.417000       1.00800           0
     73952 TIP3     21346    TIP3     OH2      OT      -0.834000       15.9994           0
     73953 TIP3     21346    TIP3     H1       HT       0.417000       1.00800           0
     73954 TIP3     21346    TIP3     H2       HT       0.417000       1.00800           0
     73955 TIP3     21347    TIP3     OH2      OT      -0.834000       15.9994           0
     73956 TIP3     21347    TIP3     H1       HT       0.417000       1.00800           0
     73957 TIP3     21347    TIP3     H2       HT       0.417000       1.00800           0
     73958 TIP3     21348    TIP3     OH2      OT      -0.834000       15.9994           0
     73959 TIP3     21348    TIP3     H1       HT       0.417000       1.00800           0
     73960 TIP3     21348    TIP3     H2       HT       0.417000       1.00800           0
     73961 TIP3     21349    TIP3     OH2      OT      -0.834000       15.9994           0
     73962 TIP3     21349    TIP3     H1       HT       0.417000       1.00800           0
     73963 TIP3     21349    TIP3     H2       HT       0.417000       1.00800           0
     73964 TIP3     21350    TIP3     OH2      OT      -0.834000       15.9994           0
     73965 TIP3     21350    TIP3     H1       HT       0.417000       1.00800           0
     73966 TIP3     21350    TIP3     H2       HT       0.417000       1.00800           0
     73967 TIP3     21351    TIP3     OH2      OT      -0.834000       15.9994           0
     73968 TIP3     21351    TIP3     H1       HT       0.417000       1.00800           0
     73969 TIP3     21351    TIP3     H2       HT       0.417000       1.00800           0
     73970 TIP3     21352    TIP3     OH2      OT      -0.834000       15.9994           0
     73971 TIP3     21352    TIP3     H1       HT       0.417000       1.00800           0
     73972 TIP3     21352    TIP3     H2       HT       0.417000       1.00800           0
     73973 TIP3     21353    TIP3     OH2      OT      -0.834000       15.9994           0
     73974 TIP3     21353    TIP3     H1       HT       0.417000       1.00800           0
     73975 TIP3     21353    TIP3     H2       HT       0.417000       1.00800           0
     73976 TIP3     21354    TIP3     OH2      OT      -0.834000       15.9994           0
     73977 TIP3     21354    TIP3     H1       HT       0.417000       1.00800           0
     73978 TIP3     21354    TIP3     H2       HT       0.417000       1.00800           0
     73979 TIP3     21355    TIP3     OH2      OT      -0.834000       15.9994           0
     73980 TIP3     21355    TIP3     H1       HT       0.417000       1.00800           0
     73981 TIP3     21355    TIP3     H2       HT       0.417000       1.00800           0
     73982 TIP3     21356    TIP3     OH2      OT      -0.834000       15.9994           0
     73983 TIP3     21356    TIP3     H1       HT       0.417000       1.00800           0
     73984 TIP3     21356    TIP3     H2       HT       0.417000       1.00800           0
     73985 TIP3     21357    TIP3     OH2      OT      -0.834000       15.9994           0
     73986 TIP3     21357    TIP3     H1       HT       0.417000       1.00800           0
     73987 TIP3     21357    TIP3     H2       HT       0.417000       1.00800           0
     73988 TIP3     21358    TIP3     OH2      OT      -0.834000       15.9994           0
     73989 TIP3     21358    TIP3     H1       HT       0.417000       1.00800           0
     73990 TIP3     21358    TIP3     H2       HT       0.417000       1.00800           0
     73991 TIP3     21359    TIP3     OH2      OT      -0.834000       15.9994           0
     73992 TIP3     21359    TIP3     H1       HT       0.417000       1.00800           0
     73993 TIP3     21359    TIP3     H2       HT       0.417000       1.00800           0
     73994 TIP3     21360    TIP3     OH2      OT      -0.834000       15.9994           0
     73995 TIP3     21360    TIP3     H1       HT       0.417000       1.00800           0
     73996 TIP3     21360    TIP3     H2       HT       0.417000       1.00800           0
     73997 TIP3     21361    TIP3     OH2      OT      -0.834000       15.9994           0
     73998 TIP3     21361    TIP3     H1       HT       0.417000       1.00800           0
     73999 TIP3     21361    TIP3     H2       HT       0.417000       1.00800           0
     74000 TIP3     21362    TIP3     OH2      OT      -0.834000       15.9994           0
     74001 TIP3     21362    TIP3     H1       HT       0.417000       1.00800           0
     74002 TIP3     21362    TIP3     H2       HT       0.417000       1.00800           0
     74003 TIP3     21363    TIP3     OH2      OT      -0.834000       15.9994           0
     74004 TIP3     21363    TIP3     H1       HT       0.417000       1.00800           0
     74005 TIP3     21363    TIP3     H2       HT       0.417000       1.00800           0
     74006 TIP3     21364    TIP3     OH2      OT      -0.834000       15.9994           0
     74007 TIP3     21364    TIP3     H1       HT       0.417000       1.00800           0
     74008 TIP3     21364    TIP3     H2       HT       0.417000       1.00800           0
     74009 TIP3     21365    TIP3     OH2      OT      -0.834000       15.9994           0
     74010 TIP3     21365    TIP3     H1       HT       0.417000       1.00800           0
     74011 TIP3     21365    TIP3     H2       HT       0.417000       1.00800           0
     74012 TIP3     21366    TIP3     OH2      OT      -0.834000       15.9994           0
     74013 TIP3     21366    TIP3     H1       HT       0.417000       1.00800           0
     74014 TIP3     21366    TIP3     H2       HT       0.417000       1.00800           0
     74015 TIP3     21367    TIP3     OH2      OT      -0.834000       15.9994           0
     74016 TIP3     21367    TIP3     H1       HT       0.417000       1.00800           0
     74017 TIP3     21367    TIP3     H2       HT       0.417000       1.00800           0
     74018 TIP3     21368    TIP3     OH2      OT      -0.834000       15.9994           0
     74019 TIP3     21368    TIP3     H1       HT       0.417000       1.00800           0
     74020 TIP3     21368    TIP3     H2       HT       0.417000       1.00800           0
     74021 TIP3     21369    TIP3     OH2      OT      -0.834000       15.9994           0
     74022 TIP3     21369    TIP3     H1       HT       0.417000       1.00800           0
     74023 TIP3     21369    TIP3     H2       HT       0.417000       1.00800           0
     74024 TIP3     21370    TIP3     OH2      OT      -0.834000       15.9994           0
     74025 TIP3     21370    TIP3     H1       HT       0.417000       1.00800           0
     74026 TIP3     21370    TIP3     H2       HT       0.417000       1.00800           0
     74027 TIP3     21371    TIP3     OH2      OT      -0.834000       15.9994           0
     74028 TIP3     21371    TIP3     H1       HT       0.417000       1.00800           0
     74029 TIP3     21371    TIP3     H2       HT       0.417000       1.00800           0
     74030 TIP3     21372    TIP3     OH2      OT      -0.834000       15.9994           0
     74031 TIP3     21372    TIP3     H1       HT       0.417000       1.00800           0
     74032 TIP3     21372    TIP3     H2       HT       0.417000       1.00800           0
     74033 TIP3     21373    TIP3     OH2      OT      -0.834000       15.9994           0
     74034 TIP3     21373    TIP3     H1       HT       0.417000       1.00800           0
     74035 TIP3     21373    TIP3     H2       HT       0.417000       1.00800           0
     74036 TIP3     21374    TIP3     OH2      OT      -0.834000       15.9994           0
     74037 TIP3     21374    TIP3     H1       HT       0.417000       1.00800           0
     74038 TIP3     21374    TIP3     H2       HT       0.417000       1.00800           0
     74039 TIP3     21375    TIP3     OH2      OT      -0.834000       15.9994           0
     74040 TIP3     21375    TIP3     H1       HT       0.417000       1.00800           0
     74041 TIP3     21375    TIP3     H2       HT       0.417000       1.00800           0
     74042 TIP3     21376    TIP3     OH2      OT      -0.834000       15.9994           0
     74043 TIP3     21376    TIP3     H1       HT       0.417000       1.00800           0
     74044 TIP3     21376    TIP3     H2       HT       0.417000       1.00800           0
     74045 TIP3     21377    TIP3     OH2      OT      -0.834000       15.9994           0
     74046 TIP3     21377    TIP3     H1       HT       0.417000       1.00800           0
     74047 TIP3     21377    TIP3     H2       HT       0.417000       1.00800           0
     74048 TIP3     21378    TIP3     OH2      OT      -0.834000       15.9994           0
     74049 TIP3     21378    TIP3     H1       HT       0.417000       1.00800           0
     74050 TIP3     21378    TIP3     H2       HT       0.417000       1.00800           0
     74051 TIP3     21379    TIP3     OH2      OT      -0.834000       15.9994           0
     74052 TIP3     21379    TIP3     H1       HT       0.417000       1.00800           0
     74053 TIP3     21379    TIP3     H2       HT       0.417000       1.00800           0
     74054 TIP3     21380    TIP3     OH2      OT      -0.834000       15.9994           0
     74055 TIP3     21380    TIP3     H1       HT       0.417000       1.00800           0
     74056 TIP3     21380    TIP3     H2       HT       0.417000       1.00800           0
     74057 TIP3     21381    TIP3     OH2      OT      -0.834000       15.9994           0
     74058 TIP3     21381    TIP3     H1       HT       0.417000       1.00800           0
     74059 TIP3     21381    TIP3     H2       HT       0.417000       1.00800           0
     74060 TIP3     21382    TIP3     OH2      OT      -0.834000       15.9994           0
     74061 TIP3     21382    TIP3     H1       HT       0.417000       1.00800           0
     74062 TIP3     21382    TIP3     H2       HT       0.417000       1.00800           0
     74063 TIP3     21383    TIP3     OH2      OT      -0.834000       15.9994           0
     74064 TIP3     21383    TIP3     H1       HT       0.417000       1.00800           0
     74065 TIP3     21383    TIP3     H2       HT       0.417000       1.00800           0
     74066 TIP3     21384    TIP3     OH2      OT      -0.834000       15.9994           0
     74067 TIP3     21384    TIP3     H1       HT       0.417000       1.00800           0
     74068 TIP3     21384    TIP3     H2       HT       0.417000       1.00800           0
     74069 TIP3     21385    TIP3     OH2      OT      -0.834000       15.9994           0
     74070 TIP3     21385    TIP3     H1       HT       0.417000       1.00800           0
     74071 TIP3     21385    TIP3     H2       HT       0.417000       1.00800           0
     74072 TIP3     21386    TIP3     OH2      OT      -0.834000       15.9994           0
     74073 TIP3     21386    TIP3     H1       HT       0.417000       1.00800           0
     74074 TIP3     21386    TIP3     H2       HT       0.417000       1.00800           0
     74075 TIP3     21387    TIP3     OH2      OT      -0.834000       15.9994           0
     74076 TIP3     21387    TIP3     H1       HT       0.417000       1.00800           0
     74077 TIP3     21387    TIP3     H2       HT       0.417000       1.00800           0
     74078 TIP3     21388    TIP3     OH2      OT      -0.834000       15.9994           0
     74079 TIP3     21388    TIP3     H1       HT       0.417000       1.00800           0
     74080 TIP3     21388    TIP3     H2       HT       0.417000       1.00800           0
     74081 TIP3     21389    TIP3     OH2      OT      -0.834000       15.9994           0
     74082 TIP3     21389    TIP3     H1       HT       0.417000       1.00800           0
     74083 TIP3     21389    TIP3     H2       HT       0.417000       1.00800           0
     74084 TIP3     21390    TIP3     OH2      OT      -0.834000       15.9994           0
     74085 TIP3     21390    TIP3     H1       HT       0.417000       1.00800           0
     74086 TIP3     21390    TIP3     H2       HT       0.417000       1.00800           0
     74087 TIP3     21391    TIP3     OH2      OT      -0.834000       15.9994           0
     74088 TIP3     21391    TIP3     H1       HT       0.417000       1.00800           0
     74089 TIP3     21391    TIP3     H2       HT       0.417000       1.00800           0
     74090 TIP3     21392    TIP3     OH2      OT      -0.834000       15.9994           0
     74091 TIP3     21392    TIP3     H1       HT       0.417000       1.00800           0
     74092 TIP3     21392    TIP3     H2       HT       0.417000       1.00800           0
     74093 TIP3     21393    TIP3     OH2      OT      -0.834000       15.9994           0
     74094 TIP3     21393    TIP3     H1       HT       0.417000       1.00800           0
     74095 TIP3     21393    TIP3     H2       HT       0.417000       1.00800           0
     74096 TIP3     21394    TIP3     OH2      OT      -0.834000       15.9994           0
     74097 TIP3     21394    TIP3     H1       HT       0.417000       1.00800           0
     74098 TIP3     21394    TIP3     H2       HT       0.417000       1.00800           0
     74099 TIP3     21395    TIP3     OH2      OT      -0.834000       15.9994           0
     74100 TIP3     21395    TIP3     H1       HT       0.417000       1.00800           0
     74101 TIP3     21395    TIP3     H2       HT       0.417000       1.00800           0
     74102 TIP3     21396    TIP3     OH2      OT      -0.834000       15.9994           0
     74103 TIP3     21396    TIP3     H1       HT       0.417000       1.00800           0
     74104 TIP3     21396    TIP3     H2       HT       0.417000       1.00800           0
     74105 TIP3     21397    TIP3     OH2      OT      -0.834000       15.9994           0
     74106 TIP3     21397    TIP3     H1       HT       0.417000       1.00800           0
     74107 TIP3     21397    TIP3     H2       HT       0.417000       1.00800           0
     74108 TIP3     21398    TIP3     OH2      OT      -0.834000       15.9994           0
     74109 TIP3     21398    TIP3     H1       HT       0.417000       1.00800           0
     74110 TIP3     21398    TIP3     H2       HT       0.417000       1.00800           0
     74111 TIP3     21399    TIP3     OH2      OT      -0.834000       15.9994           0
     74112 TIP3     21399    TIP3     H1       HT       0.417000       1.00800           0
     74113 TIP3     21399    TIP3     H2       HT       0.417000       1.00800           0
     74114 TIP3     21400    TIP3     OH2      OT      -0.834000       15.9994           0
     74115 TIP3     21400    TIP3     H1       HT       0.417000       1.00800           0
     74116 TIP3     21400    TIP3     H2       HT       0.417000       1.00800           0
     74117 TIP3     21401    TIP3     OH2      OT      -0.834000       15.9994           0
     74118 TIP3     21401    TIP3     H1       HT       0.417000       1.00800           0
     74119 TIP3     21401    TIP3     H2       HT       0.417000       1.00800           0
     74120 TIP3     21402    TIP3     OH2      OT      -0.834000       15.9994           0
     74121 TIP3     21402    TIP3     H1       HT       0.417000       1.00800           0
     74122 TIP3     21402    TIP3     H2       HT       0.417000       1.00800           0
     74123 TIP3     21403    TIP3     OH2      OT      -0.834000       15.9994           0
     74124 TIP3     21403    TIP3     H1       HT       0.417000       1.00800           0
     74125 TIP3     21403    TIP3     H2       HT       0.417000       1.00800           0
     74126 TIP3     21404    TIP3     OH2      OT      -0.834000       15.9994           0
     74127 TIP3     21404    TIP3     H1       HT       0.417000       1.00800           0
     74128 TIP3     21404    TIP3     H2       HT       0.417000       1.00800           0
     74129 TIP3     21405    TIP3     OH2      OT      -0.834000       15.9994           0
     74130 TIP3     21405    TIP3     H1       HT       0.417000       1.00800           0
     74131 TIP3     21405    TIP3     H2       HT       0.417000       1.00800           0
     74132 TIP3     21406    TIP3     OH2      OT      -0.834000       15.9994           0
     74133 TIP3     21406    TIP3     H1       HT       0.417000       1.00800           0
     74134 TIP3     21406    TIP3     H2       HT       0.417000       1.00800           0
     74135 TIP3     21407    TIP3     OH2      OT      -0.834000       15.9994           0
     74136 TIP3     21407    TIP3     H1       HT       0.417000       1.00800           0
     74137 TIP3     21407    TIP3     H2       HT       0.417000       1.00800           0
     74138 TIP3     21408    TIP3     OH2      OT      -0.834000       15.9994           0
     74139 TIP3     21408    TIP3     H1       HT       0.417000       1.00800           0
     74140 TIP3     21408    TIP3     H2       HT       0.417000       1.00800           0
     74141 TIP3     21409    TIP3     OH2      OT      -0.834000       15.9994           0
     74142 TIP3     21409    TIP3     H1       HT       0.417000       1.00800           0
     74143 TIP3     21409    TIP3     H2       HT       0.417000       1.00800           0
     74144 TIP3     21410    TIP3     OH2      OT      -0.834000       15.9994           0
     74145 TIP3     21410    TIP3     H1       HT       0.417000       1.00800           0
     74146 TIP3     21410    TIP3     H2       HT       0.417000       1.00800           0
     74147 TIP3     21411    TIP3     OH2      OT      -0.834000       15.9994           0
     74148 TIP3     21411    TIP3     H1       HT       0.417000       1.00800           0
     74149 TIP3     21411    TIP3     H2       HT       0.417000       1.00800           0
     74150 TIP3     21412    TIP3     OH2      OT      -0.834000       15.9994           0
     74151 TIP3     21412    TIP3     H1       HT       0.417000       1.00800           0
     74152 TIP3     21412    TIP3     H2       HT       0.417000       1.00800           0
     74153 TIP3     21413    TIP3     OH2      OT      -0.834000       15.9994           0
     74154 TIP3     21413    TIP3     H1       HT       0.417000       1.00800           0
     74155 TIP3     21413    TIP3     H2       HT       0.417000       1.00800           0
     74156 TIP3     21414    TIP3     OH2      OT      -0.834000       15.9994           0
     74157 TIP3     21414    TIP3     H1       HT       0.417000       1.00800           0
     74158 TIP3     21414    TIP3     H2       HT       0.417000       1.00800           0
     74159 TIP3     21415    TIP3     OH2      OT      -0.834000       15.9994           0
     74160 TIP3     21415    TIP3     H1       HT       0.417000       1.00800           0
     74161 TIP3     21415    TIP3     H2       HT       0.417000       1.00800           0
     74162 TIP3     21416    TIP3     OH2      OT      -0.834000       15.9994           0
     74163 TIP3     21416    TIP3     H1       HT       0.417000       1.00800           0
     74164 TIP3     21416    TIP3     H2       HT       0.417000       1.00800           0
     74165 TIP3     21417    TIP3     OH2      OT      -0.834000       15.9994           0
     74166 TIP3     21417    TIP3     H1       HT       0.417000       1.00800           0
     74167 TIP3     21417    TIP3     H2       HT       0.417000       1.00800           0
     74168 TIP3     21418    TIP3     OH2      OT      -0.834000       15.9994           0
     74169 TIP3     21418    TIP3     H1       HT       0.417000       1.00800           0
     74170 TIP3     21418    TIP3     H2       HT       0.417000       1.00800           0
     74171 TIP3     21419    TIP3     OH2      OT      -0.834000       15.9994           0
     74172 TIP3     21419    TIP3     H1       HT       0.417000       1.00800           0
     74173 TIP3     21419    TIP3     H2       HT       0.417000       1.00800           0
     74174 TIP3     21420    TIP3     OH2      OT      -0.834000       15.9994           0
     74175 TIP3     21420    TIP3     H1       HT       0.417000       1.00800           0
     74176 TIP3     21420    TIP3     H2       HT       0.417000       1.00800           0
     74177 TIP3     21421    TIP3     OH2      OT      -0.834000       15.9994           0
     74178 TIP3     21421    TIP3     H1       HT       0.417000       1.00800           0
     74179 TIP3     21421    TIP3     H2       HT       0.417000       1.00800           0
     74180 TIP3     21422    TIP3     OH2      OT      -0.834000       15.9994           0
     74181 TIP3     21422    TIP3     H1       HT       0.417000       1.00800           0
     74182 TIP3     21422    TIP3     H2       HT       0.417000       1.00800           0
     74183 TIP3     21423    TIP3     OH2      OT      -0.834000       15.9994           0
     74184 TIP3     21423    TIP3     H1       HT       0.417000       1.00800           0
     74185 TIP3     21423    TIP3     H2       HT       0.417000       1.00800           0
     74186 TIP3     21424    TIP3     OH2      OT      -0.834000       15.9994           0
     74187 TIP3     21424    TIP3     H1       HT       0.417000       1.00800           0
     74188 TIP3     21424    TIP3     H2       HT       0.417000       1.00800           0
     74189 TIP3     21425    TIP3     OH2      OT      -0.834000       15.9994           0
     74190 TIP3     21425    TIP3     H1       HT       0.417000       1.00800           0
     74191 TIP3     21425    TIP3     H2       HT       0.417000       1.00800           0
     74192 TIP3     21426    TIP3     OH2      OT      -0.834000       15.9994           0
     74193 TIP3     21426    TIP3     H1       HT       0.417000       1.00800           0
     74194 TIP3     21426    TIP3     H2       HT       0.417000       1.00800           0
     74195 TIP3     21427    TIP3     OH2      OT      -0.834000       15.9994           0
     74196 TIP3     21427    TIP3     H1       HT       0.417000       1.00800           0
     74197 TIP3     21427    TIP3     H2       HT       0.417000       1.00800           0
     74198 TIP3     21428    TIP3     OH2      OT      -0.834000       15.9994           0
     74199 TIP3     21428    TIP3     H1       HT       0.417000       1.00800           0
     74200 TIP3     21428    TIP3     H2       HT       0.417000       1.00800           0
     74201 TIP3     21429    TIP3     OH2      OT      -0.834000       15.9994           0
     74202 TIP3     21429    TIP3     H1       HT       0.417000       1.00800           0
     74203 TIP3     21429    TIP3     H2       HT       0.417000       1.00800           0
     74204 TIP3     21430    TIP3     OH2      OT      -0.834000       15.9994           0
     74205 TIP3     21430    TIP3     H1       HT       0.417000       1.00800           0
     74206 TIP3     21430    TIP3     H2       HT       0.417000       1.00800           0
     74207 TIP3     21431    TIP3     OH2      OT      -0.834000       15.9994           0
     74208 TIP3     21431    TIP3     H1       HT       0.417000       1.00800           0
     74209 TIP3     21431    TIP3     H2       HT       0.417000       1.00800           0
     74210 TIP3     21432    TIP3     OH2      OT      -0.834000       15.9994           0
     74211 TIP3     21432    TIP3     H1       HT       0.417000       1.00800           0
     74212 TIP3     21432    TIP3     H2       HT       0.417000       1.00800           0
     74213 TIP3     21433    TIP3     OH2      OT      -0.834000       15.9994           0
     74214 TIP3     21433    TIP3     H1       HT       0.417000       1.00800           0
     74215 TIP3     21433    TIP3     H2       HT       0.417000       1.00800           0
     74216 TIP3     21434    TIP3     OH2      OT      -0.834000       15.9994           0
     74217 TIP3     21434    TIP3     H1       HT       0.417000       1.00800           0
     74218 TIP3     21434    TIP3     H2       HT       0.417000       1.00800           0
     74219 TIP3     21435    TIP3     OH2      OT      -0.834000       15.9994           0
     74220 TIP3     21435    TIP3     H1       HT       0.417000       1.00800           0
     74221 TIP3     21435    TIP3     H2       HT       0.417000       1.00800           0
     74222 TIP3     21436    TIP3     OH2      OT      -0.834000       15.9994           0
     74223 TIP3     21436    TIP3     H1       HT       0.417000       1.00800           0
     74224 TIP3     21436    TIP3     H2       HT       0.417000       1.00800           0
     74225 TIP3     21437    TIP3     OH2      OT      -0.834000       15.9994           0
     74226 TIP3     21437    TIP3     H1       HT       0.417000       1.00800           0
     74227 TIP3     21437    TIP3     H2       HT       0.417000       1.00800           0
     74228 TIP3     21438    TIP3     OH2      OT      -0.834000       15.9994           0
     74229 TIP3     21438    TIP3     H1       HT       0.417000       1.00800           0
     74230 TIP3     21438    TIP3     H2       HT       0.417000       1.00800           0
     74231 TIP3     21439    TIP3     OH2      OT      -0.834000       15.9994           0
     74232 TIP3     21439    TIP3     H1       HT       0.417000       1.00800           0
     74233 TIP3     21439    TIP3     H2       HT       0.417000       1.00800           0
     74234 TIP3     21440    TIP3     OH2      OT      -0.834000       15.9994           0
     74235 TIP3     21440    TIP3     H1       HT       0.417000       1.00800           0
     74236 TIP3     21440    TIP3     H2       HT       0.417000       1.00800           0
     74237 TIP3     21441    TIP3     OH2      OT      -0.834000       15.9994           0
     74238 TIP3     21441    TIP3     H1       HT       0.417000       1.00800           0
     74239 TIP3     21441    TIP3     H2       HT       0.417000       1.00800           0
     74240 TIP3     21442    TIP3     OH2      OT      -0.834000       15.9994           0
     74241 TIP3     21442    TIP3     H1       HT       0.417000       1.00800           0
     74242 TIP3     21442    TIP3     H2       HT       0.417000       1.00800           0
     74243 TIP3     21443    TIP3     OH2      OT      -0.834000       15.9994           0
     74244 TIP3     21443    TIP3     H1       HT       0.417000       1.00800           0
     74245 TIP3     21443    TIP3     H2       HT       0.417000       1.00800           0
     74246 TIP3     21444    TIP3     OH2      OT      -0.834000       15.9994           0
     74247 TIP3     21444    TIP3     H1       HT       0.417000       1.00800           0
     74248 TIP3     21444    TIP3     H2       HT       0.417000       1.00800           0
     74249 TIP3     21445    TIP3     OH2      OT      -0.834000       15.9994           0
     74250 TIP3     21445    TIP3     H1       HT       0.417000       1.00800           0
     74251 TIP3     21445    TIP3     H2       HT       0.417000       1.00800           0
     74252 TIP3     21446    TIP3     OH2      OT      -0.834000       15.9994           0
     74253 TIP3     21446    TIP3     H1       HT       0.417000       1.00800           0
     74254 TIP3     21446    TIP3     H2       HT       0.417000       1.00800           0
     74255 TIP3     21447    TIP3     OH2      OT      -0.834000       15.9994           0
     74256 TIP3     21447    TIP3     H1       HT       0.417000       1.00800           0
     74257 TIP3     21447    TIP3     H2       HT       0.417000       1.00800           0
     74258 TIP3     21448    TIP3     OH2      OT      -0.834000       15.9994           0
     74259 TIP3     21448    TIP3     H1       HT       0.417000       1.00800           0
     74260 TIP3     21448    TIP3     H2       HT       0.417000       1.00800           0
     74261 TIP3     21449    TIP3     OH2      OT      -0.834000       15.9994           0
     74262 TIP3     21449    TIP3     H1       HT       0.417000       1.00800           0
     74263 TIP3     21449    TIP3     H2       HT       0.417000       1.00800           0
     74264 TIP3     21450    TIP3     OH2      OT      -0.834000       15.9994           0
     74265 TIP3     21450    TIP3     H1       HT       0.417000       1.00800           0
     74266 TIP3     21450    TIP3     H2       HT       0.417000       1.00800           0
     74267 TIP3     21451    TIP3     OH2      OT      -0.834000       15.9994           0
     74268 TIP3     21451    TIP3     H1       HT       0.417000       1.00800           0
     74269 TIP3     21451    TIP3     H2       HT       0.417000       1.00800           0
     74270 TIP3     21452    TIP3     OH2      OT      -0.834000       15.9994           0
     74271 TIP3     21452    TIP3     H1       HT       0.417000       1.00800           0
     74272 TIP3     21452    TIP3     H2       HT       0.417000       1.00800           0
     74273 TIP3     21453    TIP3     OH2      OT      -0.834000       15.9994           0
     74274 TIP3     21453    TIP3     H1       HT       0.417000       1.00800           0
     74275 TIP3     21453    TIP3     H2       HT       0.417000       1.00800           0
     74276 TIP3     21454    TIP3     OH2      OT      -0.834000       15.9994           0
     74277 TIP3     21454    TIP3     H1       HT       0.417000       1.00800           0
     74278 TIP3     21454    TIP3     H2       HT       0.417000       1.00800           0
     74279 TIP3     21455    TIP3     OH2      OT      -0.834000       15.9994           0
     74280 TIP3     21455    TIP3     H1       HT       0.417000       1.00800           0
     74281 TIP3     21455    TIP3     H2       HT       0.417000       1.00800           0
     74282 TIP3     21456    TIP3     OH2      OT      -0.834000       15.9994           0
     74283 TIP3     21456    TIP3     H1       HT       0.417000       1.00800           0
     74284 TIP3     21456    TIP3     H2       HT       0.417000       1.00800           0
     74285 TIP3     21457    TIP3     OH2      OT      -0.834000       15.9994           0
     74286 TIP3     21457    TIP3     H1       HT       0.417000       1.00800           0
     74287 TIP3     21457    TIP3     H2       HT       0.417000       1.00800           0
     74288 TIP3     21458    TIP3     OH2      OT      -0.834000       15.9994           0
     74289 TIP3     21458    TIP3     H1       HT       0.417000       1.00800           0
     74290 TIP3     21458    TIP3     H2       HT       0.417000       1.00800           0
     74291 TIP3     21459    TIP3     OH2      OT      -0.834000       15.9994           0
     74292 TIP3     21459    TIP3     H1       HT       0.417000       1.00800           0
     74293 TIP3     21459    TIP3     H2       HT       0.417000       1.00800           0
     74294 TIP3     21460    TIP3     OH2      OT      -0.834000       15.9994           0
     74295 TIP3     21460    TIP3     H1       HT       0.417000       1.00800           0
     74296 TIP3     21460    TIP3     H2       HT       0.417000       1.00800           0
     74297 TIP3     21461    TIP3     OH2      OT      -0.834000       15.9994           0
     74298 TIP3     21461    TIP3     H1       HT       0.417000       1.00800           0
     74299 TIP3     21461    TIP3     H2       HT       0.417000       1.00800           0
     74300 TIP3     21462    TIP3     OH2      OT      -0.834000       15.9994           0
     74301 TIP3     21462    TIP3     H1       HT       0.417000       1.00800           0
     74302 TIP3     21462    TIP3     H2       HT       0.417000       1.00800           0
     74303 TIP3     21463    TIP3     OH2      OT      -0.834000       15.9994           0
     74304 TIP3     21463    TIP3     H1       HT       0.417000       1.00800           0
     74305 TIP3     21463    TIP3     H2       HT       0.417000       1.00800           0
     74306 TIP3     21464    TIP3     OH2      OT      -0.834000       15.9994           0
     74307 TIP3     21464    TIP3     H1       HT       0.417000       1.00800           0
     74308 TIP3     21464    TIP3     H2       HT       0.417000       1.00800           0
     74309 TIP3     21465    TIP3     OH2      OT      -0.834000       15.9994           0
     74310 TIP3     21465    TIP3     H1       HT       0.417000       1.00800           0
     74311 TIP3     21465    TIP3     H2       HT       0.417000       1.00800           0
     74312 TIP3     21466    TIP3     OH2      OT      -0.834000       15.9994           0
     74313 TIP3     21466    TIP3     H1       HT       0.417000       1.00800           0
     74314 TIP3     21466    TIP3     H2       HT       0.417000       1.00800           0
     74315 TIP3     21467    TIP3     OH2      OT      -0.834000       15.9994           0
     74316 TIP3     21467    TIP3     H1       HT       0.417000       1.00800           0
     74317 TIP3     21467    TIP3     H2       HT       0.417000       1.00800           0
     74318 TIP3     21468    TIP3     OH2      OT      -0.834000       15.9994           0
     74319 TIP3     21468    TIP3     H1       HT       0.417000       1.00800           0
     74320 TIP3     21468    TIP3     H2       HT       0.417000       1.00800           0
     74321 TIP3     21469    TIP3     OH2      OT      -0.834000       15.9994           0
     74322 TIP3     21469    TIP3     H1       HT       0.417000       1.00800           0
     74323 TIP3     21469    TIP3     H2       HT       0.417000       1.00800           0
     74324 TIP3     21470    TIP3     OH2      OT      -0.834000       15.9994           0
     74325 TIP3     21470    TIP3     H1       HT       0.417000       1.00800           0
     74326 TIP3     21470    TIP3     H2       HT       0.417000       1.00800           0
     74327 TIP3     21471    TIP3     OH2      OT      -0.834000       15.9994           0
     74328 TIP3     21471    TIP3     H1       HT       0.417000       1.00800           0
     74329 TIP3     21471    TIP3     H2       HT       0.417000       1.00800           0
     74330 TIP3     21472    TIP3     OH2      OT      -0.834000       15.9994           0
     74331 TIP3     21472    TIP3     H1       HT       0.417000       1.00800           0
     74332 TIP3     21472    TIP3     H2       HT       0.417000       1.00800           0
     74333 TIP3     21473    TIP3     OH2      OT      -0.834000       15.9994           0
     74334 TIP3     21473    TIP3     H1       HT       0.417000       1.00800           0
     74335 TIP3     21473    TIP3     H2       HT       0.417000       1.00800           0
     74336 TIP3     21474    TIP3     OH2      OT      -0.834000       15.9994           0
     74337 TIP3     21474    TIP3     H1       HT       0.417000       1.00800           0
     74338 TIP3     21474    TIP3     H2       HT       0.417000       1.00800           0
     74339 TIP3     21475    TIP3     OH2      OT      -0.834000       15.9994           0
     74340 TIP3     21475    TIP3     H1       HT       0.417000       1.00800           0
     74341 TIP3     21475    TIP3     H2       HT       0.417000       1.00800           0
     74342 TIP3     21476    TIP3     OH2      OT      -0.834000       15.9994           0
     74343 TIP3     21476    TIP3     H1       HT       0.417000       1.00800           0
     74344 TIP3     21476    TIP3     H2       HT       0.417000       1.00800           0
     74345 TIP3     21477    TIP3     OH2      OT      -0.834000       15.9994           0
     74346 TIP3     21477    TIP3     H1       HT       0.417000       1.00800           0
     74347 TIP3     21477    TIP3     H2       HT       0.417000       1.00800           0
     74348 TIP3     21478    TIP3     OH2      OT      -0.834000       15.9994           0
     74349 TIP3     21478    TIP3     H1       HT       0.417000       1.00800           0
     74350 TIP3     21478    TIP3     H2       HT       0.417000       1.00800           0
     74351 TIP3     21479    TIP3     OH2      OT      -0.834000       15.9994           0
     74352 TIP3     21479    TIP3     H1       HT       0.417000       1.00800           0
     74353 TIP3     21479    TIP3     H2       HT       0.417000       1.00800           0
     74354 TIP3     21480    TIP3     OH2      OT      -0.834000       15.9994           0
     74355 TIP3     21480    TIP3     H1       HT       0.417000       1.00800           0
     74356 TIP3     21480    TIP3     H2       HT       0.417000       1.00800           0
     74357 TIP3     21481    TIP3     OH2      OT      -0.834000       15.9994           0
     74358 TIP3     21481    TIP3     H1       HT       0.417000       1.00800           0
     74359 TIP3     21481    TIP3     H2       HT       0.417000       1.00800           0
     74360 TIP3     21482    TIP3     OH2      OT      -0.834000       15.9994           0
     74361 TIP3     21482    TIP3     H1       HT       0.417000       1.00800           0
     74362 TIP3     21482    TIP3     H2       HT       0.417000       1.00800           0
     74363 TIP3     21483    TIP3     OH2      OT      -0.834000       15.9994           0
     74364 TIP3     21483    TIP3     H1       HT       0.417000       1.00800           0
     74365 TIP3     21483    TIP3     H2       HT       0.417000       1.00800           0
     74366 TIP3     21484    TIP3     OH2      OT      -0.834000       15.9994           0
     74367 TIP3     21484    TIP3     H1       HT       0.417000       1.00800           0
     74368 TIP3     21484    TIP3     H2       HT       0.417000       1.00800           0
     74369 TIP3     21485    TIP3     OH2      OT      -0.834000       15.9994           0
     74370 TIP3     21485    TIP3     H1       HT       0.417000       1.00800           0
     74371 TIP3     21485    TIP3     H2       HT       0.417000       1.00800           0
     74372 TIP3     21486    TIP3     OH2      OT      -0.834000       15.9994           0
     74373 TIP3     21486    TIP3     H1       HT       0.417000       1.00800           0
     74374 TIP3     21486    TIP3     H2       HT       0.417000       1.00800           0
     74375 TIP3     21487    TIP3     OH2      OT      -0.834000       15.9994           0
     74376 TIP3     21487    TIP3     H1       HT       0.417000       1.00800           0
     74377 TIP3     21487    TIP3     H2       HT       0.417000       1.00800           0
     74378 TIP3     21488    TIP3     OH2      OT      -0.834000       15.9994           0
     74379 TIP3     21488    TIP3     H1       HT       0.417000       1.00800           0
     74380 TIP3     21488    TIP3     H2       HT       0.417000       1.00800           0
     74381 TIP3     21489    TIP3     OH2      OT      -0.834000       15.9994           0
     74382 TIP3     21489    TIP3     H1       HT       0.417000       1.00800           0
     74383 TIP3     21489    TIP3     H2       HT       0.417000       1.00800           0
     74384 TIP3     21490    TIP3     OH2      OT      -0.834000       15.9994           0
     74385 TIP3     21490    TIP3     H1       HT       0.417000       1.00800           0
     74386 TIP3     21490    TIP3     H2       HT       0.417000       1.00800           0
     74387 TIP3     21491    TIP3     OH2      OT      -0.834000       15.9994           0
     74388 TIP3     21491    TIP3     H1       HT       0.417000       1.00800           0
     74389 TIP3     21491    TIP3     H2       HT       0.417000       1.00800           0
     74390 TIP3     21492    TIP3     OH2      OT      -0.834000       15.9994           0
     74391 TIP3     21492    TIP3     H1       HT       0.417000       1.00800           0
     74392 TIP3     21492    TIP3     H2       HT       0.417000       1.00800           0
     74393 TIP3     21493    TIP3     OH2      OT      -0.834000       15.9994           0
     74394 TIP3     21493    TIP3     H1       HT       0.417000       1.00800           0
     74395 TIP3     21493    TIP3     H2       HT       0.417000       1.00800           0
     74396 TIP3     21494    TIP3     OH2      OT      -0.834000       15.9994           0
     74397 TIP3     21494    TIP3     H1       HT       0.417000       1.00800           0
     74398 TIP3     21494    TIP3     H2       HT       0.417000       1.00800           0
     74399 TIP3     21495    TIP3     OH2      OT      -0.834000       15.9994           0
     74400 TIP3     21495    TIP3     H1       HT       0.417000       1.00800           0
     74401 TIP3     21495    TIP3     H2       HT       0.417000       1.00800           0
     74402 TIP3     21496    TIP3     OH2      OT      -0.834000       15.9994           0
     74403 TIP3     21496    TIP3     H1       HT       0.417000       1.00800           0
     74404 TIP3     21496    TIP3     H2       HT       0.417000       1.00800           0
     74405 TIP3     21497    TIP3     OH2      OT      -0.834000       15.9994           0
     74406 TIP3     21497    TIP3     H1       HT       0.417000       1.00800           0
     74407 TIP3     21497    TIP3     H2       HT       0.417000       1.00800           0
     74408 TIP3     21498    TIP3     OH2      OT      -0.834000       15.9994           0
     74409 TIP3     21498    TIP3     H1       HT       0.417000       1.00800           0
     74410 TIP3     21498    TIP3     H2       HT       0.417000       1.00800           0
     74411 TIP3     21499    TIP3     OH2      OT      -0.834000       15.9994           0
     74412 TIP3     21499    TIP3     H1       HT       0.417000       1.00800           0
     74413 TIP3     21499    TIP3     H2       HT       0.417000       1.00800           0
     74414 TIP3     21500    TIP3     OH2      OT      -0.834000       15.9994           0
     74415 TIP3     21500    TIP3     H1       HT       0.417000       1.00800           0
     74416 TIP3     21500    TIP3     H2       HT       0.417000       1.00800           0
     74417 TIP3     21501    TIP3     OH2      OT      -0.834000       15.9994           0
     74418 TIP3     21501    TIP3     H1       HT       0.417000       1.00800           0
     74419 TIP3     21501    TIP3     H2       HT       0.417000       1.00800           0
     74420 TIP3     21502    TIP3     OH2      OT      -0.834000       15.9994           0
     74421 TIP3     21502    TIP3     H1       HT       0.417000       1.00800           0
     74422 TIP3     21502    TIP3     H2       HT       0.417000       1.00800           0
     74423 TIP3     21503    TIP3     OH2      OT      -0.834000       15.9994           0
     74424 TIP3     21503    TIP3     H1       HT       0.417000       1.00800           0
     74425 TIP3     21503    TIP3     H2       HT       0.417000       1.00800           0
     74426 TIP3     21504    TIP3     OH2      OT      -0.834000       15.9994           0
     74427 TIP3     21504    TIP3     H1       HT       0.417000       1.00800           0
     74428 TIP3     21504    TIP3     H2       HT       0.417000       1.00800           0
     74429 TIP3     21505    TIP3     OH2      OT      -0.834000       15.9994           0
     74430 TIP3     21505    TIP3     H1       HT       0.417000       1.00800           0
     74431 TIP3     21505    TIP3     H2       HT       0.417000       1.00800           0
     74432 TIP3     21506    TIP3     OH2      OT      -0.834000       15.9994           0
     74433 TIP3     21506    TIP3     H1       HT       0.417000       1.00800           0
     74434 TIP3     21506    TIP3     H2       HT       0.417000       1.00800           0
     74435 TIP3     21507    TIP3     OH2      OT      -0.834000       15.9994           0
     74436 TIP3     21507    TIP3     H1       HT       0.417000       1.00800           0
     74437 TIP3     21507    TIP3     H2       HT       0.417000       1.00800           0
     74438 TIP3     21508    TIP3     OH2      OT      -0.834000       15.9994           0
     74439 TIP3     21508    TIP3     H1       HT       0.417000       1.00800           0
     74440 TIP3     21508    TIP3     H2       HT       0.417000       1.00800           0
     74441 TIP3     21509    TIP3     OH2      OT      -0.834000       15.9994           0
     74442 TIP3     21509    TIP3     H1       HT       0.417000       1.00800           0
     74443 TIP3     21509    TIP3     H2       HT       0.417000       1.00800           0
     74444 TIP3     21510    TIP3     OH2      OT      -0.834000       15.9994           0
     74445 TIP3     21510    TIP3     H1       HT       0.417000       1.00800           0
     74446 TIP3     21510    TIP3     H2       HT       0.417000       1.00800           0
     74447 TIP3     21511    TIP3     OH2      OT      -0.834000       15.9994           0
     74448 TIP3     21511    TIP3     H1       HT       0.417000       1.00800           0
     74449 TIP3     21511    TIP3     H2       HT       0.417000       1.00800           0
     74450 TIP3     21512    TIP3     OH2      OT      -0.834000       15.9994           0
     74451 TIP3     21512    TIP3     H1       HT       0.417000       1.00800           0
     74452 TIP3     21512    TIP3     H2       HT       0.417000       1.00800           0
     74453 TIP3     21513    TIP3     OH2      OT      -0.834000       15.9994           0
     74454 TIP3     21513    TIP3     H1       HT       0.417000       1.00800           0
     74455 TIP3     21513    TIP3     H2       HT       0.417000       1.00800           0
     74456 TIP3     21514    TIP3     OH2      OT      -0.834000       15.9994           0
     74457 TIP3     21514    TIP3     H1       HT       0.417000       1.00800           0
     74458 TIP3     21514    TIP3     H2       HT       0.417000       1.00800           0
     74459 TIP3     21515    TIP3     OH2      OT      -0.834000       15.9994           0
     74460 TIP3     21515    TIP3     H1       HT       0.417000       1.00800           0
     74461 TIP3     21515    TIP3     H2       HT       0.417000       1.00800           0
     74462 TIP3     21516    TIP3     OH2      OT      -0.834000       15.9994           0
     74463 TIP3     21516    TIP3     H1       HT       0.417000       1.00800           0
     74464 TIP3     21516    TIP3     H2       HT       0.417000       1.00800           0
     74465 TIP3     21517    TIP3     OH2      OT      -0.834000       15.9994           0
     74466 TIP3     21517    TIP3     H1       HT       0.417000       1.00800           0
     74467 TIP3     21517    TIP3     H2       HT       0.417000       1.00800           0
     74468 TIP3     21518    TIP3     OH2      OT      -0.834000       15.9994           0
     74469 TIP3     21518    TIP3     H1       HT       0.417000       1.00800           0
     74470 TIP3     21518    TIP3     H2       HT       0.417000       1.00800           0
     74471 TIP3     21519    TIP3     OH2      OT      -0.834000       15.9994           0
     74472 TIP3     21519    TIP3     H1       HT       0.417000       1.00800           0
     74473 TIP3     21519    TIP3     H2       HT       0.417000       1.00800           0
     74474 TIP3     21520    TIP3     OH2      OT      -0.834000       15.9994           0
     74475 TIP3     21520    TIP3     H1       HT       0.417000       1.00800           0
     74476 TIP3     21520    TIP3     H2       HT       0.417000       1.00800           0
     74477 TIP3     21521    TIP3     OH2      OT      -0.834000       15.9994           0
     74478 TIP3     21521    TIP3     H1       HT       0.417000       1.00800           0
     74479 TIP3     21521    TIP3     H2       HT       0.417000       1.00800           0
     74480 TIP3     21522    TIP3     OH2      OT      -0.834000       15.9994           0
     74481 TIP3     21522    TIP3     H1       HT       0.417000       1.00800           0
     74482 TIP3     21522    TIP3     H2       HT       0.417000       1.00800           0
     74483 TIP3     21523    TIP3     OH2      OT      -0.834000       15.9994           0
     74484 TIP3     21523    TIP3     H1       HT       0.417000       1.00800           0
     74485 TIP3     21523    TIP3     H2       HT       0.417000       1.00800           0
     74486 TIP3     21524    TIP3     OH2      OT      -0.834000       15.9994           0
     74487 TIP3     21524    TIP3     H1       HT       0.417000       1.00800           0
     74488 TIP3     21524    TIP3     H2       HT       0.417000       1.00800           0
     74489 TIP3     21525    TIP3     OH2      OT      -0.834000       15.9994           0
     74490 TIP3     21525    TIP3     H1       HT       0.417000       1.00800           0
     74491 TIP3     21525    TIP3     H2       HT       0.417000       1.00800           0
     74492 TIP3     21526    TIP3     OH2      OT      -0.834000       15.9994           0
     74493 TIP3     21526    TIP3     H1       HT       0.417000       1.00800           0
     74494 TIP3     21526    TIP3     H2       HT       0.417000       1.00800           0
     74495 TIP3     21527    TIP3     OH2      OT      -0.834000       15.9994           0
     74496 TIP3     21527    TIP3     H1       HT       0.417000       1.00800           0
     74497 TIP3     21527    TIP3     H2       HT       0.417000       1.00800           0
     74498 TIP3     21528    TIP3     OH2      OT      -0.834000       15.9994           0
     74499 TIP3     21528    TIP3     H1       HT       0.417000       1.00800           0
     74500 TIP3     21528    TIP3     H2       HT       0.417000       1.00800           0
     74501 TIP3     21529    TIP3     OH2      OT      -0.834000       15.9994           0
     74502 TIP3     21529    TIP3     H1       HT       0.417000       1.00800           0
     74503 TIP3     21529    TIP3     H2       HT       0.417000       1.00800           0
     74504 TIP3     21530    TIP3     OH2      OT      -0.834000       15.9994           0
     74505 TIP3     21530    TIP3     H1       HT       0.417000       1.00800           0
     74506 TIP3     21530    TIP3     H2       HT       0.417000       1.00800           0
     74507 TIP3     21531    TIP3     OH2      OT      -0.834000       15.9994           0
     74508 TIP3     21531    TIP3     H1       HT       0.417000       1.00800           0
     74509 TIP3     21531    TIP3     H2       HT       0.417000       1.00800           0
     74510 TIP3     21532    TIP3     OH2      OT      -0.834000       15.9994           0
     74511 TIP3     21532    TIP3     H1       HT       0.417000       1.00800           0
     74512 TIP3     21532    TIP3     H2       HT       0.417000       1.00800           0
     74513 TIP3     21533    TIP3     OH2      OT      -0.834000       15.9994           0
     74514 TIP3     21533    TIP3     H1       HT       0.417000       1.00800           0
     74515 TIP3     21533    TIP3     H2       HT       0.417000       1.00800           0
     74516 TIP3     21534    TIP3     OH2      OT      -0.834000       15.9994           0
     74517 TIP3     21534    TIP3     H1       HT       0.417000       1.00800           0
     74518 TIP3     21534    TIP3     H2       HT       0.417000       1.00800           0
     74519 TIP3     21535    TIP3     OH2      OT      -0.834000       15.9994           0
     74520 TIP3     21535    TIP3     H1       HT       0.417000       1.00800           0
     74521 TIP3     21535    TIP3     H2       HT       0.417000       1.00800           0
     74522 TIP3     21536    TIP3     OH2      OT      -0.834000       15.9994           0
     74523 TIP3     21536    TIP3     H1       HT       0.417000       1.00800           0
     74524 TIP3     21536    TIP3     H2       HT       0.417000       1.00800           0
     74525 TIP3     21537    TIP3     OH2      OT      -0.834000       15.9994           0
     74526 TIP3     21537    TIP3     H1       HT       0.417000       1.00800           0
     74527 TIP3     21537    TIP3     H2       HT       0.417000       1.00800           0
     74528 TIP3     21538    TIP3     OH2      OT      -0.834000       15.9994           0
     74529 TIP3     21538    TIP3     H1       HT       0.417000       1.00800           0
     74530 TIP3     21538    TIP3     H2       HT       0.417000       1.00800           0
     74531 TIP3     21539    TIP3     OH2      OT      -0.834000       15.9994           0
     74532 TIP3     21539    TIP3     H1       HT       0.417000       1.00800           0
     74533 TIP3     21539    TIP3     H2       HT       0.417000       1.00800           0
     74534 TIP3     21540    TIP3     OH2      OT      -0.834000       15.9994           0
     74535 TIP3     21540    TIP3     H1       HT       0.417000       1.00800           0
     74536 TIP3     21540    TIP3     H2       HT       0.417000       1.00800           0
     74537 TIP3     21541    TIP3     OH2      OT      -0.834000       15.9994           0
     74538 TIP3     21541    TIP3     H1       HT       0.417000       1.00800           0
     74539 TIP3     21541    TIP3     H2       HT       0.417000       1.00800           0
     74540 TIP3     21542    TIP3     OH2      OT      -0.834000       15.9994           0
     74541 TIP3     21542    TIP3     H1       HT       0.417000       1.00800           0
     74542 TIP3     21542    TIP3     H2       HT       0.417000       1.00800           0
     74543 TIP3     21543    TIP3     OH2      OT      -0.834000       15.9994           0
     74544 TIP3     21543    TIP3     H1       HT       0.417000       1.00800           0
     74545 TIP3     21543    TIP3     H2       HT       0.417000       1.00800           0
     74546 TIP3     21544    TIP3     OH2      OT      -0.834000       15.9994           0
     74547 TIP3     21544    TIP3     H1       HT       0.417000       1.00800           0
     74548 TIP3     21544    TIP3     H2       HT       0.417000       1.00800           0
     74549 TIP3     21545    TIP3     OH2      OT      -0.834000       15.9994           0
     74550 TIP3     21545    TIP3     H1       HT       0.417000       1.00800           0
     74551 TIP3     21545    TIP3     H2       HT       0.417000       1.00800           0
     74552 TIP3     21546    TIP3     OH2      OT      -0.834000       15.9994           0
     74553 TIP3     21546    TIP3     H1       HT       0.417000       1.00800           0
     74554 TIP3     21546    TIP3     H2       HT       0.417000       1.00800           0
     74555 TIP3     21547    TIP3     OH2      OT      -0.834000       15.9994           0
     74556 TIP3     21547    TIP3     H1       HT       0.417000       1.00800           0
     74557 TIP3     21547    TIP3     H2       HT       0.417000       1.00800           0
     74558 TIP3     21548    TIP3     OH2      OT      -0.834000       15.9994           0
     74559 TIP3     21548    TIP3     H1       HT       0.417000       1.00800           0
     74560 TIP3     21548    TIP3     H2       HT       0.417000       1.00800           0
     74561 TIP3     21549    TIP3     OH2      OT      -0.834000       15.9994           0
     74562 TIP3     21549    TIP3     H1       HT       0.417000       1.00800           0
     74563 TIP3     21549    TIP3     H2       HT       0.417000       1.00800           0
     74564 TIP3     21550    TIP3     OH2      OT      -0.834000       15.9994           0
     74565 TIP3     21550    TIP3     H1       HT       0.417000       1.00800           0
     74566 TIP3     21550    TIP3     H2       HT       0.417000       1.00800           0
     74567 TIP3     21551    TIP3     OH2      OT      -0.834000       15.9994           0
     74568 TIP3     21551    TIP3     H1       HT       0.417000       1.00800           0
     74569 TIP3     21551    TIP3     H2       HT       0.417000       1.00800           0
     74570 TIP3     21552    TIP3     OH2      OT      -0.834000       15.9994           0
     74571 TIP3     21552    TIP3     H1       HT       0.417000       1.00800           0
     74572 TIP3     21552    TIP3     H2       HT       0.417000       1.00800           0
     74573 TIP3     21553    TIP3     OH2      OT      -0.834000       15.9994           0
     74574 TIP3     21553    TIP3     H1       HT       0.417000       1.00800           0
     74575 TIP3     21553    TIP3     H2       HT       0.417000       1.00800           0
     74576 TIP3     21554    TIP3     OH2      OT      -0.834000       15.9994           0
     74577 TIP3     21554    TIP3     H1       HT       0.417000       1.00800           0
     74578 TIP3     21554    TIP3     H2       HT       0.417000       1.00800           0
     74579 TIP3     21555    TIP3     OH2      OT      -0.834000       15.9994           0
     74580 TIP3     21555    TIP3     H1       HT       0.417000       1.00800           0
     74581 TIP3     21555    TIP3     H2       HT       0.417000       1.00800           0
     74582 TIP3     21556    TIP3     OH2      OT      -0.834000       15.9994           0
     74583 TIP3     21556    TIP3     H1       HT       0.417000       1.00800           0
     74584 TIP3     21556    TIP3     H2       HT       0.417000       1.00800           0
     74585 TIP3     21557    TIP3     OH2      OT      -0.834000       15.9994           0
     74586 TIP3     21557    TIP3     H1       HT       0.417000       1.00800           0
     74587 TIP3     21557    TIP3     H2       HT       0.417000       1.00800           0
     74588 TIP3     21558    TIP3     OH2      OT      -0.834000       15.9994           0
     74589 TIP3     21558    TIP3     H1       HT       0.417000       1.00800           0
     74590 TIP3     21558    TIP3     H2       HT       0.417000       1.00800           0
     74591 TIP3     21559    TIP3     OH2      OT      -0.834000       15.9994           0
     74592 TIP3     21559    TIP3     H1       HT       0.417000       1.00800           0
     74593 TIP3     21559    TIP3     H2       HT       0.417000       1.00800           0
     74594 TIP3     21560    TIP3     OH2      OT      -0.834000       15.9994           0
     74595 TIP3     21560    TIP3     H1       HT       0.417000       1.00800           0
     74596 TIP3     21560    TIP3     H2       HT       0.417000       1.00800           0
     74597 TIP3     21561    TIP3     OH2      OT      -0.834000       15.9994           0
     74598 TIP3     21561    TIP3     H1       HT       0.417000       1.00800           0
     74599 TIP3     21561    TIP3     H2       HT       0.417000       1.00800           0
     74600 TIP3     21562    TIP3     OH2      OT      -0.834000       15.9994           0
     74601 TIP3     21562    TIP3     H1       HT       0.417000       1.00800           0
     74602 TIP3     21562    TIP3     H2       HT       0.417000       1.00800           0
     74603 TIP3     21563    TIP3     OH2      OT      -0.834000       15.9994           0
     74604 TIP3     21563    TIP3     H1       HT       0.417000       1.00800           0
     74605 TIP3     21563    TIP3     H2       HT       0.417000       1.00800           0
     74606 TIP3     21564    TIP3     OH2      OT      -0.834000       15.9994           0
     74607 TIP3     21564    TIP3     H1       HT       0.417000       1.00800           0
     74608 TIP3     21564    TIP3     H2       HT       0.417000       1.00800           0
     74609 TIP3     21565    TIP3     OH2      OT      -0.834000       15.9994           0
     74610 TIP3     21565    TIP3     H1       HT       0.417000       1.00800           0
     74611 TIP3     21565    TIP3     H2       HT       0.417000       1.00800           0
     74612 TIP3     21566    TIP3     OH2      OT      -0.834000       15.9994           0
     74613 TIP3     21566    TIP3     H1       HT       0.417000       1.00800           0
     74614 TIP3     21566    TIP3     H2       HT       0.417000       1.00800           0
     74615 TIP3     21567    TIP3     OH2      OT      -0.834000       15.9994           0
     74616 TIP3     21567    TIP3     H1       HT       0.417000       1.00800           0
     74617 TIP3     21567    TIP3     H2       HT       0.417000       1.00800           0
     74618 TIP3     21568    TIP3     OH2      OT      -0.834000       15.9994           0
     74619 TIP3     21568    TIP3     H1       HT       0.417000       1.00800           0
     74620 TIP3     21568    TIP3     H2       HT       0.417000       1.00800           0
     74621 TIP3     21569    TIP3     OH2      OT      -0.834000       15.9994           0
     74622 TIP3     21569    TIP3     H1       HT       0.417000       1.00800           0
     74623 TIP3     21569    TIP3     H2       HT       0.417000       1.00800           0
     74624 TIP3     21570    TIP3     OH2      OT      -0.834000       15.9994           0
     74625 TIP3     21570    TIP3     H1       HT       0.417000       1.00800           0
     74626 TIP3     21570    TIP3     H2       HT       0.417000       1.00800           0
     74627 TIP3     21571    TIP3     OH2      OT      -0.834000       15.9994           0
     74628 TIP3     21571    TIP3     H1       HT       0.417000       1.00800           0
     74629 TIP3     21571    TIP3     H2       HT       0.417000       1.00800           0
     74630 TIP3     21572    TIP3     OH2      OT      -0.834000       15.9994           0
     74631 TIP3     21572    TIP3     H1       HT       0.417000       1.00800           0
     74632 TIP3     21572    TIP3     H2       HT       0.417000       1.00800           0
     74633 TIP3     21573    TIP3     OH2      OT      -0.834000       15.9994           0
     74634 TIP3     21573    TIP3     H1       HT       0.417000       1.00800           0
     74635 TIP3     21573    TIP3     H2       HT       0.417000       1.00800           0
     74636 TIP3     21574    TIP3     OH2      OT      -0.834000       15.9994           0
     74637 TIP3     21574    TIP3     H1       HT       0.417000       1.00800           0
     74638 TIP3     21574    TIP3     H2       HT       0.417000       1.00800           0
     74639 TIP3     21575    TIP3     OH2      OT      -0.834000       15.9994           0
     74640 TIP3     21575    TIP3     H1       HT       0.417000       1.00800           0
     74641 TIP3     21575    TIP3     H2       HT       0.417000       1.00800           0
     74642 TIP3     21576    TIP3     OH2      OT      -0.834000       15.9994           0
     74643 TIP3     21576    TIP3     H1       HT       0.417000       1.00800           0
     74644 TIP3     21576    TIP3     H2       HT       0.417000       1.00800           0
     74645 TIP3     21577    TIP3     OH2      OT      -0.834000       15.9994           0
     74646 TIP3     21577    TIP3     H1       HT       0.417000       1.00800           0
     74647 TIP3     21577    TIP3     H2       HT       0.417000       1.00800           0
     74648 TIP3     21578    TIP3     OH2      OT      -0.834000       15.9994           0
     74649 TIP3     21578    TIP3     H1       HT       0.417000       1.00800           0
     74650 TIP3     21578    TIP3     H2       HT       0.417000       1.00800           0
     74651 TIP3     21579    TIP3     OH2      OT      -0.834000       15.9994           0
     74652 TIP3     21579    TIP3     H1       HT       0.417000       1.00800           0
     74653 TIP3     21579    TIP3     H2       HT       0.417000       1.00800           0
     74654 TIP3     21580    TIP3     OH2      OT      -0.834000       15.9994           0
     74655 TIP3     21580    TIP3     H1       HT       0.417000       1.00800           0
     74656 TIP3     21580    TIP3     H2       HT       0.417000       1.00800           0
     74657 TIP3     21581    TIP3     OH2      OT      -0.834000       15.9994           0
     74658 TIP3     21581    TIP3     H1       HT       0.417000       1.00800           0
     74659 TIP3     21581    TIP3     H2       HT       0.417000       1.00800           0
     74660 TIP3     21582    TIP3     OH2      OT      -0.834000       15.9994           0
     74661 TIP3     21582    TIP3     H1       HT       0.417000       1.00800           0
     74662 TIP3     21582    TIP3     H2       HT       0.417000       1.00800           0
     74663 TIP3     21583    TIP3     OH2      OT      -0.834000       15.9994           0
     74664 TIP3     21583    TIP3     H1       HT       0.417000       1.00800           0
     74665 TIP3     21583    TIP3     H2       HT       0.417000       1.00800           0
     74666 TIP3     21584    TIP3     OH2      OT      -0.834000       15.9994           0
     74667 TIP3     21584    TIP3     H1       HT       0.417000       1.00800           0
     74668 TIP3     21584    TIP3     H2       HT       0.417000       1.00800           0
     74669 TIP3     21585    TIP3     OH2      OT      -0.834000       15.9994           0
     74670 TIP3     21585    TIP3     H1       HT       0.417000       1.00800           0
     74671 TIP3     21585    TIP3     H2       HT       0.417000       1.00800           0
     74672 TIP3     21586    TIP3     OH2      OT      -0.834000       15.9994           0
     74673 TIP3     21586    TIP3     H1       HT       0.417000       1.00800           0
     74674 TIP3     21586    TIP3     H2       HT       0.417000       1.00800           0
     74675 TIP3     21587    TIP3     OH2      OT      -0.834000       15.9994           0
     74676 TIP3     21587    TIP3     H1       HT       0.417000       1.00800           0
     74677 TIP3     21587    TIP3     H2       HT       0.417000       1.00800           0
     74678 TIP3     21588    TIP3     OH2      OT      -0.834000       15.9994           0
     74679 TIP3     21588    TIP3     H1       HT       0.417000       1.00800           0
     74680 TIP3     21588    TIP3     H2       HT       0.417000       1.00800           0
     74681 TIP3     21589    TIP3     OH2      OT      -0.834000       15.9994           0
     74682 TIP3     21589    TIP3     H1       HT       0.417000       1.00800           0
     74683 TIP3     21589    TIP3     H2       HT       0.417000       1.00800           0
     74684 TIP3     21590    TIP3     OH2      OT      -0.834000       15.9994           0
     74685 TIP3     21590    TIP3     H1       HT       0.417000       1.00800           0
     74686 TIP3     21590    TIP3     H2       HT       0.417000       1.00800           0
     74687 TIP3     21591    TIP3     OH2      OT      -0.834000       15.9994           0
     74688 TIP3     21591    TIP3     H1       HT       0.417000       1.00800           0
     74689 TIP3     21591    TIP3     H2       HT       0.417000       1.00800           0
     74690 TIP3     21592    TIP3     OH2      OT      -0.834000       15.9994           0
     74691 TIP3     21592    TIP3     H1       HT       0.417000       1.00800           0
     74692 TIP3     21592    TIP3     H2       HT       0.417000       1.00800           0
     74693 TIP3     21593    TIP3     OH2      OT      -0.834000       15.9994           0
     74694 TIP3     21593    TIP3     H1       HT       0.417000       1.00800           0
     74695 TIP3     21593    TIP3     H2       HT       0.417000       1.00800           0
     74696 TIP3     21594    TIP3     OH2      OT      -0.834000       15.9994           0
     74697 TIP3     21594    TIP3     H1       HT       0.417000       1.00800           0
     74698 TIP3     21594    TIP3     H2       HT       0.417000       1.00800           0
     74699 TIP3     21595    TIP3     OH2      OT      -0.834000       15.9994           0
     74700 TIP3     21595    TIP3     H1       HT       0.417000       1.00800           0
     74701 TIP3     21595    TIP3     H2       HT       0.417000       1.00800           0
     74702 TIP3     21596    TIP3     OH2      OT      -0.834000       15.9994           0
     74703 TIP3     21596    TIP3     H1       HT       0.417000       1.00800           0
     74704 TIP3     21596    TIP3     H2       HT       0.417000       1.00800           0
     74705 TIP3     21597    TIP3     OH2      OT      -0.834000       15.9994           0
     74706 TIP3     21597    TIP3     H1       HT       0.417000       1.00800           0
     74707 TIP3     21597    TIP3     H2       HT       0.417000       1.00800           0
     74708 TIP3     21598    TIP3     OH2      OT      -0.834000       15.9994           0
     74709 TIP3     21598    TIP3     H1       HT       0.417000       1.00800           0
     74710 TIP3     21598    TIP3     H2       HT       0.417000       1.00800           0
     74711 TIP3     21599    TIP3     OH2      OT      -0.834000       15.9994           0
     74712 TIP3     21599    TIP3     H1       HT       0.417000       1.00800           0
     74713 TIP3     21599    TIP3     H2       HT       0.417000       1.00800           0
     74714 TIP3     21600    TIP3     OH2      OT      -0.834000       15.9994           0
     74715 TIP3     21600    TIP3     H1       HT       0.417000       1.00800           0
     74716 TIP3     21600    TIP3     H2       HT       0.417000       1.00800           0
     74717 TIP3     21601    TIP3     OH2      OT      -0.834000       15.9994           0
     74718 TIP3     21601    TIP3     H1       HT       0.417000       1.00800           0
     74719 TIP3     21601    TIP3     H2       HT       0.417000       1.00800           0
     74720 TIP3     21602    TIP3     OH2      OT      -0.834000       15.9994           0
     74721 TIP3     21602    TIP3     H1       HT       0.417000       1.00800           0
     74722 TIP3     21602    TIP3     H2       HT       0.417000       1.00800           0
     74723 TIP3     21603    TIP3     OH2      OT      -0.834000       15.9994           0
     74724 TIP3     21603    TIP3     H1       HT       0.417000       1.00800           0
     74725 TIP3     21603    TIP3     H2       HT       0.417000       1.00800           0
     74726 TIP3     21604    TIP3     OH2      OT      -0.834000       15.9994           0
     74727 TIP3     21604    TIP3     H1       HT       0.417000       1.00800           0
     74728 TIP3     21604    TIP3     H2       HT       0.417000       1.00800           0
     74729 TIP3     21605    TIP3     OH2      OT      -0.834000       15.9994           0
     74730 TIP3     21605    TIP3     H1       HT       0.417000       1.00800           0
     74731 TIP3     21605    TIP3     H2       HT       0.417000       1.00800           0
     74732 TIP3     21606    TIP3     OH2      OT      -0.834000       15.9994           0
     74733 TIP3     21606    TIP3     H1       HT       0.417000       1.00800           0
     74734 TIP3     21606    TIP3     H2       HT       0.417000       1.00800           0
     74735 TIP3     21607    TIP3     OH2      OT      -0.834000       15.9994           0
     74736 TIP3     21607    TIP3     H1       HT       0.417000       1.00800           0
     74737 TIP3     21607    TIP3     H2       HT       0.417000       1.00800           0
     74738 TIP3     21608    TIP3     OH2      OT      -0.834000       15.9994           0
     74739 TIP3     21608    TIP3     H1       HT       0.417000       1.00800           0
     74740 TIP3     21608    TIP3     H2       HT       0.417000       1.00800           0
     74741 TIP3     21609    TIP3     OH2      OT      -0.834000       15.9994           0
     74742 TIP3     21609    TIP3     H1       HT       0.417000       1.00800           0
     74743 TIP3     21609    TIP3     H2       HT       0.417000       1.00800           0
     74744 TIP3     21610    TIP3     OH2      OT      -0.834000       15.9994           0
     74745 TIP3     21610    TIP3     H1       HT       0.417000       1.00800           0
     74746 TIP3     21610    TIP3     H2       HT       0.417000       1.00800           0
     74747 TIP3     21611    TIP3     OH2      OT      -0.834000       15.9994           0
     74748 TIP3     21611    TIP3     H1       HT       0.417000       1.00800           0
     74749 TIP3     21611    TIP3     H2       HT       0.417000       1.00800           0
     74750 TIP3     21612    TIP3     OH2      OT      -0.834000       15.9994           0
     74751 TIP3     21612    TIP3     H1       HT       0.417000       1.00800           0
     74752 TIP3     21612    TIP3     H2       HT       0.417000       1.00800           0
     74753 TIP3     21613    TIP3     OH2      OT      -0.834000       15.9994           0
     74754 TIP3     21613    TIP3     H1       HT       0.417000       1.00800           0
     74755 TIP3     21613    TIP3     H2       HT       0.417000       1.00800           0
     74756 TIP3     21614    TIP3     OH2      OT      -0.834000       15.9994           0
     74757 TIP3     21614    TIP3     H1       HT       0.417000       1.00800           0
     74758 TIP3     21614    TIP3     H2       HT       0.417000       1.00800           0
     74759 TIP3     21615    TIP3     OH2      OT      -0.834000       15.9994           0
     74760 TIP3     21615    TIP3     H1       HT       0.417000       1.00800           0
     74761 TIP3     21615    TIP3     H2       HT       0.417000       1.00800           0
     74762 TIP3     21616    TIP3     OH2      OT      -0.834000       15.9994           0
     74763 TIP3     21616    TIP3     H1       HT       0.417000       1.00800           0
     74764 TIP3     21616    TIP3     H2       HT       0.417000       1.00800           0
     74765 TIP3     21617    TIP3     OH2      OT      -0.834000       15.9994           0
     74766 TIP3     21617    TIP3     H1       HT       0.417000       1.00800           0
     74767 TIP3     21617    TIP3     H2       HT       0.417000       1.00800           0
     74768 TIP3     21618    TIP3     OH2      OT      -0.834000       15.9994           0
     74769 TIP3     21618    TIP3     H1       HT       0.417000       1.00800           0
     74770 TIP3     21618    TIP3     H2       HT       0.417000       1.00800           0
     74771 TIP3     21619    TIP3     OH2      OT      -0.834000       15.9994           0
     74772 TIP3     21619    TIP3     H1       HT       0.417000       1.00800           0
     74773 TIP3     21619    TIP3     H2       HT       0.417000       1.00800           0
     74774 TIP3     21620    TIP3     OH2      OT      -0.834000       15.9994           0
     74775 TIP3     21620    TIP3     H1       HT       0.417000       1.00800           0
     74776 TIP3     21620    TIP3     H2       HT       0.417000       1.00800           0
     74777 TIP3     21621    TIP3     OH2      OT      -0.834000       15.9994           0
     74778 TIP3     21621    TIP3     H1       HT       0.417000       1.00800           0
     74779 TIP3     21621    TIP3     H2       HT       0.417000       1.00800           0
     74780 TIP3     21622    TIP3     OH2      OT      -0.834000       15.9994           0
     74781 TIP3     21622    TIP3     H1       HT       0.417000       1.00800           0
     74782 TIP3     21622    TIP3     H2       HT       0.417000       1.00800           0
     74783 TIP3     21623    TIP3     OH2      OT      -0.834000       15.9994           0
     74784 TIP3     21623    TIP3     H1       HT       0.417000       1.00800           0
     74785 TIP3     21623    TIP3     H2       HT       0.417000       1.00800           0
     74786 TIP3     21624    TIP3     OH2      OT      -0.834000       15.9994           0
     74787 TIP3     21624    TIP3     H1       HT       0.417000       1.00800           0
     74788 TIP3     21624    TIP3     H2       HT       0.417000       1.00800           0
     74789 TIP3     21625    TIP3     OH2      OT      -0.834000       15.9994           0
     74790 TIP3     21625    TIP3     H1       HT       0.417000       1.00800           0
     74791 TIP3     21625    TIP3     H2       HT       0.417000       1.00800           0
     74792 TIP3     21626    TIP3     OH2      OT      -0.834000       15.9994           0
     74793 TIP3     21626    TIP3     H1       HT       0.417000       1.00800           0
     74794 TIP3     21626    TIP3     H2       HT       0.417000       1.00800           0
     74795 TIP3     21627    TIP3     OH2      OT      -0.834000       15.9994           0
     74796 TIP3     21627    TIP3     H1       HT       0.417000       1.00800           0
     74797 TIP3     21627    TIP3     H2       HT       0.417000       1.00800           0
     74798 TIP3     21628    TIP3     OH2      OT      -0.834000       15.9994           0
     74799 TIP3     21628    TIP3     H1       HT       0.417000       1.00800           0
     74800 TIP3     21628    TIP3     H2       HT       0.417000       1.00800           0
     74801 TIP3     21629    TIP3     OH2      OT      -0.834000       15.9994           0
     74802 TIP3     21629    TIP3     H1       HT       0.417000       1.00800           0
     74803 TIP3     21629    TIP3     H2       HT       0.417000       1.00800           0
     74804 TIP3     21630    TIP3     OH2      OT      -0.834000       15.9994           0
     74805 TIP3     21630    TIP3     H1       HT       0.417000       1.00800           0
     74806 TIP3     21630    TIP3     H2       HT       0.417000       1.00800           0
     74807 TIP3     21631    TIP3     OH2      OT      -0.834000       15.9994           0
     74808 TIP3     21631    TIP3     H1       HT       0.417000       1.00800           0
     74809 TIP3     21631    TIP3     H2       HT       0.417000       1.00800           0
     74810 TIP3     21632    TIP3     OH2      OT      -0.834000       15.9994           0
     74811 TIP3     21632    TIP3     H1       HT       0.417000       1.00800           0
     74812 TIP3     21632    TIP3     H2       HT       0.417000       1.00800           0
     74813 TIP3     21633    TIP3     OH2      OT      -0.834000       15.9994           0
     74814 TIP3     21633    TIP3     H1       HT       0.417000       1.00800           0
     74815 TIP3     21633    TIP3     H2       HT       0.417000       1.00800           0
     74816 TIP3     21634    TIP3     OH2      OT      -0.834000       15.9994           0
     74817 TIP3     21634    TIP3     H1       HT       0.417000       1.00800           0
     74818 TIP3     21634    TIP3     H2       HT       0.417000       1.00800           0
     74819 TIP3     21635    TIP3     OH2      OT      -0.834000       15.9994           0
     74820 TIP3     21635    TIP3     H1       HT       0.417000       1.00800           0
     74821 TIP3     21635    TIP3     H2       HT       0.417000       1.00800           0
     74822 TIP3     21636    TIP3     OH2      OT      -0.834000       15.9994           0
     74823 TIP3     21636    TIP3     H1       HT       0.417000       1.00800           0
     74824 TIP3     21636    TIP3     H2       HT       0.417000       1.00800           0
     74825 TIP3     21637    TIP3     OH2      OT      -0.834000       15.9994           0
     74826 TIP3     21637    TIP3     H1       HT       0.417000       1.00800           0
     74827 TIP3     21637    TIP3     H2       HT       0.417000       1.00800           0
     74828 TIP3     21638    TIP3     OH2      OT      -0.834000       15.9994           0
     74829 TIP3     21638    TIP3     H1       HT       0.417000       1.00800           0
     74830 TIP3     21638    TIP3     H2       HT       0.417000       1.00800           0
     74831 TIP3     21639    TIP3     OH2      OT      -0.834000       15.9994           0
     74832 TIP3     21639    TIP3     H1       HT       0.417000       1.00800           0
     74833 TIP3     21639    TIP3     H2       HT       0.417000       1.00800           0
     74834 TIP3     21640    TIP3     OH2      OT      -0.834000       15.9994           0
     74835 TIP3     21640    TIP3     H1       HT       0.417000       1.00800           0
     74836 TIP3     21640    TIP3     H2       HT       0.417000       1.00800           0
     74837 TIP3     21641    TIP3     OH2      OT      -0.834000       15.9994           0
     74838 TIP3     21641    TIP3     H1       HT       0.417000       1.00800           0
     74839 TIP3     21641    TIP3     H2       HT       0.417000       1.00800           0
     74840 TIP3     21642    TIP3     OH2      OT      -0.834000       15.9994           0
     74841 TIP3     21642    TIP3     H1       HT       0.417000       1.00800           0
     74842 TIP3     21642    TIP3     H2       HT       0.417000       1.00800           0
     74843 TIP3     21643    TIP3     OH2      OT      -0.834000       15.9994           0
     74844 TIP3     21643    TIP3     H1       HT       0.417000       1.00800           0
     74845 TIP3     21643    TIP3     H2       HT       0.417000       1.00800           0
     74846 TIP3     21644    TIP3     OH2      OT      -0.834000       15.9994           0
     74847 TIP3     21644    TIP3     H1       HT       0.417000       1.00800           0
     74848 TIP3     21644    TIP3     H2       HT       0.417000       1.00800           0
     74849 TIP3     21645    TIP3     OH2      OT      -0.834000       15.9994           0
     74850 TIP3     21645    TIP3     H1       HT       0.417000       1.00800           0
     74851 TIP3     21645    TIP3     H2       HT       0.417000       1.00800           0
     74852 TIP3     21646    TIP3     OH2      OT      -0.834000       15.9994           0
     74853 TIP3     21646    TIP3     H1       HT       0.417000       1.00800           0
     74854 TIP3     21646    TIP3     H2       HT       0.417000       1.00800           0
     74855 TIP3     21647    TIP3     OH2      OT      -0.834000       15.9994           0
     74856 TIP3     21647    TIP3     H1       HT       0.417000       1.00800           0
     74857 TIP3     21647    TIP3     H2       HT       0.417000       1.00800           0
     74858 TIP3     21648    TIP3     OH2      OT      -0.834000       15.9994           0
     74859 TIP3     21648    TIP3     H1       HT       0.417000       1.00800           0
     74860 TIP3     21648    TIP3     H2       HT       0.417000       1.00800           0
     74861 TIP3     21649    TIP3     OH2      OT      -0.834000       15.9994           0
     74862 TIP3     21649    TIP3     H1       HT       0.417000       1.00800           0
     74863 TIP3     21649    TIP3     H2       HT       0.417000       1.00800           0
     74864 TIP3     21650    TIP3     OH2      OT      -0.834000       15.9994           0
     74865 TIP3     21650    TIP3     H1       HT       0.417000       1.00800           0
     74866 TIP3     21650    TIP3     H2       HT       0.417000       1.00800           0
     74867 TIP3     21651    TIP3     OH2      OT      -0.834000       15.9994           0
     74868 TIP3     21651    TIP3     H1       HT       0.417000       1.00800           0
     74869 TIP3     21651    TIP3     H2       HT       0.417000       1.00800           0
     74870 TIP3     21652    TIP3     OH2      OT      -0.834000       15.9994           0
     74871 TIP3     21652    TIP3     H1       HT       0.417000       1.00800           0
     74872 TIP3     21652    TIP3     H2       HT       0.417000       1.00800           0
     74873 TIP3     21653    TIP3     OH2      OT      -0.834000       15.9994           0
     74874 TIP3     21653    TIP3     H1       HT       0.417000       1.00800           0
     74875 TIP3     21653    TIP3     H2       HT       0.417000       1.00800           0
     74876 TIP3     21654    TIP3     OH2      OT      -0.834000       15.9994           0
     74877 TIP3     21654    TIP3     H1       HT       0.417000       1.00800           0
     74878 TIP3     21654    TIP3     H2       HT       0.417000       1.00800           0
     74879 TIP3     21655    TIP3     OH2      OT      -0.834000       15.9994           0
     74880 TIP3     21655    TIP3     H1       HT       0.417000       1.00800           0
     74881 TIP3     21655    TIP3     H2       HT       0.417000       1.00800           0
     74882 TIP3     21656    TIP3     OH2      OT      -0.834000       15.9994           0
     74883 TIP3     21656    TIP3     H1       HT       0.417000       1.00800           0
     74884 TIP3     21656    TIP3     H2       HT       0.417000       1.00800           0
     74885 TIP3     21657    TIP3     OH2      OT      -0.834000       15.9994           0
     74886 TIP3     21657    TIP3     H1       HT       0.417000       1.00800           0
     74887 TIP3     21657    TIP3     H2       HT       0.417000       1.00800           0
     74888 TIP3     21658    TIP3     OH2      OT      -0.834000       15.9994           0
     74889 TIP3     21658    TIP3     H1       HT       0.417000       1.00800           0
     74890 TIP3     21658    TIP3     H2       HT       0.417000       1.00800           0
     74891 TIP3     21659    TIP3     OH2      OT      -0.834000       15.9994           0
     74892 TIP3     21659    TIP3     H1       HT       0.417000       1.00800           0
     74893 TIP3     21659    TIP3     H2       HT       0.417000       1.00800           0
     74894 TIP3     21660    TIP3     OH2      OT      -0.834000       15.9994           0
     74895 TIP3     21660    TIP3     H1       HT       0.417000       1.00800           0
     74896 TIP3     21660    TIP3     H2       HT       0.417000       1.00800           0
     74897 TIP3     21661    TIP3     OH2      OT      -0.834000       15.9994           0
     74898 TIP3     21661    TIP3     H1       HT       0.417000       1.00800           0
     74899 TIP3     21661    TIP3     H2       HT       0.417000       1.00800           0
     74900 TIP3     21662    TIP3     OH2      OT      -0.834000       15.9994           0
     74901 TIP3     21662    TIP3     H1       HT       0.417000       1.00800           0
     74902 TIP3     21662    TIP3     H2       HT       0.417000       1.00800           0
     74903 TIP3     21663    TIP3     OH2      OT      -0.834000       15.9994           0
     74904 TIP3     21663    TIP3     H1       HT       0.417000       1.00800           0
     74905 TIP3     21663    TIP3     H2       HT       0.417000       1.00800           0
     74906 TIP3     21664    TIP3     OH2      OT      -0.834000       15.9994           0
     74907 TIP3     21664    TIP3     H1       HT       0.417000       1.00800           0
     74908 TIP3     21664    TIP3     H2       HT       0.417000       1.00800           0
     74909 TIP3     21665    TIP3     OH2      OT      -0.834000       15.9994           0
     74910 TIP3     21665    TIP3     H1       HT       0.417000       1.00800           0
     74911 TIP3     21665    TIP3     H2       HT       0.417000       1.00800           0
     74912 TIP3     21666    TIP3     OH2      OT      -0.834000       15.9994           0
     74913 TIP3     21666    TIP3     H1       HT       0.417000       1.00800           0
     74914 TIP3     21666    TIP3     H2       HT       0.417000       1.00800           0
     74915 TIP3     21667    TIP3     OH2      OT      -0.834000       15.9994           0
     74916 TIP3     21667    TIP3     H1       HT       0.417000       1.00800           0
     74917 TIP3     21667    TIP3     H2       HT       0.417000       1.00800           0
     74918 TIP3     21668    TIP3     OH2      OT      -0.834000       15.9994           0
     74919 TIP3     21668    TIP3     H1       HT       0.417000       1.00800           0
     74920 TIP3     21668    TIP3     H2       HT       0.417000       1.00800           0
     74921 TIP3     21669    TIP3     OH2      OT      -0.834000       15.9994           0
     74922 TIP3     21669    TIP3     H1       HT       0.417000       1.00800           0
     74923 TIP3     21669    TIP3     H2       HT       0.417000       1.00800           0
     74924 TIP3     21670    TIP3     OH2      OT      -0.834000       15.9994           0
     74925 TIP3     21670    TIP3     H1       HT       0.417000       1.00800           0
     74926 TIP3     21670    TIP3     H2       HT       0.417000       1.00800           0
     74927 TIP3     21671    TIP3     OH2      OT      -0.834000       15.9994           0
     74928 TIP3     21671    TIP3     H1       HT       0.417000       1.00800           0
     74929 TIP3     21671    TIP3     H2       HT       0.417000       1.00800           0
     74930 TIP3     21672    TIP3     OH2      OT      -0.834000       15.9994           0
     74931 TIP3     21672    TIP3     H1       HT       0.417000       1.00800           0
     74932 TIP3     21672    TIP3     H2       HT       0.417000       1.00800           0
     74933 TIP3     21673    TIP3     OH2      OT      -0.834000       15.9994           0
     74934 TIP3     21673    TIP3     H1       HT       0.417000       1.00800           0
     74935 TIP3     21673    TIP3     H2       HT       0.417000       1.00800           0
     74936 TIP3     21674    TIP3     OH2      OT      -0.834000       15.9994           0
     74937 TIP3     21674    TIP3     H1       HT       0.417000       1.00800           0
     74938 TIP3     21674    TIP3     H2       HT       0.417000       1.00800           0
     74939 TIP3     21675    TIP3     OH2      OT      -0.834000       15.9994           0
     74940 TIP3     21675    TIP3     H1       HT       0.417000       1.00800           0
     74941 TIP3     21675    TIP3     H2       HT       0.417000       1.00800           0
     74942 TIP3     21676    TIP3     OH2      OT      -0.834000       15.9994           0
     74943 TIP3     21676    TIP3     H1       HT       0.417000       1.00800           0
     74944 TIP3     21676    TIP3     H2       HT       0.417000       1.00800           0
     74945 TIP3     21677    TIP3     OH2      OT      -0.834000       15.9994           0
     74946 TIP3     21677    TIP3     H1       HT       0.417000       1.00800           0
     74947 TIP3     21677    TIP3     H2       HT       0.417000       1.00800           0
     74948 TIP3     21678    TIP3     OH2      OT      -0.834000       15.9994           0
     74949 TIP3     21678    TIP3     H1       HT       0.417000       1.00800           0
     74950 TIP3     21678    TIP3     H2       HT       0.417000       1.00800           0
     74951 TIP3     21679    TIP3     OH2      OT      -0.834000       15.9994           0
     74952 TIP3     21679    TIP3     H1       HT       0.417000       1.00800           0
     74953 TIP3     21679    TIP3     H2       HT       0.417000       1.00800           0
     74954 TIP3     21680    TIP3     OH2      OT      -0.834000       15.9994           0
     74955 TIP3     21680    TIP3     H1       HT       0.417000       1.00800           0
     74956 TIP3     21680    TIP3     H2       HT       0.417000       1.00800           0
     74957 TIP3     21681    TIP3     OH2      OT      -0.834000       15.9994           0
     74958 TIP3     21681    TIP3     H1       HT       0.417000       1.00800           0
     74959 TIP3     21681    TIP3     H2       HT       0.417000       1.00800           0
     74960 TIP3     21682    TIP3     OH2      OT      -0.834000       15.9994           0
     74961 TIP3     21682    TIP3     H1       HT       0.417000       1.00800           0
     74962 TIP3     21682    TIP3     H2       HT       0.417000       1.00800           0
     74963 TIP3     21683    TIP3     OH2      OT      -0.834000       15.9994           0
     74964 TIP3     21683    TIP3     H1       HT       0.417000       1.00800           0
     74965 TIP3     21683    TIP3     H2       HT       0.417000       1.00800           0
     74966 TIP3     21684    TIP3     OH2      OT      -0.834000       15.9994           0
     74967 TIP3     21684    TIP3     H1       HT       0.417000       1.00800           0
     74968 TIP3     21684    TIP3     H2       HT       0.417000       1.00800           0
     74969 TIP3     21685    TIP3     OH2      OT      -0.834000       15.9994           0
     74970 TIP3     21685    TIP3     H1       HT       0.417000       1.00800           0
     74971 TIP3     21685    TIP3     H2       HT       0.417000       1.00800           0
     74972 TIP3     21686    TIP3     OH2      OT      -0.834000       15.9994           0
     74973 TIP3     21686    TIP3     H1       HT       0.417000       1.00800           0
     74974 TIP3     21686    TIP3     H2       HT       0.417000       1.00800           0
     74975 TIP3     21687    TIP3     OH2      OT      -0.834000       15.9994           0
     74976 TIP3     21687    TIP3     H1       HT       0.417000       1.00800           0
     74977 TIP3     21687    TIP3     H2       HT       0.417000       1.00800           0
     74978 TIP3     21688    TIP3     OH2      OT      -0.834000       15.9994           0
     74979 TIP3     21688    TIP3     H1       HT       0.417000       1.00800           0
     74980 TIP3     21688    TIP3     H2       HT       0.417000       1.00800           0
     74981 TIP3     21689    TIP3     OH2      OT      -0.834000       15.9994           0
     74982 TIP3     21689    TIP3     H1       HT       0.417000       1.00800           0
     74983 TIP3     21689    TIP3     H2       HT       0.417000       1.00800           0
     74984 TIP3     21690    TIP3     OH2      OT      -0.834000       15.9994           0
     74985 TIP3     21690    TIP3     H1       HT       0.417000       1.00800           0
     74986 TIP3     21690    TIP3     H2       HT       0.417000       1.00800           0
     74987 TIP3     21691    TIP3     OH2      OT      -0.834000       15.9994           0
     74988 TIP3     21691    TIP3     H1       HT       0.417000       1.00800           0
     74989 TIP3     21691    TIP3     H2       HT       0.417000       1.00800           0
     74990 TIP3     21692    TIP3     OH2      OT      -0.834000       15.9994           0
     74991 TIP3     21692    TIP3     H1       HT       0.417000       1.00800           0
     74992 TIP3     21692    TIP3     H2       HT       0.417000       1.00800           0
     74993 TIP3     21693    TIP3     OH2      OT      -0.834000       15.9994           0
     74994 TIP3     21693    TIP3     H1       HT       0.417000       1.00800           0
     74995 TIP3     21693    TIP3     H2       HT       0.417000       1.00800           0
     74996 TIP3     21694    TIP3     OH2      OT      -0.834000       15.9994           0
     74997 TIP3     21694    TIP3     H1       HT       0.417000       1.00800           0
     74998 TIP3     21694    TIP3     H2       HT       0.417000       1.00800           0
     74999 TIP3     21695    TIP3     OH2      OT      -0.834000       15.9994           0
     75000 TIP3     21695    TIP3     H1       HT       0.417000       1.00800           0
     75001 TIP3     21695    TIP3     H2       HT       0.417000       1.00800           0
     75002 TIP3     21696    TIP3     OH2      OT      -0.834000       15.9994           0
     75003 TIP3     21696    TIP3     H1       HT       0.417000       1.00800           0
     75004 TIP3     21696    TIP3     H2       HT       0.417000       1.00800           0
     75005 TIP3     21697    TIP3     OH2      OT      -0.834000       15.9994           0
     75006 TIP3     21697    TIP3     H1       HT       0.417000       1.00800           0
     75007 TIP3     21697    TIP3     H2       HT       0.417000       1.00800           0
     75008 TIP3     21698    TIP3     OH2      OT      -0.834000       15.9994           0
     75009 TIP3     21698    TIP3     H1       HT       0.417000       1.00800           0
     75010 TIP3     21698    TIP3     H2       HT       0.417000       1.00800           0
     75011 TIP3     21699    TIP3     OH2      OT      -0.834000       15.9994           0
     75012 TIP3     21699    TIP3     H1       HT       0.417000       1.00800           0
     75013 TIP3     21699    TIP3     H2       HT       0.417000       1.00800           0
     75014 TIP3     21700    TIP3     OH2      OT      -0.834000       15.9994           0
     75015 TIP3     21700    TIP3     H1       HT       0.417000       1.00800           0
     75016 TIP3     21700    TIP3     H2       HT       0.417000       1.00800           0
     75017 TIP3     21701    TIP3     OH2      OT      -0.834000       15.9994           0
     75018 TIP3     21701    TIP3     H1       HT       0.417000       1.00800           0
     75019 TIP3     21701    TIP3     H2       HT       0.417000       1.00800           0
     75020 TIP3     21702    TIP3     OH2      OT      -0.834000       15.9994           0
     75021 TIP3     21702    TIP3     H1       HT       0.417000       1.00800           0
     75022 TIP3     21702    TIP3     H2       HT       0.417000       1.00800           0
     75023 TIP3     21703    TIP3     OH2      OT      -0.834000       15.9994           0
     75024 TIP3     21703    TIP3     H1       HT       0.417000       1.00800           0
     75025 TIP3     21703    TIP3     H2       HT       0.417000       1.00800           0
     75026 TIP3     21704    TIP3     OH2      OT      -0.834000       15.9994           0
     75027 TIP3     21704    TIP3     H1       HT       0.417000       1.00800           0
     75028 TIP3     21704    TIP3     H2       HT       0.417000       1.00800           0
     75029 TIP3     21705    TIP3     OH2      OT      -0.834000       15.9994           0
     75030 TIP3     21705    TIP3     H1       HT       0.417000       1.00800           0
     75031 TIP3     21705    TIP3     H2       HT       0.417000       1.00800           0
     75032 TIP3     21706    TIP3     OH2      OT      -0.834000       15.9994           0
     75033 TIP3     21706    TIP3     H1       HT       0.417000       1.00800           0
     75034 TIP3     21706    TIP3     H2       HT       0.417000       1.00800           0
     75035 TIP3     21707    TIP3     OH2      OT      -0.834000       15.9994           0
     75036 TIP3     21707    TIP3     H1       HT       0.417000       1.00800           0
     75037 TIP3     21707    TIP3     H2       HT       0.417000       1.00800           0
     75038 TIP3     21708    TIP3     OH2      OT      -0.834000       15.9994           0
     75039 TIP3     21708    TIP3     H1       HT       0.417000       1.00800           0
     75040 TIP3     21708    TIP3     H2       HT       0.417000       1.00800           0
     75041 TIP3     21709    TIP3     OH2      OT      -0.834000       15.9994           0
     75042 TIP3     21709    TIP3     H1       HT       0.417000       1.00800           0
     75043 TIP3     21709    TIP3     H2       HT       0.417000       1.00800           0
     75044 TIP3     21710    TIP3     OH2      OT      -0.834000       15.9994           0
     75045 TIP3     21710    TIP3     H1       HT       0.417000       1.00800           0
     75046 TIP3     21710    TIP3     H2       HT       0.417000       1.00800           0
     75047 TIP3     21711    TIP3     OH2      OT      -0.834000       15.9994           0
     75048 TIP3     21711    TIP3     H1       HT       0.417000       1.00800           0
     75049 TIP3     21711    TIP3     H2       HT       0.417000       1.00800           0
     75050 TIP3     21712    TIP3     OH2      OT      -0.834000       15.9994           0
     75051 TIP3     21712    TIP3     H1       HT       0.417000       1.00800           0
     75052 TIP3     21712    TIP3     H2       HT       0.417000       1.00800           0
     75053 TIP3     21713    TIP3     OH2      OT      -0.834000       15.9994           0
     75054 TIP3     21713    TIP3     H1       HT       0.417000       1.00800           0
     75055 TIP3     21713    TIP3     H2       HT       0.417000       1.00800           0
     75056 TIP3     21714    TIP3     OH2      OT      -0.834000       15.9994           0
     75057 TIP3     21714    TIP3     H1       HT       0.417000       1.00800           0
     75058 TIP3     21714    TIP3     H2       HT       0.417000       1.00800           0
     75059 TIP3     21715    TIP3     OH2      OT      -0.834000       15.9994           0
     75060 TIP3     21715    TIP3     H1       HT       0.417000       1.00800           0
     75061 TIP3     21715    TIP3     H2       HT       0.417000       1.00800           0
     75062 TIP3     21716    TIP3     OH2      OT      -0.834000       15.9994           0
     75063 TIP3     21716    TIP3     H1       HT       0.417000       1.00800           0
     75064 TIP3     21716    TIP3     H2       HT       0.417000       1.00800           0
     75065 TIP3     21717    TIP3     OH2      OT      -0.834000       15.9994           0
     75066 TIP3     21717    TIP3     H1       HT       0.417000       1.00800           0
     75067 TIP3     21717    TIP3     H2       HT       0.417000       1.00800           0
     75068 TIP3     21718    TIP3     OH2      OT      -0.834000       15.9994           0
     75069 TIP3     21718    TIP3     H1       HT       0.417000       1.00800           0
     75070 TIP3     21718    TIP3     H2       HT       0.417000       1.00800           0
     75071 TIP3     21719    TIP3     OH2      OT      -0.834000       15.9994           0
     75072 TIP3     21719    TIP3     H1       HT       0.417000       1.00800           0
     75073 TIP3     21719    TIP3     H2       HT       0.417000       1.00800           0
     75074 TIP3     21720    TIP3     OH2      OT      -0.834000       15.9994           0
     75075 TIP3     21720    TIP3     H1       HT       0.417000       1.00800           0
     75076 TIP3     21720    TIP3     H2       HT       0.417000       1.00800           0
     75077 TIP3     21721    TIP3     OH2      OT      -0.834000       15.9994           0
     75078 TIP3     21721    TIP3     H1       HT       0.417000       1.00800           0
     75079 TIP3     21721    TIP3     H2       HT       0.417000       1.00800           0
     75080 TIP3     21722    TIP3     OH2      OT      -0.834000       15.9994           0
     75081 TIP3     21722    TIP3     H1       HT       0.417000       1.00800           0
     75082 TIP3     21722    TIP3     H2       HT       0.417000       1.00800           0
     75083 TIP3     21723    TIP3     OH2      OT      -0.834000       15.9994           0
     75084 TIP3     21723    TIP3     H1       HT       0.417000       1.00800           0
     75085 TIP3     21723    TIP3     H2       HT       0.417000       1.00800           0
     75086 TIP3     21724    TIP3     OH2      OT      -0.834000       15.9994           0
     75087 TIP3     21724    TIP3     H1       HT       0.417000       1.00800           0
     75088 TIP3     21724    TIP3     H2       HT       0.417000       1.00800           0
     75089 TIP3     21725    TIP3     OH2      OT      -0.834000       15.9994           0
     75090 TIP3     21725    TIP3     H1       HT       0.417000       1.00800           0
     75091 TIP3     21725    TIP3     H2       HT       0.417000       1.00800           0
     75092 TIP3     21726    TIP3     OH2      OT      -0.834000       15.9994           0
     75093 TIP3     21726    TIP3     H1       HT       0.417000       1.00800           0
     75094 TIP3     21726    TIP3     H2       HT       0.417000       1.00800           0
     75095 TIP3     21727    TIP3     OH2      OT      -0.834000       15.9994           0
     75096 TIP3     21727    TIP3     H1       HT       0.417000       1.00800           0
     75097 TIP3     21727    TIP3     H2       HT       0.417000       1.00800           0
     75098 TIP3     21728    TIP3     OH2      OT      -0.834000       15.9994           0
     75099 TIP3     21728    TIP3     H1       HT       0.417000       1.00800           0
     75100 TIP3     21728    TIP3     H2       HT       0.417000       1.00800           0
     75101 TIP3     21729    TIP3     OH2      OT      -0.834000       15.9994           0
     75102 TIP3     21729    TIP3     H1       HT       0.417000       1.00800           0
     75103 TIP3     21729    TIP3     H2       HT       0.417000       1.00800           0
     75104 TIP3     21730    TIP3     OH2      OT      -0.834000       15.9994           0
     75105 TIP3     21730    TIP3     H1       HT       0.417000       1.00800           0
     75106 TIP3     21730    TIP3     H2       HT       0.417000       1.00800           0
     75107 TIP3     21731    TIP3     OH2      OT      -0.834000       15.9994           0
     75108 TIP3     21731    TIP3     H1       HT       0.417000       1.00800           0
     75109 TIP3     21731    TIP3     H2       HT       0.417000       1.00800           0
     75110 TIP3     21732    TIP3     OH2      OT      -0.834000       15.9994           0
     75111 TIP3     21732    TIP3     H1       HT       0.417000       1.00800           0
     75112 TIP3     21732    TIP3     H2       HT       0.417000       1.00800           0
     75113 TIP3     21733    TIP3     OH2      OT      -0.834000       15.9994           0
     75114 TIP3     21733    TIP3     H1       HT       0.417000       1.00800           0
     75115 TIP3     21733    TIP3     H2       HT       0.417000       1.00800           0
     75116 TIP3     21734    TIP3     OH2      OT      -0.834000       15.9994           0
     75117 TIP3     21734    TIP3     H1       HT       0.417000       1.00800           0
     75118 TIP3     21734    TIP3     H2       HT       0.417000       1.00800           0
     75119 TIP3     21735    TIP3     OH2      OT      -0.834000       15.9994           0
     75120 TIP3     21735    TIP3     H1       HT       0.417000       1.00800           0
     75121 TIP3     21735    TIP3     H2       HT       0.417000       1.00800           0
     75122 TIP3     21736    TIP3     OH2      OT      -0.834000       15.9994           0
     75123 TIP3     21736    TIP3     H1       HT       0.417000       1.00800           0
     75124 TIP3     21736    TIP3     H2       HT       0.417000       1.00800           0
     75125 TIP3     21737    TIP3     OH2      OT      -0.834000       15.9994           0
     75126 TIP3     21737    TIP3     H1       HT       0.417000       1.00800           0
     75127 TIP3     21737    TIP3     H2       HT       0.417000       1.00800           0
     75128 TIP3     21738    TIP3     OH2      OT      -0.834000       15.9994           0
     75129 TIP3     21738    TIP3     H1       HT       0.417000       1.00800           0
     75130 TIP3     21738    TIP3     H2       HT       0.417000       1.00800           0
     75131 TIP3     21739    TIP3     OH2      OT      -0.834000       15.9994           0
     75132 TIP3     21739    TIP3     H1       HT       0.417000       1.00800           0
     75133 TIP3     21739    TIP3     H2       HT       0.417000       1.00800           0
     75134 TIP3     21740    TIP3     OH2      OT      -0.834000       15.9994           0
     75135 TIP3     21740    TIP3     H1       HT       0.417000       1.00800           0
     75136 TIP3     21740    TIP3     H2       HT       0.417000       1.00800           0
     75137 TIP3     21741    TIP3     OH2      OT      -0.834000       15.9994           0
     75138 TIP3     21741    TIP3     H1       HT       0.417000       1.00800           0
     75139 TIP3     21741    TIP3     H2       HT       0.417000       1.00800           0
     75140 TIP3     21742    TIP3     OH2      OT      -0.834000       15.9994           0
     75141 TIP3     21742    TIP3     H1       HT       0.417000       1.00800           0
     75142 TIP3     21742    TIP3     H2       HT       0.417000       1.00800           0
     75143 TIP3     21743    TIP3     OH2      OT      -0.834000       15.9994           0
     75144 TIP3     21743    TIP3     H1       HT       0.417000       1.00800           0
     75145 TIP3     21743    TIP3     H2       HT       0.417000       1.00800           0
     75146 TIP3     21744    TIP3     OH2      OT      -0.834000       15.9994           0
     75147 TIP3     21744    TIP3     H1       HT       0.417000       1.00800           0
     75148 TIP3     21744    TIP3     H2       HT       0.417000       1.00800           0
     75149 TIP3     21745    TIP3     OH2      OT      -0.834000       15.9994           0
     75150 TIP3     21745    TIP3     H1       HT       0.417000       1.00800           0
     75151 TIP3     21745    TIP3     H2       HT       0.417000       1.00800           0
     75152 TIP3     21746    TIP3     OH2      OT      -0.834000       15.9994           0
     75153 TIP3     21746    TIP3     H1       HT       0.417000       1.00800           0
     75154 TIP3     21746    TIP3     H2       HT       0.417000       1.00800           0
     75155 TIP3     21747    TIP3     OH2      OT      -0.834000       15.9994           0
     75156 TIP3     21747    TIP3     H1       HT       0.417000       1.00800           0
     75157 TIP3     21747    TIP3     H2       HT       0.417000       1.00800           0
     75158 TIP3     21748    TIP3     OH2      OT      -0.834000       15.9994           0
     75159 TIP3     21748    TIP3     H1       HT       0.417000       1.00800           0
     75160 TIP3     21748    TIP3     H2       HT       0.417000       1.00800           0
     75161 TIP3     21749    TIP3     OH2      OT      -0.834000       15.9994           0
     75162 TIP3     21749    TIP3     H1       HT       0.417000       1.00800           0
     75163 TIP3     21749    TIP3     H2       HT       0.417000       1.00800           0
     75164 TIP3     21750    TIP3     OH2      OT      -0.834000       15.9994           0
     75165 TIP3     21750    TIP3     H1       HT       0.417000       1.00800           0
     75166 TIP3     21750    TIP3     H2       HT       0.417000       1.00800           0
     75167 TIP3     21751    TIP3     OH2      OT      -0.834000       15.9994           0
     75168 TIP3     21751    TIP3     H1       HT       0.417000       1.00800           0
     75169 TIP3     21751    TIP3     H2       HT       0.417000       1.00800           0
     75170 TIP3     21752    TIP3     OH2      OT      -0.834000       15.9994           0
     75171 TIP3     21752    TIP3     H1       HT       0.417000       1.00800           0
     75172 TIP3     21752    TIP3     H2       HT       0.417000       1.00800           0
     75173 TIP3     21753    TIP3     OH2      OT      -0.834000       15.9994           0
     75174 TIP3     21753    TIP3     H1       HT       0.417000       1.00800           0
     75175 TIP3     21753    TIP3     H2       HT       0.417000       1.00800           0
     75176 TIP3     21754    TIP3     OH2      OT      -0.834000       15.9994           0
     75177 TIP3     21754    TIP3     H1       HT       0.417000       1.00800           0
     75178 TIP3     21754    TIP3     H2       HT       0.417000       1.00800           0
     75179 TIP3     21755    TIP3     OH2      OT      -0.834000       15.9994           0
     75180 TIP3     21755    TIP3     H1       HT       0.417000       1.00800           0
     75181 TIP3     21755    TIP3     H2       HT       0.417000       1.00800           0
     75182 TIP3     21756    TIP3     OH2      OT      -0.834000       15.9994           0
     75183 TIP3     21756    TIP3     H1       HT       0.417000       1.00800           0
     75184 TIP3     21756    TIP3     H2       HT       0.417000       1.00800           0
     75185 TIP3     21757    TIP3     OH2      OT      -0.834000       15.9994           0
     75186 TIP3     21757    TIP3     H1       HT       0.417000       1.00800           0
     75187 TIP3     21757    TIP3     H2       HT       0.417000       1.00800           0
     75188 TIP3     21758    TIP3     OH2      OT      -0.834000       15.9994           0
     75189 TIP3     21758    TIP3     H1       HT       0.417000       1.00800           0
     75190 TIP3     21758    TIP3     H2       HT       0.417000       1.00800           0
     75191 TIP3     21759    TIP3     OH2      OT      -0.834000       15.9994           0
     75192 TIP3     21759    TIP3     H1       HT       0.417000       1.00800           0
     75193 TIP3     21759    TIP3     H2       HT       0.417000       1.00800           0
     75194 TIP3     21760    TIP3     OH2      OT      -0.834000       15.9994           0
     75195 TIP3     21760    TIP3     H1       HT       0.417000       1.00800           0
     75196 TIP3     21760    TIP3     H2       HT       0.417000       1.00800           0
     75197 TIP3     21761    TIP3     OH2      OT      -0.834000       15.9994           0
     75198 TIP3     21761    TIP3     H1       HT       0.417000       1.00800           0
     75199 TIP3     21761    TIP3     H2       HT       0.417000       1.00800           0
     75200 TIP3     21762    TIP3     OH2      OT      -0.834000       15.9994           0
     75201 TIP3     21762    TIP3     H1       HT       0.417000       1.00800           0
     75202 TIP3     21762    TIP3     H2       HT       0.417000       1.00800           0
     75203 TIP3     21763    TIP3     OH2      OT      -0.834000       15.9994           0
     75204 TIP3     21763    TIP3     H1       HT       0.417000       1.00800           0
     75205 TIP3     21763    TIP3     H2       HT       0.417000       1.00800           0
     75206 TIP3     21764    TIP3     OH2      OT      -0.834000       15.9994           0
     75207 TIP3     21764    TIP3     H1       HT       0.417000       1.00800           0
     75208 TIP3     21764    TIP3     H2       HT       0.417000       1.00800           0
     75209 TIP3     21765    TIP3     OH2      OT      -0.834000       15.9994           0
     75210 TIP3     21765    TIP3     H1       HT       0.417000       1.00800           0
     75211 TIP3     21765    TIP3     H2       HT       0.417000       1.00800           0
     75212 TIP3     21766    TIP3     OH2      OT      -0.834000       15.9994           0
     75213 TIP3     21766    TIP3     H1       HT       0.417000       1.00800           0
     75214 TIP3     21766    TIP3     H2       HT       0.417000       1.00800           0
     75215 TIP3     21767    TIP3     OH2      OT      -0.834000       15.9994           0
     75216 TIP3     21767    TIP3     H1       HT       0.417000       1.00800           0
     75217 TIP3     21767    TIP3     H2       HT       0.417000       1.00800           0
     75218 TIP3     21768    TIP3     OH2      OT      -0.834000       15.9994           0
     75219 TIP3     21768    TIP3     H1       HT       0.417000       1.00800           0
     75220 TIP3     21768    TIP3     H2       HT       0.417000       1.00800           0
     75221 TIP3     21769    TIP3     OH2      OT      -0.834000       15.9994           0
     75222 TIP3     21769    TIP3     H1       HT       0.417000       1.00800           0
     75223 TIP3     21769    TIP3     H2       HT       0.417000       1.00800           0
     75224 TIP3     21770    TIP3     OH2      OT      -0.834000       15.9994           0
     75225 TIP3     21770    TIP3     H1       HT       0.417000       1.00800           0
     75226 TIP3     21770    TIP3     H2       HT       0.417000       1.00800           0
     75227 TIP3     21771    TIP3     OH2      OT      -0.834000       15.9994           0
     75228 TIP3     21771    TIP3     H1       HT       0.417000       1.00800           0
     75229 TIP3     21771    TIP3     H2       HT       0.417000       1.00800           0
     75230 TIP3     21772    TIP3     OH2      OT      -0.834000       15.9994           0
     75231 TIP3     21772    TIP3     H1       HT       0.417000       1.00800           0
     75232 TIP3     21772    TIP3     H2       HT       0.417000       1.00800           0
     75233 TIP3     21773    TIP3     OH2      OT      -0.834000       15.9994           0
     75234 TIP3     21773    TIP3     H1       HT       0.417000       1.00800           0
     75235 TIP3     21773    TIP3     H2       HT       0.417000       1.00800           0
     75236 TIP3     21774    TIP3     OH2      OT      -0.834000       15.9994           0
     75237 TIP3     21774    TIP3     H1       HT       0.417000       1.00800           0
     75238 TIP3     21774    TIP3     H2       HT       0.417000       1.00800           0
     75239 TIP3     21775    TIP3     OH2      OT      -0.834000       15.9994           0
     75240 TIP3     21775    TIP3     H1       HT       0.417000       1.00800           0
     75241 TIP3     21775    TIP3     H2       HT       0.417000       1.00800           0
     75242 TIP3     21776    TIP3     OH2      OT      -0.834000       15.9994           0
     75243 TIP3     21776    TIP3     H1       HT       0.417000       1.00800           0
     75244 TIP3     21776    TIP3     H2       HT       0.417000       1.00800           0
     75245 TIP3     21777    TIP3     OH2      OT      -0.834000       15.9994           0
     75246 TIP3     21777    TIP3     H1       HT       0.417000       1.00800           0
     75247 TIP3     21777    TIP3     H2       HT       0.417000       1.00800           0
     75248 TIP3     21778    TIP3     OH2      OT      -0.834000       15.9994           0
     75249 TIP3     21778    TIP3     H1       HT       0.417000       1.00800           0
     75250 TIP3     21778    TIP3     H2       HT       0.417000       1.00800           0
     75251 TIP3     21779    TIP3     OH2      OT      -0.834000       15.9994           0
     75252 TIP3     21779    TIP3     H1       HT       0.417000       1.00800           0
     75253 TIP3     21779    TIP3     H2       HT       0.417000       1.00800           0
     75254 TIP3     21780    TIP3     OH2      OT      -0.834000       15.9994           0
     75255 TIP3     21780    TIP3     H1       HT       0.417000       1.00800           0
     75256 TIP3     21780    TIP3     H2       HT       0.417000       1.00800           0
     75257 TIP3     21781    TIP3     OH2      OT      -0.834000       15.9994           0
     75258 TIP3     21781    TIP3     H1       HT       0.417000       1.00800           0
     75259 TIP3     21781    TIP3     H2       HT       0.417000       1.00800           0
     75260 TIP3     21782    TIP3     OH2      OT      -0.834000       15.9994           0
     75261 TIP3     21782    TIP3     H1       HT       0.417000       1.00800           0
     75262 TIP3     21782    TIP3     H2       HT       0.417000       1.00800           0
     75263 TIP3     21783    TIP3     OH2      OT      -0.834000       15.9994           0
     75264 TIP3     21783    TIP3     H1       HT       0.417000       1.00800           0
     75265 TIP3     21783    TIP3     H2       HT       0.417000       1.00800           0
     75266 TIP3     21784    TIP3     OH2      OT      -0.834000       15.9994           0
     75267 TIP3     21784    TIP3     H1       HT       0.417000       1.00800           0
     75268 TIP3     21784    TIP3     H2       HT       0.417000       1.00800           0
     75269 TIP3     21785    TIP3     OH2      OT      -0.834000       15.9994           0
     75270 TIP3     21785    TIP3     H1       HT       0.417000       1.00800           0
     75271 TIP3     21785    TIP3     H2       HT       0.417000       1.00800           0
     75272 TIP3     21786    TIP3     OH2      OT      -0.834000       15.9994           0
     75273 TIP3     21786    TIP3     H1       HT       0.417000       1.00800           0
     75274 TIP3     21786    TIP3     H2       HT       0.417000       1.00800           0
     75275 TIP3     21787    TIP3     OH2      OT      -0.834000       15.9994           0
     75276 TIP3     21787    TIP3     H1       HT       0.417000       1.00800           0
     75277 TIP3     21787    TIP3     H2       HT       0.417000       1.00800           0
     75278 TIP3     21788    TIP3     OH2      OT      -0.834000       15.9994           0
     75279 TIP3     21788    TIP3     H1       HT       0.417000       1.00800           0
     75280 TIP3     21788    TIP3     H2       HT       0.417000       1.00800           0
     75281 TIP3     21789    TIP3     OH2      OT      -0.834000       15.9994           0
     75282 TIP3     21789    TIP3     H1       HT       0.417000       1.00800           0
     75283 TIP3     21789    TIP3     H2       HT       0.417000       1.00800           0
     75284 TIP3     21790    TIP3     OH2      OT      -0.834000       15.9994           0
     75285 TIP3     21790    TIP3     H1       HT       0.417000       1.00800           0
     75286 TIP3     21790    TIP3     H2       HT       0.417000       1.00800           0
     75287 TIP3     21791    TIP3     OH2      OT      -0.834000       15.9994           0
     75288 TIP3     21791    TIP3     H1       HT       0.417000       1.00800           0
     75289 TIP3     21791    TIP3     H2       HT       0.417000       1.00800           0
     75290 TIP3     21792    TIP3     OH2      OT      -0.834000       15.9994           0
     75291 TIP3     21792    TIP3     H1       HT       0.417000       1.00800           0
     75292 TIP3     21792    TIP3     H2       HT       0.417000       1.00800           0
     75293 TIP3     21793    TIP3     OH2      OT      -0.834000       15.9994           0
     75294 TIP3     21793    TIP3     H1       HT       0.417000       1.00800           0
     75295 TIP3     21793    TIP3     H2       HT       0.417000       1.00800           0
     75296 TIP3     21794    TIP3     OH2      OT      -0.834000       15.9994           0
     75297 TIP3     21794    TIP3     H1       HT       0.417000       1.00800           0
     75298 TIP3     21794    TIP3     H2       HT       0.417000       1.00800           0
     75299 TIP3     21795    TIP3     OH2      OT      -0.834000       15.9994           0
     75300 TIP3     21795    TIP3     H1       HT       0.417000       1.00800           0
     75301 TIP3     21795    TIP3     H2       HT       0.417000       1.00800           0
     75302 TIP3     21796    TIP3     OH2      OT      -0.834000       15.9994           0
     75303 TIP3     21796    TIP3     H1       HT       0.417000       1.00800           0
     75304 TIP3     21796    TIP3     H2       HT       0.417000       1.00800           0
     75305 TIP3     21797    TIP3     OH2      OT      -0.834000       15.9994           0
     75306 TIP3     21797    TIP3     H1       HT       0.417000       1.00800           0
     75307 TIP3     21797    TIP3     H2       HT       0.417000       1.00800           0
     75308 TIP3     21798    TIP3     OH2      OT      -0.834000       15.9994           0
     75309 TIP3     21798    TIP3     H1       HT       0.417000       1.00800           0
     75310 TIP3     21798    TIP3     H2       HT       0.417000       1.00800           0
     75311 TIP3     21799    TIP3     OH2      OT      -0.834000       15.9994           0
     75312 TIP3     21799    TIP3     H1       HT       0.417000       1.00800           0
     75313 TIP3     21799    TIP3     H2       HT       0.417000       1.00800           0
     75314 TIP3     21800    TIP3     OH2      OT      -0.834000       15.9994           0
     75315 TIP3     21800    TIP3     H1       HT       0.417000       1.00800           0
     75316 TIP3     21800    TIP3     H2       HT       0.417000       1.00800           0
     75317 TIP3     21801    TIP3     OH2      OT      -0.834000       15.9994           0
     75318 TIP3     21801    TIP3     H1       HT       0.417000       1.00800           0
     75319 TIP3     21801    TIP3     H2       HT       0.417000       1.00800           0
     75320 TIP3     21802    TIP3     OH2      OT      -0.834000       15.9994           0
     75321 TIP3     21802    TIP3     H1       HT       0.417000       1.00800           0
     75322 TIP3     21802    TIP3     H2       HT       0.417000       1.00800           0
     75323 TIP3     21803    TIP3     OH2      OT      -0.834000       15.9994           0
     75324 TIP3     21803    TIP3     H1       HT       0.417000       1.00800           0
     75325 TIP3     21803    TIP3     H2       HT       0.417000       1.00800           0
     75326 TIP3     21804    TIP3     OH2      OT      -0.834000       15.9994           0
     75327 TIP3     21804    TIP3     H1       HT       0.417000       1.00800           0
     75328 TIP3     21804    TIP3     H2       HT       0.417000       1.00800           0
     75329 TIP3     21805    TIP3     OH2      OT      -0.834000       15.9994           0
     75330 TIP3     21805    TIP3     H1       HT       0.417000       1.00800           0
     75331 TIP3     21805    TIP3     H2       HT       0.417000       1.00800           0
     75332 TIP3     21806    TIP3     OH2      OT      -0.834000       15.9994           0
     75333 TIP3     21806    TIP3     H1       HT       0.417000       1.00800           0
     75334 TIP3     21806    TIP3     H2       HT       0.417000       1.00800           0
     75335 TIP3     21807    TIP3     OH2      OT      -0.834000       15.9994           0
     75336 TIP3     21807    TIP3     H1       HT       0.417000       1.00800           0
     75337 TIP3     21807    TIP3     H2       HT       0.417000       1.00800           0
     75338 TIP3     21808    TIP3     OH2      OT      -0.834000       15.9994           0
     75339 TIP3     21808    TIP3     H1       HT       0.417000       1.00800           0
     75340 TIP3     21808    TIP3     H2       HT       0.417000       1.00800           0
     75341 TIP3     21809    TIP3     OH2      OT      -0.834000       15.9994           0
     75342 TIP3     21809    TIP3     H1       HT       0.417000       1.00800           0
     75343 TIP3     21809    TIP3     H2       HT       0.417000       1.00800           0
     75344 TIP3     21810    TIP3     OH2      OT      -0.834000       15.9994           0
     75345 TIP3     21810    TIP3     H1       HT       0.417000       1.00800           0
     75346 TIP3     21810    TIP3     H2       HT       0.417000       1.00800           0
     75347 TIP3     21811    TIP3     OH2      OT      -0.834000       15.9994           0
     75348 TIP3     21811    TIP3     H1       HT       0.417000       1.00800           0
     75349 TIP3     21811    TIP3     H2       HT       0.417000       1.00800           0
     75350 TIP3     21812    TIP3     OH2      OT      -0.834000       15.9994           0
     75351 TIP3     21812    TIP3     H1       HT       0.417000       1.00800           0
     75352 TIP3     21812    TIP3     H2       HT       0.417000       1.00800           0
     75353 TIP3     21813    TIP3     OH2      OT      -0.834000       15.9994           0
     75354 TIP3     21813    TIP3     H1       HT       0.417000       1.00800           0
     75355 TIP3     21813    TIP3     H2       HT       0.417000       1.00800           0
     75356 TIP3     21814    TIP3     OH2      OT      -0.834000       15.9994           0
     75357 TIP3     21814    TIP3     H1       HT       0.417000       1.00800           0
     75358 TIP3     21814    TIP3     H2       HT       0.417000       1.00800           0
     75359 TIP3     21815    TIP3     OH2      OT      -0.834000       15.9994           0
     75360 TIP3     21815    TIP3     H1       HT       0.417000       1.00800           0
     75361 TIP3     21815    TIP3     H2       HT       0.417000       1.00800           0
     75362 TIP3     21816    TIP3     OH2      OT      -0.834000       15.9994           0
     75363 TIP3     21816    TIP3     H1       HT       0.417000       1.00800           0
     75364 TIP3     21816    TIP3     H2       HT       0.417000       1.00800           0
     75365 TIP3     21817    TIP3     OH2      OT      -0.834000       15.9994           0
     75366 TIP3     21817    TIP3     H1       HT       0.417000       1.00800           0
     75367 TIP3     21817    TIP3     H2       HT       0.417000       1.00800           0
     75368 TIP3     21818    TIP3     OH2      OT      -0.834000       15.9994           0
     75369 TIP3     21818    TIP3     H1       HT       0.417000       1.00800           0
     75370 TIP3     21818    TIP3     H2       HT       0.417000       1.00800           0
     75371 TIP3     21819    TIP3     OH2      OT      -0.834000       15.9994           0
     75372 TIP3     21819    TIP3     H1       HT       0.417000       1.00800           0
     75373 TIP3     21819    TIP3     H2       HT       0.417000       1.00800           0
     75374 TIP3     21820    TIP3     OH2      OT      -0.834000       15.9994           0
     75375 TIP3     21820    TIP3     H1       HT       0.417000       1.00800           0
     75376 TIP3     21820    TIP3     H2       HT       0.417000       1.00800           0
     75377 TIP3     21821    TIP3     OH2      OT      -0.834000       15.9994           0
     75378 TIP3     21821    TIP3     H1       HT       0.417000       1.00800           0
     75379 TIP3     21821    TIP3     H2       HT       0.417000       1.00800           0
     75380 TIP3     21822    TIP3     OH2      OT      -0.834000       15.9994           0
     75381 TIP3     21822    TIP3     H1       HT       0.417000       1.00800           0
     75382 TIP3     21822    TIP3     H2       HT       0.417000       1.00800           0
     75383 TIP3     21823    TIP3     OH2      OT      -0.834000       15.9994           0
     75384 TIP3     21823    TIP3     H1       HT       0.417000       1.00800           0
     75385 TIP3     21823    TIP3     H2       HT       0.417000       1.00800           0
     75386 TIP3     21824    TIP3     OH2      OT      -0.834000       15.9994           0
     75387 TIP3     21824    TIP3     H1       HT       0.417000       1.00800           0
     75388 TIP3     21824    TIP3     H2       HT       0.417000       1.00800           0
     75389 TIP3     21825    TIP3     OH2      OT      -0.834000       15.9994           0
     75390 TIP3     21825    TIP3     H1       HT       0.417000       1.00800           0
     75391 TIP3     21825    TIP3     H2       HT       0.417000       1.00800           0
     75392 TIP3     21826    TIP3     OH2      OT      -0.834000       15.9994           0
     75393 TIP3     21826    TIP3     H1       HT       0.417000       1.00800           0
     75394 TIP3     21826    TIP3     H2       HT       0.417000       1.00800           0
     75395 TIP3     21827    TIP3     OH2      OT      -0.834000       15.9994           0
     75396 TIP3     21827    TIP3     H1       HT       0.417000       1.00800           0
     75397 TIP3     21827    TIP3     H2       HT       0.417000       1.00800           0
     75398 TIP3     21828    TIP3     OH2      OT      -0.834000       15.9994           0
     75399 TIP3     21828    TIP3     H1       HT       0.417000       1.00800           0
     75400 TIP3     21828    TIP3     H2       HT       0.417000       1.00800           0
     75401 TIP3     21829    TIP3     OH2      OT      -0.834000       15.9994           0
     75402 TIP3     21829    TIP3     H1       HT       0.417000       1.00800           0
     75403 TIP3     21829    TIP3     H2       HT       0.417000       1.00800           0
     75404 TIP3     21830    TIP3     OH2      OT      -0.834000       15.9994           0
     75405 TIP3     21830    TIP3     H1       HT       0.417000       1.00800           0
     75406 TIP3     21830    TIP3     H2       HT       0.417000       1.00800           0
     75407 TIP3     21831    TIP3     OH2      OT      -0.834000       15.9994           0
     75408 TIP3     21831    TIP3     H1       HT       0.417000       1.00800           0
     75409 TIP3     21831    TIP3     H2       HT       0.417000       1.00800           0
     75410 TIP3     21832    TIP3     OH2      OT      -0.834000       15.9994           0
     75411 TIP3     21832    TIP3     H1       HT       0.417000       1.00800           0
     75412 TIP3     21832    TIP3     H2       HT       0.417000       1.00800           0
     75413 TIP3     21833    TIP3     OH2      OT      -0.834000       15.9994           0
     75414 TIP3     21833    TIP3     H1       HT       0.417000       1.00800           0
     75415 TIP3     21833    TIP3     H2       HT       0.417000       1.00800           0
     75416 TIP3     21834    TIP3     OH2      OT      -0.834000       15.9994           0
     75417 TIP3     21834    TIP3     H1       HT       0.417000       1.00800           0
     75418 TIP3     21834    TIP3     H2       HT       0.417000       1.00800           0
     75419 TIP3     21835    TIP3     OH2      OT      -0.834000       15.9994           0
     75420 TIP3     21835    TIP3     H1       HT       0.417000       1.00800           0
     75421 TIP3     21835    TIP3     H2       HT       0.417000       1.00800           0
     75422 TIP3     21836    TIP3     OH2      OT      -0.834000       15.9994           0
     75423 TIP3     21836    TIP3     H1       HT       0.417000       1.00800           0
     75424 TIP3     21836    TIP3     H2       HT       0.417000       1.00800           0
     75425 TIP3     21837    TIP3     OH2      OT      -0.834000       15.9994           0
     75426 TIP3     21837    TIP3     H1       HT       0.417000       1.00800           0
     75427 TIP3     21837    TIP3     H2       HT       0.417000       1.00800           0
     75428 TIP3     21838    TIP3     OH2      OT      -0.834000       15.9994           0
     75429 TIP3     21838    TIP3     H1       HT       0.417000       1.00800           0
     75430 TIP3     21838    TIP3     H2       HT       0.417000       1.00800           0
     75431 TIP3     21839    TIP3     OH2      OT      -0.834000       15.9994           0
     75432 TIP3     21839    TIP3     H1       HT       0.417000       1.00800           0
     75433 TIP3     21839    TIP3     H2       HT       0.417000       1.00800           0
     75434 TIP3     21840    TIP3     OH2      OT      -0.834000       15.9994           0
     75435 TIP3     21840    TIP3     H1       HT       0.417000       1.00800           0
     75436 TIP3     21840    TIP3     H2       HT       0.417000       1.00800           0
     75437 TIP3     21841    TIP3     OH2      OT      -0.834000       15.9994           0
     75438 TIP3     21841    TIP3     H1       HT       0.417000       1.00800           0
     75439 TIP3     21841    TIP3     H2       HT       0.417000       1.00800           0
     75440 TIP3     21842    TIP3     OH2      OT      -0.834000       15.9994           0
     75441 TIP3     21842    TIP3     H1       HT       0.417000       1.00800           0
     75442 TIP3     21842    TIP3     H2       HT       0.417000       1.00800           0
     75443 TIP3     21843    TIP3     OH2      OT      -0.834000       15.9994           0
     75444 TIP3     21843    TIP3     H1       HT       0.417000       1.00800           0
     75445 TIP3     21843    TIP3     H2       HT       0.417000       1.00800           0
     75446 TIP3     21844    TIP3     OH2      OT      -0.834000       15.9994           0
     75447 TIP3     21844    TIP3     H1       HT       0.417000       1.00800           0
     75448 TIP3     21844    TIP3     H2       HT       0.417000       1.00800           0
     75449 TIP3     21845    TIP3     OH2      OT      -0.834000       15.9994           0
     75450 TIP3     21845    TIP3     H1       HT       0.417000       1.00800           0
     75451 TIP3     21845    TIP3     H2       HT       0.417000       1.00800           0
     75452 TIP3     21846    TIP3     OH2      OT      -0.834000       15.9994           0
     75453 TIP3     21846    TIP3     H1       HT       0.417000       1.00800           0
     75454 TIP3     21846    TIP3     H2       HT       0.417000       1.00800           0
     75455 TIP3     21847    TIP3     OH2      OT      -0.834000       15.9994           0
     75456 TIP3     21847    TIP3     H1       HT       0.417000       1.00800           0
     75457 TIP3     21847    TIP3     H2       HT       0.417000       1.00800           0
     75458 TIP3     21848    TIP3     OH2      OT      -0.834000       15.9994           0
     75459 TIP3     21848    TIP3     H1       HT       0.417000       1.00800           0
     75460 TIP3     21848    TIP3     H2       HT       0.417000       1.00800           0
     75461 TIP3     21849    TIP3     OH2      OT      -0.834000       15.9994           0
     75462 TIP3     21849    TIP3     H1       HT       0.417000       1.00800           0
     75463 TIP3     21849    TIP3     H2       HT       0.417000       1.00800           0
     75464 TIP3     21850    TIP3     OH2      OT      -0.834000       15.9994           0
     75465 TIP3     21850    TIP3     H1       HT       0.417000       1.00800           0
     75466 TIP3     21850    TIP3     H2       HT       0.417000       1.00800           0
     75467 TIP3     21851    TIP3     OH2      OT      -0.834000       15.9994           0
     75468 TIP3     21851    TIP3     H1       HT       0.417000       1.00800           0
     75469 TIP3     21851    TIP3     H2       HT       0.417000       1.00800           0
     75470 TIP3     21852    TIP3     OH2      OT      -0.834000       15.9994           0
     75471 TIP3     21852    TIP3     H1       HT       0.417000       1.00800           0
     75472 TIP3     21852    TIP3     H2       HT       0.417000       1.00800           0
     75473 TIP3     21853    TIP3     OH2      OT      -0.834000       15.9994           0
     75474 TIP3     21853    TIP3     H1       HT       0.417000       1.00800           0
     75475 TIP3     21853    TIP3     H2       HT       0.417000       1.00800           0
     75476 TIP3     21854    TIP3     OH2      OT      -0.834000       15.9994           0
     75477 TIP3     21854    TIP3     H1       HT       0.417000       1.00800           0
     75478 TIP3     21854    TIP3     H2       HT       0.417000       1.00800           0
     75479 TIP3     21855    TIP3     OH2      OT      -0.834000       15.9994           0
     75480 TIP3     21855    TIP3     H1       HT       0.417000       1.00800           0
     75481 TIP3     21855    TIP3     H2       HT       0.417000       1.00800           0
     75482 TIP3     21856    TIP3     OH2      OT      -0.834000       15.9994           0
     75483 TIP3     21856    TIP3     H1       HT       0.417000       1.00800           0
     75484 TIP3     21856    TIP3     H2       HT       0.417000       1.00800           0
     75485 TIP3     21857    TIP3     OH2      OT      -0.834000       15.9994           0
     75486 TIP3     21857    TIP3     H1       HT       0.417000       1.00800           0
     75487 TIP3     21857    TIP3     H2       HT       0.417000       1.00800           0
     75488 TIP3     21858    TIP3     OH2      OT      -0.834000       15.9994           0
     75489 TIP3     21858    TIP3     H1       HT       0.417000       1.00800           0
     75490 TIP3     21858    TIP3     H2       HT       0.417000       1.00800           0
     75491 TIP3     21859    TIP3     OH2      OT      -0.834000       15.9994           0
     75492 TIP3     21859    TIP3     H1       HT       0.417000       1.00800           0
     75493 TIP3     21859    TIP3     H2       HT       0.417000       1.00800           0
     75494 TIP3     21860    TIP3     OH2      OT      -0.834000       15.9994           0
     75495 TIP3     21860    TIP3     H1       HT       0.417000       1.00800           0
     75496 TIP3     21860    TIP3     H2       HT       0.417000       1.00800           0
     75497 TIP3     21861    TIP3     OH2      OT      -0.834000       15.9994           0
     75498 TIP3     21861    TIP3     H1       HT       0.417000       1.00800           0
     75499 TIP3     21861    TIP3     H2       HT       0.417000       1.00800           0
     75500 TIP3     21862    TIP3     OH2      OT      -0.834000       15.9994           0
     75501 TIP3     21862    TIP3     H1       HT       0.417000       1.00800           0
     75502 TIP3     21862    TIP3     H2       HT       0.417000       1.00800           0
     75503 TIP3     21863    TIP3     OH2      OT      -0.834000       15.9994           0
     75504 TIP3     21863    TIP3     H1       HT       0.417000       1.00800           0
     75505 TIP3     21863    TIP3     H2       HT       0.417000       1.00800           0
     75506 TIP3     21864    TIP3     OH2      OT      -0.834000       15.9994           0
     75507 TIP3     21864    TIP3     H1       HT       0.417000       1.00800           0
     75508 TIP3     21864    TIP3     H2       HT       0.417000       1.00800           0
     75509 TIP3     21865    TIP3     OH2      OT      -0.834000       15.9994           0
     75510 TIP3     21865    TIP3     H1       HT       0.417000       1.00800           0
     75511 TIP3     21865    TIP3     H2       HT       0.417000       1.00800           0
     75512 TIP3     21866    TIP3     OH2      OT      -0.834000       15.9994           0
     75513 TIP3     21866    TIP3     H1       HT       0.417000       1.00800           0
     75514 TIP3     21866    TIP3     H2       HT       0.417000       1.00800           0
     75515 TIP3     21867    TIP3     OH2      OT      -0.834000       15.9994           0
     75516 TIP3     21867    TIP3     H1       HT       0.417000       1.00800           0
     75517 TIP3     21867    TIP3     H2       HT       0.417000       1.00800           0
     75518 TIP3     21868    TIP3     OH2      OT      -0.834000       15.9994           0
     75519 TIP3     21868    TIP3     H1       HT       0.417000       1.00800           0
     75520 TIP3     21868    TIP3     H2       HT       0.417000       1.00800           0
     75521 TIP3     21869    TIP3     OH2      OT      -0.834000       15.9994           0
     75522 TIP3     21869    TIP3     H1       HT       0.417000       1.00800           0
     75523 TIP3     21869    TIP3     H2       HT       0.417000       1.00800           0
     75524 TIP3     21870    TIP3     OH2      OT      -0.834000       15.9994           0
     75525 TIP3     21870    TIP3     H1       HT       0.417000       1.00800           0
     75526 TIP3     21870    TIP3     H2       HT       0.417000       1.00800           0
     75527 TIP3     21871    TIP3     OH2      OT      -0.834000       15.9994           0
     75528 TIP3     21871    TIP3     H1       HT       0.417000       1.00800           0
     75529 TIP3     21871    TIP3     H2       HT       0.417000       1.00800           0
     75530 TIP3     21872    TIP3     OH2      OT      -0.834000       15.9994           0
     75531 TIP3     21872    TIP3     H1       HT       0.417000       1.00800           0
     75532 TIP3     21872    TIP3     H2       HT       0.417000       1.00800           0
     75533 TIP3     21873    TIP3     OH2      OT      -0.834000       15.9994           0
     75534 TIP3     21873    TIP3     H1       HT       0.417000       1.00800           0
     75535 TIP3     21873    TIP3     H2       HT       0.417000       1.00800           0
     75536 TIP3     21874    TIP3     OH2      OT      -0.834000       15.9994           0
     75537 TIP3     21874    TIP3     H1       HT       0.417000       1.00800           0
     75538 TIP3     21874    TIP3     H2       HT       0.417000       1.00800           0
     75539 TIP3     21875    TIP3     OH2      OT      -0.834000       15.9994           0
     75540 TIP3     21875    TIP3     H1       HT       0.417000       1.00800           0
     75541 TIP3     21875    TIP3     H2       HT       0.417000       1.00800           0
     75542 TIP3     21876    TIP3     OH2      OT      -0.834000       15.9994           0
     75543 TIP3     21876    TIP3     H1       HT       0.417000       1.00800           0
     75544 TIP3     21876    TIP3     H2       HT       0.417000       1.00800           0
     75545 TIP3     21877    TIP3     OH2      OT      -0.834000       15.9994           0
     75546 TIP3     21877    TIP3     H1       HT       0.417000       1.00800           0
     75547 TIP3     21877    TIP3     H2       HT       0.417000       1.00800           0
     75548 TIP3     21878    TIP3     OH2      OT      -0.834000       15.9994           0
     75549 TIP3     21878    TIP3     H1       HT       0.417000       1.00800           0
     75550 TIP3     21878    TIP3     H2       HT       0.417000       1.00800           0
     75551 TIP3     21879    TIP3     OH2      OT      -0.834000       15.9994           0
     75552 TIP3     21879    TIP3     H1       HT       0.417000       1.00800           0
     75553 TIP3     21879    TIP3     H2       HT       0.417000       1.00800           0
     75554 TIP3     21880    TIP3     OH2      OT      -0.834000       15.9994           0
     75555 TIP3     21880    TIP3     H1       HT       0.417000       1.00800           0
     75556 TIP3     21880    TIP3     H2       HT       0.417000       1.00800           0
     75557 TIP3     21881    TIP3     OH2      OT      -0.834000       15.9994           0
     75558 TIP3     21881    TIP3     H1       HT       0.417000       1.00800           0
     75559 TIP3     21881    TIP3     H2       HT       0.417000       1.00800           0
     75560 TIP3     21882    TIP3     OH2      OT      -0.834000       15.9994           0
     75561 TIP3     21882    TIP3     H1       HT       0.417000       1.00800           0
     75562 TIP3     21882    TIP3     H2       HT       0.417000       1.00800           0
     75563 TIP3     21883    TIP3     OH2      OT      -0.834000       15.9994           0
     75564 TIP3     21883    TIP3     H1       HT       0.417000       1.00800           0
     75565 TIP3     21883    TIP3     H2       HT       0.417000       1.00800           0
     75566 TIP3     21884    TIP3     OH2      OT      -0.834000       15.9994           0
     75567 TIP3     21884    TIP3     H1       HT       0.417000       1.00800           0
     75568 TIP3     21884    TIP3     H2       HT       0.417000       1.00800           0
     75569 TIP3     21885    TIP3     OH2      OT      -0.834000       15.9994           0
     75570 TIP3     21885    TIP3     H1       HT       0.417000       1.00800           0
     75571 TIP3     21885    TIP3     H2       HT       0.417000       1.00800           0
     75572 TIP3     21886    TIP3     OH2      OT      -0.834000       15.9994           0
     75573 TIP3     21886    TIP3     H1       HT       0.417000       1.00800           0
     75574 TIP3     21886    TIP3     H2       HT       0.417000       1.00800           0
     75575 TIP3     21887    TIP3     OH2      OT      -0.834000       15.9994           0
     75576 TIP3     21887    TIP3     H1       HT       0.417000       1.00800           0
     75577 TIP3     21887    TIP3     H2       HT       0.417000       1.00800           0
     75578 TIP3     21888    TIP3     OH2      OT      -0.834000       15.9994           0
     75579 TIP3     21888    TIP3     H1       HT       0.417000       1.00800           0
     75580 TIP3     21888    TIP3     H2       HT       0.417000       1.00800           0
     75581 TIP3     21889    TIP3     OH2      OT      -0.834000       15.9994           0
     75582 TIP3     21889    TIP3     H1       HT       0.417000       1.00800           0
     75583 TIP3     21889    TIP3     H2       HT       0.417000       1.00800           0
     75584 TIP3     21890    TIP3     OH2      OT      -0.834000       15.9994           0
     75585 TIP3     21890    TIP3     H1       HT       0.417000       1.00800           0
     75586 TIP3     21890    TIP3     H2       HT       0.417000       1.00800           0
     75587 TIP3     21891    TIP3     OH2      OT      -0.834000       15.9994           0
     75588 TIP3     21891    TIP3     H1       HT       0.417000       1.00800           0
     75589 TIP3     21891    TIP3     H2       HT       0.417000       1.00800           0
     75590 TIP3     21892    TIP3     OH2      OT      -0.834000       15.9994           0
     75591 TIP3     21892    TIP3     H1       HT       0.417000       1.00800           0
     75592 TIP3     21892    TIP3     H2       HT       0.417000       1.00800           0
     75593 TIP3     21893    TIP3     OH2      OT      -0.834000       15.9994           0
     75594 TIP3     21893    TIP3     H1       HT       0.417000       1.00800           0
     75595 TIP3     21893    TIP3     H2       HT       0.417000       1.00800           0
     75596 TIP3     21894    TIP3     OH2      OT      -0.834000       15.9994           0
     75597 TIP3     21894    TIP3     H1       HT       0.417000       1.00800           0
     75598 TIP3     21894    TIP3     H2       HT       0.417000       1.00800           0
     75599 TIP3     21895    TIP3     OH2      OT      -0.834000       15.9994           0
     75600 TIP3     21895    TIP3     H1       HT       0.417000       1.00800           0
     75601 TIP3     21895    TIP3     H2       HT       0.417000       1.00800           0
     75602 TIP3     21896    TIP3     OH2      OT      -0.834000       15.9994           0
     75603 TIP3     21896    TIP3     H1       HT       0.417000       1.00800           0
     75604 TIP3     21896    TIP3     H2       HT       0.417000       1.00800           0
     75605 TIP3     21897    TIP3     OH2      OT      -0.834000       15.9994           0
     75606 TIP3     21897    TIP3     H1       HT       0.417000       1.00800           0
     75607 TIP3     21897    TIP3     H2       HT       0.417000       1.00800           0
     75608 TIP3     21898    TIP3     OH2      OT      -0.834000       15.9994           0
     75609 TIP3     21898    TIP3     H1       HT       0.417000       1.00800           0
     75610 TIP3     21898    TIP3     H2       HT       0.417000       1.00800           0
     75611 TIP3     21899    TIP3     OH2      OT      -0.834000       15.9994           0
     75612 TIP3     21899    TIP3     H1       HT       0.417000       1.00800           0
     75613 TIP3     21899    TIP3     H2       HT       0.417000       1.00800           0
     75614 TIP3     21900    TIP3     OH2      OT      -0.834000       15.9994           0
     75615 TIP3     21900    TIP3     H1       HT       0.417000       1.00800           0
     75616 TIP3     21900    TIP3     H2       HT       0.417000       1.00800           0
     75617 TIP3     21901    TIP3     OH2      OT      -0.834000       15.9994           0
     75618 TIP3     21901    TIP3     H1       HT       0.417000       1.00800           0
     75619 TIP3     21901    TIP3     H2       HT       0.417000       1.00800           0
     75620 TIP3     21902    TIP3     OH2      OT      -0.834000       15.9994           0
     75621 TIP3     21902    TIP3     H1       HT       0.417000       1.00800           0
     75622 TIP3     21902    TIP3     H2       HT       0.417000       1.00800           0
     75623 TIP3     21903    TIP3     OH2      OT      -0.834000       15.9994           0
     75624 TIP3     21903    TIP3     H1       HT       0.417000       1.00800           0
     75625 TIP3     21903    TIP3     H2       HT       0.417000       1.00800           0
     75626 TIP3     21904    TIP3     OH2      OT      -0.834000       15.9994           0
     75627 TIP3     21904    TIP3     H1       HT       0.417000       1.00800           0
     75628 TIP3     21904    TIP3     H2       HT       0.417000       1.00800           0
     75629 TIP3     21905    TIP3     OH2      OT      -0.834000       15.9994           0
     75630 TIP3     21905    TIP3     H1       HT       0.417000       1.00800           0
     75631 TIP3     21905    TIP3     H2       HT       0.417000       1.00800           0
     75632 TIP3     21906    TIP3     OH2      OT      -0.834000       15.9994           0
     75633 TIP3     21906    TIP3     H1       HT       0.417000       1.00800           0
     75634 TIP3     21906    TIP3     H2       HT       0.417000       1.00800           0
     75635 TIP3     21907    TIP3     OH2      OT      -0.834000       15.9994           0
     75636 TIP3     21907    TIP3     H1       HT       0.417000       1.00800           0
     75637 TIP3     21907    TIP3     H2       HT       0.417000       1.00800           0
     75638 TIP3     21908    TIP3     OH2      OT      -0.834000       15.9994           0
     75639 TIP3     21908    TIP3     H1       HT       0.417000       1.00800           0
     75640 TIP3     21908    TIP3     H2       HT       0.417000       1.00800           0
     75641 TIP3     21909    TIP3     OH2      OT      -0.834000       15.9994           0
     75642 TIP3     21909    TIP3     H1       HT       0.417000       1.00800           0
     75643 TIP3     21909    TIP3     H2       HT       0.417000       1.00800           0
     75644 TIP3     21910    TIP3     OH2      OT      -0.834000       15.9994           0
     75645 TIP3     21910    TIP3     H1       HT       0.417000       1.00800           0
     75646 TIP3     21910    TIP3     H2       HT       0.417000       1.00800           0
     75647 TIP3     21911    TIP3     OH2      OT      -0.834000       15.9994           0
     75648 TIP3     21911    TIP3     H1       HT       0.417000       1.00800           0
     75649 TIP3     21911    TIP3     H2       HT       0.417000       1.00800           0
     75650 TIP3     21912    TIP3     OH2      OT      -0.834000       15.9994           0
     75651 TIP3     21912    TIP3     H1       HT       0.417000       1.00800           0
     75652 TIP3     21912    TIP3     H2       HT       0.417000       1.00800           0
     75653 TIP3     21913    TIP3     OH2      OT      -0.834000       15.9994           0
     75654 TIP3     21913    TIP3     H1       HT       0.417000       1.00800           0
     75655 TIP3     21913    TIP3     H2       HT       0.417000       1.00800           0
     75656 TIP3     21914    TIP3     OH2      OT      -0.834000       15.9994           0
     75657 TIP3     21914    TIP3     H1       HT       0.417000       1.00800           0
     75658 TIP3     21914    TIP3     H2       HT       0.417000       1.00800           0
     75659 TIP3     21915    TIP3     OH2      OT      -0.834000       15.9994           0
     75660 TIP3     21915    TIP3     H1       HT       0.417000       1.00800           0
     75661 TIP3     21915    TIP3     H2       HT       0.417000       1.00800           0
     75662 TIP3     21916    TIP3     OH2      OT      -0.834000       15.9994           0
     75663 TIP3     21916    TIP3     H1       HT       0.417000       1.00800           0
     75664 TIP3     21916    TIP3     H2       HT       0.417000       1.00800           0
     75665 TIP3     21917    TIP3     OH2      OT      -0.834000       15.9994           0
     75666 TIP3     21917    TIP3     H1       HT       0.417000       1.00800           0
     75667 TIP3     21917    TIP3     H2       HT       0.417000       1.00800           0
     75668 TIP3     21918    TIP3     OH2      OT      -0.834000       15.9994           0
     75669 TIP3     21918    TIP3     H1       HT       0.417000       1.00800           0
     75670 TIP3     21918    TIP3     H2       HT       0.417000       1.00800           0
     75671 TIP3     21919    TIP3     OH2      OT      -0.834000       15.9994           0
     75672 TIP3     21919    TIP3     H1       HT       0.417000       1.00800           0
     75673 TIP3     21919    TIP3     H2       HT       0.417000       1.00800           0
     75674 TIP3     21920    TIP3     OH2      OT      -0.834000       15.9994           0
     75675 TIP3     21920    TIP3     H1       HT       0.417000       1.00800           0
     75676 TIP3     21920    TIP3     H2       HT       0.417000       1.00800           0
     75677 TIP3     21921    TIP3     OH2      OT      -0.834000       15.9994           0
     75678 TIP3     21921    TIP3     H1       HT       0.417000       1.00800           0
     75679 TIP3     21921    TIP3     H2       HT       0.417000       1.00800           0
     75680 TIP3     21922    TIP3     OH2      OT      -0.834000       15.9994           0
     75681 TIP3     21922    TIP3     H1       HT       0.417000       1.00800           0
     75682 TIP3     21922    TIP3     H2       HT       0.417000       1.00800           0
     75683 TIP3     21923    TIP3     OH2      OT      -0.834000       15.9994           0
     75684 TIP3     21923    TIP3     H1       HT       0.417000       1.00800           0
     75685 TIP3     21923    TIP3     H2       HT       0.417000       1.00800           0
     75686 TIP3     21924    TIP3     OH2      OT      -0.834000       15.9994           0
     75687 TIP3     21924    TIP3     H1       HT       0.417000       1.00800           0
     75688 TIP3     21924    TIP3     H2       HT       0.417000       1.00800           0
     75689 TIP3     21925    TIP3     OH2      OT      -0.834000       15.9994           0
     75690 TIP3     21925    TIP3     H1       HT       0.417000       1.00800           0
     75691 TIP3     21925    TIP3     H2       HT       0.417000       1.00800           0
     75692 TIP3     21926    TIP3     OH2      OT      -0.834000       15.9994           0
     75693 TIP3     21926    TIP3     H1       HT       0.417000       1.00800           0
     75694 TIP3     21926    TIP3     H2       HT       0.417000       1.00800           0
     75695 TIP3     21927    TIP3     OH2      OT      -0.834000       15.9994           0
     75696 TIP3     21927    TIP3     H1       HT       0.417000       1.00800           0
     75697 TIP3     21927    TIP3     H2       HT       0.417000       1.00800           0
     75698 TIP3     21928    TIP3     OH2      OT      -0.834000       15.9994           0
     75699 TIP3     21928    TIP3     H1       HT       0.417000       1.00800           0
     75700 TIP3     21928    TIP3     H2       HT       0.417000       1.00800           0
     75701 TIP3     21929    TIP3     OH2      OT      -0.834000       15.9994           0
     75702 TIP3     21929    TIP3     H1       HT       0.417000       1.00800           0
     75703 TIP3     21929    TIP3     H2       HT       0.417000       1.00800           0
     75704 TIP3     21930    TIP3     OH2      OT      -0.834000       15.9994           0
     75705 TIP3     21930    TIP3     H1       HT       0.417000       1.00800           0
     75706 TIP3     21930    TIP3     H2       HT       0.417000       1.00800           0
     75707 TIP3     21931    TIP3     OH2      OT      -0.834000       15.9994           0
     75708 TIP3     21931    TIP3     H1       HT       0.417000       1.00800           0
     75709 TIP3     21931    TIP3     H2       HT       0.417000       1.00800           0
     75710 TIP3     21932    TIP3     OH2      OT      -0.834000       15.9994           0
     75711 TIP3     21932    TIP3     H1       HT       0.417000       1.00800           0
     75712 TIP3     21932    TIP3     H2       HT       0.417000       1.00800           0
     75713 TIP3     21933    TIP3     OH2      OT      -0.834000       15.9994           0
     75714 TIP3     21933    TIP3     H1       HT       0.417000       1.00800           0
     75715 TIP3     21933    TIP3     H2       HT       0.417000       1.00800           0
     75716 TIP3     21934    TIP3     OH2      OT      -0.834000       15.9994           0
     75717 TIP3     21934    TIP3     H1       HT       0.417000       1.00800           0
     75718 TIP3     21934    TIP3     H2       HT       0.417000       1.00800           0
     75719 TIP3     21935    TIP3     OH2      OT      -0.834000       15.9994           0
     75720 TIP3     21935    TIP3     H1       HT       0.417000       1.00800           0
     75721 TIP3     21935    TIP3     H2       HT       0.417000       1.00800           0
     75722 TIP3     21936    TIP3     OH2      OT      -0.834000       15.9994           0
     75723 TIP3     21936    TIP3     H1       HT       0.417000       1.00800           0
     75724 TIP3     21936    TIP3     H2       HT       0.417000       1.00800           0
     75725 TIP3     21937    TIP3     OH2      OT      -0.834000       15.9994           0
     75726 TIP3     21937    TIP3     H1       HT       0.417000       1.00800           0
     75727 TIP3     21937    TIP3     H2       HT       0.417000       1.00800           0
     75728 TIP3     21938    TIP3     OH2      OT      -0.834000       15.9994           0
     75729 TIP3     21938    TIP3     H1       HT       0.417000       1.00800           0
     75730 TIP3     21938    TIP3     H2       HT       0.417000       1.00800           0
     75731 TIP3     21939    TIP3     OH2      OT      -0.834000       15.9994           0
     75732 TIP3     21939    TIP3     H1       HT       0.417000       1.00800           0
     75733 TIP3     21939    TIP3     H2       HT       0.417000       1.00800           0
     75734 TIP3     21940    TIP3     OH2      OT      -0.834000       15.9994           0
     75735 TIP3     21940    TIP3     H1       HT       0.417000       1.00800           0
     75736 TIP3     21940    TIP3     H2       HT       0.417000       1.00800           0
     75737 TIP3     21941    TIP3     OH2      OT      -0.834000       15.9994           0
     75738 TIP3     21941    TIP3     H1       HT       0.417000       1.00800           0
     75739 TIP3     21941    TIP3     H2       HT       0.417000       1.00800           0
     75740 TIP3     21942    TIP3     OH2      OT      -0.834000       15.9994           0
     75741 TIP3     21942    TIP3     H1       HT       0.417000       1.00800           0
     75742 TIP3     21942    TIP3     H2       HT       0.417000       1.00800           0
     75743 TIP3     21943    TIP3     OH2      OT      -0.834000       15.9994           0
     75744 TIP3     21943    TIP3     H1       HT       0.417000       1.00800           0
     75745 TIP3     21943    TIP3     H2       HT       0.417000       1.00800           0
     75746 TIP3     21944    TIP3     OH2      OT      -0.834000       15.9994           0
     75747 TIP3     21944    TIP3     H1       HT       0.417000       1.00800           0
     75748 TIP3     21944    TIP3     H2       HT       0.417000       1.00800           0
     75749 TIP3     21945    TIP3     OH2      OT      -0.834000       15.9994           0
     75750 TIP3     21945    TIP3     H1       HT       0.417000       1.00800           0
     75751 TIP3     21945    TIP3     H2       HT       0.417000       1.00800           0
     75752 TIP3     21946    TIP3     OH2      OT      -0.834000       15.9994           0
     75753 TIP3     21946    TIP3     H1       HT       0.417000       1.00800           0
     75754 TIP3     21946    TIP3     H2       HT       0.417000       1.00800           0
     75755 TIP3     21947    TIP3     OH2      OT      -0.834000       15.9994           0
     75756 TIP3     21947    TIP3     H1       HT       0.417000       1.00800           0
     75757 TIP3     21947    TIP3     H2       HT       0.417000       1.00800           0
     75758 TIP3     21948    TIP3     OH2      OT      -0.834000       15.9994           0
     75759 TIP3     21948    TIP3     H1       HT       0.417000       1.00800           0
     75760 TIP3     21948    TIP3     H2       HT       0.417000       1.00800           0
     75761 TIP3     21949    TIP3     OH2      OT      -0.834000       15.9994           0
     75762 TIP3     21949    TIP3     H1       HT       0.417000       1.00800           0
     75763 TIP3     21949    TIP3     H2       HT       0.417000       1.00800           0
     75764 TIP3     21950    TIP3     OH2      OT      -0.834000       15.9994           0
     75765 TIP3     21950    TIP3     H1       HT       0.417000       1.00800           0
     75766 TIP3     21950    TIP3     H2       HT       0.417000       1.00800           0
     75767 TIP3     21951    TIP3     OH2      OT      -0.834000       15.9994           0
     75768 TIP3     21951    TIP3     H1       HT       0.417000       1.00800           0
     75769 TIP3     21951    TIP3     H2       HT       0.417000       1.00800           0
     75770 TIP3     21952    TIP3     OH2      OT      -0.834000       15.9994           0
     75771 TIP3     21952    TIP3     H1       HT       0.417000       1.00800           0
     75772 TIP3     21952    TIP3     H2       HT       0.417000       1.00800           0
     75773 TIP3     21953    TIP3     OH2      OT      -0.834000       15.9994           0
     75774 TIP3     21953    TIP3     H1       HT       0.417000       1.00800           0
     75775 TIP3     21953    TIP3     H2       HT       0.417000       1.00800           0
     75776 TIP3     21954    TIP3     OH2      OT      -0.834000       15.9994           0
     75777 TIP3     21954    TIP3     H1       HT       0.417000       1.00800           0
     75778 TIP3     21954    TIP3     H2       HT       0.417000       1.00800           0
     75779 TIP3     21955    TIP3     OH2      OT      -0.834000       15.9994           0
     75780 TIP3     21955    TIP3     H1       HT       0.417000       1.00800           0
     75781 TIP3     21955    TIP3     H2       HT       0.417000       1.00800           0
     75782 TIP3     21956    TIP3     OH2      OT      -0.834000       15.9994           0
     75783 TIP3     21956    TIP3     H1       HT       0.417000       1.00800           0
     75784 TIP3     21956    TIP3     H2       HT       0.417000       1.00800           0
     75785 TIP3     21957    TIP3     OH2      OT      -0.834000       15.9994           0
     75786 TIP3     21957    TIP3     H1       HT       0.417000       1.00800           0
     75787 TIP3     21957    TIP3     H2       HT       0.417000       1.00800           0
     75788 TIP3     21958    TIP3     OH2      OT      -0.834000       15.9994           0
     75789 TIP3     21958    TIP3     H1       HT       0.417000       1.00800           0
     75790 TIP3     21958    TIP3     H2       HT       0.417000       1.00800           0
     75791 TIP3     21959    TIP3     OH2      OT      -0.834000       15.9994           0
     75792 TIP3     21959    TIP3     H1       HT       0.417000       1.00800           0
     75793 TIP3     21959    TIP3     H2       HT       0.417000       1.00800           0
     75794 TIP3     21960    TIP3     OH2      OT      -0.834000       15.9994           0
     75795 TIP3     21960    TIP3     H1       HT       0.417000       1.00800           0
     75796 TIP3     21960    TIP3     H2       HT       0.417000       1.00800           0
     75797 TIP3     21961    TIP3     OH2      OT      -0.834000       15.9994           0
     75798 TIP3     21961    TIP3     H1       HT       0.417000       1.00800           0
     75799 TIP3     21961    TIP3     H2       HT       0.417000       1.00800           0
     75800 TIP3     21962    TIP3     OH2      OT      -0.834000       15.9994           0
     75801 TIP3     21962    TIP3     H1       HT       0.417000       1.00800           0
     75802 TIP3     21962    TIP3     H2       HT       0.417000       1.00800           0
     75803 TIP3     21963    TIP3     OH2      OT      -0.834000       15.9994           0
     75804 TIP3     21963    TIP3     H1       HT       0.417000       1.00800           0
     75805 TIP3     21963    TIP3     H2       HT       0.417000       1.00800           0
     75806 TIP3     21964    TIP3     OH2      OT      -0.834000       15.9994           0
     75807 TIP3     21964    TIP3     H1       HT       0.417000       1.00800           0
     75808 TIP3     21964    TIP3     H2       HT       0.417000       1.00800           0
     75809 TIP3     21965    TIP3     OH2      OT      -0.834000       15.9994           0
     75810 TIP3     21965    TIP3     H1       HT       0.417000       1.00800           0
     75811 TIP3     21965    TIP3     H2       HT       0.417000       1.00800           0
     75812 TIP3     21966    TIP3     OH2      OT      -0.834000       15.9994           0
     75813 TIP3     21966    TIP3     H1       HT       0.417000       1.00800           0
     75814 TIP3     21966    TIP3     H2       HT       0.417000       1.00800           0
     75815 TIP3     21967    TIP3     OH2      OT      -0.834000       15.9994           0
     75816 TIP3     21967    TIP3     H1       HT       0.417000       1.00800           0
     75817 TIP3     21967    TIP3     H2       HT       0.417000       1.00800           0
     75818 TIP3     21968    TIP3     OH2      OT      -0.834000       15.9994           0
     75819 TIP3     21968    TIP3     H1       HT       0.417000       1.00800           0
     75820 TIP3     21968    TIP3     H2       HT       0.417000       1.00800           0
     75821 TIP3     21969    TIP3     OH2      OT      -0.834000       15.9994           0
     75822 TIP3     21969    TIP3     H1       HT       0.417000       1.00800           0
     75823 TIP3     21969    TIP3     H2       HT       0.417000       1.00800           0
     75824 TIP3     21970    TIP3     OH2      OT      -0.834000       15.9994           0
     75825 TIP3     21970    TIP3     H1       HT       0.417000       1.00800           0
     75826 TIP3     21970    TIP3     H2       HT       0.417000       1.00800           0
     75827 TIP3     21971    TIP3     OH2      OT      -0.834000       15.9994           0
     75828 TIP3     21971    TIP3     H1       HT       0.417000       1.00800           0
     75829 TIP3     21971    TIP3     H2       HT       0.417000       1.00800           0
     75830 TIP3     21972    TIP3     OH2      OT      -0.834000       15.9994           0
     75831 TIP3     21972    TIP3     H1       HT       0.417000       1.00800           0
     75832 TIP3     21972    TIP3     H2       HT       0.417000       1.00800           0
     75833 TIP3     21973    TIP3     OH2      OT      -0.834000       15.9994           0
     75834 TIP3     21973    TIP3     H1       HT       0.417000       1.00800           0
     75835 TIP3     21973    TIP3     H2       HT       0.417000       1.00800           0
     75836 TIP3     21974    TIP3     OH2      OT      -0.834000       15.9994           0
     75837 TIP3     21974    TIP3     H1       HT       0.417000       1.00800           0
     75838 TIP3     21974    TIP3     H2       HT       0.417000       1.00800           0
     75839 TIP3     21975    TIP3     OH2      OT      -0.834000       15.9994           0
     75840 TIP3     21975    TIP3     H1       HT       0.417000       1.00800           0
     75841 TIP3     21975    TIP3     H2       HT       0.417000       1.00800           0
     75842 TIP3     21976    TIP3     OH2      OT      -0.834000       15.9994           0
     75843 TIP3     21976    TIP3     H1       HT       0.417000       1.00800           0
     75844 TIP3     21976    TIP3     H2       HT       0.417000       1.00800           0
     75845 TIP3     21977    TIP3     OH2      OT      -0.834000       15.9994           0
     75846 TIP3     21977    TIP3     H1       HT       0.417000       1.00800           0
     75847 TIP3     21977    TIP3     H2       HT       0.417000       1.00800           0
     75848 TIP3     21978    TIP3     OH2      OT      -0.834000       15.9994           0
     75849 TIP3     21978    TIP3     H1       HT       0.417000       1.00800           0
     75850 TIP3     21978    TIP3     H2       HT       0.417000       1.00800           0
     75851 TIP3     21979    TIP3     OH2      OT      -0.834000       15.9994           0
     75852 TIP3     21979    TIP3     H1       HT       0.417000       1.00800           0
     75853 TIP3     21979    TIP3     H2       HT       0.417000       1.00800           0
     75854 TIP3     21980    TIP3     OH2      OT      -0.834000       15.9994           0
     75855 TIP3     21980    TIP3     H1       HT       0.417000       1.00800           0
     75856 TIP3     21980    TIP3     H2       HT       0.417000       1.00800           0
     75857 TIP3     21981    TIP3     OH2      OT      -0.834000       15.9994           0
     75858 TIP3     21981    TIP3     H1       HT       0.417000       1.00800           0
     75859 TIP3     21981    TIP3     H2       HT       0.417000       1.00800           0
     75860 TIP3     21982    TIP3     OH2      OT      -0.834000       15.9994           0
     75861 TIP3     21982    TIP3     H1       HT       0.417000       1.00800           0
     75862 TIP3     21982    TIP3     H2       HT       0.417000       1.00800           0
     75863 TIP3     21983    TIP3     OH2      OT      -0.834000       15.9994           0
     75864 TIP3     21983    TIP3     H1       HT       0.417000       1.00800           0
     75865 TIP3     21983    TIP3     H2       HT       0.417000       1.00800           0
     75866 TIP3     21984    TIP3     OH2      OT      -0.834000       15.9994           0
     75867 TIP3     21984    TIP3     H1       HT       0.417000       1.00800           0
     75868 TIP3     21984    TIP3     H2       HT       0.417000       1.00800           0
     75869 TIP3     21985    TIP3     OH2      OT      -0.834000       15.9994           0
     75870 TIP3     21985    TIP3     H1       HT       0.417000       1.00800           0
     75871 TIP3     21985    TIP3     H2       HT       0.417000       1.00800           0
     75872 TIP3     21986    TIP3     OH2      OT      -0.834000       15.9994           0
     75873 TIP3     21986    TIP3     H1       HT       0.417000       1.00800           0
     75874 TIP3     21986    TIP3     H2       HT       0.417000       1.00800           0
     75875 TIP3     21987    TIP3     OH2      OT      -0.834000       15.9994           0
     75876 TIP3     21987    TIP3     H1       HT       0.417000       1.00800           0
     75877 TIP3     21987    TIP3     H2       HT       0.417000       1.00800           0
     75878 TIP3     21988    TIP3     OH2      OT      -0.834000       15.9994           0
     75879 TIP3     21988    TIP3     H1       HT       0.417000       1.00800           0
     75880 TIP3     21988    TIP3     H2       HT       0.417000       1.00800           0
     75881 TIP3     21989    TIP3     OH2      OT      -0.834000       15.9994           0
     75882 TIP3     21989    TIP3     H1       HT       0.417000       1.00800           0
     75883 TIP3     21989    TIP3     H2       HT       0.417000       1.00800           0
     75884 TIP3     21990    TIP3     OH2      OT      -0.834000       15.9994           0
     75885 TIP3     21990    TIP3     H1       HT       0.417000       1.00800           0
     75886 TIP3     21990    TIP3     H2       HT       0.417000       1.00800           0
     75887 TIP3     21991    TIP3     OH2      OT      -0.834000       15.9994           0
     75888 TIP3     21991    TIP3     H1       HT       0.417000       1.00800           0
     75889 TIP3     21991    TIP3     H2       HT       0.417000       1.00800           0
     75890 TIP3     21992    TIP3     OH2      OT      -0.834000       15.9994           0
     75891 TIP3     21992    TIP3     H1       HT       0.417000       1.00800           0
     75892 TIP3     21992    TIP3     H2       HT       0.417000       1.00800           0
     75893 TIP3     21993    TIP3     OH2      OT      -0.834000       15.9994           0
     75894 TIP3     21993    TIP3     H1       HT       0.417000       1.00800           0
     75895 TIP3     21993    TIP3     H2       HT       0.417000       1.00800           0
     75896 TIP3     21994    TIP3     OH2      OT      -0.834000       15.9994           0
     75897 TIP3     21994    TIP3     H1       HT       0.417000       1.00800           0
     75898 TIP3     21994    TIP3     H2       HT       0.417000       1.00800           0
     75899 TIP3     21995    TIP3     OH2      OT      -0.834000       15.9994           0
     75900 TIP3     21995    TIP3     H1       HT       0.417000       1.00800           0
     75901 TIP3     21995    TIP3     H2       HT       0.417000       1.00800           0
     75902 TIP3     21996    TIP3     OH2      OT      -0.834000       15.9994           0
     75903 TIP3     21996    TIP3     H1       HT       0.417000       1.00800           0
     75904 TIP3     21996    TIP3     H2       HT       0.417000       1.00800           0
     75905 TIP3     21997    TIP3     OH2      OT      -0.834000       15.9994           0
     75906 TIP3     21997    TIP3     H1       HT       0.417000       1.00800           0
     75907 TIP3     21997    TIP3     H2       HT       0.417000       1.00800           0
     75908 TIP3     21998    TIP3     OH2      OT      -0.834000       15.9994           0
     75909 TIP3     21998    TIP3     H1       HT       0.417000       1.00800           0
     75910 TIP3     21998    TIP3     H2       HT       0.417000       1.00800           0
     75911 TIP3     21999    TIP3     OH2      OT      -0.834000       15.9994           0
     75912 TIP3     21999    TIP3     H1       HT       0.417000       1.00800           0
     75913 TIP3     21999    TIP3     H2       HT       0.417000       1.00800           0
     75914 TIP3     22000    TIP3     OH2      OT      -0.834000       15.9994           0
     75915 TIP3     22000    TIP3     H1       HT       0.417000       1.00800           0
     75916 TIP3     22000    TIP3     H2       HT       0.417000       1.00800           0
     75917 TIP3     22001    TIP3     OH2      OT      -0.834000       15.9994           0
     75918 TIP3     22001    TIP3     H1       HT       0.417000       1.00800           0
     75919 TIP3     22001    TIP3     H2       HT       0.417000       1.00800           0
     75920 TIP3     22002    TIP3     OH2      OT      -0.834000       15.9994           0
     75921 TIP3     22002    TIP3     H1       HT       0.417000       1.00800           0
     75922 TIP3     22002    TIP3     H2       HT       0.417000       1.00800           0
     75923 TIP3     22003    TIP3     OH2      OT      -0.834000       15.9994           0
     75924 TIP3     22003    TIP3     H1       HT       0.417000       1.00800           0
     75925 TIP3     22003    TIP3     H2       HT       0.417000       1.00800           0
     75926 TIP3     22004    TIP3     OH2      OT      -0.834000       15.9994           0
     75927 TIP3     22004    TIP3     H1       HT       0.417000       1.00800           0
     75928 TIP3     22004    TIP3     H2       HT       0.417000       1.00800           0
     75929 TIP3     22005    TIP3     OH2      OT      -0.834000       15.9994           0
     75930 TIP3     22005    TIP3     H1       HT       0.417000       1.00800           0
     75931 TIP3     22005    TIP3     H2       HT       0.417000       1.00800           0
     75932 TIP3     22006    TIP3     OH2      OT      -0.834000       15.9994           0
     75933 TIP3     22006    TIP3     H1       HT       0.417000       1.00800           0
     75934 TIP3     22006    TIP3     H2       HT       0.417000       1.00800           0
     75935 TIP3     22007    TIP3     OH2      OT      -0.834000       15.9994           0
     75936 TIP3     22007    TIP3     H1       HT       0.417000       1.00800           0
     75937 TIP3     22007    TIP3     H2       HT       0.417000       1.00800           0
     75938 TIP3     22008    TIP3     OH2      OT      -0.834000       15.9994           0
     75939 TIP3     22008    TIP3     H1       HT       0.417000       1.00800           0
     75940 TIP3     22008    TIP3     H2       HT       0.417000       1.00800           0
     75941 TIP3     22009    TIP3     OH2      OT      -0.834000       15.9994           0
     75942 TIP3     22009    TIP3     H1       HT       0.417000       1.00800           0
     75943 TIP3     22009    TIP3     H2       HT       0.417000       1.00800           0
     75944 TIP3     22010    TIP3     OH2      OT      -0.834000       15.9994           0
     75945 TIP3     22010    TIP3     H1       HT       0.417000       1.00800           0
     75946 TIP3     22010    TIP3     H2       HT       0.417000       1.00800           0
     75947 TIP3     22011    TIP3     OH2      OT      -0.834000       15.9994           0
     75948 TIP3     22011    TIP3     H1       HT       0.417000       1.00800           0
     75949 TIP3     22011    TIP3     H2       HT       0.417000       1.00800           0
     75950 TIP3     22012    TIP3     OH2      OT      -0.834000       15.9994           0
     75951 TIP3     22012    TIP3     H1       HT       0.417000       1.00800           0
     75952 TIP3     22012    TIP3     H2       HT       0.417000       1.00800           0
     75953 TIP3     22013    TIP3     OH2      OT      -0.834000       15.9994           0
     75954 TIP3     22013    TIP3     H1       HT       0.417000       1.00800           0
     75955 TIP3     22013    TIP3     H2       HT       0.417000       1.00800           0
     75956 TIP3     22014    TIP3     OH2      OT      -0.834000       15.9994           0
     75957 TIP3     22014    TIP3     H1       HT       0.417000       1.00800           0
     75958 TIP3     22014    TIP3     H2       HT       0.417000       1.00800           0
     75959 TIP3     22015    TIP3     OH2      OT      -0.834000       15.9994           0
     75960 TIP3     22015    TIP3     H1       HT       0.417000       1.00800           0
     75961 TIP3     22015    TIP3     H2       HT       0.417000       1.00800           0
     75962 TIP3     22016    TIP3     OH2      OT      -0.834000       15.9994           0
     75963 TIP3     22016    TIP3     H1       HT       0.417000       1.00800           0
     75964 TIP3     22016    TIP3     H2       HT       0.417000       1.00800           0
     75965 TIP3     22017    TIP3     OH2      OT      -0.834000       15.9994           0
     75966 TIP3     22017    TIP3     H1       HT       0.417000       1.00800           0
     75967 TIP3     22017    TIP3     H2       HT       0.417000       1.00800           0
     75968 TIP3     22018    TIP3     OH2      OT      -0.834000       15.9994           0
     75969 TIP3     22018    TIP3     H1       HT       0.417000       1.00800           0
     75970 TIP3     22018    TIP3     H2       HT       0.417000       1.00800           0
     75971 TIP3     22019    TIP3     OH2      OT      -0.834000       15.9994           0
     75972 TIP3     22019    TIP3     H1       HT       0.417000       1.00800           0
     75973 TIP3     22019    TIP3     H2       HT       0.417000       1.00800           0
     75974 TIP3     22020    TIP3     OH2      OT      -0.834000       15.9994           0
     75975 TIP3     22020    TIP3     H1       HT       0.417000       1.00800           0
     75976 TIP3     22020    TIP3     H2       HT       0.417000       1.00800           0
     75977 TIP3     22021    TIP3     OH2      OT      -0.834000       15.9994           0
     75978 TIP3     22021    TIP3     H1       HT       0.417000       1.00800           0
     75979 TIP3     22021    TIP3     H2       HT       0.417000       1.00800           0
     75980 TIP3     22022    TIP3     OH2      OT      -0.834000       15.9994           0
     75981 TIP3     22022    TIP3     H1       HT       0.417000       1.00800           0
     75982 TIP3     22022    TIP3     H2       HT       0.417000       1.00800           0
     75983 TIP3     22023    TIP3     OH2      OT      -0.834000       15.9994           0
     75984 TIP3     22023    TIP3     H1       HT       0.417000       1.00800           0
     75985 TIP3     22023    TIP3     H2       HT       0.417000       1.00800           0
     75986 TIP3     22024    TIP3     OH2      OT      -0.834000       15.9994           0
     75987 TIP3     22024    TIP3     H1       HT       0.417000       1.00800           0
     75988 TIP3     22024    TIP3     H2       HT       0.417000       1.00800           0
     75989 TIP3     22025    TIP3     OH2      OT      -0.834000       15.9994           0
     75990 TIP3     22025    TIP3     H1       HT       0.417000       1.00800           0
     75991 TIP3     22025    TIP3     H2       HT       0.417000       1.00800           0
     75992 TIP3     22026    TIP3     OH2      OT      -0.834000       15.9994           0
     75993 TIP3     22026    TIP3     H1       HT       0.417000       1.00800           0
     75994 TIP3     22026    TIP3     H2       HT       0.417000       1.00800           0
     75995 TIP3     22027    TIP3     OH2      OT      -0.834000       15.9994           0
     75996 TIP3     22027    TIP3     H1       HT       0.417000       1.00800           0
     75997 TIP3     22027    TIP3     H2       HT       0.417000       1.00800           0
     75998 TIP3     22028    TIP3     OH2      OT      -0.834000       15.9994           0
     75999 TIP3     22028    TIP3     H1       HT       0.417000       1.00800           0
     76000 TIP3     22028    TIP3     H2       HT       0.417000       1.00800           0
     76001 TIP3     22029    TIP3     OH2      OT      -0.834000       15.9994           0
     76002 TIP3     22029    TIP3     H1       HT       0.417000       1.00800           0
     76003 TIP3     22029    TIP3     H2       HT       0.417000       1.00800           0
     76004 TIP3     22030    TIP3     OH2      OT      -0.834000       15.9994           0
     76005 TIP3     22030    TIP3     H1       HT       0.417000       1.00800           0
     76006 TIP3     22030    TIP3     H2       HT       0.417000       1.00800           0
     76007 TIP3     22031    TIP3     OH2      OT      -0.834000       15.9994           0
     76008 TIP3     22031    TIP3     H1       HT       0.417000       1.00800           0
     76009 TIP3     22031    TIP3     H2       HT       0.417000       1.00800           0
     76010 TIP3     22032    TIP3     OH2      OT      -0.834000       15.9994           0
     76011 TIP3     22032    TIP3     H1       HT       0.417000       1.00800           0
     76012 TIP3     22032    TIP3     H2       HT       0.417000       1.00800           0
     76013 TIP3     22033    TIP3     OH2      OT      -0.834000       15.9994           0
     76014 TIP3     22033    TIP3     H1       HT       0.417000       1.00800           0
     76015 TIP3     22033    TIP3     H2       HT       0.417000       1.00800           0
     76016 TIP3     22034    TIP3     OH2      OT      -0.834000       15.9994           0
     76017 TIP3     22034    TIP3     H1       HT       0.417000       1.00800           0
     76018 TIP3     22034    TIP3     H2       HT       0.417000       1.00800           0
     76019 TIP3     22035    TIP3     OH2      OT      -0.834000       15.9994           0
     76020 TIP3     22035    TIP3     H1       HT       0.417000       1.00800           0
     76021 TIP3     22035    TIP3     H2       HT       0.417000       1.00800           0
     76022 TIP3     22036    TIP3     OH2      OT      -0.834000       15.9994           0
     76023 TIP3     22036    TIP3     H1       HT       0.417000       1.00800           0
     76024 TIP3     22036    TIP3     H2       HT       0.417000       1.00800           0
     76025 TIP3     22037    TIP3     OH2      OT      -0.834000       15.9994           0
     76026 TIP3     22037    TIP3     H1       HT       0.417000       1.00800           0
     76027 TIP3     22037    TIP3     H2       HT       0.417000       1.00800           0
     76028 TIP3     22038    TIP3     OH2      OT      -0.834000       15.9994           0
     76029 TIP3     22038    TIP3     H1       HT       0.417000       1.00800           0
     76030 TIP3     22038    TIP3     H2       HT       0.417000       1.00800           0
     76031 TIP3     22039    TIP3     OH2      OT      -0.834000       15.9994           0
     76032 TIP3     22039    TIP3     H1       HT       0.417000       1.00800           0
     76033 TIP3     22039    TIP3     H2       HT       0.417000       1.00800           0
     76034 TIP3     22040    TIP3     OH2      OT      -0.834000       15.9994           0
     76035 TIP3     22040    TIP3     H1       HT       0.417000       1.00800           0
     76036 TIP3     22040    TIP3     H2       HT       0.417000       1.00800           0
     76037 TIP3     22041    TIP3     OH2      OT      -0.834000       15.9994           0
     76038 TIP3     22041    TIP3     H1       HT       0.417000       1.00800           0
     76039 TIP3     22041    TIP3     H2       HT       0.417000       1.00800           0
     76040 TIP3     22042    TIP3     OH2      OT      -0.834000       15.9994           0
     76041 TIP3     22042    TIP3     H1       HT       0.417000       1.00800           0
     76042 TIP3     22042    TIP3     H2       HT       0.417000       1.00800           0
     76043 TIP3     22043    TIP3     OH2      OT      -0.834000       15.9994           0
     76044 TIP3     22043    TIP3     H1       HT       0.417000       1.00800           0
     76045 TIP3     22043    TIP3     H2       HT       0.417000       1.00800           0
     76046 TIP3     22044    TIP3     OH2      OT      -0.834000       15.9994           0
     76047 TIP3     22044    TIP3     H1       HT       0.417000       1.00800           0
     76048 TIP3     22044    TIP3     H2       HT       0.417000       1.00800           0
     76049 TIP3     22045    TIP3     OH2      OT      -0.834000       15.9994           0
     76050 TIP3     22045    TIP3     H1       HT       0.417000       1.00800           0
     76051 TIP3     22045    TIP3     H2       HT       0.417000       1.00800           0
     76052 TIP3     22046    TIP3     OH2      OT      -0.834000       15.9994           0
     76053 TIP3     22046    TIP3     H1       HT       0.417000       1.00800           0
     76054 TIP3     22046    TIP3     H2       HT       0.417000       1.00800           0
     76055 TIP3     22047    TIP3     OH2      OT      -0.834000       15.9994           0
     76056 TIP3     22047    TIP3     H1       HT       0.417000       1.00800           0
     76057 TIP3     22047    TIP3     H2       HT       0.417000       1.00800           0
     76058 TIP3     22048    TIP3     OH2      OT      -0.834000       15.9994           0
     76059 TIP3     22048    TIP3     H1       HT       0.417000       1.00800           0
     76060 TIP3     22048    TIP3     H2       HT       0.417000       1.00800           0
     76061 TIP3     22049    TIP3     OH2      OT      -0.834000       15.9994           0
     76062 TIP3     22049    TIP3     H1       HT       0.417000       1.00800           0
     76063 TIP3     22049    TIP3     H2       HT       0.417000       1.00800           0
     76064 TIP3     22050    TIP3     OH2      OT      -0.834000       15.9994           0
     76065 TIP3     22050    TIP3     H1       HT       0.417000       1.00800           0
     76066 TIP3     22050    TIP3     H2       HT       0.417000       1.00800           0
     76067 TIP3     22051    TIP3     OH2      OT      -0.834000       15.9994           0
     76068 TIP3     22051    TIP3     H1       HT       0.417000       1.00800           0
     76069 TIP3     22051    TIP3     H2       HT       0.417000       1.00800           0
     76070 TIP3     22052    TIP3     OH2      OT      -0.834000       15.9994           0
     76071 TIP3     22052    TIP3     H1       HT       0.417000       1.00800           0
     76072 TIP3     22052    TIP3     H2       HT       0.417000       1.00800           0
     76073 TIP3     22053    TIP3     OH2      OT      -0.834000       15.9994           0
     76074 TIP3     22053    TIP3     H1       HT       0.417000       1.00800           0
     76075 TIP3     22053    TIP3     H2       HT       0.417000       1.00800           0
     76076 TIP3     22054    TIP3     OH2      OT      -0.834000       15.9994           0
     76077 TIP3     22054    TIP3     H1       HT       0.417000       1.00800           0
     76078 TIP3     22054    TIP3     H2       HT       0.417000       1.00800           0
     76079 TIP3     22055    TIP3     OH2      OT      -0.834000       15.9994           0
     76080 TIP3     22055    TIP3     H1       HT       0.417000       1.00800           0
     76081 TIP3     22055    TIP3     H2       HT       0.417000       1.00800           0
     76082 TIP3     22056    TIP3     OH2      OT      -0.834000       15.9994           0
     76083 TIP3     22056    TIP3     H1       HT       0.417000       1.00800           0
     76084 TIP3     22056    TIP3     H2       HT       0.417000       1.00800           0
     76085 TIP3     22057    TIP3     OH2      OT      -0.834000       15.9994           0
     76086 TIP3     22057    TIP3     H1       HT       0.417000       1.00800           0
     76087 TIP3     22057    TIP3     H2       HT       0.417000       1.00800           0
     76088 TIP3     22058    TIP3     OH2      OT      -0.834000       15.9994           0
     76089 TIP3     22058    TIP3     H1       HT       0.417000       1.00800           0
     76090 TIP3     22058    TIP3     H2       HT       0.417000       1.00800           0
     76091 TIP3     22059    TIP3     OH2      OT      -0.834000       15.9994           0
     76092 TIP3     22059    TIP3     H1       HT       0.417000       1.00800           0
     76093 TIP3     22059    TIP3     H2       HT       0.417000       1.00800           0
     76094 TIP3     22060    TIP3     OH2      OT      -0.834000       15.9994           0
     76095 TIP3     22060    TIP3     H1       HT       0.417000       1.00800           0
     76096 TIP3     22060    TIP3     H2       HT       0.417000       1.00800           0
     76097 TIP3     22061    TIP3     OH2      OT      -0.834000       15.9994           0
     76098 TIP3     22061    TIP3     H1       HT       0.417000       1.00800           0
     76099 TIP3     22061    TIP3     H2       HT       0.417000       1.00800           0
     76100 TIP3     22062    TIP3     OH2      OT      -0.834000       15.9994           0
     76101 TIP3     22062    TIP3     H1       HT       0.417000       1.00800           0
     76102 TIP3     22062    TIP3     H2       HT       0.417000       1.00800           0
     76103 TIP3     22063    TIP3     OH2      OT      -0.834000       15.9994           0
     76104 TIP3     22063    TIP3     H1       HT       0.417000       1.00800           0
     76105 TIP3     22063    TIP3     H2       HT       0.417000       1.00800           0
     76106 TIP3     22064    TIP3     OH2      OT      -0.834000       15.9994           0
     76107 TIP3     22064    TIP3     H1       HT       0.417000       1.00800           0
     76108 TIP3     22064    TIP3     H2       HT       0.417000       1.00800           0
     76109 TIP3     22065    TIP3     OH2      OT      -0.834000       15.9994           0
     76110 TIP3     22065    TIP3     H1       HT       0.417000       1.00800           0
     76111 TIP3     22065    TIP3     H2       HT       0.417000       1.00800           0
     76112 TIP3     22066    TIP3     OH2      OT      -0.834000       15.9994           0
     76113 TIP3     22066    TIP3     H1       HT       0.417000       1.00800           0
     76114 TIP3     22066    TIP3     H2       HT       0.417000       1.00800           0
     76115 TIP3     22067    TIP3     OH2      OT      -0.834000       15.9994           0
     76116 TIP3     22067    TIP3     H1       HT       0.417000       1.00800           0
     76117 TIP3     22067    TIP3     H2       HT       0.417000       1.00800           0
     76118 TIP3     22068    TIP3     OH2      OT      -0.834000       15.9994           0
     76119 TIP3     22068    TIP3     H1       HT       0.417000       1.00800           0
     76120 TIP3     22068    TIP3     H2       HT       0.417000       1.00800           0
     76121 TIP3     22069    TIP3     OH2      OT      -0.834000       15.9994           0
     76122 TIP3     22069    TIP3     H1       HT       0.417000       1.00800           0
     76123 TIP3     22069    TIP3     H2       HT       0.417000       1.00800           0
     76124 TIP3     22070    TIP3     OH2      OT      -0.834000       15.9994           0
     76125 TIP3     22070    TIP3     H1       HT       0.417000       1.00800           0
     76126 TIP3     22070    TIP3     H2       HT       0.417000       1.00800           0
     76127 TIP3     22071    TIP3     OH2      OT      -0.834000       15.9994           0
     76128 TIP3     22071    TIP3     H1       HT       0.417000       1.00800           0
     76129 TIP3     22071    TIP3     H2       HT       0.417000       1.00800           0
     76130 TIP3     22072    TIP3     OH2      OT      -0.834000       15.9994           0
     76131 TIP3     22072    TIP3     H1       HT       0.417000       1.00800           0
     76132 TIP3     22072    TIP3     H2       HT       0.417000       1.00800           0
     76133 TIP3     22073    TIP3     OH2      OT      -0.834000       15.9994           0
     76134 TIP3     22073    TIP3     H1       HT       0.417000       1.00800           0
     76135 TIP3     22073    TIP3     H2       HT       0.417000       1.00800           0
     76136 TIP3     22074    TIP3     OH2      OT      -0.834000       15.9994           0
     76137 TIP3     22074    TIP3     H1       HT       0.417000       1.00800           0
     76138 TIP3     22074    TIP3     H2       HT       0.417000       1.00800           0
     76139 TIP3     22075    TIP3     OH2      OT      -0.834000       15.9994           0
     76140 TIP3     22075    TIP3     H1       HT       0.417000       1.00800           0
     76141 TIP3     22075    TIP3     H2       HT       0.417000       1.00800           0
     76142 TIP3     22076    TIP3     OH2      OT      -0.834000       15.9994           0
     76143 TIP3     22076    TIP3     H1       HT       0.417000       1.00800           0
     76144 TIP3     22076    TIP3     H2       HT       0.417000       1.00800           0
     76145 TIP3     22077    TIP3     OH2      OT      -0.834000       15.9994           0
     76146 TIP3     22077    TIP3     H1       HT       0.417000       1.00800           0
     76147 TIP3     22077    TIP3     H2       HT       0.417000       1.00800           0
     76148 TIP3     22078    TIP3     OH2      OT      -0.834000       15.9994           0
     76149 TIP3     22078    TIP3     H1       HT       0.417000       1.00800           0
     76150 TIP3     22078    TIP3     H2       HT       0.417000       1.00800           0
     76151 TIP3     22079    TIP3     OH2      OT      -0.834000       15.9994           0
     76152 TIP3     22079    TIP3     H1       HT       0.417000       1.00800           0
     76153 TIP3     22079    TIP3     H2       HT       0.417000       1.00800           0
     76154 TIP3     22080    TIP3     OH2      OT      -0.834000       15.9994           0
     76155 TIP3     22080    TIP3     H1       HT       0.417000       1.00800           0
     76156 TIP3     22080    TIP3     H2       HT       0.417000       1.00800           0
     76157 TIP3     22081    TIP3     OH2      OT      -0.834000       15.9994           0
     76158 TIP3     22081    TIP3     H1       HT       0.417000       1.00800           0
     76159 TIP3     22081    TIP3     H2       HT       0.417000       1.00800           0
     76160 TIP3     22082    TIP3     OH2      OT      -0.834000       15.9994           0
     76161 TIP3     22082    TIP3     H1       HT       0.417000       1.00800           0
     76162 TIP3     22082    TIP3     H2       HT       0.417000       1.00800           0
     76163 TIP3     22083    TIP3     OH2      OT      -0.834000       15.9994           0
     76164 TIP3     22083    TIP3     H1       HT       0.417000       1.00800           0
     76165 TIP3     22083    TIP3     H2       HT       0.417000       1.00800           0
     76166 TIP3     22084    TIP3     OH2      OT      -0.834000       15.9994           0
     76167 TIP3     22084    TIP3     H1       HT       0.417000       1.00800           0
     76168 TIP3     22084    TIP3     H2       HT       0.417000       1.00800           0
     76169 TIP3     22085    TIP3     OH2      OT      -0.834000       15.9994           0
     76170 TIP3     22085    TIP3     H1       HT       0.417000       1.00800           0
     76171 TIP3     22085    TIP3     H2       HT       0.417000       1.00800           0
     76172 TIP3     22086    TIP3     OH2      OT      -0.834000       15.9994           0
     76173 TIP3     22086    TIP3     H1       HT       0.417000       1.00800           0
     76174 TIP3     22086    TIP3     H2       HT       0.417000       1.00800           0
     76175 TIP3     22087    TIP3     OH2      OT      -0.834000       15.9994           0
     76176 TIP3     22087    TIP3     H1       HT       0.417000       1.00800           0
     76177 TIP3     22087    TIP3     H2       HT       0.417000       1.00800           0
     76178 TIP3     22088    TIP3     OH2      OT      -0.834000       15.9994           0
     76179 TIP3     22088    TIP3     H1       HT       0.417000       1.00800           0
     76180 TIP3     22088    TIP3     H2       HT       0.417000       1.00800           0
     76181 TIP3     22089    TIP3     OH2      OT      -0.834000       15.9994           0
     76182 TIP3     22089    TIP3     H1       HT       0.417000       1.00800           0
     76183 TIP3     22089    TIP3     H2       HT       0.417000       1.00800           0
     76184 TIP3     22090    TIP3     OH2      OT      -0.834000       15.9994           0
     76185 TIP3     22090    TIP3     H1       HT       0.417000       1.00800           0
     76186 TIP3     22090    TIP3     H2       HT       0.417000       1.00800           0
     76187 TIP3     22091    TIP3     OH2      OT      -0.834000       15.9994           0
     76188 TIP3     22091    TIP3     H1       HT       0.417000       1.00800           0
     76189 TIP3     22091    TIP3     H2       HT       0.417000       1.00800           0
     76190 TIP3     22092    TIP3     OH2      OT      -0.834000       15.9994           0
     76191 TIP3     22092    TIP3     H1       HT       0.417000       1.00800           0
     76192 TIP3     22092    TIP3     H2       HT       0.417000       1.00800           0
     76193 TIP3     22093    TIP3     OH2      OT      -0.834000       15.9994           0
     76194 TIP3     22093    TIP3     H1       HT       0.417000       1.00800           0
     76195 TIP3     22093    TIP3     H2       HT       0.417000       1.00800           0
     76196 TIP3     22094    TIP3     OH2      OT      -0.834000       15.9994           0
     76197 TIP3     22094    TIP3     H1       HT       0.417000       1.00800           0
     76198 TIP3     22094    TIP3     H2       HT       0.417000       1.00800           0
     76199 TIP3     22095    TIP3     OH2      OT      -0.834000       15.9994           0
     76200 TIP3     22095    TIP3     H1       HT       0.417000       1.00800           0
     76201 TIP3     22095    TIP3     H2       HT       0.417000       1.00800           0
     76202 TIP3     22096    TIP3     OH2      OT      -0.834000       15.9994           0
     76203 TIP3     22096    TIP3     H1       HT       0.417000       1.00800           0
     76204 TIP3     22096    TIP3     H2       HT       0.417000       1.00800           0
     76205 TIP3     22097    TIP3     OH2      OT      -0.834000       15.9994           0
     76206 TIP3     22097    TIP3     H1       HT       0.417000       1.00800           0
     76207 TIP3     22097    TIP3     H2       HT       0.417000       1.00800           0
     76208 TIP3     22098    TIP3     OH2      OT      -0.834000       15.9994           0
     76209 TIP3     22098    TIP3     H1       HT       0.417000       1.00800           0
     76210 TIP3     22098    TIP3     H2       HT       0.417000       1.00800           0
     76211 TIP3     22099    TIP3     OH2      OT      -0.834000       15.9994           0
     76212 TIP3     22099    TIP3     H1       HT       0.417000       1.00800           0
     76213 TIP3     22099    TIP3     H2       HT       0.417000       1.00800           0
     76214 TIP3     22100    TIP3     OH2      OT      -0.834000       15.9994           0
     76215 TIP3     22100    TIP3     H1       HT       0.417000       1.00800           0
     76216 TIP3     22100    TIP3     H2       HT       0.417000       1.00800           0
     76217 TIP3     22101    TIP3     OH2      OT      -0.834000       15.9994           0
     76218 TIP3     22101    TIP3     H1       HT       0.417000       1.00800           0
     76219 TIP3     22101    TIP3     H2       HT       0.417000       1.00800           0
     76220 TIP3     22102    TIP3     OH2      OT      -0.834000       15.9994           0
     76221 TIP3     22102    TIP3     H1       HT       0.417000       1.00800           0
     76222 TIP3     22102    TIP3     H2       HT       0.417000       1.00800           0
     76223 TIP3     22103    TIP3     OH2      OT      -0.834000       15.9994           0
     76224 TIP3     22103    TIP3     H1       HT       0.417000       1.00800           0
     76225 TIP3     22103    TIP3     H2       HT       0.417000       1.00800           0
     76226 TIP3     22104    TIP3     OH2      OT      -0.834000       15.9994           0
     76227 TIP3     22104    TIP3     H1       HT       0.417000       1.00800           0
     76228 TIP3     22104    TIP3     H2       HT       0.417000       1.00800           0
     76229 TIP3     22105    TIP3     OH2      OT      -0.834000       15.9994           0
     76230 TIP3     22105    TIP3     H1       HT       0.417000       1.00800           0
     76231 TIP3     22105    TIP3     H2       HT       0.417000       1.00800           0
     76232 TIP3     22106    TIP3     OH2      OT      -0.834000       15.9994           0
     76233 TIP3     22106    TIP3     H1       HT       0.417000       1.00800           0
     76234 TIP3     22106    TIP3     H2       HT       0.417000       1.00800           0
     76235 TIP3     22107    TIP3     OH2      OT      -0.834000       15.9994           0
     76236 TIP3     22107    TIP3     H1       HT       0.417000       1.00800           0
     76237 TIP3     22107    TIP3     H2       HT       0.417000       1.00800           0
     76238 TIP3     22108    TIP3     OH2      OT      -0.834000       15.9994           0
     76239 TIP3     22108    TIP3     H1       HT       0.417000       1.00800           0
     76240 TIP3     22108    TIP3     H2       HT       0.417000       1.00800           0
     76241 TIP3     22109    TIP3     OH2      OT      -0.834000       15.9994           0
     76242 TIP3     22109    TIP3     H1       HT       0.417000       1.00800           0
     76243 TIP3     22109    TIP3     H2       HT       0.417000       1.00800           0
     76244 TIP3     22110    TIP3     OH2      OT      -0.834000       15.9994           0
     76245 TIP3     22110    TIP3     H1       HT       0.417000       1.00800           0
     76246 TIP3     22110    TIP3     H2       HT       0.417000       1.00800           0
     76247 TIP3     22111    TIP3     OH2      OT      -0.834000       15.9994           0
     76248 TIP3     22111    TIP3     H1       HT       0.417000       1.00800           0
     76249 TIP3     22111    TIP3     H2       HT       0.417000       1.00800           0
     76250 TIP3     22112    TIP3     OH2      OT      -0.834000       15.9994           0
     76251 TIP3     22112    TIP3     H1       HT       0.417000       1.00800           0
     76252 TIP3     22112    TIP3     H2       HT       0.417000       1.00800           0
     76253 TIP3     22113    TIP3     OH2      OT      -0.834000       15.9994           0
     76254 TIP3     22113    TIP3     H1       HT       0.417000       1.00800           0
     76255 TIP3     22113    TIP3     H2       HT       0.417000       1.00800           0
     76256 TIP3     22114    TIP3     OH2      OT      -0.834000       15.9994           0
     76257 TIP3     22114    TIP3     H1       HT       0.417000       1.00800           0
     76258 TIP3     22114    TIP3     H2       HT       0.417000       1.00800           0
     76259 TIP3     22115    TIP3     OH2      OT      -0.834000       15.9994           0
     76260 TIP3     22115    TIP3     H1       HT       0.417000       1.00800           0
     76261 TIP3     22115    TIP3     H2       HT       0.417000       1.00800           0
     76262 TIP3     22116    TIP3     OH2      OT      -0.834000       15.9994           0
     76263 TIP3     22116    TIP3     H1       HT       0.417000       1.00800           0
     76264 TIP3     22116    TIP3     H2       HT       0.417000       1.00800           0
     76265 TIP3     22117    TIP3     OH2      OT      -0.834000       15.9994           0
     76266 TIP3     22117    TIP3     H1       HT       0.417000       1.00800           0
     76267 TIP3     22117    TIP3     H2       HT       0.417000       1.00800           0
     76268 TIP3     22118    TIP3     OH2      OT      -0.834000       15.9994           0
     76269 TIP3     22118    TIP3     H1       HT       0.417000       1.00800           0
     76270 TIP3     22118    TIP3     H2       HT       0.417000       1.00800           0
     76271 TIP3     22119    TIP3     OH2      OT      -0.834000       15.9994           0
     76272 TIP3     22119    TIP3     H1       HT       0.417000       1.00800           0
     76273 TIP3     22119    TIP3     H2       HT       0.417000       1.00800           0
     76274 TIP3     22120    TIP3     OH2      OT      -0.834000       15.9994           0
     76275 TIP3     22120    TIP3     H1       HT       0.417000       1.00800           0
     76276 TIP3     22120    TIP3     H2       HT       0.417000       1.00800           0
     76277 TIP3     22121    TIP3     OH2      OT      -0.834000       15.9994           0
     76278 TIP3     22121    TIP3     H1       HT       0.417000       1.00800           0
     76279 TIP3     22121    TIP3     H2       HT       0.417000       1.00800           0
     76280 TIP3     22122    TIP3     OH2      OT      -0.834000       15.9994           0
     76281 TIP3     22122    TIP3     H1       HT       0.417000       1.00800           0
     76282 TIP3     22122    TIP3     H2       HT       0.417000       1.00800           0
     76283 TIP3     22123    TIP3     OH2      OT      -0.834000       15.9994           0
     76284 TIP3     22123    TIP3     H1       HT       0.417000       1.00800           0
     76285 TIP3     22123    TIP3     H2       HT       0.417000       1.00800           0
     76286 TIP3     22124    TIP3     OH2      OT      -0.834000       15.9994           0
     76287 TIP3     22124    TIP3     H1       HT       0.417000       1.00800           0
     76288 TIP3     22124    TIP3     H2       HT       0.417000       1.00800           0
     76289 TIP3     22125    TIP3     OH2      OT      -0.834000       15.9994           0
     76290 TIP3     22125    TIP3     H1       HT       0.417000       1.00800           0
     76291 TIP3     22125    TIP3     H2       HT       0.417000       1.00800           0
     76292 TIP3     22126    TIP3     OH2      OT      -0.834000       15.9994           0
     76293 TIP3     22126    TIP3     H1       HT       0.417000       1.00800           0
     76294 TIP3     22126    TIP3     H2       HT       0.417000       1.00800           0
     76295 TIP3     22127    TIP3     OH2      OT      -0.834000       15.9994           0
     76296 TIP3     22127    TIP3     H1       HT       0.417000       1.00800           0
     76297 TIP3     22127    TIP3     H2       HT       0.417000       1.00800           0
     76298 TIP3     22128    TIP3     OH2      OT      -0.834000       15.9994           0
     76299 TIP3     22128    TIP3     H1       HT       0.417000       1.00800           0
     76300 TIP3     22128    TIP3     H2       HT       0.417000       1.00800           0
     76301 TIP3     22129    TIP3     OH2      OT      -0.834000       15.9994           0
     76302 TIP3     22129    TIP3     H1       HT       0.417000       1.00800           0
     76303 TIP3     22129    TIP3     H2       HT       0.417000       1.00800           0
     76304 TIP3     22130    TIP3     OH2      OT      -0.834000       15.9994           0
     76305 TIP3     22130    TIP3     H1       HT       0.417000       1.00800           0
     76306 TIP3     22130    TIP3     H2       HT       0.417000       1.00800           0
     76307 TIP3     22131    TIP3     OH2      OT      -0.834000       15.9994           0
     76308 TIP3     22131    TIP3     H1       HT       0.417000       1.00800           0
     76309 TIP3     22131    TIP3     H2       HT       0.417000       1.00800           0
     76310 TIP3     22132    TIP3     OH2      OT      -0.834000       15.9994           0
     76311 TIP3     22132    TIP3     H1       HT       0.417000       1.00800           0
     76312 TIP3     22132    TIP3     H2       HT       0.417000       1.00800           0
     76313 TIP3     22133    TIP3     OH2      OT      -0.834000       15.9994           0
     76314 TIP3     22133    TIP3     H1       HT       0.417000       1.00800           0
     76315 TIP3     22133    TIP3     H2       HT       0.417000       1.00800           0
     76316 TIP3     22134    TIP3     OH2      OT      -0.834000       15.9994           0
     76317 TIP3     22134    TIP3     H1       HT       0.417000       1.00800           0
     76318 TIP3     22134    TIP3     H2       HT       0.417000       1.00800           0
     76319 TIP3     22135    TIP3     OH2      OT      -0.834000       15.9994           0
     76320 TIP3     22135    TIP3     H1       HT       0.417000       1.00800           0
     76321 TIP3     22135    TIP3     H2       HT       0.417000       1.00800           0
     76322 TIP3     22136    TIP3     OH2      OT      -0.834000       15.9994           0
     76323 TIP3     22136    TIP3     H1       HT       0.417000       1.00800           0
     76324 TIP3     22136    TIP3     H2       HT       0.417000       1.00800           0
     76325 TIP3     22137    TIP3     OH2      OT      -0.834000       15.9994           0
     76326 TIP3     22137    TIP3     H1       HT       0.417000       1.00800           0
     76327 TIP3     22137    TIP3     H2       HT       0.417000       1.00800           0
     76328 TIP3     22138    TIP3     OH2      OT      -0.834000       15.9994           0
     76329 TIP3     22138    TIP3     H1       HT       0.417000       1.00800           0
     76330 TIP3     22138    TIP3     H2       HT       0.417000       1.00800           0
     76331 TIP3     22139    TIP3     OH2      OT      -0.834000       15.9994           0
     76332 TIP3     22139    TIP3     H1       HT       0.417000       1.00800           0
     76333 TIP3     22139    TIP3     H2       HT       0.417000       1.00800           0
     76334 TIP3     22140    TIP3     OH2      OT      -0.834000       15.9994           0
     76335 TIP3     22140    TIP3     H1       HT       0.417000       1.00800           0
     76336 TIP3     22140    TIP3     H2       HT       0.417000       1.00800           0
     76337 TIP3     22141    TIP3     OH2      OT      -0.834000       15.9994           0
     76338 TIP3     22141    TIP3     H1       HT       0.417000       1.00800           0
     76339 TIP3     22141    TIP3     H2       HT       0.417000       1.00800           0
     76340 TIP3     22142    TIP3     OH2      OT      -0.834000       15.9994           0
     76341 TIP3     22142    TIP3     H1       HT       0.417000       1.00800           0
     76342 TIP3     22142    TIP3     H2       HT       0.417000       1.00800           0
     76343 TIP3     22143    TIP3     OH2      OT      -0.834000       15.9994           0
     76344 TIP3     22143    TIP3     H1       HT       0.417000       1.00800           0
     76345 TIP3     22143    TIP3     H2       HT       0.417000       1.00800           0
     76346 TIP3     22144    TIP3     OH2      OT      -0.834000       15.9994           0
     76347 TIP3     22144    TIP3     H1       HT       0.417000       1.00800           0
     76348 TIP3     22144    TIP3     H2       HT       0.417000       1.00800           0
     76349 TIP3     22145    TIP3     OH2      OT      -0.834000       15.9994           0
     76350 TIP3     22145    TIP3     H1       HT       0.417000       1.00800           0
     76351 TIP3     22145    TIP3     H2       HT       0.417000       1.00800           0
     76352 TIP3     22146    TIP3     OH2      OT      -0.834000       15.9994           0
     76353 TIP3     22146    TIP3     H1       HT       0.417000       1.00800           0
     76354 TIP3     22146    TIP3     H2       HT       0.417000       1.00800           0
     76355 TIP3     22147    TIP3     OH2      OT      -0.834000       15.9994           0
     76356 TIP3     22147    TIP3     H1       HT       0.417000       1.00800           0
     76357 TIP3     22147    TIP3     H2       HT       0.417000       1.00800           0
     76358 TIP3     22148    TIP3     OH2      OT      -0.834000       15.9994           0
     76359 TIP3     22148    TIP3     H1       HT       0.417000       1.00800           0
     76360 TIP3     22148    TIP3     H2       HT       0.417000       1.00800           0
     76361 TIP3     22149    TIP3     OH2      OT      -0.834000       15.9994           0
     76362 TIP3     22149    TIP3     H1       HT       0.417000       1.00800           0
     76363 TIP3     22149    TIP3     H2       HT       0.417000       1.00800           0
     76364 TIP3     22150    TIP3     OH2      OT      -0.834000       15.9994           0
     76365 TIP3     22150    TIP3     H1       HT       0.417000       1.00800           0
     76366 TIP3     22150    TIP3     H2       HT       0.417000       1.00800           0
     76367 TIP3     22151    TIP3     OH2      OT      -0.834000       15.9994           0
     76368 TIP3     22151    TIP3     H1       HT       0.417000       1.00800           0
     76369 TIP3     22151    TIP3     H2       HT       0.417000       1.00800           0
     76370 TIP3     22152    TIP3     OH2      OT      -0.834000       15.9994           0
     76371 TIP3     22152    TIP3     H1       HT       0.417000       1.00800           0
     76372 TIP3     22152    TIP3     H2       HT       0.417000       1.00800           0
     76373 TIP3     22153    TIP3     OH2      OT      -0.834000       15.9994           0
     76374 TIP3     22153    TIP3     H1       HT       0.417000       1.00800           0
     76375 TIP3     22153    TIP3     H2       HT       0.417000       1.00800           0
     76376 TIP3     22154    TIP3     OH2      OT      -0.834000       15.9994           0
     76377 TIP3     22154    TIP3     H1       HT       0.417000       1.00800           0
     76378 TIP3     22154    TIP3     H2       HT       0.417000       1.00800           0
     76379 TIP3     22155    TIP3     OH2      OT      -0.834000       15.9994           0
     76380 TIP3     22155    TIP3     H1       HT       0.417000       1.00800           0
     76381 TIP3     22155    TIP3     H2       HT       0.417000       1.00800           0
     76382 TIP3     22156    TIP3     OH2      OT      -0.834000       15.9994           0
     76383 TIP3     22156    TIP3     H1       HT       0.417000       1.00800           0
     76384 TIP3     22156    TIP3     H2       HT       0.417000       1.00800           0
     76385 TIP3     22157    TIP3     OH2      OT      -0.834000       15.9994           0
     76386 TIP3     22157    TIP3     H1       HT       0.417000       1.00800           0
     76387 TIP3     22157    TIP3     H2       HT       0.417000       1.00800           0
     76388 TIP3     22158    TIP3     OH2      OT      -0.834000       15.9994           0
     76389 TIP3     22158    TIP3     H1       HT       0.417000       1.00800           0
     76390 TIP3     22158    TIP3     H2       HT       0.417000       1.00800           0
     76391 TIP3     22159    TIP3     OH2      OT      -0.834000       15.9994           0
     76392 TIP3     22159    TIP3     H1       HT       0.417000       1.00800           0
     76393 TIP3     22159    TIP3     H2       HT       0.417000       1.00800           0
     76394 TIP3     22160    TIP3     OH2      OT      -0.834000       15.9994           0
     76395 TIP3     22160    TIP3     H1       HT       0.417000       1.00800           0
     76396 TIP3     22160    TIP3     H2       HT       0.417000       1.00800           0
     76397 TIP3     22161    TIP3     OH2      OT      -0.834000       15.9994           0
     76398 TIP3     22161    TIP3     H1       HT       0.417000       1.00800           0
     76399 TIP3     22161    TIP3     H2       HT       0.417000       1.00800           0
     76400 TIP3     22162    TIP3     OH2      OT      -0.834000       15.9994           0
     76401 TIP3     22162    TIP3     H1       HT       0.417000       1.00800           0
     76402 TIP3     22162    TIP3     H2       HT       0.417000       1.00800           0
     76403 TIP3     22163    TIP3     OH2      OT      -0.834000       15.9994           0
     76404 TIP3     22163    TIP3     H1       HT       0.417000       1.00800           0
     76405 TIP3     22163    TIP3     H2       HT       0.417000       1.00800           0
     76406 TIP3     22164    TIP3     OH2      OT      -0.834000       15.9994           0
     76407 TIP3     22164    TIP3     H1       HT       0.417000       1.00800           0
     76408 TIP3     22164    TIP3     H2       HT       0.417000       1.00800           0
     76409 TIP3     22165    TIP3     OH2      OT      -0.834000       15.9994           0
     76410 TIP3     22165    TIP3     H1       HT       0.417000       1.00800           0
     76411 TIP3     22165    TIP3     H2       HT       0.417000       1.00800           0
     76412 TIP3     22166    TIP3     OH2      OT      -0.834000       15.9994           0
     76413 TIP3     22166    TIP3     H1       HT       0.417000       1.00800           0
     76414 TIP3     22166    TIP3     H2       HT       0.417000       1.00800           0
     76415 TIP3     22167    TIP3     OH2      OT      -0.834000       15.9994           0
     76416 TIP3     22167    TIP3     H1       HT       0.417000       1.00800           0
     76417 TIP3     22167    TIP3     H2       HT       0.417000       1.00800           0
     76418 TIP3     22168    TIP3     OH2      OT      -0.834000       15.9994           0
     76419 TIP3     22168    TIP3     H1       HT       0.417000       1.00800           0
     76420 TIP3     22168    TIP3     H2       HT       0.417000       1.00800           0
     76421 TIP3     22169    TIP3     OH2      OT      -0.834000       15.9994           0
     76422 TIP3     22169    TIP3     H1       HT       0.417000       1.00800           0
     76423 TIP3     22169    TIP3     H2       HT       0.417000       1.00800           0
     76424 TIP3     22170    TIP3     OH2      OT      -0.834000       15.9994           0
     76425 TIP3     22170    TIP3     H1       HT       0.417000       1.00800           0
     76426 TIP3     22170    TIP3     H2       HT       0.417000       1.00800           0
     76427 TIP3     22171    TIP3     OH2      OT      -0.834000       15.9994           0
     76428 TIP3     22171    TIP3     H1       HT       0.417000       1.00800           0
     76429 TIP3     22171    TIP3     H2       HT       0.417000       1.00800           0
     76430 TIP3     22172    TIP3     OH2      OT      -0.834000       15.9994           0
     76431 TIP3     22172    TIP3     H1       HT       0.417000       1.00800           0
     76432 TIP3     22172    TIP3     H2       HT       0.417000       1.00800           0
     76433 TIP3     22173    TIP3     OH2      OT      -0.834000       15.9994           0
     76434 TIP3     22173    TIP3     H1       HT       0.417000       1.00800           0
     76435 TIP3     22173    TIP3     H2       HT       0.417000       1.00800           0
     76436 TIP3     22174    TIP3     OH2      OT      -0.834000       15.9994           0
     76437 TIP3     22174    TIP3     H1       HT       0.417000       1.00800           0
     76438 TIP3     22174    TIP3     H2       HT       0.417000       1.00800           0
     76439 TIP3     22175    TIP3     OH2      OT      -0.834000       15.9994           0
     76440 TIP3     22175    TIP3     H1       HT       0.417000       1.00800           0
     76441 TIP3     22175    TIP3     H2       HT       0.417000       1.00800           0
     76442 TIP3     22176    TIP3     OH2      OT      -0.834000       15.9994           0
     76443 TIP3     22176    TIP3     H1       HT       0.417000       1.00800           0
     76444 TIP3     22176    TIP3     H2       HT       0.417000       1.00800           0
     76445 TIP3     22177    TIP3     OH2      OT      -0.834000       15.9994           0
     76446 TIP3     22177    TIP3     H1       HT       0.417000       1.00800           0
     76447 TIP3     22177    TIP3     H2       HT       0.417000       1.00800           0
     76448 TIP3     22178    TIP3     OH2      OT      -0.834000       15.9994           0
     76449 TIP3     22178    TIP3     H1       HT       0.417000       1.00800           0
     76450 TIP3     22178    TIP3     H2       HT       0.417000       1.00800           0
     76451 TIP3     22179    TIP3     OH2      OT      -0.834000       15.9994           0
     76452 TIP3     22179    TIP3     H1       HT       0.417000       1.00800           0
     76453 TIP3     22179    TIP3     H2       HT       0.417000       1.00800           0
     76454 TIP3     22180    TIP3     OH2      OT      -0.834000       15.9994           0
     76455 TIP3     22180    TIP3     H1       HT       0.417000       1.00800           0
     76456 TIP3     22180    TIP3     H2       HT       0.417000       1.00800           0
     76457 TIP3     22181    TIP3     OH2      OT      -0.834000       15.9994           0
     76458 TIP3     22181    TIP3     H1       HT       0.417000       1.00800           0
     76459 TIP3     22181    TIP3     H2       HT       0.417000       1.00800           0
     76460 TIP3     22182    TIP3     OH2      OT      -0.834000       15.9994           0
     76461 TIP3     22182    TIP3     H1       HT       0.417000       1.00800           0
     76462 TIP3     22182    TIP3     H2       HT       0.417000       1.00800           0
     76463 TIP3     22183    TIP3     OH2      OT      -0.834000       15.9994           0
     76464 TIP3     22183    TIP3     H1       HT       0.417000       1.00800           0
     76465 TIP3     22183    TIP3     H2       HT       0.417000       1.00800           0
     76466 TIP3     22184    TIP3     OH2      OT      -0.834000       15.9994           0
     76467 TIP3     22184    TIP3     H1       HT       0.417000       1.00800           0
     76468 TIP3     22184    TIP3     H2       HT       0.417000       1.00800           0
     76469 TIP3     22185    TIP3     OH2      OT      -0.834000       15.9994           0
     76470 TIP3     22185    TIP3     H1       HT       0.417000       1.00800           0
     76471 TIP3     22185    TIP3     H2       HT       0.417000       1.00800           0
     76472 TIP3     22186    TIP3     OH2      OT      -0.834000       15.9994           0
     76473 TIP3     22186    TIP3     H1       HT       0.417000       1.00800           0
     76474 TIP3     22186    TIP3     H2       HT       0.417000       1.00800           0
     76475 TIP3     22187    TIP3     OH2      OT      -0.834000       15.9994           0
     76476 TIP3     22187    TIP3     H1       HT       0.417000       1.00800           0
     76477 TIP3     22187    TIP3     H2       HT       0.417000       1.00800           0
     76478 TIP3     22188    TIP3     OH2      OT      -0.834000       15.9994           0
     76479 TIP3     22188    TIP3     H1       HT       0.417000       1.00800           0
     76480 TIP3     22188    TIP3     H2       HT       0.417000       1.00800           0
     76481 TIP3     22189    TIP3     OH2      OT      -0.834000       15.9994           0
     76482 TIP3     22189    TIP3     H1       HT       0.417000       1.00800           0
     76483 TIP3     22189    TIP3     H2       HT       0.417000       1.00800           0
     76484 TIP3     22190    TIP3     OH2      OT      -0.834000       15.9994           0
     76485 TIP3     22190    TIP3     H1       HT       0.417000       1.00800           0
     76486 TIP3     22190    TIP3     H2       HT       0.417000       1.00800           0
     76487 TIP3     22191    TIP3     OH2      OT      -0.834000       15.9994           0
     76488 TIP3     22191    TIP3     H1       HT       0.417000       1.00800           0
     76489 TIP3     22191    TIP3     H2       HT       0.417000       1.00800           0
     76490 TIP3     22192    TIP3     OH2      OT      -0.834000       15.9994           0
     76491 TIP3     22192    TIP3     H1       HT       0.417000       1.00800           0
     76492 TIP3     22192    TIP3     H2       HT       0.417000       1.00800           0
     76493 TIP3     22193    TIP3     OH2      OT      -0.834000       15.9994           0
     76494 TIP3     22193    TIP3     H1       HT       0.417000       1.00800           0
     76495 TIP3     22193    TIP3     H2       HT       0.417000       1.00800           0
     76496 TIP3     22194    TIP3     OH2      OT      -0.834000       15.9994           0
     76497 TIP3     22194    TIP3     H1       HT       0.417000       1.00800           0
     76498 TIP3     22194    TIP3     H2       HT       0.417000       1.00800           0
     76499 TIP3     22195    TIP3     OH2      OT      -0.834000       15.9994           0
     76500 TIP3     22195    TIP3     H1       HT       0.417000       1.00800           0
     76501 TIP3     22195    TIP3     H2       HT       0.417000       1.00800           0
     76502 TIP3     22196    TIP3     OH2      OT      -0.834000       15.9994           0
     76503 TIP3     22196    TIP3     H1       HT       0.417000       1.00800           0
     76504 TIP3     22196    TIP3     H2       HT       0.417000       1.00800           0
     76505 TIP3     22197    TIP3     OH2      OT      -0.834000       15.9994           0
     76506 TIP3     22197    TIP3     H1       HT       0.417000       1.00800           0
     76507 TIP3     22197    TIP3     H2       HT       0.417000       1.00800           0
     76508 TIP3     22198    TIP3     OH2      OT      -0.834000       15.9994           0
     76509 TIP3     22198    TIP3     H1       HT       0.417000       1.00800           0
     76510 TIP3     22198    TIP3     H2       HT       0.417000       1.00800           0
     76511 TIP3     22199    TIP3     OH2      OT      -0.834000       15.9994           0
     76512 TIP3     22199    TIP3     H1       HT       0.417000       1.00800           0
     76513 TIP3     22199    TIP3     H2       HT       0.417000       1.00800           0
     76514 TIP3     22200    TIP3     OH2      OT      -0.834000       15.9994           0
     76515 TIP3     22200    TIP3     H1       HT       0.417000       1.00800           0
     76516 TIP3     22200    TIP3     H2       HT       0.417000       1.00800           0
     76517 TIP3     22201    TIP3     OH2      OT      -0.834000       15.9994           0
     76518 TIP3     22201    TIP3     H1       HT       0.417000       1.00800           0
     76519 TIP3     22201    TIP3     H2       HT       0.417000       1.00800           0
     76520 TIP3     22202    TIP3     OH2      OT      -0.834000       15.9994           0
     76521 TIP3     22202    TIP3     H1       HT       0.417000       1.00800           0
     76522 TIP3     22202    TIP3     H2       HT       0.417000       1.00800           0
     76523 TIP3     22203    TIP3     OH2      OT      -0.834000       15.9994           0
     76524 TIP3     22203    TIP3     H1       HT       0.417000       1.00800           0
     76525 TIP3     22203    TIP3     H2       HT       0.417000       1.00800           0
     76526 TIP3     22204    TIP3     OH2      OT      -0.834000       15.9994           0
     76527 TIP3     22204    TIP3     H1       HT       0.417000       1.00800           0
     76528 TIP3     22204    TIP3     H2       HT       0.417000       1.00800           0
     76529 TIP3     22205    TIP3     OH2      OT      -0.834000       15.9994           0
     76530 TIP3     22205    TIP3     H1       HT       0.417000       1.00800           0
     76531 TIP3     22205    TIP3     H2       HT       0.417000       1.00800           0
     76532 TIP3     22206    TIP3     OH2      OT      -0.834000       15.9994           0
     76533 TIP3     22206    TIP3     H1       HT       0.417000       1.00800           0
     76534 TIP3     22206    TIP3     H2       HT       0.417000       1.00800           0
     76535 TIP3     22207    TIP3     OH2      OT      -0.834000       15.9994           0
     76536 TIP3     22207    TIP3     H1       HT       0.417000       1.00800           0
     76537 TIP3     22207    TIP3     H2       HT       0.417000       1.00800           0
     76538 TIP3     22208    TIP3     OH2      OT      -0.834000       15.9994           0
     76539 TIP3     22208    TIP3     H1       HT       0.417000       1.00800           0
     76540 TIP3     22208    TIP3     H2       HT       0.417000       1.00800           0
     76541 TIP3     22209    TIP3     OH2      OT      -0.834000       15.9994           0
     76542 TIP3     22209    TIP3     H1       HT       0.417000       1.00800           0
     76543 TIP3     22209    TIP3     H2       HT       0.417000       1.00800           0
     76544 TIP3     22210    TIP3     OH2      OT      -0.834000       15.9994           0
     76545 TIP3     22210    TIP3     H1       HT       0.417000       1.00800           0
     76546 TIP3     22210    TIP3     H2       HT       0.417000       1.00800           0
     76547 TIP3     22211    TIP3     OH2      OT      -0.834000       15.9994           0
     76548 TIP3     22211    TIP3     H1       HT       0.417000       1.00800           0
     76549 TIP3     22211    TIP3     H2       HT       0.417000       1.00800           0
     76550 TIP3     22212    TIP3     OH2      OT      -0.834000       15.9994           0
     76551 TIP3     22212    TIP3     H1       HT       0.417000       1.00800           0
     76552 TIP3     22212    TIP3     H2       HT       0.417000       1.00800           0
     76553 TIP3     22213    TIP3     OH2      OT      -0.834000       15.9994           0
     76554 TIP3     22213    TIP3     H1       HT       0.417000       1.00800           0
     76555 TIP3     22213    TIP3     H2       HT       0.417000       1.00800           0
     76556 TIP3     22214    TIP3     OH2      OT      -0.834000       15.9994           0
     76557 TIP3     22214    TIP3     H1       HT       0.417000       1.00800           0
     76558 TIP3     22214    TIP3     H2       HT       0.417000       1.00800           0
     76559 TIP3     22215    TIP3     OH2      OT      -0.834000       15.9994           0
     76560 TIP3     22215    TIP3     H1       HT       0.417000       1.00800           0
     76561 TIP3     22215    TIP3     H2       HT       0.417000       1.00800           0
     76562 TIP3     22216    TIP3     OH2      OT      -0.834000       15.9994           0
     76563 TIP3     22216    TIP3     H1       HT       0.417000       1.00800           0
     76564 TIP3     22216    TIP3     H2       HT       0.417000       1.00800           0
     76565 TIP3     22217    TIP3     OH2      OT      -0.834000       15.9994           0
     76566 TIP3     22217    TIP3     H1       HT       0.417000       1.00800           0
     76567 TIP3     22217    TIP3     H2       HT       0.417000       1.00800           0
     76568 TIP3     22218    TIP3     OH2      OT      -0.834000       15.9994           0
     76569 TIP3     22218    TIP3     H1       HT       0.417000       1.00800           0
     76570 TIP3     22218    TIP3     H2       HT       0.417000       1.00800           0
     76571 TIP3     22219    TIP3     OH2      OT      -0.834000       15.9994           0
     76572 TIP3     22219    TIP3     H1       HT       0.417000       1.00800           0
     76573 TIP3     22219    TIP3     H2       HT       0.417000       1.00800           0
     76574 TIP3     22220    TIP3     OH2      OT      -0.834000       15.9994           0
     76575 TIP3     22220    TIP3     H1       HT       0.417000       1.00800           0
     76576 TIP3     22220    TIP3     H2       HT       0.417000       1.00800           0
     76577 TIP3     22221    TIP3     OH2      OT      -0.834000       15.9994           0
     76578 TIP3     22221    TIP3     H1       HT       0.417000       1.00800           0
     76579 TIP3     22221    TIP3     H2       HT       0.417000       1.00800           0
     76580 TIP3     22222    TIP3     OH2      OT      -0.834000       15.9994           0
     76581 TIP3     22222    TIP3     H1       HT       0.417000       1.00800           0
     76582 TIP3     22222    TIP3     H2       HT       0.417000       1.00800           0
     76583 TIP3     22223    TIP3     OH2      OT      -0.834000       15.9994           0
     76584 TIP3     22223    TIP3     H1       HT       0.417000       1.00800           0
     76585 TIP3     22223    TIP3     H2       HT       0.417000       1.00800           0
     76586 TIP3     22224    TIP3     OH2      OT      -0.834000       15.9994           0
     76587 TIP3     22224    TIP3     H1       HT       0.417000       1.00800           0
     76588 TIP3     22224    TIP3     H2       HT       0.417000       1.00800           0
     76589 TIP3     22225    TIP3     OH2      OT      -0.834000       15.9994           0
     76590 TIP3     22225    TIP3     H1       HT       0.417000       1.00800           0
     76591 TIP3     22225    TIP3     H2       HT       0.417000       1.00800           0
     76592 TIP3     22226    TIP3     OH2      OT      -0.834000       15.9994           0
     76593 TIP3     22226    TIP3     H1       HT       0.417000       1.00800           0
     76594 TIP3     22226    TIP3     H2       HT       0.417000       1.00800           0
     76595 TIP3     22227    TIP3     OH2      OT      -0.834000       15.9994           0
     76596 TIP3     22227    TIP3     H1       HT       0.417000       1.00800           0
     76597 TIP3     22227    TIP3     H2       HT       0.417000       1.00800           0
     76598 TIP3     22228    TIP3     OH2      OT      -0.834000       15.9994           0
     76599 TIP3     22228    TIP3     H1       HT       0.417000       1.00800           0
     76600 TIP3     22228    TIP3     H2       HT       0.417000       1.00800           0
     76601 TIP3     22229    TIP3     OH2      OT      -0.834000       15.9994           0
     76602 TIP3     22229    TIP3     H1       HT       0.417000       1.00800           0
     76603 TIP3     22229    TIP3     H2       HT       0.417000       1.00800           0
     76604 TIP3     22230    TIP3     OH2      OT      -0.834000       15.9994           0
     76605 TIP3     22230    TIP3     H1       HT       0.417000       1.00800           0
     76606 TIP3     22230    TIP3     H2       HT       0.417000       1.00800           0
     76607 TIP3     22231    TIP3     OH2      OT      -0.834000       15.9994           0
     76608 TIP3     22231    TIP3     H1       HT       0.417000       1.00800           0
     76609 TIP3     22231    TIP3     H2       HT       0.417000       1.00800           0
     76610 TIP3     22232    TIP3     OH2      OT      -0.834000       15.9994           0
     76611 TIP3     22232    TIP3     H1       HT       0.417000       1.00800           0
     76612 TIP3     22232    TIP3     H2       HT       0.417000       1.00800           0
     76613 TIP3     22233    TIP3     OH2      OT      -0.834000       15.9994           0
     76614 TIP3     22233    TIP3     H1       HT       0.417000       1.00800           0
     76615 TIP3     22233    TIP3     H2       HT       0.417000       1.00800           0
     76616 TIP3     22234    TIP3     OH2      OT      -0.834000       15.9994           0
     76617 TIP3     22234    TIP3     H1       HT       0.417000       1.00800           0
     76618 TIP3     22234    TIP3     H2       HT       0.417000       1.00800           0
     76619 TIP3     22235    TIP3     OH2      OT      -0.834000       15.9994           0
     76620 TIP3     22235    TIP3     H1       HT       0.417000       1.00800           0
     76621 TIP3     22235    TIP3     H2       HT       0.417000       1.00800           0
     76622 TIP3     22236    TIP3     OH2      OT      -0.834000       15.9994           0
     76623 TIP3     22236    TIP3     H1       HT       0.417000       1.00800           0
     76624 TIP3     22236    TIP3     H2       HT       0.417000       1.00800           0
     76625 TIP3     22237    TIP3     OH2      OT      -0.834000       15.9994           0
     76626 TIP3     22237    TIP3     H1       HT       0.417000       1.00800           0
     76627 TIP3     22237    TIP3     H2       HT       0.417000       1.00800           0
     76628 TIP3     22238    TIP3     OH2      OT      -0.834000       15.9994           0
     76629 TIP3     22238    TIP3     H1       HT       0.417000       1.00800           0
     76630 TIP3     22238    TIP3     H2       HT       0.417000       1.00800           0
     76631 TIP3     22239    TIP3     OH2      OT      -0.834000       15.9994           0
     76632 TIP3     22239    TIP3     H1       HT       0.417000       1.00800           0
     76633 TIP3     22239    TIP3     H2       HT       0.417000       1.00800           0
     76634 TIP3     22240    TIP3     OH2      OT      -0.834000       15.9994           0
     76635 TIP3     22240    TIP3     H1       HT       0.417000       1.00800           0
     76636 TIP3     22240    TIP3     H2       HT       0.417000       1.00800           0
     76637 TIP3     22241    TIP3     OH2      OT      -0.834000       15.9994           0
     76638 TIP3     22241    TIP3     H1       HT       0.417000       1.00800           0
     76639 TIP3     22241    TIP3     H2       HT       0.417000       1.00800           0
     76640 TIP3     22242    TIP3     OH2      OT      -0.834000       15.9994           0
     76641 TIP3     22242    TIP3     H1       HT       0.417000       1.00800           0
     76642 TIP3     22242    TIP3     H2       HT       0.417000       1.00800           0
     76643 TIP3     22243    TIP3     OH2      OT      -0.834000       15.9994           0
     76644 TIP3     22243    TIP3     H1       HT       0.417000       1.00800           0
     76645 TIP3     22243    TIP3     H2       HT       0.417000       1.00800           0
     76646 TIP3     22244    TIP3     OH2      OT      -0.834000       15.9994           0
     76647 TIP3     22244    TIP3     H1       HT       0.417000       1.00800           0
     76648 TIP3     22244    TIP3     H2       HT       0.417000       1.00800           0
     76649 TIP3     22245    TIP3     OH2      OT      -0.834000       15.9994           0
     76650 TIP3     22245    TIP3     H1       HT       0.417000       1.00800           0
     76651 TIP3     22245    TIP3     H2       HT       0.417000       1.00800           0
     76652 TIP3     22246    TIP3     OH2      OT      -0.834000       15.9994           0
     76653 TIP3     22246    TIP3     H1       HT       0.417000       1.00800           0
     76654 TIP3     22246    TIP3     H2       HT       0.417000       1.00800           0
     76655 TIP3     22247    TIP3     OH2      OT      -0.834000       15.9994           0
     76656 TIP3     22247    TIP3     H1       HT       0.417000       1.00800           0
     76657 TIP3     22247    TIP3     H2       HT       0.417000       1.00800           0
     76658 TIP3     22248    TIP3     OH2      OT      -0.834000       15.9994           0
     76659 TIP3     22248    TIP3     H1       HT       0.417000       1.00800           0
     76660 TIP3     22248    TIP3     H2       HT       0.417000       1.00800           0
     76661 TIP3     22249    TIP3     OH2      OT      -0.834000       15.9994           0
     76662 TIP3     22249    TIP3     H1       HT       0.417000       1.00800           0
     76663 TIP3     22249    TIP3     H2       HT       0.417000       1.00800           0
     76664 TIP3     22250    TIP3     OH2      OT      -0.834000       15.9994           0
     76665 TIP3     22250    TIP3     H1       HT       0.417000       1.00800           0
     76666 TIP3     22250    TIP3     H2       HT       0.417000       1.00800           0
     76667 TIP3     22251    TIP3     OH2      OT      -0.834000       15.9994           0
     76668 TIP3     22251    TIP3     H1       HT       0.417000       1.00800           0
     76669 TIP3     22251    TIP3     H2       HT       0.417000       1.00800           0
     76670 TIP3     22252    TIP3     OH2      OT      -0.834000       15.9994           0
     76671 TIP3     22252    TIP3     H1       HT       0.417000       1.00800           0
     76672 TIP3     22252    TIP3     H2       HT       0.417000       1.00800           0
     76673 TIP3     22253    TIP3     OH2      OT      -0.834000       15.9994           0
     76674 TIP3     22253    TIP3     H1       HT       0.417000       1.00800           0
     76675 TIP3     22253    TIP3     H2       HT       0.417000       1.00800           0
     76676 TIP3     22254    TIP3     OH2      OT      -0.834000       15.9994           0
     76677 TIP3     22254    TIP3     H1       HT       0.417000       1.00800           0
     76678 TIP3     22254    TIP3     H2       HT       0.417000       1.00800           0
     76679 TIP3     22255    TIP3     OH2      OT      -0.834000       15.9994           0
     76680 TIP3     22255    TIP3     H1       HT       0.417000       1.00800           0
     76681 TIP3     22255    TIP3     H2       HT       0.417000       1.00800           0
     76682 TIP3     22256    TIP3     OH2      OT      -0.834000       15.9994           0
     76683 TIP3     22256    TIP3     H1       HT       0.417000       1.00800           0
     76684 TIP3     22256    TIP3     H2       HT       0.417000       1.00800           0
     76685 TIP3     22257    TIP3     OH2      OT      -0.834000       15.9994           0
     76686 TIP3     22257    TIP3     H1       HT       0.417000       1.00800           0
     76687 TIP3     22257    TIP3     H2       HT       0.417000       1.00800           0
     76688 TIP3     22258    TIP3     OH2      OT      -0.834000       15.9994           0
     76689 TIP3     22258    TIP3     H1       HT       0.417000       1.00800           0
     76690 TIP3     22258    TIP3     H2       HT       0.417000       1.00800           0
     76691 TIP3     22259    TIP3     OH2      OT      -0.834000       15.9994           0
     76692 TIP3     22259    TIP3     H1       HT       0.417000       1.00800           0
     76693 TIP3     22259    TIP3     H2       HT       0.417000       1.00800           0
     76694 TIP3     22260    TIP3     OH2      OT      -0.834000       15.9994           0
     76695 TIP3     22260    TIP3     H1       HT       0.417000       1.00800           0
     76696 TIP3     22260    TIP3     H2       HT       0.417000       1.00800           0
     76697 TIP3     22261    TIP3     OH2      OT      -0.834000       15.9994           0
     76698 TIP3     22261    TIP3     H1       HT       0.417000       1.00800           0
     76699 TIP3     22261    TIP3     H2       HT       0.417000       1.00800           0
     76700 TIP3     22262    TIP3     OH2      OT      -0.834000       15.9994           0
     76701 TIP3     22262    TIP3     H1       HT       0.417000       1.00800           0
     76702 TIP3     22262    TIP3     H2       HT       0.417000       1.00800           0
     76703 TIP3     22263    TIP3     OH2      OT      -0.834000       15.9994           0
     76704 TIP3     22263    TIP3     H1       HT       0.417000       1.00800           0
     76705 TIP3     22263    TIP3     H2       HT       0.417000       1.00800           0
     76706 TIP3     22264    TIP3     OH2      OT      -0.834000       15.9994           0
     76707 TIP3     22264    TIP3     H1       HT       0.417000       1.00800           0
     76708 TIP3     22264    TIP3     H2       HT       0.417000       1.00800           0
     76709 TIP3     22265    TIP3     OH2      OT      -0.834000       15.9994           0
     76710 TIP3     22265    TIP3     H1       HT       0.417000       1.00800           0
     76711 TIP3     22265    TIP3     H2       HT       0.417000       1.00800           0
     76712 TIP3     22266    TIP3     OH2      OT      -0.834000       15.9994           0
     76713 TIP3     22266    TIP3     H1       HT       0.417000       1.00800           0
     76714 TIP3     22266    TIP3     H2       HT       0.417000       1.00800           0
     76715 TIP3     22267    TIP3     OH2      OT      -0.834000       15.9994           0
     76716 TIP3     22267    TIP3     H1       HT       0.417000       1.00800           0
     76717 TIP3     22267    TIP3     H2       HT       0.417000       1.00800           0
     76718 TIP3     22268    TIP3     OH2      OT      -0.834000       15.9994           0
     76719 TIP3     22268    TIP3     H1       HT       0.417000       1.00800           0
     76720 TIP3     22268    TIP3     H2       HT       0.417000       1.00800           0
     76721 TIP3     22269    TIP3     OH2      OT      -0.834000       15.9994           0
     76722 TIP3     22269    TIP3     H1       HT       0.417000       1.00800           0
     76723 TIP3     22269    TIP3     H2       HT       0.417000       1.00800           0
     76724 TIP3     22270    TIP3     OH2      OT      -0.834000       15.9994           0
     76725 TIP3     22270    TIP3     H1       HT       0.417000       1.00800           0
     76726 TIP3     22270    TIP3     H2       HT       0.417000       1.00800           0
     76727 TIP3     22271    TIP3     OH2      OT      -0.834000       15.9994           0
     76728 TIP3     22271    TIP3     H1       HT       0.417000       1.00800           0
     76729 TIP3     22271    TIP3     H2       HT       0.417000       1.00800           0
     76730 TIP3     22272    TIP3     OH2      OT      -0.834000       15.9994           0
     76731 TIP3     22272    TIP3     H1       HT       0.417000       1.00800           0
     76732 TIP3     22272    TIP3     H2       HT       0.417000       1.00800           0
     76733 TIP3     22273    TIP3     OH2      OT      -0.834000       15.9994           0
     76734 TIP3     22273    TIP3     H1       HT       0.417000       1.00800           0
     76735 TIP3     22273    TIP3     H2       HT       0.417000       1.00800           0
     76736 TIP3     22274    TIP3     OH2      OT      -0.834000       15.9994           0
     76737 TIP3     22274    TIP3     H1       HT       0.417000       1.00800           0
     76738 TIP3     22274    TIP3     H2       HT       0.417000       1.00800           0
     76739 TIP3     22275    TIP3     OH2      OT      -0.834000       15.9994           0
     76740 TIP3     22275    TIP3     H1       HT       0.417000       1.00800           0
     76741 TIP3     22275    TIP3     H2       HT       0.417000       1.00800           0
     76742 TIP3     22276    TIP3     OH2      OT      -0.834000       15.9994           0
     76743 TIP3     22276    TIP3     H1       HT       0.417000       1.00800           0
     76744 TIP3     22276    TIP3     H2       HT       0.417000       1.00800           0
     76745 TIP3     22277    TIP3     OH2      OT      -0.834000       15.9994           0
     76746 TIP3     22277    TIP3     H1       HT       0.417000       1.00800           0
     76747 TIP3     22277    TIP3     H2       HT       0.417000       1.00800           0
     76748 TIP3     22278    TIP3     OH2      OT      -0.834000       15.9994           0
     76749 TIP3     22278    TIP3     H1       HT       0.417000       1.00800           0
     76750 TIP3     22278    TIP3     H2       HT       0.417000       1.00800           0
     76751 TIP3     22279    TIP3     OH2      OT      -0.834000       15.9994           0
     76752 TIP3     22279    TIP3     H1       HT       0.417000       1.00800           0
     76753 TIP3     22279    TIP3     H2       HT       0.417000       1.00800           0
     76754 TIP3     22280    TIP3     OH2      OT      -0.834000       15.9994           0
     76755 TIP3     22280    TIP3     H1       HT       0.417000       1.00800           0
     76756 TIP3     22280    TIP3     H2       HT       0.417000       1.00800           0
     76757 TIP3     22281    TIP3     OH2      OT      -0.834000       15.9994           0
     76758 TIP3     22281    TIP3     H1       HT       0.417000       1.00800           0
     76759 TIP3     22281    TIP3     H2       HT       0.417000       1.00800           0
     76760 TIP3     22282    TIP3     OH2      OT      -0.834000       15.9994           0
     76761 TIP3     22282    TIP3     H1       HT       0.417000       1.00800           0
     76762 TIP3     22282    TIP3     H2       HT       0.417000       1.00800           0
     76763 TIP3     22283    TIP3     OH2      OT      -0.834000       15.9994           0
     76764 TIP3     22283    TIP3     H1       HT       0.417000       1.00800           0
     76765 TIP3     22283    TIP3     H2       HT       0.417000       1.00800           0
     76766 TIP3     22284    TIP3     OH2      OT      -0.834000       15.9994           0
     76767 TIP3     22284    TIP3     H1       HT       0.417000       1.00800           0
     76768 TIP3     22284    TIP3     H2       HT       0.417000       1.00800           0
     76769 TIP3     22285    TIP3     OH2      OT      -0.834000       15.9994           0
     76770 TIP3     22285    TIP3     H1       HT       0.417000       1.00800           0
     76771 TIP3     22285    TIP3     H2       HT       0.417000       1.00800           0
     76772 TIP3     22286    TIP3     OH2      OT      -0.834000       15.9994           0
     76773 TIP3     22286    TIP3     H1       HT       0.417000       1.00800           0
     76774 TIP3     22286    TIP3     H2       HT       0.417000       1.00800           0
     76775 TIP3     22287    TIP3     OH2      OT      -0.834000       15.9994           0
     76776 TIP3     22287    TIP3     H1       HT       0.417000       1.00800           0
     76777 TIP3     22287    TIP3     H2       HT       0.417000       1.00800           0
     76778 TIP3     22288    TIP3     OH2      OT      -0.834000       15.9994           0
     76779 TIP3     22288    TIP3     H1       HT       0.417000       1.00800           0
     76780 TIP3     22288    TIP3     H2       HT       0.417000       1.00800           0
     76781 TIP3     22289    TIP3     OH2      OT      -0.834000       15.9994           0
     76782 TIP3     22289    TIP3     H1       HT       0.417000       1.00800           0
     76783 TIP3     22289    TIP3     H2       HT       0.417000       1.00800           0
     76784 TIP3     22290    TIP3     OH2      OT      -0.834000       15.9994           0
     76785 TIP3     22290    TIP3     H1       HT       0.417000       1.00800           0
     76786 TIP3     22290    TIP3     H2       HT       0.417000       1.00800           0
     76787 TIP3     22291    TIP3     OH2      OT      -0.834000       15.9994           0
     76788 TIP3     22291    TIP3     H1       HT       0.417000       1.00800           0
     76789 TIP3     22291    TIP3     H2       HT       0.417000       1.00800           0
     76790 TIP3     22292    TIP3     OH2      OT      -0.834000       15.9994           0
     76791 TIP3     22292    TIP3     H1       HT       0.417000       1.00800           0
     76792 TIP3     22292    TIP3     H2       HT       0.417000       1.00800           0
     76793 TIP3     22293    TIP3     OH2      OT      -0.834000       15.9994           0
     76794 TIP3     22293    TIP3     H1       HT       0.417000       1.00800           0
     76795 TIP3     22293    TIP3     H2       HT       0.417000       1.00800           0
     76796 TIP3     22294    TIP3     OH2      OT      -0.834000       15.9994           0
     76797 TIP3     22294    TIP3     H1       HT       0.417000       1.00800           0
     76798 TIP3     22294    TIP3     H2       HT       0.417000       1.00800           0
     76799 TIP3     22295    TIP3     OH2      OT      -0.834000       15.9994           0
     76800 TIP3     22295    TIP3     H1       HT       0.417000       1.00800           0
     76801 TIP3     22295    TIP3     H2       HT       0.417000       1.00800           0
     76802 TIP3     22296    TIP3     OH2      OT      -0.834000       15.9994           0
     76803 TIP3     22296    TIP3     H1       HT       0.417000       1.00800           0
     76804 TIP3     22296    TIP3     H2       HT       0.417000       1.00800           0
     76805 TIP3     22297    TIP3     OH2      OT      -0.834000       15.9994           0
     76806 TIP3     22297    TIP3     H1       HT       0.417000       1.00800           0
     76807 TIP3     22297    TIP3     H2       HT       0.417000       1.00800           0
     76808 TIP3     22298    TIP3     OH2      OT      -0.834000       15.9994           0
     76809 TIP3     22298    TIP3     H1       HT       0.417000       1.00800           0
     76810 TIP3     22298    TIP3     H2       HT       0.417000       1.00800           0
     76811 TIP3     22299    TIP3     OH2      OT      -0.834000       15.9994           0
     76812 TIP3     22299    TIP3     H1       HT       0.417000       1.00800           0
     76813 TIP3     22299    TIP3     H2       HT       0.417000       1.00800           0
     76814 TIP3     22300    TIP3     OH2      OT      -0.834000       15.9994           0
     76815 TIP3     22300    TIP3     H1       HT       0.417000       1.00800           0
     76816 TIP3     22300    TIP3     H2       HT       0.417000       1.00800           0
     76817 TIP3     22301    TIP3     OH2      OT      -0.834000       15.9994           0
     76818 TIP3     22301    TIP3     H1       HT       0.417000       1.00800           0
     76819 TIP3     22301    TIP3     H2       HT       0.417000       1.00800           0
     76820 TIP3     22302    TIP3     OH2      OT      -0.834000       15.9994           0
     76821 TIP3     22302    TIP3     H1       HT       0.417000       1.00800           0
     76822 TIP3     22302    TIP3     H2       HT       0.417000       1.00800           0
     76823 TIP3     22303    TIP3     OH2      OT      -0.834000       15.9994           0
     76824 TIP3     22303    TIP3     H1       HT       0.417000       1.00800           0
     76825 TIP3     22303    TIP3     H2       HT       0.417000       1.00800           0
     76826 TIP3     22304    TIP3     OH2      OT      -0.834000       15.9994           0
     76827 TIP3     22304    TIP3     H1       HT       0.417000       1.00800           0
     76828 TIP3     22304    TIP3     H2       HT       0.417000       1.00800           0
     76829 TIP3     22305    TIP3     OH2      OT      -0.834000       15.9994           0
     76830 TIP3     22305    TIP3     H1       HT       0.417000       1.00800           0
     76831 TIP3     22305    TIP3     H2       HT       0.417000       1.00800           0
     76832 TIP3     22306    TIP3     OH2      OT      -0.834000       15.9994           0
     76833 TIP3     22306    TIP3     H1       HT       0.417000       1.00800           0
     76834 TIP3     22306    TIP3     H2       HT       0.417000       1.00800           0
     76835 TIP3     22307    TIP3     OH2      OT      -0.834000       15.9994           0
     76836 TIP3     22307    TIP3     H1       HT       0.417000       1.00800           0
     76837 TIP3     22307    TIP3     H2       HT       0.417000       1.00800           0
     76838 TIP3     22308    TIP3     OH2      OT      -0.834000       15.9994           0
     76839 TIP3     22308    TIP3     H1       HT       0.417000       1.00800           0
     76840 TIP3     22308    TIP3     H2       HT       0.417000       1.00800           0
     76841 TIP3     22309    TIP3     OH2      OT      -0.834000       15.9994           0
     76842 TIP3     22309    TIP3     H1       HT       0.417000       1.00800           0
     76843 TIP3     22309    TIP3     H2       HT       0.417000       1.00800           0
     76844 TIP3     22310    TIP3     OH2      OT      -0.834000       15.9994           0
     76845 TIP3     22310    TIP3     H1       HT       0.417000       1.00800           0
     76846 TIP3     22310    TIP3     H2       HT       0.417000       1.00800           0
     76847 TIP3     22311    TIP3     OH2      OT      -0.834000       15.9994           0
     76848 TIP3     22311    TIP3     H1       HT       0.417000       1.00800           0
     76849 TIP3     22311    TIP3     H2       HT       0.417000       1.00800           0
     76850 TIP3     22312    TIP3     OH2      OT      -0.834000       15.9994           0
     76851 TIP3     22312    TIP3     H1       HT       0.417000       1.00800           0
     76852 TIP3     22312    TIP3     H2       HT       0.417000       1.00800           0
     76853 TIP3     22313    TIP3     OH2      OT      -0.834000       15.9994           0
     76854 TIP3     22313    TIP3     H1       HT       0.417000       1.00800           0
     76855 TIP3     22313    TIP3     H2       HT       0.417000       1.00800           0
     76856 TIP3     22314    TIP3     OH2      OT      -0.834000       15.9994           0
     76857 TIP3     22314    TIP3     H1       HT       0.417000       1.00800           0
     76858 TIP3     22314    TIP3     H2       HT       0.417000       1.00800           0
     76859 TIP3     22315    TIP3     OH2      OT      -0.834000       15.9994           0
     76860 TIP3     22315    TIP3     H1       HT       0.417000       1.00800           0
     76861 TIP3     22315    TIP3     H2       HT       0.417000       1.00800           0
     76862 TIP3     22316    TIP3     OH2      OT      -0.834000       15.9994           0
     76863 TIP3     22316    TIP3     H1       HT       0.417000       1.00800           0
     76864 TIP3     22316    TIP3     H2       HT       0.417000       1.00800           0
     76865 TIP3     22317    TIP3     OH2      OT      -0.834000       15.9994           0
     76866 TIP3     22317    TIP3     H1       HT       0.417000       1.00800           0
     76867 TIP3     22317    TIP3     H2       HT       0.417000       1.00800           0
     76868 TIP3     22318    TIP3     OH2      OT      -0.834000       15.9994           0
     76869 TIP3     22318    TIP3     H1       HT       0.417000       1.00800           0
     76870 TIP3     22318    TIP3     H2       HT       0.417000       1.00800           0
     76871 TIP3     22319    TIP3     OH2      OT      -0.834000       15.9994           0
     76872 TIP3     22319    TIP3     H1       HT       0.417000       1.00800           0
     76873 TIP3     22319    TIP3     H2       HT       0.417000       1.00800           0
     76874 TIP3     22320    TIP3     OH2      OT      -0.834000       15.9994           0
     76875 TIP3     22320    TIP3     H1       HT       0.417000       1.00800           0
     76876 TIP3     22320    TIP3     H2       HT       0.417000       1.00800           0
     76877 TIP3     22321    TIP3     OH2      OT      -0.834000       15.9994           0
     76878 TIP3     22321    TIP3     H1       HT       0.417000       1.00800           0
     76879 TIP3     22321    TIP3     H2       HT       0.417000       1.00800           0
     76880 TIP3     22322    TIP3     OH2      OT      -0.834000       15.9994           0
     76881 TIP3     22322    TIP3     H1       HT       0.417000       1.00800           0
     76882 TIP3     22322    TIP3     H2       HT       0.417000       1.00800           0
     76883 TIP3     22323    TIP3     OH2      OT      -0.834000       15.9994           0
     76884 TIP3     22323    TIP3     H1       HT       0.417000       1.00800           0
     76885 TIP3     22323    TIP3     H2       HT       0.417000       1.00800           0
     76886 TIP3     22324    TIP3     OH2      OT      -0.834000       15.9994           0
     76887 TIP3     22324    TIP3     H1       HT       0.417000       1.00800           0
     76888 TIP3     22324    TIP3     H2       HT       0.417000       1.00800           0
     76889 TIP3     22325    TIP3     OH2      OT      -0.834000       15.9994           0
     76890 TIP3     22325    TIP3     H1       HT       0.417000       1.00800           0
     76891 TIP3     22325    TIP3     H2       HT       0.417000       1.00800           0
     76892 TIP3     22326    TIP3     OH2      OT      -0.834000       15.9994           0
     76893 TIP3     22326    TIP3     H1       HT       0.417000       1.00800           0
     76894 TIP3     22326    TIP3     H2       HT       0.417000       1.00800           0
     76895 TIP3     22327    TIP3     OH2      OT      -0.834000       15.9994           0
     76896 TIP3     22327    TIP3     H1       HT       0.417000       1.00800           0
     76897 TIP3     22327    TIP3     H2       HT       0.417000       1.00800           0
     76898 TIP3     22328    TIP3     OH2      OT      -0.834000       15.9994           0
     76899 TIP3     22328    TIP3     H1       HT       0.417000       1.00800           0
     76900 TIP3     22328    TIP3     H2       HT       0.417000       1.00800           0
     76901 TIP3     22329    TIP3     OH2      OT      -0.834000       15.9994           0
     76902 TIP3     22329    TIP3     H1       HT       0.417000       1.00800           0
     76903 TIP3     22329    TIP3     H2       HT       0.417000       1.00800           0
     76904 TIP3     22330    TIP3     OH2      OT      -0.834000       15.9994           0
     76905 TIP3     22330    TIP3     H1       HT       0.417000       1.00800           0
     76906 TIP3     22330    TIP3     H2       HT       0.417000       1.00800           0
     76907 TIP3     22331    TIP3     OH2      OT      -0.834000       15.9994           0
     76908 TIP3     22331    TIP3     H1       HT       0.417000       1.00800           0
     76909 TIP3     22331    TIP3     H2       HT       0.417000       1.00800           0
     76910 TIP3     22332    TIP3     OH2      OT      -0.834000       15.9994           0
     76911 TIP3     22332    TIP3     H1       HT       0.417000       1.00800           0
     76912 TIP3     22332    TIP3     H2       HT       0.417000       1.00800           0
     76913 TIP3     22333    TIP3     OH2      OT      -0.834000       15.9994           0
     76914 TIP3     22333    TIP3     H1       HT       0.417000       1.00800           0
     76915 TIP3     22333    TIP3     H2       HT       0.417000       1.00800           0
     76916 TIP3     22334    TIP3     OH2      OT      -0.834000       15.9994           0
     76917 TIP3     22334    TIP3     H1       HT       0.417000       1.00800           0
     76918 TIP3     22334    TIP3     H2       HT       0.417000       1.00800           0
     76919 TIP3     22335    TIP3     OH2      OT      -0.834000       15.9994           0
     76920 TIP3     22335    TIP3     H1       HT       0.417000       1.00800           0
     76921 TIP3     22335    TIP3     H2       HT       0.417000       1.00800           0
     76922 TIP3     22336    TIP3     OH2      OT      -0.834000       15.9994           0
     76923 TIP3     22336    TIP3     H1       HT       0.417000       1.00800           0
     76924 TIP3     22336    TIP3     H2       HT       0.417000       1.00800           0
     76925 TIP3     22337    TIP3     OH2      OT      -0.834000       15.9994           0
     76926 TIP3     22337    TIP3     H1       HT       0.417000       1.00800           0
     76927 TIP3     22337    TIP3     H2       HT       0.417000       1.00800           0
     76928 TIP3     22338    TIP3     OH2      OT      -0.834000       15.9994           0
     76929 TIP3     22338    TIP3     H1       HT       0.417000       1.00800           0
     76930 TIP3     22338    TIP3     H2       HT       0.417000       1.00800           0
     76931 TIP3     22339    TIP3     OH2      OT      -0.834000       15.9994           0
     76932 TIP3     22339    TIP3     H1       HT       0.417000       1.00800           0
     76933 TIP3     22339    TIP3     H2       HT       0.417000       1.00800           0
     76934 TIP3     22340    TIP3     OH2      OT      -0.834000       15.9994           0
     76935 TIP3     22340    TIP3     H1       HT       0.417000       1.00800           0
     76936 TIP3     22340    TIP3     H2       HT       0.417000       1.00800           0
     76937 TIP3     22341    TIP3     OH2      OT      -0.834000       15.9994           0
     76938 TIP3     22341    TIP3     H1       HT       0.417000       1.00800           0
     76939 TIP3     22341    TIP3     H2       HT       0.417000       1.00800           0
     76940 TIP3     22342    TIP3     OH2      OT      -0.834000       15.9994           0
     76941 TIP3     22342    TIP3     H1       HT       0.417000       1.00800           0
     76942 TIP3     22342    TIP3     H2       HT       0.417000       1.00800           0
     76943 TIP3     22343    TIP3     OH2      OT      -0.834000       15.9994           0
     76944 TIP3     22343    TIP3     H1       HT       0.417000       1.00800           0
     76945 TIP3     22343    TIP3     H2       HT       0.417000       1.00800           0
     76946 TIP3     22344    TIP3     OH2      OT      -0.834000       15.9994           0
     76947 TIP3     22344    TIP3     H1       HT       0.417000       1.00800           0
     76948 TIP3     22344    TIP3     H2       HT       0.417000       1.00800           0
     76949 TIP3     22345    TIP3     OH2      OT      -0.834000       15.9994           0
     76950 TIP3     22345    TIP3     H1       HT       0.417000       1.00800           0
     76951 TIP3     22345    TIP3     H2       HT       0.417000       1.00800           0
     76952 TIP3     22346    TIP3     OH2      OT      -0.834000       15.9994           0
     76953 TIP3     22346    TIP3     H1       HT       0.417000       1.00800           0
     76954 TIP3     22346    TIP3     H2       HT       0.417000       1.00800           0
     76955 TIP3     22347    TIP3     OH2      OT      -0.834000       15.9994           0
     76956 TIP3     22347    TIP3     H1       HT       0.417000       1.00800           0
     76957 TIP3     22347    TIP3     H2       HT       0.417000       1.00800           0
     76958 TIP3     22348    TIP3     OH2      OT      -0.834000       15.9994           0
     76959 TIP3     22348    TIP3     H1       HT       0.417000       1.00800           0
     76960 TIP3     22348    TIP3     H2       HT       0.417000       1.00800           0
     76961 TIP3     22349    TIP3     OH2      OT      -0.834000       15.9994           0
     76962 TIP3     22349    TIP3     H1       HT       0.417000       1.00800           0
     76963 TIP3     22349    TIP3     H2       HT       0.417000       1.00800           0
     76964 TIP3     22350    TIP3     OH2      OT      -0.834000       15.9994           0
     76965 TIP3     22350    TIP3     H1       HT       0.417000       1.00800           0
     76966 TIP3     22350    TIP3     H2       HT       0.417000       1.00800           0
     76967 TIP3     22351    TIP3     OH2      OT      -0.834000       15.9994           0
     76968 TIP3     22351    TIP3     H1       HT       0.417000       1.00800           0
     76969 TIP3     22351    TIP3     H2       HT       0.417000       1.00800           0
     76970 TIP3     22352    TIP3     OH2      OT      -0.834000       15.9994           0
     76971 TIP3     22352    TIP3     H1       HT       0.417000       1.00800           0
     76972 TIP3     22352    TIP3     H2       HT       0.417000       1.00800           0
     76973 TIP3     22353    TIP3     OH2      OT      -0.834000       15.9994           0
     76974 TIP3     22353    TIP3     H1       HT       0.417000       1.00800           0
     76975 TIP3     22353    TIP3     H2       HT       0.417000       1.00800           0
     76976 TIP3     22354    TIP3     OH2      OT      -0.834000       15.9994           0
     76977 TIP3     22354    TIP3     H1       HT       0.417000       1.00800           0
     76978 TIP3     22354    TIP3     H2       HT       0.417000       1.00800           0
     76979 TIP3     22355    TIP3     OH2      OT      -0.834000       15.9994           0
     76980 TIP3     22355    TIP3     H1       HT       0.417000       1.00800           0
     76981 TIP3     22355    TIP3     H2       HT       0.417000       1.00800           0
     76982 TIP3     22356    TIP3     OH2      OT      -0.834000       15.9994           0
     76983 TIP3     22356    TIP3     H1       HT       0.417000       1.00800           0
     76984 TIP3     22356    TIP3     H2       HT       0.417000       1.00800           0
     76985 TIP3     22357    TIP3     OH2      OT      -0.834000       15.9994           0
     76986 TIP3     22357    TIP3     H1       HT       0.417000       1.00800           0
     76987 TIP3     22357    TIP3     H2       HT       0.417000       1.00800           0
     76988 TIP3     22358    TIP3     OH2      OT      -0.834000       15.9994           0
     76989 TIP3     22358    TIP3     H1       HT       0.417000       1.00800           0
     76990 TIP3     22358    TIP3     H2       HT       0.417000       1.00800           0
     76991 TIP3     22359    TIP3     OH2      OT      -0.834000       15.9994           0
     76992 TIP3     22359    TIP3     H1       HT       0.417000       1.00800           0
     76993 TIP3     22359    TIP3     H2       HT       0.417000       1.00800           0
     76994 TIP3     22360    TIP3     OH2      OT      -0.834000       15.9994           0
     76995 TIP3     22360    TIP3     H1       HT       0.417000       1.00800           0
     76996 TIP3     22360    TIP3     H2       HT       0.417000       1.00800           0
     76997 TIP3     22361    TIP3     OH2      OT      -0.834000       15.9994           0
     76998 TIP3     22361    TIP3     H1       HT       0.417000       1.00800           0
     76999 TIP3     22361    TIP3     H2       HT       0.417000       1.00800           0
     77000 TIP3     22362    TIP3     OH2      OT      -0.834000       15.9994           0
     77001 TIP3     22362    TIP3     H1       HT       0.417000       1.00800           0
     77002 TIP3     22362    TIP3     H2       HT       0.417000       1.00800           0
     77003 TIP3     22363    TIP3     OH2      OT      -0.834000       15.9994           0
     77004 TIP3     22363    TIP3     H1       HT       0.417000       1.00800           0
     77005 TIP3     22363    TIP3     H2       HT       0.417000       1.00800           0
     77006 TIP3     22364    TIP3     OH2      OT      -0.834000       15.9994           0
     77007 TIP3     22364    TIP3     H1       HT       0.417000       1.00800           0
     77008 TIP3     22364    TIP3     H2       HT       0.417000       1.00800           0
     77009 TIP3     22365    TIP3     OH2      OT      -0.834000       15.9994           0
     77010 TIP3     22365    TIP3     H1       HT       0.417000       1.00800           0
     77011 TIP3     22365    TIP3     H2       HT       0.417000       1.00800           0
     77012 TIP3     22366    TIP3     OH2      OT      -0.834000       15.9994           0
     77013 TIP3     22366    TIP3     H1       HT       0.417000       1.00800           0
     77014 TIP3     22366    TIP3     H2       HT       0.417000       1.00800           0
     77015 TIP3     22367    TIP3     OH2      OT      -0.834000       15.9994           0
     77016 TIP3     22367    TIP3     H1       HT       0.417000       1.00800           0
     77017 TIP3     22367    TIP3     H2       HT       0.417000       1.00800           0
     77018 TIP3     22368    TIP3     OH2      OT      -0.834000       15.9994           0
     77019 TIP3     22368    TIP3     H1       HT       0.417000       1.00800           0
     77020 TIP3     22368    TIP3     H2       HT       0.417000       1.00800           0
     77021 TIP3     22369    TIP3     OH2      OT      -0.834000       15.9994           0
     77022 TIP3     22369    TIP3     H1       HT       0.417000       1.00800           0
     77023 TIP3     22369    TIP3     H2       HT       0.417000       1.00800           0
     77024 TIP3     22370    TIP3     OH2      OT      -0.834000       15.9994           0
     77025 TIP3     22370    TIP3     H1       HT       0.417000       1.00800           0
     77026 TIP3     22370    TIP3     H2       HT       0.417000       1.00800           0
     77027 TIP3     22371    TIP3     OH2      OT      -0.834000       15.9994           0
     77028 TIP3     22371    TIP3     H1       HT       0.417000       1.00800           0
     77029 TIP3     22371    TIP3     H2       HT       0.417000       1.00800           0
     77030 TIP3     22372    TIP3     OH2      OT      -0.834000       15.9994           0
     77031 TIP3     22372    TIP3     H1       HT       0.417000       1.00800           0
     77032 TIP3     22372    TIP3     H2       HT       0.417000       1.00800           0
     77033 TIP3     22373    TIP3     OH2      OT      -0.834000       15.9994           0
     77034 TIP3     22373    TIP3     H1       HT       0.417000       1.00800           0
     77035 TIP3     22373    TIP3     H2       HT       0.417000       1.00800           0
     77036 TIP3     22374    TIP3     OH2      OT      -0.834000       15.9994           0
     77037 TIP3     22374    TIP3     H1       HT       0.417000       1.00800           0
     77038 TIP3     22374    TIP3     H2       HT       0.417000       1.00800           0
     77039 TIP3     22375    TIP3     OH2      OT      -0.834000       15.9994           0
     77040 TIP3     22375    TIP3     H1       HT       0.417000       1.00800           0
     77041 TIP3     22375    TIP3     H2       HT       0.417000       1.00800           0
     77042 TIP3     22376    TIP3     OH2      OT      -0.834000       15.9994           0
     77043 TIP3     22376    TIP3     H1       HT       0.417000       1.00800           0
     77044 TIP3     22376    TIP3     H2       HT       0.417000       1.00800           0
     77045 TIP3     22377    TIP3     OH2      OT      -0.834000       15.9994           0
     77046 TIP3     22377    TIP3     H1       HT       0.417000       1.00800           0
     77047 TIP3     22377    TIP3     H2       HT       0.417000       1.00800           0
     77048 TIP3     22378    TIP3     OH2      OT      -0.834000       15.9994           0
     77049 TIP3     22378    TIP3     H1       HT       0.417000       1.00800           0
     77050 TIP3     22378    TIP3     H2       HT       0.417000       1.00800           0
     77051 TIP3     22379    TIP3     OH2      OT      -0.834000       15.9994           0
     77052 TIP3     22379    TIP3     H1       HT       0.417000       1.00800           0
     77053 TIP3     22379    TIP3     H2       HT       0.417000       1.00800           0
     77054 TIP3     22380    TIP3     OH2      OT      -0.834000       15.9994           0
     77055 TIP3     22380    TIP3     H1       HT       0.417000       1.00800           0
     77056 TIP3     22380    TIP3     H2       HT       0.417000       1.00800           0
     77057 TIP3     22381    TIP3     OH2      OT      -0.834000       15.9994           0
     77058 TIP3     22381    TIP3     H1       HT       0.417000       1.00800           0
     77059 TIP3     22381    TIP3     H2       HT       0.417000       1.00800           0
     77060 TIP3     22382    TIP3     OH2      OT      -0.834000       15.9994           0
     77061 TIP3     22382    TIP3     H1       HT       0.417000       1.00800           0
     77062 TIP3     22382    TIP3     H2       HT       0.417000       1.00800           0
     77063 TIP3     22383    TIP3     OH2      OT      -0.834000       15.9994           0
     77064 TIP3     22383    TIP3     H1       HT       0.417000       1.00800           0
     77065 TIP3     22383    TIP3     H2       HT       0.417000       1.00800           0
     77066 TIP3     22384    TIP3     OH2      OT      -0.834000       15.9994           0
     77067 TIP3     22384    TIP3     H1       HT       0.417000       1.00800           0
     77068 TIP3     22384    TIP3     H2       HT       0.417000       1.00800           0
     77069 TIP3     22385    TIP3     OH2      OT      -0.834000       15.9994           0
     77070 TIP3     22385    TIP3     H1       HT       0.417000       1.00800           0
     77071 TIP3     22385    TIP3     H2       HT       0.417000       1.00800           0
     77072 TIP3     22386    TIP3     OH2      OT      -0.834000       15.9994           0
     77073 TIP3     22386    TIP3     H1       HT       0.417000       1.00800           0
     77074 TIP3     22386    TIP3     H2       HT       0.417000       1.00800           0
     77075 TIP3     22387    TIP3     OH2      OT      -0.834000       15.9994           0
     77076 TIP3     22387    TIP3     H1       HT       0.417000       1.00800           0
     77077 TIP3     22387    TIP3     H2       HT       0.417000       1.00800           0
     77078 TIP3     22388    TIP3     OH2      OT      -0.834000       15.9994           0
     77079 TIP3     22388    TIP3     H1       HT       0.417000       1.00800           0
     77080 TIP3     22388    TIP3     H2       HT       0.417000       1.00800           0
     77081 TIP3     22389    TIP3     OH2      OT      -0.834000       15.9994           0
     77082 TIP3     22389    TIP3     H1       HT       0.417000       1.00800           0
     77083 TIP3     22389    TIP3     H2       HT       0.417000       1.00800           0
     77084 TIP3     22390    TIP3     OH2      OT      -0.834000       15.9994           0
     77085 TIP3     22390    TIP3     H1       HT       0.417000       1.00800           0
     77086 TIP3     22390    TIP3     H2       HT       0.417000       1.00800           0
     77087 TIP3     22391    TIP3     OH2      OT      -0.834000       15.9994           0
     77088 TIP3     22391    TIP3     H1       HT       0.417000       1.00800           0
     77089 TIP3     22391    TIP3     H2       HT       0.417000       1.00800           0
     77090 TIP3     22392    TIP3     OH2      OT      -0.834000       15.9994           0
     77091 TIP3     22392    TIP3     H1       HT       0.417000       1.00800           0
     77092 TIP3     22392    TIP3     H2       HT       0.417000       1.00800           0
     77093 TIP3     22393    TIP3     OH2      OT      -0.834000       15.9994           0
     77094 TIP3     22393    TIP3     H1       HT       0.417000       1.00800           0
     77095 TIP3     22393    TIP3     H2       HT       0.417000       1.00800           0
     77096 TIP3     22394    TIP3     OH2      OT      -0.834000       15.9994           0
     77097 TIP3     22394    TIP3     H1       HT       0.417000       1.00800           0
     77098 TIP3     22394    TIP3     H2       HT       0.417000       1.00800           0
     77099 TIP3     22395    TIP3     OH2      OT      -0.834000       15.9994           0
     77100 TIP3     22395    TIP3     H1       HT       0.417000       1.00800           0
     77101 TIP3     22395    TIP3     H2       HT       0.417000       1.00800           0
     77102 TIP3     22396    TIP3     OH2      OT      -0.834000       15.9994           0
     77103 TIP3     22396    TIP3     H1       HT       0.417000       1.00800           0
     77104 TIP3     22396    TIP3     H2       HT       0.417000       1.00800           0
     77105 TIP3     22397    TIP3     OH2      OT      -0.834000       15.9994           0
     77106 TIP3     22397    TIP3     H1       HT       0.417000       1.00800           0
     77107 TIP3     22397    TIP3     H2       HT       0.417000       1.00800           0
     77108 TIP3     22398    TIP3     OH2      OT      -0.834000       15.9994           0
     77109 TIP3     22398    TIP3     H1       HT       0.417000       1.00800           0
     77110 TIP3     22398    TIP3     H2       HT       0.417000       1.00800           0
     77111 TIP3     22399    TIP3     OH2      OT      -0.834000       15.9994           0
     77112 TIP3     22399    TIP3     H1       HT       0.417000       1.00800           0
     77113 TIP3     22399    TIP3     H2       HT       0.417000       1.00800           0
     77114 TIP3     22400    TIP3     OH2      OT      -0.834000       15.9994           0
     77115 TIP3     22400    TIP3     H1       HT       0.417000       1.00800           0
     77116 TIP3     22400    TIP3     H2       HT       0.417000       1.00800           0
     77117 TIP3     22401    TIP3     OH2      OT      -0.834000       15.9994           0
     77118 TIP3     22401    TIP3     H1       HT       0.417000       1.00800           0
     77119 TIP3     22401    TIP3     H2       HT       0.417000       1.00800           0
     77120 TIP3     22402    TIP3     OH2      OT      -0.834000       15.9994           0
     77121 TIP3     22402    TIP3     H1       HT       0.417000       1.00800           0
     77122 TIP3     22402    TIP3     H2       HT       0.417000       1.00800           0
     77123 TIP3     22403    TIP3     OH2      OT      -0.834000       15.9994           0
     77124 TIP3     22403    TIP3     H1       HT       0.417000       1.00800           0
     77125 TIP3     22403    TIP3     H2       HT       0.417000       1.00800           0
     77126 TIP3     22404    TIP3     OH2      OT      -0.834000       15.9994           0
     77127 TIP3     22404    TIP3     H1       HT       0.417000       1.00800           0
     77128 TIP3     22404    TIP3     H2       HT       0.417000       1.00800           0
     77129 TIP3     22405    TIP3     OH2      OT      -0.834000       15.9994           0
     77130 TIP3     22405    TIP3     H1       HT       0.417000       1.00800           0
     77131 TIP3     22405    TIP3     H2       HT       0.417000       1.00800           0
     77132 TIP3     22406    TIP3     OH2      OT      -0.834000       15.9994           0
     77133 TIP3     22406    TIP3     H1       HT       0.417000       1.00800           0
     77134 TIP3     22406    TIP3     H2       HT       0.417000       1.00800           0
     77135 TIP3     22407    TIP3     OH2      OT      -0.834000       15.9994           0
     77136 TIP3     22407    TIP3     H1       HT       0.417000       1.00800           0
     77137 TIP3     22407    TIP3     H2       HT       0.417000       1.00800           0
     77138 TIP3     22408    TIP3     OH2      OT      -0.834000       15.9994           0
     77139 TIP3     22408    TIP3     H1       HT       0.417000       1.00800           0
     77140 TIP3     22408    TIP3     H2       HT       0.417000       1.00800           0
     77141 TIP3     22409    TIP3     OH2      OT      -0.834000       15.9994           0
     77142 TIP3     22409    TIP3     H1       HT       0.417000       1.00800           0
     77143 TIP3     22409    TIP3     H2       HT       0.417000       1.00800           0
     77144 TIP3     22410    TIP3     OH2      OT      -0.834000       15.9994           0
     77145 TIP3     22410    TIP3     H1       HT       0.417000       1.00800           0
     77146 TIP3     22410    TIP3     H2       HT       0.417000       1.00800           0
     77147 TIP3     22411    TIP3     OH2      OT      -0.834000       15.9994           0
     77148 TIP3     22411    TIP3     H1       HT       0.417000       1.00800           0
     77149 TIP3     22411    TIP3     H2       HT       0.417000       1.00800           0
     77150 TIP3     22412    TIP3     OH2      OT      -0.834000       15.9994           0
     77151 TIP3     22412    TIP3     H1       HT       0.417000       1.00800           0
     77152 TIP3     22412    TIP3     H2       HT       0.417000       1.00800           0
     77153 TIP3     22413    TIP3     OH2      OT      -0.834000       15.9994           0
     77154 TIP3     22413    TIP3     H1       HT       0.417000       1.00800           0
     77155 TIP3     22413    TIP3     H2       HT       0.417000       1.00800           0
     77156 TIP3     22414    TIP3     OH2      OT      -0.834000       15.9994           0
     77157 TIP3     22414    TIP3     H1       HT       0.417000       1.00800           0
     77158 TIP3     22414    TIP3     H2       HT       0.417000       1.00800           0
     77159 TIP3     22415    TIP3     OH2      OT      -0.834000       15.9994           0
     77160 TIP3     22415    TIP3     H1       HT       0.417000       1.00800           0
     77161 TIP3     22415    TIP3     H2       HT       0.417000       1.00800           0
     77162 TIP3     22416    TIP3     OH2      OT      -0.834000       15.9994           0
     77163 TIP3     22416    TIP3     H1       HT       0.417000       1.00800           0
     77164 TIP3     22416    TIP3     H2       HT       0.417000       1.00800           0
     77165 TIP3     22417    TIP3     OH2      OT      -0.834000       15.9994           0
     77166 TIP3     22417    TIP3     H1       HT       0.417000       1.00800           0
     77167 TIP3     22417    TIP3     H2       HT       0.417000       1.00800           0
     77168 TIP3     22418    TIP3     OH2      OT      -0.834000       15.9994           0
     77169 TIP3     22418    TIP3     H1       HT       0.417000       1.00800           0
     77170 TIP3     22418    TIP3     H2       HT       0.417000       1.00800           0
     77171 TIP3     22419    TIP3     OH2      OT      -0.834000       15.9994           0
     77172 TIP3     22419    TIP3     H1       HT       0.417000       1.00800           0
     77173 TIP3     22419    TIP3     H2       HT       0.417000       1.00800           0
     77174 TIP3     22420    TIP3     OH2      OT      -0.834000       15.9994           0
     77175 TIP3     22420    TIP3     H1       HT       0.417000       1.00800           0
     77176 TIP3     22420    TIP3     H2       HT       0.417000       1.00800           0
     77177 TIP3     22421    TIP3     OH2      OT      -0.834000       15.9994           0
     77178 TIP3     22421    TIP3     H1       HT       0.417000       1.00800           0
     77179 TIP3     22421    TIP3     H2       HT       0.417000       1.00800           0
     77180 TIP3     22422    TIP3     OH2      OT      -0.834000       15.9994           0
     77181 TIP3     22422    TIP3     H1       HT       0.417000       1.00800           0
     77182 TIP3     22422    TIP3     H2       HT       0.417000       1.00800           0
     77183 TIP3     22423    TIP3     OH2      OT      -0.834000       15.9994           0
     77184 TIP3     22423    TIP3     H1       HT       0.417000       1.00800           0
     77185 TIP3     22423    TIP3     H2       HT       0.417000       1.00800           0
     77186 TIP3     22424    TIP3     OH2      OT      -0.834000       15.9994           0
     77187 TIP3     22424    TIP3     H1       HT       0.417000       1.00800           0
     77188 TIP3     22424    TIP3     H2       HT       0.417000       1.00800           0
     77189 TIP3     22425    TIP3     OH2      OT      -0.834000       15.9994           0
     77190 TIP3     22425    TIP3     H1       HT       0.417000       1.00800           0
     77191 TIP3     22425    TIP3     H2       HT       0.417000       1.00800           0
     77192 TIP3     22426    TIP3     OH2      OT      -0.834000       15.9994           0
     77193 TIP3     22426    TIP3     H1       HT       0.417000       1.00800           0
     77194 TIP3     22426    TIP3     H2       HT       0.417000       1.00800           0
     77195 TIP3     22427    TIP3     OH2      OT      -0.834000       15.9994           0
     77196 TIP3     22427    TIP3     H1       HT       0.417000       1.00800           0
     77197 TIP3     22427    TIP3     H2       HT       0.417000       1.00800           0
     77198 TIP3     22428    TIP3     OH2      OT      -0.834000       15.9994           0
     77199 TIP3     22428    TIP3     H1       HT       0.417000       1.00800           0
     77200 TIP3     22428    TIP3     H2       HT       0.417000       1.00800           0
     77201 TIP3     22429    TIP3     OH2      OT      -0.834000       15.9994           0
     77202 TIP3     22429    TIP3     H1       HT       0.417000       1.00800           0
     77203 TIP3     22429    TIP3     H2       HT       0.417000       1.00800           0
     77204 TIP3     22430    TIP3     OH2      OT      -0.834000       15.9994           0
     77205 TIP3     22430    TIP3     H1       HT       0.417000       1.00800           0
     77206 TIP3     22430    TIP3     H2       HT       0.417000       1.00800           0
     77207 TIP3     22431    TIP3     OH2      OT      -0.834000       15.9994           0
     77208 TIP3     22431    TIP3     H1       HT       0.417000       1.00800           0
     77209 TIP3     22431    TIP3     H2       HT       0.417000       1.00800           0
     77210 TIP3     22432    TIP3     OH2      OT      -0.834000       15.9994           0
     77211 TIP3     22432    TIP3     H1       HT       0.417000       1.00800           0
     77212 TIP3     22432    TIP3     H2       HT       0.417000       1.00800           0
     77213 TIP3     22433    TIP3     OH2      OT      -0.834000       15.9994           0
     77214 TIP3     22433    TIP3     H1       HT       0.417000       1.00800           0
     77215 TIP3     22433    TIP3     H2       HT       0.417000       1.00800           0
     77216 TIP3     22434    TIP3     OH2      OT      -0.834000       15.9994           0
     77217 TIP3     22434    TIP3     H1       HT       0.417000       1.00800           0
     77218 TIP3     22434    TIP3     H2       HT       0.417000       1.00800           0
     77219 TIP3     22435    TIP3     OH2      OT      -0.834000       15.9994           0
     77220 TIP3     22435    TIP3     H1       HT       0.417000       1.00800           0
     77221 TIP3     22435    TIP3     H2       HT       0.417000       1.00800           0
     77222 TIP3     22436    TIP3     OH2      OT      -0.834000       15.9994           0
     77223 TIP3     22436    TIP3     H1       HT       0.417000       1.00800           0
     77224 TIP3     22436    TIP3     H2       HT       0.417000       1.00800           0
     77225 TIP3     22437    TIP3     OH2      OT      -0.834000       15.9994           0
     77226 TIP3     22437    TIP3     H1       HT       0.417000       1.00800           0
     77227 TIP3     22437    TIP3     H2       HT       0.417000       1.00800           0
     77228 TIP3     22438    TIP3     OH2      OT      -0.834000       15.9994           0
     77229 TIP3     22438    TIP3     H1       HT       0.417000       1.00800           0
     77230 TIP3     22438    TIP3     H2       HT       0.417000       1.00800           0
     77231 TIP3     22439    TIP3     OH2      OT      -0.834000       15.9994           0
     77232 TIP3     22439    TIP3     H1       HT       0.417000       1.00800           0
     77233 TIP3     22439    TIP3     H2       HT       0.417000       1.00800           0
     77234 TIP3     22440    TIP3     OH2      OT      -0.834000       15.9994           0
     77235 TIP3     22440    TIP3     H1       HT       0.417000       1.00800           0
     77236 TIP3     22440    TIP3     H2       HT       0.417000       1.00800           0
     77237 TIP3     22441    TIP3     OH2      OT      -0.834000       15.9994           0
     77238 TIP3     22441    TIP3     H1       HT       0.417000       1.00800           0
     77239 TIP3     22441    TIP3     H2       HT       0.417000       1.00800           0
     77240 TIP3     22442    TIP3     OH2      OT      -0.834000       15.9994           0
     77241 TIP3     22442    TIP3     H1       HT       0.417000       1.00800           0
     77242 TIP3     22442    TIP3     H2       HT       0.417000       1.00800           0
     77243 TIP3     22443    TIP3     OH2      OT      -0.834000       15.9994           0
     77244 TIP3     22443    TIP3     H1       HT       0.417000       1.00800           0
     77245 TIP3     22443    TIP3     H2       HT       0.417000       1.00800           0
     77246 TIP3     22444    TIP3     OH2      OT      -0.834000       15.9994           0
     77247 TIP3     22444    TIP3     H1       HT       0.417000       1.00800           0
     77248 TIP3     22444    TIP3     H2       HT       0.417000       1.00800           0
     77249 TIP3     22445    TIP3     OH2      OT      -0.834000       15.9994           0
     77250 TIP3     22445    TIP3     H1       HT       0.417000       1.00800           0
     77251 TIP3     22445    TIP3     H2       HT       0.417000       1.00800           0
     77252 TIP3     22446    TIP3     OH2      OT      -0.834000       15.9994           0
     77253 TIP3     22446    TIP3     H1       HT       0.417000       1.00800           0
     77254 TIP3     22446    TIP3     H2       HT       0.417000       1.00800           0
     77255 TIP3     22447    TIP3     OH2      OT      -0.834000       15.9994           0
     77256 TIP3     22447    TIP3     H1       HT       0.417000       1.00800           0
     77257 TIP3     22447    TIP3     H2       HT       0.417000       1.00800           0
     77258 TIP3     22448    TIP3     OH2      OT      -0.834000       15.9994           0
     77259 TIP3     22448    TIP3     H1       HT       0.417000       1.00800           0
     77260 TIP3     22448    TIP3     H2       HT       0.417000       1.00800           0
     77261 TIP3     22449    TIP3     OH2      OT      -0.834000       15.9994           0
     77262 TIP3     22449    TIP3     H1       HT       0.417000       1.00800           0
     77263 TIP3     22449    TIP3     H2       HT       0.417000       1.00800           0
     77264 TIP3     22450    TIP3     OH2      OT      -0.834000       15.9994           0
     77265 TIP3     22450    TIP3     H1       HT       0.417000       1.00800           0
     77266 TIP3     22450    TIP3     H2       HT       0.417000       1.00800           0
     77267 TIP3     22451    TIP3     OH2      OT      -0.834000       15.9994           0
     77268 TIP3     22451    TIP3     H1       HT       0.417000       1.00800           0
     77269 TIP3     22451    TIP3     H2       HT       0.417000       1.00800           0
     77270 TIP3     22452    TIP3     OH2      OT      -0.834000       15.9994           0
     77271 TIP3     22452    TIP3     H1       HT       0.417000       1.00800           0
     77272 TIP3     22452    TIP3     H2       HT       0.417000       1.00800           0
     77273 TIP3     22453    TIP3     OH2      OT      -0.834000       15.9994           0
     77274 TIP3     22453    TIP3     H1       HT       0.417000       1.00800           0
     77275 TIP3     22453    TIP3     H2       HT       0.417000       1.00800           0
     77276 TIP3     22454    TIP3     OH2      OT      -0.834000       15.9994           0
     77277 TIP3     22454    TIP3     H1       HT       0.417000       1.00800           0
     77278 TIP3     22454    TIP3     H2       HT       0.417000       1.00800           0
     77279 TIP3     22455    TIP3     OH2      OT      -0.834000       15.9994           0
     77280 TIP3     22455    TIP3     H1       HT       0.417000       1.00800           0
     77281 TIP3     22455    TIP3     H2       HT       0.417000       1.00800           0
     77282 TIP3     22456    TIP3     OH2      OT      -0.834000       15.9994           0
     77283 TIP3     22456    TIP3     H1       HT       0.417000       1.00800           0
     77284 TIP3     22456    TIP3     H2       HT       0.417000       1.00800           0
     77285 TIP3     22457    TIP3     OH2      OT      -0.834000       15.9994           0
     77286 TIP3     22457    TIP3     H1       HT       0.417000       1.00800           0
     77287 TIP3     22457    TIP3     H2       HT       0.417000       1.00800           0
     77288 TIP3     22458    TIP3     OH2      OT      -0.834000       15.9994           0
     77289 TIP3     22458    TIP3     H1       HT       0.417000       1.00800           0
     77290 TIP3     22458    TIP3     H2       HT       0.417000       1.00800           0
     77291 TIP3     22459    TIP3     OH2      OT      -0.834000       15.9994           0
     77292 TIP3     22459    TIP3     H1       HT       0.417000       1.00800           0
     77293 TIP3     22459    TIP3     H2       HT       0.417000       1.00800           0
     77294 TIP3     22460    TIP3     OH2      OT      -0.834000       15.9994           0
     77295 TIP3     22460    TIP3     H1       HT       0.417000       1.00800           0
     77296 TIP3     22460    TIP3     H2       HT       0.417000       1.00800           0
     77297 TIP3     22461    TIP3     OH2      OT      -0.834000       15.9994           0
     77298 TIP3     22461    TIP3     H1       HT       0.417000       1.00800           0
     77299 TIP3     22461    TIP3     H2       HT       0.417000       1.00800           0
     77300 TIP3     22462    TIP3     OH2      OT      -0.834000       15.9994           0
     77301 TIP3     22462    TIP3     H1       HT       0.417000       1.00800           0
     77302 TIP3     22462    TIP3     H2       HT       0.417000       1.00800           0
     77303 TIP3     22463    TIP3     OH2      OT      -0.834000       15.9994           0
     77304 TIP3     22463    TIP3     H1       HT       0.417000       1.00800           0
     77305 TIP3     22463    TIP3     H2       HT       0.417000       1.00800           0
     77306 TIP3     22464    TIP3     OH2      OT      -0.834000       15.9994           0
     77307 TIP3     22464    TIP3     H1       HT       0.417000       1.00800           0
     77308 TIP3     22464    TIP3     H2       HT       0.417000       1.00800           0
     77309 TIP3     22465    TIP3     OH2      OT      -0.834000       15.9994           0
     77310 TIP3     22465    TIP3     H1       HT       0.417000       1.00800           0
     77311 TIP3     22465    TIP3     H2       HT       0.417000       1.00800           0
     77312 TIP3     22466    TIP3     OH2      OT      -0.834000       15.9994           0
     77313 TIP3     22466    TIP3     H1       HT       0.417000       1.00800           0
     77314 TIP3     22466    TIP3     H2       HT       0.417000       1.00800           0
     77315 TIP3     22467    TIP3     OH2      OT      -0.834000       15.9994           0
     77316 TIP3     22467    TIP3     H1       HT       0.417000       1.00800           0
     77317 TIP3     22467    TIP3     H2       HT       0.417000       1.00800           0
     77318 TIP3     22468    TIP3     OH2      OT      -0.834000       15.9994           0
     77319 TIP3     22468    TIP3     H1       HT       0.417000       1.00800           0
     77320 TIP3     22468    TIP3     H2       HT       0.417000       1.00800           0
     77321 TIP3     22469    TIP3     OH2      OT      -0.834000       15.9994           0
     77322 TIP3     22469    TIP3     H1       HT       0.417000       1.00800           0
     77323 TIP3     22469    TIP3     H2       HT       0.417000       1.00800           0
     77324 TIP3     22470    TIP3     OH2      OT      -0.834000       15.9994           0
     77325 TIP3     22470    TIP3     H1       HT       0.417000       1.00800           0
     77326 TIP3     22470    TIP3     H2       HT       0.417000       1.00800           0
     77327 TIP3     22471    TIP3     OH2      OT      -0.834000       15.9994           0
     77328 TIP3     22471    TIP3     H1       HT       0.417000       1.00800           0
     77329 TIP3     22471    TIP3     H2       HT       0.417000       1.00800           0
     77330 TIP3     22472    TIP3     OH2      OT      -0.834000       15.9994           0
     77331 TIP3     22472    TIP3     H1       HT       0.417000       1.00800           0
     77332 TIP3     22472    TIP3     H2       HT       0.417000       1.00800           0
     77333 TIP3     22473    TIP3     OH2      OT      -0.834000       15.9994           0
     77334 TIP3     22473    TIP3     H1       HT       0.417000       1.00800           0
     77335 TIP3     22473    TIP3     H2       HT       0.417000       1.00800           0
     77336 TIP3     22474    TIP3     OH2      OT      -0.834000       15.9994           0
     77337 TIP3     22474    TIP3     H1       HT       0.417000       1.00800           0
     77338 TIP3     22474    TIP3     H2       HT       0.417000       1.00800           0
     77339 TIP3     22475    TIP3     OH2      OT      -0.834000       15.9994           0
     77340 TIP3     22475    TIP3     H1       HT       0.417000       1.00800           0
     77341 TIP3     22475    TIP3     H2       HT       0.417000       1.00800           0
     77342 TIP3     22476    TIP3     OH2      OT      -0.834000       15.9994           0
     77343 TIP3     22476    TIP3     H1       HT       0.417000       1.00800           0
     77344 TIP3     22476    TIP3     H2       HT       0.417000       1.00800           0
     77345 TIP3     22477    TIP3     OH2      OT      -0.834000       15.9994           0
     77346 TIP3     22477    TIP3     H1       HT       0.417000       1.00800           0
     77347 TIP3     22477    TIP3     H2       HT       0.417000       1.00800           0
     77348 TIP3     22478    TIP3     OH2      OT      -0.834000       15.9994           0
     77349 TIP3     22478    TIP3     H1       HT       0.417000       1.00800           0
     77350 TIP3     22478    TIP3     H2       HT       0.417000       1.00800           0
     77351 TIP3     22479    TIP3     OH2      OT      -0.834000       15.9994           0
     77352 TIP3     22479    TIP3     H1       HT       0.417000       1.00800           0
     77353 TIP3     22479    TIP3     H2       HT       0.417000       1.00800           0
     77354 TIP3     22480    TIP3     OH2      OT      -0.834000       15.9994           0
     77355 TIP3     22480    TIP3     H1       HT       0.417000       1.00800           0
     77356 TIP3     22480    TIP3     H2       HT       0.417000       1.00800           0
     77357 TIP3     22481    TIP3     OH2      OT      -0.834000       15.9994           0
     77358 TIP3     22481    TIP3     H1       HT       0.417000       1.00800           0
     77359 TIP3     22481    TIP3     H2       HT       0.417000       1.00800           0
     77360 TIP3     22482    TIP3     OH2      OT      -0.834000       15.9994           0
     77361 TIP3     22482    TIP3     H1       HT       0.417000       1.00800           0
     77362 TIP3     22482    TIP3     H2       HT       0.417000       1.00800           0
     77363 TIP3     22483    TIP3     OH2      OT      -0.834000       15.9994           0
     77364 TIP3     22483    TIP3     H1       HT       0.417000       1.00800           0
     77365 TIP3     22483    TIP3     H2       HT       0.417000       1.00800           0
     77366 TIP3     22484    TIP3     OH2      OT      -0.834000       15.9994           0
     77367 TIP3     22484    TIP3     H1       HT       0.417000       1.00800           0
     77368 TIP3     22484    TIP3     H2       HT       0.417000       1.00800           0
     77369 TIP3     22485    TIP3     OH2      OT      -0.834000       15.9994           0
     77370 TIP3     22485    TIP3     H1       HT       0.417000       1.00800           0
     77371 TIP3     22485    TIP3     H2       HT       0.417000       1.00800           0
     77372 TIP3     22486    TIP3     OH2      OT      -0.834000       15.9994           0
     77373 TIP3     22486    TIP3     H1       HT       0.417000       1.00800           0
     77374 TIP3     22486    TIP3     H2       HT       0.417000       1.00800           0
     77375 TIP3     22487    TIP3     OH2      OT      -0.834000       15.9994           0
     77376 TIP3     22487    TIP3     H1       HT       0.417000       1.00800           0
     77377 TIP3     22487    TIP3     H2       HT       0.417000       1.00800           0
     77378 TIP3     22488    TIP3     OH2      OT      -0.834000       15.9994           0
     77379 TIP3     22488    TIP3     H1       HT       0.417000       1.00800           0
     77380 TIP3     22488    TIP3     H2       HT       0.417000       1.00800           0
     77381 TIP3     22489    TIP3     OH2      OT      -0.834000       15.9994           0
     77382 TIP3     22489    TIP3     H1       HT       0.417000       1.00800           0
     77383 TIP3     22489    TIP3     H2       HT       0.417000       1.00800           0
     77384 TIP3     22490    TIP3     OH2      OT      -0.834000       15.9994           0
     77385 TIP3     22490    TIP3     H1       HT       0.417000       1.00800           0
     77386 TIP3     22490    TIP3     H2       HT       0.417000       1.00800           0
     77387 TIP3     22491    TIP3     OH2      OT      -0.834000       15.9994           0
     77388 TIP3     22491    TIP3     H1       HT       0.417000       1.00800           0
     77389 TIP3     22491    TIP3     H2       HT       0.417000       1.00800           0
     77390 TIP3     22492    TIP3     OH2      OT      -0.834000       15.9994           0
     77391 TIP3     22492    TIP3     H1       HT       0.417000       1.00800           0
     77392 TIP3     22492    TIP3     H2       HT       0.417000       1.00800           0
     77393 TIP3     22493    TIP3     OH2      OT      -0.834000       15.9994           0
     77394 TIP3     22493    TIP3     H1       HT       0.417000       1.00800           0
     77395 TIP3     22493    TIP3     H2       HT       0.417000       1.00800           0
     77396 TIP3     22494    TIP3     OH2      OT      -0.834000       15.9994           0
     77397 TIP3     22494    TIP3     H1       HT       0.417000       1.00800           0
     77398 TIP3     22494    TIP3     H2       HT       0.417000       1.00800           0
     77399 TIP3     22495    TIP3     OH2      OT      -0.834000       15.9994           0
     77400 TIP3     22495    TIP3     H1       HT       0.417000       1.00800           0
     77401 TIP3     22495    TIP3     H2       HT       0.417000       1.00800           0
     77402 TIP3     22496    TIP3     OH2      OT      -0.834000       15.9994           0
     77403 TIP3     22496    TIP3     H1       HT       0.417000       1.00800           0
     77404 TIP3     22496    TIP3     H2       HT       0.417000       1.00800           0
     77405 TIP3     22497    TIP3     OH2      OT      -0.834000       15.9994           0
     77406 TIP3     22497    TIP3     H1       HT       0.417000       1.00800           0
     77407 TIP3     22497    TIP3     H2       HT       0.417000       1.00800           0
     77408 TIP3     22498    TIP3     OH2      OT      -0.834000       15.9994           0
     77409 TIP3     22498    TIP3     H1       HT       0.417000       1.00800           0
     77410 TIP3     22498    TIP3     H2       HT       0.417000       1.00800           0
     77411 TIP3     22499    TIP3     OH2      OT      -0.834000       15.9994           0
     77412 TIP3     22499    TIP3     H1       HT       0.417000       1.00800           0
     77413 TIP3     22499    TIP3     H2       HT       0.417000       1.00800           0
     77414 TIP3     22500    TIP3     OH2      OT      -0.834000       15.9994           0
     77415 TIP3     22500    TIP3     H1       HT       0.417000       1.00800           0
     77416 TIP3     22500    TIP3     H2       HT       0.417000       1.00800           0
     77417 TIP3     22501    TIP3     OH2      OT      -0.834000       15.9994           0
     77418 TIP3     22501    TIP3     H1       HT       0.417000       1.00800           0
     77419 TIP3     22501    TIP3     H2       HT       0.417000       1.00800           0
     77420 TIP3     22502    TIP3     OH2      OT      -0.834000       15.9994           0
     77421 TIP3     22502    TIP3     H1       HT       0.417000       1.00800           0
     77422 TIP3     22502    TIP3     H2       HT       0.417000       1.00800           0
     77423 TIP3     22503    TIP3     OH2      OT      -0.834000       15.9994           0
     77424 TIP3     22503    TIP3     H1       HT       0.417000       1.00800           0
     77425 TIP3     22503    TIP3     H2       HT       0.417000       1.00800           0
     77426 TIP3     22504    TIP3     OH2      OT      -0.834000       15.9994           0
     77427 TIP3     22504    TIP3     H1       HT       0.417000       1.00800           0
     77428 TIP3     22504    TIP3     H2       HT       0.417000       1.00800           0
     77429 TIP3     22505    TIP3     OH2      OT      -0.834000       15.9994           0
     77430 TIP3     22505    TIP3     H1       HT       0.417000       1.00800           0
     77431 TIP3     22505    TIP3     H2       HT       0.417000       1.00800           0
     77432 TIP3     22506    TIP3     OH2      OT      -0.834000       15.9994           0
     77433 TIP3     22506    TIP3     H1       HT       0.417000       1.00800           0
     77434 TIP3     22506    TIP3     H2       HT       0.417000       1.00800           0
     77435 TIP3     22507    TIP3     OH2      OT      -0.834000       15.9994           0
     77436 TIP3     22507    TIP3     H1       HT       0.417000       1.00800           0
     77437 TIP3     22507    TIP3     H2       HT       0.417000       1.00800           0
     77438 TIP3     22508    TIP3     OH2      OT      -0.834000       15.9994           0
     77439 TIP3     22508    TIP3     H1       HT       0.417000       1.00800           0
     77440 TIP3     22508    TIP3     H2       HT       0.417000       1.00800           0
     77441 TIP3     22509    TIP3     OH2      OT      -0.834000       15.9994           0
     77442 TIP3     22509    TIP3     H1       HT       0.417000       1.00800           0
     77443 TIP3     22509    TIP3     H2       HT       0.417000       1.00800           0
     77444 TIP3     22510    TIP3     OH2      OT      -0.834000       15.9994           0
     77445 TIP3     22510    TIP3     H1       HT       0.417000       1.00800           0
     77446 TIP3     22510    TIP3     H2       HT       0.417000       1.00800           0
     77447 TIP3     22511    TIP3     OH2      OT      -0.834000       15.9994           0
     77448 TIP3     22511    TIP3     H1       HT       0.417000       1.00800           0
     77449 TIP3     22511    TIP3     H2       HT       0.417000       1.00800           0
     77450 TIP3     22512    TIP3     OH2      OT      -0.834000       15.9994           0
     77451 TIP3     22512    TIP3     H1       HT       0.417000       1.00800           0
     77452 TIP3     22512    TIP3     H2       HT       0.417000       1.00800           0
     77453 TIP3     22513    TIP3     OH2      OT      -0.834000       15.9994           0
     77454 TIP3     22513    TIP3     H1       HT       0.417000       1.00800           0
     77455 TIP3     22513    TIP3     H2       HT       0.417000       1.00800           0
     77456 TIP3     22514    TIP3     OH2      OT      -0.834000       15.9994           0
     77457 TIP3     22514    TIP3     H1       HT       0.417000       1.00800           0
     77458 TIP3     22514    TIP3     H2       HT       0.417000       1.00800           0
     77459 TIP3     22515    TIP3     OH2      OT      -0.834000       15.9994           0
     77460 TIP3     22515    TIP3     H1       HT       0.417000       1.00800           0
     77461 TIP3     22515    TIP3     H2       HT       0.417000       1.00800           0
     77462 TIP3     22516    TIP3     OH2      OT      -0.834000       15.9994           0
     77463 TIP3     22516    TIP3     H1       HT       0.417000       1.00800           0
     77464 TIP3     22516    TIP3     H2       HT       0.417000       1.00800           0
     77465 TIP3     22517    TIP3     OH2      OT      -0.834000       15.9994           0
     77466 TIP3     22517    TIP3     H1       HT       0.417000       1.00800           0
     77467 TIP3     22517    TIP3     H2       HT       0.417000       1.00800           0
     77468 TIP3     22518    TIP3     OH2      OT      -0.834000       15.9994           0
     77469 TIP3     22518    TIP3     H1       HT       0.417000       1.00800           0
     77470 TIP3     22518    TIP3     H2       HT       0.417000       1.00800           0
     77471 TIP3     22519    TIP3     OH2      OT      -0.834000       15.9994           0
     77472 TIP3     22519    TIP3     H1       HT       0.417000       1.00800           0
     77473 TIP3     22519    TIP3     H2       HT       0.417000       1.00800           0
     77474 TIP3     22520    TIP3     OH2      OT      -0.834000       15.9994           0
     77475 TIP3     22520    TIP3     H1       HT       0.417000       1.00800           0
     77476 TIP3     22520    TIP3     H2       HT       0.417000       1.00800           0
     77477 TIP3     22521    TIP3     OH2      OT      -0.834000       15.9994           0
     77478 TIP3     22521    TIP3     H1       HT       0.417000       1.00800           0
     77479 TIP3     22521    TIP3     H2       HT       0.417000       1.00800           0
     77480 TIP3     22522    TIP3     OH2      OT      -0.834000       15.9994           0
     77481 TIP3     22522    TIP3     H1       HT       0.417000       1.00800           0
     77482 TIP3     22522    TIP3     H2       HT       0.417000       1.00800           0
     77483 TIP3     22523    TIP3     OH2      OT      -0.834000       15.9994           0
     77484 TIP3     22523    TIP3     H1       HT       0.417000       1.00800           0
     77485 TIP3     22523    TIP3     H2       HT       0.417000       1.00800           0
     77486 TIP3     22524    TIP3     OH2      OT      -0.834000       15.9994           0
     77487 TIP3     22524    TIP3     H1       HT       0.417000       1.00800           0
     77488 TIP3     22524    TIP3     H2       HT       0.417000       1.00800           0
     77489 TIP3     22525    TIP3     OH2      OT      -0.834000       15.9994           0
     77490 TIP3     22525    TIP3     H1       HT       0.417000       1.00800           0
     77491 TIP3     22525    TIP3     H2       HT       0.417000       1.00800           0
     77492 TIP3     22526    TIP3     OH2      OT      -0.834000       15.9994           0
     77493 TIP3     22526    TIP3     H1       HT       0.417000       1.00800           0
     77494 TIP3     22526    TIP3     H2       HT       0.417000       1.00800           0
     77495 TIP3     22527    TIP3     OH2      OT      -0.834000       15.9994           0
     77496 TIP3     22527    TIP3     H1       HT       0.417000       1.00800           0
     77497 TIP3     22527    TIP3     H2       HT       0.417000       1.00800           0
     77498 TIP3     22528    TIP3     OH2      OT      -0.834000       15.9994           0
     77499 TIP3     22528    TIP3     H1       HT       0.417000       1.00800           0
     77500 TIP3     22528    TIP3     H2       HT       0.417000       1.00800           0
     77501 TIP3     22529    TIP3     OH2      OT      -0.834000       15.9994           0
     77502 TIP3     22529    TIP3     H1       HT       0.417000       1.00800           0
     77503 TIP3     22529    TIP3     H2       HT       0.417000       1.00800           0
     77504 TIP3     22530    TIP3     OH2      OT      -0.834000       15.9994           0
     77505 TIP3     22530    TIP3     H1       HT       0.417000       1.00800           0
     77506 TIP3     22530    TIP3     H2       HT       0.417000       1.00800           0
     77507 TIP3     22531    TIP3     OH2      OT      -0.834000       15.9994           0
     77508 TIP3     22531    TIP3     H1       HT       0.417000       1.00800           0
     77509 TIP3     22531    TIP3     H2       HT       0.417000       1.00800           0
     77510 TIP3     22532    TIP3     OH2      OT      -0.834000       15.9994           0
     77511 TIP3     22532    TIP3     H1       HT       0.417000       1.00800           0
     77512 TIP3     22532    TIP3     H2       HT       0.417000       1.00800           0
     77513 TIP3     22533    TIP3     OH2      OT      -0.834000       15.9994           0
     77514 TIP3     22533    TIP3     H1       HT       0.417000       1.00800           0
     77515 TIP3     22533    TIP3     H2       HT       0.417000       1.00800           0
     77516 TIP3     22534    TIP3     OH2      OT      -0.834000       15.9994           0
     77517 TIP3     22534    TIP3     H1       HT       0.417000       1.00800           0
     77518 TIP3     22534    TIP3     H2       HT       0.417000       1.00800           0
     77519 TIP3     22535    TIP3     OH2      OT      -0.834000       15.9994           0
     77520 TIP3     22535    TIP3     H1       HT       0.417000       1.00800           0
     77521 TIP3     22535    TIP3     H2       HT       0.417000       1.00800           0
     77522 TIP3     22536    TIP3     OH2      OT      -0.834000       15.9994           0
     77523 TIP3     22536    TIP3     H1       HT       0.417000       1.00800           0
     77524 TIP3     22536    TIP3     H2       HT       0.417000       1.00800           0
     77525 TIP3     22537    TIP3     OH2      OT      -0.834000       15.9994           0
     77526 TIP3     22537    TIP3     H1       HT       0.417000       1.00800           0
     77527 TIP3     22537    TIP3     H2       HT       0.417000       1.00800           0
     77528 TIP3     22538    TIP3     OH2      OT      -0.834000       15.9994           0
     77529 TIP3     22538    TIP3     H1       HT       0.417000       1.00800           0
     77530 TIP3     22538    TIP3     H2       HT       0.417000       1.00800           0
     77531 TIP3     22539    TIP3     OH2      OT      -0.834000       15.9994           0
     77532 TIP3     22539    TIP3     H1       HT       0.417000       1.00800           0
     77533 TIP3     22539    TIP3     H2       HT       0.417000       1.00800           0
     77534 TIP3     22540    TIP3     OH2      OT      -0.834000       15.9994           0
     77535 TIP3     22540    TIP3     H1       HT       0.417000       1.00800           0
     77536 TIP3     22540    TIP3     H2       HT       0.417000       1.00800           0
     77537 TIP3     22541    TIP3     OH2      OT      -0.834000       15.9994           0
     77538 TIP3     22541    TIP3     H1       HT       0.417000       1.00800           0
     77539 TIP3     22541    TIP3     H2       HT       0.417000       1.00800           0
     77540 TIP3     22542    TIP3     OH2      OT      -0.834000       15.9994           0
     77541 TIP3     22542    TIP3     H1       HT       0.417000       1.00800           0
     77542 TIP3     22542    TIP3     H2       HT       0.417000       1.00800           0
     77543 TIP3     22543    TIP3     OH2      OT      -0.834000       15.9994           0
     77544 TIP3     22543    TIP3     H1       HT       0.417000       1.00800           0
     77545 TIP3     22543    TIP3     H2       HT       0.417000       1.00800           0
     77546 TIP3     22544    TIP3     OH2      OT      -0.834000       15.9994           0
     77547 TIP3     22544    TIP3     H1       HT       0.417000       1.00800           0
     77548 TIP3     22544    TIP3     H2       HT       0.417000       1.00800           0
     77549 TIP3     22545    TIP3     OH2      OT      -0.834000       15.9994           0
     77550 TIP3     22545    TIP3     H1       HT       0.417000       1.00800           0
     77551 TIP3     22545    TIP3     H2       HT       0.417000       1.00800           0
     77552 TIP3     22546    TIP3     OH2      OT      -0.834000       15.9994           0
     77553 TIP3     22546    TIP3     H1       HT       0.417000       1.00800           0
     77554 TIP3     22546    TIP3     H2       HT       0.417000       1.00800           0
     77555 TIP3     22547    TIP3     OH2      OT      -0.834000       15.9994           0
     77556 TIP3     22547    TIP3     H1       HT       0.417000       1.00800           0
     77557 TIP3     22547    TIP3     H2       HT       0.417000       1.00800           0
     77558 TIP3     22548    TIP3     OH2      OT      -0.834000       15.9994           0
     77559 TIP3     22548    TIP3     H1       HT       0.417000       1.00800           0
     77560 TIP3     22548    TIP3     H2       HT       0.417000       1.00800           0
     77561 TIP3     22549    TIP3     OH2      OT      -0.834000       15.9994           0
     77562 TIP3     22549    TIP3     H1       HT       0.417000       1.00800           0
     77563 TIP3     22549    TIP3     H2       HT       0.417000       1.00800           0
     77564 TIP3     22550    TIP3     OH2      OT      -0.834000       15.9994           0
     77565 TIP3     22550    TIP3     H1       HT       0.417000       1.00800           0
     77566 TIP3     22550    TIP3     H2       HT       0.417000       1.00800           0
     77567 TIP3     22551    TIP3     OH2      OT      -0.834000       15.9994           0
     77568 TIP3     22551    TIP3     H1       HT       0.417000       1.00800           0
     77569 TIP3     22551    TIP3     H2       HT       0.417000       1.00800           0
     77570 TIP3     22552    TIP3     OH2      OT      -0.834000       15.9994           0
     77571 TIP3     22552    TIP3     H1       HT       0.417000       1.00800           0
     77572 TIP3     22552    TIP3     H2       HT       0.417000       1.00800           0
     77573 TIP3     22553    TIP3     OH2      OT      -0.834000       15.9994           0
     77574 TIP3     22553    TIP3     H1       HT       0.417000       1.00800           0
     77575 TIP3     22553    TIP3     H2       HT       0.417000       1.00800           0
     77576 TIP3     22554    TIP3     OH2      OT      -0.834000       15.9994           0
     77577 TIP3     22554    TIP3     H1       HT       0.417000       1.00800           0
     77578 TIP3     22554    TIP3     H2       HT       0.417000       1.00800           0
     77579 TIP3     22555    TIP3     OH2      OT      -0.834000       15.9994           0
     77580 TIP3     22555    TIP3     H1       HT       0.417000       1.00800           0
     77581 TIP3     22555    TIP3     H2       HT       0.417000       1.00800           0
     77582 TIP3     22556    TIP3     OH2      OT      -0.834000       15.9994           0
     77583 TIP3     22556    TIP3     H1       HT       0.417000       1.00800           0
     77584 TIP3     22556    TIP3     H2       HT       0.417000       1.00800           0
     77585 TIP3     22557    TIP3     OH2      OT      -0.834000       15.9994           0
     77586 TIP3     22557    TIP3     H1       HT       0.417000       1.00800           0
     77587 TIP3     22557    TIP3     H2       HT       0.417000       1.00800           0
     77588 TIP3     22558    TIP3     OH2      OT      -0.834000       15.9994           0
     77589 TIP3     22558    TIP3     H1       HT       0.417000       1.00800           0
     77590 TIP3     22558    TIP3     H2       HT       0.417000       1.00800           0
     77591 TIP3     22559    TIP3     OH2      OT      -0.834000       15.9994           0
     77592 TIP3     22559    TIP3     H1       HT       0.417000       1.00800           0
     77593 TIP3     22559    TIP3     H2       HT       0.417000       1.00800           0
     77594 TIP3     22560    TIP3     OH2      OT      -0.834000       15.9994           0
     77595 TIP3     22560    TIP3     H1       HT       0.417000       1.00800           0
     77596 TIP3     22560    TIP3     H2       HT       0.417000       1.00800           0
     77597 TIP3     22561    TIP3     OH2      OT      -0.834000       15.9994           0
     77598 TIP3     22561    TIP3     H1       HT       0.417000       1.00800           0
     77599 TIP3     22561    TIP3     H2       HT       0.417000       1.00800           0
     77600 TIP3     22562    TIP3     OH2      OT      -0.834000       15.9994           0
     77601 TIP3     22562    TIP3     H1       HT       0.417000       1.00800           0
     77602 TIP3     22562    TIP3     H2       HT       0.417000       1.00800           0
     77603 TIP3     22563    TIP3     OH2      OT      -0.834000       15.9994           0
     77604 TIP3     22563    TIP3     H1       HT       0.417000       1.00800           0
     77605 TIP3     22563    TIP3     H2       HT       0.417000       1.00800           0
     77606 TIP3     22564    TIP3     OH2      OT      -0.834000       15.9994           0
     77607 TIP3     22564    TIP3     H1       HT       0.417000       1.00800           0
     77608 TIP3     22564    TIP3     H2       HT       0.417000       1.00800           0
     77609 TIP3     22565    TIP3     OH2      OT      -0.834000       15.9994           0
     77610 TIP3     22565    TIP3     H1       HT       0.417000       1.00800           0
     77611 TIP3     22565    TIP3     H2       HT       0.417000       1.00800           0
     77612 TIP3     22566    TIP3     OH2      OT      -0.834000       15.9994           0
     77613 TIP3     22566    TIP3     H1       HT       0.417000       1.00800           0
     77614 TIP3     22566    TIP3     H2       HT       0.417000       1.00800           0
     77615 TIP3     22567    TIP3     OH2      OT      -0.834000       15.9994           0
     77616 TIP3     22567    TIP3     H1       HT       0.417000       1.00800           0
     77617 TIP3     22567    TIP3     H2       HT       0.417000       1.00800           0
     77618 TIP3     22568    TIP3     OH2      OT      -0.834000       15.9994           0
     77619 TIP3     22568    TIP3     H1       HT       0.417000       1.00800           0
     77620 TIP3     22568    TIP3     H2       HT       0.417000       1.00800           0
     77621 TIP3     22569    TIP3     OH2      OT      -0.834000       15.9994           0
     77622 TIP3     22569    TIP3     H1       HT       0.417000       1.00800           0
     77623 TIP3     22569    TIP3     H2       HT       0.417000       1.00800           0
     77624 TIP3     22570    TIP3     OH2      OT      -0.834000       15.9994           0
     77625 TIP3     22570    TIP3     H1       HT       0.417000       1.00800           0
     77626 TIP3     22570    TIP3     H2       HT       0.417000       1.00800           0
     77627 TIP3     22571    TIP3     OH2      OT      -0.834000       15.9994           0
     77628 TIP3     22571    TIP3     H1       HT       0.417000       1.00800           0
     77629 TIP3     22571    TIP3     H2       HT       0.417000       1.00800           0
     77630 TIP3     22572    TIP3     OH2      OT      -0.834000       15.9994           0
     77631 TIP3     22572    TIP3     H1       HT       0.417000       1.00800           0
     77632 TIP3     22572    TIP3     H2       HT       0.417000       1.00800           0
     77633 TIP3     22573    TIP3     OH2      OT      -0.834000       15.9994           0
     77634 TIP3     22573    TIP3     H1       HT       0.417000       1.00800           0
     77635 TIP3     22573    TIP3     H2       HT       0.417000       1.00800           0
     77636 TIP3     22574    TIP3     OH2      OT      -0.834000       15.9994           0
     77637 TIP3     22574    TIP3     H1       HT       0.417000       1.00800           0
     77638 TIP3     22574    TIP3     H2       HT       0.417000       1.00800           0
     77639 TIP3     22575    TIP3     OH2      OT      -0.834000       15.9994           0
     77640 TIP3     22575    TIP3     H1       HT       0.417000       1.00800           0
     77641 TIP3     22575    TIP3     H2       HT       0.417000       1.00800           0
     77642 TIP3     22576    TIP3     OH2      OT      -0.834000       15.9994           0
     77643 TIP3     22576    TIP3     H1       HT       0.417000       1.00800           0
     77644 TIP3     22576    TIP3     H2       HT       0.417000       1.00800           0
     77645 TIP3     22577    TIP3     OH2      OT      -0.834000       15.9994           0
     77646 TIP3     22577    TIP3     H1       HT       0.417000       1.00800           0
     77647 TIP3     22577    TIP3     H2       HT       0.417000       1.00800           0
     77648 TIP3     22578    TIP3     OH2      OT      -0.834000       15.9994           0
     77649 TIP3     22578    TIP3     H1       HT       0.417000       1.00800           0
     77650 TIP3     22578    TIP3     H2       HT       0.417000       1.00800           0
     77651 TIP3     22579    TIP3     OH2      OT      -0.834000       15.9994           0
     77652 TIP3     22579    TIP3     H1       HT       0.417000       1.00800           0
     77653 TIP3     22579    TIP3     H2       HT       0.417000       1.00800           0
     77654 TIP3     22580    TIP3     OH2      OT      -0.834000       15.9994           0
     77655 TIP3     22580    TIP3     H1       HT       0.417000       1.00800           0
     77656 TIP3     22580    TIP3     H2       HT       0.417000       1.00800           0
     77657 TIP3     22581    TIP3     OH2      OT      -0.834000       15.9994           0
     77658 TIP3     22581    TIP3     H1       HT       0.417000       1.00800           0
     77659 TIP3     22581    TIP3     H2       HT       0.417000       1.00800           0
     77660 TIP3     22582    TIP3     OH2      OT      -0.834000       15.9994           0
     77661 TIP3     22582    TIP3     H1       HT       0.417000       1.00800           0
     77662 TIP3     22582    TIP3     H2       HT       0.417000       1.00800           0
     77663 TIP3     22583    TIP3     OH2      OT      -0.834000       15.9994           0
     77664 TIP3     22583    TIP3     H1       HT       0.417000       1.00800           0
     77665 TIP3     22583    TIP3     H2       HT       0.417000       1.00800           0
     77666 TIP3     22584    TIP3     OH2      OT      -0.834000       15.9994           0
     77667 TIP3     22584    TIP3     H1       HT       0.417000       1.00800           0
     77668 TIP3     22584    TIP3     H2       HT       0.417000       1.00800           0
     77669 TIP3     22585    TIP3     OH2      OT      -0.834000       15.9994           0
     77670 TIP3     22585    TIP3     H1       HT       0.417000       1.00800           0
     77671 TIP3     22585    TIP3     H2       HT       0.417000       1.00800           0
     77672 TIP3     22586    TIP3     OH2      OT      -0.834000       15.9994           0
     77673 TIP3     22586    TIP3     H1       HT       0.417000       1.00800           0
     77674 TIP3     22586    TIP3     H2       HT       0.417000       1.00800           0
     77675 TIP3     22587    TIP3     OH2      OT      -0.834000       15.9994           0
     77676 TIP3     22587    TIP3     H1       HT       0.417000       1.00800           0
     77677 TIP3     22587    TIP3     H2       HT       0.417000       1.00800           0
     77678 TIP3     22588    TIP3     OH2      OT      -0.834000       15.9994           0
     77679 TIP3     22588    TIP3     H1       HT       0.417000       1.00800           0
     77680 TIP3     22588    TIP3     H2       HT       0.417000       1.00800           0
     77681 TIP3     22589    TIP3     OH2      OT      -0.834000       15.9994           0
     77682 TIP3     22589    TIP3     H1       HT       0.417000       1.00800           0
     77683 TIP3     22589    TIP3     H2       HT       0.417000       1.00800           0
     77684 TIP3     22590    TIP3     OH2      OT      -0.834000       15.9994           0
     77685 TIP3     22590    TIP3     H1       HT       0.417000       1.00800           0
     77686 TIP3     22590    TIP3     H2       HT       0.417000       1.00800           0
     77687 TIP3     22591    TIP3     OH2      OT      -0.834000       15.9994           0
     77688 TIP3     22591    TIP3     H1       HT       0.417000       1.00800           0
     77689 TIP3     22591    TIP3     H2       HT       0.417000       1.00800           0
     77690 TIP3     22592    TIP3     OH2      OT      -0.834000       15.9994           0
     77691 TIP3     22592    TIP3     H1       HT       0.417000       1.00800           0
     77692 TIP3     22592    TIP3     H2       HT       0.417000       1.00800           0
     77693 TIP3     22593    TIP3     OH2      OT      -0.834000       15.9994           0
     77694 TIP3     22593    TIP3     H1       HT       0.417000       1.00800           0
     77695 TIP3     22593    TIP3     H2       HT       0.417000       1.00800           0
     77696 TIP3     22594    TIP3     OH2      OT      -0.834000       15.9994           0
     77697 TIP3     22594    TIP3     H1       HT       0.417000       1.00800           0
     77698 TIP3     22594    TIP3     H2       HT       0.417000       1.00800           0
     77699 TIP3     22595    TIP3     OH2      OT      -0.834000       15.9994           0
     77700 TIP3     22595    TIP3     H1       HT       0.417000       1.00800           0
     77701 TIP3     22595    TIP3     H2       HT       0.417000       1.00800           0
     77702 TIP3     22596    TIP3     OH2      OT      -0.834000       15.9994           0
     77703 TIP3     22596    TIP3     H1       HT       0.417000       1.00800           0
     77704 TIP3     22596    TIP3     H2       HT       0.417000       1.00800           0
     77705 TIP3     22597    TIP3     OH2      OT      -0.834000       15.9994           0
     77706 TIP3     22597    TIP3     H1       HT       0.417000       1.00800           0
     77707 TIP3     22597    TIP3     H2       HT       0.417000       1.00800           0
     77708 TIP3     22598    TIP3     OH2      OT      -0.834000       15.9994           0
     77709 TIP3     22598    TIP3     H1       HT       0.417000       1.00800           0
     77710 TIP3     22598    TIP3     H2       HT       0.417000       1.00800           0
     77711 TIP3     22599    TIP3     OH2      OT      -0.834000       15.9994           0
     77712 TIP3     22599    TIP3     H1       HT       0.417000       1.00800           0
     77713 TIP3     22599    TIP3     H2       HT       0.417000       1.00800           0
     77714 TIP3     22600    TIP3     OH2      OT      -0.834000       15.9994           0
     77715 TIP3     22600    TIP3     H1       HT       0.417000       1.00800           0
     77716 TIP3     22600    TIP3     H2       HT       0.417000       1.00800           0
     77717 TIP3     22601    TIP3     OH2      OT      -0.834000       15.9994           0
     77718 TIP3     22601    TIP3     H1       HT       0.417000       1.00800           0
     77719 TIP3     22601    TIP3     H2       HT       0.417000       1.00800           0
     77720 TIP3     22602    TIP3     OH2      OT      -0.834000       15.9994           0
     77721 TIP3     22602    TIP3     H1       HT       0.417000       1.00800           0
     77722 TIP3     22602    TIP3     H2       HT       0.417000       1.00800           0
     77723 TIP3     22603    TIP3     OH2      OT      -0.834000       15.9994           0
     77724 TIP3     22603    TIP3     H1       HT       0.417000       1.00800           0
     77725 TIP3     22603    TIP3     H2       HT       0.417000       1.00800           0
     77726 TIP3     22604    TIP3     OH2      OT      -0.834000       15.9994           0
     77727 TIP3     22604    TIP3     H1       HT       0.417000       1.00800           0
     77728 TIP3     22604    TIP3     H2       HT       0.417000       1.00800           0
     77729 TIP3     22605    TIP3     OH2      OT      -0.834000       15.9994           0
     77730 TIP3     22605    TIP3     H1       HT       0.417000       1.00800           0
     77731 TIP3     22605    TIP3     H2       HT       0.417000       1.00800           0
     77732 TIP3     22606    TIP3     OH2      OT      -0.834000       15.9994           0
     77733 TIP3     22606    TIP3     H1       HT       0.417000       1.00800           0
     77734 TIP3     22606    TIP3     H2       HT       0.417000       1.00800           0
     77735 TIP3     22607    TIP3     OH2      OT      -0.834000       15.9994           0
     77736 TIP3     22607    TIP3     H1       HT       0.417000       1.00800           0
     77737 TIP3     22607    TIP3     H2       HT       0.417000       1.00800           0
     77738 TIP3     22608    TIP3     OH2      OT      -0.834000       15.9994           0
     77739 TIP3     22608    TIP3     H1       HT       0.417000       1.00800           0
     77740 TIP3     22608    TIP3     H2       HT       0.417000       1.00800           0
     77741 TIP3     22609    TIP3     OH2      OT      -0.834000       15.9994           0
     77742 TIP3     22609    TIP3     H1       HT       0.417000       1.00800           0
     77743 TIP3     22609    TIP3     H2       HT       0.417000       1.00800           0
     77744 TIP3     22610    TIP3     OH2      OT      -0.834000       15.9994           0
     77745 TIP3     22610    TIP3     H1       HT       0.417000       1.00800           0
     77746 TIP3     22610    TIP3     H2       HT       0.417000       1.00800           0
     77747 TIP3     22611    TIP3     OH2      OT      -0.834000       15.9994           0
     77748 TIP3     22611    TIP3     H1       HT       0.417000       1.00800           0
     77749 TIP3     22611    TIP3     H2       HT       0.417000       1.00800           0
     77750 TIP3     22612    TIP3     OH2      OT      -0.834000       15.9994           0
     77751 TIP3     22612    TIP3     H1       HT       0.417000       1.00800           0
     77752 TIP3     22612    TIP3     H2       HT       0.417000       1.00800           0
     77753 TIP3     22613    TIP3     OH2      OT      -0.834000       15.9994           0
     77754 TIP3     22613    TIP3     H1       HT       0.417000       1.00800           0
     77755 TIP3     22613    TIP3     H2       HT       0.417000       1.00800           0
     77756 TIP3     22614    TIP3     OH2      OT      -0.834000       15.9994           0
     77757 TIP3     22614    TIP3     H1       HT       0.417000       1.00800           0
     77758 TIP3     22614    TIP3     H2       HT       0.417000       1.00800           0
     77759 TIP3     22615    TIP3     OH2      OT      -0.834000       15.9994           0
     77760 TIP3     22615    TIP3     H1       HT       0.417000       1.00800           0
     77761 TIP3     22615    TIP3     H2       HT       0.417000       1.00800           0
     77762 TIP3     22616    TIP3     OH2      OT      -0.834000       15.9994           0
     77763 TIP3     22616    TIP3     H1       HT       0.417000       1.00800           0
     77764 TIP3     22616    TIP3     H2       HT       0.417000       1.00800           0
     77765 TIP3     22617    TIP3     OH2      OT      -0.834000       15.9994           0
     77766 TIP3     22617    TIP3     H1       HT       0.417000       1.00800           0
     77767 TIP3     22617    TIP3     H2       HT       0.417000       1.00800           0
     77768 TIP3     22618    TIP3     OH2      OT      -0.834000       15.9994           0
     77769 TIP3     22618    TIP3     H1       HT       0.417000       1.00800           0
     77770 TIP3     22618    TIP3     H2       HT       0.417000       1.00800           0
     77771 TIP3     22619    TIP3     OH2      OT      -0.834000       15.9994           0
     77772 TIP3     22619    TIP3     H1       HT       0.417000       1.00800           0
     77773 TIP3     22619    TIP3     H2       HT       0.417000       1.00800           0
     77774 TIP3     22620    TIP3     OH2      OT      -0.834000       15.9994           0
     77775 TIP3     22620    TIP3     H1       HT       0.417000       1.00800           0
     77776 TIP3     22620    TIP3     H2       HT       0.417000       1.00800           0
     77777 TIP3     22621    TIP3     OH2      OT      -0.834000       15.9994           0
     77778 TIP3     22621    TIP3     H1       HT       0.417000       1.00800           0
     77779 TIP3     22621    TIP3     H2       HT       0.417000       1.00800           0
     77780 TIP3     22622    TIP3     OH2      OT      -0.834000       15.9994           0
     77781 TIP3     22622    TIP3     H1       HT       0.417000       1.00800           0
     77782 TIP3     22622    TIP3     H2       HT       0.417000       1.00800           0
     77783 TIP3     22623    TIP3     OH2      OT      -0.834000       15.9994           0
     77784 TIP3     22623    TIP3     H1       HT       0.417000       1.00800           0
     77785 TIP3     22623    TIP3     H2       HT       0.417000       1.00800           0
     77786 TIP3     22624    TIP3     OH2      OT      -0.834000       15.9994           0
     77787 TIP3     22624    TIP3     H1       HT       0.417000       1.00800           0
     77788 TIP3     22624    TIP3     H2       HT       0.417000       1.00800           0
     77789 TIP3     22625    TIP3     OH2      OT      -0.834000       15.9994           0
     77790 TIP3     22625    TIP3     H1       HT       0.417000       1.00800           0
     77791 TIP3     22625    TIP3     H2       HT       0.417000       1.00800           0
     77792 TIP3     22626    TIP3     OH2      OT      -0.834000       15.9994           0
     77793 TIP3     22626    TIP3     H1       HT       0.417000       1.00800           0
     77794 TIP3     22626    TIP3     H2       HT       0.417000       1.00800           0
     77795 TIP3     22627    TIP3     OH2      OT      -0.834000       15.9994           0
     77796 TIP3     22627    TIP3     H1       HT       0.417000       1.00800           0
     77797 TIP3     22627    TIP3     H2       HT       0.417000       1.00800           0
     77798 TIP3     22628    TIP3     OH2      OT      -0.834000       15.9994           0
     77799 TIP3     22628    TIP3     H1       HT       0.417000       1.00800           0
     77800 TIP3     22628    TIP3     H2       HT       0.417000       1.00800           0
     77801 TIP3     22629    TIP3     OH2      OT      -0.834000       15.9994           0
     77802 TIP3     22629    TIP3     H1       HT       0.417000       1.00800           0
     77803 TIP3     22629    TIP3     H2       HT       0.417000       1.00800           0
     77804 TIP3     22630    TIP3     OH2      OT      -0.834000       15.9994           0
     77805 TIP3     22630    TIP3     H1       HT       0.417000       1.00800           0
     77806 TIP3     22630    TIP3     H2       HT       0.417000       1.00800           0
     77807 TIP3     22631    TIP3     OH2      OT      -0.834000       15.9994           0
     77808 TIP3     22631    TIP3     H1       HT       0.417000       1.00800           0
     77809 TIP3     22631    TIP3     H2       HT       0.417000       1.00800           0
     77810 TIP3     22632    TIP3     OH2      OT      -0.834000       15.9994           0
     77811 TIP3     22632    TIP3     H1       HT       0.417000       1.00800           0
     77812 TIP3     22632    TIP3     H2       HT       0.417000       1.00800           0
     77813 TIP3     22633    TIP3     OH2      OT      -0.834000       15.9994           0
     77814 TIP3     22633    TIP3     H1       HT       0.417000       1.00800           0
     77815 TIP3     22633    TIP3     H2       HT       0.417000       1.00800           0
     77816 TIP3     22634    TIP3     OH2      OT      -0.834000       15.9994           0
     77817 TIP3     22634    TIP3     H1       HT       0.417000       1.00800           0
     77818 TIP3     22634    TIP3     H2       HT       0.417000       1.00800           0
     77819 TIP3     22635    TIP3     OH2      OT      -0.834000       15.9994           0
     77820 TIP3     22635    TIP3     H1       HT       0.417000       1.00800           0
     77821 TIP3     22635    TIP3     H2       HT       0.417000       1.00800           0
     77822 TIP3     22636    TIP3     OH2      OT      -0.834000       15.9994           0
     77823 TIP3     22636    TIP3     H1       HT       0.417000       1.00800           0
     77824 TIP3     22636    TIP3     H2       HT       0.417000       1.00800           0
     77825 TIP3     22637    TIP3     OH2      OT      -0.834000       15.9994           0
     77826 TIP3     22637    TIP3     H1       HT       0.417000       1.00800           0
     77827 TIP3     22637    TIP3     H2       HT       0.417000       1.00800           0
     77828 TIP3     22638    TIP3     OH2      OT      -0.834000       15.9994           0
     77829 TIP3     22638    TIP3     H1       HT       0.417000       1.00800           0
     77830 TIP3     22638    TIP3     H2       HT       0.417000       1.00800           0
     77831 TIP3     22639    TIP3     OH2      OT      -0.834000       15.9994           0
     77832 TIP3     22639    TIP3     H1       HT       0.417000       1.00800           0
     77833 TIP3     22639    TIP3     H2       HT       0.417000       1.00800           0
     77834 TIP3     22640    TIP3     OH2      OT      -0.834000       15.9994           0
     77835 TIP3     22640    TIP3     H1       HT       0.417000       1.00800           0
     77836 TIP3     22640    TIP3     H2       HT       0.417000       1.00800           0
     77837 TIP3     22641    TIP3     OH2      OT      -0.834000       15.9994           0
     77838 TIP3     22641    TIP3     H1       HT       0.417000       1.00800           0
     77839 TIP3     22641    TIP3     H2       HT       0.417000       1.00800           0
     77840 TIP3     22642    TIP3     OH2      OT      -0.834000       15.9994           0
     77841 TIP3     22642    TIP3     H1       HT       0.417000       1.00800           0
     77842 TIP3     22642    TIP3     H2       HT       0.417000       1.00800           0
     77843 TIP3     22643    TIP3     OH2      OT      -0.834000       15.9994           0
     77844 TIP3     22643    TIP3     H1       HT       0.417000       1.00800           0
     77845 TIP3     22643    TIP3     H2       HT       0.417000       1.00800           0
     77846 TIP3     22644    TIP3     OH2      OT      -0.834000       15.9994           0
     77847 TIP3     22644    TIP3     H1       HT       0.417000       1.00800           0
     77848 TIP3     22644    TIP3     H2       HT       0.417000       1.00800           0
     77849 TIP3     22645    TIP3     OH2      OT      -0.834000       15.9994           0
     77850 TIP3     22645    TIP3     H1       HT       0.417000       1.00800           0
     77851 TIP3     22645    TIP3     H2       HT       0.417000       1.00800           0
     77852 TIP3     22646    TIP3     OH2      OT      -0.834000       15.9994           0
     77853 TIP3     22646    TIP3     H1       HT       0.417000       1.00800           0
     77854 TIP3     22646    TIP3     H2       HT       0.417000       1.00800           0
     77855 TIP3     22647    TIP3     OH2      OT      -0.834000       15.9994           0
     77856 TIP3     22647    TIP3     H1       HT       0.417000       1.00800           0
     77857 TIP3     22647    TIP3     H2       HT       0.417000       1.00800           0
     77858 TIP3     22648    TIP3     OH2      OT      -0.834000       15.9994           0
     77859 TIP3     22648    TIP3     H1       HT       0.417000       1.00800           0
     77860 TIP3     22648    TIP3     H2       HT       0.417000       1.00800           0
     77861 TIP3     22649    TIP3     OH2      OT      -0.834000       15.9994           0
     77862 TIP3     22649    TIP3     H1       HT       0.417000       1.00800           0
     77863 TIP3     22649    TIP3     H2       HT       0.417000       1.00800           0
     77864 TIP3     22650    TIP3     OH2      OT      -0.834000       15.9994           0
     77865 TIP3     22650    TIP3     H1       HT       0.417000       1.00800           0
     77866 TIP3     22650    TIP3     H2       HT       0.417000       1.00800           0
     77867 TIP3     22651    TIP3     OH2      OT      -0.834000       15.9994           0
     77868 TIP3     22651    TIP3     H1       HT       0.417000       1.00800           0
     77869 TIP3     22651    TIP3     H2       HT       0.417000       1.00800           0
     77870 TIP3     22652    TIP3     OH2      OT      -0.834000       15.9994           0
     77871 TIP3     22652    TIP3     H1       HT       0.417000       1.00800           0
     77872 TIP3     22652    TIP3     H2       HT       0.417000       1.00800           0
     77873 TIP3     22653    TIP3     OH2      OT      -0.834000       15.9994           0
     77874 TIP3     22653    TIP3     H1       HT       0.417000       1.00800           0
     77875 TIP3     22653    TIP3     H2       HT       0.417000       1.00800           0
     77876 TIP3     22654    TIP3     OH2      OT      -0.834000       15.9994           0
     77877 TIP3     22654    TIP3     H1       HT       0.417000       1.00800           0
     77878 TIP3     22654    TIP3     H2       HT       0.417000       1.00800           0
     77879 TIP3     22655    TIP3     OH2      OT      -0.834000       15.9994           0
     77880 TIP3     22655    TIP3     H1       HT       0.417000       1.00800           0
     77881 TIP3     22655    TIP3     H2       HT       0.417000       1.00800           0
     77882 TIP3     22656    TIP3     OH2      OT      -0.834000       15.9994           0
     77883 TIP3     22656    TIP3     H1       HT       0.417000       1.00800           0
     77884 TIP3     22656    TIP3     H2       HT       0.417000       1.00800           0
     77885 TIP3     22657    TIP3     OH2      OT      -0.834000       15.9994           0
     77886 TIP3     22657    TIP3     H1       HT       0.417000       1.00800           0
     77887 TIP3     22657    TIP3     H2       HT       0.417000       1.00800           0
     77888 TIP3     22658    TIP3     OH2      OT      -0.834000       15.9994           0
     77889 TIP3     22658    TIP3     H1       HT       0.417000       1.00800           0
     77890 TIP3     22658    TIP3     H2       HT       0.417000       1.00800           0
     77891 TIP3     22659    TIP3     OH2      OT      -0.834000       15.9994           0
     77892 TIP3     22659    TIP3     H1       HT       0.417000       1.00800           0
     77893 TIP3     22659    TIP3     H2       HT       0.417000       1.00800           0
     77894 TIP3     22660    TIP3     OH2      OT      -0.834000       15.9994           0
     77895 TIP3     22660    TIP3     H1       HT       0.417000       1.00800           0
     77896 TIP3     22660    TIP3     H2       HT       0.417000       1.00800           0
     77897 TIP3     22661    TIP3     OH2      OT      -0.834000       15.9994           0
     77898 TIP3     22661    TIP3     H1       HT       0.417000       1.00800           0
     77899 TIP3     22661    TIP3     H2       HT       0.417000       1.00800           0
     77900 TIP3     22662    TIP3     OH2      OT      -0.834000       15.9994           0
     77901 TIP3     22662    TIP3     H1       HT       0.417000       1.00800           0
     77902 TIP3     22662    TIP3     H2       HT       0.417000       1.00800           0
     77903 TIP3     22663    TIP3     OH2      OT      -0.834000       15.9994           0
     77904 TIP3     22663    TIP3     H1       HT       0.417000       1.00800           0
     77905 TIP3     22663    TIP3     H2       HT       0.417000       1.00800           0
     77906 TIP3     22664    TIP3     OH2      OT      -0.834000       15.9994           0
     77907 TIP3     22664    TIP3     H1       HT       0.417000       1.00800           0
     77908 TIP3     22664    TIP3     H2       HT       0.417000       1.00800           0
     77909 TIP3     22665    TIP3     OH2      OT      -0.834000       15.9994           0
     77910 TIP3     22665    TIP3     H1       HT       0.417000       1.00800           0
     77911 TIP3     22665    TIP3     H2       HT       0.417000       1.00800           0
     77912 TIP3     22666    TIP3     OH2      OT      -0.834000       15.9994           0
     77913 TIP3     22666    TIP3     H1       HT       0.417000       1.00800           0
     77914 TIP3     22666    TIP3     H2       HT       0.417000       1.00800           0
     77915 TIP3     22667    TIP3     OH2      OT      -0.834000       15.9994           0
     77916 TIP3     22667    TIP3     H1       HT       0.417000       1.00800           0
     77917 TIP3     22667    TIP3     H2       HT       0.417000       1.00800           0
     77918 TIP3     22668    TIP3     OH2      OT      -0.834000       15.9994           0
     77919 TIP3     22668    TIP3     H1       HT       0.417000       1.00800           0
     77920 TIP3     22668    TIP3     H2       HT       0.417000       1.00800           0
     77921 TIP3     22669    TIP3     OH2      OT      -0.834000       15.9994           0
     77922 TIP3     22669    TIP3     H1       HT       0.417000       1.00800           0
     77923 TIP3     22669    TIP3     H2       HT       0.417000       1.00800           0
     77924 TIP3     22670    TIP3     OH2      OT      -0.834000       15.9994           0
     77925 TIP3     22670    TIP3     H1       HT       0.417000       1.00800           0
     77926 TIP3     22670    TIP3     H2       HT       0.417000       1.00800           0
     77927 TIP3     22671    TIP3     OH2      OT      -0.834000       15.9994           0
     77928 TIP3     22671    TIP3     H1       HT       0.417000       1.00800           0
     77929 TIP3     22671    TIP3     H2       HT       0.417000       1.00800           0
     77930 TIP3     22672    TIP3     OH2      OT      -0.834000       15.9994           0
     77931 TIP3     22672    TIP3     H1       HT       0.417000       1.00800           0
     77932 TIP3     22672    TIP3     H2       HT       0.417000       1.00800           0
     77933 TIP3     22673    TIP3     OH2      OT      -0.834000       15.9994           0
     77934 TIP3     22673    TIP3     H1       HT       0.417000       1.00800           0
     77935 TIP3     22673    TIP3     H2       HT       0.417000       1.00800           0
     77936 TIP3     22674    TIP3     OH2      OT      -0.834000       15.9994           0
     77937 TIP3     22674    TIP3     H1       HT       0.417000       1.00800           0
     77938 TIP3     22674    TIP3     H2       HT       0.417000       1.00800           0
     77939 TIP3     22675    TIP3     OH2      OT      -0.834000       15.9994           0
     77940 TIP3     22675    TIP3     H1       HT       0.417000       1.00800           0
     77941 TIP3     22675    TIP3     H2       HT       0.417000       1.00800           0
     77942 TIP3     22676    TIP3     OH2      OT      -0.834000       15.9994           0
     77943 TIP3     22676    TIP3     H1       HT       0.417000       1.00800           0
     77944 TIP3     22676    TIP3     H2       HT       0.417000       1.00800           0
     77945 TIP3     22677    TIP3     OH2      OT      -0.834000       15.9994           0
     77946 TIP3     22677    TIP3     H1       HT       0.417000       1.00800           0
     77947 TIP3     22677    TIP3     H2       HT       0.417000       1.00800           0
     77948 TIP3     22678    TIP3     OH2      OT      -0.834000       15.9994           0
     77949 TIP3     22678    TIP3     H1       HT       0.417000       1.00800           0
     77950 TIP3     22678    TIP3     H2       HT       0.417000       1.00800           0
     77951 TIP3     22679    TIP3     OH2      OT      -0.834000       15.9994           0
     77952 TIP3     22679    TIP3     H1       HT       0.417000       1.00800           0
     77953 TIP3     22679    TIP3     H2       HT       0.417000       1.00800           0
     77954 TIP3     22680    TIP3     OH2      OT      -0.834000       15.9994           0
     77955 TIP3     22680    TIP3     H1       HT       0.417000       1.00800           0
     77956 TIP3     22680    TIP3     H2       HT       0.417000       1.00800           0
     77957 TIP3     22681    TIP3     OH2      OT      -0.834000       15.9994           0
     77958 TIP3     22681    TIP3     H1       HT       0.417000       1.00800           0
     77959 TIP3     22681    TIP3     H2       HT       0.417000       1.00800           0
     77960 TIP3     22682    TIP3     OH2      OT      -0.834000       15.9994           0
     77961 TIP3     22682    TIP3     H1       HT       0.417000       1.00800           0
     77962 TIP3     22682    TIP3     H2       HT       0.417000       1.00800           0
     77963 TIP3     22683    TIP3     OH2      OT      -0.834000       15.9994           0
     77964 TIP3     22683    TIP3     H1       HT       0.417000       1.00800           0
     77965 TIP3     22683    TIP3     H2       HT       0.417000       1.00800           0
     77966 TIP3     22684    TIP3     OH2      OT      -0.834000       15.9994           0
     77967 TIP3     22684    TIP3     H1       HT       0.417000       1.00800           0
     77968 TIP3     22684    TIP3     H2       HT       0.417000       1.00800           0
     77969 TIP3     22685    TIP3     OH2      OT      -0.834000       15.9994           0
     77970 TIP3     22685    TIP3     H1       HT       0.417000       1.00800           0
     77971 TIP3     22685    TIP3     H2       HT       0.417000       1.00800           0
     77972 TIP3     22686    TIP3     OH2      OT      -0.834000       15.9994           0
     77973 TIP3     22686    TIP3     H1       HT       0.417000       1.00800           0
     77974 TIP3     22686    TIP3     H2       HT       0.417000       1.00800           0
     77975 TIP3     22687    TIP3     OH2      OT      -0.834000       15.9994           0
     77976 TIP3     22687    TIP3     H1       HT       0.417000       1.00800           0
     77977 TIP3     22687    TIP3     H2       HT       0.417000       1.00800           0
     77978 TIP3     22688    TIP3     OH2      OT      -0.834000       15.9994           0
     77979 TIP3     22688    TIP3     H1       HT       0.417000       1.00800           0
     77980 TIP3     22688    TIP3     H2       HT       0.417000       1.00800           0
     77981 TIP3     22689    TIP3     OH2      OT      -0.834000       15.9994           0
     77982 TIP3     22689    TIP3     H1       HT       0.417000       1.00800           0
     77983 TIP3     22689    TIP3     H2       HT       0.417000       1.00800           0
     77984 TIP3     22690    TIP3     OH2      OT      -0.834000       15.9994           0
     77985 TIP3     22690    TIP3     H1       HT       0.417000       1.00800           0
     77986 TIP3     22690    TIP3     H2       HT       0.417000       1.00800           0
     77987 TIP3     22691    TIP3     OH2      OT      -0.834000       15.9994           0
     77988 TIP3     22691    TIP3     H1       HT       0.417000       1.00800           0
     77989 TIP3     22691    TIP3     H2       HT       0.417000       1.00800           0
     77990 TIP3     22692    TIP3     OH2      OT      -0.834000       15.9994           0
     77991 TIP3     22692    TIP3     H1       HT       0.417000       1.00800           0
     77992 TIP3     22692    TIP3     H2       HT       0.417000       1.00800           0
     77993 TIP3     22693    TIP3     OH2      OT      -0.834000       15.9994           0
     77994 TIP3     22693    TIP3     H1       HT       0.417000       1.00800           0
     77995 TIP3     22693    TIP3     H2       HT       0.417000       1.00800           0
     77996 TIP3     22694    TIP3     OH2      OT      -0.834000       15.9994           0
     77997 TIP3     22694    TIP3     H1       HT       0.417000       1.00800           0
     77998 TIP3     22694    TIP3     H2       HT       0.417000       1.00800           0
     77999 TIP3     22695    TIP3     OH2      OT      -0.834000       15.9994           0
     78000 TIP3     22695    TIP3     H1       HT       0.417000       1.00800           0
     78001 TIP3     22695    TIP3     H2       HT       0.417000       1.00800           0
     78002 TIP3     22696    TIP3     OH2      OT      -0.834000       15.9994           0
     78003 TIP3     22696    TIP3     H1       HT       0.417000       1.00800           0
     78004 TIP3     22696    TIP3     H2       HT       0.417000       1.00800           0
     78005 TIP3     22697    TIP3     OH2      OT      -0.834000       15.9994           0
     78006 TIP3     22697    TIP3     H1       HT       0.417000       1.00800           0
     78007 TIP3     22697    TIP3     H2       HT       0.417000       1.00800           0
     78008 TIP3     22698    TIP3     OH2      OT      -0.834000       15.9994           0
     78009 TIP3     22698    TIP3     H1       HT       0.417000       1.00800           0
     78010 TIP3     22698    TIP3     H2       HT       0.417000       1.00800           0
     78011 TIP3     22699    TIP3     OH2      OT      -0.834000       15.9994           0
     78012 TIP3     22699    TIP3     H1       HT       0.417000       1.00800           0
     78013 TIP3     22699    TIP3     H2       HT       0.417000       1.00800           0
     78014 TIP3     22700    TIP3     OH2      OT      -0.834000       15.9994           0
     78015 TIP3     22700    TIP3     H1       HT       0.417000       1.00800           0
     78016 TIP3     22700    TIP3     H2       HT       0.417000       1.00800           0
     78017 TIP3     22701    TIP3     OH2      OT      -0.834000       15.9994           0
     78018 TIP3     22701    TIP3     H1       HT       0.417000       1.00800           0
     78019 TIP3     22701    TIP3     H2       HT       0.417000       1.00800           0
     78020 TIP3     22702    TIP3     OH2      OT      -0.834000       15.9994           0
     78021 TIP3     22702    TIP3     H1       HT       0.417000       1.00800           0
     78022 TIP3     22702    TIP3     H2       HT       0.417000       1.00800           0
     78023 TIP3     22703    TIP3     OH2      OT      -0.834000       15.9994           0
     78024 TIP3     22703    TIP3     H1       HT       0.417000       1.00800           0
     78025 TIP3     22703    TIP3     H2       HT       0.417000       1.00800           0
     78026 TIP3     22704    TIP3     OH2      OT      -0.834000       15.9994           0
     78027 TIP3     22704    TIP3     H1       HT       0.417000       1.00800           0
     78028 TIP3     22704    TIP3     H2       HT       0.417000       1.00800           0
     78029 TIP3     22705    TIP3     OH2      OT      -0.834000       15.9994           0
     78030 TIP3     22705    TIP3     H1       HT       0.417000       1.00800           0
     78031 TIP3     22705    TIP3     H2       HT       0.417000       1.00800           0
     78032 TIP3     22706    TIP3     OH2      OT      -0.834000       15.9994           0
     78033 TIP3     22706    TIP3     H1       HT       0.417000       1.00800           0
     78034 TIP3     22706    TIP3     H2       HT       0.417000       1.00800           0
     78035 TIP3     22707    TIP3     OH2      OT      -0.834000       15.9994           0
     78036 TIP3     22707    TIP3     H1       HT       0.417000       1.00800           0
     78037 TIP3     22707    TIP3     H2       HT       0.417000       1.00800           0
     78038 TIP3     22708    TIP3     OH2      OT      -0.834000       15.9994           0
     78039 TIP3     22708    TIP3     H1       HT       0.417000       1.00800           0
     78040 TIP3     22708    TIP3     H2       HT       0.417000       1.00800           0
     78041 TIP3     22709    TIP3     OH2      OT      -0.834000       15.9994           0
     78042 TIP3     22709    TIP3     H1       HT       0.417000       1.00800           0
     78043 TIP3     22709    TIP3     H2       HT       0.417000       1.00800           0
     78044 TIP3     22710    TIP3     OH2      OT      -0.834000       15.9994           0
     78045 TIP3     22710    TIP3     H1       HT       0.417000       1.00800           0
     78046 TIP3     22710    TIP3     H2       HT       0.417000       1.00800           0
     78047 TIP3     22711    TIP3     OH2      OT      -0.834000       15.9994           0
     78048 TIP3     22711    TIP3     H1       HT       0.417000       1.00800           0
     78049 TIP3     22711    TIP3     H2       HT       0.417000       1.00800           0
     78050 TIP3     22712    TIP3     OH2      OT      -0.834000       15.9994           0
     78051 TIP3     22712    TIP3     H1       HT       0.417000       1.00800           0
     78052 TIP3     22712    TIP3     H2       HT       0.417000       1.00800           0
     78053 TIP3     22713    TIP3     OH2      OT      -0.834000       15.9994           0
     78054 TIP3     22713    TIP3     H1       HT       0.417000       1.00800           0
     78055 TIP3     22713    TIP3     H2       HT       0.417000       1.00800           0
     78056 TIP3     22714    TIP3     OH2      OT      -0.834000       15.9994           0
     78057 TIP3     22714    TIP3     H1       HT       0.417000       1.00800           0
     78058 TIP3     22714    TIP3     H2       HT       0.417000       1.00800           0
     78059 TIP3     22715    TIP3     OH2      OT      -0.834000       15.9994           0
     78060 TIP3     22715    TIP3     H1       HT       0.417000       1.00800           0
     78061 TIP3     22715    TIP3     H2       HT       0.417000       1.00800           0
     78062 TIP3     22716    TIP3     OH2      OT      -0.834000       15.9994           0
     78063 TIP3     22716    TIP3     H1       HT       0.417000       1.00800           0
     78064 TIP3     22716    TIP3     H2       HT       0.417000       1.00800           0
     78065 TIP3     22717    TIP3     OH2      OT      -0.834000       15.9994           0
     78066 TIP3     22717    TIP3     H1       HT       0.417000       1.00800           0
     78067 TIP3     22717    TIP3     H2       HT       0.417000       1.00800           0
     78068 TIP3     22718    TIP3     OH2      OT      -0.834000       15.9994           0
     78069 TIP3     22718    TIP3     H1       HT       0.417000       1.00800           0
     78070 TIP3     22718    TIP3     H2       HT       0.417000       1.00800           0
     78071 TIP3     22719    TIP3     OH2      OT      -0.834000       15.9994           0
     78072 TIP3     22719    TIP3     H1       HT       0.417000       1.00800           0
     78073 TIP3     22719    TIP3     H2       HT       0.417000       1.00800           0
     78074 TIP3     22720    TIP3     OH2      OT      -0.834000       15.9994           0
     78075 TIP3     22720    TIP3     H1       HT       0.417000       1.00800           0
     78076 TIP3     22720    TIP3     H2       HT       0.417000       1.00800           0
     78077 TIP3     22721    TIP3     OH2      OT      -0.834000       15.9994           0
     78078 TIP3     22721    TIP3     H1       HT       0.417000       1.00800           0
     78079 TIP3     22721    TIP3     H2       HT       0.417000       1.00800           0
     78080 TIP3     22722    TIP3     OH2      OT      -0.834000       15.9994           0
     78081 TIP3     22722    TIP3     H1       HT       0.417000       1.00800           0
     78082 TIP3     22722    TIP3     H2       HT       0.417000       1.00800           0
     78083 TIP3     22723    TIP3     OH2      OT      -0.834000       15.9994           0
     78084 TIP3     22723    TIP3     H1       HT       0.417000       1.00800           0
     78085 TIP3     22723    TIP3     H2       HT       0.417000       1.00800           0
     78086 TIP3     22724    TIP3     OH2      OT      -0.834000       15.9994           0
     78087 TIP3     22724    TIP3     H1       HT       0.417000       1.00800           0
     78088 TIP3     22724    TIP3     H2       HT       0.417000       1.00800           0
     78089 TIP3     22725    TIP3     OH2      OT      -0.834000       15.9994           0
     78090 TIP3     22725    TIP3     H1       HT       0.417000       1.00800           0
     78091 TIP3     22725    TIP3     H2       HT       0.417000       1.00800           0
     78092 TIP3     22726    TIP3     OH2      OT      -0.834000       15.9994           0
     78093 TIP3     22726    TIP3     H1       HT       0.417000       1.00800           0
     78094 TIP3     22726    TIP3     H2       HT       0.417000       1.00800           0
     78095 TIP3     22727    TIP3     OH2      OT      -0.834000       15.9994           0
     78096 TIP3     22727    TIP3     H1       HT       0.417000       1.00800           0
     78097 TIP3     22727    TIP3     H2       HT       0.417000       1.00800           0
     78098 TIP3     22728    TIP3     OH2      OT      -0.834000       15.9994           0
     78099 TIP3     22728    TIP3     H1       HT       0.417000       1.00800           0
     78100 TIP3     22728    TIP3     H2       HT       0.417000       1.00800           0
     78101 TIP3     22729    TIP3     OH2      OT      -0.834000       15.9994           0
     78102 TIP3     22729    TIP3     H1       HT       0.417000       1.00800           0
     78103 TIP3     22729    TIP3     H2       HT       0.417000       1.00800           0
     78104 TIP3     22730    TIP3     OH2      OT      -0.834000       15.9994           0
     78105 TIP3     22730    TIP3     H1       HT       0.417000       1.00800           0
     78106 TIP3     22730    TIP3     H2       HT       0.417000       1.00800           0
     78107 TIP3     22731    TIP3     OH2      OT      -0.834000       15.9994           0
     78108 TIP3     22731    TIP3     H1       HT       0.417000       1.00800           0
     78109 TIP3     22731    TIP3     H2       HT       0.417000       1.00800           0
     78110 TIP3     22732    TIP3     OH2      OT      -0.834000       15.9994           0
     78111 TIP3     22732    TIP3     H1       HT       0.417000       1.00800           0
     78112 TIP3     22732    TIP3     H2       HT       0.417000       1.00800           0
     78113 TIP3     22733    TIP3     OH2      OT      -0.834000       15.9994           0
     78114 TIP3     22733    TIP3     H1       HT       0.417000       1.00800           0
     78115 TIP3     22733    TIP3     H2       HT       0.417000       1.00800           0
     78116 TIP3     22734    TIP3     OH2      OT      -0.834000       15.9994           0
     78117 TIP3     22734    TIP3     H1       HT       0.417000       1.00800           0
     78118 TIP3     22734    TIP3     H2       HT       0.417000       1.00800           0
     78119 TIP3     22735    TIP3     OH2      OT      -0.834000       15.9994           0
     78120 TIP3     22735    TIP3     H1       HT       0.417000       1.00800           0
     78121 TIP3     22735    TIP3     H2       HT       0.417000       1.00800           0
     78122 TIP3     22736    TIP3     OH2      OT      -0.834000       15.9994           0
     78123 TIP3     22736    TIP3     H1       HT       0.417000       1.00800           0
     78124 TIP3     22736    TIP3     H2       HT       0.417000       1.00800           0
     78125 TIP3     22737    TIP3     OH2      OT      -0.834000       15.9994           0
     78126 TIP3     22737    TIP3     H1       HT       0.417000       1.00800           0
     78127 TIP3     22737    TIP3     H2       HT       0.417000       1.00800           0
     78128 TIP3     22738    TIP3     OH2      OT      -0.834000       15.9994           0
     78129 TIP3     22738    TIP3     H1       HT       0.417000       1.00800           0
     78130 TIP3     22738    TIP3     H2       HT       0.417000       1.00800           0
     78131 TIP3     22739    TIP3     OH2      OT      -0.834000       15.9994           0
     78132 TIP3     22739    TIP3     H1       HT       0.417000       1.00800           0
     78133 TIP3     22739    TIP3     H2       HT       0.417000       1.00800           0
     78134 TIP3     22740    TIP3     OH2      OT      -0.834000       15.9994           0
     78135 TIP3     22740    TIP3     H1       HT       0.417000       1.00800           0
     78136 TIP3     22740    TIP3     H2       HT       0.417000       1.00800           0
     78137 TIP3     22741    TIP3     OH2      OT      -0.834000       15.9994           0
     78138 TIP3     22741    TIP3     H1       HT       0.417000       1.00800           0
     78139 TIP3     22741    TIP3     H2       HT       0.417000       1.00800           0
     78140 TIP3     22742    TIP3     OH2      OT      -0.834000       15.9994           0
     78141 TIP3     22742    TIP3     H1       HT       0.417000       1.00800           0
     78142 TIP3     22742    TIP3     H2       HT       0.417000       1.00800           0
     78143 TIP3     22743    TIP3     OH2      OT      -0.834000       15.9994           0
     78144 TIP3     22743    TIP3     H1       HT       0.417000       1.00800           0
     78145 TIP3     22743    TIP3     H2       HT       0.417000       1.00800           0
     78146 TIP3     22744    TIP3     OH2      OT      -0.834000       15.9994           0
     78147 TIP3     22744    TIP3     H1       HT       0.417000       1.00800           0
     78148 TIP3     22744    TIP3     H2       HT       0.417000       1.00800           0
     78149 TIP3     22745    TIP3     OH2      OT      -0.834000       15.9994           0
     78150 TIP3     22745    TIP3     H1       HT       0.417000       1.00800           0
     78151 TIP3     22745    TIP3     H2       HT       0.417000       1.00800           0
     78152 TIP3     22746    TIP3     OH2      OT      -0.834000       15.9994           0
     78153 TIP3     22746    TIP3     H1       HT       0.417000       1.00800           0
     78154 TIP3     22746    TIP3     H2       HT       0.417000       1.00800           0
     78155 TIP3     22747    TIP3     OH2      OT      -0.834000       15.9994           0
     78156 TIP3     22747    TIP3     H1       HT       0.417000       1.00800           0
     78157 TIP3     22747    TIP3     H2       HT       0.417000       1.00800           0
     78158 TIP3     22748    TIP3     OH2      OT      -0.834000       15.9994           0
     78159 TIP3     22748    TIP3     H1       HT       0.417000       1.00800           0
     78160 TIP3     22748    TIP3     H2       HT       0.417000       1.00800           0
     78161 TIP3     22749    TIP3     OH2      OT      -0.834000       15.9994           0
     78162 TIP3     22749    TIP3     H1       HT       0.417000       1.00800           0
     78163 TIP3     22749    TIP3     H2       HT       0.417000       1.00800           0
     78164 TIP3     22750    TIP3     OH2      OT      -0.834000       15.9994           0
     78165 TIP3     22750    TIP3     H1       HT       0.417000       1.00800           0
     78166 TIP3     22750    TIP3     H2       HT       0.417000       1.00800           0
     78167 TIP3     22751    TIP3     OH2      OT      -0.834000       15.9994           0
     78168 TIP3     22751    TIP3     H1       HT       0.417000       1.00800           0
     78169 TIP3     22751    TIP3     H2       HT       0.417000       1.00800           0
     78170 TIP3     22752    TIP3     OH2      OT      -0.834000       15.9994           0
     78171 TIP3     22752    TIP3     H1       HT       0.417000       1.00800           0
     78172 TIP3     22752    TIP3     H2       HT       0.417000       1.00800           0
     78173 TIP3     22753    TIP3     OH2      OT      -0.834000       15.9994           0
     78174 TIP3     22753    TIP3     H1       HT       0.417000       1.00800           0
     78175 TIP3     22753    TIP3     H2       HT       0.417000       1.00800           0
     78176 TIP3     22754    TIP3     OH2      OT      -0.834000       15.9994           0
     78177 TIP3     22754    TIP3     H1       HT       0.417000       1.00800           0
     78178 TIP3     22754    TIP3     H2       HT       0.417000       1.00800           0
     78179 TIP3     22755    TIP3     OH2      OT      -0.834000       15.9994           0
     78180 TIP3     22755    TIP3     H1       HT       0.417000       1.00800           0
     78181 TIP3     22755    TIP3     H2       HT       0.417000       1.00800           0
     78182 TIP3     22756    TIP3     OH2      OT      -0.834000       15.9994           0
     78183 TIP3     22756    TIP3     H1       HT       0.417000       1.00800           0
     78184 TIP3     22756    TIP3     H2       HT       0.417000       1.00800           0
     78185 TIP3     22757    TIP3     OH2      OT      -0.834000       15.9994           0
     78186 TIP3     22757    TIP3     H1       HT       0.417000       1.00800           0
     78187 TIP3     22757    TIP3     H2       HT       0.417000       1.00800           0
     78188 TIP3     22758    TIP3     OH2      OT      -0.834000       15.9994           0
     78189 TIP3     22758    TIP3     H1       HT       0.417000       1.00800           0
     78190 TIP3     22758    TIP3     H2       HT       0.417000       1.00800           0
     78191 TIP3     22759    TIP3     OH2      OT      -0.834000       15.9994           0
     78192 TIP3     22759    TIP3     H1       HT       0.417000       1.00800           0
     78193 TIP3     22759    TIP3     H2       HT       0.417000       1.00800           0
     78194 TIP3     22760    TIP3     OH2      OT      -0.834000       15.9994           0
     78195 TIP3     22760    TIP3     H1       HT       0.417000       1.00800           0
     78196 TIP3     22760    TIP3     H2       HT       0.417000       1.00800           0
     78197 TIP3     22761    TIP3     OH2      OT      -0.834000       15.9994           0
     78198 TIP3     22761    TIP3     H1       HT       0.417000       1.00800           0
     78199 TIP3     22761    TIP3     H2       HT       0.417000       1.00800           0
     78200 TIP3     22762    TIP3     OH2      OT      -0.834000       15.9994           0
     78201 TIP3     22762    TIP3     H1       HT       0.417000       1.00800           0
     78202 TIP3     22762    TIP3     H2       HT       0.417000       1.00800           0
     78203 TIP3     22763    TIP3     OH2      OT      -0.834000       15.9994           0
     78204 TIP3     22763    TIP3     H1       HT       0.417000       1.00800           0
     78205 TIP3     22763    TIP3     H2       HT       0.417000       1.00800           0
     78206 TIP3     22764    TIP3     OH2      OT      -0.834000       15.9994           0
     78207 TIP3     22764    TIP3     H1       HT       0.417000       1.00800           0
     78208 TIP3     22764    TIP3     H2       HT       0.417000       1.00800           0
     78209 TIP3     22765    TIP3     OH2      OT      -0.834000       15.9994           0
     78210 TIP3     22765    TIP3     H1       HT       0.417000       1.00800           0
     78211 TIP3     22765    TIP3     H2       HT       0.417000       1.00800           0
     78212 TIP3     22766    TIP3     OH2      OT      -0.834000       15.9994           0
     78213 TIP3     22766    TIP3     H1       HT       0.417000       1.00800           0
     78214 TIP3     22766    TIP3     H2       HT       0.417000       1.00800           0
     78215 TIP3     22767    TIP3     OH2      OT      -0.834000       15.9994           0
     78216 TIP3     22767    TIP3     H1       HT       0.417000       1.00800           0
     78217 TIP3     22767    TIP3     H2       HT       0.417000       1.00800           0
     78218 TIP3     22768    TIP3     OH2      OT      -0.834000       15.9994           0
     78219 TIP3     22768    TIP3     H1       HT       0.417000       1.00800           0
     78220 TIP3     22768    TIP3     H2       HT       0.417000       1.00800           0
     78221 TIP3     22769    TIP3     OH2      OT      -0.834000       15.9994           0
     78222 TIP3     22769    TIP3     H1       HT       0.417000       1.00800           0
     78223 TIP3     22769    TIP3     H2       HT       0.417000       1.00800           0
     78224 TIP3     22770    TIP3     OH2      OT      -0.834000       15.9994           0
     78225 TIP3     22770    TIP3     H1       HT       0.417000       1.00800           0
     78226 TIP3     22770    TIP3     H2       HT       0.417000       1.00800           0
     78227 TIP3     22771    TIP3     OH2      OT      -0.834000       15.9994           0
     78228 TIP3     22771    TIP3     H1       HT       0.417000       1.00800           0
     78229 TIP3     22771    TIP3     H2       HT       0.417000       1.00800           0
     78230 TIP3     22772    TIP3     OH2      OT      -0.834000       15.9994           0
     78231 TIP3     22772    TIP3     H1       HT       0.417000       1.00800           0
     78232 TIP3     22772    TIP3     H2       HT       0.417000       1.00800           0
     78233 TIP3     22773    TIP3     OH2      OT      -0.834000       15.9994           0
     78234 TIP3     22773    TIP3     H1       HT       0.417000       1.00800           0
     78235 TIP3     22773    TIP3     H2       HT       0.417000       1.00800           0
     78236 TIP3     22774    TIP3     OH2      OT      -0.834000       15.9994           0
     78237 TIP3     22774    TIP3     H1       HT       0.417000       1.00800           0
     78238 TIP3     22774    TIP3     H2       HT       0.417000       1.00800           0
     78239 TIP3     22775    TIP3     OH2      OT      -0.834000       15.9994           0
     78240 TIP3     22775    TIP3     H1       HT       0.417000       1.00800           0
     78241 TIP3     22775    TIP3     H2       HT       0.417000       1.00800           0
     78242 TIP3     22776    TIP3     OH2      OT      -0.834000       15.9994           0
     78243 TIP3     22776    TIP3     H1       HT       0.417000       1.00800           0
     78244 TIP3     22776    TIP3     H2       HT       0.417000       1.00800           0
     78245 TIP3     22777    TIP3     OH2      OT      -0.834000       15.9994           0
     78246 TIP3     22777    TIP3     H1       HT       0.417000       1.00800           0
     78247 TIP3     22777    TIP3     H2       HT       0.417000       1.00800           0
     78248 TIP3     22778    TIP3     OH2      OT      -0.834000       15.9994           0
     78249 TIP3     22778    TIP3     H1       HT       0.417000       1.00800           0
     78250 TIP3     22778    TIP3     H2       HT       0.417000       1.00800           0
     78251 TIP3     22779    TIP3     OH2      OT      -0.834000       15.9994           0
     78252 TIP3     22779    TIP3     H1       HT       0.417000       1.00800           0
     78253 TIP3     22779    TIP3     H2       HT       0.417000       1.00800           0
     78254 TIP3     22780    TIP3     OH2      OT      -0.834000       15.9994           0
     78255 TIP3     22780    TIP3     H1       HT       0.417000       1.00800           0
     78256 TIP3     22780    TIP3     H2       HT       0.417000       1.00800           0
     78257 TIP3     22781    TIP3     OH2      OT      -0.834000       15.9994           0
     78258 TIP3     22781    TIP3     H1       HT       0.417000       1.00800           0
     78259 TIP3     22781    TIP3     H2       HT       0.417000       1.00800           0
     78260 TIP3     22782    TIP3     OH2      OT      -0.834000       15.9994           0
     78261 TIP3     22782    TIP3     H1       HT       0.417000       1.00800           0
     78262 TIP3     22782    TIP3     H2       HT       0.417000       1.00800           0
     78263 TIP3     22783    TIP3     OH2      OT      -0.834000       15.9994           0
     78264 TIP3     22783    TIP3     H1       HT       0.417000       1.00800           0
     78265 TIP3     22783    TIP3     H2       HT       0.417000       1.00800           0
     78266 TIP3     22784    TIP3     OH2      OT      -0.834000       15.9994           0
     78267 TIP3     22784    TIP3     H1       HT       0.417000       1.00800           0
     78268 TIP3     22784    TIP3     H2       HT       0.417000       1.00800           0
     78269 TIP3     22785    TIP3     OH2      OT      -0.834000       15.9994           0
     78270 TIP3     22785    TIP3     H1       HT       0.417000       1.00800           0
     78271 TIP3     22785    TIP3     H2       HT       0.417000       1.00800           0
     78272 TIP3     22786    TIP3     OH2      OT      -0.834000       15.9994           0
     78273 TIP3     22786    TIP3     H1       HT       0.417000       1.00800           0
     78274 TIP3     22786    TIP3     H2       HT       0.417000       1.00800           0
     78275 TIP3     22787    TIP3     OH2      OT      -0.834000       15.9994           0
     78276 TIP3     22787    TIP3     H1       HT       0.417000       1.00800           0
     78277 TIP3     22787    TIP3     H2       HT       0.417000       1.00800           0
     78278 TIP3     22788    TIP3     OH2      OT      -0.834000       15.9994           0
     78279 TIP3     22788    TIP3     H1       HT       0.417000       1.00800           0
     78280 TIP3     22788    TIP3     H2       HT       0.417000       1.00800           0
     78281 TIP3     22789    TIP3     OH2      OT      -0.834000       15.9994           0
     78282 TIP3     22789    TIP3     H1       HT       0.417000       1.00800           0
     78283 TIP3     22789    TIP3     H2       HT       0.417000       1.00800           0
     78284 TIP3     22790    TIP3     OH2      OT      -0.834000       15.9994           0
     78285 TIP3     22790    TIP3     H1       HT       0.417000       1.00800           0
     78286 TIP3     22790    TIP3     H2       HT       0.417000       1.00800           0
     78287 TIP3     22791    TIP3     OH2      OT      -0.834000       15.9994           0
     78288 TIP3     22791    TIP3     H1       HT       0.417000       1.00800           0
     78289 TIP3     22791    TIP3     H2       HT       0.417000       1.00800           0
     78290 TIP3     22792    TIP3     OH2      OT      -0.834000       15.9994           0
     78291 TIP3     22792    TIP3     H1       HT       0.417000       1.00800           0
     78292 TIP3     22792    TIP3     H2       HT       0.417000       1.00800           0
     78293 TIP3     22793    TIP3     OH2      OT      -0.834000       15.9994           0
     78294 TIP3     22793    TIP3     H1       HT       0.417000       1.00800           0
     78295 TIP3     22793    TIP3     H2       HT       0.417000       1.00800           0
     78296 TIP3     22794    TIP3     OH2      OT      -0.834000       15.9994           0
     78297 TIP3     22794    TIP3     H1       HT       0.417000       1.00800           0
     78298 TIP3     22794    TIP3     H2       HT       0.417000       1.00800           0
     78299 TIP3     22795    TIP3     OH2      OT      -0.834000       15.9994           0
     78300 TIP3     22795    TIP3     H1       HT       0.417000       1.00800           0
     78301 TIP3     22795    TIP3     H2       HT       0.417000       1.00800           0
     78302 TIP3     22796    TIP3     OH2      OT      -0.834000       15.9994           0
     78303 TIP3     22796    TIP3     H1       HT       0.417000       1.00800           0
     78304 TIP3     22796    TIP3     H2       HT       0.417000       1.00800           0
     78305 TIP3     22797    TIP3     OH2      OT      -0.834000       15.9994           0
     78306 TIP3     22797    TIP3     H1       HT       0.417000       1.00800           0
     78307 TIP3     22797    TIP3     H2       HT       0.417000       1.00800           0
     78308 TIP3     22798    TIP3     OH2      OT      -0.834000       15.9994           0
     78309 TIP3     22798    TIP3     H1       HT       0.417000       1.00800           0
     78310 TIP3     22798    TIP3     H2       HT       0.417000       1.00800           0
     78311 TIP3     22799    TIP3     OH2      OT      -0.834000       15.9994           0
     78312 TIP3     22799    TIP3     H1       HT       0.417000       1.00800           0
     78313 TIP3     22799    TIP3     H2       HT       0.417000       1.00800           0
     78314 TIP3     22800    TIP3     OH2      OT      -0.834000       15.9994           0
     78315 TIP3     22800    TIP3     H1       HT       0.417000       1.00800           0
     78316 TIP3     22800    TIP3     H2       HT       0.417000       1.00800           0
     78317 TIP3     22801    TIP3     OH2      OT      -0.834000       15.9994           0
     78318 TIP3     22801    TIP3     H1       HT       0.417000       1.00800           0
     78319 TIP3     22801    TIP3     H2       HT       0.417000       1.00800           0
     78320 TIP3     22802    TIP3     OH2      OT      -0.834000       15.9994           0
     78321 TIP3     22802    TIP3     H1       HT       0.417000       1.00800           0
     78322 TIP3     22802    TIP3     H2       HT       0.417000       1.00800           0
     78323 TIP3     22803    TIP3     OH2      OT      -0.834000       15.9994           0
     78324 TIP3     22803    TIP3     H1       HT       0.417000       1.00800           0
     78325 TIP3     22803    TIP3     H2       HT       0.417000       1.00800           0
     78326 TIP3     22804    TIP3     OH2      OT      -0.834000       15.9994           0
     78327 TIP3     22804    TIP3     H1       HT       0.417000       1.00800           0
     78328 TIP3     22804    TIP3     H2       HT       0.417000       1.00800           0
     78329 TIP3     22805    TIP3     OH2      OT      -0.834000       15.9994           0
     78330 TIP3     22805    TIP3     H1       HT       0.417000       1.00800           0
     78331 TIP3     22805    TIP3     H2       HT       0.417000       1.00800           0
     78332 TIP3     22806    TIP3     OH2      OT      -0.834000       15.9994           0
     78333 TIP3     22806    TIP3     H1       HT       0.417000       1.00800           0
     78334 TIP3     22806    TIP3     H2       HT       0.417000       1.00800           0
     78335 TIP3     22807    TIP3     OH2      OT      -0.834000       15.9994           0
     78336 TIP3     22807    TIP3     H1       HT       0.417000       1.00800           0
     78337 TIP3     22807    TIP3     H2       HT       0.417000       1.00800           0
     78338 TIP3     22808    TIP3     OH2      OT      -0.834000       15.9994           0
     78339 TIP3     22808    TIP3     H1       HT       0.417000       1.00800           0
     78340 TIP3     22808    TIP3     H2       HT       0.417000       1.00800           0
     78341 TIP3     22809    TIP3     OH2      OT      -0.834000       15.9994           0
     78342 TIP3     22809    TIP3     H1       HT       0.417000       1.00800           0
     78343 TIP3     22809    TIP3     H2       HT       0.417000       1.00800           0
     78344 TIP3     22810    TIP3     OH2      OT      -0.834000       15.9994           0
     78345 TIP3     22810    TIP3     H1       HT       0.417000       1.00800           0
     78346 TIP3     22810    TIP3     H2       HT       0.417000       1.00800           0
     78347 TIP3     22811    TIP3     OH2      OT      -0.834000       15.9994           0
     78348 TIP3     22811    TIP3     H1       HT       0.417000       1.00800           0
     78349 TIP3     22811    TIP3     H2       HT       0.417000       1.00800           0
     78350 TIP3     22812    TIP3     OH2      OT      -0.834000       15.9994           0
     78351 TIP3     22812    TIP3     H1       HT       0.417000       1.00800           0
     78352 TIP3     22812    TIP3     H2       HT       0.417000       1.00800           0
     78353 TIP3     22813    TIP3     OH2      OT      -0.834000       15.9994           0
     78354 TIP3     22813    TIP3     H1       HT       0.417000       1.00800           0
     78355 TIP3     22813    TIP3     H2       HT       0.417000       1.00800           0
     78356 TIP3     22814    TIP3     OH2      OT      -0.834000       15.9994           0
     78357 TIP3     22814    TIP3     H1       HT       0.417000       1.00800           0
     78358 TIP3     22814    TIP3     H2       HT       0.417000       1.00800           0
     78359 TIP3     22815    TIP3     OH2      OT      -0.834000       15.9994           0
     78360 TIP3     22815    TIP3     H1       HT       0.417000       1.00800           0
     78361 TIP3     22815    TIP3     H2       HT       0.417000       1.00800           0
     78362 TIP3     22816    TIP3     OH2      OT      -0.834000       15.9994           0
     78363 TIP3     22816    TIP3     H1       HT       0.417000       1.00800           0
     78364 TIP3     22816    TIP3     H2       HT       0.417000       1.00800           0
     78365 TIP3     22817    TIP3     OH2      OT      -0.834000       15.9994           0
     78366 TIP3     22817    TIP3     H1       HT       0.417000       1.00800           0
     78367 TIP3     22817    TIP3     H2       HT       0.417000       1.00800           0
     78368 TIP3     22818    TIP3     OH2      OT      -0.834000       15.9994           0
     78369 TIP3     22818    TIP3     H1       HT       0.417000       1.00800           0
     78370 TIP3     22818    TIP3     H2       HT       0.417000       1.00800           0
     78371 TIP3     22819    TIP3     OH2      OT      -0.834000       15.9994           0
     78372 TIP3     22819    TIP3     H1       HT       0.417000       1.00800           0
     78373 TIP3     22819    TIP3     H2       HT       0.417000       1.00800           0
     78374 TIP3     22820    TIP3     OH2      OT      -0.834000       15.9994           0
     78375 TIP3     22820    TIP3     H1       HT       0.417000       1.00800           0
     78376 TIP3     22820    TIP3     H2       HT       0.417000       1.00800           0
     78377 TIP3     22821    TIP3     OH2      OT      -0.834000       15.9994           0
     78378 TIP3     22821    TIP3     H1       HT       0.417000       1.00800           0
     78379 TIP3     22821    TIP3     H2       HT       0.417000       1.00800           0
     78380 TIP3     22822    TIP3     OH2      OT      -0.834000       15.9994           0
     78381 TIP3     22822    TIP3     H1       HT       0.417000       1.00800           0
     78382 TIP3     22822    TIP3     H2       HT       0.417000       1.00800           0
     78383 TIP3     22823    TIP3     OH2      OT      -0.834000       15.9994           0
     78384 TIP3     22823    TIP3     H1       HT       0.417000       1.00800           0
     78385 TIP3     22823    TIP3     H2       HT       0.417000       1.00800           0
     78386 TIP3     22824    TIP3     OH2      OT      -0.834000       15.9994           0
     78387 TIP3     22824    TIP3     H1       HT       0.417000       1.00800           0
     78388 TIP3     22824    TIP3     H2       HT       0.417000       1.00800           0
     78389 TIP3     22825    TIP3     OH2      OT      -0.834000       15.9994           0
     78390 TIP3     22825    TIP3     H1       HT       0.417000       1.00800           0
     78391 TIP3     22825    TIP3     H2       HT       0.417000       1.00800           0
     78392 TIP3     22826    TIP3     OH2      OT      -0.834000       15.9994           0
     78393 TIP3     22826    TIP3     H1       HT       0.417000       1.00800           0
     78394 TIP3     22826    TIP3     H2       HT       0.417000       1.00800           0
     78395 TIP3     22827    TIP3     OH2      OT      -0.834000       15.9994           0
     78396 TIP3     22827    TIP3     H1       HT       0.417000       1.00800           0
     78397 TIP3     22827    TIP3     H2       HT       0.417000       1.00800           0
     78398 TIP3     22828    TIP3     OH2      OT      -0.834000       15.9994           0
     78399 TIP3     22828    TIP3     H1       HT       0.417000       1.00800           0
     78400 TIP3     22828    TIP3     H2       HT       0.417000       1.00800           0
     78401 TIP3     22829    TIP3     OH2      OT      -0.834000       15.9994           0
     78402 TIP3     22829    TIP3     H1       HT       0.417000       1.00800           0
     78403 TIP3     22829    TIP3     H2       HT       0.417000       1.00800           0
     78404 TIP3     22830    TIP3     OH2      OT      -0.834000       15.9994           0
     78405 TIP3     22830    TIP3     H1       HT       0.417000       1.00800           0
     78406 TIP3     22830    TIP3     H2       HT       0.417000       1.00800           0
     78407 TIP3     22831    TIP3     OH2      OT      -0.834000       15.9994           0
     78408 TIP3     22831    TIP3     H1       HT       0.417000       1.00800           0
     78409 TIP3     22831    TIP3     H2       HT       0.417000       1.00800           0
     78410 TIP3     22832    TIP3     OH2      OT      -0.834000       15.9994           0
     78411 TIP3     22832    TIP3     H1       HT       0.417000       1.00800           0
     78412 TIP3     22832    TIP3     H2       HT       0.417000       1.00800           0
     78413 TIP3     22833    TIP3     OH2      OT      -0.834000       15.9994           0
     78414 TIP3     22833    TIP3     H1       HT       0.417000       1.00800           0
     78415 TIP3     22833    TIP3     H2       HT       0.417000       1.00800           0
     78416 TIP3     22834    TIP3     OH2      OT      -0.834000       15.9994           0
     78417 TIP3     22834    TIP3     H1       HT       0.417000       1.00800           0
     78418 TIP3     22834    TIP3     H2       HT       0.417000       1.00800           0
     78419 TIP3     22835    TIP3     OH2      OT      -0.834000       15.9994           0
     78420 TIP3     22835    TIP3     H1       HT       0.417000       1.00800           0
     78421 TIP3     22835    TIP3     H2       HT       0.417000       1.00800           0
     78422 TIP3     22836    TIP3     OH2      OT      -0.834000       15.9994           0
     78423 TIP3     22836    TIP3     H1       HT       0.417000       1.00800           0
     78424 TIP3     22836    TIP3     H2       HT       0.417000       1.00800           0
     78425 TIP3     22837    TIP3     OH2      OT      -0.834000       15.9994           0
     78426 TIP3     22837    TIP3     H1       HT       0.417000       1.00800           0
     78427 TIP3     22837    TIP3     H2       HT       0.417000       1.00800           0
     78428 TIP3     22838    TIP3     OH2      OT      -0.834000       15.9994           0
     78429 TIP3     22838    TIP3     H1       HT       0.417000       1.00800           0
     78430 TIP3     22838    TIP3     H2       HT       0.417000       1.00800           0
     78431 TIP3     22839    TIP3     OH2      OT      -0.834000       15.9994           0
     78432 TIP3     22839    TIP3     H1       HT       0.417000       1.00800           0
     78433 TIP3     22839    TIP3     H2       HT       0.417000       1.00800           0
     78434 TIP3     22840    TIP3     OH2      OT      -0.834000       15.9994           0
     78435 TIP3     22840    TIP3     H1       HT       0.417000       1.00800           0
     78436 TIP3     22840    TIP3     H2       HT       0.417000       1.00800           0
     78437 TIP3     22841    TIP3     OH2      OT      -0.834000       15.9994           0
     78438 TIP3     22841    TIP3     H1       HT       0.417000       1.00800           0
     78439 TIP3     22841    TIP3     H2       HT       0.417000       1.00800           0
     78440 TIP3     22842    TIP3     OH2      OT      -0.834000       15.9994           0
     78441 TIP3     22842    TIP3     H1       HT       0.417000       1.00800           0
     78442 TIP3     22842    TIP3     H2       HT       0.417000       1.00800           0
     78443 TIP3     22843    TIP3     OH2      OT      -0.834000       15.9994           0
     78444 TIP3     22843    TIP3     H1       HT       0.417000       1.00800           0
     78445 TIP3     22843    TIP3     H2       HT       0.417000       1.00800           0
     78446 TIP3     22844    TIP3     OH2      OT      -0.834000       15.9994           0
     78447 TIP3     22844    TIP3     H1       HT       0.417000       1.00800           0
     78448 TIP3     22844    TIP3     H2       HT       0.417000       1.00800           0
     78449 TIP3     22845    TIP3     OH2      OT      -0.834000       15.9994           0
     78450 TIP3     22845    TIP3     H1       HT       0.417000       1.00800           0
     78451 TIP3     22845    TIP3     H2       HT       0.417000       1.00800           0
     78452 TIP3     22846    TIP3     OH2      OT      -0.834000       15.9994           0
     78453 TIP3     22846    TIP3     H1       HT       0.417000       1.00800           0
     78454 TIP3     22846    TIP3     H2       HT       0.417000       1.00800           0
     78455 TIP3     22847    TIP3     OH2      OT      -0.834000       15.9994           0
     78456 TIP3     22847    TIP3     H1       HT       0.417000       1.00800           0
     78457 TIP3     22847    TIP3     H2       HT       0.417000       1.00800           0
     78458 TIP3     22848    TIP3     OH2      OT      -0.834000       15.9994           0
     78459 TIP3     22848    TIP3     H1       HT       0.417000       1.00800           0
     78460 TIP3     22848    TIP3     H2       HT       0.417000       1.00800           0
     78461 TIP3     22849    TIP3     OH2      OT      -0.834000       15.9994           0
     78462 TIP3     22849    TIP3     H1       HT       0.417000       1.00800           0
     78463 TIP3     22849    TIP3     H2       HT       0.417000       1.00800           0
     78464 TIP3     22850    TIP3     OH2      OT      -0.834000       15.9994           0
     78465 TIP3     22850    TIP3     H1       HT       0.417000       1.00800           0
     78466 TIP3     22850    TIP3     H2       HT       0.417000       1.00800           0
     78467 TIP3     22851    TIP3     OH2      OT      -0.834000       15.9994           0
     78468 TIP3     22851    TIP3     H1       HT       0.417000       1.00800           0
     78469 TIP3     22851    TIP3     H2       HT       0.417000       1.00800           0
     78470 TIP3     22852    TIP3     OH2      OT      -0.834000       15.9994           0
     78471 TIP3     22852    TIP3     H1       HT       0.417000       1.00800           0
     78472 TIP3     22852    TIP3     H2       HT       0.417000       1.00800           0
     78473 TIP3     22853    TIP3     OH2      OT      -0.834000       15.9994           0
     78474 TIP3     22853    TIP3     H1       HT       0.417000       1.00800           0
     78475 TIP3     22853    TIP3     H2       HT       0.417000       1.00800           0
     78476 TIP3     22854    TIP3     OH2      OT      -0.834000       15.9994           0
     78477 TIP3     22854    TIP3     H1       HT       0.417000       1.00800           0
     78478 TIP3     22854    TIP3     H2       HT       0.417000       1.00800           0
     78479 TIP3     22855    TIP3     OH2      OT      -0.834000       15.9994           0
     78480 TIP3     22855    TIP3     H1       HT       0.417000       1.00800           0
     78481 TIP3     22855    TIP3     H2       HT       0.417000       1.00800           0
     78482 TIP3     22856    TIP3     OH2      OT      -0.834000       15.9994           0
     78483 TIP3     22856    TIP3     H1       HT       0.417000       1.00800           0
     78484 TIP3     22856    TIP3     H2       HT       0.417000       1.00800           0
     78485 TIP3     22857    TIP3     OH2      OT      -0.834000       15.9994           0
     78486 TIP3     22857    TIP3     H1       HT       0.417000       1.00800           0
     78487 TIP3     22857    TIP3     H2       HT       0.417000       1.00800           0
     78488 TIP3     22858    TIP3     OH2      OT      -0.834000       15.9994           0
     78489 TIP3     22858    TIP3     H1       HT       0.417000       1.00800           0
     78490 TIP3     22858    TIP3     H2       HT       0.417000       1.00800           0
     78491 TIP3     22859    TIP3     OH2      OT      -0.834000       15.9994           0
     78492 TIP3     22859    TIP3     H1       HT       0.417000       1.00800           0
     78493 TIP3     22859    TIP3     H2       HT       0.417000       1.00800           0
     78494 TIP3     22860    TIP3     OH2      OT      -0.834000       15.9994           0
     78495 TIP3     22860    TIP3     H1       HT       0.417000       1.00800           0
     78496 TIP3     22860    TIP3     H2       HT       0.417000       1.00800           0
     78497 TIP3     22861    TIP3     OH2      OT      -0.834000       15.9994           0
     78498 TIP3     22861    TIP3     H1       HT       0.417000       1.00800           0
     78499 TIP3     22861    TIP3     H2       HT       0.417000       1.00800           0
     78500 TIP3     22862    TIP3     OH2      OT      -0.834000       15.9994           0
     78501 TIP3     22862    TIP3     H1       HT       0.417000       1.00800           0
     78502 TIP3     22862    TIP3     H2       HT       0.417000       1.00800           0
     78503 TIP3     22863    TIP3     OH2      OT      -0.834000       15.9994           0
     78504 TIP3     22863    TIP3     H1       HT       0.417000       1.00800           0
     78505 TIP3     22863    TIP3     H2       HT       0.417000       1.00800           0
     78506 TIP3     22864    TIP3     OH2      OT      -0.834000       15.9994           0
     78507 TIP3     22864    TIP3     H1       HT       0.417000       1.00800           0
     78508 TIP3     22864    TIP3     H2       HT       0.417000       1.00800           0
     78509 TIP3     22865    TIP3     OH2      OT      -0.834000       15.9994           0
     78510 TIP3     22865    TIP3     H1       HT       0.417000       1.00800           0
     78511 TIP3     22865    TIP3     H2       HT       0.417000       1.00800           0
     78512 TIP3     22866    TIP3     OH2      OT      -0.834000       15.9994           0
     78513 TIP3     22866    TIP3     H1       HT       0.417000       1.00800           0
     78514 TIP3     22866    TIP3     H2       HT       0.417000       1.00800           0
     78515 TIP3     22867    TIP3     OH2      OT      -0.834000       15.9994           0
     78516 TIP3     22867    TIP3     H1       HT       0.417000       1.00800           0
     78517 TIP3     22867    TIP3     H2       HT       0.417000       1.00800           0
     78518 TIP3     22868    TIP3     OH2      OT      -0.834000       15.9994           0
     78519 TIP3     22868    TIP3     H1       HT       0.417000       1.00800           0
     78520 TIP3     22868    TIP3     H2       HT       0.417000       1.00800           0
     78521 TIP3     22869    TIP3     OH2      OT      -0.834000       15.9994           0
     78522 TIP3     22869    TIP3     H1       HT       0.417000       1.00800           0
     78523 TIP3     22869    TIP3     H2       HT       0.417000       1.00800           0
     78524 TIP3     22870    TIP3     OH2      OT      -0.834000       15.9994           0
     78525 TIP3     22870    TIP3     H1       HT       0.417000       1.00800           0
     78526 TIP3     22870    TIP3     H2       HT       0.417000       1.00800           0
     78527 TIP3     22871    TIP3     OH2      OT      -0.834000       15.9994           0
     78528 TIP3     22871    TIP3     H1       HT       0.417000       1.00800           0
     78529 TIP3     22871    TIP3     H2       HT       0.417000       1.00800           0
     78530 TIP3     22872    TIP3     OH2      OT      -0.834000       15.9994           0
     78531 TIP3     22872    TIP3     H1       HT       0.417000       1.00800           0
     78532 TIP3     22872    TIP3     H2       HT       0.417000       1.00800           0
     78533 TIP3     22873    TIP3     OH2      OT      -0.834000       15.9994           0
     78534 TIP3     22873    TIP3     H1       HT       0.417000       1.00800           0
     78535 TIP3     22873    TIP3     H2       HT       0.417000       1.00800           0
     78536 TIP3     22874    TIP3     OH2      OT      -0.834000       15.9994           0
     78537 TIP3     22874    TIP3     H1       HT       0.417000       1.00800           0
     78538 TIP3     22874    TIP3     H2       HT       0.417000       1.00800           0
     78539 TIP3     22875    TIP3     OH2      OT      -0.834000       15.9994           0
     78540 TIP3     22875    TIP3     H1       HT       0.417000       1.00800           0
     78541 TIP3     22875    TIP3     H2       HT       0.417000       1.00800           0
     78542 TIP3     22876    TIP3     OH2      OT      -0.834000       15.9994           0
     78543 TIP3     22876    TIP3     H1       HT       0.417000       1.00800           0
     78544 TIP3     22876    TIP3     H2       HT       0.417000       1.00800           0
     78545 TIP3     22877    TIP3     OH2      OT      -0.834000       15.9994           0
     78546 TIP3     22877    TIP3     H1       HT       0.417000       1.00800           0
     78547 TIP3     22877    TIP3     H2       HT       0.417000       1.00800           0
     78548 TIP3     22878    TIP3     OH2      OT      -0.834000       15.9994           0
     78549 TIP3     22878    TIP3     H1       HT       0.417000       1.00800           0
     78550 TIP3     22878    TIP3     H2       HT       0.417000       1.00800           0
     78551 TIP3     22879    TIP3     OH2      OT      -0.834000       15.9994           0
     78552 TIP3     22879    TIP3     H1       HT       0.417000       1.00800           0
     78553 TIP3     22879    TIP3     H2       HT       0.417000       1.00800           0
     78554 TIP3     22880    TIP3     OH2      OT      -0.834000       15.9994           0
     78555 TIP3     22880    TIP3     H1       HT       0.417000       1.00800           0
     78556 TIP3     22880    TIP3     H2       HT       0.417000       1.00800           0
     78557 TIP3     22881    TIP3     OH2      OT      -0.834000       15.9994           0
     78558 TIP3     22881    TIP3     H1       HT       0.417000       1.00800           0
     78559 TIP3     22881    TIP3     H2       HT       0.417000       1.00800           0
     78560 TIP3     22882    TIP3     OH2      OT      -0.834000       15.9994           0
     78561 TIP3     22882    TIP3     H1       HT       0.417000       1.00800           0
     78562 TIP3     22882    TIP3     H2       HT       0.417000       1.00800           0
     78563 TIP3     22883    TIP3     OH2      OT      -0.834000       15.9994           0
     78564 TIP3     22883    TIP3     H1       HT       0.417000       1.00800           0
     78565 TIP3     22883    TIP3     H2       HT       0.417000       1.00800           0
     78566 TIP3     22884    TIP3     OH2      OT      -0.834000       15.9994           0
     78567 TIP3     22884    TIP3     H1       HT       0.417000       1.00800           0
     78568 TIP3     22884    TIP3     H2       HT       0.417000       1.00800           0
     78569 TIP3     22885    TIP3     OH2      OT      -0.834000       15.9994           0
     78570 TIP3     22885    TIP3     H1       HT       0.417000       1.00800           0
     78571 TIP3     22885    TIP3     H2       HT       0.417000       1.00800           0
     78572 TIP3     22886    TIP3     OH2      OT      -0.834000       15.9994           0
     78573 TIP3     22886    TIP3     H1       HT       0.417000       1.00800           0
     78574 TIP3     22886    TIP3     H2       HT       0.417000       1.00800           0
     78575 TIP3     22887    TIP3     OH2      OT      -0.834000       15.9994           0
     78576 TIP3     22887    TIP3     H1       HT       0.417000       1.00800           0
     78577 TIP3     22887    TIP3     H2       HT       0.417000       1.00800           0
     78578 TIP3     22888    TIP3     OH2      OT      -0.834000       15.9994           0
     78579 TIP3     22888    TIP3     H1       HT       0.417000       1.00800           0
     78580 TIP3     22888    TIP3     H2       HT       0.417000       1.00800           0
     78581 TIP3     22889    TIP3     OH2      OT      -0.834000       15.9994           0
     78582 TIP3     22889    TIP3     H1       HT       0.417000       1.00800           0
     78583 TIP3     22889    TIP3     H2       HT       0.417000       1.00800           0
     78584 TIP3     22890    TIP3     OH2      OT      -0.834000       15.9994           0
     78585 TIP3     22890    TIP3     H1       HT       0.417000       1.00800           0
     78586 TIP3     22890    TIP3     H2       HT       0.417000       1.00800           0
     78587 TIP3     22891    TIP3     OH2      OT      -0.834000       15.9994           0
     78588 TIP3     22891    TIP3     H1       HT       0.417000       1.00800           0
     78589 TIP3     22891    TIP3     H2       HT       0.417000       1.00800           0
     78590 TIP3     22892    TIP3     OH2      OT      -0.834000       15.9994           0
     78591 TIP3     22892    TIP3     H1       HT       0.417000       1.00800           0
     78592 TIP3     22892    TIP3     H2       HT       0.417000       1.00800           0
     78593 TIP3     22893    TIP3     OH2      OT      -0.834000       15.9994           0
     78594 TIP3     22893    TIP3     H1       HT       0.417000       1.00800           0
     78595 TIP3     22893    TIP3     H2       HT       0.417000       1.00800           0
     78596 TIP3     22894    TIP3     OH2      OT      -0.834000       15.9994           0
     78597 TIP3     22894    TIP3     H1       HT       0.417000       1.00800           0
     78598 TIP3     22894    TIP3     H2       HT       0.417000       1.00800           0
     78599 TIP3     22895    TIP3     OH2      OT      -0.834000       15.9994           0
     78600 TIP3     22895    TIP3     H1       HT       0.417000       1.00800           0
     78601 TIP3     22895    TIP3     H2       HT       0.417000       1.00800           0
     78602 TIP3     22896    TIP3     OH2      OT      -0.834000       15.9994           0
     78603 TIP3     22896    TIP3     H1       HT       0.417000       1.00800           0
     78604 TIP3     22896    TIP3     H2       HT       0.417000       1.00800           0
     78605 TIP3     22897    TIP3     OH2      OT      -0.834000       15.9994           0
     78606 TIP3     22897    TIP3     H1       HT       0.417000       1.00800           0
     78607 TIP3     22897    TIP3     H2       HT       0.417000       1.00800           0
     78608 TIP3     22898    TIP3     OH2      OT      -0.834000       15.9994           0
     78609 TIP3     22898    TIP3     H1       HT       0.417000       1.00800           0
     78610 TIP3     22898    TIP3     H2       HT       0.417000       1.00800           0
     78611 TIP3     22899    TIP3     OH2      OT      -0.834000       15.9994           0
     78612 TIP3     22899    TIP3     H1       HT       0.417000       1.00800           0
     78613 TIP3     22899    TIP3     H2       HT       0.417000       1.00800           0
     78614 TIP3     22900    TIP3     OH2      OT      -0.834000       15.9994           0
     78615 TIP3     22900    TIP3     H1       HT       0.417000       1.00800           0
     78616 TIP3     22900    TIP3     H2       HT       0.417000       1.00800           0
     78617 TIP3     22901    TIP3     OH2      OT      -0.834000       15.9994           0
     78618 TIP3     22901    TIP3     H1       HT       0.417000       1.00800           0
     78619 TIP3     22901    TIP3     H2       HT       0.417000       1.00800           0
     78620 TIP3     22902    TIP3     OH2      OT      -0.834000       15.9994           0
     78621 TIP3     22902    TIP3     H1       HT       0.417000       1.00800           0
     78622 TIP3     22902    TIP3     H2       HT       0.417000       1.00800           0
     78623 TIP3     22903    TIP3     OH2      OT      -0.834000       15.9994           0
     78624 TIP3     22903    TIP3     H1       HT       0.417000       1.00800           0
     78625 TIP3     22903    TIP3     H2       HT       0.417000       1.00800           0
     78626 TIP3     22904    TIP3     OH2      OT      -0.834000       15.9994           0
     78627 TIP3     22904    TIP3     H1       HT       0.417000       1.00800           0
     78628 TIP3     22904    TIP3     H2       HT       0.417000       1.00800           0
     78629 TIP3     22905    TIP3     OH2      OT      -0.834000       15.9994           0
     78630 TIP3     22905    TIP3     H1       HT       0.417000       1.00800           0
     78631 TIP3     22905    TIP3     H2       HT       0.417000       1.00800           0
     78632 TIP3     22906    TIP3     OH2      OT      -0.834000       15.9994           0
     78633 TIP3     22906    TIP3     H1       HT       0.417000       1.00800           0
     78634 TIP3     22906    TIP3     H2       HT       0.417000       1.00800           0
     78635 TIP3     22907    TIP3     OH2      OT      -0.834000       15.9994           0
     78636 TIP3     22907    TIP3     H1       HT       0.417000       1.00800           0
     78637 TIP3     22907    TIP3     H2       HT       0.417000       1.00800           0
     78638 TIP3     22908    TIP3     OH2      OT      -0.834000       15.9994           0
     78639 TIP3     22908    TIP3     H1       HT       0.417000       1.00800           0
     78640 TIP3     22908    TIP3     H2       HT       0.417000       1.00800           0
     78641 TIP3     22909    TIP3     OH2      OT      -0.834000       15.9994           0
     78642 TIP3     22909    TIP3     H1       HT       0.417000       1.00800           0
     78643 TIP3     22909    TIP3     H2       HT       0.417000       1.00800           0
     78644 TIP3     22910    TIP3     OH2      OT      -0.834000       15.9994           0
     78645 TIP3     22910    TIP3     H1       HT       0.417000       1.00800           0
     78646 TIP3     22910    TIP3     H2       HT       0.417000       1.00800           0
     78647 TIP3     22911    TIP3     OH2      OT      -0.834000       15.9994           0
     78648 TIP3     22911    TIP3     H1       HT       0.417000       1.00800           0
     78649 TIP3     22911    TIP3     H2       HT       0.417000       1.00800           0
     78650 TIP3     22912    TIP3     OH2      OT      -0.834000       15.9994           0
     78651 TIP3     22912    TIP3     H1       HT       0.417000       1.00800           0
     78652 TIP3     22912    TIP3     H2       HT       0.417000       1.00800           0
     78653 TIP3     22913    TIP3     OH2      OT      -0.834000       15.9994           0
     78654 TIP3     22913    TIP3     H1       HT       0.417000       1.00800           0
     78655 TIP3     22913    TIP3     H2       HT       0.417000       1.00800           0
     78656 TIP3     22914    TIP3     OH2      OT      -0.834000       15.9994           0
     78657 TIP3     22914    TIP3     H1       HT       0.417000       1.00800           0
     78658 TIP3     22914    TIP3     H2       HT       0.417000       1.00800           0
     78659 TIP3     22915    TIP3     OH2      OT      -0.834000       15.9994           0
     78660 TIP3     22915    TIP3     H1       HT       0.417000       1.00800           0
     78661 TIP3     22915    TIP3     H2       HT       0.417000       1.00800           0
     78662 TIP3     22916    TIP3     OH2      OT      -0.834000       15.9994           0
     78663 TIP3     22916    TIP3     H1       HT       0.417000       1.00800           0
     78664 TIP3     22916    TIP3     H2       HT       0.417000       1.00800           0
     78665 TIP3     22917    TIP3     OH2      OT      -0.834000       15.9994           0
     78666 TIP3     22917    TIP3     H1       HT       0.417000       1.00800           0
     78667 TIP3     22917    TIP3     H2       HT       0.417000       1.00800           0
     78668 TIP3     22918    TIP3     OH2      OT      -0.834000       15.9994           0
     78669 TIP3     22918    TIP3     H1       HT       0.417000       1.00800           0
     78670 TIP3     22918    TIP3     H2       HT       0.417000       1.00800           0
     78671 TIP3     22919    TIP3     OH2      OT      -0.834000       15.9994           0
     78672 TIP3     22919    TIP3     H1       HT       0.417000       1.00800           0
     78673 TIP3     22919    TIP3     H2       HT       0.417000       1.00800           0
     78674 TIP3     22920    TIP3     OH2      OT      -0.834000       15.9994           0
     78675 TIP3     22920    TIP3     H1       HT       0.417000       1.00800           0
     78676 TIP3     22920    TIP3     H2       HT       0.417000       1.00800           0
     78677 TIP3     22921    TIP3     OH2      OT      -0.834000       15.9994           0
     78678 TIP3     22921    TIP3     H1       HT       0.417000       1.00800           0
     78679 TIP3     22921    TIP3     H2       HT       0.417000       1.00800           0
     78680 TIP3     22922    TIP3     OH2      OT      -0.834000       15.9994           0
     78681 TIP3     22922    TIP3     H1       HT       0.417000       1.00800           0
     78682 TIP3     22922    TIP3     H2       HT       0.417000       1.00800           0
     78683 TIP3     22923    TIP3     OH2      OT      -0.834000       15.9994           0
     78684 TIP3     22923    TIP3     H1       HT       0.417000       1.00800           0
     78685 TIP3     22923    TIP3     H2       HT       0.417000       1.00800           0
     78686 TIP3     22924    TIP3     OH2      OT      -0.834000       15.9994           0
     78687 TIP3     22924    TIP3     H1       HT       0.417000       1.00800           0
     78688 TIP3     22924    TIP3     H2       HT       0.417000       1.00800           0
     78689 TIP3     22925    TIP3     OH2      OT      -0.834000       15.9994           0
     78690 TIP3     22925    TIP3     H1       HT       0.417000       1.00800           0
     78691 TIP3     22925    TIP3     H2       HT       0.417000       1.00800           0
     78692 TIP3     22926    TIP3     OH2      OT      -0.834000       15.9994           0
     78693 TIP3     22926    TIP3     H1       HT       0.417000       1.00800           0
     78694 TIP3     22926    TIP3     H2       HT       0.417000       1.00800           0
     78695 TIP3     22927    TIP3     OH2      OT      -0.834000       15.9994           0
     78696 TIP3     22927    TIP3     H1       HT       0.417000       1.00800           0
     78697 TIP3     22927    TIP3     H2       HT       0.417000       1.00800           0
     78698 TIP3     22928    TIP3     OH2      OT      -0.834000       15.9994           0
     78699 TIP3     22928    TIP3     H1       HT       0.417000       1.00800           0
     78700 TIP3     22928    TIP3     H2       HT       0.417000       1.00800           0
     78701 TIP3     22929    TIP3     OH2      OT      -0.834000       15.9994           0
     78702 TIP3     22929    TIP3     H1       HT       0.417000       1.00800           0
     78703 TIP3     22929    TIP3     H2       HT       0.417000       1.00800           0
     78704 TIP3     22930    TIP3     OH2      OT      -0.834000       15.9994           0
     78705 TIP3     22930    TIP3     H1       HT       0.417000       1.00800           0
     78706 TIP3     22930    TIP3     H2       HT       0.417000       1.00800           0
     78707 TIP3     22931    TIP3     OH2      OT      -0.834000       15.9994           0
     78708 TIP3     22931    TIP3     H1       HT       0.417000       1.00800           0
     78709 TIP3     22931    TIP3     H2       HT       0.417000       1.00800           0
     78710 TIP3     22932    TIP3     OH2      OT      -0.834000       15.9994           0
     78711 TIP3     22932    TIP3     H1       HT       0.417000       1.00800           0
     78712 TIP3     22932    TIP3     H2       HT       0.417000       1.00800           0
     78713 TIP3     22933    TIP3     OH2      OT      -0.834000       15.9994           0
     78714 TIP3     22933    TIP3     H1       HT       0.417000       1.00800           0
     78715 TIP3     22933    TIP3     H2       HT       0.417000       1.00800           0
     78716 TIP3     22934    TIP3     OH2      OT      -0.834000       15.9994           0
     78717 TIP3     22934    TIP3     H1       HT       0.417000       1.00800           0
     78718 TIP3     22934    TIP3     H2       HT       0.417000       1.00800           0
     78719 TIP3     22935    TIP3     OH2      OT      -0.834000       15.9994           0
     78720 TIP3     22935    TIP3     H1       HT       0.417000       1.00800           0
     78721 TIP3     22935    TIP3     H2       HT       0.417000       1.00800           0
     78722 TIP3     22936    TIP3     OH2      OT      -0.834000       15.9994           0
     78723 TIP3     22936    TIP3     H1       HT       0.417000       1.00800           0
     78724 TIP3     22936    TIP3     H2       HT       0.417000       1.00800           0
     78725 TIP3     22937    TIP3     OH2      OT      -0.834000       15.9994           0
     78726 TIP3     22937    TIP3     H1       HT       0.417000       1.00800           0
     78727 TIP3     22937    TIP3     H2       HT       0.417000       1.00800           0
     78728 TIP3     22938    TIP3     OH2      OT      -0.834000       15.9994           0
     78729 TIP3     22938    TIP3     H1       HT       0.417000       1.00800           0
     78730 TIP3     22938    TIP3     H2       HT       0.417000       1.00800           0
     78731 TIP3     22939    TIP3     OH2      OT      -0.834000       15.9994           0
     78732 TIP3     22939    TIP3     H1       HT       0.417000       1.00800           0
     78733 TIP3     22939    TIP3     H2       HT       0.417000       1.00800           0
     78734 TIP3     22940    TIP3     OH2      OT      -0.834000       15.9994           0
     78735 TIP3     22940    TIP3     H1       HT       0.417000       1.00800           0
     78736 TIP3     22940    TIP3     H2       HT       0.417000       1.00800           0
     78737 TIP3     22941    TIP3     OH2      OT      -0.834000       15.9994           0
     78738 TIP3     22941    TIP3     H1       HT       0.417000       1.00800           0
     78739 TIP3     22941    TIP3     H2       HT       0.417000       1.00800           0
     78740 TIP3     22942    TIP3     OH2      OT      -0.834000       15.9994           0
     78741 TIP3     22942    TIP3     H1       HT       0.417000       1.00800           0
     78742 TIP3     22942    TIP3     H2       HT       0.417000       1.00800           0
     78743 TIP3     22943    TIP3     OH2      OT      -0.834000       15.9994           0
     78744 TIP3     22943    TIP3     H1       HT       0.417000       1.00800           0
     78745 TIP3     22943    TIP3     H2       HT       0.417000       1.00800           0
     78746 TIP3     22944    TIP3     OH2      OT      -0.834000       15.9994           0
     78747 TIP3     22944    TIP3     H1       HT       0.417000       1.00800           0
     78748 TIP3     22944    TIP3     H2       HT       0.417000       1.00800           0
     78749 TIP3     22945    TIP3     OH2      OT      -0.834000       15.9994           0
     78750 TIP3     22945    TIP3     H1       HT       0.417000       1.00800           0
     78751 TIP3     22945    TIP3     H2       HT       0.417000       1.00800           0
     78752 TIP3     22946    TIP3     OH2      OT      -0.834000       15.9994           0
     78753 TIP3     22946    TIP3     H1       HT       0.417000       1.00800           0
     78754 TIP3     22946    TIP3     H2       HT       0.417000       1.00800           0
     78755 TIP3     22947    TIP3     OH2      OT      -0.834000       15.9994           0
     78756 TIP3     22947    TIP3     H1       HT       0.417000       1.00800           0
     78757 TIP3     22947    TIP3     H2       HT       0.417000       1.00800           0
     78758 TIP3     22948    TIP3     OH2      OT      -0.834000       15.9994           0
     78759 TIP3     22948    TIP3     H1       HT       0.417000       1.00800           0
     78760 TIP3     22948    TIP3     H2       HT       0.417000       1.00800           0
     78761 TIP3     22949    TIP3     OH2      OT      -0.834000       15.9994           0
     78762 TIP3     22949    TIP3     H1       HT       0.417000       1.00800           0
     78763 TIP3     22949    TIP3     H2       HT       0.417000       1.00800           0
     78764 TIP3     22950    TIP3     OH2      OT      -0.834000       15.9994           0
     78765 TIP3     22950    TIP3     H1       HT       0.417000       1.00800           0
     78766 TIP3     22950    TIP3     H2       HT       0.417000       1.00800           0
     78767 TIP3     22951    TIP3     OH2      OT      -0.834000       15.9994           0
     78768 TIP3     22951    TIP3     H1       HT       0.417000       1.00800           0
     78769 TIP3     22951    TIP3     H2       HT       0.417000       1.00800           0
     78770 TIP3     22952    TIP3     OH2      OT      -0.834000       15.9994           0
     78771 TIP3     22952    TIP3     H1       HT       0.417000       1.00800           0
     78772 TIP3     22952    TIP3     H2       HT       0.417000       1.00800           0
     78773 TIP3     22953    TIP3     OH2      OT      -0.834000       15.9994           0
     78774 TIP3     22953    TIP3     H1       HT       0.417000       1.00800           0
     78775 TIP3     22953    TIP3     H2       HT       0.417000       1.00800           0
     78776 TIP3     22954    TIP3     OH2      OT      -0.834000       15.9994           0
     78777 TIP3     22954    TIP3     H1       HT       0.417000       1.00800           0
     78778 TIP3     22954    TIP3     H2       HT       0.417000       1.00800           0
     78779 TIP3     22955    TIP3     OH2      OT      -0.834000       15.9994           0
     78780 TIP3     22955    TIP3     H1       HT       0.417000       1.00800           0
     78781 TIP3     22955    TIP3     H2       HT       0.417000       1.00800           0
     78782 TIP3     22956    TIP3     OH2      OT      -0.834000       15.9994           0
     78783 TIP3     22956    TIP3     H1       HT       0.417000       1.00800           0
     78784 TIP3     22956    TIP3     H2       HT       0.417000       1.00800           0
     78785 TIP3     22957    TIP3     OH2      OT      -0.834000       15.9994           0
     78786 TIP3     22957    TIP3     H1       HT       0.417000       1.00800           0
     78787 TIP3     22957    TIP3     H2       HT       0.417000       1.00800           0
     78788 TIP3     22958    TIP3     OH2      OT      -0.834000       15.9994           0
     78789 TIP3     22958    TIP3     H1       HT       0.417000       1.00800           0
     78790 TIP3     22958    TIP3     H2       HT       0.417000       1.00800           0
     78791 TIP3     22959    TIP3     OH2      OT      -0.834000       15.9994           0
     78792 TIP3     22959    TIP3     H1       HT       0.417000       1.00800           0
     78793 TIP3     22959    TIP3     H2       HT       0.417000       1.00800           0
     78794 TIP3     22960    TIP3     OH2      OT      -0.834000       15.9994           0
     78795 TIP3     22960    TIP3     H1       HT       0.417000       1.00800           0
     78796 TIP3     22960    TIP3     H2       HT       0.417000       1.00800           0
     78797 TIP3     22961    TIP3     OH2      OT      -0.834000       15.9994           0
     78798 TIP3     22961    TIP3     H1       HT       0.417000       1.00800           0
     78799 TIP3     22961    TIP3     H2       HT       0.417000       1.00800           0
     78800 TIP3     22962    TIP3     OH2      OT      -0.834000       15.9994           0
     78801 TIP3     22962    TIP3     H1       HT       0.417000       1.00800           0
     78802 TIP3     22962    TIP3     H2       HT       0.417000       1.00800           0
     78803 TIP3     22963    TIP3     OH2      OT      -0.834000       15.9994           0
     78804 TIP3     22963    TIP3     H1       HT       0.417000       1.00800           0
     78805 TIP3     22963    TIP3     H2       HT       0.417000       1.00800           0
     78806 TIP3     22964    TIP3     OH2      OT      -0.834000       15.9994           0
     78807 TIP3     22964    TIP3     H1       HT       0.417000       1.00800           0
     78808 TIP3     22964    TIP3     H2       HT       0.417000       1.00800           0
     78809 TIP3     22965    TIP3     OH2      OT      -0.834000       15.9994           0
     78810 TIP3     22965    TIP3     H1       HT       0.417000       1.00800           0
     78811 TIP3     22965    TIP3     H2       HT       0.417000       1.00800           0
     78812 TIP3     22966    TIP3     OH2      OT      -0.834000       15.9994           0
     78813 TIP3     22966    TIP3     H1       HT       0.417000       1.00800           0
     78814 TIP3     22966    TIP3     H2       HT       0.417000       1.00800           0
     78815 TIP3     22967    TIP3     OH2      OT      -0.834000       15.9994           0
     78816 TIP3     22967    TIP3     H1       HT       0.417000       1.00800           0
     78817 TIP3     22967    TIP3     H2       HT       0.417000       1.00800           0
     78818 TIP3     22968    TIP3     OH2      OT      -0.834000       15.9994           0
     78819 TIP3     22968    TIP3     H1       HT       0.417000       1.00800           0
     78820 TIP3     22968    TIP3     H2       HT       0.417000       1.00800           0
     78821 TIP3     22969    TIP3     OH2      OT      -0.834000       15.9994           0
     78822 TIP3     22969    TIP3     H1       HT       0.417000       1.00800           0
     78823 TIP3     22969    TIP3     H2       HT       0.417000       1.00800           0
     78824 TIP3     22970    TIP3     OH2      OT      -0.834000       15.9994           0
     78825 TIP3     22970    TIP3     H1       HT       0.417000       1.00800           0
     78826 TIP3     22970    TIP3     H2       HT       0.417000       1.00800           0
     78827 TIP3     22971    TIP3     OH2      OT      -0.834000       15.9994           0
     78828 TIP3     22971    TIP3     H1       HT       0.417000       1.00800           0
     78829 TIP3     22971    TIP3     H2       HT       0.417000       1.00800           0
     78830 TIP3     22972    TIP3     OH2      OT      -0.834000       15.9994           0
     78831 TIP3     22972    TIP3     H1       HT       0.417000       1.00800           0
     78832 TIP3     22972    TIP3     H2       HT       0.417000       1.00800           0
     78833 TIP3     22973    TIP3     OH2      OT      -0.834000       15.9994           0
     78834 TIP3     22973    TIP3     H1       HT       0.417000       1.00800           0
     78835 TIP3     22973    TIP3     H2       HT       0.417000       1.00800           0
     78836 TIP3     22974    TIP3     OH2      OT      -0.834000       15.9994           0
     78837 TIP3     22974    TIP3     H1       HT       0.417000       1.00800           0
     78838 TIP3     22974    TIP3     H2       HT       0.417000       1.00800           0
     78839 TIP3     22975    TIP3     OH2      OT      -0.834000       15.9994           0
     78840 TIP3     22975    TIP3     H1       HT       0.417000       1.00800           0
     78841 TIP3     22975    TIP3     H2       HT       0.417000       1.00800           0
     78842 TIP3     22976    TIP3     OH2      OT      -0.834000       15.9994           0
     78843 TIP3     22976    TIP3     H1       HT       0.417000       1.00800           0
     78844 TIP3     22976    TIP3     H2       HT       0.417000       1.00800           0
     78845 TIP3     22977    TIP3     OH2      OT      -0.834000       15.9994           0
     78846 TIP3     22977    TIP3     H1       HT       0.417000       1.00800           0
     78847 TIP3     22977    TIP3     H2       HT       0.417000       1.00800           0
     78848 TIP3     22978    TIP3     OH2      OT      -0.834000       15.9994           0
     78849 TIP3     22978    TIP3     H1       HT       0.417000       1.00800           0
     78850 TIP3     22978    TIP3     H2       HT       0.417000       1.00800           0
     78851 TIP3     22979    TIP3     OH2      OT      -0.834000       15.9994           0
     78852 TIP3     22979    TIP3     H1       HT       0.417000       1.00800           0
     78853 TIP3     22979    TIP3     H2       HT       0.417000       1.00800           0
     78854 TIP3     22980    TIP3     OH2      OT      -0.834000       15.9994           0
     78855 TIP3     22980    TIP3     H1       HT       0.417000       1.00800           0
     78856 TIP3     22980    TIP3     H2       HT       0.417000       1.00800           0
     78857 TIP3     22981    TIP3     OH2      OT      -0.834000       15.9994           0
     78858 TIP3     22981    TIP3     H1       HT       0.417000       1.00800           0
     78859 TIP3     22981    TIP3     H2       HT       0.417000       1.00800           0
     78860 TIP3     22982    TIP3     OH2      OT      -0.834000       15.9994           0
     78861 TIP3     22982    TIP3     H1       HT       0.417000       1.00800           0
     78862 TIP3     22982    TIP3     H2       HT       0.417000       1.00800           0
     78863 TIP3     22983    TIP3     OH2      OT      -0.834000       15.9994           0
     78864 TIP3     22983    TIP3     H1       HT       0.417000       1.00800           0
     78865 TIP3     22983    TIP3     H2       HT       0.417000       1.00800           0
     78866 TIP3     22984    TIP3     OH2      OT      -0.834000       15.9994           0
     78867 TIP3     22984    TIP3     H1       HT       0.417000       1.00800           0
     78868 TIP3     22984    TIP3     H2       HT       0.417000       1.00800           0
     78869 TIP3     22985    TIP3     OH2      OT      -0.834000       15.9994           0
     78870 TIP3     22985    TIP3     H1       HT       0.417000       1.00800           0
     78871 TIP3     22985    TIP3     H2       HT       0.417000       1.00800           0
     78872 TIP3     22986    TIP3     OH2      OT      -0.834000       15.9994           0
     78873 TIP3     22986    TIP3     H1       HT       0.417000       1.00800           0
     78874 TIP3     22986    TIP3     H2       HT       0.417000       1.00800           0
     78875 TIP3     22987    TIP3     OH2      OT      -0.834000       15.9994           0
     78876 TIP3     22987    TIP3     H1       HT       0.417000       1.00800           0
     78877 TIP3     22987    TIP3     H2       HT       0.417000       1.00800           0
     78878 TIP3     22988    TIP3     OH2      OT      -0.834000       15.9994           0
     78879 TIP3     22988    TIP3     H1       HT       0.417000       1.00800           0
     78880 TIP3     22988    TIP3     H2       HT       0.417000       1.00800           0
     78881 TIP3     22989    TIP3     OH2      OT      -0.834000       15.9994           0
     78882 TIP3     22989    TIP3     H1       HT       0.417000       1.00800           0
     78883 TIP3     22989    TIP3     H2       HT       0.417000       1.00800           0
     78884 TIP3     22990    TIP3     OH2      OT      -0.834000       15.9994           0
     78885 TIP3     22990    TIP3     H1       HT       0.417000       1.00800           0
     78886 TIP3     22990    TIP3     H2       HT       0.417000       1.00800           0
     78887 TIP3     22991    TIP3     OH2      OT      -0.834000       15.9994           0
     78888 TIP3     22991    TIP3     H1       HT       0.417000       1.00800           0
     78889 TIP3     22991    TIP3     H2       HT       0.417000       1.00800           0
     78890 TIP3     22992    TIP3     OH2      OT      -0.834000       15.9994           0
     78891 TIP3     22992    TIP3     H1       HT       0.417000       1.00800           0
     78892 TIP3     22992    TIP3     H2       HT       0.417000       1.00800           0
     78893 TIP3     22993    TIP3     OH2      OT      -0.834000       15.9994           0
     78894 TIP3     22993    TIP3     H1       HT       0.417000       1.00800           0
     78895 TIP3     22993    TIP3     H2       HT       0.417000       1.00800           0
     78896 TIP3     22994    TIP3     OH2      OT      -0.834000       15.9994           0
     78897 TIP3     22994    TIP3     H1       HT       0.417000       1.00800           0
     78898 TIP3     22994    TIP3     H2       HT       0.417000       1.00800           0
     78899 TIP3     22995    TIP3     OH2      OT      -0.834000       15.9994           0
     78900 TIP3     22995    TIP3     H1       HT       0.417000       1.00800           0
     78901 TIP3     22995    TIP3     H2       HT       0.417000       1.00800           0
     78902 TIP3     22996    TIP3     OH2      OT      -0.834000       15.9994           0
     78903 TIP3     22996    TIP3     H1       HT       0.417000       1.00800           0
     78904 TIP3     22996    TIP3     H2       HT       0.417000       1.00800           0
     78905 TIP3     22997    TIP3     OH2      OT      -0.834000       15.9994           0
     78906 TIP3     22997    TIP3     H1       HT       0.417000       1.00800           0
     78907 TIP3     22997    TIP3     H2       HT       0.417000       1.00800           0
     78908 TIP3     22998    TIP3     OH2      OT      -0.834000       15.9994           0
     78909 TIP3     22998    TIP3     H1       HT       0.417000       1.00800           0
     78910 TIP3     22998    TIP3     H2       HT       0.417000       1.00800           0
     78911 TIP3     22999    TIP3     OH2      OT      -0.834000       15.9994           0
     78912 TIP3     22999    TIP3     H1       HT       0.417000       1.00800           0
     78913 TIP3     22999    TIP3     H2       HT       0.417000       1.00800           0
     78914 TIP3     23000    TIP3     OH2      OT      -0.834000       15.9994           0
     78915 TIP3     23000    TIP3     H1       HT       0.417000       1.00800           0
     78916 TIP3     23000    TIP3     H2       HT       0.417000       1.00800           0
     78917 TIP3     23001    TIP3     OH2      OT      -0.834000       15.9994           0
     78918 TIP3     23001    TIP3     H1       HT       0.417000       1.00800           0
     78919 TIP3     23001    TIP3     H2       HT       0.417000       1.00800           0
     78920 TIP3     23002    TIP3     OH2      OT      -0.834000       15.9994           0
     78921 TIP3     23002    TIP3     H1       HT       0.417000       1.00800           0
     78922 TIP3     23002    TIP3     H2       HT       0.417000       1.00800           0
     78923 TIP3     23003    TIP3     OH2      OT      -0.834000       15.9994           0
     78924 TIP3     23003    TIP3     H1       HT       0.417000       1.00800           0
     78925 TIP3     23003    TIP3     H2       HT       0.417000       1.00800           0
     78926 TIP3     23004    TIP3     OH2      OT      -0.834000       15.9994           0
     78927 TIP3     23004    TIP3     H1       HT       0.417000       1.00800           0
     78928 TIP3     23004    TIP3     H2       HT       0.417000       1.00800           0
     78929 TIP3     23005    TIP3     OH2      OT      -0.834000       15.9994           0
     78930 TIP3     23005    TIP3     H1       HT       0.417000       1.00800           0
     78931 TIP3     23005    TIP3     H2       HT       0.417000       1.00800           0
     78932 TIP3     23006    TIP3     OH2      OT      -0.834000       15.9994           0
     78933 TIP3     23006    TIP3     H1       HT       0.417000       1.00800           0
     78934 TIP3     23006    TIP3     H2       HT       0.417000       1.00800           0
     78935 TIP3     23007    TIP3     OH2      OT      -0.834000       15.9994           0
     78936 TIP3     23007    TIP3     H1       HT       0.417000       1.00800           0
     78937 TIP3     23007    TIP3     H2       HT       0.417000       1.00800           0
     78938 TIP3     23008    TIP3     OH2      OT      -0.834000       15.9994           0
     78939 TIP3     23008    TIP3     H1       HT       0.417000       1.00800           0
     78940 TIP3     23008    TIP3     H2       HT       0.417000       1.00800           0
     78941 TIP3     23009    TIP3     OH2      OT      -0.834000       15.9994           0
     78942 TIP3     23009    TIP3     H1       HT       0.417000       1.00800           0
     78943 TIP3     23009    TIP3     H2       HT       0.417000       1.00800           0
     78944 TIP3     23010    TIP3     OH2      OT      -0.834000       15.9994           0
     78945 TIP3     23010    TIP3     H1       HT       0.417000       1.00800           0
     78946 TIP3     23010    TIP3     H2       HT       0.417000       1.00800           0
     78947 TIP3     23011    TIP3     OH2      OT      -0.834000       15.9994           0
     78948 TIP3     23011    TIP3     H1       HT       0.417000       1.00800           0
     78949 TIP3     23011    TIP3     H2       HT       0.417000       1.00800           0
     78950 TIP3     23012    TIP3     OH2      OT      -0.834000       15.9994           0
     78951 TIP3     23012    TIP3     H1       HT       0.417000       1.00800           0
     78952 TIP3     23012    TIP3     H2       HT       0.417000       1.00800           0
     78953 TIP3     23013    TIP3     OH2      OT      -0.834000       15.9994           0
     78954 TIP3     23013    TIP3     H1       HT       0.417000       1.00800           0
     78955 TIP3     23013    TIP3     H2       HT       0.417000       1.00800           0
     78956 TIP3     23014    TIP3     OH2      OT      -0.834000       15.9994           0
     78957 TIP3     23014    TIP3     H1       HT       0.417000       1.00800           0
     78958 TIP3     23014    TIP3     H2       HT       0.417000       1.00800           0
     78959 TIP3     23015    TIP3     OH2      OT      -0.834000       15.9994           0
     78960 TIP3     23015    TIP3     H1       HT       0.417000       1.00800           0
     78961 TIP3     23015    TIP3     H2       HT       0.417000       1.00800           0
     78962 TIP3     23016    TIP3     OH2      OT      -0.834000       15.9994           0
     78963 TIP3     23016    TIP3     H1       HT       0.417000       1.00800           0
     78964 TIP3     23016    TIP3     H2       HT       0.417000       1.00800           0
     78965 TIP3     23017    TIP3     OH2      OT      -0.834000       15.9994           0
     78966 TIP3     23017    TIP3     H1       HT       0.417000       1.00800           0
     78967 TIP3     23017    TIP3     H2       HT       0.417000       1.00800           0
     78968 TIP3     23018    TIP3     OH2      OT      -0.834000       15.9994           0
     78969 TIP3     23018    TIP3     H1       HT       0.417000       1.00800           0
     78970 TIP3     23018    TIP3     H2       HT       0.417000       1.00800           0
     78971 TIP3     23019    TIP3     OH2      OT      -0.834000       15.9994           0
     78972 TIP3     23019    TIP3     H1       HT       0.417000       1.00800           0
     78973 TIP3     23019    TIP3     H2       HT       0.417000       1.00800           0
     78974 TIP3     23020    TIP3     OH2      OT      -0.834000       15.9994           0
     78975 TIP3     23020    TIP3     H1       HT       0.417000       1.00800           0
     78976 TIP3     23020    TIP3     H2       HT       0.417000       1.00800           0
     78977 TIP3     23021    TIP3     OH2      OT      -0.834000       15.9994           0
     78978 TIP3     23021    TIP3     H1       HT       0.417000       1.00800           0
     78979 TIP3     23021    TIP3     H2       HT       0.417000       1.00800           0
     78980 TIP3     23022    TIP3     OH2      OT      -0.834000       15.9994           0
     78981 TIP3     23022    TIP3     H1       HT       0.417000       1.00800           0
     78982 TIP3     23022    TIP3     H2       HT       0.417000       1.00800           0
     78983 TIP3     23023    TIP3     OH2      OT      -0.834000       15.9994           0
     78984 TIP3     23023    TIP3     H1       HT       0.417000       1.00800           0
     78985 TIP3     23023    TIP3     H2       HT       0.417000       1.00800           0
     78986 TIP3     23024    TIP3     OH2      OT      -0.834000       15.9994           0
     78987 TIP3     23024    TIP3     H1       HT       0.417000       1.00800           0
     78988 TIP3     23024    TIP3     H2       HT       0.417000       1.00800           0
     78989 TIP3     23025    TIP3     OH2      OT      -0.834000       15.9994           0
     78990 TIP3     23025    TIP3     H1       HT       0.417000       1.00800           0
     78991 TIP3     23025    TIP3     H2       HT       0.417000       1.00800           0
     78992 TIP3     23026    TIP3     OH2      OT      -0.834000       15.9994           0
     78993 TIP3     23026    TIP3     H1       HT       0.417000       1.00800           0
     78994 TIP3     23026    TIP3     H2       HT       0.417000       1.00800           0
     78995 TIP3     23027    TIP3     OH2      OT      -0.834000       15.9994           0
     78996 TIP3     23027    TIP3     H1       HT       0.417000       1.00800           0
     78997 TIP3     23027    TIP3     H2       HT       0.417000       1.00800           0
     78998 TIP3     23028    TIP3     OH2      OT      -0.834000       15.9994           0
     78999 TIP3     23028    TIP3     H1       HT       0.417000       1.00800           0
     79000 TIP3     23028    TIP3     H2       HT       0.417000       1.00800           0
     79001 TIP3     23029    TIP3     OH2      OT      -0.834000       15.9994           0
     79002 TIP3     23029    TIP3     H1       HT       0.417000       1.00800           0
     79003 TIP3     23029    TIP3     H2       HT       0.417000       1.00800           0
     79004 TIP3     23030    TIP3     OH2      OT      -0.834000       15.9994           0
     79005 TIP3     23030    TIP3     H1       HT       0.417000       1.00800           0
     79006 TIP3     23030    TIP3     H2       HT       0.417000       1.00800           0
     79007 TIP3     23031    TIP3     OH2      OT      -0.834000       15.9994           0
     79008 TIP3     23031    TIP3     H1       HT       0.417000       1.00800           0
     79009 TIP3     23031    TIP3     H2       HT       0.417000       1.00800           0
     79010 TIP3     23032    TIP3     OH2      OT      -0.834000       15.9994           0
     79011 TIP3     23032    TIP3     H1       HT       0.417000       1.00800           0
     79012 TIP3     23032    TIP3     H2       HT       0.417000       1.00800           0
     79013 TIP3     23033    TIP3     OH2      OT      -0.834000       15.9994           0
     79014 TIP3     23033    TIP3     H1       HT       0.417000       1.00800           0
     79015 TIP3     23033    TIP3     H2       HT       0.417000       1.00800           0
     79016 TIP3     23034    TIP3     OH2      OT      -0.834000       15.9994           0
     79017 TIP3     23034    TIP3     H1       HT       0.417000       1.00800           0
     79018 TIP3     23034    TIP3     H2       HT       0.417000       1.00800           0
     79019 TIP3     23035    TIP3     OH2      OT      -0.834000       15.9994           0
     79020 TIP3     23035    TIP3     H1       HT       0.417000       1.00800           0
     79021 TIP3     23035    TIP3     H2       HT       0.417000       1.00800           0
     79022 TIP3     23036    TIP3     OH2      OT      -0.834000       15.9994           0
     79023 TIP3     23036    TIP3     H1       HT       0.417000       1.00800           0
     79024 TIP3     23036    TIP3     H2       HT       0.417000       1.00800           0
     79025 TIP3     23037    TIP3     OH2      OT      -0.834000       15.9994           0
     79026 TIP3     23037    TIP3     H1       HT       0.417000       1.00800           0
     79027 TIP3     23037    TIP3     H2       HT       0.417000       1.00800           0
     79028 TIP3     23038    TIP3     OH2      OT      -0.834000       15.9994           0
     79029 TIP3     23038    TIP3     H1       HT       0.417000       1.00800           0
     79030 TIP3     23038    TIP3     H2       HT       0.417000       1.00800           0
     79031 TIP3     23039    TIP3     OH2      OT      -0.834000       15.9994           0
     79032 TIP3     23039    TIP3     H1       HT       0.417000       1.00800           0
     79033 TIP3     23039    TIP3     H2       HT       0.417000       1.00800           0
     79034 TIP3     23040    TIP3     OH2      OT      -0.834000       15.9994           0
     79035 TIP3     23040    TIP3     H1       HT       0.417000       1.00800           0
     79036 TIP3     23040    TIP3     H2       HT       0.417000       1.00800           0
     79037 TIP3     23041    TIP3     OH2      OT      -0.834000       15.9994           0
     79038 TIP3     23041    TIP3     H1       HT       0.417000       1.00800           0
     79039 TIP3     23041    TIP3     H2       HT       0.417000       1.00800           0
     79040 TIP3     23042    TIP3     OH2      OT      -0.834000       15.9994           0
     79041 TIP3     23042    TIP3     H1       HT       0.417000       1.00800           0
     79042 TIP3     23042    TIP3     H2       HT       0.417000       1.00800           0
     79043 TIP3     23043    TIP3     OH2      OT      -0.834000       15.9994           0
     79044 TIP3     23043    TIP3     H1       HT       0.417000       1.00800           0
     79045 TIP3     23043    TIP3     H2       HT       0.417000       1.00800           0
     79046 TIP3     23044    TIP3     OH2      OT      -0.834000       15.9994           0
     79047 TIP3     23044    TIP3     H1       HT       0.417000       1.00800           0
     79048 TIP3     23044    TIP3     H2       HT       0.417000       1.00800           0
     79049 TIP3     23045    TIP3     OH2      OT      -0.834000       15.9994           0
     79050 TIP3     23045    TIP3     H1       HT       0.417000       1.00800           0
     79051 TIP3     23045    TIP3     H2       HT       0.417000       1.00800           0
     79052 TIP3     23046    TIP3     OH2      OT      -0.834000       15.9994           0
     79053 TIP3     23046    TIP3     H1       HT       0.417000       1.00800           0
     79054 TIP3     23046    TIP3     H2       HT       0.417000       1.00800           0
     79055 TIP3     23047    TIP3     OH2      OT      -0.834000       15.9994           0
     79056 TIP3     23047    TIP3     H1       HT       0.417000       1.00800           0
     79057 TIP3     23047    TIP3     H2       HT       0.417000       1.00800           0
     79058 TIP3     23048    TIP3     OH2      OT      -0.834000       15.9994           0
     79059 TIP3     23048    TIP3     H1       HT       0.417000       1.00800           0
     79060 TIP3     23048    TIP3     H2       HT       0.417000       1.00800           0
     79061 TIP3     23049    TIP3     OH2      OT      -0.834000       15.9994           0
     79062 TIP3     23049    TIP3     H1       HT       0.417000       1.00800           0
     79063 TIP3     23049    TIP3     H2       HT       0.417000       1.00800           0
     79064 TIP3     23050    TIP3     OH2      OT      -0.834000       15.9994           0
     79065 TIP3     23050    TIP3     H1       HT       0.417000       1.00800           0
     79066 TIP3     23050    TIP3     H2       HT       0.417000       1.00800           0
     79067 TIP3     23051    TIP3     OH2      OT      -0.834000       15.9994           0
     79068 TIP3     23051    TIP3     H1       HT       0.417000       1.00800           0
     79069 TIP3     23051    TIP3     H2       HT       0.417000       1.00800           0
     79070 TIP3     23052    TIP3     OH2      OT      -0.834000       15.9994           0
     79071 TIP3     23052    TIP3     H1       HT       0.417000       1.00800           0
     79072 TIP3     23052    TIP3     H2       HT       0.417000       1.00800           0
     79073 TIP3     23053    TIP3     OH2      OT      -0.834000       15.9994           0
     79074 TIP3     23053    TIP3     H1       HT       0.417000       1.00800           0
     79075 TIP3     23053    TIP3     H2       HT       0.417000       1.00800           0
     79076 TIP3     23054    TIP3     OH2      OT      -0.834000       15.9994           0
     79077 TIP3     23054    TIP3     H1       HT       0.417000       1.00800           0
     79078 TIP3     23054    TIP3     H2       HT       0.417000       1.00800           0
     79079 TIP3     23055    TIP3     OH2      OT      -0.834000       15.9994           0
     79080 TIP3     23055    TIP3     H1       HT       0.417000       1.00800           0
     79081 TIP3     23055    TIP3     H2       HT       0.417000       1.00800           0
     79082 TIP3     23056    TIP3     OH2      OT      -0.834000       15.9994           0
     79083 TIP3     23056    TIP3     H1       HT       0.417000       1.00800           0
     79084 TIP3     23056    TIP3     H2       HT       0.417000       1.00800           0
     79085 TIP3     23057    TIP3     OH2      OT      -0.834000       15.9994           0
     79086 TIP3     23057    TIP3     H1       HT       0.417000       1.00800           0
     79087 TIP3     23057    TIP3     H2       HT       0.417000       1.00800           0
     79088 TIP3     23058    TIP3     OH2      OT      -0.834000       15.9994           0
     79089 TIP3     23058    TIP3     H1       HT       0.417000       1.00800           0
     79090 TIP3     23058    TIP3     H2       HT       0.417000       1.00800           0
     79091 TIP3     23059    TIP3     OH2      OT      -0.834000       15.9994           0
     79092 TIP3     23059    TIP3     H1       HT       0.417000       1.00800           0
     79093 TIP3     23059    TIP3     H2       HT       0.417000       1.00800           0
     79094 TIP3     23060    TIP3     OH2      OT      -0.834000       15.9994           0
     79095 TIP3     23060    TIP3     H1       HT       0.417000       1.00800           0
     79096 TIP3     23060    TIP3     H2       HT       0.417000       1.00800           0
     79097 TIP3     23061    TIP3     OH2      OT      -0.834000       15.9994           0
     79098 TIP3     23061    TIP3     H1       HT       0.417000       1.00800           0
     79099 TIP3     23061    TIP3     H2       HT       0.417000       1.00800           0
     79100 TIP3     23062    TIP3     OH2      OT      -0.834000       15.9994           0
     79101 TIP3     23062    TIP3     H1       HT       0.417000       1.00800           0
     79102 TIP3     23062    TIP3     H2       HT       0.417000       1.00800           0
     79103 TIP3     23063    TIP3     OH2      OT      -0.834000       15.9994           0
     79104 TIP3     23063    TIP3     H1       HT       0.417000       1.00800           0
     79105 TIP3     23063    TIP3     H2       HT       0.417000       1.00800           0
     79106 TIP3     23064    TIP3     OH2      OT      -0.834000       15.9994           0
     79107 TIP3     23064    TIP3     H1       HT       0.417000       1.00800           0
     79108 TIP3     23064    TIP3     H2       HT       0.417000       1.00800           0
     79109 TIP3     23065    TIP3     OH2      OT      -0.834000       15.9994           0
     79110 TIP3     23065    TIP3     H1       HT       0.417000       1.00800           0
     79111 TIP3     23065    TIP3     H2       HT       0.417000       1.00800           0
     79112 TIP3     23066    TIP3     OH2      OT      -0.834000       15.9994           0
     79113 TIP3     23066    TIP3     H1       HT       0.417000       1.00800           0
     79114 TIP3     23066    TIP3     H2       HT       0.417000       1.00800           0
     79115 TIP3     23067    TIP3     OH2      OT      -0.834000       15.9994           0
     79116 TIP3     23067    TIP3     H1       HT       0.417000       1.00800           0
     79117 TIP3     23067    TIP3     H2       HT       0.417000       1.00800           0
     79118 TIP3     23068    TIP3     OH2      OT      -0.834000       15.9994           0
     79119 TIP3     23068    TIP3     H1       HT       0.417000       1.00800           0
     79120 TIP3     23068    TIP3     H2       HT       0.417000       1.00800           0
     79121 TIP3     23069    TIP3     OH2      OT      -0.834000       15.9994           0
     79122 TIP3     23069    TIP3     H1       HT       0.417000       1.00800           0
     79123 TIP3     23069    TIP3     H2       HT       0.417000       1.00800           0
     79124 TIP3     23070    TIP3     OH2      OT      -0.834000       15.9994           0
     79125 TIP3     23070    TIP3     H1       HT       0.417000       1.00800           0
     79126 TIP3     23070    TIP3     H2       HT       0.417000       1.00800           0
     79127 TIP3     23071    TIP3     OH2      OT      -0.834000       15.9994           0
     79128 TIP3     23071    TIP3     H1       HT       0.417000       1.00800           0
     79129 TIP3     23071    TIP3     H2       HT       0.417000       1.00800           0
     79130 TIP3     23072    TIP3     OH2      OT      -0.834000       15.9994           0
     79131 TIP3     23072    TIP3     H1       HT       0.417000       1.00800           0
     79132 TIP3     23072    TIP3     H2       HT       0.417000       1.00800           0
     79133 TIP3     23073    TIP3     OH2      OT      -0.834000       15.9994           0
     79134 TIP3     23073    TIP3     H1       HT       0.417000       1.00800           0
     79135 TIP3     23073    TIP3     H2       HT       0.417000       1.00800           0
     79136 TIP3     23074    TIP3     OH2      OT      -0.834000       15.9994           0
     79137 TIP3     23074    TIP3     H1       HT       0.417000       1.00800           0
     79138 TIP3     23074    TIP3     H2       HT       0.417000       1.00800           0
     79139 TIP3     23075    TIP3     OH2      OT      -0.834000       15.9994           0
     79140 TIP3     23075    TIP3     H1       HT       0.417000       1.00800           0
     79141 TIP3     23075    TIP3     H2       HT       0.417000       1.00800           0
     79142 TIP3     23076    TIP3     OH2      OT      -0.834000       15.9994           0
     79143 TIP3     23076    TIP3     H1       HT       0.417000       1.00800           0
     79144 TIP3     23076    TIP3     H2       HT       0.417000       1.00800           0
     79145 TIP3     23077    TIP3     OH2      OT      -0.834000       15.9994           0
     79146 TIP3     23077    TIP3     H1       HT       0.417000       1.00800           0
     79147 TIP3     23077    TIP3     H2       HT       0.417000       1.00800           0
     79148 TIP3     23078    TIP3     OH2      OT      -0.834000       15.9994           0
     79149 TIP3     23078    TIP3     H1       HT       0.417000       1.00800           0
     79150 TIP3     23078    TIP3     H2       HT       0.417000       1.00800           0
     79151 TIP3     23079    TIP3     OH2      OT      -0.834000       15.9994           0
     79152 TIP3     23079    TIP3     H1       HT       0.417000       1.00800           0
     79153 TIP3     23079    TIP3     H2       HT       0.417000       1.00800           0
     79154 TIP3     23080    TIP3     OH2      OT      -0.834000       15.9994           0
     79155 TIP3     23080    TIP3     H1       HT       0.417000       1.00800           0
     79156 TIP3     23080    TIP3     H2       HT       0.417000       1.00800           0
     79157 TIP3     23081    TIP3     OH2      OT      -0.834000       15.9994           0
     79158 TIP3     23081    TIP3     H1       HT       0.417000       1.00800           0
     79159 TIP3     23081    TIP3     H2       HT       0.417000       1.00800           0
     79160 TIP3     23082    TIP3     OH2      OT      -0.834000       15.9994           0
     79161 TIP3     23082    TIP3     H1       HT       0.417000       1.00800           0
     79162 TIP3     23082    TIP3     H2       HT       0.417000       1.00800           0
     79163 TIP3     23083    TIP3     OH2      OT      -0.834000       15.9994           0
     79164 TIP3     23083    TIP3     H1       HT       0.417000       1.00800           0
     79165 TIP3     23083    TIP3     H2       HT       0.417000       1.00800           0
     79166 TIP3     23084    TIP3     OH2      OT      -0.834000       15.9994           0
     79167 TIP3     23084    TIP3     H1       HT       0.417000       1.00800           0
     79168 TIP3     23084    TIP3     H2       HT       0.417000       1.00800           0
     79169 TIP3     23085    TIP3     OH2      OT      -0.834000       15.9994           0
     79170 TIP3     23085    TIP3     H1       HT       0.417000       1.00800           0
     79171 TIP3     23085    TIP3     H2       HT       0.417000       1.00800           0
     79172 TIP3     23086    TIP3     OH2      OT      -0.834000       15.9994           0
     79173 TIP3     23086    TIP3     H1       HT       0.417000       1.00800           0
     79174 TIP3     23086    TIP3     H2       HT       0.417000       1.00800           0
     79175 TIP3     23087    TIP3     OH2      OT      -0.834000       15.9994           0
     79176 TIP3     23087    TIP3     H1       HT       0.417000       1.00800           0
     79177 TIP3     23087    TIP3     H2       HT       0.417000       1.00800           0
     79178 TIP3     23088    TIP3     OH2      OT      -0.834000       15.9994           0
     79179 TIP3     23088    TIP3     H1       HT       0.417000       1.00800           0
     79180 TIP3     23088    TIP3     H2       HT       0.417000       1.00800           0
     79181 TIP3     23089    TIP3     OH2      OT      -0.834000       15.9994           0
     79182 TIP3     23089    TIP3     H1       HT       0.417000       1.00800           0
     79183 TIP3     23089    TIP3     H2       HT       0.417000       1.00800           0
     79184 TIP3     23090    TIP3     OH2      OT      -0.834000       15.9994           0
     79185 TIP3     23090    TIP3     H1       HT       0.417000       1.00800           0
     79186 TIP3     23090    TIP3     H2       HT       0.417000       1.00800           0
     79187 TIP3     23091    TIP3     OH2      OT      -0.834000       15.9994           0
     79188 TIP3     23091    TIP3     H1       HT       0.417000       1.00800           0
     79189 TIP3     23091    TIP3     H2       HT       0.417000       1.00800           0
     79190 TIP3     23092    TIP3     OH2      OT      -0.834000       15.9994           0
     79191 TIP3     23092    TIP3     H1       HT       0.417000       1.00800           0
     79192 TIP3     23092    TIP3     H2       HT       0.417000       1.00800           0
     79193 TIP3     23093    TIP3     OH2      OT      -0.834000       15.9994           0
     79194 TIP3     23093    TIP3     H1       HT       0.417000       1.00800           0
     79195 TIP3     23093    TIP3     H2       HT       0.417000       1.00800           0
     79196 TIP3     23094    TIP3     OH2      OT      -0.834000       15.9994           0
     79197 TIP3     23094    TIP3     H1       HT       0.417000       1.00800           0
     79198 TIP3     23094    TIP3     H2       HT       0.417000       1.00800           0
     79199 TIP3     23095    TIP3     OH2      OT      -0.834000       15.9994           0
     79200 TIP3     23095    TIP3     H1       HT       0.417000       1.00800           0
     79201 TIP3     23095    TIP3     H2       HT       0.417000       1.00800           0
     79202 TIP3     23096    TIP3     OH2      OT      -0.834000       15.9994           0
     79203 TIP3     23096    TIP3     H1       HT       0.417000       1.00800           0
     79204 TIP3     23096    TIP3     H2       HT       0.417000       1.00800           0
     79205 TIP3     23097    TIP3     OH2      OT      -0.834000       15.9994           0
     79206 TIP3     23097    TIP3     H1       HT       0.417000       1.00800           0
     79207 TIP3     23097    TIP3     H2       HT       0.417000       1.00800           0
     79208 TIP3     23098    TIP3     OH2      OT      -0.834000       15.9994           0
     79209 TIP3     23098    TIP3     H1       HT       0.417000       1.00800           0
     79210 TIP3     23098    TIP3     H2       HT       0.417000       1.00800           0
     79211 TIP3     23099    TIP3     OH2      OT      -0.834000       15.9994           0
     79212 TIP3     23099    TIP3     H1       HT       0.417000       1.00800           0
     79213 TIP3     23099    TIP3     H2       HT       0.417000       1.00800           0
     79214 TIP3     23100    TIP3     OH2      OT      -0.834000       15.9994           0
     79215 TIP3     23100    TIP3     H1       HT       0.417000       1.00800           0
     79216 TIP3     23100    TIP3     H2       HT       0.417000       1.00800           0
     79217 TIP3     23101    TIP3     OH2      OT      -0.834000       15.9994           0
     79218 TIP3     23101    TIP3     H1       HT       0.417000       1.00800           0
     79219 TIP3     23101    TIP3     H2       HT       0.417000       1.00800           0
     79220 TIP3     23102    TIP3     OH2      OT      -0.834000       15.9994           0
     79221 TIP3     23102    TIP3     H1       HT       0.417000       1.00800           0
     79222 TIP3     23102    TIP3     H2       HT       0.417000       1.00800           0
     79223 TIP3     23103    TIP3     OH2      OT      -0.834000       15.9994           0
     79224 TIP3     23103    TIP3     H1       HT       0.417000       1.00800           0
     79225 TIP3     23103    TIP3     H2       HT       0.417000       1.00800           0
     79226 TIP3     23104    TIP3     OH2      OT      -0.834000       15.9994           0
     79227 TIP3     23104    TIP3     H1       HT       0.417000       1.00800           0
     79228 TIP3     23104    TIP3     H2       HT       0.417000       1.00800           0
     79229 TIP3     23105    TIP3     OH2      OT      -0.834000       15.9994           0
     79230 TIP3     23105    TIP3     H1       HT       0.417000       1.00800           0
     79231 TIP3     23105    TIP3     H2       HT       0.417000       1.00800           0
     79232 TIP3     23106    TIP3     OH2      OT      -0.834000       15.9994           0
     79233 TIP3     23106    TIP3     H1       HT       0.417000       1.00800           0
     79234 TIP3     23106    TIP3     H2       HT       0.417000       1.00800           0
     79235 TIP3     23107    TIP3     OH2      OT      -0.834000       15.9994           0
     79236 TIP3     23107    TIP3     H1       HT       0.417000       1.00800           0
     79237 TIP3     23107    TIP3     H2       HT       0.417000       1.00800           0
     79238 TIP3     23108    TIP3     OH2      OT      -0.834000       15.9994           0
     79239 TIP3     23108    TIP3     H1       HT       0.417000       1.00800           0
     79240 TIP3     23108    TIP3     H2       HT       0.417000       1.00800           0
     79241 TIP3     23109    TIP3     OH2      OT      -0.834000       15.9994           0
     79242 TIP3     23109    TIP3     H1       HT       0.417000       1.00800           0
     79243 TIP3     23109    TIP3     H2       HT       0.417000       1.00800           0
     79244 TIP3     23110    TIP3     OH2      OT      -0.834000       15.9994           0
     79245 TIP3     23110    TIP3     H1       HT       0.417000       1.00800           0
     79246 TIP3     23110    TIP3     H2       HT       0.417000       1.00800           0
     79247 TIP3     23111    TIP3     OH2      OT      -0.834000       15.9994           0
     79248 TIP3     23111    TIP3     H1       HT       0.417000       1.00800           0
     79249 TIP3     23111    TIP3     H2       HT       0.417000       1.00800           0
     79250 TIP3     23112    TIP3     OH2      OT      -0.834000       15.9994           0
     79251 TIP3     23112    TIP3     H1       HT       0.417000       1.00800           0
     79252 TIP3     23112    TIP3     H2       HT       0.417000       1.00800           0
     79253 TIP3     23113    TIP3     OH2      OT      -0.834000       15.9994           0
     79254 TIP3     23113    TIP3     H1       HT       0.417000       1.00800           0
     79255 TIP3     23113    TIP3     H2       HT       0.417000       1.00800           0
     79256 TIP3     23114    TIP3     OH2      OT      -0.834000       15.9994           0
     79257 TIP3     23114    TIP3     H1       HT       0.417000       1.00800           0
     79258 TIP3     23114    TIP3     H2       HT       0.417000       1.00800           0
     79259 TIP3     23115    TIP3     OH2      OT      -0.834000       15.9994           0
     79260 TIP3     23115    TIP3     H1       HT       0.417000       1.00800           0
     79261 TIP3     23115    TIP3     H2       HT       0.417000       1.00800           0
     79262 TIP3     23116    TIP3     OH2      OT      -0.834000       15.9994           0
     79263 TIP3     23116    TIP3     H1       HT       0.417000       1.00800           0
     79264 TIP3     23116    TIP3     H2       HT       0.417000       1.00800           0
     79265 TIP3     23117    TIP3     OH2      OT      -0.834000       15.9994           0
     79266 TIP3     23117    TIP3     H1       HT       0.417000       1.00800           0
     79267 TIP3     23117    TIP3     H2       HT       0.417000       1.00800           0
     79268 TIP3     23118    TIP3     OH2      OT      -0.834000       15.9994           0
     79269 TIP3     23118    TIP3     H1       HT       0.417000       1.00800           0
     79270 TIP3     23118    TIP3     H2       HT       0.417000       1.00800           0
     79271 TIP3     23119    TIP3     OH2      OT      -0.834000       15.9994           0
     79272 TIP3     23119    TIP3     H1       HT       0.417000       1.00800           0
     79273 TIP3     23119    TIP3     H2       HT       0.417000       1.00800           0
     79274 TIP3     23120    TIP3     OH2      OT      -0.834000       15.9994           0
     79275 TIP3     23120    TIP3     H1       HT       0.417000       1.00800           0
     79276 TIP3     23120    TIP3     H2       HT       0.417000       1.00800           0
     79277 TIP3     23121    TIP3     OH2      OT      -0.834000       15.9994           0
     79278 TIP3     23121    TIP3     H1       HT       0.417000       1.00800           0
     79279 TIP3     23121    TIP3     H2       HT       0.417000       1.00800           0
     79280 TIP3     23122    TIP3     OH2      OT      -0.834000       15.9994           0
     79281 TIP3     23122    TIP3     H1       HT       0.417000       1.00800           0
     79282 TIP3     23122    TIP3     H2       HT       0.417000       1.00800           0
     79283 TIP3     23123    TIP3     OH2      OT      -0.834000       15.9994           0
     79284 TIP3     23123    TIP3     H1       HT       0.417000       1.00800           0
     79285 TIP3     23123    TIP3     H2       HT       0.417000       1.00800           0
     79286 TIP3     23124    TIP3     OH2      OT      -0.834000       15.9994           0
     79287 TIP3     23124    TIP3     H1       HT       0.417000       1.00800           0
     79288 TIP3     23124    TIP3     H2       HT       0.417000       1.00800           0
     79289 TIP3     23125    TIP3     OH2      OT      -0.834000       15.9994           0
     79290 TIP3     23125    TIP3     H1       HT       0.417000       1.00800           0
     79291 TIP3     23125    TIP3     H2       HT       0.417000       1.00800           0
     79292 TIP3     23126    TIP3     OH2      OT      -0.834000       15.9994           0
     79293 TIP3     23126    TIP3     H1       HT       0.417000       1.00800           0
     79294 TIP3     23126    TIP3     H2       HT       0.417000       1.00800           0
     79295 TIP3     23127    TIP3     OH2      OT      -0.834000       15.9994           0
     79296 TIP3     23127    TIP3     H1       HT       0.417000       1.00800           0
     79297 TIP3     23127    TIP3     H2       HT       0.417000       1.00800           0
     79298 TIP3     23128    TIP3     OH2      OT      -0.834000       15.9994           0
     79299 TIP3     23128    TIP3     H1       HT       0.417000       1.00800           0
     79300 TIP3     23128    TIP3     H2       HT       0.417000       1.00800           0
     79301 TIP3     23129    TIP3     OH2      OT      -0.834000       15.9994           0
     79302 TIP3     23129    TIP3     H1       HT       0.417000       1.00800           0
     79303 TIP3     23129    TIP3     H2       HT       0.417000       1.00800           0
     79304 TIP3     23130    TIP3     OH2      OT      -0.834000       15.9994           0
     79305 TIP3     23130    TIP3     H1       HT       0.417000       1.00800           0
     79306 TIP3     23130    TIP3     H2       HT       0.417000       1.00800           0
     79307 TIP3     23131    TIP3     OH2      OT      -0.834000       15.9994           0
     79308 TIP3     23131    TIP3     H1       HT       0.417000       1.00800           0
     79309 TIP3     23131    TIP3     H2       HT       0.417000       1.00800           0
     79310 TIP3     23132    TIP3     OH2      OT      -0.834000       15.9994           0
     79311 TIP3     23132    TIP3     H1       HT       0.417000       1.00800           0
     79312 TIP3     23132    TIP3     H2       HT       0.417000       1.00800           0
     79313 TIP3     23133    TIP3     OH2      OT      -0.834000       15.9994           0
     79314 TIP3     23133    TIP3     H1       HT       0.417000       1.00800           0
     79315 TIP3     23133    TIP3     H2       HT       0.417000       1.00800           0
     79316 TIP3     23134    TIP3     OH2      OT      -0.834000       15.9994           0
     79317 TIP3     23134    TIP3     H1       HT       0.417000       1.00800           0
     79318 TIP3     23134    TIP3     H2       HT       0.417000       1.00800           0
     79319 TIP3     23135    TIP3     OH2      OT      -0.834000       15.9994           0
     79320 TIP3     23135    TIP3     H1       HT       0.417000       1.00800           0
     79321 TIP3     23135    TIP3     H2       HT       0.417000       1.00800           0
     79322 TIP3     23136    TIP3     OH2      OT      -0.834000       15.9994           0
     79323 TIP3     23136    TIP3     H1       HT       0.417000       1.00800           0
     79324 TIP3     23136    TIP3     H2       HT       0.417000       1.00800           0
     79325 TIP3     23137    TIP3     OH2      OT      -0.834000       15.9994           0
     79326 TIP3     23137    TIP3     H1       HT       0.417000       1.00800           0
     79327 TIP3     23137    TIP3     H2       HT       0.417000       1.00800           0
     79328 TIP3     23138    TIP3     OH2      OT      -0.834000       15.9994           0
     79329 TIP3     23138    TIP3     H1       HT       0.417000       1.00800           0
     79330 TIP3     23138    TIP3     H2       HT       0.417000       1.00800           0
     79331 TIP3     23139    TIP3     OH2      OT      -0.834000       15.9994           0
     79332 TIP3     23139    TIP3     H1       HT       0.417000       1.00800           0
     79333 TIP3     23139    TIP3     H2       HT       0.417000       1.00800           0
     79334 TIP3     23140    TIP3     OH2      OT      -0.834000       15.9994           0
     79335 TIP3     23140    TIP3     H1       HT       0.417000       1.00800           0
     79336 TIP3     23140    TIP3     H2       HT       0.417000       1.00800           0
     79337 TIP3     23141    TIP3     OH2      OT      -0.834000       15.9994           0
     79338 TIP3     23141    TIP3     H1       HT       0.417000       1.00800           0
     79339 TIP3     23141    TIP3     H2       HT       0.417000       1.00800           0
     79340 TIP3     23142    TIP3     OH2      OT      -0.834000       15.9994           0
     79341 TIP3     23142    TIP3     H1       HT       0.417000       1.00800           0
     79342 TIP3     23142    TIP3     H2       HT       0.417000       1.00800           0
     79343 TIP3     23143    TIP3     OH2      OT      -0.834000       15.9994           0
     79344 TIP3     23143    TIP3     H1       HT       0.417000       1.00800           0
     79345 TIP3     23143    TIP3     H2       HT       0.417000       1.00800           0
     79346 TIP3     23144    TIP3     OH2      OT      -0.834000       15.9994           0
     79347 TIP3     23144    TIP3     H1       HT       0.417000       1.00800           0
     79348 TIP3     23144    TIP3     H2       HT       0.417000       1.00800           0
     79349 TIP3     23145    TIP3     OH2      OT      -0.834000       15.9994           0
     79350 TIP3     23145    TIP3     H1       HT       0.417000       1.00800           0
     79351 TIP3     23145    TIP3     H2       HT       0.417000       1.00800           0
     79352 TIP3     23146    TIP3     OH2      OT      -0.834000       15.9994           0
     79353 TIP3     23146    TIP3     H1       HT       0.417000       1.00800           0
     79354 TIP3     23146    TIP3     H2       HT       0.417000       1.00800           0
     79355 TIP3     23147    TIP3     OH2      OT      -0.834000       15.9994           0
     79356 TIP3     23147    TIP3     H1       HT       0.417000       1.00800           0
     79357 TIP3     23147    TIP3     H2       HT       0.417000       1.00800           0
     79358 TIP3     23148    TIP3     OH2      OT      -0.834000       15.9994           0
     79359 TIP3     23148    TIP3     H1       HT       0.417000       1.00800           0
     79360 TIP3     23148    TIP3     H2       HT       0.417000       1.00800           0
     79361 TIP3     23149    TIP3     OH2      OT      -0.834000       15.9994           0
     79362 TIP3     23149    TIP3     H1       HT       0.417000       1.00800           0
     79363 TIP3     23149    TIP3     H2       HT       0.417000       1.00800           0
     79364 TIP3     23150    TIP3     OH2      OT      -0.834000       15.9994           0
     79365 TIP3     23150    TIP3     H1       HT       0.417000       1.00800           0
     79366 TIP3     23150    TIP3     H2       HT       0.417000       1.00800           0
     79367 TIP3     23151    TIP3     OH2      OT      -0.834000       15.9994           0
     79368 TIP3     23151    TIP3     H1       HT       0.417000       1.00800           0
     79369 TIP3     23151    TIP3     H2       HT       0.417000       1.00800           0
     79370 TIP3     23152    TIP3     OH2      OT      -0.834000       15.9994           0
     79371 TIP3     23152    TIP3     H1       HT       0.417000       1.00800           0
     79372 TIP3     23152    TIP3     H2       HT       0.417000       1.00800           0
     79373 TIP3     23153    TIP3     OH2      OT      -0.834000       15.9994           0
     79374 TIP3     23153    TIP3     H1       HT       0.417000       1.00800           0
     79375 TIP3     23153    TIP3     H2       HT       0.417000       1.00800           0
     79376 TIP3     23154    TIP3     OH2      OT      -0.834000       15.9994           0
     79377 TIP3     23154    TIP3     H1       HT       0.417000       1.00800           0
     79378 TIP3     23154    TIP3     H2       HT       0.417000       1.00800           0
     79379 TIP3     23155    TIP3     OH2      OT      -0.834000       15.9994           0
     79380 TIP3     23155    TIP3     H1       HT       0.417000       1.00800           0
     79381 TIP3     23155    TIP3     H2       HT       0.417000       1.00800           0
     79382 TIP3     23156    TIP3     OH2      OT      -0.834000       15.9994           0
     79383 TIP3     23156    TIP3     H1       HT       0.417000       1.00800           0
     79384 TIP3     23156    TIP3     H2       HT       0.417000       1.00800           0
     79385 TIP3     23157    TIP3     OH2      OT      -0.834000       15.9994           0
     79386 TIP3     23157    TIP3     H1       HT       0.417000       1.00800           0
     79387 TIP3     23157    TIP3     H2       HT       0.417000       1.00800           0
     79388 TIP3     23158    TIP3     OH2      OT      -0.834000       15.9994           0
     79389 TIP3     23158    TIP3     H1       HT       0.417000       1.00800           0
     79390 TIP3     23158    TIP3     H2       HT       0.417000       1.00800           0
     79391 TIP3     23159    TIP3     OH2      OT      -0.834000       15.9994           0
     79392 TIP3     23159    TIP3     H1       HT       0.417000       1.00800           0
     79393 TIP3     23159    TIP3     H2       HT       0.417000       1.00800           0
     79394 TIP3     23160    TIP3     OH2      OT      -0.834000       15.9994           0
     79395 TIP3     23160    TIP3     H1       HT       0.417000       1.00800           0
     79396 TIP3     23160    TIP3     H2       HT       0.417000       1.00800           0
     79397 TIP3     23161    TIP3     OH2      OT      -0.834000       15.9994           0
     79398 TIP3     23161    TIP3     H1       HT       0.417000       1.00800           0
     79399 TIP3     23161    TIP3     H2       HT       0.417000       1.00800           0
     79400 TIP3     23162    TIP3     OH2      OT      -0.834000       15.9994           0
     79401 TIP3     23162    TIP3     H1       HT       0.417000       1.00800           0
     79402 TIP3     23162    TIP3     H2       HT       0.417000       1.00800           0
     79403 TIP3     23163    TIP3     OH2      OT      -0.834000       15.9994           0
     79404 TIP3     23163    TIP3     H1       HT       0.417000       1.00800           0
     79405 TIP3     23163    TIP3     H2       HT       0.417000       1.00800           0
     79406 TIP3     23164    TIP3     OH2      OT      -0.834000       15.9994           0
     79407 TIP3     23164    TIP3     H1       HT       0.417000       1.00800           0
     79408 TIP3     23164    TIP3     H2       HT       0.417000       1.00800           0
     79409 TIP3     23165    TIP3     OH2      OT      -0.834000       15.9994           0
     79410 TIP3     23165    TIP3     H1       HT       0.417000       1.00800           0
     79411 TIP3     23165    TIP3     H2       HT       0.417000       1.00800           0
     79412 TIP3     23166    TIP3     OH2      OT      -0.834000       15.9994           0
     79413 TIP3     23166    TIP3     H1       HT       0.417000       1.00800           0
     79414 TIP3     23166    TIP3     H2       HT       0.417000       1.00800           0
     79415 TIP3     23167    TIP3     OH2      OT      -0.834000       15.9994           0
     79416 TIP3     23167    TIP3     H1       HT       0.417000       1.00800           0
     79417 TIP3     23167    TIP3     H2       HT       0.417000       1.00800           0
     79418 TIP3     23168    TIP3     OH2      OT      -0.834000       15.9994           0
     79419 TIP3     23168    TIP3     H1       HT       0.417000       1.00800           0
     79420 TIP3     23168    TIP3     H2       HT       0.417000       1.00800           0
     79421 TIP3     23169    TIP3     OH2      OT      -0.834000       15.9994           0
     79422 TIP3     23169    TIP3     H1       HT       0.417000       1.00800           0
     79423 TIP3     23169    TIP3     H2       HT       0.417000       1.00800           0
     79424 TIP3     23170    TIP3     OH2      OT      -0.834000       15.9994           0
     79425 TIP3     23170    TIP3     H1       HT       0.417000       1.00800           0
     79426 TIP3     23170    TIP3     H2       HT       0.417000       1.00800           0
     79427 TIP3     23171    TIP3     OH2      OT      -0.834000       15.9994           0
     79428 TIP3     23171    TIP3     H1       HT       0.417000       1.00800           0
     79429 TIP3     23171    TIP3     H2       HT       0.417000       1.00800           0
     79430 TIP3     23172    TIP3     OH2      OT      -0.834000       15.9994           0
     79431 TIP3     23172    TIP3     H1       HT       0.417000       1.00800           0
     79432 TIP3     23172    TIP3     H2       HT       0.417000       1.00800           0
     79433 TIP3     23173    TIP3     OH2      OT      -0.834000       15.9994           0
     79434 TIP3     23173    TIP3     H1       HT       0.417000       1.00800           0
     79435 TIP3     23173    TIP3     H2       HT       0.417000       1.00800           0
     79436 TIP3     23174    TIP3     OH2      OT      -0.834000       15.9994           0
     79437 TIP3     23174    TIP3     H1       HT       0.417000       1.00800           0
     79438 TIP3     23174    TIP3     H2       HT       0.417000       1.00800           0
     79439 TIP3     23175    TIP3     OH2      OT      -0.834000       15.9994           0
     79440 TIP3     23175    TIP3     H1       HT       0.417000       1.00800           0
     79441 TIP3     23175    TIP3     H2       HT       0.417000       1.00800           0
     79442 TIP3     23176    TIP3     OH2      OT      -0.834000       15.9994           0
     79443 TIP3     23176    TIP3     H1       HT       0.417000       1.00800           0
     79444 TIP3     23176    TIP3     H2       HT       0.417000       1.00800           0
     79445 TIP3     23177    TIP3     OH2      OT      -0.834000       15.9994           0
     79446 TIP3     23177    TIP3     H1       HT       0.417000       1.00800           0
     79447 TIP3     23177    TIP3     H2       HT       0.417000       1.00800           0
     79448 TIP3     23178    TIP3     OH2      OT      -0.834000       15.9994           0
     79449 TIP3     23178    TIP3     H1       HT       0.417000       1.00800           0
     79450 TIP3     23178    TIP3     H2       HT       0.417000       1.00800           0
     79451 TIP3     23179    TIP3     OH2      OT      -0.834000       15.9994           0
     79452 TIP3     23179    TIP3     H1       HT       0.417000       1.00800           0
     79453 TIP3     23179    TIP3     H2       HT       0.417000       1.00800           0
     79454 TIP3     23180    TIP3     OH2      OT      -0.834000       15.9994           0
     79455 TIP3     23180    TIP3     H1       HT       0.417000       1.00800           0
     79456 TIP3     23180    TIP3     H2       HT       0.417000       1.00800           0
     79457 TIP3     23181    TIP3     OH2      OT      -0.834000       15.9994           0
     79458 TIP3     23181    TIP3     H1       HT       0.417000       1.00800           0
     79459 TIP3     23181    TIP3     H2       HT       0.417000       1.00800           0
     79460 TIP3     23182    TIP3     OH2      OT      -0.834000       15.9994           0
     79461 TIP3     23182    TIP3     H1       HT       0.417000       1.00800           0
     79462 TIP3     23182    TIP3     H2       HT       0.417000       1.00800           0
     79463 TIP3     23183    TIP3     OH2      OT      -0.834000       15.9994           0
     79464 TIP3     23183    TIP3     H1       HT       0.417000       1.00800           0
     79465 TIP3     23183    TIP3     H2       HT       0.417000       1.00800           0
     79466 TIP3     23184    TIP3     OH2      OT      -0.834000       15.9994           0
     79467 TIP3     23184    TIP3     H1       HT       0.417000       1.00800           0
     79468 TIP3     23184    TIP3     H2       HT       0.417000       1.00800           0
     79469 TIP3     23185    TIP3     OH2      OT      -0.834000       15.9994           0
     79470 TIP3     23185    TIP3     H1       HT       0.417000       1.00800           0
     79471 TIP3     23185    TIP3     H2       HT       0.417000       1.00800           0
     79472 TIP3     23186    TIP3     OH2      OT      -0.834000       15.9994           0
     79473 TIP3     23186    TIP3     H1       HT       0.417000       1.00800           0
     79474 TIP3     23186    TIP3     H2       HT       0.417000       1.00800           0
     79475 TIP3     23187    TIP3     OH2      OT      -0.834000       15.9994           0
     79476 TIP3     23187    TIP3     H1       HT       0.417000       1.00800           0
     79477 TIP3     23187    TIP3     H2       HT       0.417000       1.00800           0
     79478 TIP3     23188    TIP3     OH2      OT      -0.834000       15.9994           0
     79479 TIP3     23188    TIP3     H1       HT       0.417000       1.00800           0
     79480 TIP3     23188    TIP3     H2       HT       0.417000       1.00800           0
     79481 TIP3     23189    TIP3     OH2      OT      -0.834000       15.9994           0
     79482 TIP3     23189    TIP3     H1       HT       0.417000       1.00800           0
     79483 TIP3     23189    TIP3     H2       HT       0.417000       1.00800           0
     79484 TIP3     23190    TIP3     OH2      OT      -0.834000       15.9994           0
     79485 TIP3     23190    TIP3     H1       HT       0.417000       1.00800           0
     79486 TIP3     23190    TIP3     H2       HT       0.417000       1.00800           0
     79487 TIP3     23191    TIP3     OH2      OT      -0.834000       15.9994           0
     79488 TIP3     23191    TIP3     H1       HT       0.417000       1.00800           0
     79489 TIP3     23191    TIP3     H2       HT       0.417000       1.00800           0
     79490 TIP3     23192    TIP3     OH2      OT      -0.834000       15.9994           0
     79491 TIP3     23192    TIP3     H1       HT       0.417000       1.00800           0
     79492 TIP3     23192    TIP3     H2       HT       0.417000       1.00800           0
     79493 TIP3     23193    TIP3     OH2      OT      -0.834000       15.9994           0
     79494 TIP3     23193    TIP3     H1       HT       0.417000       1.00800           0
     79495 TIP3     23193    TIP3     H2       HT       0.417000       1.00800           0
     79496 TIP3     23194    TIP3     OH2      OT      -0.834000       15.9994           0
     79497 TIP3     23194    TIP3     H1       HT       0.417000       1.00800           0
     79498 TIP3     23194    TIP3     H2       HT       0.417000       1.00800           0
     79499 TIP3     23195    TIP3     OH2      OT      -0.834000       15.9994           0
     79500 TIP3     23195    TIP3     H1       HT       0.417000       1.00800           0
     79501 TIP3     23195    TIP3     H2       HT       0.417000       1.00800           0
     79502 TIP3     23196    TIP3     OH2      OT      -0.834000       15.9994           0
     79503 TIP3     23196    TIP3     H1       HT       0.417000       1.00800           0
     79504 TIP3     23196    TIP3     H2       HT       0.417000       1.00800           0
     79505 TIP3     23197    TIP3     OH2      OT      -0.834000       15.9994           0
     79506 TIP3     23197    TIP3     H1       HT       0.417000       1.00800           0
     79507 TIP3     23197    TIP3     H2       HT       0.417000       1.00800           0
     79508 TIP3     23198    TIP3     OH2      OT      -0.834000       15.9994           0
     79509 TIP3     23198    TIP3     H1       HT       0.417000       1.00800           0
     79510 TIP3     23198    TIP3     H2       HT       0.417000       1.00800           0
     79511 TIP3     23199    TIP3     OH2      OT      -0.834000       15.9994           0
     79512 TIP3     23199    TIP3     H1       HT       0.417000       1.00800           0
     79513 TIP3     23199    TIP3     H2       HT       0.417000       1.00800           0
     79514 TIP3     23200    TIP3     OH2      OT      -0.834000       15.9994           0
     79515 TIP3     23200    TIP3     H1       HT       0.417000       1.00800           0
     79516 TIP3     23200    TIP3     H2       HT       0.417000       1.00800           0
     79517 TIP3     23201    TIP3     OH2      OT      -0.834000       15.9994           0
     79518 TIP3     23201    TIP3     H1       HT       0.417000       1.00800           0
     79519 TIP3     23201    TIP3     H2       HT       0.417000       1.00800           0
     79520 TIP3     23202    TIP3     OH2      OT      -0.834000       15.9994           0
     79521 TIP3     23202    TIP3     H1       HT       0.417000       1.00800           0
     79522 TIP3     23202    TIP3     H2       HT       0.417000       1.00800           0
     79523 TIP3     23203    TIP3     OH2      OT      -0.834000       15.9994           0
     79524 TIP3     23203    TIP3     H1       HT       0.417000       1.00800           0
     79525 TIP3     23203    TIP3     H2       HT       0.417000       1.00800           0
     79526 TIP3     23204    TIP3     OH2      OT      -0.834000       15.9994           0
     79527 TIP3     23204    TIP3     H1       HT       0.417000       1.00800           0
     79528 TIP3     23204    TIP3     H2       HT       0.417000       1.00800           0
     79529 TIP3     23205    TIP3     OH2      OT      -0.834000       15.9994           0
     79530 TIP3     23205    TIP3     H1       HT       0.417000       1.00800           0
     79531 TIP3     23205    TIP3     H2       HT       0.417000       1.00800           0
     79532 TIP3     23206    TIP3     OH2      OT      -0.834000       15.9994           0
     79533 TIP3     23206    TIP3     H1       HT       0.417000       1.00800           0
     79534 TIP3     23206    TIP3     H2       HT       0.417000       1.00800           0
     79535 TIP3     23207    TIP3     OH2      OT      -0.834000       15.9994           0
     79536 TIP3     23207    TIP3     H1       HT       0.417000       1.00800           0
     79537 TIP3     23207    TIP3     H2       HT       0.417000       1.00800           0
     79538 TIP3     23208    TIP3     OH2      OT      -0.834000       15.9994           0
     79539 TIP3     23208    TIP3     H1       HT       0.417000       1.00800           0
     79540 TIP3     23208    TIP3     H2       HT       0.417000       1.00800           0
     79541 TIP3     23209    TIP3     OH2      OT      -0.834000       15.9994           0
     79542 TIP3     23209    TIP3     H1       HT       0.417000       1.00800           0
     79543 TIP3     23209    TIP3     H2       HT       0.417000       1.00800           0
     79544 TIP3     23210    TIP3     OH2      OT      -0.834000       15.9994           0
     79545 TIP3     23210    TIP3     H1       HT       0.417000       1.00800           0
     79546 TIP3     23210    TIP3     H2       HT       0.417000       1.00800           0
     79547 TIP3     23211    TIP3     OH2      OT      -0.834000       15.9994           0
     79548 TIP3     23211    TIP3     H1       HT       0.417000       1.00800           0
     79549 TIP3     23211    TIP3     H2       HT       0.417000       1.00800           0
     79550 TIP3     23212    TIP3     OH2      OT      -0.834000       15.9994           0
     79551 TIP3     23212    TIP3     H1       HT       0.417000       1.00800           0
     79552 TIP3     23212    TIP3     H2       HT       0.417000       1.00800           0
     79553 TIP3     23213    TIP3     OH2      OT      -0.834000       15.9994           0
     79554 TIP3     23213    TIP3     H1       HT       0.417000       1.00800           0
     79555 TIP3     23213    TIP3     H2       HT       0.417000       1.00800           0
     79556 TIP3     23214    TIP3     OH2      OT      -0.834000       15.9994           0
     79557 TIP3     23214    TIP3     H1       HT       0.417000       1.00800           0
     79558 TIP3     23214    TIP3     H2       HT       0.417000       1.00800           0
     79559 TIP3     23215    TIP3     OH2      OT      -0.834000       15.9994           0
     79560 TIP3     23215    TIP3     H1       HT       0.417000       1.00800           0
     79561 TIP3     23215    TIP3     H2       HT       0.417000       1.00800           0
     79562 TIP3     23216    TIP3     OH2      OT      -0.834000       15.9994           0
     79563 TIP3     23216    TIP3     H1       HT       0.417000       1.00800           0
     79564 TIP3     23216    TIP3     H2       HT       0.417000       1.00800           0
     79565 TIP3     23217    TIP3     OH2      OT      -0.834000       15.9994           0
     79566 TIP3     23217    TIP3     H1       HT       0.417000       1.00800           0
     79567 TIP3     23217    TIP3     H2       HT       0.417000       1.00800           0
     79568 TIP3     23218    TIP3     OH2      OT      -0.834000       15.9994           0
     79569 TIP3     23218    TIP3     H1       HT       0.417000       1.00800           0
     79570 TIP3     23218    TIP3     H2       HT       0.417000       1.00800           0
     79571 TIP3     23219    TIP3     OH2      OT      -0.834000       15.9994           0
     79572 TIP3     23219    TIP3     H1       HT       0.417000       1.00800           0
     79573 TIP3     23219    TIP3     H2       HT       0.417000       1.00800           0
     79574 TIP3     23220    TIP3     OH2      OT      -0.834000       15.9994           0
     79575 TIP3     23220    TIP3     H1       HT       0.417000       1.00800           0
     79576 TIP3     23220    TIP3     H2       HT       0.417000       1.00800           0
     79577 TIP3     23221    TIP3     OH2      OT      -0.834000       15.9994           0
     79578 TIP3     23221    TIP3     H1       HT       0.417000       1.00800           0
     79579 TIP3     23221    TIP3     H2       HT       0.417000       1.00800           0
     79580 TIP3     23222    TIP3     OH2      OT      -0.834000       15.9994           0
     79581 TIP3     23222    TIP3     H1       HT       0.417000       1.00800           0
     79582 TIP3     23222    TIP3     H2       HT       0.417000       1.00800           0
     79583 TIP3     23223    TIP3     OH2      OT      -0.834000       15.9994           0
     79584 TIP3     23223    TIP3     H1       HT       0.417000       1.00800           0
     79585 TIP3     23223    TIP3     H2       HT       0.417000       1.00800           0
     79586 TIP3     23224    TIP3     OH2      OT      -0.834000       15.9994           0
     79587 TIP3     23224    TIP3     H1       HT       0.417000       1.00800           0
     79588 TIP3     23224    TIP3     H2       HT       0.417000       1.00800           0
     79589 TIP3     23225    TIP3     OH2      OT      -0.834000       15.9994           0
     79590 TIP3     23225    TIP3     H1       HT       0.417000       1.00800           0
     79591 TIP3     23225    TIP3     H2       HT       0.417000       1.00800           0
     79592 TIP3     23226    TIP3     OH2      OT      -0.834000       15.9994           0
     79593 TIP3     23226    TIP3     H1       HT       0.417000       1.00800           0
     79594 TIP3     23226    TIP3     H2       HT       0.417000       1.00800           0
     79595 TIP3     23227    TIP3     OH2      OT      -0.834000       15.9994           0
     79596 TIP3     23227    TIP3     H1       HT       0.417000       1.00800           0
     79597 TIP3     23227    TIP3     H2       HT       0.417000       1.00800           0
     79598 TIP3     23228    TIP3     OH2      OT      -0.834000       15.9994           0
     79599 TIP3     23228    TIP3     H1       HT       0.417000       1.00800           0
     79600 TIP3     23228    TIP3     H2       HT       0.417000       1.00800           0
     79601 TIP3     23229    TIP3     OH2      OT      -0.834000       15.9994           0
     79602 TIP3     23229    TIP3     H1       HT       0.417000       1.00800           0
     79603 TIP3     23229    TIP3     H2       HT       0.417000       1.00800           0
     79604 TIP3     23230    TIP3     OH2      OT      -0.834000       15.9994           0
     79605 TIP3     23230    TIP3     H1       HT       0.417000       1.00800           0
     79606 TIP3     23230    TIP3     H2       HT       0.417000       1.00800           0
     79607 TIP3     23231    TIP3     OH2      OT      -0.834000       15.9994           0
     79608 TIP3     23231    TIP3     H1       HT       0.417000       1.00800           0
     79609 TIP3     23231    TIP3     H2       HT       0.417000       1.00800           0
     79610 TIP3     23232    TIP3     OH2      OT      -0.834000       15.9994           0
     79611 TIP3     23232    TIP3     H1       HT       0.417000       1.00800           0
     79612 TIP3     23232    TIP3     H2       HT       0.417000       1.00800           0
     79613 TIP3     23233    TIP3     OH2      OT      -0.834000       15.9994           0
     79614 TIP3     23233    TIP3     H1       HT       0.417000       1.00800           0
     79615 TIP3     23233    TIP3     H2       HT       0.417000       1.00800           0
     79616 TIP3     23234    TIP3     OH2      OT      -0.834000       15.9994           0
     79617 TIP3     23234    TIP3     H1       HT       0.417000       1.00800           0
     79618 TIP3     23234    TIP3     H2       HT       0.417000       1.00800           0
     79619 TIP3     23235    TIP3     OH2      OT      -0.834000       15.9994           0
     79620 TIP3     23235    TIP3     H1       HT       0.417000       1.00800           0
     79621 TIP3     23235    TIP3     H2       HT       0.417000       1.00800           0
     79622 TIP3     23236    TIP3     OH2      OT      -0.834000       15.9994           0
     79623 TIP3     23236    TIP3     H1       HT       0.417000       1.00800           0
     79624 TIP3     23236    TIP3     H2       HT       0.417000       1.00800           0
     79625 TIP3     23237    TIP3     OH2      OT      -0.834000       15.9994           0
     79626 TIP3     23237    TIP3     H1       HT       0.417000       1.00800           0
     79627 TIP3     23237    TIP3     H2       HT       0.417000       1.00800           0
     79628 TIP3     23238    TIP3     OH2      OT      -0.834000       15.9994           0
     79629 TIP3     23238    TIP3     H1       HT       0.417000       1.00800           0
     79630 TIP3     23238    TIP3     H2       HT       0.417000       1.00800           0
     79631 TIP3     23239    TIP3     OH2      OT      -0.834000       15.9994           0
     79632 TIP3     23239    TIP3     H1       HT       0.417000       1.00800           0
     79633 TIP3     23239    TIP3     H2       HT       0.417000       1.00800           0
     79634 TIP3     23240    TIP3     OH2      OT      -0.834000       15.9994           0
     79635 TIP3     23240    TIP3     H1       HT       0.417000       1.00800           0
     79636 TIP3     23240    TIP3     H2       HT       0.417000       1.00800           0
     79637 TIP3     23241    TIP3     OH2      OT      -0.834000       15.9994           0
     79638 TIP3     23241    TIP3     H1       HT       0.417000       1.00800           0
     79639 TIP3     23241    TIP3     H2       HT       0.417000       1.00800           0
     79640 TIP3     23242    TIP3     OH2      OT      -0.834000       15.9994           0
     79641 TIP3     23242    TIP3     H1       HT       0.417000       1.00800           0
     79642 TIP3     23242    TIP3     H2       HT       0.417000       1.00800           0
     79643 TIP3     23243    TIP3     OH2      OT      -0.834000       15.9994           0
     79644 TIP3     23243    TIP3     H1       HT       0.417000       1.00800           0
     79645 TIP3     23243    TIP3     H2       HT       0.417000       1.00800           0
     79646 TIP3     23244    TIP3     OH2      OT      -0.834000       15.9994           0
     79647 TIP3     23244    TIP3     H1       HT       0.417000       1.00800           0
     79648 TIP3     23244    TIP3     H2       HT       0.417000       1.00800           0
     79649 TIP3     23245    TIP3     OH2      OT      -0.834000       15.9994           0
     79650 TIP3     23245    TIP3     H1       HT       0.417000       1.00800           0
     79651 TIP3     23245    TIP3     H2       HT       0.417000       1.00800           0
     79652 TIP3     23246    TIP3     OH2      OT      -0.834000       15.9994           0
     79653 TIP3     23246    TIP3     H1       HT       0.417000       1.00800           0
     79654 TIP3     23246    TIP3     H2       HT       0.417000       1.00800           0
     79655 TIP3     23247    TIP3     OH2      OT      -0.834000       15.9994           0
     79656 TIP3     23247    TIP3     H1       HT       0.417000       1.00800           0
     79657 TIP3     23247    TIP3     H2       HT       0.417000       1.00800           0
     79658 TIP3     23248    TIP3     OH2      OT      -0.834000       15.9994           0
     79659 TIP3     23248    TIP3     H1       HT       0.417000       1.00800           0
     79660 TIP3     23248    TIP3     H2       HT       0.417000       1.00800           0
     79661 TIP3     23249    TIP3     OH2      OT      -0.834000       15.9994           0
     79662 TIP3     23249    TIP3     H1       HT       0.417000       1.00800           0
     79663 TIP3     23249    TIP3     H2       HT       0.417000       1.00800           0
     79664 TIP3     23250    TIP3     OH2      OT      -0.834000       15.9994           0
     79665 TIP3     23250    TIP3     H1       HT       0.417000       1.00800           0
     79666 TIP3     23250    TIP3     H2       HT       0.417000       1.00800           0
     79667 TIP3     23251    TIP3     OH2      OT      -0.834000       15.9994           0
     79668 TIP3     23251    TIP3     H1       HT       0.417000       1.00800           0
     79669 TIP3     23251    TIP3     H2       HT       0.417000       1.00800           0
     79670 TIP3     23252    TIP3     OH2      OT      -0.834000       15.9994           0
     79671 TIP3     23252    TIP3     H1       HT       0.417000       1.00800           0
     79672 TIP3     23252    TIP3     H2       HT       0.417000       1.00800           0
     79673 TIP3     23253    TIP3     OH2      OT      -0.834000       15.9994           0
     79674 TIP3     23253    TIP3     H1       HT       0.417000       1.00800           0
     79675 TIP3     23253    TIP3     H2       HT       0.417000       1.00800           0
     79676 TIP3     23254    TIP3     OH2      OT      -0.834000       15.9994           0
     79677 TIP3     23254    TIP3     H1       HT       0.417000       1.00800           0
     79678 TIP3     23254    TIP3     H2       HT       0.417000       1.00800           0
     79679 TIP3     23255    TIP3     OH2      OT      -0.834000       15.9994           0
     79680 TIP3     23255    TIP3     H1       HT       0.417000       1.00800           0
     79681 TIP3     23255    TIP3     H2       HT       0.417000       1.00800           0
     79682 TIP3     23256    TIP3     OH2      OT      -0.834000       15.9994           0
     79683 TIP3     23256    TIP3     H1       HT       0.417000       1.00800           0
     79684 TIP3     23256    TIP3     H2       HT       0.417000       1.00800           0
     79685 TIP3     23257    TIP3     OH2      OT      -0.834000       15.9994           0
     79686 TIP3     23257    TIP3     H1       HT       0.417000       1.00800           0
     79687 TIP3     23257    TIP3     H2       HT       0.417000       1.00800           0
     79688 TIP3     23258    TIP3     OH2      OT      -0.834000       15.9994           0
     79689 TIP3     23258    TIP3     H1       HT       0.417000       1.00800           0
     79690 TIP3     23258    TIP3     H2       HT       0.417000       1.00800           0
     79691 TIP3     23259    TIP3     OH2      OT      -0.834000       15.9994           0
     79692 TIP3     23259    TIP3     H1       HT       0.417000       1.00800           0
     79693 TIP3     23259    TIP3     H2       HT       0.417000       1.00800           0
     79694 TIP3     23260    TIP3     OH2      OT      -0.834000       15.9994           0
     79695 TIP3     23260    TIP3     H1       HT       0.417000       1.00800           0
     79696 TIP3     23260    TIP3     H2       HT       0.417000       1.00800           0
     79697 TIP3     23261    TIP3     OH2      OT      -0.834000       15.9994           0
     79698 TIP3     23261    TIP3     H1       HT       0.417000       1.00800           0
     79699 TIP3     23261    TIP3     H2       HT       0.417000       1.00800           0
     79700 TIP3     23262    TIP3     OH2      OT      -0.834000       15.9994           0
     79701 TIP3     23262    TIP3     H1       HT       0.417000       1.00800           0
     79702 TIP3     23262    TIP3     H2       HT       0.417000       1.00800           0
     79703 TIP3     23263    TIP3     OH2      OT      -0.834000       15.9994           0
     79704 TIP3     23263    TIP3     H1       HT       0.417000       1.00800           0
     79705 TIP3     23263    TIP3     H2       HT       0.417000       1.00800           0
     79706 TIP3     23264    TIP3     OH2      OT      -0.834000       15.9994           0
     79707 TIP3     23264    TIP3     H1       HT       0.417000       1.00800           0
     79708 TIP3     23264    TIP3     H2       HT       0.417000       1.00800           0
     79709 TIP3     23265    TIP3     OH2      OT      -0.834000       15.9994           0
     79710 TIP3     23265    TIP3     H1       HT       0.417000       1.00800           0
     79711 TIP3     23265    TIP3     H2       HT       0.417000       1.00800           0
     79712 TIP3     23266    TIP3     OH2      OT      -0.834000       15.9994           0
     79713 TIP3     23266    TIP3     H1       HT       0.417000       1.00800           0
     79714 TIP3     23266    TIP3     H2       HT       0.417000       1.00800           0
     79715 TIP3     23267    TIP3     OH2      OT      -0.834000       15.9994           0
     79716 TIP3     23267    TIP3     H1       HT       0.417000       1.00800           0
     79717 TIP3     23267    TIP3     H2       HT       0.417000       1.00800           0
     79718 TIP3     23268    TIP3     OH2      OT      -0.834000       15.9994           0
     79719 TIP3     23268    TIP3     H1       HT       0.417000       1.00800           0
     79720 TIP3     23268    TIP3     H2       HT       0.417000       1.00800           0
     79721 TIP3     23269    TIP3     OH2      OT      -0.834000       15.9994           0
     79722 TIP3     23269    TIP3     H1       HT       0.417000       1.00800           0
     79723 TIP3     23269    TIP3     H2       HT       0.417000       1.00800           0
     79724 TIP3     23270    TIP3     OH2      OT      -0.834000       15.9994           0
     79725 TIP3     23270    TIP3     H1       HT       0.417000       1.00800           0
     79726 TIP3     23270    TIP3     H2       HT       0.417000       1.00800           0
     79727 TIP3     23271    TIP3     OH2      OT      -0.834000       15.9994           0
     79728 TIP3     23271    TIP3     H1       HT       0.417000       1.00800           0
     79729 TIP3     23271    TIP3     H2       HT       0.417000       1.00800           0
     79730 TIP3     23272    TIP3     OH2      OT      -0.834000       15.9994           0
     79731 TIP3     23272    TIP3     H1       HT       0.417000       1.00800           0
     79732 TIP3     23272    TIP3     H2       HT       0.417000       1.00800           0
     79733 TIP3     23273    TIP3     OH2      OT      -0.834000       15.9994           0
     79734 TIP3     23273    TIP3     H1       HT       0.417000       1.00800           0
     79735 TIP3     23273    TIP3     H2       HT       0.417000       1.00800           0
     79736 TIP3     23274    TIP3     OH2      OT      -0.834000       15.9994           0
     79737 TIP3     23274    TIP3     H1       HT       0.417000       1.00800           0
     79738 TIP3     23274    TIP3     H2       HT       0.417000       1.00800           0
     79739 TIP3     23275    TIP3     OH2      OT      -0.834000       15.9994           0
     79740 TIP3     23275    TIP3     H1       HT       0.417000       1.00800           0
     79741 TIP3     23275    TIP3     H2       HT       0.417000       1.00800           0
     79742 TIP3     23276    TIP3     OH2      OT      -0.834000       15.9994           0
     79743 TIP3     23276    TIP3     H1       HT       0.417000       1.00800           0
     79744 TIP3     23276    TIP3     H2       HT       0.417000       1.00800           0
     79745 TIP3     23277    TIP3     OH2      OT      -0.834000       15.9994           0
     79746 TIP3     23277    TIP3     H1       HT       0.417000       1.00800           0
     79747 TIP3     23277    TIP3     H2       HT       0.417000       1.00800           0
     79748 TIP3     23278    TIP3     OH2      OT      -0.834000       15.9994           0
     79749 TIP3     23278    TIP3     H1       HT       0.417000       1.00800           0
     79750 TIP3     23278    TIP3     H2       HT       0.417000       1.00800           0
     79751 TIP3     23279    TIP3     OH2      OT      -0.834000       15.9994           0
     79752 TIP3     23279    TIP3     H1       HT       0.417000       1.00800           0
     79753 TIP3     23279    TIP3     H2       HT       0.417000       1.00800           0
     79754 TIP3     23280    TIP3     OH2      OT      -0.834000       15.9994           0
     79755 TIP3     23280    TIP3     H1       HT       0.417000       1.00800           0
     79756 TIP3     23280    TIP3     H2       HT       0.417000       1.00800           0
     79757 TIP3     23281    TIP3     OH2      OT      -0.834000       15.9994           0
     79758 TIP3     23281    TIP3     H1       HT       0.417000       1.00800           0
     79759 TIP3     23281    TIP3     H2       HT       0.417000       1.00800           0
     79760 TIP3     23282    TIP3     OH2      OT      -0.834000       15.9994           0
     79761 TIP3     23282    TIP3     H1       HT       0.417000       1.00800           0
     79762 TIP3     23282    TIP3     H2       HT       0.417000       1.00800           0
     79763 TIP3     23283    TIP3     OH2      OT      -0.834000       15.9994           0
     79764 TIP3     23283    TIP3     H1       HT       0.417000       1.00800           0
     79765 TIP3     23283    TIP3     H2       HT       0.417000       1.00800           0
     79766 TIP3     23284    TIP3     OH2      OT      -0.834000       15.9994           0
     79767 TIP3     23284    TIP3     H1       HT       0.417000       1.00800           0
     79768 TIP3     23284    TIP3     H2       HT       0.417000       1.00800           0
     79769 TIP3     23285    TIP3     OH2      OT      -0.834000       15.9994           0
     79770 TIP3     23285    TIP3     H1       HT       0.417000       1.00800           0
     79771 TIP3     23285    TIP3     H2       HT       0.417000       1.00800           0
     79772 TIP3     23286    TIP3     OH2      OT      -0.834000       15.9994           0
     79773 TIP3     23286    TIP3     H1       HT       0.417000       1.00800           0
     79774 TIP3     23286    TIP3     H2       HT       0.417000       1.00800           0
     79775 TIP3     23287    TIP3     OH2      OT      -0.834000       15.9994           0
     79776 TIP3     23287    TIP3     H1       HT       0.417000       1.00800           0
     79777 TIP3     23287    TIP3     H2       HT       0.417000       1.00800           0
     79778 TIP3     23288    TIP3     OH2      OT      -0.834000       15.9994           0
     79779 TIP3     23288    TIP3     H1       HT       0.417000       1.00800           0
     79780 TIP3     23288    TIP3     H2       HT       0.417000       1.00800           0
     79781 TIP3     23289    TIP3     OH2      OT      -0.834000       15.9994           0
     79782 TIP3     23289    TIP3     H1       HT       0.417000       1.00800           0
     79783 TIP3     23289    TIP3     H2       HT       0.417000       1.00800           0
     79784 TIP3     23290    TIP3     OH2      OT      -0.834000       15.9994           0
     79785 TIP3     23290    TIP3     H1       HT       0.417000       1.00800           0
     79786 TIP3     23290    TIP3     H2       HT       0.417000       1.00800           0
     79787 TIP3     23291    TIP3     OH2      OT      -0.834000       15.9994           0
     79788 TIP3     23291    TIP3     H1       HT       0.417000       1.00800           0
     79789 TIP3     23291    TIP3     H2       HT       0.417000       1.00800           0
     79790 TIP3     23292    TIP3     OH2      OT      -0.834000       15.9994           0
     79791 TIP3     23292    TIP3     H1       HT       0.417000       1.00800           0
     79792 TIP3     23292    TIP3     H2       HT       0.417000       1.00800           0
     79793 TIP3     23293    TIP3     OH2      OT      -0.834000       15.9994           0
     79794 TIP3     23293    TIP3     H1       HT       0.417000       1.00800           0
     79795 TIP3     23293    TIP3     H2       HT       0.417000       1.00800           0
     79796 TIP3     23294    TIP3     OH2      OT      -0.834000       15.9994           0
     79797 TIP3     23294    TIP3     H1       HT       0.417000       1.00800           0
     79798 TIP3     23294    TIP3     H2       HT       0.417000       1.00800           0
     79799 TIP3     23295    TIP3     OH2      OT      -0.834000       15.9994           0
     79800 TIP3     23295    TIP3     H1       HT       0.417000       1.00800           0
     79801 TIP3     23295    TIP3     H2       HT       0.417000       1.00800           0
     79802 TIP3     23296    TIP3     OH2      OT      -0.834000       15.9994           0
     79803 TIP3     23296    TIP3     H1       HT       0.417000       1.00800           0
     79804 TIP3     23296    TIP3     H2       HT       0.417000       1.00800           0
     79805 TIP3     23297    TIP3     OH2      OT      -0.834000       15.9994           0
     79806 TIP3     23297    TIP3     H1       HT       0.417000       1.00800           0
     79807 TIP3     23297    TIP3     H2       HT       0.417000       1.00800           0
     79808 TIP3     23298    TIP3     OH2      OT      -0.834000       15.9994           0
     79809 TIP3     23298    TIP3     H1       HT       0.417000       1.00800           0
     79810 TIP3     23298    TIP3     H2       HT       0.417000       1.00800           0
     79811 TIP3     23299    TIP3     OH2      OT      -0.834000       15.9994           0
     79812 TIP3     23299    TIP3     H1       HT       0.417000       1.00800           0
     79813 TIP3     23299    TIP3     H2       HT       0.417000       1.00800           0
     79814 TIP3     23300    TIP3     OH2      OT      -0.834000       15.9994           0
     79815 TIP3     23300    TIP3     H1       HT       0.417000       1.00800           0
     79816 TIP3     23300    TIP3     H2       HT       0.417000       1.00800           0
     79817 TIP3     23301    TIP3     OH2      OT      -0.834000       15.9994           0
     79818 TIP3     23301    TIP3     H1       HT       0.417000       1.00800           0
     79819 TIP3     23301    TIP3     H2       HT       0.417000       1.00800           0
     79820 TIP3     23302    TIP3     OH2      OT      -0.834000       15.9994           0
     79821 TIP3     23302    TIP3     H1       HT       0.417000       1.00800           0
     79822 TIP3     23302    TIP3     H2       HT       0.417000       1.00800           0
     79823 TIP3     23303    TIP3     OH2      OT      -0.834000       15.9994           0
     79824 TIP3     23303    TIP3     H1       HT       0.417000       1.00800           0
     79825 TIP3     23303    TIP3     H2       HT       0.417000       1.00800           0
     79826 TIP3     23304    TIP3     OH2      OT      -0.834000       15.9994           0
     79827 TIP3     23304    TIP3     H1       HT       0.417000       1.00800           0
     79828 TIP3     23304    TIP3     H2       HT       0.417000       1.00800           0
     79829 TIP3     23305    TIP3     OH2      OT      -0.834000       15.9994           0
     79830 TIP3     23305    TIP3     H1       HT       0.417000       1.00800           0
     79831 TIP3     23305    TIP3     H2       HT       0.417000       1.00800           0
     79832 TIP3     23306    TIP3     OH2      OT      -0.834000       15.9994           0
     79833 TIP3     23306    TIP3     H1       HT       0.417000       1.00800           0
     79834 TIP3     23306    TIP3     H2       HT       0.417000       1.00800           0
     79835 TIP3     23307    TIP3     OH2      OT      -0.834000       15.9994           0
     79836 TIP3     23307    TIP3     H1       HT       0.417000       1.00800           0
     79837 TIP3     23307    TIP3     H2       HT       0.417000       1.00800           0
     79838 TIP3     23308    TIP3     OH2      OT      -0.834000       15.9994           0
     79839 TIP3     23308    TIP3     H1       HT       0.417000       1.00800           0
     79840 TIP3     23308    TIP3     H2       HT       0.417000       1.00800           0
     79841 TIP3     23309    TIP3     OH2      OT      -0.834000       15.9994           0
     79842 TIP3     23309    TIP3     H1       HT       0.417000       1.00800           0
     79843 TIP3     23309    TIP3     H2       HT       0.417000       1.00800           0
     79844 TIP3     23310    TIP3     OH2      OT      -0.834000       15.9994           0
     79845 TIP3     23310    TIP3     H1       HT       0.417000       1.00800           0
     79846 TIP3     23310    TIP3     H2       HT       0.417000       1.00800           0
     79847 TIP3     23311    TIP3     OH2      OT      -0.834000       15.9994           0
     79848 TIP3     23311    TIP3     H1       HT       0.417000       1.00800           0
     79849 TIP3     23311    TIP3     H2       HT       0.417000       1.00800           0
     79850 TIP3     23312    TIP3     OH2      OT      -0.834000       15.9994           0
     79851 TIP3     23312    TIP3     H1       HT       0.417000       1.00800           0
     79852 TIP3     23312    TIP3     H2       HT       0.417000       1.00800           0
     79853 TIP3     23313    TIP3     OH2      OT      -0.834000       15.9994           0
     79854 TIP3     23313    TIP3     H1       HT       0.417000       1.00800           0
     79855 TIP3     23313    TIP3     H2       HT       0.417000       1.00800           0
     79856 TIP3     23314    TIP3     OH2      OT      -0.834000       15.9994           0
     79857 TIP3     23314    TIP3     H1       HT       0.417000       1.00800           0
     79858 TIP3     23314    TIP3     H2       HT       0.417000       1.00800           0
     79859 TIP3     23315    TIP3     OH2      OT      -0.834000       15.9994           0
     79860 TIP3     23315    TIP3     H1       HT       0.417000       1.00800           0
     79861 TIP3     23315    TIP3     H2       HT       0.417000       1.00800           0
     79862 TIP3     23316    TIP3     OH2      OT      -0.834000       15.9994           0
     79863 TIP3     23316    TIP3     H1       HT       0.417000       1.00800           0
     79864 TIP3     23316    TIP3     H2       HT       0.417000       1.00800           0
     79865 TIP3     23317    TIP3     OH2      OT      -0.834000       15.9994           0
     79866 TIP3     23317    TIP3     H1       HT       0.417000       1.00800           0
     79867 TIP3     23317    TIP3     H2       HT       0.417000       1.00800           0
     79868 TIP3     23318    TIP3     OH2      OT      -0.834000       15.9994           0
     79869 TIP3     23318    TIP3     H1       HT       0.417000       1.00800           0
     79870 TIP3     23318    TIP3     H2       HT       0.417000       1.00800           0
     79871 TIP3     23319    TIP3     OH2      OT      -0.834000       15.9994           0
     79872 TIP3     23319    TIP3     H1       HT       0.417000       1.00800           0
     79873 TIP3     23319    TIP3     H2       HT       0.417000       1.00800           0
     79874 TIP3     23320    TIP3     OH2      OT      -0.834000       15.9994           0
     79875 TIP3     23320    TIP3     H1       HT       0.417000       1.00800           0
     79876 TIP3     23320    TIP3     H2       HT       0.417000       1.00800           0
     79877 TIP3     23321    TIP3     OH2      OT      -0.834000       15.9994           0
     79878 TIP3     23321    TIP3     H1       HT       0.417000       1.00800           0
     79879 TIP3     23321    TIP3     H2       HT       0.417000       1.00800           0
     79880 TIP3     23322    TIP3     OH2      OT      -0.834000       15.9994           0
     79881 TIP3     23322    TIP3     H1       HT       0.417000       1.00800           0
     79882 TIP3     23322    TIP3     H2       HT       0.417000       1.00800           0
     79883 TIP3     23323    TIP3     OH2      OT      -0.834000       15.9994           0
     79884 TIP3     23323    TIP3     H1       HT       0.417000       1.00800           0
     79885 TIP3     23323    TIP3     H2       HT       0.417000       1.00800           0
     79886 TIP3     23324    TIP3     OH2      OT      -0.834000       15.9994           0
     79887 TIP3     23324    TIP3     H1       HT       0.417000       1.00800           0
     79888 TIP3     23324    TIP3     H2       HT       0.417000       1.00800           0
     79889 TIP3     23325    TIP3     OH2      OT      -0.834000       15.9994           0
     79890 TIP3     23325    TIP3     H1       HT       0.417000       1.00800           0
     79891 TIP3     23325    TIP3     H2       HT       0.417000       1.00800           0
     79892 TIP3     23326    TIP3     OH2      OT      -0.834000       15.9994           0
     79893 TIP3     23326    TIP3     H1       HT       0.417000       1.00800           0
     79894 TIP3     23326    TIP3     H2       HT       0.417000       1.00800           0
     79895 TIP3     23327    TIP3     OH2      OT      -0.834000       15.9994           0
     79896 TIP3     23327    TIP3     H1       HT       0.417000       1.00800           0
     79897 TIP3     23327    TIP3     H2       HT       0.417000       1.00800           0
     79898 TIP3     23328    TIP3     OH2      OT      -0.834000       15.9994           0
     79899 TIP3     23328    TIP3     H1       HT       0.417000       1.00800           0
     79900 TIP3     23328    TIP3     H2       HT       0.417000       1.00800           0
     79901 TIP3     23329    TIP3     OH2      OT      -0.834000       15.9994           0
     79902 TIP3     23329    TIP3     H1       HT       0.417000       1.00800           0
     79903 TIP3     23329    TIP3     H2       HT       0.417000       1.00800           0
     79904 TIP3     23330    TIP3     OH2      OT      -0.834000       15.9994           0
     79905 TIP3     23330    TIP3     H1       HT       0.417000       1.00800           0
     79906 TIP3     23330    TIP3     H2       HT       0.417000       1.00800           0
     79907 TIP3     23331    TIP3     OH2      OT      -0.834000       15.9994           0
     79908 TIP3     23331    TIP3     H1       HT       0.417000       1.00800           0
     79909 TIP3     23331    TIP3     H2       HT       0.417000       1.00800           0
     79910 TIP3     23332    TIP3     OH2      OT      -0.834000       15.9994           0
     79911 TIP3     23332    TIP3     H1       HT       0.417000       1.00800           0
     79912 TIP3     23332    TIP3     H2       HT       0.417000       1.00800           0
     79913 TIP3     23333    TIP3     OH2      OT      -0.834000       15.9994           0
     79914 TIP3     23333    TIP3     H1       HT       0.417000       1.00800           0
     79915 TIP3     23333    TIP3     H2       HT       0.417000       1.00800           0
     79916 TIP3     23334    TIP3     OH2      OT      -0.834000       15.9994           0
     79917 TIP3     23334    TIP3     H1       HT       0.417000       1.00800           0
     79918 TIP3     23334    TIP3     H2       HT       0.417000       1.00800           0
     79919 TIP3     23335    TIP3     OH2      OT      -0.834000       15.9994           0
     79920 TIP3     23335    TIP3     H1       HT       0.417000       1.00800           0
     79921 TIP3     23335    TIP3     H2       HT       0.417000       1.00800           0
     79922 TIP3     23336    TIP3     OH2      OT      -0.834000       15.9994           0
     79923 TIP3     23336    TIP3     H1       HT       0.417000       1.00800           0
     79924 TIP3     23336    TIP3     H2       HT       0.417000       1.00800           0
     79925 TIP3     23337    TIP3     OH2      OT      -0.834000       15.9994           0
     79926 TIP3     23337    TIP3     H1       HT       0.417000       1.00800           0
     79927 TIP3     23337    TIP3     H2       HT       0.417000       1.00800           0
     79928 TIP3     23338    TIP3     OH2      OT      -0.834000       15.9994           0
     79929 TIP3     23338    TIP3     H1       HT       0.417000       1.00800           0
     79930 TIP3     23338    TIP3     H2       HT       0.417000       1.00800           0
     79931 TIP3     23339    TIP3     OH2      OT      -0.834000       15.9994           0
     79932 TIP3     23339    TIP3     H1       HT       0.417000       1.00800           0
     79933 TIP3     23339    TIP3     H2       HT       0.417000       1.00800           0
     79934 TIP3     23340    TIP3     OH2      OT      -0.834000       15.9994           0
     79935 TIP3     23340    TIP3     H1       HT       0.417000       1.00800           0
     79936 TIP3     23340    TIP3     H2       HT       0.417000       1.00800           0
     79937 TIP3     23341    TIP3     OH2      OT      -0.834000       15.9994           0
     79938 TIP3     23341    TIP3     H1       HT       0.417000       1.00800           0
     79939 TIP3     23341    TIP3     H2       HT       0.417000       1.00800           0
     79940 TIP3     23342    TIP3     OH2      OT      -0.834000       15.9994           0
     79941 TIP3     23342    TIP3     H1       HT       0.417000       1.00800           0
     79942 TIP3     23342    TIP3     H2       HT       0.417000       1.00800           0
     79943 TIP3     23343    TIP3     OH2      OT      -0.834000       15.9994           0
     79944 TIP3     23343    TIP3     H1       HT       0.417000       1.00800           0
     79945 TIP3     23343    TIP3     H2       HT       0.417000       1.00800           0
     79946 TIP3     23344    TIP3     OH2      OT      -0.834000       15.9994           0
     79947 TIP3     23344    TIP3     H1       HT       0.417000       1.00800           0
     79948 TIP3     23344    TIP3     H2       HT       0.417000       1.00800           0
     79949 TIP3     23345    TIP3     OH2      OT      -0.834000       15.9994           0
     79950 TIP3     23345    TIP3     H1       HT       0.417000       1.00800           0
     79951 TIP3     23345    TIP3     H2       HT       0.417000       1.00800           0
     79952 TIP3     23346    TIP3     OH2      OT      -0.834000       15.9994           0
     79953 TIP3     23346    TIP3     H1       HT       0.417000       1.00800           0
     79954 TIP3     23346    TIP3     H2       HT       0.417000       1.00800           0
     79955 TIP3     23347    TIP3     OH2      OT      -0.834000       15.9994           0
     79956 TIP3     23347    TIP3     H1       HT       0.417000       1.00800           0
     79957 TIP3     23347    TIP3     H2       HT       0.417000       1.00800           0
     79958 TIP3     23348    TIP3     OH2      OT      -0.834000       15.9994           0
     79959 TIP3     23348    TIP3     H1       HT       0.417000       1.00800           0
     79960 TIP3     23348    TIP3     H2       HT       0.417000       1.00800           0
     79961 TIP3     23349    TIP3     OH2      OT      -0.834000       15.9994           0
     79962 TIP3     23349    TIP3     H1       HT       0.417000       1.00800           0
     79963 TIP3     23349    TIP3     H2       HT       0.417000       1.00800           0
     79964 TIP3     23350    TIP3     OH2      OT      -0.834000       15.9994           0
     79965 TIP3     23350    TIP3     H1       HT       0.417000       1.00800           0
     79966 TIP3     23350    TIP3     H2       HT       0.417000       1.00800           0
     79967 TIP3     23351    TIP3     OH2      OT      -0.834000       15.9994           0
     79968 TIP3     23351    TIP3     H1       HT       0.417000       1.00800           0
     79969 TIP3     23351    TIP3     H2       HT       0.417000       1.00800           0
     79970 TIP3     23352    TIP3     OH2      OT      -0.834000       15.9994           0
     79971 TIP3     23352    TIP3     H1       HT       0.417000       1.00800           0
     79972 TIP3     23352    TIP3     H2       HT       0.417000       1.00800           0
     79973 TIP3     23353    TIP3     OH2      OT      -0.834000       15.9994           0
     79974 TIP3     23353    TIP3     H1       HT       0.417000       1.00800           0
     79975 TIP3     23353    TIP3     H2       HT       0.417000       1.00800           0
     79976 TIP3     23354    TIP3     OH2      OT      -0.834000       15.9994           0
     79977 TIP3     23354    TIP3     H1       HT       0.417000       1.00800           0
     79978 TIP3     23354    TIP3     H2       HT       0.417000       1.00800           0
     79979 TIP3     23355    TIP3     OH2      OT      -0.834000       15.9994           0
     79980 TIP3     23355    TIP3     H1       HT       0.417000       1.00800           0
     79981 TIP3     23355    TIP3     H2       HT       0.417000       1.00800           0
     79982 TIP3     23356    TIP3     OH2      OT      -0.834000       15.9994           0
     79983 TIP3     23356    TIP3     H1       HT       0.417000       1.00800           0
     79984 TIP3     23356    TIP3     H2       HT       0.417000       1.00800           0
     79985 TIP3     23357    TIP3     OH2      OT      -0.834000       15.9994           0
     79986 TIP3     23357    TIP3     H1       HT       0.417000       1.00800           0
     79987 TIP3     23357    TIP3     H2       HT       0.417000       1.00800           0
     79988 TIP3     23358    TIP3     OH2      OT      -0.834000       15.9994           0
     79989 TIP3     23358    TIP3     H1       HT       0.417000       1.00800           0
     79990 TIP3     23358    TIP3     H2       HT       0.417000       1.00800           0
     79991 TIP3     23359    TIP3     OH2      OT      -0.834000       15.9994           0
     79992 TIP3     23359    TIP3     H1       HT       0.417000       1.00800           0
     79993 TIP3     23359    TIP3     H2       HT       0.417000       1.00800           0
     79994 TIP3     23360    TIP3     OH2      OT      -0.834000       15.9994           0
     79995 TIP3     23360    TIP3     H1       HT       0.417000       1.00800           0
     79996 TIP3     23360    TIP3     H2       HT       0.417000       1.00800           0
     79997 TIP3     23361    TIP3     OH2      OT      -0.834000       15.9994           0
     79998 TIP3     23361    TIP3     H1       HT       0.417000       1.00800           0
     79999 TIP3     23361    TIP3     H2       HT       0.417000       1.00800           0
     80000 TIP3     23362    TIP3     OH2      OT      -0.834000       15.9994           0
     80001 TIP3     23362    TIP3     H1       HT       0.417000       1.00800           0
     80002 TIP3     23362    TIP3     H2       HT       0.417000       1.00800           0
     80003 TIP3     23363    TIP3     OH2      OT      -0.834000       15.9994           0
     80004 TIP3     23363    TIP3     H1       HT       0.417000       1.00800           0
     80005 TIP3     23363    TIP3     H2       HT       0.417000       1.00800           0
     80006 TIP3     23364    TIP3     OH2      OT      -0.834000       15.9994           0
     80007 TIP3     23364    TIP3     H1       HT       0.417000       1.00800           0
     80008 TIP3     23364    TIP3     H2       HT       0.417000       1.00800           0
     80009 TIP3     23365    TIP3     OH2      OT      -0.834000       15.9994           0
     80010 TIP3     23365    TIP3     H1       HT       0.417000       1.00800           0
     80011 TIP3     23365    TIP3     H2       HT       0.417000       1.00800           0
     80012 TIP3     23366    TIP3     OH2      OT      -0.834000       15.9994           0
     80013 TIP3     23366    TIP3     H1       HT       0.417000       1.00800           0
     80014 TIP3     23366    TIP3     H2       HT       0.417000       1.00800           0
     80015 TIP3     23367    TIP3     OH2      OT      -0.834000       15.9994           0
     80016 TIP3     23367    TIP3     H1       HT       0.417000       1.00800           0
     80017 TIP3     23367    TIP3     H2       HT       0.417000       1.00800           0
     80018 TIP3     23368    TIP3     OH2      OT      -0.834000       15.9994           0
     80019 TIP3     23368    TIP3     H1       HT       0.417000       1.00800           0
     80020 TIP3     23368    TIP3     H2       HT       0.417000       1.00800           0
     80021 TIP3     23369    TIP3     OH2      OT      -0.834000       15.9994           0
     80022 TIP3     23369    TIP3     H1       HT       0.417000       1.00800           0
     80023 TIP3     23369    TIP3     H2       HT       0.417000       1.00800           0
     80024 TIP3     23370    TIP3     OH2      OT      -0.834000       15.9994           0
     80025 TIP3     23370    TIP3     H1       HT       0.417000       1.00800           0
     80026 TIP3     23370    TIP3     H2       HT       0.417000       1.00800           0
     80027 TIP3     23371    TIP3     OH2      OT      -0.834000       15.9994           0
     80028 TIP3     23371    TIP3     H1       HT       0.417000       1.00800           0
     80029 TIP3     23371    TIP3     H2       HT       0.417000       1.00800           0
     80030 TIP3     23372    TIP3     OH2      OT      -0.834000       15.9994           0
     80031 TIP3     23372    TIP3     H1       HT       0.417000       1.00800           0
     80032 TIP3     23372    TIP3     H2       HT       0.417000       1.00800           0
     80033 TIP3     23373    TIP3     OH2      OT      -0.834000       15.9994           0
     80034 TIP3     23373    TIP3     H1       HT       0.417000       1.00800           0
     80035 TIP3     23373    TIP3     H2       HT       0.417000       1.00800           0
     80036 TIP3     23374    TIP3     OH2      OT      -0.834000       15.9994           0
     80037 TIP3     23374    TIP3     H1       HT       0.417000       1.00800           0
     80038 TIP3     23374    TIP3     H2       HT       0.417000       1.00800           0
     80039 TIP3     23375    TIP3     OH2      OT      -0.834000       15.9994           0
     80040 TIP3     23375    TIP3     H1       HT       0.417000       1.00800           0
     80041 TIP3     23375    TIP3     H2       HT       0.417000       1.00800           0
     80042 TIP3     23376    TIP3     OH2      OT      -0.834000       15.9994           0
     80043 TIP3     23376    TIP3     H1       HT       0.417000       1.00800           0
     80044 TIP3     23376    TIP3     H2       HT       0.417000       1.00800           0
     80045 TIP3     23377    TIP3     OH2      OT      -0.834000       15.9994           0
     80046 TIP3     23377    TIP3     H1       HT       0.417000       1.00800           0
     80047 TIP3     23377    TIP3     H2       HT       0.417000       1.00800           0
     80048 TIP3     23378    TIP3     OH2      OT      -0.834000       15.9994           0
     80049 TIP3     23378    TIP3     H1       HT       0.417000       1.00800           0
     80050 TIP3     23378    TIP3     H2       HT       0.417000       1.00800           0
     80051 TIP3     23379    TIP3     OH2      OT      -0.834000       15.9994           0
     80052 TIP3     23379    TIP3     H1       HT       0.417000       1.00800           0
     80053 TIP3     23379    TIP3     H2       HT       0.417000       1.00800           0
     80054 TIP3     23380    TIP3     OH2      OT      -0.834000       15.9994           0
     80055 TIP3     23380    TIP3     H1       HT       0.417000       1.00800           0
     80056 TIP3     23380    TIP3     H2       HT       0.417000       1.00800           0
     80057 TIP3     23381    TIP3     OH2      OT      -0.834000       15.9994           0
     80058 TIP3     23381    TIP3     H1       HT       0.417000       1.00800           0
     80059 TIP3     23381    TIP3     H2       HT       0.417000       1.00800           0
     80060 TIP3     23382    TIP3     OH2      OT      -0.834000       15.9994           0
     80061 TIP3     23382    TIP3     H1       HT       0.417000       1.00800           0
     80062 TIP3     23382    TIP3     H2       HT       0.417000       1.00800           0
     80063 TIP3     23383    TIP3     OH2      OT      -0.834000       15.9994           0
     80064 TIP3     23383    TIP3     H1       HT       0.417000       1.00800           0
     80065 TIP3     23383    TIP3     H2       HT       0.417000       1.00800           0
     80066 TIP3     23384    TIP3     OH2      OT      -0.834000       15.9994           0
     80067 TIP3     23384    TIP3     H1       HT       0.417000       1.00800           0
     80068 TIP3     23384    TIP3     H2       HT       0.417000       1.00800           0
     80069 TIP3     23385    TIP3     OH2      OT      -0.834000       15.9994           0
     80070 TIP3     23385    TIP3     H1       HT       0.417000       1.00800           0
     80071 TIP3     23385    TIP3     H2       HT       0.417000       1.00800           0
     80072 TIP3     23386    TIP3     OH2      OT      -0.834000       15.9994           0
     80073 TIP3     23386    TIP3     H1       HT       0.417000       1.00800           0
     80074 TIP3     23386    TIP3     H2       HT       0.417000       1.00800           0
     80075 TIP3     23387    TIP3     OH2      OT      -0.834000       15.9994           0
     80076 TIP3     23387    TIP3     H1       HT       0.417000       1.00800           0
     80077 TIP3     23387    TIP3     H2       HT       0.417000       1.00800           0
     80078 TIP3     23388    TIP3     OH2      OT      -0.834000       15.9994           0
     80079 TIP3     23388    TIP3     H1       HT       0.417000       1.00800           0
     80080 TIP3     23388    TIP3     H2       HT       0.417000       1.00800           0
     80081 TIP3     23389    TIP3     OH2      OT      -0.834000       15.9994           0
     80082 TIP3     23389    TIP3     H1       HT       0.417000       1.00800           0
     80083 TIP3     23389    TIP3     H2       HT       0.417000       1.00800           0
     80084 TIP3     23390    TIP3     OH2      OT      -0.834000       15.9994           0
     80085 TIP3     23390    TIP3     H1       HT       0.417000       1.00800           0
     80086 TIP3     23390    TIP3     H2       HT       0.417000       1.00800           0
     80087 TIP3     23391    TIP3     OH2      OT      -0.834000       15.9994           0
     80088 TIP3     23391    TIP3     H1       HT       0.417000       1.00800           0
     80089 TIP3     23391    TIP3     H2       HT       0.417000       1.00800           0
     80090 TIP3     23392    TIP3     OH2      OT      -0.834000       15.9994           0
     80091 TIP3     23392    TIP3     H1       HT       0.417000       1.00800           0
     80092 TIP3     23392    TIP3     H2       HT       0.417000       1.00800           0
     80093 TIP3     23393    TIP3     OH2      OT      -0.834000       15.9994           0
     80094 TIP3     23393    TIP3     H1       HT       0.417000       1.00800           0
     80095 TIP3     23393    TIP3     H2       HT       0.417000       1.00800           0
     80096 TIP3     23394    TIP3     OH2      OT      -0.834000       15.9994           0
     80097 TIP3     23394    TIP3     H1       HT       0.417000       1.00800           0
     80098 TIP3     23394    TIP3     H2       HT       0.417000       1.00800           0
     80099 TIP3     23395    TIP3     OH2      OT      -0.834000       15.9994           0
     80100 TIP3     23395    TIP3     H1       HT       0.417000       1.00800           0
     80101 TIP3     23395    TIP3     H2       HT       0.417000       1.00800           0
     80102 TIP3     23396    TIP3     OH2      OT      -0.834000       15.9994           0
     80103 TIP3     23396    TIP3     H1       HT       0.417000       1.00800           0
     80104 TIP3     23396    TIP3     H2       HT       0.417000       1.00800           0
     80105 TIP3     23397    TIP3     OH2      OT      -0.834000       15.9994           0
     80106 TIP3     23397    TIP3     H1       HT       0.417000       1.00800           0
     80107 TIP3     23397    TIP3     H2       HT       0.417000       1.00800           0
     80108 TIP3     23398    TIP3     OH2      OT      -0.834000       15.9994           0
     80109 TIP3     23398    TIP3     H1       HT       0.417000       1.00800           0
     80110 TIP3     23398    TIP3     H2       HT       0.417000       1.00800           0
     80111 TIP3     23399    TIP3     OH2      OT      -0.834000       15.9994           0
     80112 TIP3     23399    TIP3     H1       HT       0.417000       1.00800           0
     80113 TIP3     23399    TIP3     H2       HT       0.417000       1.00800           0
     80114 TIP3     23400    TIP3     OH2      OT      -0.834000       15.9994           0
     80115 TIP3     23400    TIP3     H1       HT       0.417000       1.00800           0
     80116 TIP3     23400    TIP3     H2       HT       0.417000       1.00800           0
     80117 TIP3     23401    TIP3     OH2      OT      -0.834000       15.9994           0
     80118 TIP3     23401    TIP3     H1       HT       0.417000       1.00800           0
     80119 TIP3     23401    TIP3     H2       HT       0.417000       1.00800           0
     80120 TIP3     23402    TIP3     OH2      OT      -0.834000       15.9994           0
     80121 TIP3     23402    TIP3     H1       HT       0.417000       1.00800           0
     80122 TIP3     23402    TIP3     H2       HT       0.417000       1.00800           0
     80123 TIP3     23403    TIP3     OH2      OT      -0.834000       15.9994           0
     80124 TIP3     23403    TIP3     H1       HT       0.417000       1.00800           0
     80125 TIP3     23403    TIP3     H2       HT       0.417000       1.00800           0
     80126 TIP3     23404    TIP3     OH2      OT      -0.834000       15.9994           0
     80127 TIP3     23404    TIP3     H1       HT       0.417000       1.00800           0
     80128 TIP3     23404    TIP3     H2       HT       0.417000       1.00800           0
     80129 TIP3     23405    TIP3     OH2      OT      -0.834000       15.9994           0
     80130 TIP3     23405    TIP3     H1       HT       0.417000       1.00800           0
     80131 TIP3     23405    TIP3     H2       HT       0.417000       1.00800           0
     80132 TIP3     23406    TIP3     OH2      OT      -0.834000       15.9994           0
     80133 TIP3     23406    TIP3     H1       HT       0.417000       1.00800           0
     80134 TIP3     23406    TIP3     H2       HT       0.417000       1.00800           0
     80135 TIP3     23407    TIP3     OH2      OT      -0.834000       15.9994           0
     80136 TIP3     23407    TIP3     H1       HT       0.417000       1.00800           0
     80137 TIP3     23407    TIP3     H2       HT       0.417000       1.00800           0
     80138 TIP3     23408    TIP3     OH2      OT      -0.834000       15.9994           0
     80139 TIP3     23408    TIP3     H1       HT       0.417000       1.00800           0
     80140 TIP3     23408    TIP3     H2       HT       0.417000       1.00800           0
     80141 TIP3     23409    TIP3     OH2      OT      -0.834000       15.9994           0
     80142 TIP3     23409    TIP3     H1       HT       0.417000       1.00800           0
     80143 TIP3     23409    TIP3     H2       HT       0.417000       1.00800           0
     80144 TIP3     23410    TIP3     OH2      OT      -0.834000       15.9994           0
     80145 TIP3     23410    TIP3     H1       HT       0.417000       1.00800           0
     80146 TIP3     23410    TIP3     H2       HT       0.417000       1.00800           0
     80147 TIP3     23411    TIP3     OH2      OT      -0.834000       15.9994           0
     80148 TIP3     23411    TIP3     H1       HT       0.417000       1.00800           0
     80149 TIP3     23411    TIP3     H2       HT       0.417000       1.00800           0
     80150 TIP3     23412    TIP3     OH2      OT      -0.834000       15.9994           0
     80151 TIP3     23412    TIP3     H1       HT       0.417000       1.00800           0
     80152 TIP3     23412    TIP3     H2       HT       0.417000       1.00800           0
     80153 TIP3     23413    TIP3     OH2      OT      -0.834000       15.9994           0
     80154 TIP3     23413    TIP3     H1       HT       0.417000       1.00800           0
     80155 TIP3     23413    TIP3     H2       HT       0.417000       1.00800           0
     80156 TIP3     23414    TIP3     OH2      OT      -0.834000       15.9994           0
     80157 TIP3     23414    TIP3     H1       HT       0.417000       1.00800           0
     80158 TIP3     23414    TIP3     H2       HT       0.417000       1.00800           0
     80159 TIP3     23415    TIP3     OH2      OT      -0.834000       15.9994           0
     80160 TIP3     23415    TIP3     H1       HT       0.417000       1.00800           0
     80161 TIP3     23415    TIP3     H2       HT       0.417000       1.00800           0
     80162 TIP3     23416    TIP3     OH2      OT      -0.834000       15.9994           0
     80163 TIP3     23416    TIP3     H1       HT       0.417000       1.00800           0
     80164 TIP3     23416    TIP3     H2       HT       0.417000       1.00800           0
     80165 TIP3     23417    TIP3     OH2      OT      -0.834000       15.9994           0
     80166 TIP3     23417    TIP3     H1       HT       0.417000       1.00800           0
     80167 TIP3     23417    TIP3     H2       HT       0.417000       1.00800           0
     80168 TIP3     23418    TIP3     OH2      OT      -0.834000       15.9994           0
     80169 TIP3     23418    TIP3     H1       HT       0.417000       1.00800           0
     80170 TIP3     23418    TIP3     H2       HT       0.417000       1.00800           0
     80171 TIP3     23419    TIP3     OH2      OT      -0.834000       15.9994           0
     80172 TIP3     23419    TIP3     H1       HT       0.417000       1.00800           0
     80173 TIP3     23419    TIP3     H2       HT       0.417000       1.00800           0
     80174 TIP3     23420    TIP3     OH2      OT      -0.834000       15.9994           0
     80175 TIP3     23420    TIP3     H1       HT       0.417000       1.00800           0
     80176 TIP3     23420    TIP3     H2       HT       0.417000       1.00800           0
     80177 TIP3     23421    TIP3     OH2      OT      -0.834000       15.9994           0
     80178 TIP3     23421    TIP3     H1       HT       0.417000       1.00800           0
     80179 TIP3     23421    TIP3     H2       HT       0.417000       1.00800           0
     80180 TIP3     23422    TIP3     OH2      OT      -0.834000       15.9994           0
     80181 TIP3     23422    TIP3     H1       HT       0.417000       1.00800           0
     80182 TIP3     23422    TIP3     H2       HT       0.417000       1.00800           0
     80183 TIP3     23423    TIP3     OH2      OT      -0.834000       15.9994           0
     80184 TIP3     23423    TIP3     H1       HT       0.417000       1.00800           0
     80185 TIP3     23423    TIP3     H2       HT       0.417000       1.00800           0
     80186 TIP3     23424    TIP3     OH2      OT      -0.834000       15.9994           0
     80187 TIP3     23424    TIP3     H1       HT       0.417000       1.00800           0
     80188 TIP3     23424    TIP3     H2       HT       0.417000       1.00800           0
     80189 TIP3     23425    TIP3     OH2      OT      -0.834000       15.9994           0
     80190 TIP3     23425    TIP3     H1       HT       0.417000       1.00800           0
     80191 TIP3     23425    TIP3     H2       HT       0.417000       1.00800           0
     80192 TIP3     23426    TIP3     OH2      OT      -0.834000       15.9994           0
     80193 TIP3     23426    TIP3     H1       HT       0.417000       1.00800           0
     80194 TIP3     23426    TIP3     H2       HT       0.417000       1.00800           0
     80195 TIP3     23427    TIP3     OH2      OT      -0.834000       15.9994           0
     80196 TIP3     23427    TIP3     H1       HT       0.417000       1.00800           0
     80197 TIP3     23427    TIP3     H2       HT       0.417000       1.00800           0
     80198 TIP3     23428    TIP3     OH2      OT      -0.834000       15.9994           0
     80199 TIP3     23428    TIP3     H1       HT       0.417000       1.00800           0
     80200 TIP3     23428    TIP3     H2       HT       0.417000       1.00800           0
     80201 TIP3     23429    TIP3     OH2      OT      -0.834000       15.9994           0
     80202 TIP3     23429    TIP3     H1       HT       0.417000       1.00800           0
     80203 TIP3     23429    TIP3     H2       HT       0.417000       1.00800           0
     80204 TIP3     23430    TIP3     OH2      OT      -0.834000       15.9994           0
     80205 TIP3     23430    TIP3     H1       HT       0.417000       1.00800           0
     80206 TIP3     23430    TIP3     H2       HT       0.417000       1.00800           0
     80207 TIP3     23431    TIP3     OH2      OT      -0.834000       15.9994           0
     80208 TIP3     23431    TIP3     H1       HT       0.417000       1.00800           0
     80209 TIP3     23431    TIP3     H2       HT       0.417000       1.00800           0
     80210 TIP3     23432    TIP3     OH2      OT      -0.834000       15.9994           0
     80211 TIP3     23432    TIP3     H1       HT       0.417000       1.00800           0
     80212 TIP3     23432    TIP3     H2       HT       0.417000       1.00800           0
     80213 TIP3     23433    TIP3     OH2      OT      -0.834000       15.9994           0
     80214 TIP3     23433    TIP3     H1       HT       0.417000       1.00800           0
     80215 TIP3     23433    TIP3     H2       HT       0.417000       1.00800           0
     80216 TIP3     23434    TIP3     OH2      OT      -0.834000       15.9994           0
     80217 TIP3     23434    TIP3     H1       HT       0.417000       1.00800           0
     80218 TIP3     23434    TIP3     H2       HT       0.417000       1.00800           0
     80219 TIP3     23435    TIP3     OH2      OT      -0.834000       15.9994           0
     80220 TIP3     23435    TIP3     H1       HT       0.417000       1.00800           0
     80221 TIP3     23435    TIP3     H2       HT       0.417000       1.00800           0
     80222 TIP3     23436    TIP3     OH2      OT      -0.834000       15.9994           0
     80223 TIP3     23436    TIP3     H1       HT       0.417000       1.00800           0
     80224 TIP3     23436    TIP3     H2       HT       0.417000       1.00800           0
     80225 TIP3     23437    TIP3     OH2      OT      -0.834000       15.9994           0
     80226 TIP3     23437    TIP3     H1       HT       0.417000       1.00800           0
     80227 TIP3     23437    TIP3     H2       HT       0.417000       1.00800           0
     80228 TIP3     23438    TIP3     OH2      OT      -0.834000       15.9994           0
     80229 TIP3     23438    TIP3     H1       HT       0.417000       1.00800           0
     80230 TIP3     23438    TIP3     H2       HT       0.417000       1.00800           0
     80231 TIP3     23439    TIP3     OH2      OT      -0.834000       15.9994           0
     80232 TIP3     23439    TIP3     H1       HT       0.417000       1.00800           0
     80233 TIP3     23439    TIP3     H2       HT       0.417000       1.00800           0
     80234 TIP3     23440    TIP3     OH2      OT      -0.834000       15.9994           0
     80235 TIP3     23440    TIP3     H1       HT       0.417000       1.00800           0
     80236 TIP3     23440    TIP3     H2       HT       0.417000       1.00800           0
     80237 TIP3     23441    TIP3     OH2      OT      -0.834000       15.9994           0
     80238 TIP3     23441    TIP3     H1       HT       0.417000       1.00800           0
     80239 TIP3     23441    TIP3     H2       HT       0.417000       1.00800           0
     80240 TIP3     23442    TIP3     OH2      OT      -0.834000       15.9994           0
     80241 TIP3     23442    TIP3     H1       HT       0.417000       1.00800           0
     80242 TIP3     23442    TIP3     H2       HT       0.417000       1.00800           0
     80243 TIP3     23443    TIP3     OH2      OT      -0.834000       15.9994           0
     80244 TIP3     23443    TIP3     H1       HT       0.417000       1.00800           0
     80245 TIP3     23443    TIP3     H2       HT       0.417000       1.00800           0
     80246 TIP3     23444    TIP3     OH2      OT      -0.834000       15.9994           0
     80247 TIP3     23444    TIP3     H1       HT       0.417000       1.00800           0
     80248 TIP3     23444    TIP3     H2       HT       0.417000       1.00800           0
     80249 TIP3     23445    TIP3     OH2      OT      -0.834000       15.9994           0
     80250 TIP3     23445    TIP3     H1       HT       0.417000       1.00800           0
     80251 TIP3     23445    TIP3     H2       HT       0.417000       1.00800           0
     80252 TIP3     23446    TIP3     OH2      OT      -0.834000       15.9994           0
     80253 TIP3     23446    TIP3     H1       HT       0.417000       1.00800           0
     80254 TIP3     23446    TIP3     H2       HT       0.417000       1.00800           0
     80255 TIP3     23447    TIP3     OH2      OT      -0.834000       15.9994           0
     80256 TIP3     23447    TIP3     H1       HT       0.417000       1.00800           0
     80257 TIP3     23447    TIP3     H2       HT       0.417000       1.00800           0
     80258 TIP3     23448    TIP3     OH2      OT      -0.834000       15.9994           0
     80259 TIP3     23448    TIP3     H1       HT       0.417000       1.00800           0
     80260 TIP3     23448    TIP3     H2       HT       0.417000       1.00800           0
     80261 TIP3     23449    TIP3     OH2      OT      -0.834000       15.9994           0
     80262 TIP3     23449    TIP3     H1       HT       0.417000       1.00800           0
     80263 TIP3     23449    TIP3     H2       HT       0.417000       1.00800           0
     80264 TIP3     23450    TIP3     OH2      OT      -0.834000       15.9994           0
     80265 TIP3     23450    TIP3     H1       HT       0.417000       1.00800           0
     80266 TIP3     23450    TIP3     H2       HT       0.417000       1.00800           0
     80267 TIP3     23451    TIP3     OH2      OT      -0.834000       15.9994           0
     80268 TIP3     23451    TIP3     H1       HT       0.417000       1.00800           0
     80269 TIP3     23451    TIP3     H2       HT       0.417000       1.00800           0
     80270 TIP3     23452    TIP3     OH2      OT      -0.834000       15.9994           0
     80271 TIP3     23452    TIP3     H1       HT       0.417000       1.00800           0
     80272 TIP3     23452    TIP3     H2       HT       0.417000       1.00800           0
     80273 TIP3     23453    TIP3     OH2      OT      -0.834000       15.9994           0
     80274 TIP3     23453    TIP3     H1       HT       0.417000       1.00800           0
     80275 TIP3     23453    TIP3     H2       HT       0.417000       1.00800           0
     80276 TIP3     23454    TIP3     OH2      OT      -0.834000       15.9994           0
     80277 TIP3     23454    TIP3     H1       HT       0.417000       1.00800           0
     80278 TIP3     23454    TIP3     H2       HT       0.417000       1.00800           0
     80279 TIP3     23455    TIP3     OH2      OT      -0.834000       15.9994           0
     80280 TIP3     23455    TIP3     H1       HT       0.417000       1.00800           0
     80281 TIP3     23455    TIP3     H2       HT       0.417000       1.00800           0
     80282 TIP3     23456    TIP3     OH2      OT      -0.834000       15.9994           0
     80283 TIP3     23456    TIP3     H1       HT       0.417000       1.00800           0
     80284 TIP3     23456    TIP3     H2       HT       0.417000       1.00800           0
     80285 TIP3     23457    TIP3     OH2      OT      -0.834000       15.9994           0
     80286 TIP3     23457    TIP3     H1       HT       0.417000       1.00800           0
     80287 TIP3     23457    TIP3     H2       HT       0.417000       1.00800           0
     80288 TIP3     23458    TIP3     OH2      OT      -0.834000       15.9994           0
     80289 TIP3     23458    TIP3     H1       HT       0.417000       1.00800           0
     80290 TIP3     23458    TIP3     H2       HT       0.417000       1.00800           0
     80291 TIP3     23459    TIP3     OH2      OT      -0.834000       15.9994           0
     80292 TIP3     23459    TIP3     H1       HT       0.417000       1.00800           0
     80293 TIP3     23459    TIP3     H2       HT       0.417000       1.00800           0
     80294 TIP3     23460    TIP3     OH2      OT      -0.834000       15.9994           0
     80295 TIP3     23460    TIP3     H1       HT       0.417000       1.00800           0
     80296 TIP3     23460    TIP3     H2       HT       0.417000       1.00800           0
     80297 TIP3     23461    TIP3     OH2      OT      -0.834000       15.9994           0
     80298 TIP3     23461    TIP3     H1       HT       0.417000       1.00800           0
     80299 TIP3     23461    TIP3     H2       HT       0.417000       1.00800           0
     80300 TIP3     23462    TIP3     OH2      OT      -0.834000       15.9994           0
     80301 TIP3     23462    TIP3     H1       HT       0.417000       1.00800           0
     80302 TIP3     23462    TIP3     H2       HT       0.417000       1.00800           0
     80303 TIP3     23463    TIP3     OH2      OT      -0.834000       15.9994           0
     80304 TIP3     23463    TIP3     H1       HT       0.417000       1.00800           0
     80305 TIP3     23463    TIP3     H2       HT       0.417000       1.00800           0
     80306 TIP3     23464    TIP3     OH2      OT      -0.834000       15.9994           0
     80307 TIP3     23464    TIP3     H1       HT       0.417000       1.00800           0
     80308 TIP3     23464    TIP3     H2       HT       0.417000       1.00800           0
     80309 TIP3     23465    TIP3     OH2      OT      -0.834000       15.9994           0
     80310 TIP3     23465    TIP3     H1       HT       0.417000       1.00800           0
     80311 TIP3     23465    TIP3     H2       HT       0.417000       1.00800           0
     80312 TIP3     23466    TIP3     OH2      OT      -0.834000       15.9994           0
     80313 TIP3     23466    TIP3     H1       HT       0.417000       1.00800           0
     80314 TIP3     23466    TIP3     H2       HT       0.417000       1.00800           0
     80315 TIP3     23467    TIP3     OH2      OT      -0.834000       15.9994           0
     80316 TIP3     23467    TIP3     H1       HT       0.417000       1.00800           0
     80317 TIP3     23467    TIP3     H2       HT       0.417000       1.00800           0
     80318 TIP3     23468    TIP3     OH2      OT      -0.834000       15.9994           0
     80319 TIP3     23468    TIP3     H1       HT       0.417000       1.00800           0
     80320 TIP3     23468    TIP3     H2       HT       0.417000       1.00800           0
     80321 TIP3     23469    TIP3     OH2      OT      -0.834000       15.9994           0
     80322 TIP3     23469    TIP3     H1       HT       0.417000       1.00800           0
     80323 TIP3     23469    TIP3     H2       HT       0.417000       1.00800           0
     80324 TIP3     23470    TIP3     OH2      OT      -0.834000       15.9994           0
     80325 TIP3     23470    TIP3     H1       HT       0.417000       1.00800           0
     80326 TIP3     23470    TIP3     H2       HT       0.417000       1.00800           0
     80327 TIP3     23471    TIP3     OH2      OT      -0.834000       15.9994           0
     80328 TIP3     23471    TIP3     H1       HT       0.417000       1.00800           0
     80329 TIP3     23471    TIP3     H2       HT       0.417000       1.00800           0
     80330 TIP3     23472    TIP3     OH2      OT      -0.834000       15.9994           0
     80331 TIP3     23472    TIP3     H1       HT       0.417000       1.00800           0
     80332 TIP3     23472    TIP3     H2       HT       0.417000       1.00800           0
     80333 TIP3     23473    TIP3     OH2      OT      -0.834000       15.9994           0
     80334 TIP3     23473    TIP3     H1       HT       0.417000       1.00800           0
     80335 TIP3     23473    TIP3     H2       HT       0.417000       1.00800           0
     80336 TIP3     23474    TIP3     OH2      OT      -0.834000       15.9994           0
     80337 TIP3     23474    TIP3     H1       HT       0.417000       1.00800           0
     80338 TIP3     23474    TIP3     H2       HT       0.417000       1.00800           0
     80339 TIP3     23475    TIP3     OH2      OT      -0.834000       15.9994           0
     80340 TIP3     23475    TIP3     H1       HT       0.417000       1.00800           0
     80341 TIP3     23475    TIP3     H2       HT       0.417000       1.00800           0
     80342 TIP3     23476    TIP3     OH2      OT      -0.834000       15.9994           0
     80343 TIP3     23476    TIP3     H1       HT       0.417000       1.00800           0
     80344 TIP3     23476    TIP3     H2       HT       0.417000       1.00800           0
     80345 TIP3     23477    TIP3     OH2      OT      -0.834000       15.9994           0
     80346 TIP3     23477    TIP3     H1       HT       0.417000       1.00800           0
     80347 TIP3     23477    TIP3     H2       HT       0.417000       1.00800           0
     80348 TIP3     23478    TIP3     OH2      OT      -0.834000       15.9994           0
     80349 TIP3     23478    TIP3     H1       HT       0.417000       1.00800           0
     80350 TIP3     23478    TIP3     H2       HT       0.417000       1.00800           0
     80351 TIP3     23479    TIP3     OH2      OT      -0.834000       15.9994           0
     80352 TIP3     23479    TIP3     H1       HT       0.417000       1.00800           0
     80353 TIP3     23479    TIP3     H2       HT       0.417000       1.00800           0
     80354 TIP3     23480    TIP3     OH2      OT      -0.834000       15.9994           0
     80355 TIP3     23480    TIP3     H1       HT       0.417000       1.00800           0
     80356 TIP3     23480    TIP3     H2       HT       0.417000       1.00800           0
     80357 TIP3     23481    TIP3     OH2      OT      -0.834000       15.9994           0
     80358 TIP3     23481    TIP3     H1       HT       0.417000       1.00800           0
     80359 TIP3     23481    TIP3     H2       HT       0.417000       1.00800           0
     80360 TIP3     23482    TIP3     OH2      OT      -0.834000       15.9994           0
     80361 TIP3     23482    TIP3     H1       HT       0.417000       1.00800           0
     80362 TIP3     23482    TIP3     H2       HT       0.417000       1.00800           0
     80363 TIP3     23483    TIP3     OH2      OT      -0.834000       15.9994           0
     80364 TIP3     23483    TIP3     H1       HT       0.417000       1.00800           0
     80365 TIP3     23483    TIP3     H2       HT       0.417000       1.00800           0
     80366 TIP3     23484    TIP3     OH2      OT      -0.834000       15.9994           0
     80367 TIP3     23484    TIP3     H1       HT       0.417000       1.00800           0
     80368 TIP3     23484    TIP3     H2       HT       0.417000       1.00800           0
     80369 TIP3     23485    TIP3     OH2      OT      -0.834000       15.9994           0
     80370 TIP3     23485    TIP3     H1       HT       0.417000       1.00800           0
     80371 TIP3     23485    TIP3     H2       HT       0.417000       1.00800           0
     80372 TIP3     23486    TIP3     OH2      OT      -0.834000       15.9994           0
     80373 TIP3     23486    TIP3     H1       HT       0.417000       1.00800           0
     80374 TIP3     23486    TIP3     H2       HT       0.417000       1.00800           0
     80375 TIP3     23487    TIP3     OH2      OT      -0.834000       15.9994           0
     80376 TIP3     23487    TIP3     H1       HT       0.417000       1.00800           0
     80377 TIP3     23487    TIP3     H2       HT       0.417000       1.00800           0
     80378 TIP3     23488    TIP3     OH2      OT      -0.834000       15.9994           0
     80379 TIP3     23488    TIP3     H1       HT       0.417000       1.00800           0
     80380 TIP3     23488    TIP3     H2       HT       0.417000       1.00800           0
     80381 TIP3     23489    TIP3     OH2      OT      -0.834000       15.9994           0
     80382 TIP3     23489    TIP3     H1       HT       0.417000       1.00800           0
     80383 TIP3     23489    TIP3     H2       HT       0.417000       1.00800           0
     80384 TIP3     23490    TIP3     OH2      OT      -0.834000       15.9994           0
     80385 TIP3     23490    TIP3     H1       HT       0.417000       1.00800           0
     80386 TIP3     23490    TIP3     H2       HT       0.417000       1.00800           0
     80387 TIP3     23491    TIP3     OH2      OT      -0.834000       15.9994           0
     80388 TIP3     23491    TIP3     H1       HT       0.417000       1.00800           0
     80389 TIP3     23491    TIP3     H2       HT       0.417000       1.00800           0
     80390 TIP3     23492    TIP3     OH2      OT      -0.834000       15.9994           0
     80391 TIP3     23492    TIP3     H1       HT       0.417000       1.00800           0
     80392 TIP3     23492    TIP3     H2       HT       0.417000       1.00800           0
     80393 TIP3     23493    TIP3     OH2      OT      -0.834000       15.9994           0
     80394 TIP3     23493    TIP3     H1       HT       0.417000       1.00800           0
     80395 TIP3     23493    TIP3     H2       HT       0.417000       1.00800           0
     80396 TIP3     23494    TIP3     OH2      OT      -0.834000       15.9994           0
     80397 TIP3     23494    TIP3     H1       HT       0.417000       1.00800           0
     80398 TIP3     23494    TIP3     H2       HT       0.417000       1.00800           0
     80399 TIP3     23495    TIP3     OH2      OT      -0.834000       15.9994           0
     80400 TIP3     23495    TIP3     H1       HT       0.417000       1.00800           0
     80401 TIP3     23495    TIP3     H2       HT       0.417000       1.00800           0
     80402 TIP3     23496    TIP3     OH2      OT      -0.834000       15.9994           0
     80403 TIP3     23496    TIP3     H1       HT       0.417000       1.00800           0
     80404 TIP3     23496    TIP3     H2       HT       0.417000       1.00800           0
     80405 TIP3     23497    TIP3     OH2      OT      -0.834000       15.9994           0
     80406 TIP3     23497    TIP3     H1       HT       0.417000       1.00800           0
     80407 TIP3     23497    TIP3     H2       HT       0.417000       1.00800           0
     80408 TIP3     23498    TIP3     OH2      OT      -0.834000       15.9994           0
     80409 TIP3     23498    TIP3     H1       HT       0.417000       1.00800           0
     80410 TIP3     23498    TIP3     H2       HT       0.417000       1.00800           0
     80411 TIP3     23499    TIP3     OH2      OT      -0.834000       15.9994           0
     80412 TIP3     23499    TIP3     H1       HT       0.417000       1.00800           0
     80413 TIP3     23499    TIP3     H2       HT       0.417000       1.00800           0
     80414 TIP3     23500    TIP3     OH2      OT      -0.834000       15.9994           0
     80415 TIP3     23500    TIP3     H1       HT       0.417000       1.00800           0
     80416 TIP3     23500    TIP3     H2       HT       0.417000       1.00800           0
     80417 TIP3     23501    TIP3     OH2      OT      -0.834000       15.9994           0
     80418 TIP3     23501    TIP3     H1       HT       0.417000       1.00800           0
     80419 TIP3     23501    TIP3     H2       HT       0.417000       1.00800           0
     80420 TIP3     23502    TIP3     OH2      OT      -0.834000       15.9994           0
     80421 TIP3     23502    TIP3     H1       HT       0.417000       1.00800           0
     80422 TIP3     23502    TIP3     H2       HT       0.417000       1.00800           0
     80423 TIP3     23503    TIP3     OH2      OT      -0.834000       15.9994           0
     80424 TIP3     23503    TIP3     H1       HT       0.417000       1.00800           0
     80425 TIP3     23503    TIP3     H2       HT       0.417000       1.00800           0
     80426 TIP3     23504    TIP3     OH2      OT      -0.834000       15.9994           0
     80427 TIP3     23504    TIP3     H1       HT       0.417000       1.00800           0
     80428 TIP3     23504    TIP3     H2       HT       0.417000       1.00800           0
     80429 TIP3     23505    TIP3     OH2      OT      -0.834000       15.9994           0
     80430 TIP3     23505    TIP3     H1       HT       0.417000       1.00800           0
     80431 TIP3     23505    TIP3     H2       HT       0.417000       1.00800           0
     80432 TIP3     23506    TIP3     OH2      OT      -0.834000       15.9994           0
     80433 TIP3     23506    TIP3     H1       HT       0.417000       1.00800           0
     80434 TIP3     23506    TIP3     H2       HT       0.417000       1.00800           0
     80435 TIP3     23507    TIP3     OH2      OT      -0.834000       15.9994           0
     80436 TIP3     23507    TIP3     H1       HT       0.417000       1.00800           0
     80437 TIP3     23507    TIP3     H2       HT       0.417000       1.00800           0
     80438 TIP3     23508    TIP3     OH2      OT      -0.834000       15.9994           0
     80439 TIP3     23508    TIP3     H1       HT       0.417000       1.00800           0
     80440 TIP3     23508    TIP3     H2       HT       0.417000       1.00800           0
     80441 TIP3     23509    TIP3     OH2      OT      -0.834000       15.9994           0
     80442 TIP3     23509    TIP3     H1       HT       0.417000       1.00800           0
     80443 TIP3     23509    TIP3     H2       HT       0.417000       1.00800           0
     80444 TIP3     23510    TIP3     OH2      OT      -0.834000       15.9994           0
     80445 TIP3     23510    TIP3     H1       HT       0.417000       1.00800           0
     80446 TIP3     23510    TIP3     H2       HT       0.417000       1.00800           0
     80447 TIP3     23511    TIP3     OH2      OT      -0.834000       15.9994           0
     80448 TIP3     23511    TIP3     H1       HT       0.417000       1.00800           0
     80449 TIP3     23511    TIP3     H2       HT       0.417000       1.00800           0
     80450 TIP3     23512    TIP3     OH2      OT      -0.834000       15.9994           0
     80451 TIP3     23512    TIP3     H1       HT       0.417000       1.00800           0
     80452 TIP3     23512    TIP3     H2       HT       0.417000       1.00800           0
     80453 TIP3     23513    TIP3     OH2      OT      -0.834000       15.9994           0
     80454 TIP3     23513    TIP3     H1       HT       0.417000       1.00800           0
     80455 TIP3     23513    TIP3     H2       HT       0.417000       1.00800           0
     80456 TIP3     23514    TIP3     OH2      OT      -0.834000       15.9994           0
     80457 TIP3     23514    TIP3     H1       HT       0.417000       1.00800           0
     80458 TIP3     23514    TIP3     H2       HT       0.417000       1.00800           0
     80459 TIP3     23515    TIP3     OH2      OT      -0.834000       15.9994           0
     80460 TIP3     23515    TIP3     H1       HT       0.417000       1.00800           0
     80461 TIP3     23515    TIP3     H2       HT       0.417000       1.00800           0
     80462 TIP3     23516    TIP3     OH2      OT      -0.834000       15.9994           0
     80463 TIP3     23516    TIP3     H1       HT       0.417000       1.00800           0
     80464 TIP3     23516    TIP3     H2       HT       0.417000       1.00800           0
     80465 TIP3     23517    TIP3     OH2      OT      -0.834000       15.9994           0
     80466 TIP3     23517    TIP3     H1       HT       0.417000       1.00800           0
     80467 TIP3     23517    TIP3     H2       HT       0.417000       1.00800           0
     80468 TIP3     23518    TIP3     OH2      OT      -0.834000       15.9994           0
     80469 TIP3     23518    TIP3     H1       HT       0.417000       1.00800           0
     80470 TIP3     23518    TIP3     H2       HT       0.417000       1.00800           0
     80471 TIP3     23519    TIP3     OH2      OT      -0.834000       15.9994           0
     80472 TIP3     23519    TIP3     H1       HT       0.417000       1.00800           0
     80473 TIP3     23519    TIP3     H2       HT       0.417000       1.00800           0
     80474 TIP3     23520    TIP3     OH2      OT      -0.834000       15.9994           0
     80475 TIP3     23520    TIP3     H1       HT       0.417000       1.00800           0
     80476 TIP3     23520    TIP3     H2       HT       0.417000       1.00800           0
     80477 TIP3     23521    TIP3     OH2      OT      -0.834000       15.9994           0
     80478 TIP3     23521    TIP3     H1       HT       0.417000       1.00800           0
     80479 TIP3     23521    TIP3     H2       HT       0.417000       1.00800           0
     80480 TIP3     23522    TIP3     OH2      OT      -0.834000       15.9994           0
     80481 TIP3     23522    TIP3     H1       HT       0.417000       1.00800           0
     80482 TIP3     23522    TIP3     H2       HT       0.417000       1.00800           0
     80483 TIP3     23523    TIP3     OH2      OT      -0.834000       15.9994           0
     80484 TIP3     23523    TIP3     H1       HT       0.417000       1.00800           0
     80485 TIP3     23523    TIP3     H2       HT       0.417000       1.00800           0
     80486 TIP3     23524    TIP3     OH2      OT      -0.834000       15.9994           0
     80487 TIP3     23524    TIP3     H1       HT       0.417000       1.00800           0
     80488 TIP3     23524    TIP3     H2       HT       0.417000       1.00800           0
     80489 TIP3     23525    TIP3     OH2      OT      -0.834000       15.9994           0
     80490 TIP3     23525    TIP3     H1       HT       0.417000       1.00800           0
     80491 TIP3     23525    TIP3     H2       HT       0.417000       1.00800           0
     80492 TIP3     23526    TIP3     OH2      OT      -0.834000       15.9994           0
     80493 TIP3     23526    TIP3     H1       HT       0.417000       1.00800           0
     80494 TIP3     23526    TIP3     H2       HT       0.417000       1.00800           0
     80495 TIP3     23527    TIP3     OH2      OT      -0.834000       15.9994           0
     80496 TIP3     23527    TIP3     H1       HT       0.417000       1.00800           0
     80497 TIP3     23527    TIP3     H2       HT       0.417000       1.00800           0
     80498 TIP3     23528    TIP3     OH2      OT      -0.834000       15.9994           0
     80499 TIP3     23528    TIP3     H1       HT       0.417000       1.00800           0
     80500 TIP3     23528    TIP3     H2       HT       0.417000       1.00800           0
     80501 TIP3     23529    TIP3     OH2      OT      -0.834000       15.9994           0
     80502 TIP3     23529    TIP3     H1       HT       0.417000       1.00800           0
     80503 TIP3     23529    TIP3     H2       HT       0.417000       1.00800           0
     80504 TIP3     23530    TIP3     OH2      OT      -0.834000       15.9994           0
     80505 TIP3     23530    TIP3     H1       HT       0.417000       1.00800           0
     80506 TIP3     23530    TIP3     H2       HT       0.417000       1.00800           0
     80507 TIP3     23531    TIP3     OH2      OT      -0.834000       15.9994           0
     80508 TIP3     23531    TIP3     H1       HT       0.417000       1.00800           0
     80509 TIP3     23531    TIP3     H2       HT       0.417000       1.00800           0
     80510 TIP3     23532    TIP3     OH2      OT      -0.834000       15.9994           0
     80511 TIP3     23532    TIP3     H1       HT       0.417000       1.00800           0
     80512 TIP3     23532    TIP3     H2       HT       0.417000       1.00800           0
     80513 TIP3     23533    TIP3     OH2      OT      -0.834000       15.9994           0
     80514 TIP3     23533    TIP3     H1       HT       0.417000       1.00800           0
     80515 TIP3     23533    TIP3     H2       HT       0.417000       1.00800           0
     80516 TIP3     23534    TIP3     OH2      OT      -0.834000       15.9994           0
     80517 TIP3     23534    TIP3     H1       HT       0.417000       1.00800           0
     80518 TIP3     23534    TIP3     H2       HT       0.417000       1.00800           0
     80519 TIP3     23535    TIP3     OH2      OT      -0.834000       15.9994           0
     80520 TIP3     23535    TIP3     H1       HT       0.417000       1.00800           0
     80521 TIP3     23535    TIP3     H2       HT       0.417000       1.00800           0
     80522 TIP3     23536    TIP3     OH2      OT      -0.834000       15.9994           0
     80523 TIP3     23536    TIP3     H1       HT       0.417000       1.00800           0
     80524 TIP3     23536    TIP3     H2       HT       0.417000       1.00800           0
     80525 TIP3     23537    TIP3     OH2      OT      -0.834000       15.9994           0
     80526 TIP3     23537    TIP3     H1       HT       0.417000       1.00800           0
     80527 TIP3     23537    TIP3     H2       HT       0.417000       1.00800           0
     80528 TIP3     23538    TIP3     OH2      OT      -0.834000       15.9994           0
     80529 TIP3     23538    TIP3     H1       HT       0.417000       1.00800           0
     80530 TIP3     23538    TIP3     H2       HT       0.417000       1.00800           0
     80531 TIP3     23539    TIP3     OH2      OT      -0.834000       15.9994           0
     80532 TIP3     23539    TIP3     H1       HT       0.417000       1.00800           0
     80533 TIP3     23539    TIP3     H2       HT       0.417000       1.00800           0
     80534 TIP3     23540    TIP3     OH2      OT      -0.834000       15.9994           0
     80535 TIP3     23540    TIP3     H1       HT       0.417000       1.00800           0
     80536 TIP3     23540    TIP3     H2       HT       0.417000       1.00800           0
     80537 TIP3     23541    TIP3     OH2      OT      -0.834000       15.9994           0
     80538 TIP3     23541    TIP3     H1       HT       0.417000       1.00800           0
     80539 TIP3     23541    TIP3     H2       HT       0.417000       1.00800           0
     80540 TIP3     23542    TIP3     OH2      OT      -0.834000       15.9994           0
     80541 TIP3     23542    TIP3     H1       HT       0.417000       1.00800           0
     80542 TIP3     23542    TIP3     H2       HT       0.417000       1.00800           0
     80543 TIP3     23543    TIP3     OH2      OT      -0.834000       15.9994           0
     80544 TIP3     23543    TIP3     H1       HT       0.417000       1.00800           0
     80545 TIP3     23543    TIP3     H2       HT       0.417000       1.00800           0
     80546 TIP3     23544    TIP3     OH2      OT      -0.834000       15.9994           0
     80547 TIP3     23544    TIP3     H1       HT       0.417000       1.00800           0
     80548 TIP3     23544    TIP3     H2       HT       0.417000       1.00800           0
     80549 TIP3     23545    TIP3     OH2      OT      -0.834000       15.9994           0
     80550 TIP3     23545    TIP3     H1       HT       0.417000       1.00800           0
     80551 TIP3     23545    TIP3     H2       HT       0.417000       1.00800           0
     80552 TIP3     23546    TIP3     OH2      OT      -0.834000       15.9994           0
     80553 TIP3     23546    TIP3     H1       HT       0.417000       1.00800           0
     80554 TIP3     23546    TIP3     H2       HT       0.417000       1.00800           0
     80555 TIP3     23547    TIP3     OH2      OT      -0.834000       15.9994           0
     80556 TIP3     23547    TIP3     H1       HT       0.417000       1.00800           0
     80557 TIP3     23547    TIP3     H2       HT       0.417000       1.00800           0
     80558 TIP3     23548    TIP3     OH2      OT      -0.834000       15.9994           0
     80559 TIP3     23548    TIP3     H1       HT       0.417000       1.00800           0
     80560 TIP3     23548    TIP3     H2       HT       0.417000       1.00800           0
     80561 TIP3     23549    TIP3     OH2      OT      -0.834000       15.9994           0
     80562 TIP3     23549    TIP3     H1       HT       0.417000       1.00800           0
     80563 TIP3     23549    TIP3     H2       HT       0.417000       1.00800           0
     80564 TIP3     23550    TIP3     OH2      OT      -0.834000       15.9994           0
     80565 TIP3     23550    TIP3     H1       HT       0.417000       1.00800           0
     80566 TIP3     23550    TIP3     H2       HT       0.417000       1.00800           0
     80567 TIP3     23551    TIP3     OH2      OT      -0.834000       15.9994           0
     80568 TIP3     23551    TIP3     H1       HT       0.417000       1.00800           0
     80569 TIP3     23551    TIP3     H2       HT       0.417000       1.00800           0
     80570 TIP3     23552    TIP3     OH2      OT      -0.834000       15.9994           0
     80571 TIP3     23552    TIP3     H1       HT       0.417000       1.00800           0
     80572 TIP3     23552    TIP3     H2       HT       0.417000       1.00800           0
     80573 TIP3     23553    TIP3     OH2      OT      -0.834000       15.9994           0
     80574 TIP3     23553    TIP3     H1       HT       0.417000       1.00800           0
     80575 TIP3     23553    TIP3     H2       HT       0.417000       1.00800           0
     80576 TIP3     23554    TIP3     OH2      OT      -0.834000       15.9994           0
     80577 TIP3     23554    TIP3     H1       HT       0.417000       1.00800           0
     80578 TIP3     23554    TIP3     H2       HT       0.417000       1.00800           0
     80579 TIP3     23555    TIP3     OH2      OT      -0.834000       15.9994           0
     80580 TIP3     23555    TIP3     H1       HT       0.417000       1.00800           0
     80581 TIP3     23555    TIP3     H2       HT       0.417000       1.00800           0
     80582 TIP3     23556    TIP3     OH2      OT      -0.834000       15.9994           0
     80583 TIP3     23556    TIP3     H1       HT       0.417000       1.00800           0
     80584 TIP3     23556    TIP3     H2       HT       0.417000       1.00800           0
     80585 TIP3     23557    TIP3     OH2      OT      -0.834000       15.9994           0
     80586 TIP3     23557    TIP3     H1       HT       0.417000       1.00800           0
     80587 TIP3     23557    TIP3     H2       HT       0.417000       1.00800           0
     80588 TIP3     23558    TIP3     OH2      OT      -0.834000       15.9994           0
     80589 TIP3     23558    TIP3     H1       HT       0.417000       1.00800           0
     80590 TIP3     23558    TIP3     H2       HT       0.417000       1.00800           0
     80591 TIP3     23559    TIP3     OH2      OT      -0.834000       15.9994           0
     80592 TIP3     23559    TIP3     H1       HT       0.417000       1.00800           0
     80593 TIP3     23559    TIP3     H2       HT       0.417000       1.00800           0
     80594 TIP3     23560    TIP3     OH2      OT      -0.834000       15.9994           0
     80595 TIP3     23560    TIP3     H1       HT       0.417000       1.00800           0
     80596 TIP3     23560    TIP3     H2       HT       0.417000       1.00800           0
     80597 TIP3     23561    TIP3     OH2      OT      -0.834000       15.9994           0
     80598 TIP3     23561    TIP3     H1       HT       0.417000       1.00800           0
     80599 TIP3     23561    TIP3     H2       HT       0.417000       1.00800           0
     80600 TIP3     23562    TIP3     OH2      OT      -0.834000       15.9994           0
     80601 TIP3     23562    TIP3     H1       HT       0.417000       1.00800           0
     80602 TIP3     23562    TIP3     H2       HT       0.417000       1.00800           0
     80603 TIP3     23563    TIP3     OH2      OT      -0.834000       15.9994           0
     80604 TIP3     23563    TIP3     H1       HT       0.417000       1.00800           0
     80605 TIP3     23563    TIP3     H2       HT       0.417000       1.00800           0
     80606 TIP3     23564    TIP3     OH2      OT      -0.834000       15.9994           0
     80607 TIP3     23564    TIP3     H1       HT       0.417000       1.00800           0
     80608 TIP3     23564    TIP3     H2       HT       0.417000       1.00800           0
     80609 TIP3     23565    TIP3     OH2      OT      -0.834000       15.9994           0
     80610 TIP3     23565    TIP3     H1       HT       0.417000       1.00800           0
     80611 TIP3     23565    TIP3     H2       HT       0.417000       1.00800           0
     80612 TIP3     23566    TIP3     OH2      OT      -0.834000       15.9994           0
     80613 TIP3     23566    TIP3     H1       HT       0.417000       1.00800           0
     80614 TIP3     23566    TIP3     H2       HT       0.417000       1.00800           0
     80615 TIP3     23567    TIP3     OH2      OT      -0.834000       15.9994           0
     80616 TIP3     23567    TIP3     H1       HT       0.417000       1.00800           0
     80617 TIP3     23567    TIP3     H2       HT       0.417000       1.00800           0
     80618 TIP3     23568    TIP3     OH2      OT      -0.834000       15.9994           0
     80619 TIP3     23568    TIP3     H1       HT       0.417000       1.00800           0
     80620 TIP3     23568    TIP3     H2       HT       0.417000       1.00800           0
     80621 TIP3     23569    TIP3     OH2      OT      -0.834000       15.9994           0
     80622 TIP3     23569    TIP3     H1       HT       0.417000       1.00800           0
     80623 TIP3     23569    TIP3     H2       HT       0.417000       1.00800           0
     80624 TIP3     23570    TIP3     OH2      OT      -0.834000       15.9994           0
     80625 TIP3     23570    TIP3     H1       HT       0.417000       1.00800           0
     80626 TIP3     23570    TIP3     H2       HT       0.417000       1.00800           0
     80627 TIP3     23571    TIP3     OH2      OT      -0.834000       15.9994           0
     80628 TIP3     23571    TIP3     H1       HT       0.417000       1.00800           0
     80629 TIP3     23571    TIP3     H2       HT       0.417000       1.00800           0
     80630 TIP3     23572    TIP3     OH2      OT      -0.834000       15.9994           0
     80631 TIP3     23572    TIP3     H1       HT       0.417000       1.00800           0
     80632 TIP3     23572    TIP3     H2       HT       0.417000       1.00800           0
     80633 TIP3     23573    TIP3     OH2      OT      -0.834000       15.9994           0
     80634 TIP3     23573    TIP3     H1       HT       0.417000       1.00800           0
     80635 TIP3     23573    TIP3     H2       HT       0.417000       1.00800           0
     80636 TIP3     23574    TIP3     OH2      OT      -0.834000       15.9994           0
     80637 TIP3     23574    TIP3     H1       HT       0.417000       1.00800           0
     80638 TIP3     23574    TIP3     H2       HT       0.417000       1.00800           0
     80639 TIP3     23575    TIP3     OH2      OT      -0.834000       15.9994           0
     80640 TIP3     23575    TIP3     H1       HT       0.417000       1.00800           0
     80641 TIP3     23575    TIP3     H2       HT       0.417000       1.00800           0
     80642 TIP3     23576    TIP3     OH2      OT      -0.834000       15.9994           0
     80643 TIP3     23576    TIP3     H1       HT       0.417000       1.00800           0
     80644 TIP3     23576    TIP3     H2       HT       0.417000       1.00800           0
     80645 TIP3     23577    TIP3     OH2      OT      -0.834000       15.9994           0
     80646 TIP3     23577    TIP3     H1       HT       0.417000       1.00800           0
     80647 TIP3     23577    TIP3     H2       HT       0.417000       1.00800           0
     80648 TIP3     23578    TIP3     OH2      OT      -0.834000       15.9994           0
     80649 TIP3     23578    TIP3     H1       HT       0.417000       1.00800           0
     80650 TIP3     23578    TIP3     H2       HT       0.417000       1.00800           0
     80651 TIP3     23579    TIP3     OH2      OT      -0.834000       15.9994           0
     80652 TIP3     23579    TIP3     H1       HT       0.417000       1.00800           0
     80653 TIP3     23579    TIP3     H2       HT       0.417000       1.00800           0
     80654 TIP3     23580    TIP3     OH2      OT      -0.834000       15.9994           0
     80655 TIP3     23580    TIP3     H1       HT       0.417000       1.00800           0
     80656 TIP3     23580    TIP3     H2       HT       0.417000       1.00800           0
     80657 TIP3     23581    TIP3     OH2      OT      -0.834000       15.9994           0
     80658 TIP3     23581    TIP3     H1       HT       0.417000       1.00800           0
     80659 TIP3     23581    TIP3     H2       HT       0.417000       1.00800           0
     80660 TIP3     23582    TIP3     OH2      OT      -0.834000       15.9994           0
     80661 TIP3     23582    TIP3     H1       HT       0.417000       1.00800           0
     80662 TIP3     23582    TIP3     H2       HT       0.417000       1.00800           0
     80663 TIP3     23583    TIP3     OH2      OT      -0.834000       15.9994           0
     80664 TIP3     23583    TIP3     H1       HT       0.417000       1.00800           0
     80665 TIP3     23583    TIP3     H2       HT       0.417000       1.00800           0
     80666 TIP3     23584    TIP3     OH2      OT      -0.834000       15.9994           0
     80667 TIP3     23584    TIP3     H1       HT       0.417000       1.00800           0
     80668 TIP3     23584    TIP3     H2       HT       0.417000       1.00800           0
     80669 TIP3     23585    TIP3     OH2      OT      -0.834000       15.9994           0
     80670 TIP3     23585    TIP3     H1       HT       0.417000       1.00800           0
     80671 TIP3     23585    TIP3     H2       HT       0.417000       1.00800           0
     80672 TIP3     23586    TIP3     OH2      OT      -0.834000       15.9994           0
     80673 TIP3     23586    TIP3     H1       HT       0.417000       1.00800           0
     80674 TIP3     23586    TIP3     H2       HT       0.417000       1.00800           0
     80675 TIP3     23587    TIP3     OH2      OT      -0.834000       15.9994           0
     80676 TIP3     23587    TIP3     H1       HT       0.417000       1.00800           0
     80677 TIP3     23587    TIP3     H2       HT       0.417000       1.00800           0
     80678 TIP3     23588    TIP3     OH2      OT      -0.834000       15.9994           0
     80679 TIP3     23588    TIP3     H1       HT       0.417000       1.00800           0
     80680 TIP3     23588    TIP3     H2       HT       0.417000       1.00800           0
     80681 TIP3     23589    TIP3     OH2      OT      -0.834000       15.9994           0
     80682 TIP3     23589    TIP3     H1       HT       0.417000       1.00800           0
     80683 TIP3     23589    TIP3     H2       HT       0.417000       1.00800           0
     80684 TIP3     23590    TIP3     OH2      OT      -0.834000       15.9994           0
     80685 TIP3     23590    TIP3     H1       HT       0.417000       1.00800           0
     80686 TIP3     23590    TIP3     H2       HT       0.417000       1.00800           0
     80687 TIP3     23591    TIP3     OH2      OT      -0.834000       15.9994           0
     80688 TIP3     23591    TIP3     H1       HT       0.417000       1.00800           0
     80689 TIP3     23591    TIP3     H2       HT       0.417000       1.00800           0
     80690 TIP3     23592    TIP3     OH2      OT      -0.834000       15.9994           0
     80691 TIP3     23592    TIP3     H1       HT       0.417000       1.00800           0
     80692 TIP3     23592    TIP3     H2       HT       0.417000       1.00800           0
     80693 TIP3     23593    TIP3     OH2      OT      -0.834000       15.9994           0
     80694 TIP3     23593    TIP3     H1       HT       0.417000       1.00800           0
     80695 TIP3     23593    TIP3     H2       HT       0.417000       1.00800           0
     80696 TIP3     23594    TIP3     OH2      OT      -0.834000       15.9994           0
     80697 TIP3     23594    TIP3     H1       HT       0.417000       1.00800           0
     80698 TIP3     23594    TIP3     H2       HT       0.417000       1.00800           0
     80699 TIP3     23595    TIP3     OH2      OT      -0.834000       15.9994           0
     80700 TIP3     23595    TIP3     H1       HT       0.417000       1.00800           0
     80701 TIP3     23595    TIP3     H2       HT       0.417000       1.00800           0
     80702 TIP3     23596    TIP3     OH2      OT      -0.834000       15.9994           0
     80703 TIP3     23596    TIP3     H1       HT       0.417000       1.00800           0
     80704 TIP3     23596    TIP3     H2       HT       0.417000       1.00800           0
     80705 TIP3     23597    TIP3     OH2      OT      -0.834000       15.9994           0
     80706 TIP3     23597    TIP3     H1       HT       0.417000       1.00800           0
     80707 TIP3     23597    TIP3     H2       HT       0.417000       1.00800           0
     80708 TIP3     23598    TIP3     OH2      OT      -0.834000       15.9994           0
     80709 TIP3     23598    TIP3     H1       HT       0.417000       1.00800           0
     80710 TIP3     23598    TIP3     H2       HT       0.417000       1.00800           0
     80711 TIP3     23599    TIP3     OH2      OT      -0.834000       15.9994           0
     80712 TIP3     23599    TIP3     H1       HT       0.417000       1.00800           0
     80713 TIP3     23599    TIP3     H2       HT       0.417000       1.00800           0
     80714 TIP3     23600    TIP3     OH2      OT      -0.834000       15.9994           0
     80715 TIP3     23600    TIP3     H1       HT       0.417000       1.00800           0
     80716 TIP3     23600    TIP3     H2       HT       0.417000       1.00800           0
     80717 TIP3     23601    TIP3     OH2      OT      -0.834000       15.9994           0
     80718 TIP3     23601    TIP3     H1       HT       0.417000       1.00800           0
     80719 TIP3     23601    TIP3     H2       HT       0.417000       1.00800           0
     80720 TIP3     23602    TIP3     OH2      OT      -0.834000       15.9994           0
     80721 TIP3     23602    TIP3     H1       HT       0.417000       1.00800           0
     80722 TIP3     23602    TIP3     H2       HT       0.417000       1.00800           0
     80723 TIP3     23603    TIP3     OH2      OT      -0.834000       15.9994           0
     80724 TIP3     23603    TIP3     H1       HT       0.417000       1.00800           0
     80725 TIP3     23603    TIP3     H2       HT       0.417000       1.00800           0
     80726 TIP3     23604    TIP3     OH2      OT      -0.834000       15.9994           0
     80727 TIP3     23604    TIP3     H1       HT       0.417000       1.00800           0
     80728 TIP3     23604    TIP3     H2       HT       0.417000       1.00800           0
     80729 TIP3     23605    TIP3     OH2      OT      -0.834000       15.9994           0
     80730 TIP3     23605    TIP3     H1       HT       0.417000       1.00800           0
     80731 TIP3     23605    TIP3     H2       HT       0.417000       1.00800           0
     80732 TIP3     23606    TIP3     OH2      OT      -0.834000       15.9994           0
     80733 TIP3     23606    TIP3     H1       HT       0.417000       1.00800           0
     80734 TIP3     23606    TIP3     H2       HT       0.417000       1.00800           0
     80735 TIP3     23607    TIP3     OH2      OT      -0.834000       15.9994           0
     80736 TIP3     23607    TIP3     H1       HT       0.417000       1.00800           0
     80737 TIP3     23607    TIP3     H2       HT       0.417000       1.00800           0
     80738 TIP3     23608    TIP3     OH2      OT      -0.834000       15.9994           0
     80739 TIP3     23608    TIP3     H1       HT       0.417000       1.00800           0
     80740 TIP3     23608    TIP3     H2       HT       0.417000       1.00800           0
     80741 TIP3     23609    TIP3     OH2      OT      -0.834000       15.9994           0
     80742 TIP3     23609    TIP3     H1       HT       0.417000       1.00800           0
     80743 TIP3     23609    TIP3     H2       HT       0.417000       1.00800           0
     80744 TIP3     23610    TIP3     OH2      OT      -0.834000       15.9994           0
     80745 TIP3     23610    TIP3     H1       HT       0.417000       1.00800           0
     80746 TIP3     23610    TIP3     H2       HT       0.417000       1.00800           0
     80747 TIP3     23611    TIP3     OH2      OT      -0.834000       15.9994           0
     80748 TIP3     23611    TIP3     H1       HT       0.417000       1.00800           0
     80749 TIP3     23611    TIP3     H2       HT       0.417000       1.00800           0
     80750 TIP3     23612    TIP3     OH2      OT      -0.834000       15.9994           0
     80751 TIP3     23612    TIP3     H1       HT       0.417000       1.00800           0
     80752 TIP3     23612    TIP3     H2       HT       0.417000       1.00800           0
     80753 TIP3     23613    TIP3     OH2      OT      -0.834000       15.9994           0
     80754 TIP3     23613    TIP3     H1       HT       0.417000       1.00800           0
     80755 TIP3     23613    TIP3     H2       HT       0.417000       1.00800           0
     80756 TIP3     23614    TIP3     OH2      OT      -0.834000       15.9994           0
     80757 TIP3     23614    TIP3     H1       HT       0.417000       1.00800           0
     80758 TIP3     23614    TIP3     H2       HT       0.417000       1.00800           0
     80759 TIP3     23615    TIP3     OH2      OT      -0.834000       15.9994           0
     80760 TIP3     23615    TIP3     H1       HT       0.417000       1.00800           0
     80761 TIP3     23615    TIP3     H2       HT       0.417000       1.00800           0
     80762 TIP3     23616    TIP3     OH2      OT      -0.834000       15.9994           0
     80763 TIP3     23616    TIP3     H1       HT       0.417000       1.00800           0
     80764 TIP3     23616    TIP3     H2       HT       0.417000       1.00800           0
     80765 TIP3     23617    TIP3     OH2      OT      -0.834000       15.9994           0
     80766 TIP3     23617    TIP3     H1       HT       0.417000       1.00800           0
     80767 TIP3     23617    TIP3     H2       HT       0.417000       1.00800           0
     80768 TIP3     23618    TIP3     OH2      OT      -0.834000       15.9994           0
     80769 TIP3     23618    TIP3     H1       HT       0.417000       1.00800           0
     80770 TIP3     23618    TIP3     H2       HT       0.417000       1.00800           0
     80771 TIP3     23619    TIP3     OH2      OT      -0.834000       15.9994           0
     80772 TIP3     23619    TIP3     H1       HT       0.417000       1.00800           0
     80773 TIP3     23619    TIP3     H2       HT       0.417000       1.00800           0
     80774 TIP3     23620    TIP3     OH2      OT      -0.834000       15.9994           0
     80775 TIP3     23620    TIP3     H1       HT       0.417000       1.00800           0
     80776 TIP3     23620    TIP3     H2       HT       0.417000       1.00800           0
     80777 TIP3     23621    TIP3     OH2      OT      -0.834000       15.9994           0
     80778 TIP3     23621    TIP3     H1       HT       0.417000       1.00800           0
     80779 TIP3     23621    TIP3     H2       HT       0.417000       1.00800           0
     80780 TIP3     23622    TIP3     OH2      OT      -0.834000       15.9994           0
     80781 TIP3     23622    TIP3     H1       HT       0.417000       1.00800           0
     80782 TIP3     23622    TIP3     H2       HT       0.417000       1.00800           0
     80783 TIP3     23623    TIP3     OH2      OT      -0.834000       15.9994           0
     80784 TIP3     23623    TIP3     H1       HT       0.417000       1.00800           0
     80785 TIP3     23623    TIP3     H2       HT       0.417000       1.00800           0
     80786 TIP3     23624    TIP3     OH2      OT      -0.834000       15.9994           0
     80787 TIP3     23624    TIP3     H1       HT       0.417000       1.00800           0
     80788 TIP3     23624    TIP3     H2       HT       0.417000       1.00800           0
     80789 TIP3     23625    TIP3     OH2      OT      -0.834000       15.9994           0
     80790 TIP3     23625    TIP3     H1       HT       0.417000       1.00800           0
     80791 TIP3     23625    TIP3     H2       HT       0.417000       1.00800           0
     80792 TIP3     23626    TIP3     OH2      OT      -0.834000       15.9994           0
     80793 TIP3     23626    TIP3     H1       HT       0.417000       1.00800           0
     80794 TIP3     23626    TIP3     H2       HT       0.417000       1.00800           0
     80795 TIP3     23627    TIP3     OH2      OT      -0.834000       15.9994           0
     80796 TIP3     23627    TIP3     H1       HT       0.417000       1.00800           0
     80797 TIP3     23627    TIP3     H2       HT       0.417000       1.00800           0
     80798 TIP3     23628    TIP3     OH2      OT      -0.834000       15.9994           0
     80799 TIP3     23628    TIP3     H1       HT       0.417000       1.00800           0
     80800 TIP3     23628    TIP3     H2       HT       0.417000       1.00800           0
     80801 TIP3     23629    TIP3     OH2      OT      -0.834000       15.9994           0
     80802 TIP3     23629    TIP3     H1       HT       0.417000       1.00800           0
     80803 TIP3     23629    TIP3     H2       HT       0.417000       1.00800           0
     80804 TIP3     23630    TIP3     OH2      OT      -0.834000       15.9994           0
     80805 TIP3     23630    TIP3     H1       HT       0.417000       1.00800           0
     80806 TIP3     23630    TIP3     H2       HT       0.417000       1.00800           0
     80807 TIP3     23631    TIP3     OH2      OT      -0.834000       15.9994           0
     80808 TIP3     23631    TIP3     H1       HT       0.417000       1.00800           0
     80809 TIP3     23631    TIP3     H2       HT       0.417000       1.00800           0
     80810 TIP3     23632    TIP3     OH2      OT      -0.834000       15.9994           0
     80811 TIP3     23632    TIP3     H1       HT       0.417000       1.00800           0
     80812 TIP3     23632    TIP3     H2       HT       0.417000       1.00800           0
     80813 TIP3     23633    TIP3     OH2      OT      -0.834000       15.9994           0
     80814 TIP3     23633    TIP3     H1       HT       0.417000       1.00800           0
     80815 TIP3     23633    TIP3     H2       HT       0.417000       1.00800           0
     80816 TIP3     23634    TIP3     OH2      OT      -0.834000       15.9994           0
     80817 TIP3     23634    TIP3     H1       HT       0.417000       1.00800           0
     80818 TIP3     23634    TIP3     H2       HT       0.417000       1.00800           0
     80819 TIP3     23635    TIP3     OH2      OT      -0.834000       15.9994           0
     80820 TIP3     23635    TIP3     H1       HT       0.417000       1.00800           0
     80821 TIP3     23635    TIP3     H2       HT       0.417000       1.00800           0
     80822 TIP3     23636    TIP3     OH2      OT      -0.834000       15.9994           0
     80823 TIP3     23636    TIP3     H1       HT       0.417000       1.00800           0
     80824 TIP3     23636    TIP3     H2       HT       0.417000       1.00800           0
     80825 TIP3     23637    TIP3     OH2      OT      -0.834000       15.9994           0
     80826 TIP3     23637    TIP3     H1       HT       0.417000       1.00800           0
     80827 TIP3     23637    TIP3     H2       HT       0.417000       1.00800           0
     80828 TIP3     23638    TIP3     OH2      OT      -0.834000       15.9994           0
     80829 TIP3     23638    TIP3     H1       HT       0.417000       1.00800           0
     80830 TIP3     23638    TIP3     H2       HT       0.417000       1.00800           0
     80831 TIP3     23639    TIP3     OH2      OT      -0.834000       15.9994           0
     80832 TIP3     23639    TIP3     H1       HT       0.417000       1.00800           0
     80833 TIP3     23639    TIP3     H2       HT       0.417000       1.00800           0
     80834 TIP3     23640    TIP3     OH2      OT      -0.834000       15.9994           0
     80835 TIP3     23640    TIP3     H1       HT       0.417000       1.00800           0
     80836 TIP3     23640    TIP3     H2       HT       0.417000       1.00800           0
     80837 TIP3     23641    TIP3     OH2      OT      -0.834000       15.9994           0
     80838 TIP3     23641    TIP3     H1       HT       0.417000       1.00800           0
     80839 TIP3     23641    TIP3     H2       HT       0.417000       1.00800           0
     80840 TIP3     23642    TIP3     OH2      OT      -0.834000       15.9994           0
     80841 TIP3     23642    TIP3     H1       HT       0.417000       1.00800           0
     80842 TIP3     23642    TIP3     H2       HT       0.417000       1.00800           0
     80843 TIP3     23643    TIP3     OH2      OT      -0.834000       15.9994           0
     80844 TIP3     23643    TIP3     H1       HT       0.417000       1.00800           0
     80845 TIP3     23643    TIP3     H2       HT       0.417000       1.00800           0
     80846 TIP3     23644    TIP3     OH2      OT      -0.834000       15.9994           0
     80847 TIP3     23644    TIP3     H1       HT       0.417000       1.00800           0
     80848 TIP3     23644    TIP3     H2       HT       0.417000       1.00800           0
     80849 TIP3     23645    TIP3     OH2      OT      -0.834000       15.9994           0
     80850 TIP3     23645    TIP3     H1       HT       0.417000       1.00800           0
     80851 TIP3     23645    TIP3     H2       HT       0.417000       1.00800           0
     80852 TIP3     23646    TIP3     OH2      OT      -0.834000       15.9994           0
     80853 TIP3     23646    TIP3     H1       HT       0.417000       1.00800           0
     80854 TIP3     23646    TIP3     H2       HT       0.417000       1.00800           0
     80855 TIP3     23647    TIP3     OH2      OT      -0.834000       15.9994           0
     80856 TIP3     23647    TIP3     H1       HT       0.417000       1.00800           0
     80857 TIP3     23647    TIP3     H2       HT       0.417000       1.00800           0
     80858 TIP3     23648    TIP3     OH2      OT      -0.834000       15.9994           0
     80859 TIP3     23648    TIP3     H1       HT       0.417000       1.00800           0
     80860 TIP3     23648    TIP3     H2       HT       0.417000       1.00800           0
     80861 TIP3     23649    TIP3     OH2      OT      -0.834000       15.9994           0
     80862 TIP3     23649    TIP3     H1       HT       0.417000       1.00800           0
     80863 TIP3     23649    TIP3     H2       HT       0.417000       1.00800           0
     80864 TIP3     23650    TIP3     OH2      OT      -0.834000       15.9994           0
     80865 TIP3     23650    TIP3     H1       HT       0.417000       1.00800           0
     80866 TIP3     23650    TIP3     H2       HT       0.417000       1.00800           0
     80867 TIP3     23651    TIP3     OH2      OT      -0.834000       15.9994           0
     80868 TIP3     23651    TIP3     H1       HT       0.417000       1.00800           0
     80869 TIP3     23651    TIP3     H2       HT       0.417000       1.00800           0
     80870 TIP3     23652    TIP3     OH2      OT      -0.834000       15.9994           0
     80871 TIP3     23652    TIP3     H1       HT       0.417000       1.00800           0
     80872 TIP3     23652    TIP3     H2       HT       0.417000       1.00800           0
     80873 TIP3     23653    TIP3     OH2      OT      -0.834000       15.9994           0
     80874 TIP3     23653    TIP3     H1       HT       0.417000       1.00800           0
     80875 TIP3     23653    TIP3     H2       HT       0.417000       1.00800           0
     80876 TIP3     23654    TIP3     OH2      OT      -0.834000       15.9994           0
     80877 TIP3     23654    TIP3     H1       HT       0.417000       1.00800           0
     80878 TIP3     23654    TIP3     H2       HT       0.417000       1.00800           0
     80879 TIP3     23655    TIP3     OH2      OT      -0.834000       15.9994           0
     80880 TIP3     23655    TIP3     H1       HT       0.417000       1.00800           0
     80881 TIP3     23655    TIP3     H2       HT       0.417000       1.00800           0
     80882 TIP3     23656    TIP3     OH2      OT      -0.834000       15.9994           0
     80883 TIP3     23656    TIP3     H1       HT       0.417000       1.00800           0
     80884 TIP3     23656    TIP3     H2       HT       0.417000       1.00800           0
     80885 TIP3     23657    TIP3     OH2      OT      -0.834000       15.9994           0
     80886 TIP3     23657    TIP3     H1       HT       0.417000       1.00800           0
     80887 TIP3     23657    TIP3     H2       HT       0.417000       1.00800           0
     80888 TIP3     23658    TIP3     OH2      OT      -0.834000       15.9994           0
     80889 TIP3     23658    TIP3     H1       HT       0.417000       1.00800           0
     80890 TIP3     23658    TIP3     H2       HT       0.417000       1.00800           0
     80891 TIP3     23659    TIP3     OH2      OT      -0.834000       15.9994           0
     80892 TIP3     23659    TIP3     H1       HT       0.417000       1.00800           0
     80893 TIP3     23659    TIP3     H2       HT       0.417000       1.00800           0
     80894 TIP3     23660    TIP3     OH2      OT      -0.834000       15.9994           0
     80895 TIP3     23660    TIP3     H1       HT       0.417000       1.00800           0
     80896 TIP3     23660    TIP3     H2       HT       0.417000       1.00800           0
     80897 TIP3     23661    TIP3     OH2      OT      -0.834000       15.9994           0
     80898 TIP3     23661    TIP3     H1       HT       0.417000       1.00800           0
     80899 TIP3     23661    TIP3     H2       HT       0.417000       1.00800           0
     80900 TIP3     23662    TIP3     OH2      OT      -0.834000       15.9994           0
     80901 TIP3     23662    TIP3     H1       HT       0.417000       1.00800           0
     80902 TIP3     23662    TIP3     H2       HT       0.417000       1.00800           0
     80903 TIP3     23663    TIP3     OH2      OT      -0.834000       15.9994           0
     80904 TIP3     23663    TIP3     H1       HT       0.417000       1.00800           0
     80905 TIP3     23663    TIP3     H2       HT       0.417000       1.00800           0
     80906 TIP3     23664    TIP3     OH2      OT      -0.834000       15.9994           0
     80907 TIP3     23664    TIP3     H1       HT       0.417000       1.00800           0
     80908 TIP3     23664    TIP3     H2       HT       0.417000       1.00800           0
     80909 TIP3     23665    TIP3     OH2      OT      -0.834000       15.9994           0
     80910 TIP3     23665    TIP3     H1       HT       0.417000       1.00800           0
     80911 TIP3     23665    TIP3     H2       HT       0.417000       1.00800           0
     80912 TIP3     23666    TIP3     OH2      OT      -0.834000       15.9994           0
     80913 TIP3     23666    TIP3     H1       HT       0.417000       1.00800           0
     80914 TIP3     23666    TIP3     H2       HT       0.417000       1.00800           0
     80915 TIP3     23667    TIP3     OH2      OT      -0.834000       15.9994           0
     80916 TIP3     23667    TIP3     H1       HT       0.417000       1.00800           0
     80917 TIP3     23667    TIP3     H2       HT       0.417000       1.00800           0
     80918 TIP3     23668    TIP3     OH2      OT      -0.834000       15.9994           0
     80919 TIP3     23668    TIP3     H1       HT       0.417000       1.00800           0
     80920 TIP3     23668    TIP3     H2       HT       0.417000       1.00800           0
     80921 TIP3     23669    TIP3     OH2      OT      -0.834000       15.9994           0
     80922 TIP3     23669    TIP3     H1       HT       0.417000       1.00800           0
     80923 TIP3     23669    TIP3     H2       HT       0.417000       1.00800           0
     80924 TIP3     23670    TIP3     OH2      OT      -0.834000       15.9994           0
     80925 TIP3     23670    TIP3     H1       HT       0.417000       1.00800           0
     80926 TIP3     23670    TIP3     H2       HT       0.417000       1.00800           0
     80927 TIP3     23671    TIP3     OH2      OT      -0.834000       15.9994           0
     80928 TIP3     23671    TIP3     H1       HT       0.417000       1.00800           0
     80929 TIP3     23671    TIP3     H2       HT       0.417000       1.00800           0
     80930 TIP3     23672    TIP3     OH2      OT      -0.834000       15.9994           0
     80931 TIP3     23672    TIP3     H1       HT       0.417000       1.00800           0
     80932 TIP3     23672    TIP3     H2       HT       0.417000       1.00800           0
     80933 TIP3     23673    TIP3     OH2      OT      -0.834000       15.9994           0
     80934 TIP3     23673    TIP3     H1       HT       0.417000       1.00800           0
     80935 TIP3     23673    TIP3     H2       HT       0.417000       1.00800           0
     80936 TIP3     23674    TIP3     OH2      OT      -0.834000       15.9994           0
     80937 TIP3     23674    TIP3     H1       HT       0.417000       1.00800           0
     80938 TIP3     23674    TIP3     H2       HT       0.417000       1.00800           0
     80939 TIP3     23675    TIP3     OH2      OT      -0.834000       15.9994           0
     80940 TIP3     23675    TIP3     H1       HT       0.417000       1.00800           0
     80941 TIP3     23675    TIP3     H2       HT       0.417000       1.00800           0
     80942 TIP3     23676    TIP3     OH2      OT      -0.834000       15.9994           0
     80943 TIP3     23676    TIP3     H1       HT       0.417000       1.00800           0
     80944 TIP3     23676    TIP3     H2       HT       0.417000       1.00800           0
     80945 TIP3     23677    TIP3     OH2      OT      -0.834000       15.9994           0
     80946 TIP3     23677    TIP3     H1       HT       0.417000       1.00800           0
     80947 TIP3     23677    TIP3     H2       HT       0.417000       1.00800           0
     80948 TIP3     23678    TIP3     OH2      OT      -0.834000       15.9994           0
     80949 TIP3     23678    TIP3     H1       HT       0.417000       1.00800           0
     80950 TIP3     23678    TIP3     H2       HT       0.417000       1.00800           0
     80951 TIP3     23679    TIP3     OH2      OT      -0.834000       15.9994           0
     80952 TIP3     23679    TIP3     H1       HT       0.417000       1.00800           0
     80953 TIP3     23679    TIP3     H2       HT       0.417000       1.00800           0
     80954 TIP3     23680    TIP3     OH2      OT      -0.834000       15.9994           0
     80955 TIP3     23680    TIP3     H1       HT       0.417000       1.00800           0
     80956 TIP3     23680    TIP3     H2       HT       0.417000       1.00800           0
     80957 TIP3     23681    TIP3     OH2      OT      -0.834000       15.9994           0
     80958 TIP3     23681    TIP3     H1       HT       0.417000       1.00800           0
     80959 TIP3     23681    TIP3     H2       HT       0.417000       1.00800           0
     80960 TIP3     23682    TIP3     OH2      OT      -0.834000       15.9994           0
     80961 TIP3     23682    TIP3     H1       HT       0.417000       1.00800           0
     80962 TIP3     23682    TIP3     H2       HT       0.417000       1.00800           0
     80963 TIP3     23683    TIP3     OH2      OT      -0.834000       15.9994           0
     80964 TIP3     23683    TIP3     H1       HT       0.417000       1.00800           0
     80965 TIP3     23683    TIP3     H2       HT       0.417000       1.00800           0
     80966 TIP3     23684    TIP3     OH2      OT      -0.834000       15.9994           0
     80967 TIP3     23684    TIP3     H1       HT       0.417000       1.00800           0
     80968 TIP3     23684    TIP3     H2       HT       0.417000       1.00800           0
     80969 TIP3     23685    TIP3     OH2      OT      -0.834000       15.9994           0
     80970 TIP3     23685    TIP3     H1       HT       0.417000       1.00800           0
     80971 TIP3     23685    TIP3     H2       HT       0.417000       1.00800           0
     80972 TIP3     23686    TIP3     OH2      OT      -0.834000       15.9994           0
     80973 TIP3     23686    TIP3     H1       HT       0.417000       1.00800           0
     80974 TIP3     23686    TIP3     H2       HT       0.417000       1.00800           0
     80975 TIP3     23687    TIP3     OH2      OT      -0.834000       15.9994           0
     80976 TIP3     23687    TIP3     H1       HT       0.417000       1.00800           0
     80977 TIP3     23687    TIP3     H2       HT       0.417000       1.00800           0
     80978 TIP3     23688    TIP3     OH2      OT      -0.834000       15.9994           0
     80979 TIP3     23688    TIP3     H1       HT       0.417000       1.00800           0
     80980 TIP3     23688    TIP3     H2       HT       0.417000       1.00800           0
     80981 TIP3     23689    TIP3     OH2      OT      -0.834000       15.9994           0
     80982 TIP3     23689    TIP3     H1       HT       0.417000       1.00800           0
     80983 TIP3     23689    TIP3     H2       HT       0.417000       1.00800           0
     80984 TIP3     23690    TIP3     OH2      OT      -0.834000       15.9994           0
     80985 TIP3     23690    TIP3     H1       HT       0.417000       1.00800           0
     80986 TIP3     23690    TIP3     H2       HT       0.417000       1.00800           0
     80987 TIP3     23691    TIP3     OH2      OT      -0.834000       15.9994           0
     80988 TIP3     23691    TIP3     H1       HT       0.417000       1.00800           0
     80989 TIP3     23691    TIP3     H2       HT       0.417000       1.00800           0
     80990 TIP3     23692    TIP3     OH2      OT      -0.834000       15.9994           0
     80991 TIP3     23692    TIP3     H1       HT       0.417000       1.00800           0
     80992 TIP3     23692    TIP3     H2       HT       0.417000       1.00800           0
     80993 TIP3     23693    TIP3     OH2      OT      -0.834000       15.9994           0
     80994 TIP3     23693    TIP3     H1       HT       0.417000       1.00800           0
     80995 TIP3     23693    TIP3     H2       HT       0.417000       1.00800           0
     80996 TIP3     23694    TIP3     OH2      OT      -0.834000       15.9994           0
     80997 TIP3     23694    TIP3     H1       HT       0.417000       1.00800           0
     80998 TIP3     23694    TIP3     H2       HT       0.417000       1.00800           0
     80999 TIP3     23695    TIP3     OH2      OT      -0.834000       15.9994           0
     81000 TIP3     23695    TIP3     H1       HT       0.417000       1.00800           0
     81001 TIP3     23695    TIP3     H2       HT       0.417000       1.00800           0
     81002 TIP3     23696    TIP3     OH2      OT      -0.834000       15.9994           0
     81003 TIP3     23696    TIP3     H1       HT       0.417000       1.00800           0
     81004 TIP3     23696    TIP3     H2       HT       0.417000       1.00800           0
     81005 TIP3     23697    TIP3     OH2      OT      -0.834000       15.9994           0
     81006 TIP3     23697    TIP3     H1       HT       0.417000       1.00800           0
     81007 TIP3     23697    TIP3     H2       HT       0.417000       1.00800           0
     81008 TIP3     23698    TIP3     OH2      OT      -0.834000       15.9994           0
     81009 TIP3     23698    TIP3     H1       HT       0.417000       1.00800           0
     81010 TIP3     23698    TIP3     H2       HT       0.417000       1.00800           0
     81011 TIP3     23699    TIP3     OH2      OT      -0.834000       15.9994           0
     81012 TIP3     23699    TIP3     H1       HT       0.417000       1.00800           0
     81013 TIP3     23699    TIP3     H2       HT       0.417000       1.00800           0
     81014 TIP3     23700    TIP3     OH2      OT      -0.834000       15.9994           0
     81015 TIP3     23700    TIP3     H1       HT       0.417000       1.00800           0
     81016 TIP3     23700    TIP3     H2       HT       0.417000       1.00800           0
     81017 TIP3     23701    TIP3     OH2      OT      -0.834000       15.9994           0
     81018 TIP3     23701    TIP3     H1       HT       0.417000       1.00800           0
     81019 TIP3     23701    TIP3     H2       HT       0.417000       1.00800           0
     81020 TIP3     23702    TIP3     OH2      OT      -0.834000       15.9994           0
     81021 TIP3     23702    TIP3     H1       HT       0.417000       1.00800           0
     81022 TIP3     23702    TIP3     H2       HT       0.417000       1.00800           0
     81023 TIP3     23703    TIP3     OH2      OT      -0.834000       15.9994           0
     81024 TIP3     23703    TIP3     H1       HT       0.417000       1.00800           0
     81025 TIP3     23703    TIP3     H2       HT       0.417000       1.00800           0
     81026 TIP3     23704    TIP3     OH2      OT      -0.834000       15.9994           0
     81027 TIP3     23704    TIP3     H1       HT       0.417000       1.00800           0
     81028 TIP3     23704    TIP3     H2       HT       0.417000       1.00800           0
     81029 TIP3     23705    TIP3     OH2      OT      -0.834000       15.9994           0
     81030 TIP3     23705    TIP3     H1       HT       0.417000       1.00800           0
     81031 TIP3     23705    TIP3     H2       HT       0.417000       1.00800           0
     81032 TIP3     23706    TIP3     OH2      OT      -0.834000       15.9994           0
     81033 TIP3     23706    TIP3     H1       HT       0.417000       1.00800           0
     81034 TIP3     23706    TIP3     H2       HT       0.417000       1.00800           0
     81035 TIP3     23707    TIP3     OH2      OT      -0.834000       15.9994           0
     81036 TIP3     23707    TIP3     H1       HT       0.417000       1.00800           0
     81037 TIP3     23707    TIP3     H2       HT       0.417000       1.00800           0
     81038 TIP3     23708    TIP3     OH2      OT      -0.834000       15.9994           0
     81039 TIP3     23708    TIP3     H1       HT       0.417000       1.00800           0
     81040 TIP3     23708    TIP3     H2       HT       0.417000       1.00800           0
     81041 TIP3     23709    TIP3     OH2      OT      -0.834000       15.9994           0
     81042 TIP3     23709    TIP3     H1       HT       0.417000       1.00800           0
     81043 TIP3     23709    TIP3     H2       HT       0.417000       1.00800           0
     81044 TIP3     23710    TIP3     OH2      OT      -0.834000       15.9994           0
     81045 TIP3     23710    TIP3     H1       HT       0.417000       1.00800           0
     81046 TIP3     23710    TIP3     H2       HT       0.417000       1.00800           0
     81047 TIP3     23711    TIP3     OH2      OT      -0.834000       15.9994           0
     81048 TIP3     23711    TIP3     H1       HT       0.417000       1.00800           0
     81049 TIP3     23711    TIP3     H2       HT       0.417000       1.00800           0
     81050 TIP3     23712    TIP3     OH2      OT      -0.834000       15.9994           0
     81051 TIP3     23712    TIP3     H1       HT       0.417000       1.00800           0
     81052 TIP3     23712    TIP3     H2       HT       0.417000       1.00800           0
     81053 TIP3     23713    TIP3     OH2      OT      -0.834000       15.9994           0
     81054 TIP3     23713    TIP3     H1       HT       0.417000       1.00800           0
     81055 TIP3     23713    TIP3     H2       HT       0.417000       1.00800           0
     81056 TIP3     23714    TIP3     OH2      OT      -0.834000       15.9994           0
     81057 TIP3     23714    TIP3     H1       HT       0.417000       1.00800           0
     81058 TIP3     23714    TIP3     H2       HT       0.417000       1.00800           0
     81059 TIP3     23715    TIP3     OH2      OT      -0.834000       15.9994           0
     81060 TIP3     23715    TIP3     H1       HT       0.417000       1.00800           0
     81061 TIP3     23715    TIP3     H2       HT       0.417000       1.00800           0
     81062 TIP3     23716    TIP3     OH2      OT      -0.834000       15.9994           0
     81063 TIP3     23716    TIP3     H1       HT       0.417000       1.00800           0
     81064 TIP3     23716    TIP3     H2       HT       0.417000       1.00800           0
     81065 TIP3     23717    TIP3     OH2      OT      -0.834000       15.9994           0
     81066 TIP3     23717    TIP3     H1       HT       0.417000       1.00800           0
     81067 TIP3     23717    TIP3     H2       HT       0.417000       1.00800           0
     81068 TIP3     23718    TIP3     OH2      OT      -0.834000       15.9994           0
     81069 TIP3     23718    TIP3     H1       HT       0.417000       1.00800           0
     81070 TIP3     23718    TIP3     H2       HT       0.417000       1.00800           0
     81071 TIP3     23719    TIP3     OH2      OT      -0.834000       15.9994           0
     81072 TIP3     23719    TIP3     H1       HT       0.417000       1.00800           0
     81073 TIP3     23719    TIP3     H2       HT       0.417000       1.00800           0
     81074 TIP3     23720    TIP3     OH2      OT      -0.834000       15.9994           0
     81075 TIP3     23720    TIP3     H1       HT       0.417000       1.00800           0
     81076 TIP3     23720    TIP3     H2       HT       0.417000       1.00800           0
     81077 TIP3     23721    TIP3     OH2      OT      -0.834000       15.9994           0
     81078 TIP3     23721    TIP3     H1       HT       0.417000       1.00800           0
     81079 TIP3     23721    TIP3     H2       HT       0.417000       1.00800           0
     81080 TIP3     23722    TIP3     OH2      OT      -0.834000       15.9994           0
     81081 TIP3     23722    TIP3     H1       HT       0.417000       1.00800           0
     81082 TIP3     23722    TIP3     H2       HT       0.417000       1.00800           0
     81083 TIP3     23723    TIP3     OH2      OT      -0.834000       15.9994           0
     81084 TIP3     23723    TIP3     H1       HT       0.417000       1.00800           0
     81085 TIP3     23723    TIP3     H2       HT       0.417000       1.00800           0
     81086 TIP3     23724    TIP3     OH2      OT      -0.834000       15.9994           0
     81087 TIP3     23724    TIP3     H1       HT       0.417000       1.00800           0
     81088 TIP3     23724    TIP3     H2       HT       0.417000       1.00800           0
     81089 TIP3     23725    TIP3     OH2      OT      -0.834000       15.9994           0
     81090 TIP3     23725    TIP3     H1       HT       0.417000       1.00800           0
     81091 TIP3     23725    TIP3     H2       HT       0.417000       1.00800           0
     81092 TIP3     23726    TIP3     OH2      OT      -0.834000       15.9994           0
     81093 TIP3     23726    TIP3     H1       HT       0.417000       1.00800           0
     81094 TIP3     23726    TIP3     H2       HT       0.417000       1.00800           0
     81095 TIP3     23727    TIP3     OH2      OT      -0.834000       15.9994           0
     81096 TIP3     23727    TIP3     H1       HT       0.417000       1.00800           0
     81097 TIP3     23727    TIP3     H2       HT       0.417000       1.00800           0
     81098 TIP3     23728    TIP3     OH2      OT      -0.834000       15.9994           0
     81099 TIP3     23728    TIP3     H1       HT       0.417000       1.00800           0
     81100 TIP3     23728    TIP3     H2       HT       0.417000       1.00800           0
     81101 TIP3     23729    TIP3     OH2      OT      -0.834000       15.9994           0
     81102 TIP3     23729    TIP3     H1       HT       0.417000       1.00800           0
     81103 TIP3     23729    TIP3     H2       HT       0.417000       1.00800           0
     81104 TIP3     23730    TIP3     OH2      OT      -0.834000       15.9994           0
     81105 TIP3     23730    TIP3     H1       HT       0.417000       1.00800           0
     81106 TIP3     23730    TIP3     H2       HT       0.417000       1.00800           0
     81107 TIP3     23731    TIP3     OH2      OT      -0.834000       15.9994           0
     81108 TIP3     23731    TIP3     H1       HT       0.417000       1.00800           0
     81109 TIP3     23731    TIP3     H2       HT       0.417000       1.00800           0
     81110 TIP3     23732    TIP3     OH2      OT      -0.834000       15.9994           0
     81111 TIP3     23732    TIP3     H1       HT       0.417000       1.00800           0
     81112 TIP3     23732    TIP3     H2       HT       0.417000       1.00800           0
     81113 TIP3     23733    TIP3     OH2      OT      -0.834000       15.9994           0
     81114 TIP3     23733    TIP3     H1       HT       0.417000       1.00800           0
     81115 TIP3     23733    TIP3     H2       HT       0.417000       1.00800           0
     81116 TIP3     23734    TIP3     OH2      OT      -0.834000       15.9994           0
     81117 TIP3     23734    TIP3     H1       HT       0.417000       1.00800           0
     81118 TIP3     23734    TIP3     H2       HT       0.417000       1.00800           0
     81119 TIP3     23735    TIP3     OH2      OT      -0.834000       15.9994           0
     81120 TIP3     23735    TIP3     H1       HT       0.417000       1.00800           0
     81121 TIP3     23735    TIP3     H2       HT       0.417000       1.00800           0
     81122 TIP3     23736    TIP3     OH2      OT      -0.834000       15.9994           0
     81123 TIP3     23736    TIP3     H1       HT       0.417000       1.00800           0
     81124 TIP3     23736    TIP3     H2       HT       0.417000       1.00800           0
     81125 TIP3     23737    TIP3     OH2      OT      -0.834000       15.9994           0
     81126 TIP3     23737    TIP3     H1       HT       0.417000       1.00800           0
     81127 TIP3     23737    TIP3     H2       HT       0.417000       1.00800           0
     81128 TIP3     23738    TIP3     OH2      OT      -0.834000       15.9994           0
     81129 TIP3     23738    TIP3     H1       HT       0.417000       1.00800           0
     81130 TIP3     23738    TIP3     H2       HT       0.417000       1.00800           0
     81131 TIP3     23739    TIP3     OH2      OT      -0.834000       15.9994           0
     81132 TIP3     23739    TIP3     H1       HT       0.417000       1.00800           0
     81133 TIP3     23739    TIP3     H2       HT       0.417000       1.00800           0
     81134 TIP3     23740    TIP3     OH2      OT      -0.834000       15.9994           0
     81135 TIP3     23740    TIP3     H1       HT       0.417000       1.00800           0
     81136 TIP3     23740    TIP3     H2       HT       0.417000       1.00800           0
     81137 TIP3     23741    TIP3     OH2      OT      -0.834000       15.9994           0
     81138 TIP3     23741    TIP3     H1       HT       0.417000       1.00800           0
     81139 TIP3     23741    TIP3     H2       HT       0.417000       1.00800           0
     81140 TIP3     23742    TIP3     OH2      OT      -0.834000       15.9994           0
     81141 TIP3     23742    TIP3     H1       HT       0.417000       1.00800           0
     81142 TIP3     23742    TIP3     H2       HT       0.417000       1.00800           0
     81143 TIP3     23743    TIP3     OH2      OT      -0.834000       15.9994           0
     81144 TIP3     23743    TIP3     H1       HT       0.417000       1.00800           0
     81145 TIP3     23743    TIP3     H2       HT       0.417000       1.00800           0
     81146 TIP3     23744    TIP3     OH2      OT      -0.834000       15.9994           0
     81147 TIP3     23744    TIP3     H1       HT       0.417000       1.00800           0
     81148 TIP3     23744    TIP3     H2       HT       0.417000       1.00800           0
     81149 TIP3     23745    TIP3     OH2      OT      -0.834000       15.9994           0
     81150 TIP3     23745    TIP3     H1       HT       0.417000       1.00800           0
     81151 TIP3     23745    TIP3     H2       HT       0.417000       1.00800           0
     81152 TIP3     23746    TIP3     OH2      OT      -0.834000       15.9994           0
     81153 TIP3     23746    TIP3     H1       HT       0.417000       1.00800           0
     81154 TIP3     23746    TIP3     H2       HT       0.417000       1.00800           0
     81155 TIP3     23747    TIP3     OH2      OT      -0.834000       15.9994           0
     81156 TIP3     23747    TIP3     H1       HT       0.417000       1.00800           0
     81157 TIP3     23747    TIP3     H2       HT       0.417000       1.00800           0
     81158 TIP3     23748    TIP3     OH2      OT      -0.834000       15.9994           0
     81159 TIP3     23748    TIP3     H1       HT       0.417000       1.00800           0
     81160 TIP3     23748    TIP3     H2       HT       0.417000       1.00800           0
     81161 TIP3     23749    TIP3     OH2      OT      -0.834000       15.9994           0
     81162 TIP3     23749    TIP3     H1       HT       0.417000       1.00800           0
     81163 TIP3     23749    TIP3     H2       HT       0.417000       1.00800           0
     81164 TIP3     23750    TIP3     OH2      OT      -0.834000       15.9994           0
     81165 TIP3     23750    TIP3     H1       HT       0.417000       1.00800           0
     81166 TIP3     23750    TIP3     H2       HT       0.417000       1.00800           0
     81167 TIP3     23751    TIP3     OH2      OT      -0.834000       15.9994           0
     81168 TIP3     23751    TIP3     H1       HT       0.417000       1.00800           0
     81169 TIP3     23751    TIP3     H2       HT       0.417000       1.00800           0
     81170 TIP3     23752    TIP3     OH2      OT      -0.834000       15.9994           0
     81171 TIP3     23752    TIP3     H1       HT       0.417000       1.00800           0
     81172 TIP3     23752    TIP3     H2       HT       0.417000       1.00800           0
     81173 TIP3     23753    TIP3     OH2      OT      -0.834000       15.9994           0
     81174 TIP3     23753    TIP3     H1       HT       0.417000       1.00800           0
     81175 TIP3     23753    TIP3     H2       HT       0.417000       1.00800           0
     81176 TIP3     23754    TIP3     OH2      OT      -0.834000       15.9994           0
     81177 TIP3     23754    TIP3     H1       HT       0.417000       1.00800           0
     81178 TIP3     23754    TIP3     H2       HT       0.417000       1.00800           0
     81179 TIP3     23755    TIP3     OH2      OT      -0.834000       15.9994           0
     81180 TIP3     23755    TIP3     H1       HT       0.417000       1.00800           0
     81181 TIP3     23755    TIP3     H2       HT       0.417000       1.00800           0
     81182 TIP3     23756    TIP3     OH2      OT      -0.834000       15.9994           0
     81183 TIP3     23756    TIP3     H1       HT       0.417000       1.00800           0
     81184 TIP3     23756    TIP3     H2       HT       0.417000       1.00800           0
     81185 TIP3     23757    TIP3     OH2      OT      -0.834000       15.9994           0
     81186 TIP3     23757    TIP3     H1       HT       0.417000       1.00800           0
     81187 TIP3     23757    TIP3     H2       HT       0.417000       1.00800           0
     81188 TIP3     23758    TIP3     OH2      OT      -0.834000       15.9994           0
     81189 TIP3     23758    TIP3     H1       HT       0.417000       1.00800           0
     81190 TIP3     23758    TIP3     H2       HT       0.417000       1.00800           0
     81191 TIP3     23759    TIP3     OH2      OT      -0.834000       15.9994           0
     81192 TIP3     23759    TIP3     H1       HT       0.417000       1.00800           0
     81193 TIP3     23759    TIP3     H2       HT       0.417000       1.00800           0
     81194 TIP3     23760    TIP3     OH2      OT      -0.834000       15.9994           0
     81195 TIP3     23760    TIP3     H1       HT       0.417000       1.00800           0
     81196 TIP3     23760    TIP3     H2       HT       0.417000       1.00800           0
     81197 TIP3     23761    TIP3     OH2      OT      -0.834000       15.9994           0
     81198 TIP3     23761    TIP3     H1       HT       0.417000       1.00800           0
     81199 TIP3     23761    TIP3     H2       HT       0.417000       1.00800           0
     81200 TIP3     23762    TIP3     OH2      OT      -0.834000       15.9994           0
     81201 TIP3     23762    TIP3     H1       HT       0.417000       1.00800           0
     81202 TIP3     23762    TIP3     H2       HT       0.417000       1.00800           0
     81203 TIP3     23763    TIP3     OH2      OT      -0.834000       15.9994           0
     81204 TIP3     23763    TIP3     H1       HT       0.417000       1.00800           0
     81205 TIP3     23763    TIP3     H2       HT       0.417000       1.00800           0
     81206 TIP3     23764    TIP3     OH2      OT      -0.834000       15.9994           0
     81207 TIP3     23764    TIP3     H1       HT       0.417000       1.00800           0
     81208 TIP3     23764    TIP3     H2       HT       0.417000       1.00800           0
     81209 TIP3     23765    TIP3     OH2      OT      -0.834000       15.9994           0
     81210 TIP3     23765    TIP3     H1       HT       0.417000       1.00800           0
     81211 TIP3     23765    TIP3     H2       HT       0.417000       1.00800           0
     81212 TIP3     23766    TIP3     OH2      OT      -0.834000       15.9994           0
     81213 TIP3     23766    TIP3     H1       HT       0.417000       1.00800           0
     81214 TIP3     23766    TIP3     H2       HT       0.417000       1.00800           0
     81215 TIP3     23767    TIP3     OH2      OT      -0.834000       15.9994           0
     81216 TIP3     23767    TIP3     H1       HT       0.417000       1.00800           0
     81217 TIP3     23767    TIP3     H2       HT       0.417000       1.00800           0
     81218 TIP3     23768    TIP3     OH2      OT      -0.834000       15.9994           0
     81219 TIP3     23768    TIP3     H1       HT       0.417000       1.00800           0
     81220 TIP3     23768    TIP3     H2       HT       0.417000       1.00800           0
     81221 TIP3     23769    TIP3     OH2      OT      -0.834000       15.9994           0
     81222 TIP3     23769    TIP3     H1       HT       0.417000       1.00800           0
     81223 TIP3     23769    TIP3     H2       HT       0.417000       1.00800           0
     81224 TIP3     23770    TIP3     OH2      OT      -0.834000       15.9994           0
     81225 TIP3     23770    TIP3     H1       HT       0.417000       1.00800           0
     81226 TIP3     23770    TIP3     H2       HT       0.417000       1.00800           0
     81227 TIP3     23771    TIP3     OH2      OT      -0.834000       15.9994           0
     81228 TIP3     23771    TIP3     H1       HT       0.417000       1.00800           0
     81229 TIP3     23771    TIP3     H2       HT       0.417000       1.00800           0
     81230 TIP3     23772    TIP3     OH2      OT      -0.834000       15.9994           0
     81231 TIP3     23772    TIP3     H1       HT       0.417000       1.00800           0
     81232 TIP3     23772    TIP3     H2       HT       0.417000       1.00800           0
     81233 TIP3     23773    TIP3     OH2      OT      -0.834000       15.9994           0
     81234 TIP3     23773    TIP3     H1       HT       0.417000       1.00800           0
     81235 TIP3     23773    TIP3     H2       HT       0.417000       1.00800           0
     81236 TIP3     23774    TIP3     OH2      OT      -0.834000       15.9994           0
     81237 TIP3     23774    TIP3     H1       HT       0.417000       1.00800           0
     81238 TIP3     23774    TIP3     H2       HT       0.417000       1.00800           0
     81239 TIP3     23775    TIP3     OH2      OT      -0.834000       15.9994           0
     81240 TIP3     23775    TIP3     H1       HT       0.417000       1.00800           0
     81241 TIP3     23775    TIP3     H2       HT       0.417000       1.00800           0
     81242 TIP3     23776    TIP3     OH2      OT      -0.834000       15.9994           0
     81243 TIP3     23776    TIP3     H1       HT       0.417000       1.00800           0
     81244 TIP3     23776    TIP3     H2       HT       0.417000       1.00800           0
     81245 TIP3     23777    TIP3     OH2      OT      -0.834000       15.9994           0
     81246 TIP3     23777    TIP3     H1       HT       0.417000       1.00800           0
     81247 TIP3     23777    TIP3     H2       HT       0.417000       1.00800           0
     81248 TIP3     23778    TIP3     OH2      OT      -0.834000       15.9994           0
     81249 TIP3     23778    TIP3     H1       HT       0.417000       1.00800           0
     81250 TIP3     23778    TIP3     H2       HT       0.417000       1.00800           0
     81251 TIP3     23779    TIP3     OH2      OT      -0.834000       15.9994           0
     81252 TIP3     23779    TIP3     H1       HT       0.417000       1.00800           0
     81253 TIP3     23779    TIP3     H2       HT       0.417000       1.00800           0
     81254 TIP3     23780    TIP3     OH2      OT      -0.834000       15.9994           0
     81255 TIP3     23780    TIP3     H1       HT       0.417000       1.00800           0
     81256 TIP3     23780    TIP3     H2       HT       0.417000       1.00800           0
     81257 TIP3     23781    TIP3     OH2      OT      -0.834000       15.9994           0
     81258 TIP3     23781    TIP3     H1       HT       0.417000       1.00800           0
     81259 TIP3     23781    TIP3     H2       HT       0.417000       1.00800           0
     81260 TIP3     23782    TIP3     OH2      OT      -0.834000       15.9994           0
     81261 TIP3     23782    TIP3     H1       HT       0.417000       1.00800           0
     81262 TIP3     23782    TIP3     H2       HT       0.417000       1.00800           0
     81263 TIP3     23783    TIP3     OH2      OT      -0.834000       15.9994           0
     81264 TIP3     23783    TIP3     H1       HT       0.417000       1.00800           0
     81265 TIP3     23783    TIP3     H2       HT       0.417000       1.00800           0
     81266 TIP3     23784    TIP3     OH2      OT      -0.834000       15.9994           0
     81267 TIP3     23784    TIP3     H1       HT       0.417000       1.00800           0
     81268 TIP3     23784    TIP3     H2       HT       0.417000       1.00800           0
     81269 TIP3     23785    TIP3     OH2      OT      -0.834000       15.9994           0
     81270 TIP3     23785    TIP3     H1       HT       0.417000       1.00800           0
     81271 TIP3     23785    TIP3     H2       HT       0.417000       1.00800           0
     81272 TIP3     23786    TIP3     OH2      OT      -0.834000       15.9994           0
     81273 TIP3     23786    TIP3     H1       HT       0.417000       1.00800           0
     81274 TIP3     23786    TIP3     H2       HT       0.417000       1.00800           0
     81275 TIP3     23787    TIP3     OH2      OT      -0.834000       15.9994           0
     81276 TIP3     23787    TIP3     H1       HT       0.417000       1.00800           0
     81277 TIP3     23787    TIP3     H2       HT       0.417000       1.00800           0
     81278 TIP3     23788    TIP3     OH2      OT      -0.834000       15.9994           0
     81279 TIP3     23788    TIP3     H1       HT       0.417000       1.00800           0
     81280 TIP3     23788    TIP3     H2       HT       0.417000       1.00800           0
     81281 TIP3     23789    TIP3     OH2      OT      -0.834000       15.9994           0
     81282 TIP3     23789    TIP3     H1       HT       0.417000       1.00800           0
     81283 TIP3     23789    TIP3     H2       HT       0.417000       1.00800           0
     81284 TIP3     23790    TIP3     OH2      OT      -0.834000       15.9994           0
     81285 TIP3     23790    TIP3     H1       HT       0.417000       1.00800           0
     81286 TIP3     23790    TIP3     H2       HT       0.417000       1.00800           0
     81287 TIP3     23791    TIP3     OH2      OT      -0.834000       15.9994           0
     81288 TIP3     23791    TIP3     H1       HT       0.417000       1.00800           0
     81289 TIP3     23791    TIP3     H2       HT       0.417000       1.00800           0
     81290 TIP3     23792    TIP3     OH2      OT      -0.834000       15.9994           0
     81291 TIP3     23792    TIP3     H1       HT       0.417000       1.00800           0
     81292 TIP3     23792    TIP3     H2       HT       0.417000       1.00800           0
     81293 TIP3     23793    TIP3     OH2      OT      -0.834000       15.9994           0
     81294 TIP3     23793    TIP3     H1       HT       0.417000       1.00800           0
     81295 TIP3     23793    TIP3     H2       HT       0.417000       1.00800           0
     81296 TIP3     23794    TIP3     OH2      OT      -0.834000       15.9994           0
     81297 TIP3     23794    TIP3     H1       HT       0.417000       1.00800           0
     81298 TIP3     23794    TIP3     H2       HT       0.417000       1.00800           0
     81299 TIP3     23795    TIP3     OH2      OT      -0.834000       15.9994           0
     81300 TIP3     23795    TIP3     H1       HT       0.417000       1.00800           0
     81301 TIP3     23795    TIP3     H2       HT       0.417000       1.00800           0
     81302 TIP3     23796    TIP3     OH2      OT      -0.834000       15.9994           0
     81303 TIP3     23796    TIP3     H1       HT       0.417000       1.00800           0
     81304 TIP3     23796    TIP3     H2       HT       0.417000       1.00800           0
     81305 TIP3     23797    TIP3     OH2      OT      -0.834000       15.9994           0
     81306 TIP3     23797    TIP3     H1       HT       0.417000       1.00800           0
     81307 TIP3     23797    TIP3     H2       HT       0.417000       1.00800           0
     81308 TIP3     23798    TIP3     OH2      OT      -0.834000       15.9994           0
     81309 TIP3     23798    TIP3     H1       HT       0.417000       1.00800           0
     81310 TIP3     23798    TIP3     H2       HT       0.417000       1.00800           0
     81311 TIP3     23799    TIP3     OH2      OT      -0.834000       15.9994           0
     81312 TIP3     23799    TIP3     H1       HT       0.417000       1.00800           0
     81313 TIP3     23799    TIP3     H2       HT       0.417000       1.00800           0
     81314 TIP3     23800    TIP3     OH2      OT      -0.834000       15.9994           0
     81315 TIP3     23800    TIP3     H1       HT       0.417000       1.00800           0
     81316 TIP3     23800    TIP3     H2       HT       0.417000       1.00800           0
     81317 TIP3     23801    TIP3     OH2      OT      -0.834000       15.9994           0
     81318 TIP3     23801    TIP3     H1       HT       0.417000       1.00800           0
     81319 TIP3     23801    TIP3     H2       HT       0.417000       1.00800           0
     81320 TIP3     23802    TIP3     OH2      OT      -0.834000       15.9994           0
     81321 TIP3     23802    TIP3     H1       HT       0.417000       1.00800           0
     81322 TIP3     23802    TIP3     H2       HT       0.417000       1.00800           0
     81323 TIP3     23803    TIP3     OH2      OT      -0.834000       15.9994           0
     81324 TIP3     23803    TIP3     H1       HT       0.417000       1.00800           0
     81325 TIP3     23803    TIP3     H2       HT       0.417000       1.00800           0
     81326 TIP3     23804    TIP3     OH2      OT      -0.834000       15.9994           0
     81327 TIP3     23804    TIP3     H1       HT       0.417000       1.00800           0
     81328 TIP3     23804    TIP3     H2       HT       0.417000       1.00800           0
     81329 TIP3     23805    TIP3     OH2      OT      -0.834000       15.9994           0
     81330 TIP3     23805    TIP3     H1       HT       0.417000       1.00800           0
     81331 TIP3     23805    TIP3     H2       HT       0.417000       1.00800           0
     81332 TIP3     23806    TIP3     OH2      OT      -0.834000       15.9994           0
     81333 TIP3     23806    TIP3     H1       HT       0.417000       1.00800           0
     81334 TIP3     23806    TIP3     H2       HT       0.417000       1.00800           0
     81335 TIP3     23807    TIP3     OH2      OT      -0.834000       15.9994           0
     81336 TIP3     23807    TIP3     H1       HT       0.417000       1.00800           0
     81337 TIP3     23807    TIP3     H2       HT       0.417000       1.00800           0
     81338 TIP3     23808    TIP3     OH2      OT      -0.834000       15.9994           0
     81339 TIP3     23808    TIP3     H1       HT       0.417000       1.00800           0
     81340 TIP3     23808    TIP3     H2       HT       0.417000       1.00800           0
     81341 TIP3     23809    TIP3     OH2      OT      -0.834000       15.9994           0
     81342 TIP3     23809    TIP3     H1       HT       0.417000       1.00800           0
     81343 TIP3     23809    TIP3     H2       HT       0.417000       1.00800           0
     81344 TIP3     23810    TIP3     OH2      OT      -0.834000       15.9994           0
     81345 TIP3     23810    TIP3     H1       HT       0.417000       1.00800           0
     81346 TIP3     23810    TIP3     H2       HT       0.417000       1.00800           0
     81347 TIP3     23811    TIP3     OH2      OT      -0.834000       15.9994           0
     81348 TIP3     23811    TIP3     H1       HT       0.417000       1.00800           0
     81349 TIP3     23811    TIP3     H2       HT       0.417000       1.00800           0
     81350 TIP3     23812    TIP3     OH2      OT      -0.834000       15.9994           0
     81351 TIP3     23812    TIP3     H1       HT       0.417000       1.00800           0
     81352 TIP3     23812    TIP3     H2       HT       0.417000       1.00800           0
     81353 TIP3     23813    TIP3     OH2      OT      -0.834000       15.9994           0
     81354 TIP3     23813    TIP3     H1       HT       0.417000       1.00800           0
     81355 TIP3     23813    TIP3     H2       HT       0.417000       1.00800           0
     81356 TIP3     23814    TIP3     OH2      OT      -0.834000       15.9994           0
     81357 TIP3     23814    TIP3     H1       HT       0.417000       1.00800           0
     81358 TIP3     23814    TIP3     H2       HT       0.417000       1.00800           0
     81359 TIP3     23815    TIP3     OH2      OT      -0.834000       15.9994           0
     81360 TIP3     23815    TIP3     H1       HT       0.417000       1.00800           0
     81361 TIP3     23815    TIP3     H2       HT       0.417000       1.00800           0
     81362 TIP3     23816    TIP3     OH2      OT      -0.834000       15.9994           0
     81363 TIP3     23816    TIP3     H1       HT       0.417000       1.00800           0
     81364 TIP3     23816    TIP3     H2       HT       0.417000       1.00800           0
     81365 TIP3     23817    TIP3     OH2      OT      -0.834000       15.9994           0
     81366 TIP3     23817    TIP3     H1       HT       0.417000       1.00800           0
     81367 TIP3     23817    TIP3     H2       HT       0.417000       1.00800           0
     81368 TIP3     23818    TIP3     OH2      OT      -0.834000       15.9994           0
     81369 TIP3     23818    TIP3     H1       HT       0.417000       1.00800           0
     81370 TIP3     23818    TIP3     H2       HT       0.417000       1.00800           0
     81371 TIP3     23819    TIP3     OH2      OT      -0.834000       15.9994           0
     81372 TIP3     23819    TIP3     H1       HT       0.417000       1.00800           0
     81373 TIP3     23819    TIP3     H2       HT       0.417000       1.00800           0
     81374 TIP3     23820    TIP3     OH2      OT      -0.834000       15.9994           0
     81375 TIP3     23820    TIP3     H1       HT       0.417000       1.00800           0
     81376 TIP3     23820    TIP3     H2       HT       0.417000       1.00800           0
     81377 TIP3     23821    TIP3     OH2      OT      -0.834000       15.9994           0
     81378 TIP3     23821    TIP3     H1       HT       0.417000       1.00800           0
     81379 TIP3     23821    TIP3     H2       HT       0.417000       1.00800           0
     81380 TIP3     23822    TIP3     OH2      OT      -0.834000       15.9994           0
     81381 TIP3     23822    TIP3     H1       HT       0.417000       1.00800           0
     81382 TIP3     23822    TIP3     H2       HT       0.417000       1.00800           0
     81383 TIP3     23823    TIP3     OH2      OT      -0.834000       15.9994           0
     81384 TIP3     23823    TIP3     H1       HT       0.417000       1.00800           0
     81385 TIP3     23823    TIP3     H2       HT       0.417000       1.00800           0
     81386 TIP3     23824    TIP3     OH2      OT      -0.834000       15.9994           0
     81387 TIP3     23824    TIP3     H1       HT       0.417000       1.00800           0
     81388 TIP3     23824    TIP3     H2       HT       0.417000       1.00800           0
     81389 TIP3     23825    TIP3     OH2      OT      -0.834000       15.9994           0
     81390 TIP3     23825    TIP3     H1       HT       0.417000       1.00800           0
     81391 TIP3     23825    TIP3     H2       HT       0.417000       1.00800           0
     81392 TIP3     23826    TIP3     OH2      OT      -0.834000       15.9994           0
     81393 TIP3     23826    TIP3     H1       HT       0.417000       1.00800           0
     81394 TIP3     23826    TIP3     H2       HT       0.417000       1.00800           0
     81395 TIP3     23827    TIP3     OH2      OT      -0.834000       15.9994           0
     81396 TIP3     23827    TIP3     H1       HT       0.417000       1.00800           0
     81397 TIP3     23827    TIP3     H2       HT       0.417000       1.00800           0
     81398 TIP3     23828    TIP3     OH2      OT      -0.834000       15.9994           0
     81399 TIP3     23828    TIP3     H1       HT       0.417000       1.00800           0
     81400 TIP3     23828    TIP3     H2       HT       0.417000       1.00800           0
     81401 TIP3     23829    TIP3     OH2      OT      -0.834000       15.9994           0
     81402 TIP3     23829    TIP3     H1       HT       0.417000       1.00800           0
     81403 TIP3     23829    TIP3     H2       HT       0.417000       1.00800           0
     81404 TIP3     23830    TIP3     OH2      OT      -0.834000       15.9994           0
     81405 TIP3     23830    TIP3     H1       HT       0.417000       1.00800           0
     81406 TIP3     23830    TIP3     H2       HT       0.417000       1.00800           0
     81407 TIP3     23831    TIP3     OH2      OT      -0.834000       15.9994           0
     81408 TIP3     23831    TIP3     H1       HT       0.417000       1.00800           0
     81409 TIP3     23831    TIP3     H2       HT       0.417000       1.00800           0
     81410 TIP3     23832    TIP3     OH2      OT      -0.834000       15.9994           0
     81411 TIP3     23832    TIP3     H1       HT       0.417000       1.00800           0
     81412 TIP3     23832    TIP3     H2       HT       0.417000       1.00800           0
     81413 TIP3     23833    TIP3     OH2      OT      -0.834000       15.9994           0
     81414 TIP3     23833    TIP3     H1       HT       0.417000       1.00800           0
     81415 TIP3     23833    TIP3     H2       HT       0.417000       1.00800           0
     81416 TIP3     23834    TIP3     OH2      OT      -0.834000       15.9994           0
     81417 TIP3     23834    TIP3     H1       HT       0.417000       1.00800           0
     81418 TIP3     23834    TIP3     H2       HT       0.417000       1.00800           0
     81419 TIP3     23835    TIP3     OH2      OT      -0.834000       15.9994           0
     81420 TIP3     23835    TIP3     H1       HT       0.417000       1.00800           0
     81421 TIP3     23835    TIP3     H2       HT       0.417000       1.00800           0
     81422 TIP3     23836    TIP3     OH2      OT      -0.834000       15.9994           0
     81423 TIP3     23836    TIP3     H1       HT       0.417000       1.00800           0
     81424 TIP3     23836    TIP3     H2       HT       0.417000       1.00800           0
     81425 TIP3     23837    TIP3     OH2      OT      -0.834000       15.9994           0
     81426 TIP3     23837    TIP3     H1       HT       0.417000       1.00800           0
     81427 TIP3     23837    TIP3     H2       HT       0.417000       1.00800           0
     81428 TIP3     23838    TIP3     OH2      OT      -0.834000       15.9994           0
     81429 TIP3     23838    TIP3     H1       HT       0.417000       1.00800           0
     81430 TIP3     23838    TIP3     H2       HT       0.417000       1.00800           0
     81431 TIP3     23839    TIP3     OH2      OT      -0.834000       15.9994           0
     81432 TIP3     23839    TIP3     H1       HT       0.417000       1.00800           0
     81433 TIP3     23839    TIP3     H2       HT       0.417000       1.00800           0
     81434 TIP3     23840    TIP3     OH2      OT      -0.834000       15.9994           0
     81435 TIP3     23840    TIP3     H1       HT       0.417000       1.00800           0
     81436 TIP3     23840    TIP3     H2       HT       0.417000       1.00800           0
     81437 TIP3     23841    TIP3     OH2      OT      -0.834000       15.9994           0
     81438 TIP3     23841    TIP3     H1       HT       0.417000       1.00800           0
     81439 TIP3     23841    TIP3     H2       HT       0.417000       1.00800           0
     81440 TIP3     23842    TIP3     OH2      OT      -0.834000       15.9994           0
     81441 TIP3     23842    TIP3     H1       HT       0.417000       1.00800           0
     81442 TIP3     23842    TIP3     H2       HT       0.417000       1.00800           0
     81443 TIP3     23843    TIP3     OH2      OT      -0.834000       15.9994           0
     81444 TIP3     23843    TIP3     H1       HT       0.417000       1.00800           0
     81445 TIP3     23843    TIP3     H2       HT       0.417000       1.00800           0
     81446 TIP3     23844    TIP3     OH2      OT      -0.834000       15.9994           0
     81447 TIP3     23844    TIP3     H1       HT       0.417000       1.00800           0
     81448 TIP3     23844    TIP3     H2       HT       0.417000       1.00800           0
     81449 TIP3     23845    TIP3     OH2      OT      -0.834000       15.9994           0
     81450 TIP3     23845    TIP3     H1       HT       0.417000       1.00800           0
     81451 TIP3     23845    TIP3     H2       HT       0.417000       1.00800           0
     81452 TIP3     23846    TIP3     OH2      OT      -0.834000       15.9994           0
     81453 TIP3     23846    TIP3     H1       HT       0.417000       1.00800           0
     81454 TIP3     23846    TIP3     H2       HT       0.417000       1.00800           0
     81455 TIP3     23847    TIP3     OH2      OT      -0.834000       15.9994           0
     81456 TIP3     23847    TIP3     H1       HT       0.417000       1.00800           0
     81457 TIP3     23847    TIP3     H2       HT       0.417000       1.00800           0
     81458 TIP3     23848    TIP3     OH2      OT      -0.834000       15.9994           0
     81459 TIP3     23848    TIP3     H1       HT       0.417000       1.00800           0
     81460 TIP3     23848    TIP3     H2       HT       0.417000       1.00800           0
     81461 TIP3     23849    TIP3     OH2      OT      -0.834000       15.9994           0
     81462 TIP3     23849    TIP3     H1       HT       0.417000       1.00800           0
     81463 TIP3     23849    TIP3     H2       HT       0.417000       1.00800           0
     81464 TIP3     23850    TIP3     OH2      OT      -0.834000       15.9994           0
     81465 TIP3     23850    TIP3     H1       HT       0.417000       1.00800           0
     81466 TIP3     23850    TIP3     H2       HT       0.417000       1.00800           0
     81467 TIP3     23851    TIP3     OH2      OT      -0.834000       15.9994           0
     81468 TIP3     23851    TIP3     H1       HT       0.417000       1.00800           0
     81469 TIP3     23851    TIP3     H2       HT       0.417000       1.00800           0
     81470 TIP3     23852    TIP3     OH2      OT      -0.834000       15.9994           0
     81471 TIP3     23852    TIP3     H1       HT       0.417000       1.00800           0
     81472 TIP3     23852    TIP3     H2       HT       0.417000       1.00800           0
     81473 TIP3     23853    TIP3     OH2      OT      -0.834000       15.9994           0
     81474 TIP3     23853    TIP3     H1       HT       0.417000       1.00800           0
     81475 TIP3     23853    TIP3     H2       HT       0.417000       1.00800           0
     81476 TIP3     23854    TIP3     OH2      OT      -0.834000       15.9994           0
     81477 TIP3     23854    TIP3     H1       HT       0.417000       1.00800           0
     81478 TIP3     23854    TIP3     H2       HT       0.417000       1.00800           0
     81479 TIP3     23855    TIP3     OH2      OT      -0.834000       15.9994           0
     81480 TIP3     23855    TIP3     H1       HT       0.417000       1.00800           0
     81481 TIP3     23855    TIP3     H2       HT       0.417000       1.00800           0
     81482 TIP3     23856    TIP3     OH2      OT      -0.834000       15.9994           0
     81483 TIP3     23856    TIP3     H1       HT       0.417000       1.00800           0
     81484 TIP3     23856    TIP3     H2       HT       0.417000       1.00800           0
     81485 TIP3     23857    TIP3     OH2      OT      -0.834000       15.9994           0
     81486 TIP3     23857    TIP3     H1       HT       0.417000       1.00800           0
     81487 TIP3     23857    TIP3     H2       HT       0.417000       1.00800           0
     81488 TIP3     23858    TIP3     OH2      OT      -0.834000       15.9994           0
     81489 TIP3     23858    TIP3     H1       HT       0.417000       1.00800           0
     81490 TIP3     23858    TIP3     H2       HT       0.417000       1.00800           0
     81491 TIP3     23859    TIP3     OH2      OT      -0.834000       15.9994           0
     81492 TIP3     23859    TIP3     H1       HT       0.417000       1.00800           0
     81493 TIP3     23859    TIP3     H2       HT       0.417000       1.00800           0
     81494 TIP3     23860    TIP3     OH2      OT      -0.834000       15.9994           0
     81495 TIP3     23860    TIP3     H1       HT       0.417000       1.00800           0
     81496 TIP3     23860    TIP3     H2       HT       0.417000       1.00800           0
     81497 TIP3     23861    TIP3     OH2      OT      -0.834000       15.9994           0
     81498 TIP3     23861    TIP3     H1       HT       0.417000       1.00800           0
     81499 TIP3     23861    TIP3     H2       HT       0.417000       1.00800           0
     81500 TIP3     23862    TIP3     OH2      OT      -0.834000       15.9994           0
     81501 TIP3     23862    TIP3     H1       HT       0.417000       1.00800           0
     81502 TIP3     23862    TIP3     H2       HT       0.417000       1.00800           0
     81503 TIP3     23863    TIP3     OH2      OT      -0.834000       15.9994           0
     81504 TIP3     23863    TIP3     H1       HT       0.417000       1.00800           0
     81505 TIP3     23863    TIP3     H2       HT       0.417000       1.00800           0
     81506 TIP3     23864    TIP3     OH2      OT      -0.834000       15.9994           0
     81507 TIP3     23864    TIP3     H1       HT       0.417000       1.00800           0
     81508 TIP3     23864    TIP3     H2       HT       0.417000       1.00800           0
     81509 TIP3     23865    TIP3     OH2      OT      -0.834000       15.9994           0
     81510 TIP3     23865    TIP3     H1       HT       0.417000       1.00800           0
     81511 TIP3     23865    TIP3     H2       HT       0.417000       1.00800           0
     81512 TIP3     23866    TIP3     OH2      OT      -0.834000       15.9994           0
     81513 TIP3     23866    TIP3     H1       HT       0.417000       1.00800           0
     81514 TIP3     23866    TIP3     H2       HT       0.417000       1.00800           0
     81515 TIP3     23867    TIP3     OH2      OT      -0.834000       15.9994           0
     81516 TIP3     23867    TIP3     H1       HT       0.417000       1.00800           0
     81517 TIP3     23867    TIP3     H2       HT       0.417000       1.00800           0
     81518 TIP3     23868    TIP3     OH2      OT      -0.834000       15.9994           0
     81519 TIP3     23868    TIP3     H1       HT       0.417000       1.00800           0
     81520 TIP3     23868    TIP3     H2       HT       0.417000       1.00800           0
     81521 TIP3     23869    TIP3     OH2      OT      -0.834000       15.9994           0
     81522 TIP3     23869    TIP3     H1       HT       0.417000       1.00800           0
     81523 TIP3     23869    TIP3     H2       HT       0.417000       1.00800           0
     81524 TIP3     23870    TIP3     OH2      OT      -0.834000       15.9994           0
     81525 TIP3     23870    TIP3     H1       HT       0.417000       1.00800           0
     81526 TIP3     23870    TIP3     H2       HT       0.417000       1.00800           0
     81527 TIP3     23871    TIP3     OH2      OT      -0.834000       15.9994           0
     81528 TIP3     23871    TIP3     H1       HT       0.417000       1.00800           0
     81529 TIP3     23871    TIP3     H2       HT       0.417000       1.00800           0
     81530 TIP3     23872    TIP3     OH2      OT      -0.834000       15.9994           0
     81531 TIP3     23872    TIP3     H1       HT       0.417000       1.00800           0
     81532 TIP3     23872    TIP3     H2       HT       0.417000       1.00800           0
     81533 TIP3     23873    TIP3     OH2      OT      -0.834000       15.9994           0
     81534 TIP3     23873    TIP3     H1       HT       0.417000       1.00800           0
     81535 TIP3     23873    TIP3     H2       HT       0.417000       1.00800           0
     81536 TIP3     23874    TIP3     OH2      OT      -0.834000       15.9994           0
     81537 TIP3     23874    TIP3     H1       HT       0.417000       1.00800           0
     81538 TIP3     23874    TIP3     H2       HT       0.417000       1.00800           0
     81539 TIP3     23875    TIP3     OH2      OT      -0.834000       15.9994           0
     81540 TIP3     23875    TIP3     H1       HT       0.417000       1.00800           0
     81541 TIP3     23875    TIP3     H2       HT       0.417000       1.00800           0
     81542 TIP3     23876    TIP3     OH2      OT      -0.834000       15.9994           0
     81543 TIP3     23876    TIP3     H1       HT       0.417000       1.00800           0
     81544 TIP3     23876    TIP3     H2       HT       0.417000       1.00800           0
     81545 TIP3     23877    TIP3     OH2      OT      -0.834000       15.9994           0
     81546 TIP3     23877    TIP3     H1       HT       0.417000       1.00800           0
     81547 TIP3     23877    TIP3     H2       HT       0.417000       1.00800           0
     81548 TIP3     23878    TIP3     OH2      OT      -0.834000       15.9994           0
     81549 TIP3     23878    TIP3     H1       HT       0.417000       1.00800           0
     81550 TIP3     23878    TIP3     H2       HT       0.417000       1.00800           0
     81551 TIP3     23879    TIP3     OH2      OT      -0.834000       15.9994           0
     81552 TIP3     23879    TIP3     H1       HT       0.417000       1.00800           0
     81553 TIP3     23879    TIP3     H2       HT       0.417000       1.00800           0
     81554 TIP3     23880    TIP3     OH2      OT      -0.834000       15.9994           0
     81555 TIP3     23880    TIP3     H1       HT       0.417000       1.00800           0
     81556 TIP3     23880    TIP3     H2       HT       0.417000       1.00800           0
     81557 TIP3     23881    TIP3     OH2      OT      -0.834000       15.9994           0
     81558 TIP3     23881    TIP3     H1       HT       0.417000       1.00800           0
     81559 TIP3     23881    TIP3     H2       HT       0.417000       1.00800           0
     81560 TIP3     23882    TIP3     OH2      OT      -0.834000       15.9994           0
     81561 TIP3     23882    TIP3     H1       HT       0.417000       1.00800           0
     81562 TIP3     23882    TIP3     H2       HT       0.417000       1.00800           0
     81563 TIP3     23883    TIP3     OH2      OT      -0.834000       15.9994           0
     81564 TIP3     23883    TIP3     H1       HT       0.417000       1.00800           0
     81565 TIP3     23883    TIP3     H2       HT       0.417000       1.00800           0
     81566 TIP3     23884    TIP3     OH2      OT      -0.834000       15.9994           0
     81567 TIP3     23884    TIP3     H1       HT       0.417000       1.00800           0
     81568 TIP3     23884    TIP3     H2       HT       0.417000       1.00800           0
     81569 TIP3     23885    TIP3     OH2      OT      -0.834000       15.9994           0
     81570 TIP3     23885    TIP3     H1       HT       0.417000       1.00800           0
     81571 TIP3     23885    TIP3     H2       HT       0.417000       1.00800           0
     81572 TIP3     23886    TIP3     OH2      OT      -0.834000       15.9994           0
     81573 TIP3     23886    TIP3     H1       HT       0.417000       1.00800           0
     81574 TIP3     23886    TIP3     H2       HT       0.417000       1.00800           0
     81575 TIP3     23887    TIP3     OH2      OT      -0.834000       15.9994           0
     81576 TIP3     23887    TIP3     H1       HT       0.417000       1.00800           0
     81577 TIP3     23887    TIP3     H2       HT       0.417000       1.00800           0
     81578 TIP3     23888    TIP3     OH2      OT      -0.834000       15.9994           0
     81579 TIP3     23888    TIP3     H1       HT       0.417000       1.00800           0
     81580 TIP3     23888    TIP3     H2       HT       0.417000       1.00800           0
     81581 TIP3     23889    TIP3     OH2      OT      -0.834000       15.9994           0
     81582 TIP3     23889    TIP3     H1       HT       0.417000       1.00800           0
     81583 TIP3     23889    TIP3     H2       HT       0.417000       1.00800           0
     81584 TIP3     23890    TIP3     OH2      OT      -0.834000       15.9994           0
     81585 TIP3     23890    TIP3     H1       HT       0.417000       1.00800           0
     81586 TIP3     23890    TIP3     H2       HT       0.417000       1.00800           0
     81587 TIP3     23891    TIP3     OH2      OT      -0.834000       15.9994           0
     81588 TIP3     23891    TIP3     H1       HT       0.417000       1.00800           0
     81589 TIP3     23891    TIP3     H2       HT       0.417000       1.00800           0
     81590 TIP3     23892    TIP3     OH2      OT      -0.834000       15.9994           0
     81591 TIP3     23892    TIP3     H1       HT       0.417000       1.00800           0
     81592 TIP3     23892    TIP3     H2       HT       0.417000       1.00800           0
     81593 TIP3     23893    TIP3     OH2      OT      -0.834000       15.9994           0
     81594 TIP3     23893    TIP3     H1       HT       0.417000       1.00800           0
     81595 TIP3     23893    TIP3     H2       HT       0.417000       1.00800           0
     81596 TIP3     23894    TIP3     OH2      OT      -0.834000       15.9994           0
     81597 TIP3     23894    TIP3     H1       HT       0.417000       1.00800           0
     81598 TIP3     23894    TIP3     H2       HT       0.417000       1.00800           0
     81599 TIP3     23895    TIP3     OH2      OT      -0.834000       15.9994           0
     81600 TIP3     23895    TIP3     H1       HT       0.417000       1.00800           0
     81601 TIP3     23895    TIP3     H2       HT       0.417000       1.00800           0
     81602 TIP3     23896    TIP3     OH2      OT      -0.834000       15.9994           0
     81603 TIP3     23896    TIP3     H1       HT       0.417000       1.00800           0
     81604 TIP3     23896    TIP3     H2       HT       0.417000       1.00800           0
     81605 TIP3     23897    TIP3     OH2      OT      -0.834000       15.9994           0
     81606 TIP3     23897    TIP3     H1       HT       0.417000       1.00800           0
     81607 TIP3     23897    TIP3     H2       HT       0.417000       1.00800           0
     81608 TIP3     23898    TIP3     OH2      OT      -0.834000       15.9994           0
     81609 TIP3     23898    TIP3     H1       HT       0.417000       1.00800           0
     81610 TIP3     23898    TIP3     H2       HT       0.417000       1.00800           0
     81611 TIP3     23899    TIP3     OH2      OT      -0.834000       15.9994           0
     81612 TIP3     23899    TIP3     H1       HT       0.417000       1.00800           0
     81613 TIP3     23899    TIP3     H2       HT       0.417000       1.00800           0
     81614 TIP3     23900    TIP3     OH2      OT      -0.834000       15.9994           0
     81615 TIP3     23900    TIP3     H1       HT       0.417000       1.00800           0
     81616 TIP3     23900    TIP3     H2       HT       0.417000       1.00800           0
     81617 TIP3     23901    TIP3     OH2      OT      -0.834000       15.9994           0
     81618 TIP3     23901    TIP3     H1       HT       0.417000       1.00800           0
     81619 TIP3     23901    TIP3     H2       HT       0.417000       1.00800           0
     81620 TIP3     23902    TIP3     OH2      OT      -0.834000       15.9994           0
     81621 TIP3     23902    TIP3     H1       HT       0.417000       1.00800           0
     81622 TIP3     23902    TIP3     H2       HT       0.417000       1.00800           0
     81623 TIP3     23903    TIP3     OH2      OT      -0.834000       15.9994           0
     81624 TIP3     23903    TIP3     H1       HT       0.417000       1.00800           0
     81625 TIP3     23903    TIP3     H2       HT       0.417000       1.00800           0
     81626 TIP3     23904    TIP3     OH2      OT      -0.834000       15.9994           0
     81627 TIP3     23904    TIP3     H1       HT       0.417000       1.00800           0
     81628 TIP3     23904    TIP3     H2       HT       0.417000       1.00800           0
     81629 TIP3     23905    TIP3     OH2      OT      -0.834000       15.9994           0
     81630 TIP3     23905    TIP3     H1       HT       0.417000       1.00800           0
     81631 TIP3     23905    TIP3     H2       HT       0.417000       1.00800           0
     81632 TIP3     23906    TIP3     OH2      OT      -0.834000       15.9994           0
     81633 TIP3     23906    TIP3     H1       HT       0.417000       1.00800           0
     81634 TIP3     23906    TIP3     H2       HT       0.417000       1.00800           0
     81635 TIP3     23907    TIP3     OH2      OT      -0.834000       15.9994           0
     81636 TIP3     23907    TIP3     H1       HT       0.417000       1.00800           0
     81637 TIP3     23907    TIP3     H2       HT       0.417000       1.00800           0
     81638 TIP3     23908    TIP3     OH2      OT      -0.834000       15.9994           0
     81639 TIP3     23908    TIP3     H1       HT       0.417000       1.00800           0
     81640 TIP3     23908    TIP3     H2       HT       0.417000       1.00800           0
     81641 TIP3     23909    TIP3     OH2      OT      -0.834000       15.9994           0
     81642 TIP3     23909    TIP3     H1       HT       0.417000       1.00800           0
     81643 TIP3     23909    TIP3     H2       HT       0.417000       1.00800           0
     81644 TIP3     23910    TIP3     OH2      OT      -0.834000       15.9994           0
     81645 TIP3     23910    TIP3     H1       HT       0.417000       1.00800           0
     81646 TIP3     23910    TIP3     H2       HT       0.417000       1.00800           0
     81647 TIP3     23911    TIP3     OH2      OT      -0.834000       15.9994           0
     81648 TIP3     23911    TIP3     H1       HT       0.417000       1.00800           0
     81649 TIP3     23911    TIP3     H2       HT       0.417000       1.00800           0
     81650 TIP3     23912    TIP3     OH2      OT      -0.834000       15.9994           0
     81651 TIP3     23912    TIP3     H1       HT       0.417000       1.00800           0
     81652 TIP3     23912    TIP3     H2       HT       0.417000       1.00800           0
     81653 TIP3     23913    TIP3     OH2      OT      -0.834000       15.9994           0
     81654 TIP3     23913    TIP3     H1       HT       0.417000       1.00800           0
     81655 TIP3     23913    TIP3     H2       HT       0.417000       1.00800           0
     81656 TIP3     23914    TIP3     OH2      OT      -0.834000       15.9994           0
     81657 TIP3     23914    TIP3     H1       HT       0.417000       1.00800           0
     81658 TIP3     23914    TIP3     H2       HT       0.417000       1.00800           0
     81659 TIP3     23915    TIP3     OH2      OT      -0.834000       15.9994           0
     81660 TIP3     23915    TIP3     H1       HT       0.417000       1.00800           0
     81661 TIP3     23915    TIP3     H2       HT       0.417000       1.00800           0
     81662 TIP3     23916    TIP3     OH2      OT      -0.834000       15.9994           0
     81663 TIP3     23916    TIP3     H1       HT       0.417000       1.00800           0
     81664 TIP3     23916    TIP3     H2       HT       0.417000       1.00800           0
     81665 TIP3     23917    TIP3     OH2      OT      -0.834000       15.9994           0
     81666 TIP3     23917    TIP3     H1       HT       0.417000       1.00800           0
     81667 TIP3     23917    TIP3     H2       HT       0.417000       1.00800           0
     81668 TIP3     23918    TIP3     OH2      OT      -0.834000       15.9994           0
     81669 TIP3     23918    TIP3     H1       HT       0.417000       1.00800           0
     81670 TIP3     23918    TIP3     H2       HT       0.417000       1.00800           0
     81671 TIP3     23919    TIP3     OH2      OT      -0.834000       15.9994           0
     81672 TIP3     23919    TIP3     H1       HT       0.417000       1.00800           0
     81673 TIP3     23919    TIP3     H2       HT       0.417000       1.00800           0
     81674 TIP3     23920    TIP3     OH2      OT      -0.834000       15.9994           0
     81675 TIP3     23920    TIP3     H1       HT       0.417000       1.00800           0
     81676 TIP3     23920    TIP3     H2       HT       0.417000       1.00800           0
     81677 TIP3     23921    TIP3     OH2      OT      -0.834000       15.9994           0
     81678 TIP3     23921    TIP3     H1       HT       0.417000       1.00800           0
     81679 TIP3     23921    TIP3     H2       HT       0.417000       1.00800           0
     81680 TIP3     23922    TIP3     OH2      OT      -0.834000       15.9994           0
     81681 TIP3     23922    TIP3     H1       HT       0.417000       1.00800           0
     81682 TIP3     23922    TIP3     H2       HT       0.417000       1.00800           0
     81683 TIP3     23923    TIP3     OH2      OT      -0.834000       15.9994           0
     81684 TIP3     23923    TIP3     H1       HT       0.417000       1.00800           0
     81685 TIP3     23923    TIP3     H2       HT       0.417000       1.00800           0
     81686 TIP3     23924    TIP3     OH2      OT      -0.834000       15.9994           0
     81687 TIP3     23924    TIP3     H1       HT       0.417000       1.00800           0
     81688 TIP3     23924    TIP3     H2       HT       0.417000       1.00800           0
     81689 TIP3     23925    TIP3     OH2      OT      -0.834000       15.9994           0
     81690 TIP3     23925    TIP3     H1       HT       0.417000       1.00800           0
     81691 TIP3     23925    TIP3     H2       HT       0.417000       1.00800           0
     81692 TIP3     23926    TIP3     OH2      OT      -0.834000       15.9994           0
     81693 TIP3     23926    TIP3     H1       HT       0.417000       1.00800           0
     81694 TIP3     23926    TIP3     H2       HT       0.417000       1.00800           0
     81695 TIP3     23927    TIP3     OH2      OT      -0.834000       15.9994           0
     81696 TIP3     23927    TIP3     H1       HT       0.417000       1.00800           0
     81697 TIP3     23927    TIP3     H2       HT       0.417000       1.00800           0
     81698 TIP3     23928    TIP3     OH2      OT      -0.834000       15.9994           0
     81699 TIP3     23928    TIP3     H1       HT       0.417000       1.00800           0
     81700 TIP3     23928    TIP3     H2       HT       0.417000       1.00800           0
     81701 TIP3     23929    TIP3     OH2      OT      -0.834000       15.9994           0
     81702 TIP3     23929    TIP3     H1       HT       0.417000       1.00800           0
     81703 TIP3     23929    TIP3     H2       HT       0.417000       1.00800           0
     81704 TIP3     23930    TIP3     OH2      OT      -0.834000       15.9994           0
     81705 TIP3     23930    TIP3     H1       HT       0.417000       1.00800           0
     81706 TIP3     23930    TIP3     H2       HT       0.417000       1.00800           0
     81707 TIP3     23931    TIP3     OH2      OT      -0.834000       15.9994           0
     81708 TIP3     23931    TIP3     H1       HT       0.417000       1.00800           0
     81709 TIP3     23931    TIP3     H2       HT       0.417000       1.00800           0
     81710 TIP3     23932    TIP3     OH2      OT      -0.834000       15.9994           0
     81711 TIP3     23932    TIP3     H1       HT       0.417000       1.00800           0
     81712 TIP3     23932    TIP3     H2       HT       0.417000       1.00800           0
     81713 TIP3     23933    TIP3     OH2      OT      -0.834000       15.9994           0
     81714 TIP3     23933    TIP3     H1       HT       0.417000       1.00800           0
     81715 TIP3     23933    TIP3     H2       HT       0.417000       1.00800           0
     81716 TIP3     23934    TIP3     OH2      OT      -0.834000       15.9994           0
     81717 TIP3     23934    TIP3     H1       HT       0.417000       1.00800           0
     81718 TIP3     23934    TIP3     H2       HT       0.417000       1.00800           0
     81719 TIP3     23935    TIP3     OH2      OT      -0.834000       15.9994           0
     81720 TIP3     23935    TIP3     H1       HT       0.417000       1.00800           0
     81721 TIP3     23935    TIP3     H2       HT       0.417000       1.00800           0
     81722 TIP3     23936    TIP3     OH2      OT      -0.834000       15.9994           0
     81723 TIP3     23936    TIP3     H1       HT       0.417000       1.00800           0
     81724 TIP3     23936    TIP3     H2       HT       0.417000       1.00800           0
     81725 TIP3     23937    TIP3     OH2      OT      -0.834000       15.9994           0
     81726 TIP3     23937    TIP3     H1       HT       0.417000       1.00800           0
     81727 TIP3     23937    TIP3     H2       HT       0.417000       1.00800           0
     81728 TIP3     23938    TIP3     OH2      OT      -0.834000       15.9994           0
     81729 TIP3     23938    TIP3     H1       HT       0.417000       1.00800           0
     81730 TIP3     23938    TIP3     H2       HT       0.417000       1.00800           0
     81731 TIP3     23939    TIP3     OH2      OT      -0.834000       15.9994           0
     81732 TIP3     23939    TIP3     H1       HT       0.417000       1.00800           0
     81733 TIP3     23939    TIP3     H2       HT       0.417000       1.00800           0
     81734 TIP3     23940    TIP3     OH2      OT      -0.834000       15.9994           0
     81735 TIP3     23940    TIP3     H1       HT       0.417000       1.00800           0
     81736 TIP3     23940    TIP3     H2       HT       0.417000       1.00800           0
     81737 TIP3     23941    TIP3     OH2      OT      -0.834000       15.9994           0
     81738 TIP3     23941    TIP3     H1       HT       0.417000       1.00800           0
     81739 TIP3     23941    TIP3     H2       HT       0.417000       1.00800           0
     81740 TIP3     23942    TIP3     OH2      OT      -0.834000       15.9994           0
     81741 TIP3     23942    TIP3     H1       HT       0.417000       1.00800           0
     81742 TIP3     23942    TIP3     H2       HT       0.417000       1.00800           0
     81743 TIP3     23943    TIP3     OH2      OT      -0.834000       15.9994           0
     81744 TIP3     23943    TIP3     H1       HT       0.417000       1.00800           0
     81745 TIP3     23943    TIP3     H2       HT       0.417000       1.00800           0
     81746 TIP3     23944    TIP3     OH2      OT      -0.834000       15.9994           0
     81747 TIP3     23944    TIP3     H1       HT       0.417000       1.00800           0
     81748 TIP3     23944    TIP3     H2       HT       0.417000       1.00800           0
     81749 TIP3     23945    TIP3     OH2      OT      -0.834000       15.9994           0
     81750 TIP3     23945    TIP3     H1       HT       0.417000       1.00800           0
     81751 TIP3     23945    TIP3     H2       HT       0.417000       1.00800           0
     81752 TIP3     23946    TIP3     OH2      OT      -0.834000       15.9994           0
     81753 TIP3     23946    TIP3     H1       HT       0.417000       1.00800           0
     81754 TIP3     23946    TIP3     H2       HT       0.417000       1.00800           0
     81755 TIP3     23947    TIP3     OH2      OT      -0.834000       15.9994           0
     81756 TIP3     23947    TIP3     H1       HT       0.417000       1.00800           0
     81757 TIP3     23947    TIP3     H2       HT       0.417000       1.00800           0
     81758 TIP3     23948    TIP3     OH2      OT      -0.834000       15.9994           0
     81759 TIP3     23948    TIP3     H1       HT       0.417000       1.00800           0
     81760 TIP3     23948    TIP3     H2       HT       0.417000       1.00800           0
     81761 TIP3     23949    TIP3     OH2      OT      -0.834000       15.9994           0
     81762 TIP3     23949    TIP3     H1       HT       0.417000       1.00800           0
     81763 TIP3     23949    TIP3     H2       HT       0.417000       1.00800           0
     81764 TIP3     23950    TIP3     OH2      OT      -0.834000       15.9994           0
     81765 TIP3     23950    TIP3     H1       HT       0.417000       1.00800           0
     81766 TIP3     23950    TIP3     H2       HT       0.417000       1.00800           0
     81767 TIP3     23951    TIP3     OH2      OT      -0.834000       15.9994           0
     81768 TIP3     23951    TIP3     H1       HT       0.417000       1.00800           0
     81769 TIP3     23951    TIP3     H2       HT       0.417000       1.00800           0
     81770 TIP3     23952    TIP3     OH2      OT      -0.834000       15.9994           0
     81771 TIP3     23952    TIP3     H1       HT       0.417000       1.00800           0
     81772 TIP3     23952    TIP3     H2       HT       0.417000       1.00800           0
     81773 TIP3     23953    TIP3     OH2      OT      -0.834000       15.9994           0
     81774 TIP3     23953    TIP3     H1       HT       0.417000       1.00800           0
     81775 TIP3     23953    TIP3     H2       HT       0.417000       1.00800           0
     81776 TIP3     23954    TIP3     OH2      OT      -0.834000       15.9994           0
     81777 TIP3     23954    TIP3     H1       HT       0.417000       1.00800           0
     81778 TIP3     23954    TIP3     H2       HT       0.417000       1.00800           0
     81779 TIP3     23955    TIP3     OH2      OT      -0.834000       15.9994           0
     81780 TIP3     23955    TIP3     H1       HT       0.417000       1.00800           0
     81781 TIP3     23955    TIP3     H2       HT       0.417000       1.00800           0
     81782 TIP3     23956    TIP3     OH2      OT      -0.834000       15.9994           0
     81783 TIP3     23956    TIP3     H1       HT       0.417000       1.00800           0
     81784 TIP3     23956    TIP3     H2       HT       0.417000       1.00800           0
     81785 TIP3     23957    TIP3     OH2      OT      -0.834000       15.9994           0
     81786 TIP3     23957    TIP3     H1       HT       0.417000       1.00800           0
     81787 TIP3     23957    TIP3     H2       HT       0.417000       1.00800           0
     81788 TIP3     23958    TIP3     OH2      OT      -0.834000       15.9994           0
     81789 TIP3     23958    TIP3     H1       HT       0.417000       1.00800           0
     81790 TIP3     23958    TIP3     H2       HT       0.417000       1.00800           0
     81791 TIP3     23959    TIP3     OH2      OT      -0.834000       15.9994           0
     81792 TIP3     23959    TIP3     H1       HT       0.417000       1.00800           0
     81793 TIP3     23959    TIP3     H2       HT       0.417000       1.00800           0
     81794 TIP3     23960    TIP3     OH2      OT      -0.834000       15.9994           0
     81795 TIP3     23960    TIP3     H1       HT       0.417000       1.00800           0
     81796 TIP3     23960    TIP3     H2       HT       0.417000       1.00800           0
     81797 TIP3     23961    TIP3     OH2      OT      -0.834000       15.9994           0
     81798 TIP3     23961    TIP3     H1       HT       0.417000       1.00800           0
     81799 TIP3     23961    TIP3     H2       HT       0.417000       1.00800           0
     81800 TIP3     23962    TIP3     OH2      OT      -0.834000       15.9994           0
     81801 TIP3     23962    TIP3     H1       HT       0.417000       1.00800           0
     81802 TIP3     23962    TIP3     H2       HT       0.417000       1.00800           0
     81803 TIP3     23963    TIP3     OH2      OT      -0.834000       15.9994           0
     81804 TIP3     23963    TIP3     H1       HT       0.417000       1.00800           0
     81805 TIP3     23963    TIP3     H2       HT       0.417000       1.00800           0
     81806 TIP3     23964    TIP3     OH2      OT      -0.834000       15.9994           0
     81807 TIP3     23964    TIP3     H1       HT       0.417000       1.00800           0
     81808 TIP3     23964    TIP3     H2       HT       0.417000       1.00800           0
     81809 TIP3     23965    TIP3     OH2      OT      -0.834000       15.9994           0
     81810 TIP3     23965    TIP3     H1       HT       0.417000       1.00800           0
     81811 TIP3     23965    TIP3     H2       HT       0.417000       1.00800           0
     81812 TIP3     23966    TIP3     OH2      OT      -0.834000       15.9994           0
     81813 TIP3     23966    TIP3     H1       HT       0.417000       1.00800           0
     81814 TIP3     23966    TIP3     H2       HT       0.417000       1.00800           0
     81815 TIP3     23967    TIP3     OH2      OT      -0.834000       15.9994           0
     81816 TIP3     23967    TIP3     H1       HT       0.417000       1.00800           0
     81817 TIP3     23967    TIP3     H2       HT       0.417000       1.00800           0
     81818 TIP3     23968    TIP3     OH2      OT      -0.834000       15.9994           0
     81819 TIP3     23968    TIP3     H1       HT       0.417000       1.00800           0
     81820 TIP3     23968    TIP3     H2       HT       0.417000       1.00800           0
     81821 TIP3     23969    TIP3     OH2      OT      -0.834000       15.9994           0
     81822 TIP3     23969    TIP3     H1       HT       0.417000       1.00800           0
     81823 TIP3     23969    TIP3     H2       HT       0.417000       1.00800           0
     81824 TIP3     23970    TIP3     OH2      OT      -0.834000       15.9994           0
     81825 TIP3     23970    TIP3     H1       HT       0.417000       1.00800           0
     81826 TIP3     23970    TIP3     H2       HT       0.417000       1.00800           0
     81827 TIP3     23971    TIP3     OH2      OT      -0.834000       15.9994           0
     81828 TIP3     23971    TIP3     H1       HT       0.417000       1.00800           0
     81829 TIP3     23971    TIP3     H2       HT       0.417000       1.00800           0
     81830 TIP3     23972    TIP3     OH2      OT      -0.834000       15.9994           0
     81831 TIP3     23972    TIP3     H1       HT       0.417000       1.00800           0
     81832 TIP3     23972    TIP3     H2       HT       0.417000       1.00800           0
     81833 TIP3     23973    TIP3     OH2      OT      -0.834000       15.9994           0
     81834 TIP3     23973    TIP3     H1       HT       0.417000       1.00800           0
     81835 TIP3     23973    TIP3     H2       HT       0.417000       1.00800           0
     81836 TIP3     23974    TIP3     OH2      OT      -0.834000       15.9994           0
     81837 TIP3     23974    TIP3     H1       HT       0.417000       1.00800           0
     81838 TIP3     23974    TIP3     H2       HT       0.417000       1.00800           0
     81839 TIP3     23975    TIP3     OH2      OT      -0.834000       15.9994           0
     81840 TIP3     23975    TIP3     H1       HT       0.417000       1.00800           0
     81841 TIP3     23975    TIP3     H2       HT       0.417000       1.00800           0
     81842 TIP3     23976    TIP3     OH2      OT      -0.834000       15.9994           0
     81843 TIP3     23976    TIP3     H1       HT       0.417000       1.00800           0
     81844 TIP3     23976    TIP3     H2       HT       0.417000       1.00800           0
     81845 TIP3     23977    TIP3     OH2      OT      -0.834000       15.9994           0
     81846 TIP3     23977    TIP3     H1       HT       0.417000       1.00800           0
     81847 TIP3     23977    TIP3     H2       HT       0.417000       1.00800           0
     81848 TIP3     23978    TIP3     OH2      OT      -0.834000       15.9994           0
     81849 TIP3     23978    TIP3     H1       HT       0.417000       1.00800           0
     81850 TIP3     23978    TIP3     H2       HT       0.417000       1.00800           0
     81851 TIP3     23979    TIP3     OH2      OT      -0.834000       15.9994           0
     81852 TIP3     23979    TIP3     H1       HT       0.417000       1.00800           0
     81853 TIP3     23979    TIP3     H2       HT       0.417000       1.00800           0
     81854 TIP3     23980    TIP3     OH2      OT      -0.834000       15.9994           0
     81855 TIP3     23980    TIP3     H1       HT       0.417000       1.00800           0
     81856 TIP3     23980    TIP3     H2       HT       0.417000       1.00800           0
     81857 TIP3     23981    TIP3     OH2      OT      -0.834000       15.9994           0
     81858 TIP3     23981    TIP3     H1       HT       0.417000       1.00800           0
     81859 TIP3     23981    TIP3     H2       HT       0.417000       1.00800           0
     81860 TIP3     23982    TIP3     OH2      OT      -0.834000       15.9994           0
     81861 TIP3     23982    TIP3     H1       HT       0.417000       1.00800           0
     81862 TIP3     23982    TIP3     H2       HT       0.417000       1.00800           0
     81863 TIP3     23983    TIP3     OH2      OT      -0.834000       15.9994           0
     81864 TIP3     23983    TIP3     H1       HT       0.417000       1.00800           0
     81865 TIP3     23983    TIP3     H2       HT       0.417000       1.00800           0
     81866 TIP3     23984    TIP3     OH2      OT      -0.834000       15.9994           0
     81867 TIP3     23984    TIP3     H1       HT       0.417000       1.00800           0
     81868 TIP3     23984    TIP3     H2       HT       0.417000       1.00800           0
     81869 TIP3     23985    TIP3     OH2      OT      -0.834000       15.9994           0
     81870 TIP3     23985    TIP3     H1       HT       0.417000       1.00800           0
     81871 TIP3     23985    TIP3     H2       HT       0.417000       1.00800           0
     81872 TIP3     23986    TIP3     OH2      OT      -0.834000       15.9994           0
     81873 TIP3     23986    TIP3     H1       HT       0.417000       1.00800           0
     81874 TIP3     23986    TIP3     H2       HT       0.417000       1.00800           0
     81875 TIP3     23987    TIP3     OH2      OT      -0.834000       15.9994           0
     81876 TIP3     23987    TIP3     H1       HT       0.417000       1.00800           0
     81877 TIP3     23987    TIP3     H2       HT       0.417000       1.00800           0
     81878 TIP3     23988    TIP3     OH2      OT      -0.834000       15.9994           0
     81879 TIP3     23988    TIP3     H1       HT       0.417000       1.00800           0
     81880 TIP3     23988    TIP3     H2       HT       0.417000       1.00800           0
     81881 TIP3     23989    TIP3     OH2      OT      -0.834000       15.9994           0
     81882 TIP3     23989    TIP3     H1       HT       0.417000       1.00800           0
     81883 TIP3     23989    TIP3     H2       HT       0.417000       1.00800           0
     81884 TIP3     23990    TIP3     OH2      OT      -0.834000       15.9994           0
     81885 TIP3     23990    TIP3     H1       HT       0.417000       1.00800           0
     81886 TIP3     23990    TIP3     H2       HT       0.417000       1.00800           0
     81887 TIP3     23991    TIP3     OH2      OT      -0.834000       15.9994           0
     81888 TIP3     23991    TIP3     H1       HT       0.417000       1.00800           0
     81889 TIP3     23991    TIP3     H2       HT       0.417000       1.00800           0
     81890 TIP3     23992    TIP3     OH2      OT      -0.834000       15.9994           0
     81891 TIP3     23992    TIP3     H1       HT       0.417000       1.00800           0
     81892 TIP3     23992    TIP3     H2       HT       0.417000       1.00800           0
     81893 TIP3     23993    TIP3     OH2      OT      -0.834000       15.9994           0
     81894 TIP3     23993    TIP3     H1       HT       0.417000       1.00800           0
     81895 TIP3     23993    TIP3     H2       HT       0.417000       1.00800           0
     81896 TIP3     23994    TIP3     OH2      OT      -0.834000       15.9994           0
     81897 TIP3     23994    TIP3     H1       HT       0.417000       1.00800           0
     81898 TIP3     23994    TIP3     H2       HT       0.417000       1.00800           0
     81899 TIP3     23995    TIP3     OH2      OT      -0.834000       15.9994           0
     81900 TIP3     23995    TIP3     H1       HT       0.417000       1.00800           0
     81901 TIP3     23995    TIP3     H2       HT       0.417000       1.00800           0
     81902 TIP3     23996    TIP3     OH2      OT      -0.834000       15.9994           0
     81903 TIP3     23996    TIP3     H1       HT       0.417000       1.00800           0
     81904 TIP3     23996    TIP3     H2       HT       0.417000       1.00800           0
     81905 TIP3     23997    TIP3     OH2      OT      -0.834000       15.9994           0
     81906 TIP3     23997    TIP3     H1       HT       0.417000       1.00800           0
     81907 TIP3     23997    TIP3     H2       HT       0.417000       1.00800           0
     81908 TIP3     23998    TIP3     OH2      OT      -0.834000       15.9994           0
     81909 TIP3     23998    TIP3     H1       HT       0.417000       1.00800           0
     81910 TIP3     23998    TIP3     H2       HT       0.417000       1.00800           0
     81911 TIP3     23999    TIP3     OH2      OT      -0.834000       15.9994           0
     81912 TIP3     23999    TIP3     H1       HT       0.417000       1.00800           0
     81913 TIP3     23999    TIP3     H2       HT       0.417000       1.00800           0
     81914 TIP3     24000    TIP3     OH2      OT      -0.834000       15.9994           0
     81915 TIP3     24000    TIP3     H1       HT       0.417000       1.00800           0
     81916 TIP3     24000    TIP3     H2       HT       0.417000       1.00800           0
     81917 TIP3     24001    TIP3     OH2      OT      -0.834000       15.9994           0
     81918 TIP3     24001    TIP3     H1       HT       0.417000       1.00800           0
     81919 TIP3     24001    TIP3     H2       HT       0.417000       1.00800           0
     81920 TIP3     24002    TIP3     OH2      OT      -0.834000       15.9994           0
     81921 TIP3     24002    TIP3     H1       HT       0.417000       1.00800           0
     81922 TIP3     24002    TIP3     H2       HT       0.417000       1.00800           0
     81923 TIP3     24003    TIP3     OH2      OT      -0.834000       15.9994           0
     81924 TIP3     24003    TIP3     H1       HT       0.417000       1.00800           0
     81925 TIP3     24003    TIP3     H2       HT       0.417000       1.00800           0
     81926 TIP3     24004    TIP3     OH2      OT      -0.834000       15.9994           0
     81927 TIP3     24004    TIP3     H1       HT       0.417000       1.00800           0
     81928 TIP3     24004    TIP3     H2       HT       0.417000       1.00800           0
     81929 TIP3     24005    TIP3     OH2      OT      -0.834000       15.9994           0
     81930 TIP3     24005    TIP3     H1       HT       0.417000       1.00800           0
     81931 TIP3     24005    TIP3     H2       HT       0.417000       1.00800           0
     81932 TIP3     24006    TIP3     OH2      OT      -0.834000       15.9994           0
     81933 TIP3     24006    TIP3     H1       HT       0.417000       1.00800           0
     81934 TIP3     24006    TIP3     H2       HT       0.417000       1.00800           0
     81935 TIP3     24007    TIP3     OH2      OT      -0.834000       15.9994           0
     81936 TIP3     24007    TIP3     H1       HT       0.417000       1.00800           0
     81937 TIP3     24007    TIP3     H2       HT       0.417000       1.00800           0
     81938 TIP3     24008    TIP3     OH2      OT      -0.834000       15.9994           0
     81939 TIP3     24008    TIP3     H1       HT       0.417000       1.00800           0
     81940 TIP3     24008    TIP3     H2       HT       0.417000       1.00800           0
     81941 TIP3     24009    TIP3     OH2      OT      -0.834000       15.9994           0
     81942 TIP3     24009    TIP3     H1       HT       0.417000       1.00800           0
     81943 TIP3     24009    TIP3     H2       HT       0.417000       1.00800           0
     81944 TIP3     24010    TIP3     OH2      OT      -0.834000       15.9994           0
     81945 TIP3     24010    TIP3     H1       HT       0.417000       1.00800           0
     81946 TIP3     24010    TIP3     H2       HT       0.417000       1.00800           0
     81947 TIP3     24011    TIP3     OH2      OT      -0.834000       15.9994           0
     81948 TIP3     24011    TIP3     H1       HT       0.417000       1.00800           0
     81949 TIP3     24011    TIP3     H2       HT       0.417000       1.00800           0
     81950 TIP3     24012    TIP3     OH2      OT      -0.834000       15.9994           0
     81951 TIP3     24012    TIP3     H1       HT       0.417000       1.00800           0
     81952 TIP3     24012    TIP3     H2       HT       0.417000       1.00800           0
     81953 TIP3     24013    TIP3     OH2      OT      -0.834000       15.9994           0
     81954 TIP3     24013    TIP3     H1       HT       0.417000       1.00800           0
     81955 TIP3     24013    TIP3     H2       HT       0.417000       1.00800           0
     81956 TIP3     24014    TIP3     OH2      OT      -0.834000       15.9994           0
     81957 TIP3     24014    TIP3     H1       HT       0.417000       1.00800           0
     81958 TIP3     24014    TIP3     H2       HT       0.417000       1.00800           0
     81959 TIP3     24015    TIP3     OH2      OT      -0.834000       15.9994           0
     81960 TIP3     24015    TIP3     H1       HT       0.417000       1.00800           0
     81961 TIP3     24015    TIP3     H2       HT       0.417000       1.00800           0
     81962 TIP3     24016    TIP3     OH2      OT      -0.834000       15.9994           0
     81963 TIP3     24016    TIP3     H1       HT       0.417000       1.00800           0
     81964 TIP3     24016    TIP3     H2       HT       0.417000       1.00800           0
     81965 TIP3     24017    TIP3     OH2      OT      -0.834000       15.9994           0
     81966 TIP3     24017    TIP3     H1       HT       0.417000       1.00800           0
     81967 TIP3     24017    TIP3     H2       HT       0.417000       1.00800           0
     81968 TIP3     24018    TIP3     OH2      OT      -0.834000       15.9994           0
     81969 TIP3     24018    TIP3     H1       HT       0.417000       1.00800           0
     81970 TIP3     24018    TIP3     H2       HT       0.417000       1.00800           0
     81971 TIP3     24019    TIP3     OH2      OT      -0.834000       15.9994           0
     81972 TIP3     24019    TIP3     H1       HT       0.417000       1.00800           0
     81973 TIP3     24019    TIP3     H2       HT       0.417000       1.00800           0
     81974 TIP3     24020    TIP3     OH2      OT      -0.834000       15.9994           0
     81975 TIP3     24020    TIP3     H1       HT       0.417000       1.00800           0
     81976 TIP3     24020    TIP3     H2       HT       0.417000       1.00800           0
     81977 TIP3     24021    TIP3     OH2      OT      -0.834000       15.9994           0
     81978 TIP3     24021    TIP3     H1       HT       0.417000       1.00800           0
     81979 TIP3     24021    TIP3     H2       HT       0.417000       1.00800           0
     81980 TIP3     24022    TIP3     OH2      OT      -0.834000       15.9994           0
     81981 TIP3     24022    TIP3     H1       HT       0.417000       1.00800           0
     81982 TIP3     24022    TIP3     H2       HT       0.417000       1.00800           0
     81983 TIP3     24023    TIP3     OH2      OT      -0.834000       15.9994           0
     81984 TIP3     24023    TIP3     H1       HT       0.417000       1.00800           0
     81985 TIP3     24023    TIP3     H2       HT       0.417000       1.00800           0
     81986 TIP3     24024    TIP3     OH2      OT      -0.834000       15.9994           0
     81987 TIP3     24024    TIP3     H1       HT       0.417000       1.00800           0
     81988 TIP3     24024    TIP3     H2       HT       0.417000       1.00800           0
     81989 TIP3     24025    TIP3     OH2      OT      -0.834000       15.9994           0
     81990 TIP3     24025    TIP3     H1       HT       0.417000       1.00800           0
     81991 TIP3     24025    TIP3     H2       HT       0.417000       1.00800           0
     81992 TIP3     24026    TIP3     OH2      OT      -0.834000       15.9994           0
     81993 TIP3     24026    TIP3     H1       HT       0.417000       1.00800           0
     81994 TIP3     24026    TIP3     H2       HT       0.417000       1.00800           0
     81995 TIP3     24027    TIP3     OH2      OT      -0.834000       15.9994           0
     81996 TIP3     24027    TIP3     H1       HT       0.417000       1.00800           0
     81997 TIP3     24027    TIP3     H2       HT       0.417000       1.00800           0
     81998 TIP3     24028    TIP3     OH2      OT      -0.834000       15.9994           0
     81999 TIP3     24028    TIP3     H1       HT       0.417000       1.00800           0
     82000 TIP3     24028    TIP3     H2       HT       0.417000       1.00800           0
     82001 TIP3     24029    TIP3     OH2      OT      -0.834000       15.9994           0
     82002 TIP3     24029    TIP3     H1       HT       0.417000       1.00800           0
     82003 TIP3     24029    TIP3     H2       HT       0.417000       1.00800           0
     82004 TIP3     24030    TIP3     OH2      OT      -0.834000       15.9994           0
     82005 TIP3     24030    TIP3     H1       HT       0.417000       1.00800           0
     82006 TIP3     24030    TIP3     H2       HT       0.417000       1.00800           0
     82007 TIP3     24031    TIP3     OH2      OT      -0.834000       15.9994           0
     82008 TIP3     24031    TIP3     H1       HT       0.417000       1.00800           0
     82009 TIP3     24031    TIP3     H2       HT       0.417000       1.00800           0
     82010 TIP3     24032    TIP3     OH2      OT      -0.834000       15.9994           0
     82011 TIP3     24032    TIP3     H1       HT       0.417000       1.00800           0
     82012 TIP3     24032    TIP3     H2       HT       0.417000       1.00800           0
     82013 TIP3     24033    TIP3     OH2      OT      -0.834000       15.9994           0
     82014 TIP3     24033    TIP3     H1       HT       0.417000       1.00800           0
     82015 TIP3     24033    TIP3     H2       HT       0.417000       1.00800           0
     82016 TIP3     24034    TIP3     OH2      OT      -0.834000       15.9994           0
     82017 TIP3     24034    TIP3     H1       HT       0.417000       1.00800           0
     82018 TIP3     24034    TIP3     H2       HT       0.417000       1.00800           0
     82019 TIP3     24035    TIP3     OH2      OT      -0.834000       15.9994           0
     82020 TIP3     24035    TIP3     H1       HT       0.417000       1.00800           0
     82021 TIP3     24035    TIP3     H2       HT       0.417000       1.00800           0
     82022 TIP3     24036    TIP3     OH2      OT      -0.834000       15.9994           0
     82023 TIP3     24036    TIP3     H1       HT       0.417000       1.00800           0
     82024 TIP3     24036    TIP3     H2       HT       0.417000       1.00800           0
     82025 TIP3     24037    TIP3     OH2      OT      -0.834000       15.9994           0
     82026 TIP3     24037    TIP3     H1       HT       0.417000       1.00800           0
     82027 TIP3     24037    TIP3     H2       HT       0.417000       1.00800           0
     82028 TIP3     24038    TIP3     OH2      OT      -0.834000       15.9994           0
     82029 TIP3     24038    TIP3     H1       HT       0.417000       1.00800           0
     82030 TIP3     24038    TIP3     H2       HT       0.417000       1.00800           0
     82031 TIP3     24039    TIP3     OH2      OT      -0.834000       15.9994           0
     82032 TIP3     24039    TIP3     H1       HT       0.417000       1.00800           0
     82033 TIP3     24039    TIP3     H2       HT       0.417000       1.00800           0
     82034 TIP3     24040    TIP3     OH2      OT      -0.834000       15.9994           0
     82035 TIP3     24040    TIP3     H1       HT       0.417000       1.00800           0
     82036 TIP3     24040    TIP3     H2       HT       0.417000       1.00800           0
     82037 TIP3     24041    TIP3     OH2      OT      -0.834000       15.9994           0
     82038 TIP3     24041    TIP3     H1       HT       0.417000       1.00800           0
     82039 TIP3     24041    TIP3     H2       HT       0.417000       1.00800           0
     82040 TIP3     24042    TIP3     OH2      OT      -0.834000       15.9994           0
     82041 TIP3     24042    TIP3     H1       HT       0.417000       1.00800           0
     82042 TIP3     24042    TIP3     H2       HT       0.417000       1.00800           0
     82043 TIP3     24043    TIP3     OH2      OT      -0.834000       15.9994           0
     82044 TIP3     24043    TIP3     H1       HT       0.417000       1.00800           0
     82045 TIP3     24043    TIP3     H2       HT       0.417000       1.00800           0
     82046 TIP3     24044    TIP3     OH2      OT      -0.834000       15.9994           0
     82047 TIP3     24044    TIP3     H1       HT       0.417000       1.00800           0
     82048 TIP3     24044    TIP3     H2       HT       0.417000       1.00800           0
     82049 TIP3     24045    TIP3     OH2      OT      -0.834000       15.9994           0
     82050 TIP3     24045    TIP3     H1       HT       0.417000       1.00800           0
     82051 TIP3     24045    TIP3     H2       HT       0.417000       1.00800           0
     82052 TIP3     24046    TIP3     OH2      OT      -0.834000       15.9994           0
     82053 TIP3     24046    TIP3     H1       HT       0.417000       1.00800           0
     82054 TIP3     24046    TIP3     H2       HT       0.417000       1.00800           0
     82055 TIP3     24047    TIP3     OH2      OT      -0.834000       15.9994           0
     82056 TIP3     24047    TIP3     H1       HT       0.417000       1.00800           0
     82057 TIP3     24047    TIP3     H2       HT       0.417000       1.00800           0
     82058 TIP3     24048    TIP3     OH2      OT      -0.834000       15.9994           0
     82059 TIP3     24048    TIP3     H1       HT       0.417000       1.00800           0
     82060 TIP3     24048    TIP3     H2       HT       0.417000       1.00800           0
     82061 TIP3     24049    TIP3     OH2      OT      -0.834000       15.9994           0
     82062 TIP3     24049    TIP3     H1       HT       0.417000       1.00800           0
     82063 TIP3     24049    TIP3     H2       HT       0.417000       1.00800           0
     82064 TIP3     24050    TIP3     OH2      OT      -0.834000       15.9994           0
     82065 TIP3     24050    TIP3     H1       HT       0.417000       1.00800           0
     82066 TIP3     24050    TIP3     H2       HT       0.417000       1.00800           0
     82067 TIP3     24051    TIP3     OH2      OT      -0.834000       15.9994           0
     82068 TIP3     24051    TIP3     H1       HT       0.417000       1.00800           0
     82069 TIP3     24051    TIP3     H2       HT       0.417000       1.00800           0
     82070 TIP3     24052    TIP3     OH2      OT      -0.834000       15.9994           0
     82071 TIP3     24052    TIP3     H1       HT       0.417000       1.00800           0
     82072 TIP3     24052    TIP3     H2       HT       0.417000       1.00800           0
     82073 TIP3     24053    TIP3     OH2      OT      -0.834000       15.9994           0
     82074 TIP3     24053    TIP3     H1       HT       0.417000       1.00800           0
     82075 TIP3     24053    TIP3     H2       HT       0.417000       1.00800           0
     82076 TIP3     24054    TIP3     OH2      OT      -0.834000       15.9994           0
     82077 TIP3     24054    TIP3     H1       HT       0.417000       1.00800           0
     82078 TIP3     24054    TIP3     H2       HT       0.417000       1.00800           0
     82079 TIP3     24055    TIP3     OH2      OT      -0.834000       15.9994           0
     82080 TIP3     24055    TIP3     H1       HT       0.417000       1.00800           0
     82081 TIP3     24055    TIP3     H2       HT       0.417000       1.00800           0
     82082 TIP3     24056    TIP3     OH2      OT      -0.834000       15.9994           0
     82083 TIP3     24056    TIP3     H1       HT       0.417000       1.00800           0
     82084 TIP3     24056    TIP3     H2       HT       0.417000       1.00800           0
     82085 TIP3     24057    TIP3     OH2      OT      -0.834000       15.9994           0
     82086 TIP3     24057    TIP3     H1       HT       0.417000       1.00800           0
     82087 TIP3     24057    TIP3     H2       HT       0.417000       1.00800           0
     82088 TIP3     24058    TIP3     OH2      OT      -0.834000       15.9994           0
     82089 TIP3     24058    TIP3     H1       HT       0.417000       1.00800           0
     82090 TIP3     24058    TIP3     H2       HT       0.417000       1.00800           0
     82091 TIP3     24059    TIP3     OH2      OT      -0.834000       15.9994           0
     82092 TIP3     24059    TIP3     H1       HT       0.417000       1.00800           0
     82093 TIP3     24059    TIP3     H2       HT       0.417000       1.00800           0
     82094 TIP3     24060    TIP3     OH2      OT      -0.834000       15.9994           0
     82095 TIP3     24060    TIP3     H1       HT       0.417000       1.00800           0
     82096 TIP3     24060    TIP3     H2       HT       0.417000       1.00800           0
     82097 TIP3     24061    TIP3     OH2      OT      -0.834000       15.9994           0
     82098 TIP3     24061    TIP3     H1       HT       0.417000       1.00800           0
     82099 TIP3     24061    TIP3     H2       HT       0.417000       1.00800           0
     82100 TIP3     24062    TIP3     OH2      OT      -0.834000       15.9994           0
     82101 TIP3     24062    TIP3     H1       HT       0.417000       1.00800           0
     82102 TIP3     24062    TIP3     H2       HT       0.417000       1.00800           0
     82103 TIP3     24063    TIP3     OH2      OT      -0.834000       15.9994           0
     82104 TIP3     24063    TIP3     H1       HT       0.417000       1.00800           0
     82105 TIP3     24063    TIP3     H2       HT       0.417000       1.00800           0
     82106 TIP3     24064    TIP3     OH2      OT      -0.834000       15.9994           0
     82107 TIP3     24064    TIP3     H1       HT       0.417000       1.00800           0
     82108 TIP3     24064    TIP3     H2       HT       0.417000       1.00800           0
     82109 TIP3     24065    TIP3     OH2      OT      -0.834000       15.9994           0
     82110 TIP3     24065    TIP3     H1       HT       0.417000       1.00800           0
     82111 TIP3     24065    TIP3     H2       HT       0.417000       1.00800           0
     82112 TIP3     24066    TIP3     OH2      OT      -0.834000       15.9994           0
     82113 TIP3     24066    TIP3     H1       HT       0.417000       1.00800           0
     82114 TIP3     24066    TIP3     H2       HT       0.417000       1.00800           0
     82115 TIP3     24067    TIP3     OH2      OT      -0.834000       15.9994           0
     82116 TIP3     24067    TIP3     H1       HT       0.417000       1.00800           0
     82117 TIP3     24067    TIP3     H2       HT       0.417000       1.00800           0
     82118 TIP3     24068    TIP3     OH2      OT      -0.834000       15.9994           0
     82119 TIP3     24068    TIP3     H1       HT       0.417000       1.00800           0
     82120 TIP3     24068    TIP3     H2       HT       0.417000       1.00800           0
     82121 TIP3     24069    TIP3     OH2      OT      -0.834000       15.9994           0
     82122 TIP3     24069    TIP3     H1       HT       0.417000       1.00800           0
     82123 TIP3     24069    TIP3     H2       HT       0.417000       1.00800           0
     82124 TIP3     24070    TIP3     OH2      OT      -0.834000       15.9994           0
     82125 TIP3     24070    TIP3     H1       HT       0.417000       1.00800           0
     82126 TIP3     24070    TIP3     H2       HT       0.417000       1.00800           0
     82127 TIP3     24071    TIP3     OH2      OT      -0.834000       15.9994           0
     82128 TIP3     24071    TIP3     H1       HT       0.417000       1.00800           0
     82129 TIP3     24071    TIP3     H2       HT       0.417000       1.00800           0
     82130 TIP3     24072    TIP3     OH2      OT      -0.834000       15.9994           0
     82131 TIP3     24072    TIP3     H1       HT       0.417000       1.00800           0
     82132 TIP3     24072    TIP3     H2       HT       0.417000       1.00800           0
     82133 TIP3     24073    TIP3     OH2      OT      -0.834000       15.9994           0
     82134 TIP3     24073    TIP3     H1       HT       0.417000       1.00800           0
     82135 TIP3     24073    TIP3     H2       HT       0.417000       1.00800           0
     82136 TIP3     24074    TIP3     OH2      OT      -0.834000       15.9994           0
     82137 TIP3     24074    TIP3     H1       HT       0.417000       1.00800           0
     82138 TIP3     24074    TIP3     H2       HT       0.417000       1.00800           0
     82139 TIP3     24075    TIP3     OH2      OT      -0.834000       15.9994           0
     82140 TIP3     24075    TIP3     H1       HT       0.417000       1.00800           0
     82141 TIP3     24075    TIP3     H2       HT       0.417000       1.00800           0
     82142 TIP3     24076    TIP3     OH2      OT      -0.834000       15.9994           0
     82143 TIP3     24076    TIP3     H1       HT       0.417000       1.00800           0
     82144 TIP3     24076    TIP3     H2       HT       0.417000       1.00800           0
     82145 TIP3     24077    TIP3     OH2      OT      -0.834000       15.9994           0
     82146 TIP3     24077    TIP3     H1       HT       0.417000       1.00800           0
     82147 TIP3     24077    TIP3     H2       HT       0.417000       1.00800           0
     82148 TIP3     24078    TIP3     OH2      OT      -0.834000       15.9994           0
     82149 TIP3     24078    TIP3     H1       HT       0.417000       1.00800           0
     82150 TIP3     24078    TIP3     H2       HT       0.417000       1.00800           0
     82151 TIP3     24079    TIP3     OH2      OT      -0.834000       15.9994           0
     82152 TIP3     24079    TIP3     H1       HT       0.417000       1.00800           0
     82153 TIP3     24079    TIP3     H2       HT       0.417000       1.00800           0
     82154 TIP3     24080    TIP3     OH2      OT      -0.834000       15.9994           0
     82155 TIP3     24080    TIP3     H1       HT       0.417000       1.00800           0
     82156 TIP3     24080    TIP3     H2       HT       0.417000       1.00800           0
     82157 TIP3     24081    TIP3     OH2      OT      -0.834000       15.9994           0
     82158 TIP3     24081    TIP3     H1       HT       0.417000       1.00800           0
     82159 TIP3     24081    TIP3     H2       HT       0.417000       1.00800           0
     82160 TIP3     24082    TIP3     OH2      OT      -0.834000       15.9994           0
     82161 TIP3     24082    TIP3     H1       HT       0.417000       1.00800           0
     82162 TIP3     24082    TIP3     H2       HT       0.417000       1.00800           0
     82163 TIP3     24083    TIP3     OH2      OT      -0.834000       15.9994           0
     82164 TIP3     24083    TIP3     H1       HT       0.417000       1.00800           0
     82165 TIP3     24083    TIP3     H2       HT       0.417000       1.00800           0
     82166 TIP3     24084    TIP3     OH2      OT      -0.834000       15.9994           0
     82167 TIP3     24084    TIP3     H1       HT       0.417000       1.00800           0
     82168 TIP3     24084    TIP3     H2       HT       0.417000       1.00800           0
     82169 TIP3     24085    TIP3     OH2      OT      -0.834000       15.9994           0
     82170 TIP3     24085    TIP3     H1       HT       0.417000       1.00800           0
     82171 TIP3     24085    TIP3     H2       HT       0.417000       1.00800           0
     82172 TIP3     24086    TIP3     OH2      OT      -0.834000       15.9994           0
     82173 TIP3     24086    TIP3     H1       HT       0.417000       1.00800           0
     82174 TIP3     24086    TIP3     H2       HT       0.417000       1.00800           0
     82175 TIP3     24087    TIP3     OH2      OT      -0.834000       15.9994           0
     82176 TIP3     24087    TIP3     H1       HT       0.417000       1.00800           0
     82177 TIP3     24087    TIP3     H2       HT       0.417000       1.00800           0
     82178 TIP3     24088    TIP3     OH2      OT      -0.834000       15.9994           0
     82179 TIP3     24088    TIP3     H1       HT       0.417000       1.00800           0
     82180 TIP3     24088    TIP3     H2       HT       0.417000       1.00800           0
     82181 TIP3     24089    TIP3     OH2      OT      -0.834000       15.9994           0
     82182 TIP3     24089    TIP3     H1       HT       0.417000       1.00800           0
     82183 TIP3     24089    TIP3     H2       HT       0.417000       1.00800           0
     82184 TIP3     24090    TIP3     OH2      OT      -0.834000       15.9994           0
     82185 TIP3     24090    TIP3     H1       HT       0.417000       1.00800           0
     82186 TIP3     24090    TIP3     H2       HT       0.417000       1.00800           0
     82187 TIP3     24091    TIP3     OH2      OT      -0.834000       15.9994           0
     82188 TIP3     24091    TIP3     H1       HT       0.417000       1.00800           0
     82189 TIP3     24091    TIP3     H2       HT       0.417000       1.00800           0
     82190 TIP3     24092    TIP3     OH2      OT      -0.834000       15.9994           0
     82191 TIP3     24092    TIP3     H1       HT       0.417000       1.00800           0
     82192 TIP3     24092    TIP3     H2       HT       0.417000       1.00800           0
     82193 TIP3     24093    TIP3     OH2      OT      -0.834000       15.9994           0
     82194 TIP3     24093    TIP3     H1       HT       0.417000       1.00800           0
     82195 TIP3     24093    TIP3     H2       HT       0.417000       1.00800           0
     82196 TIP3     24094    TIP3     OH2      OT      -0.834000       15.9994           0
     82197 TIP3     24094    TIP3     H1       HT       0.417000       1.00800           0
     82198 TIP3     24094    TIP3     H2       HT       0.417000       1.00800           0
     82199 TIP3     24095    TIP3     OH2      OT      -0.834000       15.9994           0
     82200 TIP3     24095    TIP3     H1       HT       0.417000       1.00800           0
     82201 TIP3     24095    TIP3     H2       HT       0.417000       1.00800           0
     82202 TIP3     24096    TIP3     OH2      OT      -0.834000       15.9994           0
     82203 TIP3     24096    TIP3     H1       HT       0.417000       1.00800           0
     82204 TIP3     24096    TIP3     H2       HT       0.417000       1.00800           0
     82205 TIP3     24097    TIP3     OH2      OT      -0.834000       15.9994           0
     82206 TIP3     24097    TIP3     H1       HT       0.417000       1.00800           0
     82207 TIP3     24097    TIP3     H2       HT       0.417000       1.00800           0
     82208 TIP3     24098    TIP3     OH2      OT      -0.834000       15.9994           0
     82209 TIP3     24098    TIP3     H1       HT       0.417000       1.00800           0
     82210 TIP3     24098    TIP3     H2       HT       0.417000       1.00800           0
     82211 TIP3     24099    TIP3     OH2      OT      -0.834000       15.9994           0
     82212 TIP3     24099    TIP3     H1       HT       0.417000       1.00800           0
     82213 TIP3     24099    TIP3     H2       HT       0.417000       1.00800           0
     82214 TIP3     24100    TIP3     OH2      OT      -0.834000       15.9994           0
     82215 TIP3     24100    TIP3     H1       HT       0.417000       1.00800           0
     82216 TIP3     24100    TIP3     H2       HT       0.417000       1.00800           0
     82217 TIP3     24101    TIP3     OH2      OT      -0.834000       15.9994           0
     82218 TIP3     24101    TIP3     H1       HT       0.417000       1.00800           0
     82219 TIP3     24101    TIP3     H2       HT       0.417000       1.00800           0
     82220 TIP3     24102    TIP3     OH2      OT      -0.834000       15.9994           0
     82221 TIP3     24102    TIP3     H1       HT       0.417000       1.00800           0
     82222 TIP3     24102    TIP3     H2       HT       0.417000       1.00800           0
     82223 TIP3     24103    TIP3     OH2      OT      -0.834000       15.9994           0
     82224 TIP3     24103    TIP3     H1       HT       0.417000       1.00800           0
     82225 TIP3     24103    TIP3     H2       HT       0.417000       1.00800           0
     82226 TIP3     24104    TIP3     OH2      OT      -0.834000       15.9994           0
     82227 TIP3     24104    TIP3     H1       HT       0.417000       1.00800           0
     82228 TIP3     24104    TIP3     H2       HT       0.417000       1.00800           0
     82229 TIP3     24105    TIP3     OH2      OT      -0.834000       15.9994           0
     82230 TIP3     24105    TIP3     H1       HT       0.417000       1.00800           0
     82231 TIP3     24105    TIP3     H2       HT       0.417000       1.00800           0
     82232 TIP3     24106    TIP3     OH2      OT      -0.834000       15.9994           0
     82233 TIP3     24106    TIP3     H1       HT       0.417000       1.00800           0
     82234 TIP3     24106    TIP3     H2       HT       0.417000       1.00800           0
     82235 TIP3     24107    TIP3     OH2      OT      -0.834000       15.9994           0
     82236 TIP3     24107    TIP3     H1       HT       0.417000       1.00800           0
     82237 TIP3     24107    TIP3     H2       HT       0.417000       1.00800           0
     82238 TIP3     24108    TIP3     OH2      OT      -0.834000       15.9994           0
     82239 TIP3     24108    TIP3     H1       HT       0.417000       1.00800           0
     82240 TIP3     24108    TIP3     H2       HT       0.417000       1.00800           0
     82241 TIP3     24109    TIP3     OH2      OT      -0.834000       15.9994           0
     82242 TIP3     24109    TIP3     H1       HT       0.417000       1.00800           0
     82243 TIP3     24109    TIP3     H2       HT       0.417000       1.00800           0
     82244 TIP3     24110    TIP3     OH2      OT      -0.834000       15.9994           0
     82245 TIP3     24110    TIP3     H1       HT       0.417000       1.00800           0
     82246 TIP3     24110    TIP3     H2       HT       0.417000       1.00800           0
     82247 TIP3     24111    TIP3     OH2      OT      -0.834000       15.9994           0
     82248 TIP3     24111    TIP3     H1       HT       0.417000       1.00800           0
     82249 TIP3     24111    TIP3     H2       HT       0.417000       1.00800           0
     82250 TIP3     24112    TIP3     OH2      OT      -0.834000       15.9994           0
     82251 TIP3     24112    TIP3     H1       HT       0.417000       1.00800           0
     82252 TIP3     24112    TIP3     H2       HT       0.417000       1.00800           0
     82253 TIP3     24113    TIP3     OH2      OT      -0.834000       15.9994           0
     82254 TIP3     24113    TIP3     H1       HT       0.417000       1.00800           0
     82255 TIP3     24113    TIP3     H2       HT       0.417000       1.00800           0
     82256 TIP3     24114    TIP3     OH2      OT      -0.834000       15.9994           0
     82257 TIP3     24114    TIP3     H1       HT       0.417000       1.00800           0
     82258 TIP3     24114    TIP3     H2       HT       0.417000       1.00800           0
     82259 TIP3     24115    TIP3     OH2      OT      -0.834000       15.9994           0
     82260 TIP3     24115    TIP3     H1       HT       0.417000       1.00800           0
     82261 TIP3     24115    TIP3     H2       HT       0.417000       1.00800           0
     82262 TIP3     24116    TIP3     OH2      OT      -0.834000       15.9994           0
     82263 TIP3     24116    TIP3     H1       HT       0.417000       1.00800           0
     82264 TIP3     24116    TIP3     H2       HT       0.417000       1.00800           0
     82265 TIP3     24117    TIP3     OH2      OT      -0.834000       15.9994           0
     82266 TIP3     24117    TIP3     H1       HT       0.417000       1.00800           0
     82267 TIP3     24117    TIP3     H2       HT       0.417000       1.00800           0
     82268 TIP3     24118    TIP3     OH2      OT      -0.834000       15.9994           0
     82269 TIP3     24118    TIP3     H1       HT       0.417000       1.00800           0
     82270 TIP3     24118    TIP3     H2       HT       0.417000       1.00800           0
     82271 TIP3     24119    TIP3     OH2      OT      -0.834000       15.9994           0
     82272 TIP3     24119    TIP3     H1       HT       0.417000       1.00800           0
     82273 TIP3     24119    TIP3     H2       HT       0.417000       1.00800           0
     82274 TIP3     24120    TIP3     OH2      OT      -0.834000       15.9994           0
     82275 TIP3     24120    TIP3     H1       HT       0.417000       1.00800           0
     82276 TIP3     24120    TIP3     H2       HT       0.417000       1.00800           0
     82277 TIP3     24121    TIP3     OH2      OT      -0.834000       15.9994           0
     82278 TIP3     24121    TIP3     H1       HT       0.417000       1.00800           0
     82279 TIP3     24121    TIP3     H2       HT       0.417000       1.00800           0
     82280 TIP3     24122    TIP3     OH2      OT      -0.834000       15.9994           0
     82281 TIP3     24122    TIP3     H1       HT       0.417000       1.00800           0
     82282 TIP3     24122    TIP3     H2       HT       0.417000       1.00800           0
     82283 TIP3     24123    TIP3     OH2      OT      -0.834000       15.9994           0
     82284 TIP3     24123    TIP3     H1       HT       0.417000       1.00800           0
     82285 TIP3     24123    TIP3     H2       HT       0.417000       1.00800           0
     82286 TIP3     24124    TIP3     OH2      OT      -0.834000       15.9994           0
     82287 TIP3     24124    TIP3     H1       HT       0.417000       1.00800           0
     82288 TIP3     24124    TIP3     H2       HT       0.417000       1.00800           0
     82289 TIP3     24125    TIP3     OH2      OT      -0.834000       15.9994           0
     82290 TIP3     24125    TIP3     H1       HT       0.417000       1.00800           0
     82291 TIP3     24125    TIP3     H2       HT       0.417000       1.00800           0
     82292 TIP3     24126    TIP3     OH2      OT      -0.834000       15.9994           0
     82293 TIP3     24126    TIP3     H1       HT       0.417000       1.00800           0
     82294 TIP3     24126    TIP3     H2       HT       0.417000       1.00800           0
     82295 TIP3     24127    TIP3     OH2      OT      -0.834000       15.9994           0
     82296 TIP3     24127    TIP3     H1       HT       0.417000       1.00800           0
     82297 TIP3     24127    TIP3     H2       HT       0.417000       1.00800           0
     82298 TIP3     24128    TIP3     OH2      OT      -0.834000       15.9994           0
     82299 TIP3     24128    TIP3     H1       HT       0.417000       1.00800           0
     82300 TIP3     24128    TIP3     H2       HT       0.417000       1.00800           0
     82301 TIP3     24129    TIP3     OH2      OT      -0.834000       15.9994           0
     82302 TIP3     24129    TIP3     H1       HT       0.417000       1.00800           0
     82303 TIP3     24129    TIP3     H2       HT       0.417000       1.00800           0
     82304 TIP3     24130    TIP3     OH2      OT      -0.834000       15.9994           0
     82305 TIP3     24130    TIP3     H1       HT       0.417000       1.00800           0
     82306 TIP3     24130    TIP3     H2       HT       0.417000       1.00800           0
     82307 TIP3     24131    TIP3     OH2      OT      -0.834000       15.9994           0
     82308 TIP3     24131    TIP3     H1       HT       0.417000       1.00800           0
     82309 TIP3     24131    TIP3     H2       HT       0.417000       1.00800           0
     82310 TIP3     24132    TIP3     OH2      OT      -0.834000       15.9994           0
     82311 TIP3     24132    TIP3     H1       HT       0.417000       1.00800           0
     82312 TIP3     24132    TIP3     H2       HT       0.417000       1.00800           0
     82313 TIP3     24133    TIP3     OH2      OT      -0.834000       15.9994           0
     82314 TIP3     24133    TIP3     H1       HT       0.417000       1.00800           0
     82315 TIP3     24133    TIP3     H2       HT       0.417000       1.00800           0
     82316 TIP3     24134    TIP3     OH2      OT      -0.834000       15.9994           0
     82317 TIP3     24134    TIP3     H1       HT       0.417000       1.00800           0
     82318 TIP3     24134    TIP3     H2       HT       0.417000       1.00800           0
     82319 TIP3     24135    TIP3     OH2      OT      -0.834000       15.9994           0
     82320 TIP3     24135    TIP3     H1       HT       0.417000       1.00800           0
     82321 TIP3     24135    TIP3     H2       HT       0.417000       1.00800           0
     82322 TIP3     24136    TIP3     OH2      OT      -0.834000       15.9994           0
     82323 TIP3     24136    TIP3     H1       HT       0.417000       1.00800           0
     82324 TIP3     24136    TIP3     H2       HT       0.417000       1.00800           0
     82325 TIP3     24137    TIP3     OH2      OT      -0.834000       15.9994           0
     82326 TIP3     24137    TIP3     H1       HT       0.417000       1.00800           0
     82327 TIP3     24137    TIP3     H2       HT       0.417000       1.00800           0
     82328 TIP3     24138    TIP3     OH2      OT      -0.834000       15.9994           0
     82329 TIP3     24138    TIP3     H1       HT       0.417000       1.00800           0
     82330 TIP3     24138    TIP3     H2       HT       0.417000       1.00800           0
     82331 TIP3     24139    TIP3     OH2      OT      -0.834000       15.9994           0
     82332 TIP3     24139    TIP3     H1       HT       0.417000       1.00800           0
     82333 TIP3     24139    TIP3     H2       HT       0.417000       1.00800           0
     82334 TIP3     24140    TIP3     OH2      OT      -0.834000       15.9994           0
     82335 TIP3     24140    TIP3     H1       HT       0.417000       1.00800           0
     82336 TIP3     24140    TIP3     H2       HT       0.417000       1.00800           0
     82337 TIP3     24141    TIP3     OH2      OT      -0.834000       15.9994           0
     82338 TIP3     24141    TIP3     H1       HT       0.417000       1.00800           0
     82339 TIP3     24141    TIP3     H2       HT       0.417000       1.00800           0
     82340 TIP3     24142    TIP3     OH2      OT      -0.834000       15.9994           0
     82341 TIP3     24142    TIP3     H1       HT       0.417000       1.00800           0
     82342 TIP3     24142    TIP3     H2       HT       0.417000       1.00800           0
     82343 TIP3     24143    TIP3     OH2      OT      -0.834000       15.9994           0
     82344 TIP3     24143    TIP3     H1       HT       0.417000       1.00800           0
     82345 TIP3     24143    TIP3     H2       HT       0.417000       1.00800           0
     82346 TIP3     24144    TIP3     OH2      OT      -0.834000       15.9994           0
     82347 TIP3     24144    TIP3     H1       HT       0.417000       1.00800           0
     82348 TIP3     24144    TIP3     H2       HT       0.417000       1.00800           0
     82349 TIP3     24145    TIP3     OH2      OT      -0.834000       15.9994           0
     82350 TIP3     24145    TIP3     H1       HT       0.417000       1.00800           0
     82351 TIP3     24145    TIP3     H2       HT       0.417000       1.00800           0
     82352 TIP3     24146    TIP3     OH2      OT      -0.834000       15.9994           0
     82353 TIP3     24146    TIP3     H1       HT       0.417000       1.00800           0
     82354 TIP3     24146    TIP3     H2       HT       0.417000       1.00800           0
     82355 TIP3     24147    TIP3     OH2      OT      -0.834000       15.9994           0
     82356 TIP3     24147    TIP3     H1       HT       0.417000       1.00800           0
     82357 TIP3     24147    TIP3     H2       HT       0.417000       1.00800           0
     82358 TIP3     24148    TIP3     OH2      OT      -0.834000       15.9994           0
     82359 TIP3     24148    TIP3     H1       HT       0.417000       1.00800           0
     82360 TIP3     24148    TIP3     H2       HT       0.417000       1.00800           0
     82361 TIP3     24149    TIP3     OH2      OT      -0.834000       15.9994           0
     82362 TIP3     24149    TIP3     H1       HT       0.417000       1.00800           0
     82363 TIP3     24149    TIP3     H2       HT       0.417000       1.00800           0
     82364 TIP3     24150    TIP3     OH2      OT      -0.834000       15.9994           0
     82365 TIP3     24150    TIP3     H1       HT       0.417000       1.00800           0
     82366 TIP3     24150    TIP3     H2       HT       0.417000       1.00800           0
     82367 TIP3     24151    TIP3     OH2      OT      -0.834000       15.9994           0
     82368 TIP3     24151    TIP3     H1       HT       0.417000       1.00800           0
     82369 TIP3     24151    TIP3     H2       HT       0.417000       1.00800           0
     82370 TIP3     24152    TIP3     OH2      OT      -0.834000       15.9994           0
     82371 TIP3     24152    TIP3     H1       HT       0.417000       1.00800           0
     82372 TIP3     24152    TIP3     H2       HT       0.417000       1.00800           0
     82373 TIP3     24153    TIP3     OH2      OT      -0.834000       15.9994           0
     82374 TIP3     24153    TIP3     H1       HT       0.417000       1.00800           0
     82375 TIP3     24153    TIP3     H2       HT       0.417000       1.00800           0
     82376 TIP3     24154    TIP3     OH2      OT      -0.834000       15.9994           0
     82377 TIP3     24154    TIP3     H1       HT       0.417000       1.00800           0
     82378 TIP3     24154    TIP3     H2       HT       0.417000       1.00800           0
     82379 TIP3     24155    TIP3     OH2      OT      -0.834000       15.9994           0
     82380 TIP3     24155    TIP3     H1       HT       0.417000       1.00800           0
     82381 TIP3     24155    TIP3     H2       HT       0.417000       1.00800           0
     82382 TIP3     24156    TIP3     OH2      OT      -0.834000       15.9994           0
     82383 TIP3     24156    TIP3     H1       HT       0.417000       1.00800           0
     82384 TIP3     24156    TIP3     H2       HT       0.417000       1.00800           0
     82385 TIP3     24157    TIP3     OH2      OT      -0.834000       15.9994           0
     82386 TIP3     24157    TIP3     H1       HT       0.417000       1.00800           0
     82387 TIP3     24157    TIP3     H2       HT       0.417000       1.00800           0
     82388 TIP3     24158    TIP3     OH2      OT      -0.834000       15.9994           0
     82389 TIP3     24158    TIP3     H1       HT       0.417000       1.00800           0
     82390 TIP3     24158    TIP3     H2       HT       0.417000       1.00800           0
     82391 TIP3     24159    TIP3     OH2      OT      -0.834000       15.9994           0
     82392 TIP3     24159    TIP3     H1       HT       0.417000       1.00800           0
     82393 TIP3     24159    TIP3     H2       HT       0.417000       1.00800           0
     82394 TIP3     24160    TIP3     OH2      OT      -0.834000       15.9994           0
     82395 TIP3     24160    TIP3     H1       HT       0.417000       1.00800           0
     82396 TIP3     24160    TIP3     H2       HT       0.417000       1.00800           0
     82397 TIP3     24161    TIP3     OH2      OT      -0.834000       15.9994           0
     82398 TIP3     24161    TIP3     H1       HT       0.417000       1.00800           0
     82399 TIP3     24161    TIP3     H2       HT       0.417000       1.00800           0
     82400 TIP3     24162    TIP3     OH2      OT      -0.834000       15.9994           0
     82401 TIP3     24162    TIP3     H1       HT       0.417000       1.00800           0
     82402 TIP3     24162    TIP3     H2       HT       0.417000       1.00800           0
     82403 TIP3     24163    TIP3     OH2      OT      -0.834000       15.9994           0
     82404 TIP3     24163    TIP3     H1       HT       0.417000       1.00800           0
     82405 TIP3     24163    TIP3     H2       HT       0.417000       1.00800           0
     82406 TIP3     24164    TIP3     OH2      OT      -0.834000       15.9994           0
     82407 TIP3     24164    TIP3     H1       HT       0.417000       1.00800           0
     82408 TIP3     24164    TIP3     H2       HT       0.417000       1.00800           0
     82409 TIP3     24165    TIP3     OH2      OT      -0.834000       15.9994           0
     82410 TIP3     24165    TIP3     H1       HT       0.417000       1.00800           0
     82411 TIP3     24165    TIP3     H2       HT       0.417000       1.00800           0
     82412 TIP3     24166    TIP3     OH2      OT      -0.834000       15.9994           0
     82413 TIP3     24166    TIP3     H1       HT       0.417000       1.00800           0
     82414 TIP3     24166    TIP3     H2       HT       0.417000       1.00800           0
     82415 TIP3     24167    TIP3     OH2      OT      -0.834000       15.9994           0
     82416 TIP3     24167    TIP3     H1       HT       0.417000       1.00800           0
     82417 TIP3     24167    TIP3     H2       HT       0.417000       1.00800           0
     82418 TIP3     24168    TIP3     OH2      OT      -0.834000       15.9994           0
     82419 TIP3     24168    TIP3     H1       HT       0.417000       1.00800           0
     82420 TIP3     24168    TIP3     H2       HT       0.417000       1.00800           0
     82421 TIP3     24169    TIP3     OH2      OT      -0.834000       15.9994           0
     82422 TIP3     24169    TIP3     H1       HT       0.417000       1.00800           0
     82423 TIP3     24169    TIP3     H2       HT       0.417000       1.00800           0
     82424 TIP3     24170    TIP3     OH2      OT      -0.834000       15.9994           0
     82425 TIP3     24170    TIP3     H1       HT       0.417000       1.00800           0
     82426 TIP3     24170    TIP3     H2       HT       0.417000       1.00800           0
     82427 TIP3     24171    TIP3     OH2      OT      -0.834000       15.9994           0
     82428 TIP3     24171    TIP3     H1       HT       0.417000       1.00800           0
     82429 TIP3     24171    TIP3     H2       HT       0.417000       1.00800           0
     82430 TIP3     24172    TIP3     OH2      OT      -0.834000       15.9994           0
     82431 TIP3     24172    TIP3     H1       HT       0.417000       1.00800           0
     82432 TIP3     24172    TIP3     H2       HT       0.417000       1.00800           0
     82433 TIP3     24173    TIP3     OH2      OT      -0.834000       15.9994           0
     82434 TIP3     24173    TIP3     H1       HT       0.417000       1.00800           0
     82435 TIP3     24173    TIP3     H2       HT       0.417000       1.00800           0
     82436 TIP3     24174    TIP3     OH2      OT      -0.834000       15.9994           0
     82437 TIP3     24174    TIP3     H1       HT       0.417000       1.00800           0
     82438 TIP3     24174    TIP3     H2       HT       0.417000       1.00800           0
     82439 TIP3     24175    TIP3     OH2      OT      -0.834000       15.9994           0
     82440 TIP3     24175    TIP3     H1       HT       0.417000       1.00800           0
     82441 TIP3     24175    TIP3     H2       HT       0.417000       1.00800           0
     82442 TIP3     24176    TIP3     OH2      OT      -0.834000       15.9994           0
     82443 TIP3     24176    TIP3     H1       HT       0.417000       1.00800           0
     82444 TIP3     24176    TIP3     H2       HT       0.417000       1.00800           0
     82445 TIP3     24177    TIP3     OH2      OT      -0.834000       15.9994           0
     82446 TIP3     24177    TIP3     H1       HT       0.417000       1.00800           0
     82447 TIP3     24177    TIP3     H2       HT       0.417000       1.00800           0
     82448 TIP3     24178    TIP3     OH2      OT      -0.834000       15.9994           0
     82449 TIP3     24178    TIP3     H1       HT       0.417000       1.00800           0
     82450 TIP3     24178    TIP3     H2       HT       0.417000       1.00800           0
     82451 TIP3     24179    TIP3     OH2      OT      -0.834000       15.9994           0
     82452 TIP3     24179    TIP3     H1       HT       0.417000       1.00800           0
     82453 TIP3     24179    TIP3     H2       HT       0.417000       1.00800           0
     82454 TIP3     24180    TIP3     OH2      OT      -0.834000       15.9994           0
     82455 TIP3     24180    TIP3     H1       HT       0.417000       1.00800           0
     82456 TIP3     24180    TIP3     H2       HT       0.417000       1.00800           0
     82457 TIP3     24181    TIP3     OH2      OT      -0.834000       15.9994           0
     82458 TIP3     24181    TIP3     H1       HT       0.417000       1.00800           0
     82459 TIP3     24181    TIP3     H2       HT       0.417000       1.00800           0
     82460 TIP3     24182    TIP3     OH2      OT      -0.834000       15.9994           0
     82461 TIP3     24182    TIP3     H1       HT       0.417000       1.00800           0
     82462 TIP3     24182    TIP3     H2       HT       0.417000       1.00800           0
     82463 TIP3     24183    TIP3     OH2      OT      -0.834000       15.9994           0
     82464 TIP3     24183    TIP3     H1       HT       0.417000       1.00800           0
     82465 TIP3     24183    TIP3     H2       HT       0.417000       1.00800           0
     82466 TIP3     24184    TIP3     OH2      OT      -0.834000       15.9994           0
     82467 TIP3     24184    TIP3     H1       HT       0.417000       1.00800           0
     82468 TIP3     24184    TIP3     H2       HT       0.417000       1.00800           0
     82469 TIP3     24185    TIP3     OH2      OT      -0.834000       15.9994           0
     82470 TIP3     24185    TIP3     H1       HT       0.417000       1.00800           0
     82471 TIP3     24185    TIP3     H2       HT       0.417000       1.00800           0
     82472 TIP3     24186    TIP3     OH2      OT      -0.834000       15.9994           0
     82473 TIP3     24186    TIP3     H1       HT       0.417000       1.00800           0
     82474 TIP3     24186    TIP3     H2       HT       0.417000       1.00800           0
     82475 TIP3     24187    TIP3     OH2      OT      -0.834000       15.9994           0
     82476 TIP3     24187    TIP3     H1       HT       0.417000       1.00800           0
     82477 TIP3     24187    TIP3     H2       HT       0.417000       1.00800           0
     82478 TIP3     24188    TIP3     OH2      OT      -0.834000       15.9994           0
     82479 TIP3     24188    TIP3     H1       HT       0.417000       1.00800           0
     82480 TIP3     24188    TIP3     H2       HT       0.417000       1.00800           0
     82481 TIP3     24189    TIP3     OH2      OT      -0.834000       15.9994           0
     82482 TIP3     24189    TIP3     H1       HT       0.417000       1.00800           0
     82483 TIP3     24189    TIP3     H2       HT       0.417000       1.00800           0
     82484 TIP3     24190    TIP3     OH2      OT      -0.834000       15.9994           0
     82485 TIP3     24190    TIP3     H1       HT       0.417000       1.00800           0
     82486 TIP3     24190    TIP3     H2       HT       0.417000       1.00800           0
     82487 TIP3     24191    TIP3     OH2      OT      -0.834000       15.9994           0
     82488 TIP3     24191    TIP3     H1       HT       0.417000       1.00800           0
     82489 TIP3     24191    TIP3     H2       HT       0.417000       1.00800           0
     82490 TIP3     24192    TIP3     OH2      OT      -0.834000       15.9994           0
     82491 TIP3     24192    TIP3     H1       HT       0.417000       1.00800           0
     82492 TIP3     24192    TIP3     H2       HT       0.417000       1.00800           0
     82493 TIP3     24193    TIP3     OH2      OT      -0.834000       15.9994           0
     82494 TIP3     24193    TIP3     H1       HT       0.417000       1.00800           0
     82495 TIP3     24193    TIP3     H2       HT       0.417000       1.00800           0
     82496 TIP3     24194    TIP3     OH2      OT      -0.834000       15.9994           0
     82497 TIP3     24194    TIP3     H1       HT       0.417000       1.00800           0
     82498 TIP3     24194    TIP3     H2       HT       0.417000       1.00800           0
     82499 TIP3     24195    TIP3     OH2      OT      -0.834000       15.9994           0
     82500 TIP3     24195    TIP3     H1       HT       0.417000       1.00800           0
     82501 TIP3     24195    TIP3     H2       HT       0.417000       1.00800           0
     82502 TIP3     24196    TIP3     OH2      OT      -0.834000       15.9994           0
     82503 TIP3     24196    TIP3     H1       HT       0.417000       1.00800           0
     82504 TIP3     24196    TIP3     H2       HT       0.417000       1.00800           0
     82505 TIP3     24197    TIP3     OH2      OT      -0.834000       15.9994           0
     82506 TIP3     24197    TIP3     H1       HT       0.417000       1.00800           0
     82507 TIP3     24197    TIP3     H2       HT       0.417000       1.00800           0
     82508 TIP3     24198    TIP3     OH2      OT      -0.834000       15.9994           0
     82509 TIP3     24198    TIP3     H1       HT       0.417000       1.00800           0
     82510 TIP3     24198    TIP3     H2       HT       0.417000       1.00800           0
     82511 TIP3     24199    TIP3     OH2      OT      -0.834000       15.9994           0
     82512 TIP3     24199    TIP3     H1       HT       0.417000       1.00800           0
     82513 TIP3     24199    TIP3     H2       HT       0.417000       1.00800           0
     82514 TIP3     24200    TIP3     OH2      OT      -0.834000       15.9994           0
     82515 TIP3     24200    TIP3     H1       HT       0.417000       1.00800           0
     82516 TIP3     24200    TIP3     H2       HT       0.417000       1.00800           0
     82517 TIP3     24201    TIP3     OH2      OT      -0.834000       15.9994           0
     82518 TIP3     24201    TIP3     H1       HT       0.417000       1.00800           0
     82519 TIP3     24201    TIP3     H2       HT       0.417000       1.00800           0
     82520 TIP3     24202    TIP3     OH2      OT      -0.834000       15.9994           0
     82521 TIP3     24202    TIP3     H1       HT       0.417000       1.00800           0
     82522 TIP3     24202    TIP3     H2       HT       0.417000       1.00800           0
     82523 TIP3     24203    TIP3     OH2      OT      -0.834000       15.9994           0
     82524 TIP3     24203    TIP3     H1       HT       0.417000       1.00800           0
     82525 TIP3     24203    TIP3     H2       HT       0.417000       1.00800           0
     82526 TIP3     24204    TIP3     OH2      OT      -0.834000       15.9994           0
     82527 TIP3     24204    TIP3     H1       HT       0.417000       1.00800           0
     82528 TIP3     24204    TIP3     H2       HT       0.417000       1.00800           0
     82529 TIP3     24205    TIP3     OH2      OT      -0.834000       15.9994           0
     82530 TIP3     24205    TIP3     H1       HT       0.417000       1.00800           0
     82531 TIP3     24205    TIP3     H2       HT       0.417000       1.00800           0
     82532 TIP3     24206    TIP3     OH2      OT      -0.834000       15.9994           0
     82533 TIP3     24206    TIP3     H1       HT       0.417000       1.00800           0
     82534 TIP3     24206    TIP3     H2       HT       0.417000       1.00800           0
     82535 TIP3     24207    TIP3     OH2      OT      -0.834000       15.9994           0
     82536 TIP3     24207    TIP3     H1       HT       0.417000       1.00800           0
     82537 TIP3     24207    TIP3     H2       HT       0.417000       1.00800           0
     82538 TIP3     24208    TIP3     OH2      OT      -0.834000       15.9994           0
     82539 TIP3     24208    TIP3     H1       HT       0.417000       1.00800           0
     82540 TIP3     24208    TIP3     H2       HT       0.417000       1.00800           0
     82541 TIP3     24209    TIP3     OH2      OT      -0.834000       15.9994           0
     82542 TIP3     24209    TIP3     H1       HT       0.417000       1.00800           0
     82543 TIP3     24209    TIP3     H2       HT       0.417000       1.00800           0
     82544 TIP3     24210    TIP3     OH2      OT      -0.834000       15.9994           0
     82545 TIP3     24210    TIP3     H1       HT       0.417000       1.00800           0
     82546 TIP3     24210    TIP3     H2       HT       0.417000       1.00800           0
     82547 TIP3     24211    TIP3     OH2      OT      -0.834000       15.9994           0
     82548 TIP3     24211    TIP3     H1       HT       0.417000       1.00800           0
     82549 TIP3     24211    TIP3     H2       HT       0.417000       1.00800           0
     82550 TIP3     24212    TIP3     OH2      OT      -0.834000       15.9994           0
     82551 TIP3     24212    TIP3     H1       HT       0.417000       1.00800           0
     82552 TIP3     24212    TIP3     H2       HT       0.417000       1.00800           0
     82553 TIP3     24213    TIP3     OH2      OT      -0.834000       15.9994           0
     82554 TIP3     24213    TIP3     H1       HT       0.417000       1.00800           0
     82555 TIP3     24213    TIP3     H2       HT       0.417000       1.00800           0
     82556 TIP3     24214    TIP3     OH2      OT      -0.834000       15.9994           0
     82557 TIP3     24214    TIP3     H1       HT       0.417000       1.00800           0
     82558 TIP3     24214    TIP3     H2       HT       0.417000       1.00800           0
     82559 TIP3     24215    TIP3     OH2      OT      -0.834000       15.9994           0
     82560 TIP3     24215    TIP3     H1       HT       0.417000       1.00800           0
     82561 TIP3     24215    TIP3     H2       HT       0.417000       1.00800           0
     82562 TIP3     24216    TIP3     OH2      OT      -0.834000       15.9994           0
     82563 TIP3     24216    TIP3     H1       HT       0.417000       1.00800           0
     82564 TIP3     24216    TIP3     H2       HT       0.417000       1.00800           0
     82565 TIP3     24217    TIP3     OH2      OT      -0.834000       15.9994           0
     82566 TIP3     24217    TIP3     H1       HT       0.417000       1.00800           0
     82567 TIP3     24217    TIP3     H2       HT       0.417000       1.00800           0
     82568 TIP3     24218    TIP3     OH2      OT      -0.834000       15.9994           0
     82569 TIP3     24218    TIP3     H1       HT       0.417000       1.00800           0
     82570 TIP3     24218    TIP3     H2       HT       0.417000       1.00800           0
     82571 TIP3     24219    TIP3     OH2      OT      -0.834000       15.9994           0
     82572 TIP3     24219    TIP3     H1       HT       0.417000       1.00800           0
     82573 TIP3     24219    TIP3     H2       HT       0.417000       1.00800           0
     82574 TIP3     24220    TIP3     OH2      OT      -0.834000       15.9994           0
     82575 TIP3     24220    TIP3     H1       HT       0.417000       1.00800           0
     82576 TIP3     24220    TIP3     H2       HT       0.417000       1.00800           0
     82577 TIP3     24221    TIP3     OH2      OT      -0.834000       15.9994           0
     82578 TIP3     24221    TIP3     H1       HT       0.417000       1.00800           0
     82579 TIP3     24221    TIP3     H2       HT       0.417000       1.00800           0
     82580 TIP3     24222    TIP3     OH2      OT      -0.834000       15.9994           0
     82581 TIP3     24222    TIP3     H1       HT       0.417000       1.00800           0
     82582 TIP3     24222    TIP3     H2       HT       0.417000       1.00800           0
     82583 TIP3     24223    TIP3     OH2      OT      -0.834000       15.9994           0
     82584 TIP3     24223    TIP3     H1       HT       0.417000       1.00800           0
     82585 TIP3     24223    TIP3     H2       HT       0.417000       1.00800           0
     82586 TIP3     24224    TIP3     OH2      OT      -0.834000       15.9994           0
     82587 TIP3     24224    TIP3     H1       HT       0.417000       1.00800           0
     82588 TIP3     24224    TIP3     H2       HT       0.417000       1.00800           0
     82589 TIP3     24225    TIP3     OH2      OT      -0.834000       15.9994           0
     82590 TIP3     24225    TIP3     H1       HT       0.417000       1.00800           0
     82591 TIP3     24225    TIP3     H2       HT       0.417000       1.00800           0
     82592 TIP3     24226    TIP3     OH2      OT      -0.834000       15.9994           0
     82593 TIP3     24226    TIP3     H1       HT       0.417000       1.00800           0
     82594 TIP3     24226    TIP3     H2       HT       0.417000       1.00800           0
     82595 TIP3     24227    TIP3     OH2      OT      -0.834000       15.9994           0
     82596 TIP3     24227    TIP3     H1       HT       0.417000       1.00800           0
     82597 TIP3     24227    TIP3     H2       HT       0.417000       1.00800           0
     82598 TIP3     24228    TIP3     OH2      OT      -0.834000       15.9994           0
     82599 TIP3     24228    TIP3     H1       HT       0.417000       1.00800           0
     82600 TIP3     24228    TIP3     H2       HT       0.417000       1.00800           0
     82601 TIP3     24229    TIP3     OH2      OT      -0.834000       15.9994           0
     82602 TIP3     24229    TIP3     H1       HT       0.417000       1.00800           0
     82603 TIP3     24229    TIP3     H2       HT       0.417000       1.00800           0
     82604 TIP3     24230    TIP3     OH2      OT      -0.834000       15.9994           0
     82605 TIP3     24230    TIP3     H1       HT       0.417000       1.00800           0
     82606 TIP3     24230    TIP3     H2       HT       0.417000       1.00800           0
     82607 TIP3     24231    TIP3     OH2      OT      -0.834000       15.9994           0
     82608 TIP3     24231    TIP3     H1       HT       0.417000       1.00800           0
     82609 TIP3     24231    TIP3     H2       HT       0.417000       1.00800           0
     82610 TIP3     24232    TIP3     OH2      OT      -0.834000       15.9994           0
     82611 TIP3     24232    TIP3     H1       HT       0.417000       1.00800           0
     82612 TIP3     24232    TIP3     H2       HT       0.417000       1.00800           0
     82613 TIP3     24233    TIP3     OH2      OT      -0.834000       15.9994           0
     82614 TIP3     24233    TIP3     H1       HT       0.417000       1.00800           0
     82615 TIP3     24233    TIP3     H2       HT       0.417000       1.00800           0
     82616 TIP3     24234    TIP3     OH2      OT      -0.834000       15.9994           0
     82617 TIP3     24234    TIP3     H1       HT       0.417000       1.00800           0
     82618 TIP3     24234    TIP3     H2       HT       0.417000       1.00800           0
     82619 TIP3     24235    TIP3     OH2      OT      -0.834000       15.9994           0
     82620 TIP3     24235    TIP3     H1       HT       0.417000       1.00800           0
     82621 TIP3     24235    TIP3     H2       HT       0.417000       1.00800           0
     82622 TIP3     24236    TIP3     OH2      OT      -0.834000       15.9994           0
     82623 TIP3     24236    TIP3     H1       HT       0.417000       1.00800           0
     82624 TIP3     24236    TIP3     H2       HT       0.417000       1.00800           0
     82625 TIP3     24237    TIP3     OH2      OT      -0.834000       15.9994           0
     82626 TIP3     24237    TIP3     H1       HT       0.417000       1.00800           0
     82627 TIP3     24237    TIP3     H2       HT       0.417000       1.00800           0
     82628 TIP3     24238    TIP3     OH2      OT      -0.834000       15.9994           0
     82629 TIP3     24238    TIP3     H1       HT       0.417000       1.00800           0
     82630 TIP3     24238    TIP3     H2       HT       0.417000       1.00800           0
     82631 TIP3     24239    TIP3     OH2      OT      -0.834000       15.9994           0
     82632 TIP3     24239    TIP3     H1       HT       0.417000       1.00800           0
     82633 TIP3     24239    TIP3     H2       HT       0.417000       1.00800           0
     82634 TIP3     24240    TIP3     OH2      OT      -0.834000       15.9994           0
     82635 TIP3     24240    TIP3     H1       HT       0.417000       1.00800           0
     82636 TIP3     24240    TIP3     H2       HT       0.417000       1.00800           0
     82637 TIP3     24241    TIP3     OH2      OT      -0.834000       15.9994           0
     82638 TIP3     24241    TIP3     H1       HT       0.417000       1.00800           0
     82639 TIP3     24241    TIP3     H2       HT       0.417000       1.00800           0
     82640 TIP3     24242    TIP3     OH2      OT      -0.834000       15.9994           0
     82641 TIP3     24242    TIP3     H1       HT       0.417000       1.00800           0
     82642 TIP3     24242    TIP3     H2       HT       0.417000       1.00800           0
     82643 TIP3     24243    TIP3     OH2      OT      -0.834000       15.9994           0
     82644 TIP3     24243    TIP3     H1       HT       0.417000       1.00800           0
     82645 TIP3     24243    TIP3     H2       HT       0.417000       1.00800           0
     82646 TIP3     24244    TIP3     OH2      OT      -0.834000       15.9994           0
     82647 TIP3     24244    TIP3     H1       HT       0.417000       1.00800           0
     82648 TIP3     24244    TIP3     H2       HT       0.417000       1.00800           0
     82649 TIP3     24245    TIP3     OH2      OT      -0.834000       15.9994           0
     82650 TIP3     24245    TIP3     H1       HT       0.417000       1.00800           0
     82651 TIP3     24245    TIP3     H2       HT       0.417000       1.00800           0
     82652 TIP3     24246    TIP3     OH2      OT      -0.834000       15.9994           0
     82653 TIP3     24246    TIP3     H1       HT       0.417000       1.00800           0
     82654 TIP3     24246    TIP3     H2       HT       0.417000       1.00800           0
     82655 TIP3     24247    TIP3     OH2      OT      -0.834000       15.9994           0
     82656 TIP3     24247    TIP3     H1       HT       0.417000       1.00800           0
     82657 TIP3     24247    TIP3     H2       HT       0.417000       1.00800           0
     82658 TIP3     24248    TIP3     OH2      OT      -0.834000       15.9994           0
     82659 TIP3     24248    TIP3     H1       HT       0.417000       1.00800           0
     82660 TIP3     24248    TIP3     H2       HT       0.417000       1.00800           0
     82661 TIP3     24249    TIP3     OH2      OT      -0.834000       15.9994           0
     82662 TIP3     24249    TIP3     H1       HT       0.417000       1.00800           0
     82663 TIP3     24249    TIP3     H2       HT       0.417000       1.00800           0
     82664 TIP3     24250    TIP3     OH2      OT      -0.834000       15.9994           0
     82665 TIP3     24250    TIP3     H1       HT       0.417000       1.00800           0
     82666 TIP3     24250    TIP3     H2       HT       0.417000       1.00800           0
     82667 TIP3     24251    TIP3     OH2      OT      -0.834000       15.9994           0
     82668 TIP3     24251    TIP3     H1       HT       0.417000       1.00800           0
     82669 TIP3     24251    TIP3     H2       HT       0.417000       1.00800           0
     82670 TIP3     24252    TIP3     OH2      OT      -0.834000       15.9994           0
     82671 TIP3     24252    TIP3     H1       HT       0.417000       1.00800           0
     82672 TIP3     24252    TIP3     H2       HT       0.417000       1.00800           0
     82673 TIP3     24253    TIP3     OH2      OT      -0.834000       15.9994           0
     82674 TIP3     24253    TIP3     H1       HT       0.417000       1.00800           0
     82675 TIP3     24253    TIP3     H2       HT       0.417000       1.00800           0
     82676 TIP3     24254    TIP3     OH2      OT      -0.834000       15.9994           0
     82677 TIP3     24254    TIP3     H1       HT       0.417000       1.00800           0
     82678 TIP3     24254    TIP3     H2       HT       0.417000       1.00800           0
     82679 TIP3     24255    TIP3     OH2      OT      -0.834000       15.9994           0
     82680 TIP3     24255    TIP3     H1       HT       0.417000       1.00800           0
     82681 TIP3     24255    TIP3     H2       HT       0.417000       1.00800           0
     82682 TIP3     24256    TIP3     OH2      OT      -0.834000       15.9994           0
     82683 TIP3     24256    TIP3     H1       HT       0.417000       1.00800           0
     82684 TIP3     24256    TIP3     H2       HT       0.417000       1.00800           0
     82685 TIP3     24257    TIP3     OH2      OT      -0.834000       15.9994           0
     82686 TIP3     24257    TIP3     H1       HT       0.417000       1.00800           0
     82687 TIP3     24257    TIP3     H2       HT       0.417000       1.00800           0
     82688 TIP3     24258    TIP3     OH2      OT      -0.834000       15.9994           0
     82689 TIP3     24258    TIP3     H1       HT       0.417000       1.00800           0
     82690 TIP3     24258    TIP3     H2       HT       0.417000       1.00800           0
     82691 TIP3     24259    TIP3     OH2      OT      -0.834000       15.9994           0
     82692 TIP3     24259    TIP3     H1       HT       0.417000       1.00800           0
     82693 TIP3     24259    TIP3     H2       HT       0.417000       1.00800           0
     82694 TIP3     24260    TIP3     OH2      OT      -0.834000       15.9994           0
     82695 TIP3     24260    TIP3     H1       HT       0.417000       1.00800           0
     82696 TIP3     24260    TIP3     H2       HT       0.417000       1.00800           0
     82697 TIP3     24261    TIP3     OH2      OT      -0.834000       15.9994           0
     82698 TIP3     24261    TIP3     H1       HT       0.417000       1.00800           0
     82699 TIP3     24261    TIP3     H2       HT       0.417000       1.00800           0
     82700 TIP3     24262    TIP3     OH2      OT      -0.834000       15.9994           0
     82701 TIP3     24262    TIP3     H1       HT       0.417000       1.00800           0
     82702 TIP3     24262    TIP3     H2       HT       0.417000       1.00800           0
     82703 TIP3     24263    TIP3     OH2      OT      -0.834000       15.9994           0
     82704 TIP3     24263    TIP3     H1       HT       0.417000       1.00800           0
     82705 TIP3     24263    TIP3     H2       HT       0.417000       1.00800           0
     82706 TIP3     24264    TIP3     OH2      OT      -0.834000       15.9994           0
     82707 TIP3     24264    TIP3     H1       HT       0.417000       1.00800           0
     82708 TIP3     24264    TIP3     H2       HT       0.417000       1.00800           0
     82709 TIP3     24265    TIP3     OH2      OT      -0.834000       15.9994           0
     82710 TIP3     24265    TIP3     H1       HT       0.417000       1.00800           0
     82711 TIP3     24265    TIP3     H2       HT       0.417000       1.00800           0
     82712 TIP3     24266    TIP3     OH2      OT      -0.834000       15.9994           0
     82713 TIP3     24266    TIP3     H1       HT       0.417000       1.00800           0
     82714 TIP3     24266    TIP3     H2       HT       0.417000       1.00800           0
     82715 TIP3     24267    TIP3     OH2      OT      -0.834000       15.9994           0
     82716 TIP3     24267    TIP3     H1       HT       0.417000       1.00800           0
     82717 TIP3     24267    TIP3     H2       HT       0.417000       1.00800           0
     82718 TIP3     24268    TIP3     OH2      OT      -0.834000       15.9994           0
     82719 TIP3     24268    TIP3     H1       HT       0.417000       1.00800           0
     82720 TIP3     24268    TIP3     H2       HT       0.417000       1.00800           0
     82721 TIP3     24269    TIP3     OH2      OT      -0.834000       15.9994           0
     82722 TIP3     24269    TIP3     H1       HT       0.417000       1.00800           0
     82723 TIP3     24269    TIP3     H2       HT       0.417000       1.00800           0
     82724 TIP3     24270    TIP3     OH2      OT      -0.834000       15.9994           0
     82725 TIP3     24270    TIP3     H1       HT       0.417000       1.00800           0
     82726 TIP3     24270    TIP3     H2       HT       0.417000       1.00800           0
     82727 TIP3     24271    TIP3     OH2      OT      -0.834000       15.9994           0
     82728 TIP3     24271    TIP3     H1       HT       0.417000       1.00800           0
     82729 TIP3     24271    TIP3     H2       HT       0.417000       1.00800           0
     82730 TIP3     24272    TIP3     OH2      OT      -0.834000       15.9994           0
     82731 TIP3     24272    TIP3     H1       HT       0.417000       1.00800           0
     82732 TIP3     24272    TIP3     H2       HT       0.417000       1.00800           0
     82733 TIP3     24273    TIP3     OH2      OT      -0.834000       15.9994           0
     82734 TIP3     24273    TIP3     H1       HT       0.417000       1.00800           0
     82735 TIP3     24273    TIP3     H2       HT       0.417000       1.00800           0
     82736 TIP3     24274    TIP3     OH2      OT      -0.834000       15.9994           0
     82737 TIP3     24274    TIP3     H1       HT       0.417000       1.00800           0
     82738 TIP3     24274    TIP3     H2       HT       0.417000       1.00800           0
     82739 TIP3     24275    TIP3     OH2      OT      -0.834000       15.9994           0
     82740 TIP3     24275    TIP3     H1       HT       0.417000       1.00800           0
     82741 TIP3     24275    TIP3     H2       HT       0.417000       1.00800           0
     82742 TIP3     24276    TIP3     OH2      OT      -0.834000       15.9994           0
     82743 TIP3     24276    TIP3     H1       HT       0.417000       1.00800           0
     82744 TIP3     24276    TIP3     H2       HT       0.417000       1.00800           0
     82745 TIP3     24277    TIP3     OH2      OT      -0.834000       15.9994           0
     82746 TIP3     24277    TIP3     H1       HT       0.417000       1.00800           0
     82747 TIP3     24277    TIP3     H2       HT       0.417000       1.00800           0
     82748 TIP3     24278    TIP3     OH2      OT      -0.834000       15.9994           0
     82749 TIP3     24278    TIP3     H1       HT       0.417000       1.00800           0
     82750 TIP3     24278    TIP3     H2       HT       0.417000       1.00800           0
     82751 TIP3     24279    TIP3     OH2      OT      -0.834000       15.9994           0
     82752 TIP3     24279    TIP3     H1       HT       0.417000       1.00800           0
     82753 TIP3     24279    TIP3     H2       HT       0.417000       1.00800           0
     82754 TIP3     24280    TIP3     OH2      OT      -0.834000       15.9994           0
     82755 TIP3     24280    TIP3     H1       HT       0.417000       1.00800           0
     82756 TIP3     24280    TIP3     H2       HT       0.417000       1.00800           0
     82757 TIP3     24281    TIP3     OH2      OT      -0.834000       15.9994           0
     82758 TIP3     24281    TIP3     H1       HT       0.417000       1.00800           0
     82759 TIP3     24281    TIP3     H2       HT       0.417000       1.00800           0
     82760 TIP3     24282    TIP3     OH2      OT      -0.834000       15.9994           0
     82761 TIP3     24282    TIP3     H1       HT       0.417000       1.00800           0
     82762 TIP3     24282    TIP3     H2       HT       0.417000       1.00800           0
     82763 TIP3     24283    TIP3     OH2      OT      -0.834000       15.9994           0
     82764 TIP3     24283    TIP3     H1       HT       0.417000       1.00800           0
     82765 TIP3     24283    TIP3     H2       HT       0.417000       1.00800           0
     82766 TIP3     24284    TIP3     OH2      OT      -0.834000       15.9994           0
     82767 TIP3     24284    TIP3     H1       HT       0.417000       1.00800           0
     82768 TIP3     24284    TIP3     H2       HT       0.417000       1.00800           0
     82769 TIP3     24285    TIP3     OH2      OT      -0.834000       15.9994           0
     82770 TIP3     24285    TIP3     H1       HT       0.417000       1.00800           0
     82771 TIP3     24285    TIP3     H2       HT       0.417000       1.00800           0
     82772 TIP3     24286    TIP3     OH2      OT      -0.834000       15.9994           0
     82773 TIP3     24286    TIP3     H1       HT       0.417000       1.00800           0
     82774 TIP3     24286    TIP3     H2       HT       0.417000       1.00800           0
     82775 TIP3     24287    TIP3     OH2      OT      -0.834000       15.9994           0
     82776 TIP3     24287    TIP3     H1       HT       0.417000       1.00800           0
     82777 TIP3     24287    TIP3     H2       HT       0.417000       1.00800           0
     82778 TIP3     24288    TIP3     OH2      OT      -0.834000       15.9994           0
     82779 TIP3     24288    TIP3     H1       HT       0.417000       1.00800           0
     82780 TIP3     24288    TIP3     H2       HT       0.417000       1.00800           0
     82781 TIP3     24289    TIP3     OH2      OT      -0.834000       15.9994           0
     82782 TIP3     24289    TIP3     H1       HT       0.417000       1.00800           0
     82783 TIP3     24289    TIP3     H2       HT       0.417000       1.00800           0
     82784 TIP3     24290    TIP3     OH2      OT      -0.834000       15.9994           0
     82785 TIP3     24290    TIP3     H1       HT       0.417000       1.00800           0
     82786 TIP3     24290    TIP3     H2       HT       0.417000       1.00800           0
     82787 TIP3     24291    TIP3     OH2      OT      -0.834000       15.9994           0
     82788 TIP3     24291    TIP3     H1       HT       0.417000       1.00800           0
     82789 TIP3     24291    TIP3     H2       HT       0.417000       1.00800           0
     82790 TIP3     24292    TIP3     OH2      OT      -0.834000       15.9994           0
     82791 TIP3     24292    TIP3     H1       HT       0.417000       1.00800           0
     82792 TIP3     24292    TIP3     H2       HT       0.417000       1.00800           0
     82793 TIP3     24293    TIP3     OH2      OT      -0.834000       15.9994           0
     82794 TIP3     24293    TIP3     H1       HT       0.417000       1.00800           0
     82795 TIP3     24293    TIP3     H2       HT       0.417000       1.00800           0
     82796 TIP3     24294    TIP3     OH2      OT      -0.834000       15.9994           0
     82797 TIP3     24294    TIP3     H1       HT       0.417000       1.00800           0
     82798 TIP3     24294    TIP3     H2       HT       0.417000       1.00800           0
     82799 TIP3     24295    TIP3     OH2      OT      -0.834000       15.9994           0
     82800 TIP3     24295    TIP3     H1       HT       0.417000       1.00800           0
     82801 TIP3     24295    TIP3     H2       HT       0.417000       1.00800           0
     82802 TIP3     24296    TIP3     OH2      OT      -0.834000       15.9994           0
     82803 TIP3     24296    TIP3     H1       HT       0.417000       1.00800           0
     82804 TIP3     24296    TIP3     H2       HT       0.417000       1.00800           0
     82805 TIP3     24297    TIP3     OH2      OT      -0.834000       15.9994           0
     82806 TIP3     24297    TIP3     H1       HT       0.417000       1.00800           0
     82807 TIP3     24297    TIP3     H2       HT       0.417000       1.00800           0
     82808 TIP3     24298    TIP3     OH2      OT      -0.834000       15.9994           0
     82809 TIP3     24298    TIP3     H1       HT       0.417000       1.00800           0
     82810 TIP3     24298    TIP3     H2       HT       0.417000       1.00800           0
     82811 TIP3     24299    TIP3     OH2      OT      -0.834000       15.9994           0
     82812 TIP3     24299    TIP3     H1       HT       0.417000       1.00800           0
     82813 TIP3     24299    TIP3     H2       HT       0.417000       1.00800           0
     82814 TIP3     24300    TIP3     OH2      OT      -0.834000       15.9994           0
     82815 TIP3     24300    TIP3     H1       HT       0.417000       1.00800           0
     82816 TIP3     24300    TIP3     H2       HT       0.417000       1.00800           0
     82817 TIP3     24301    TIP3     OH2      OT      -0.834000       15.9994           0
     82818 TIP3     24301    TIP3     H1       HT       0.417000       1.00800           0
     82819 TIP3     24301    TIP3     H2       HT       0.417000       1.00800           0
     82820 TIP3     24302    TIP3     OH2      OT      -0.834000       15.9994           0
     82821 TIP3     24302    TIP3     H1       HT       0.417000       1.00800           0
     82822 TIP3     24302    TIP3     H2       HT       0.417000       1.00800           0
     82823 TIP3     24303    TIP3     OH2      OT      -0.834000       15.9994           0
     82824 TIP3     24303    TIP3     H1       HT       0.417000       1.00800           0
     82825 TIP3     24303    TIP3     H2       HT       0.417000       1.00800           0
     82826 TIP3     24304    TIP3     OH2      OT      -0.834000       15.9994           0
     82827 TIP3     24304    TIP3     H1       HT       0.417000       1.00800           0
     82828 TIP3     24304    TIP3     H2       HT       0.417000       1.00800           0
     82829 TIP3     24305    TIP3     OH2      OT      -0.834000       15.9994           0
     82830 TIP3     24305    TIP3     H1       HT       0.417000       1.00800           0
     82831 TIP3     24305    TIP3     H2       HT       0.417000       1.00800           0
     82832 TIP3     24306    TIP3     OH2      OT      -0.834000       15.9994           0
     82833 TIP3     24306    TIP3     H1       HT       0.417000       1.00800           0
     82834 TIP3     24306    TIP3     H2       HT       0.417000       1.00800           0
     82835 TIP3     24307    TIP3     OH2      OT      -0.834000       15.9994           0
     82836 TIP3     24307    TIP3     H1       HT       0.417000       1.00800           0
     82837 TIP3     24307    TIP3     H2       HT       0.417000       1.00800           0
     82838 TIP3     24308    TIP3     OH2      OT      -0.834000       15.9994           0
     82839 TIP3     24308    TIP3     H1       HT       0.417000       1.00800           0
     82840 TIP3     24308    TIP3     H2       HT       0.417000       1.00800           0
     82841 TIP3     24309    TIP3     OH2      OT      -0.834000       15.9994           0
     82842 TIP3     24309    TIP3     H1       HT       0.417000       1.00800           0
     82843 TIP3     24309    TIP3     H2       HT       0.417000       1.00800           0
     82844 TIP3     24310    TIP3     OH2      OT      -0.834000       15.9994           0
     82845 TIP3     24310    TIP3     H1       HT       0.417000       1.00800           0
     82846 TIP3     24310    TIP3     H2       HT       0.417000       1.00800           0
     82847 TIP3     24311    TIP3     OH2      OT      -0.834000       15.9994           0
     82848 TIP3     24311    TIP3     H1       HT       0.417000       1.00800           0
     82849 TIP3     24311    TIP3     H2       HT       0.417000       1.00800           0
     82850 TIP3     24312    TIP3     OH2      OT      -0.834000       15.9994           0
     82851 TIP3     24312    TIP3     H1       HT       0.417000       1.00800           0
     82852 TIP3     24312    TIP3     H2       HT       0.417000       1.00800           0
     82853 TIP3     24313    TIP3     OH2      OT      -0.834000       15.9994           0
     82854 TIP3     24313    TIP3     H1       HT       0.417000       1.00800           0
     82855 TIP3     24313    TIP3     H2       HT       0.417000       1.00800           0
     82856 TIP3     24314    TIP3     OH2      OT      -0.834000       15.9994           0
     82857 TIP3     24314    TIP3     H1       HT       0.417000       1.00800           0
     82858 TIP3     24314    TIP3     H2       HT       0.417000       1.00800           0
     82859 TIP3     24315    TIP3     OH2      OT      -0.834000       15.9994           0
     82860 TIP3     24315    TIP3     H1       HT       0.417000       1.00800           0
     82861 TIP3     24315    TIP3     H2       HT       0.417000       1.00800           0
     82862 TIP3     24316    TIP3     OH2      OT      -0.834000       15.9994           0
     82863 TIP3     24316    TIP3     H1       HT       0.417000       1.00800           0
     82864 TIP3     24316    TIP3     H2       HT       0.417000       1.00800           0
     82865 TIP3     24317    TIP3     OH2      OT      -0.834000       15.9994           0
     82866 TIP3     24317    TIP3     H1       HT       0.417000       1.00800           0
     82867 TIP3     24317    TIP3     H2       HT       0.417000       1.00800           0
     82868 TIP3     24318    TIP3     OH2      OT      -0.834000       15.9994           0
     82869 TIP3     24318    TIP3     H1       HT       0.417000       1.00800           0
     82870 TIP3     24318    TIP3     H2       HT       0.417000       1.00800           0
     82871 TIP3     24319    TIP3     OH2      OT      -0.834000       15.9994           0
     82872 TIP3     24319    TIP3     H1       HT       0.417000       1.00800           0
     82873 TIP3     24319    TIP3     H2       HT       0.417000       1.00800           0
     82874 TIP3     24320    TIP3     OH2      OT      -0.834000       15.9994           0
     82875 TIP3     24320    TIP3     H1       HT       0.417000       1.00800           0
     82876 TIP3     24320    TIP3     H2       HT       0.417000       1.00800           0
     82877 TIP3     24321    TIP3     OH2      OT      -0.834000       15.9994           0
     82878 TIP3     24321    TIP3     H1       HT       0.417000       1.00800           0
     82879 TIP3     24321    TIP3     H2       HT       0.417000       1.00800           0
     82880 TIP3     24322    TIP3     OH2      OT      -0.834000       15.9994           0
     82881 TIP3     24322    TIP3     H1       HT       0.417000       1.00800           0
     82882 TIP3     24322    TIP3     H2       HT       0.417000       1.00800           0
     82883 TIP3     24323    TIP3     OH2      OT      -0.834000       15.9994           0
     82884 TIP3     24323    TIP3     H1       HT       0.417000       1.00800           0
     82885 TIP3     24323    TIP3     H2       HT       0.417000       1.00800           0
     82886 TIP3     24324    TIP3     OH2      OT      -0.834000       15.9994           0
     82887 TIP3     24324    TIP3     H1       HT       0.417000       1.00800           0
     82888 TIP3     24324    TIP3     H2       HT       0.417000       1.00800           0
     82889 TIP3     24325    TIP3     OH2      OT      -0.834000       15.9994           0
     82890 TIP3     24325    TIP3     H1       HT       0.417000       1.00800           0
     82891 TIP3     24325    TIP3     H2       HT       0.417000       1.00800           0
     82892 TIP3     24326    TIP3     OH2      OT      -0.834000       15.9994           0
     82893 TIP3     24326    TIP3     H1       HT       0.417000       1.00800           0
     82894 TIP3     24326    TIP3     H2       HT       0.417000       1.00800           0
     82895 TIP3     24327    TIP3     OH2      OT      -0.834000       15.9994           0
     82896 TIP3     24327    TIP3     H1       HT       0.417000       1.00800           0
     82897 TIP3     24327    TIP3     H2       HT       0.417000       1.00800           0
     82898 TIP3     24328    TIP3     OH2      OT      -0.834000       15.9994           0
     82899 TIP3     24328    TIP3     H1       HT       0.417000       1.00800           0
     82900 TIP3     24328    TIP3     H2       HT       0.417000       1.00800           0
     82901 TIP3     24329    TIP3     OH2      OT      -0.834000       15.9994           0
     82902 TIP3     24329    TIP3     H1       HT       0.417000       1.00800           0
     82903 TIP3     24329    TIP3     H2       HT       0.417000       1.00800           0
     82904 TIP3     24330    TIP3     OH2      OT      -0.834000       15.9994           0
     82905 TIP3     24330    TIP3     H1       HT       0.417000       1.00800           0
     82906 TIP3     24330    TIP3     H2       HT       0.417000       1.00800           0
     82907 TIP3     24331    TIP3     OH2      OT      -0.834000       15.9994           0
     82908 TIP3     24331    TIP3     H1       HT       0.417000       1.00800           0
     82909 TIP3     24331    TIP3     H2       HT       0.417000       1.00800           0
     82910 TIP3     24332    TIP3     OH2      OT      -0.834000       15.9994           0
     82911 TIP3     24332    TIP3     H1       HT       0.417000       1.00800           0
     82912 TIP3     24332    TIP3     H2       HT       0.417000       1.00800           0
     82913 TIP3     24333    TIP3     OH2      OT      -0.834000       15.9994           0
     82914 TIP3     24333    TIP3     H1       HT       0.417000       1.00800           0
     82915 TIP3     24333    TIP3     H2       HT       0.417000       1.00800           0
     82916 TIP3     24334    TIP3     OH2      OT      -0.834000       15.9994           0
     82917 TIP3     24334    TIP3     H1       HT       0.417000       1.00800           0
     82918 TIP3     24334    TIP3     H2       HT       0.417000       1.00800           0
     82919 TIP3     24335    TIP3     OH2      OT      -0.834000       15.9994           0
     82920 TIP3     24335    TIP3     H1       HT       0.417000       1.00800           0
     82921 TIP3     24335    TIP3     H2       HT       0.417000       1.00800           0
     82922 TIP3     24336    TIP3     OH2      OT      -0.834000       15.9994           0
     82923 TIP3     24336    TIP3     H1       HT       0.417000       1.00800           0
     82924 TIP3     24336    TIP3     H2       HT       0.417000       1.00800           0
     82925 TIP3     24337    TIP3     OH2      OT      -0.834000       15.9994           0
     82926 TIP3     24337    TIP3     H1       HT       0.417000       1.00800           0
     82927 TIP3     24337    TIP3     H2       HT       0.417000       1.00800           0
     82928 TIP3     24338    TIP3     OH2      OT      -0.834000       15.9994           0
     82929 TIP3     24338    TIP3     H1       HT       0.417000       1.00800           0
     82930 TIP3     24338    TIP3     H2       HT       0.417000       1.00800           0
     82931 TIP3     24339    TIP3     OH2      OT      -0.834000       15.9994           0
     82932 TIP3     24339    TIP3     H1       HT       0.417000       1.00800           0
     82933 TIP3     24339    TIP3     H2       HT       0.417000       1.00800           0
     82934 TIP3     24340    TIP3     OH2      OT      -0.834000       15.9994           0
     82935 TIP3     24340    TIP3     H1       HT       0.417000       1.00800           0
     82936 TIP3     24340    TIP3     H2       HT       0.417000       1.00800           0
     82937 TIP3     24341    TIP3     OH2      OT      -0.834000       15.9994           0
     82938 TIP3     24341    TIP3     H1       HT       0.417000       1.00800           0
     82939 TIP3     24341    TIP3     H2       HT       0.417000       1.00800           0
     82940 TIP3     24342    TIP3     OH2      OT      -0.834000       15.9994           0
     82941 TIP3     24342    TIP3     H1       HT       0.417000       1.00800           0
     82942 TIP3     24342    TIP3     H2       HT       0.417000       1.00800           0
     82943 TIP3     24343    TIP3     OH2      OT      -0.834000       15.9994           0
     82944 TIP3     24343    TIP3     H1       HT       0.417000       1.00800           0
     82945 TIP3     24343    TIP3     H2       HT       0.417000       1.00800           0
     82946 TIP3     24344    TIP3     OH2      OT      -0.834000       15.9994           0
     82947 TIP3     24344    TIP3     H1       HT       0.417000       1.00800           0
     82948 TIP3     24344    TIP3     H2       HT       0.417000       1.00800           0
     82949 TIP3     24345    TIP3     OH2      OT      -0.834000       15.9994           0
     82950 TIP3     24345    TIP3     H1       HT       0.417000       1.00800           0
     82951 TIP3     24345    TIP3     H2       HT       0.417000       1.00800           0
     82952 TIP3     24346    TIP3     OH2      OT      -0.834000       15.9994           0
     82953 TIP3     24346    TIP3     H1       HT       0.417000       1.00800           0
     82954 TIP3     24346    TIP3     H2       HT       0.417000       1.00800           0
     82955 TIP3     24347    TIP3     OH2      OT      -0.834000       15.9994           0
     82956 TIP3     24347    TIP3     H1       HT       0.417000       1.00800           0
     82957 TIP3     24347    TIP3     H2       HT       0.417000       1.00800           0
     82958 TIP3     24348    TIP3     OH2      OT      -0.834000       15.9994           0
     82959 TIP3     24348    TIP3     H1       HT       0.417000       1.00800           0
     82960 TIP3     24348    TIP3     H2       HT       0.417000       1.00800           0
     82961 TIP3     24349    TIP3     OH2      OT      -0.834000       15.9994           0
     82962 TIP3     24349    TIP3     H1       HT       0.417000       1.00800           0
     82963 TIP3     24349    TIP3     H2       HT       0.417000       1.00800           0
     82964 TIP3     24350    TIP3     OH2      OT      -0.834000       15.9994           0
     82965 TIP3     24350    TIP3     H1       HT       0.417000       1.00800           0
     82966 TIP3     24350    TIP3     H2       HT       0.417000       1.00800           0
     82967 TIP3     24351    TIP3     OH2      OT      -0.834000       15.9994           0
     82968 TIP3     24351    TIP3     H1       HT       0.417000       1.00800           0
     82969 TIP3     24351    TIP3     H2       HT       0.417000       1.00800           0
     82970 TIP3     24352    TIP3     OH2      OT      -0.834000       15.9994           0
     82971 TIP3     24352    TIP3     H1       HT       0.417000       1.00800           0
     82972 TIP3     24352    TIP3     H2       HT       0.417000       1.00800           0
     82973 TIP3     24353    TIP3     OH2      OT      -0.834000       15.9994           0
     82974 TIP3     24353    TIP3     H1       HT       0.417000       1.00800           0
     82975 TIP3     24353    TIP3     H2       HT       0.417000       1.00800           0
     82976 TIP3     24354    TIP3     OH2      OT      -0.834000       15.9994           0
     82977 TIP3     24354    TIP3     H1       HT       0.417000       1.00800           0
     82978 TIP3     24354    TIP3     H2       HT       0.417000       1.00800           0
     82979 TIP3     24355    TIP3     OH2      OT      -0.834000       15.9994           0
     82980 TIP3     24355    TIP3     H1       HT       0.417000       1.00800           0
     82981 TIP3     24355    TIP3     H2       HT       0.417000       1.00800           0
     82982 TIP3     24356    TIP3     OH2      OT      -0.834000       15.9994           0
     82983 TIP3     24356    TIP3     H1       HT       0.417000       1.00800           0
     82984 TIP3     24356    TIP3     H2       HT       0.417000       1.00800           0
     82985 TIP3     24357    TIP3     OH2      OT      -0.834000       15.9994           0
     82986 TIP3     24357    TIP3     H1       HT       0.417000       1.00800           0
     82987 TIP3     24357    TIP3     H2       HT       0.417000       1.00800           0
     82988 TIP3     24358    TIP3     OH2      OT      -0.834000       15.9994           0
     82989 TIP3     24358    TIP3     H1       HT       0.417000       1.00800           0
     82990 TIP3     24358    TIP3     H2       HT       0.417000       1.00800           0
     82991 TIP3     24359    TIP3     OH2      OT      -0.834000       15.9994           0
     82992 TIP3     24359    TIP3     H1       HT       0.417000       1.00800           0
     82993 TIP3     24359    TIP3     H2       HT       0.417000       1.00800           0
     82994 TIP3     24360    TIP3     OH2      OT      -0.834000       15.9994           0
     82995 TIP3     24360    TIP3     H1       HT       0.417000       1.00800           0
     82996 TIP3     24360    TIP3     H2       HT       0.417000       1.00800           0
     82997 TIP3     24361    TIP3     OH2      OT      -0.834000       15.9994           0
     82998 TIP3     24361    TIP3     H1       HT       0.417000       1.00800           0
     82999 TIP3     24361    TIP3     H2       HT       0.417000       1.00800           0
     83000 TIP3     24362    TIP3     OH2      OT      -0.834000       15.9994           0
     83001 TIP3     24362    TIP3     H1       HT       0.417000       1.00800           0
     83002 TIP3     24362    TIP3     H2       HT       0.417000       1.00800           0
     83003 TIP3     24363    TIP3     OH2      OT      -0.834000       15.9994           0
     83004 TIP3     24363    TIP3     H1       HT       0.417000       1.00800           0
     83005 TIP3     24363    TIP3     H2       HT       0.417000       1.00800           0
     83006 TIP3     24364    TIP3     OH2      OT      -0.834000       15.9994           0
     83007 TIP3     24364    TIP3     H1       HT       0.417000       1.00800           0
     83008 TIP3     24364    TIP3     H2       HT       0.417000       1.00800           0
     83009 TIP3     24365    TIP3     OH2      OT      -0.834000       15.9994           0
     83010 TIP3     24365    TIP3     H1       HT       0.417000       1.00800           0
     83011 TIP3     24365    TIP3     H2       HT       0.417000       1.00800           0
     83012 TIP3     24366    TIP3     OH2      OT      -0.834000       15.9994           0
     83013 TIP3     24366    TIP3     H1       HT       0.417000       1.00800           0
     83014 TIP3     24366    TIP3     H2       HT       0.417000       1.00800           0
     83015 TIP3     24367    TIP3     OH2      OT      -0.834000       15.9994           0
     83016 TIP3     24367    TIP3     H1       HT       0.417000       1.00800           0
     83017 TIP3     24367    TIP3     H2       HT       0.417000       1.00800           0
     83018 TIP3     24368    TIP3     OH2      OT      -0.834000       15.9994           0
     83019 TIP3     24368    TIP3     H1       HT       0.417000       1.00800           0
     83020 TIP3     24368    TIP3     H2       HT       0.417000       1.00800           0
     83021 TIP3     24369    TIP3     OH2      OT      -0.834000       15.9994           0
     83022 TIP3     24369    TIP3     H1       HT       0.417000       1.00800           0
     83023 TIP3     24369    TIP3     H2       HT       0.417000       1.00800           0
     83024 TIP3     24370    TIP3     OH2      OT      -0.834000       15.9994           0
     83025 TIP3     24370    TIP3     H1       HT       0.417000       1.00800           0
     83026 TIP3     24370    TIP3     H2       HT       0.417000       1.00800           0
     83027 TIP3     24371    TIP3     OH2      OT      -0.834000       15.9994           0
     83028 TIP3     24371    TIP3     H1       HT       0.417000       1.00800           0
     83029 TIP3     24371    TIP3     H2       HT       0.417000       1.00800           0
     83030 TIP3     24372    TIP3     OH2      OT      -0.834000       15.9994           0
     83031 TIP3     24372    TIP3     H1       HT       0.417000       1.00800           0
     83032 TIP3     24372    TIP3     H2       HT       0.417000       1.00800           0
     83033 TIP3     24373    TIP3     OH2      OT      -0.834000       15.9994           0
     83034 TIP3     24373    TIP3     H1       HT       0.417000       1.00800           0
     83035 TIP3     24373    TIP3     H2       HT       0.417000       1.00800           0
     83036 TIP3     24374    TIP3     OH2      OT      -0.834000       15.9994           0
     83037 TIP3     24374    TIP3     H1       HT       0.417000       1.00800           0
     83038 TIP3     24374    TIP3     H2       HT       0.417000       1.00800           0
     83039 TIP3     24375    TIP3     OH2      OT      -0.834000       15.9994           0
     83040 TIP3     24375    TIP3     H1       HT       0.417000       1.00800           0
     83041 TIP3     24375    TIP3     H2       HT       0.417000       1.00800           0
     83042 TIP3     24376    TIP3     OH2      OT      -0.834000       15.9994           0
     83043 TIP3     24376    TIP3     H1       HT       0.417000       1.00800           0
     83044 TIP3     24376    TIP3     H2       HT       0.417000       1.00800           0
     83045 TIP3     24377    TIP3     OH2      OT      -0.834000       15.9994           0
     83046 TIP3     24377    TIP3     H1       HT       0.417000       1.00800           0
     83047 TIP3     24377    TIP3     H2       HT       0.417000       1.00800           0
     83048 TIP3     24378    TIP3     OH2      OT      -0.834000       15.9994           0
     83049 TIP3     24378    TIP3     H1       HT       0.417000       1.00800           0
     83050 TIP3     24378    TIP3     H2       HT       0.417000       1.00800           0
     83051 TIP3     24379    TIP3     OH2      OT      -0.834000       15.9994           0
     83052 TIP3     24379    TIP3     H1       HT       0.417000       1.00800           0
     83053 TIP3     24379    TIP3     H2       HT       0.417000       1.00800           0
     83054 TIP3     24380    TIP3     OH2      OT      -0.834000       15.9994           0
     83055 TIP3     24380    TIP3     H1       HT       0.417000       1.00800           0
     83056 TIP3     24380    TIP3     H2       HT       0.417000       1.00800           0
     83057 TIP3     24381    TIP3     OH2      OT      -0.834000       15.9994           0
     83058 TIP3     24381    TIP3     H1       HT       0.417000       1.00800           0
     83059 TIP3     24381    TIP3     H2       HT       0.417000       1.00800           0
     83060 TIP3     24382    TIP3     OH2      OT      -0.834000       15.9994           0
     83061 TIP3     24382    TIP3     H1       HT       0.417000       1.00800           0
     83062 TIP3     24382    TIP3     H2       HT       0.417000       1.00800           0
     83063 TIP3     24383    TIP3     OH2      OT      -0.834000       15.9994           0
     83064 TIP3     24383    TIP3     H1       HT       0.417000       1.00800           0
     83065 TIP3     24383    TIP3     H2       HT       0.417000       1.00800           0
     83066 TIP3     24384    TIP3     OH2      OT      -0.834000       15.9994           0
     83067 TIP3     24384    TIP3     H1       HT       0.417000       1.00800           0
     83068 TIP3     24384    TIP3     H2       HT       0.417000       1.00800           0
     83069 TIP3     24385    TIP3     OH2      OT      -0.834000       15.9994           0
     83070 TIP3     24385    TIP3     H1       HT       0.417000       1.00800           0
     83071 TIP3     24385    TIP3     H2       HT       0.417000       1.00800           0
     83072 TIP3     24386    TIP3     OH2      OT      -0.834000       15.9994           0
     83073 TIP3     24386    TIP3     H1       HT       0.417000       1.00800           0
     83074 TIP3     24386    TIP3     H2       HT       0.417000       1.00800           0
     83075 TIP3     24387    TIP3     OH2      OT      -0.834000       15.9994           0
     83076 TIP3     24387    TIP3     H1       HT       0.417000       1.00800           0
     83077 TIP3     24387    TIP3     H2       HT       0.417000       1.00800           0
     83078 TIP3     24388    TIP3     OH2      OT      -0.834000       15.9994           0
     83079 TIP3     24388    TIP3     H1       HT       0.417000       1.00800           0
     83080 TIP3     24388    TIP3     H2       HT       0.417000       1.00800           0
     83081 TIP3     24389    TIP3     OH2      OT      -0.834000       15.9994           0
     83082 TIP3     24389    TIP3     H1       HT       0.417000       1.00800           0
     83083 TIP3     24389    TIP3     H2       HT       0.417000       1.00800           0
     83084 TIP3     24390    TIP3     OH2      OT      -0.834000       15.9994           0
     83085 TIP3     24390    TIP3     H1       HT       0.417000       1.00800           0
     83086 TIP3     24390    TIP3     H2       HT       0.417000       1.00800           0
     83087 TIP3     24391    TIP3     OH2      OT      -0.834000       15.9994           0
     83088 TIP3     24391    TIP3     H1       HT       0.417000       1.00800           0
     83089 TIP3     24391    TIP3     H2       HT       0.417000       1.00800           0
     83090 TIP3     24392    TIP3     OH2      OT      -0.834000       15.9994           0
     83091 TIP3     24392    TIP3     H1       HT       0.417000       1.00800           0
     83092 TIP3     24392    TIP3     H2       HT       0.417000       1.00800           0
     83093 TIP3     24393    TIP3     OH2      OT      -0.834000       15.9994           0
     83094 TIP3     24393    TIP3     H1       HT       0.417000       1.00800           0
     83095 TIP3     24393    TIP3     H2       HT       0.417000       1.00800           0
     83096 TIP3     24394    TIP3     OH2      OT      -0.834000       15.9994           0
     83097 TIP3     24394    TIP3     H1       HT       0.417000       1.00800           0
     83098 TIP3     24394    TIP3     H2       HT       0.417000       1.00800           0
     83099 TIP3     24395    TIP3     OH2      OT      -0.834000       15.9994           0
     83100 TIP3     24395    TIP3     H1       HT       0.417000       1.00800           0
     83101 TIP3     24395    TIP3     H2       HT       0.417000       1.00800           0
     83102 TIP3     24396    TIP3     OH2      OT      -0.834000       15.9994           0
     83103 TIP3     24396    TIP3     H1       HT       0.417000       1.00800           0
     83104 TIP3     24396    TIP3     H2       HT       0.417000       1.00800           0
     83105 TIP3     24397    TIP3     OH2      OT      -0.834000       15.9994           0
     83106 TIP3     24397    TIP3     H1       HT       0.417000       1.00800           0
     83107 TIP3     24397    TIP3     H2       HT       0.417000       1.00800           0
     83108 TIP3     24398    TIP3     OH2      OT      -0.834000       15.9994           0
     83109 TIP3     24398    TIP3     H1       HT       0.417000       1.00800           0
     83110 TIP3     24398    TIP3     H2       HT       0.417000       1.00800           0
     83111 TIP3     24399    TIP3     OH2      OT      -0.834000       15.9994           0
     83112 TIP3     24399    TIP3     H1       HT       0.417000       1.00800           0
     83113 TIP3     24399    TIP3     H2       HT       0.417000       1.00800           0
     83114 TIP3     24400    TIP3     OH2      OT      -0.834000       15.9994           0
     83115 TIP3     24400    TIP3     H1       HT       0.417000       1.00800           0
     83116 TIP3     24400    TIP3     H2       HT       0.417000       1.00800           0
     83117 TIP3     24401    TIP3     OH2      OT      -0.834000       15.9994           0
     83118 TIP3     24401    TIP3     H1       HT       0.417000       1.00800           0
     83119 TIP3     24401    TIP3     H2       HT       0.417000       1.00800           0
     83120 TIP3     24402    TIP3     OH2      OT      -0.834000       15.9994           0
     83121 TIP3     24402    TIP3     H1       HT       0.417000       1.00800           0
     83122 TIP3     24402    TIP3     H2       HT       0.417000       1.00800           0
     83123 TIP3     24403    TIP3     OH2      OT      -0.834000       15.9994           0
     83124 TIP3     24403    TIP3     H1       HT       0.417000       1.00800           0
     83125 TIP3     24403    TIP3     H2       HT       0.417000       1.00800           0
     83126 TIP3     24404    TIP3     OH2      OT      -0.834000       15.9994           0
     83127 TIP3     24404    TIP3     H1       HT       0.417000       1.00800           0
     83128 TIP3     24404    TIP3     H2       HT       0.417000       1.00800           0
     83129 TIP3     24405    TIP3     OH2      OT      -0.834000       15.9994           0
     83130 TIP3     24405    TIP3     H1       HT       0.417000       1.00800           0
     83131 TIP3     24405    TIP3     H2       HT       0.417000       1.00800           0
     83132 TIP3     24406    TIP3     OH2      OT      -0.834000       15.9994           0
     83133 TIP3     24406    TIP3     H1       HT       0.417000       1.00800           0
     83134 TIP3     24406    TIP3     H2       HT       0.417000       1.00800           0
     83135 TIP3     24407    TIP3     OH2      OT      -0.834000       15.9994           0
     83136 TIP3     24407    TIP3     H1       HT       0.417000       1.00800           0
     83137 TIP3     24407    TIP3     H2       HT       0.417000       1.00800           0
     83138 TIP3     24408    TIP3     OH2      OT      -0.834000       15.9994           0
     83139 TIP3     24408    TIP3     H1       HT       0.417000       1.00800           0
     83140 TIP3     24408    TIP3     H2       HT       0.417000       1.00800           0
     83141 TIP3     24409    TIP3     OH2      OT      -0.834000       15.9994           0
     83142 TIP3     24409    TIP3     H1       HT       0.417000       1.00800           0
     83143 TIP3     24409    TIP3     H2       HT       0.417000       1.00800           0
     83144 TIP3     24410    TIP3     OH2      OT      -0.834000       15.9994           0
     83145 TIP3     24410    TIP3     H1       HT       0.417000       1.00800           0
     83146 TIP3     24410    TIP3     H2       HT       0.417000       1.00800           0
     83147 TIP3     24411    TIP3     OH2      OT      -0.834000       15.9994           0
     83148 TIP3     24411    TIP3     H1       HT       0.417000       1.00800           0
     83149 TIP3     24411    TIP3     H2       HT       0.417000       1.00800           0
     83150 TIP3     24412    TIP3     OH2      OT      -0.834000       15.9994           0
     83151 TIP3     24412    TIP3     H1       HT       0.417000       1.00800           0
     83152 TIP3     24412    TIP3     H2       HT       0.417000       1.00800           0
     83153 TIP3     24413    TIP3     OH2      OT      -0.834000       15.9994           0
     83154 TIP3     24413    TIP3     H1       HT       0.417000       1.00800           0
     83155 TIP3     24413    TIP3     H2       HT       0.417000       1.00800           0
     83156 TIP3     24414    TIP3     OH2      OT      -0.834000       15.9994           0
     83157 TIP3     24414    TIP3     H1       HT       0.417000       1.00800           0
     83158 TIP3     24414    TIP3     H2       HT       0.417000       1.00800           0
     83159 TIP3     24415    TIP3     OH2      OT      -0.834000       15.9994           0
     83160 TIP3     24415    TIP3     H1       HT       0.417000       1.00800           0
     83161 TIP3     24415    TIP3     H2       HT       0.417000       1.00800           0
     83162 TIP3     24416    TIP3     OH2      OT      -0.834000       15.9994           0
     83163 TIP3     24416    TIP3     H1       HT       0.417000       1.00800           0
     83164 TIP3     24416    TIP3     H2       HT       0.417000       1.00800           0
     83165 TIP3     24417    TIP3     OH2      OT      -0.834000       15.9994           0
     83166 TIP3     24417    TIP3     H1       HT       0.417000       1.00800           0
     83167 TIP3     24417    TIP3     H2       HT       0.417000       1.00800           0
     83168 TIP3     24418    TIP3     OH2      OT      -0.834000       15.9994           0
     83169 TIP3     24418    TIP3     H1       HT       0.417000       1.00800           0
     83170 TIP3     24418    TIP3     H2       HT       0.417000       1.00800           0
     83171 TIP3     24419    TIP3     OH2      OT      -0.834000       15.9994           0
     83172 TIP3     24419    TIP3     H1       HT       0.417000       1.00800           0
     83173 TIP3     24419    TIP3     H2       HT       0.417000       1.00800           0
     83174 TIP3     24420    TIP3     OH2      OT      -0.834000       15.9994           0
     83175 TIP3     24420    TIP3     H1       HT       0.417000       1.00800           0
     83176 TIP3     24420    TIP3     H2       HT       0.417000       1.00800           0
     83177 TIP3     24421    TIP3     OH2      OT      -0.834000       15.9994           0
     83178 TIP3     24421    TIP3     H1       HT       0.417000       1.00800           0
     83179 TIP3     24421    TIP3     H2       HT       0.417000       1.00800           0
     83180 TIP3     24422    TIP3     OH2      OT      -0.834000       15.9994           0
     83181 TIP3     24422    TIP3     H1       HT       0.417000       1.00800           0
     83182 TIP3     24422    TIP3     H2       HT       0.417000       1.00800           0
     83183 TIP3     24423    TIP3     OH2      OT      -0.834000       15.9994           0
     83184 TIP3     24423    TIP3     H1       HT       0.417000       1.00800           0
     83185 TIP3     24423    TIP3     H2       HT       0.417000       1.00800           0
     83186 TIP3     24424    TIP3     OH2      OT      -0.834000       15.9994           0
     83187 TIP3     24424    TIP3     H1       HT       0.417000       1.00800           0
     83188 TIP3     24424    TIP3     H2       HT       0.417000       1.00800           0
     83189 TIP3     24425    TIP3     OH2      OT      -0.834000       15.9994           0
     83190 TIP3     24425    TIP3     H1       HT       0.417000       1.00800           0
     83191 TIP3     24425    TIP3     H2       HT       0.417000       1.00800           0
     83192 TIP3     24426    TIP3     OH2      OT      -0.834000       15.9994           0
     83193 TIP3     24426    TIP3     H1       HT       0.417000       1.00800           0
     83194 TIP3     24426    TIP3     H2       HT       0.417000       1.00800           0
     83195 TIP3     24427    TIP3     OH2      OT      -0.834000       15.9994           0
     83196 TIP3     24427    TIP3     H1       HT       0.417000       1.00800           0
     83197 TIP3     24427    TIP3     H2       HT       0.417000       1.00800           0
     83198 TIP3     24428    TIP3     OH2      OT      -0.834000       15.9994           0
     83199 TIP3     24428    TIP3     H1       HT       0.417000       1.00800           0
     83200 TIP3     24428    TIP3     H2       HT       0.417000       1.00800           0
     83201 TIP3     24429    TIP3     OH2      OT      -0.834000       15.9994           0
     83202 TIP3     24429    TIP3     H1       HT       0.417000       1.00800           0
     83203 TIP3     24429    TIP3     H2       HT       0.417000       1.00800           0
     83204 TIP3     24430    TIP3     OH2      OT      -0.834000       15.9994           0
     83205 TIP3     24430    TIP3     H1       HT       0.417000       1.00800           0
     83206 TIP3     24430    TIP3     H2       HT       0.417000       1.00800           0
     83207 TIP3     24431    TIP3     OH2      OT      -0.834000       15.9994           0
     83208 TIP3     24431    TIP3     H1       HT       0.417000       1.00800           0
     83209 TIP3     24431    TIP3     H2       HT       0.417000       1.00800           0
     83210 TIP3     24432    TIP3     OH2      OT      -0.834000       15.9994           0
     83211 TIP3     24432    TIP3     H1       HT       0.417000       1.00800           0
     83212 TIP3     24432    TIP3     H2       HT       0.417000       1.00800           0
     83213 TIP3     24433    TIP3     OH2      OT      -0.834000       15.9994           0
     83214 TIP3     24433    TIP3     H1       HT       0.417000       1.00800           0
     83215 TIP3     24433    TIP3     H2       HT       0.417000       1.00800           0
     83216 TIP3     24434    TIP3     OH2      OT      -0.834000       15.9994           0
     83217 TIP3     24434    TIP3     H1       HT       0.417000       1.00800           0
     83218 TIP3     24434    TIP3     H2       HT       0.417000       1.00800           0
     83219 TIP3     24435    TIP3     OH2      OT      -0.834000       15.9994           0
     83220 TIP3     24435    TIP3     H1       HT       0.417000       1.00800           0
     83221 TIP3     24435    TIP3     H2       HT       0.417000       1.00800           0
     83222 TIP3     24436    TIP3     OH2      OT      -0.834000       15.9994           0
     83223 TIP3     24436    TIP3     H1       HT       0.417000       1.00800           0
     83224 TIP3     24436    TIP3     H2       HT       0.417000       1.00800           0
     83225 TIP3     24437    TIP3     OH2      OT      -0.834000       15.9994           0
     83226 TIP3     24437    TIP3     H1       HT       0.417000       1.00800           0
     83227 TIP3     24437    TIP3     H2       HT       0.417000       1.00800           0
     83228 TIP3     24438    TIP3     OH2      OT      -0.834000       15.9994           0
     83229 TIP3     24438    TIP3     H1       HT       0.417000       1.00800           0
     83230 TIP3     24438    TIP3     H2       HT       0.417000       1.00800           0
     83231 TIP3     24439    TIP3     OH2      OT      -0.834000       15.9994           0
     83232 TIP3     24439    TIP3     H1       HT       0.417000       1.00800           0
     83233 TIP3     24439    TIP3     H2       HT       0.417000       1.00800           0
     83234 TIP3     24440    TIP3     OH2      OT      -0.834000       15.9994           0
     83235 TIP3     24440    TIP3     H1       HT       0.417000       1.00800           0
     83236 TIP3     24440    TIP3     H2       HT       0.417000       1.00800           0
     83237 TIP3     24441    TIP3     OH2      OT      -0.834000       15.9994           0
     83238 TIP3     24441    TIP3     H1       HT       0.417000       1.00800           0
     83239 TIP3     24441    TIP3     H2       HT       0.417000       1.00800           0
     83240 TIP3     24442    TIP3     OH2      OT      -0.834000       15.9994           0
     83241 TIP3     24442    TIP3     H1       HT       0.417000       1.00800           0
     83242 TIP3     24442    TIP3     H2       HT       0.417000       1.00800           0
     83243 TIP3     24443    TIP3     OH2      OT      -0.834000       15.9994           0
     83244 TIP3     24443    TIP3     H1       HT       0.417000       1.00800           0
     83245 TIP3     24443    TIP3     H2       HT       0.417000       1.00800           0
     83246 TIP3     24444    TIP3     OH2      OT      -0.834000       15.9994           0
     83247 TIP3     24444    TIP3     H1       HT       0.417000       1.00800           0
     83248 TIP3     24444    TIP3     H2       HT       0.417000       1.00800           0
     83249 TIP3     24445    TIP3     OH2      OT      -0.834000       15.9994           0
     83250 TIP3     24445    TIP3     H1       HT       0.417000       1.00800           0
     83251 TIP3     24445    TIP3     H2       HT       0.417000       1.00800           0
     83252 TIP3     24446    TIP3     OH2      OT      -0.834000       15.9994           0
     83253 TIP3     24446    TIP3     H1       HT       0.417000       1.00800           0
     83254 TIP3     24446    TIP3     H2       HT       0.417000       1.00800           0
     83255 TIP3     24447    TIP3     OH2      OT      -0.834000       15.9994           0
     83256 TIP3     24447    TIP3     H1       HT       0.417000       1.00800           0
     83257 TIP3     24447    TIP3     H2       HT       0.417000       1.00800           0
     83258 TIP3     24448    TIP3     OH2      OT      -0.834000       15.9994           0
     83259 TIP3     24448    TIP3     H1       HT       0.417000       1.00800           0
     83260 TIP3     24448    TIP3     H2       HT       0.417000       1.00800           0
     83261 TIP3     24449    TIP3     OH2      OT      -0.834000       15.9994           0
     83262 TIP3     24449    TIP3     H1       HT       0.417000       1.00800           0
     83263 TIP3     24449    TIP3     H2       HT       0.417000       1.00800           0
     83264 TIP3     24450    TIP3     OH2      OT      -0.834000       15.9994           0
     83265 TIP3     24450    TIP3     H1       HT       0.417000       1.00800           0
     83266 TIP3     24450    TIP3     H2       HT       0.417000       1.00800           0
     83267 TIP3     24451    TIP3     OH2      OT      -0.834000       15.9994           0
     83268 TIP3     24451    TIP3     H1       HT       0.417000       1.00800           0
     83269 TIP3     24451    TIP3     H2       HT       0.417000       1.00800           0
     83270 TIP3     24452    TIP3     OH2      OT      -0.834000       15.9994           0
     83271 TIP3     24452    TIP3     H1       HT       0.417000       1.00800           0
     83272 TIP3     24452    TIP3     H2       HT       0.417000       1.00800           0
     83273 TIP3     24453    TIP3     OH2      OT      -0.834000       15.9994           0
     83274 TIP3     24453    TIP3     H1       HT       0.417000       1.00800           0
     83275 TIP3     24453    TIP3     H2       HT       0.417000       1.00800           0
     83276 TIP3     24454    TIP3     OH2      OT      -0.834000       15.9994           0
     83277 TIP3     24454    TIP3     H1       HT       0.417000       1.00800           0
     83278 TIP3     24454    TIP3     H2       HT       0.417000       1.00800           0
     83279 TIP3     24455    TIP3     OH2      OT      -0.834000       15.9994           0
     83280 TIP3     24455    TIP3     H1       HT       0.417000       1.00800           0
     83281 TIP3     24455    TIP3     H2       HT       0.417000       1.00800           0
     83282 TIP3     24456    TIP3     OH2      OT      -0.834000       15.9994           0
     83283 TIP3     24456    TIP3     H1       HT       0.417000       1.00800           0
     83284 TIP3     24456    TIP3     H2       HT       0.417000       1.00800           0
     83285 TIP3     24457    TIP3     OH2      OT      -0.834000       15.9994           0
     83286 TIP3     24457    TIP3     H1       HT       0.417000       1.00800           0
     83287 TIP3     24457    TIP3     H2       HT       0.417000       1.00800           0
     83288 TIP3     24458    TIP3     OH2      OT      -0.834000       15.9994           0
     83289 TIP3     24458    TIP3     H1       HT       0.417000       1.00800           0
     83290 TIP3     24458    TIP3     H2       HT       0.417000       1.00800           0
     83291 TIP3     24459    TIP3     OH2      OT      -0.834000       15.9994           0
     83292 TIP3     24459    TIP3     H1       HT       0.417000       1.00800           0
     83293 TIP3     24459    TIP3     H2       HT       0.417000       1.00800           0
     83294 TIP3     24460    TIP3     OH2      OT      -0.834000       15.9994           0
     83295 TIP3     24460    TIP3     H1       HT       0.417000       1.00800           0
     83296 TIP3     24460    TIP3     H2       HT       0.417000       1.00800           0
     83297 TIP3     24461    TIP3     OH2      OT      -0.834000       15.9994           0
     83298 TIP3     24461    TIP3     H1       HT       0.417000       1.00800           0
     83299 TIP3     24461    TIP3     H2       HT       0.417000       1.00800           0
     83300 TIP3     24462    TIP3     OH2      OT      -0.834000       15.9994           0
     83301 TIP3     24462    TIP3     H1       HT       0.417000       1.00800           0
     83302 TIP3     24462    TIP3     H2       HT       0.417000       1.00800           0
     83303 TIP3     24463    TIP3     OH2      OT      -0.834000       15.9994           0
     83304 TIP3     24463    TIP3     H1       HT       0.417000       1.00800           0
     83305 TIP3     24463    TIP3     H2       HT       0.417000       1.00800           0
     83306 TIP3     24464    TIP3     OH2      OT      -0.834000       15.9994           0
     83307 TIP3     24464    TIP3     H1       HT       0.417000       1.00800           0
     83308 TIP3     24464    TIP3     H2       HT       0.417000       1.00800           0
     83309 TIP3     24465    TIP3     OH2      OT      -0.834000       15.9994           0
     83310 TIP3     24465    TIP3     H1       HT       0.417000       1.00800           0
     83311 TIP3     24465    TIP3     H2       HT       0.417000       1.00800           0
     83312 TIP3     24466    TIP3     OH2      OT      -0.834000       15.9994           0
     83313 TIP3     24466    TIP3     H1       HT       0.417000       1.00800           0
     83314 TIP3     24466    TIP3     H2       HT       0.417000       1.00800           0
     83315 TIP3     24467    TIP3     OH2      OT      -0.834000       15.9994           0
     83316 TIP3     24467    TIP3     H1       HT       0.417000       1.00800           0
     83317 TIP3     24467    TIP3     H2       HT       0.417000       1.00800           0
     83318 TIP3     24468    TIP3     OH2      OT      -0.834000       15.9994           0
     83319 TIP3     24468    TIP3     H1       HT       0.417000       1.00800           0
     83320 TIP3     24468    TIP3     H2       HT       0.417000       1.00800           0
     83321 TIP3     24469    TIP3     OH2      OT      -0.834000       15.9994           0
     83322 TIP3     24469    TIP3     H1       HT       0.417000       1.00800           0
     83323 TIP3     24469    TIP3     H2       HT       0.417000       1.00800           0
     83324 TIP3     24470    TIP3     OH2      OT      -0.834000       15.9994           0
     83325 TIP3     24470    TIP3     H1       HT       0.417000       1.00800           0
     83326 TIP3     24470    TIP3     H2       HT       0.417000       1.00800           0
     83327 TIP3     24471    TIP3     OH2      OT      -0.834000       15.9994           0
     83328 TIP3     24471    TIP3     H1       HT       0.417000       1.00800           0
     83329 TIP3     24471    TIP3     H2       HT       0.417000       1.00800           0
     83330 TIP3     24472    TIP3     OH2      OT      -0.834000       15.9994           0
     83331 TIP3     24472    TIP3     H1       HT       0.417000       1.00800           0
     83332 TIP3     24472    TIP3     H2       HT       0.417000       1.00800           0
     83333 TIP3     24473    TIP3     OH2      OT      -0.834000       15.9994           0
     83334 TIP3     24473    TIP3     H1       HT       0.417000       1.00800           0
     83335 TIP3     24473    TIP3     H2       HT       0.417000       1.00800           0
     83336 TIP3     24474    TIP3     OH2      OT      -0.834000       15.9994           0
     83337 TIP3     24474    TIP3     H1       HT       0.417000       1.00800           0
     83338 TIP3     24474    TIP3     H2       HT       0.417000       1.00800           0
     83339 TIP3     24475    TIP3     OH2      OT      -0.834000       15.9994           0
     83340 TIP3     24475    TIP3     H1       HT       0.417000       1.00800           0
     83341 TIP3     24475    TIP3     H2       HT       0.417000       1.00800           0
     83342 TIP3     24476    TIP3     OH2      OT      -0.834000       15.9994           0
     83343 TIP3     24476    TIP3     H1       HT       0.417000       1.00800           0
     83344 TIP3     24476    TIP3     H2       HT       0.417000       1.00800           0
     83345 TIP3     24477    TIP3     OH2      OT      -0.834000       15.9994           0
     83346 TIP3     24477    TIP3     H1       HT       0.417000       1.00800           0
     83347 TIP3     24477    TIP3     H2       HT       0.417000       1.00800           0
     83348 TIP3     24478    TIP3     OH2      OT      -0.834000       15.9994           0
     83349 TIP3     24478    TIP3     H1       HT       0.417000       1.00800           0
     83350 TIP3     24478    TIP3     H2       HT       0.417000       1.00800           0
     83351 TIP3     24479    TIP3     OH2      OT      -0.834000       15.9994           0
     83352 TIP3     24479    TIP3     H1       HT       0.417000       1.00800           0
     83353 TIP3     24479    TIP3     H2       HT       0.417000       1.00800           0
     83354 TIP3     24480    TIP3     OH2      OT      -0.834000       15.9994           0
     83355 TIP3     24480    TIP3     H1       HT       0.417000       1.00800           0
     83356 TIP3     24480    TIP3     H2       HT       0.417000       1.00800           0
     83357 TIP3     24481    TIP3     OH2      OT      -0.834000       15.9994           0
     83358 TIP3     24481    TIP3     H1       HT       0.417000       1.00800           0
     83359 TIP3     24481    TIP3     H2       HT       0.417000       1.00800           0
     83360 TIP3     24482    TIP3     OH2      OT      -0.834000       15.9994           0
     83361 TIP3     24482    TIP3     H1       HT       0.417000       1.00800           0
     83362 TIP3     24482    TIP3     H2       HT       0.417000       1.00800           0
     83363 TIP3     24483    TIP3     OH2      OT      -0.834000       15.9994           0
     83364 TIP3     24483    TIP3     H1       HT       0.417000       1.00800           0
     83365 TIP3     24483    TIP3     H2       HT       0.417000       1.00800           0
     83366 TIP3     24484    TIP3     OH2      OT      -0.834000       15.9994           0
     83367 TIP3     24484    TIP3     H1       HT       0.417000       1.00800           0
     83368 TIP3     24484    TIP3     H2       HT       0.417000       1.00800           0
     83369 TIP3     24485    TIP3     OH2      OT      -0.834000       15.9994           0
     83370 TIP3     24485    TIP3     H1       HT       0.417000       1.00800           0
     83371 TIP3     24485    TIP3     H2       HT       0.417000       1.00800           0
     83372 TIP3     24486    TIP3     OH2      OT      -0.834000       15.9994           0
     83373 TIP3     24486    TIP3     H1       HT       0.417000       1.00800           0
     83374 TIP3     24486    TIP3     H2       HT       0.417000       1.00800           0
     83375 TIP3     24487    TIP3     OH2      OT      -0.834000       15.9994           0
     83376 TIP3     24487    TIP3     H1       HT       0.417000       1.00800           0
     83377 TIP3     24487    TIP3     H2       HT       0.417000       1.00800           0
     83378 TIP3     24488    TIP3     OH2      OT      -0.834000       15.9994           0
     83379 TIP3     24488    TIP3     H1       HT       0.417000       1.00800           0
     83380 TIP3     24488    TIP3     H2       HT       0.417000       1.00800           0
     83381 TIP3     24489    TIP3     OH2      OT      -0.834000       15.9994           0
     83382 TIP3     24489    TIP3     H1       HT       0.417000       1.00800           0
     83383 TIP3     24489    TIP3     H2       HT       0.417000       1.00800           0
     83384 TIP3     24490    TIP3     OH2      OT      -0.834000       15.9994           0
     83385 TIP3     24490    TIP3     H1       HT       0.417000       1.00800           0
     83386 TIP3     24490    TIP3     H2       HT       0.417000       1.00800           0
     83387 TIP3     24491    TIP3     OH2      OT      -0.834000       15.9994           0
     83388 TIP3     24491    TIP3     H1       HT       0.417000       1.00800           0
     83389 TIP3     24491    TIP3     H2       HT       0.417000       1.00800           0
     83390 TIP3     24492    TIP3     OH2      OT      -0.834000       15.9994           0
     83391 TIP3     24492    TIP3     H1       HT       0.417000       1.00800           0
     83392 TIP3     24492    TIP3     H2       HT       0.417000       1.00800           0
     83393 TIP3     24493    TIP3     OH2      OT      -0.834000       15.9994           0
     83394 TIP3     24493    TIP3     H1       HT       0.417000       1.00800           0
     83395 TIP3     24493    TIP3     H2       HT       0.417000       1.00800           0
     83396 TIP3     24494    TIP3     OH2      OT      -0.834000       15.9994           0
     83397 TIP3     24494    TIP3     H1       HT       0.417000       1.00800           0
     83398 TIP3     24494    TIP3     H2       HT       0.417000       1.00800           0
     83399 TIP3     24495    TIP3     OH2      OT      -0.834000       15.9994           0
     83400 TIP3     24495    TIP3     H1       HT       0.417000       1.00800           0
     83401 TIP3     24495    TIP3     H2       HT       0.417000       1.00800           0
     83402 TIP3     24496    TIP3     OH2      OT      -0.834000       15.9994           0
     83403 TIP3     24496    TIP3     H1       HT       0.417000       1.00800           0
     83404 TIP3     24496    TIP3     H2       HT       0.417000       1.00800           0
     83405 TIP3     24497    TIP3     OH2      OT      -0.834000       15.9994           0
     83406 TIP3     24497    TIP3     H1       HT       0.417000       1.00800           0
     83407 TIP3     24497    TIP3     H2       HT       0.417000       1.00800           0
     83408 TIP3     24498    TIP3     OH2      OT      -0.834000       15.9994           0
     83409 TIP3     24498    TIP3     H1       HT       0.417000       1.00800           0
     83410 TIP3     24498    TIP3     H2       HT       0.417000       1.00800           0
     83411 TIP3     24499    TIP3     OH2      OT      -0.834000       15.9994           0
     83412 TIP3     24499    TIP3     H1       HT       0.417000       1.00800           0
     83413 TIP3     24499    TIP3     H2       HT       0.417000       1.00800           0
     83414 TIP3     24500    TIP3     OH2      OT      -0.834000       15.9994           0
     83415 TIP3     24500    TIP3     H1       HT       0.417000       1.00800           0
     83416 TIP3     24500    TIP3     H2       HT       0.417000       1.00800           0
     83417 TIP3     24501    TIP3     OH2      OT      -0.834000       15.9994           0
     83418 TIP3     24501    TIP3     H1       HT       0.417000       1.00800           0
     83419 TIP3     24501    TIP3     H2       HT       0.417000       1.00800           0
     83420 TIP3     24502    TIP3     OH2      OT      -0.834000       15.9994           0
     83421 TIP3     24502    TIP3     H1       HT       0.417000       1.00800           0
     83422 TIP3     24502    TIP3     H2       HT       0.417000       1.00800           0
     83423 TIP3     24503    TIP3     OH2      OT      -0.834000       15.9994           0
     83424 TIP3     24503    TIP3     H1       HT       0.417000       1.00800           0
     83425 TIP3     24503    TIP3     H2       HT       0.417000       1.00800           0
     83426 TIP3     24504    TIP3     OH2      OT      -0.834000       15.9994           0
     83427 TIP3     24504    TIP3     H1       HT       0.417000       1.00800           0
     83428 TIP3     24504    TIP3     H2       HT       0.417000       1.00800           0
     83429 TIP3     24505    TIP3     OH2      OT      -0.834000       15.9994           0
     83430 TIP3     24505    TIP3     H1       HT       0.417000       1.00800           0
     83431 TIP3     24505    TIP3     H2       HT       0.417000       1.00800           0
     83432 TIP3     24506    TIP3     OH2      OT      -0.834000       15.9994           0
     83433 TIP3     24506    TIP3     H1       HT       0.417000       1.00800           0
     83434 TIP3     24506    TIP3     H2       HT       0.417000       1.00800           0
     83435 TIP3     24507    TIP3     OH2      OT      -0.834000       15.9994           0
     83436 TIP3     24507    TIP3     H1       HT       0.417000       1.00800           0
     83437 TIP3     24507    TIP3     H2       HT       0.417000       1.00800           0
     83438 TIP3     24508    TIP3     OH2      OT      -0.834000       15.9994           0
     83439 TIP3     24508    TIP3     H1       HT       0.417000       1.00800           0
     83440 TIP3     24508    TIP3     H2       HT       0.417000       1.00800           0
     83441 TIP3     24509    TIP3     OH2      OT      -0.834000       15.9994           0
     83442 TIP3     24509    TIP3     H1       HT       0.417000       1.00800           0
     83443 TIP3     24509    TIP3     H2       HT       0.417000       1.00800           0
     83444 TIP3     24510    TIP3     OH2      OT      -0.834000       15.9994           0
     83445 TIP3     24510    TIP3     H1       HT       0.417000       1.00800           0
     83446 TIP3     24510    TIP3     H2       HT       0.417000       1.00800           0
     83447 TIP3     24511    TIP3     OH2      OT      -0.834000       15.9994           0
     83448 TIP3     24511    TIP3     H1       HT       0.417000       1.00800           0
     83449 TIP3     24511    TIP3     H2       HT       0.417000       1.00800           0
     83450 TIP3     24512    TIP3     OH2      OT      -0.834000       15.9994           0
     83451 TIP3     24512    TIP3     H1       HT       0.417000       1.00800           0
     83452 TIP3     24512    TIP3     H2       HT       0.417000       1.00800           0
     83453 TIP3     24513    TIP3     OH2      OT      -0.834000       15.9994           0
     83454 TIP3     24513    TIP3     H1       HT       0.417000       1.00800           0
     83455 TIP3     24513    TIP3     H2       HT       0.417000       1.00800           0
     83456 TIP3     24514    TIP3     OH2      OT      -0.834000       15.9994           0
     83457 TIP3     24514    TIP3     H1       HT       0.417000       1.00800           0
     83458 TIP3     24514    TIP3     H2       HT       0.417000       1.00800           0
     83459 TIP3     24515    TIP3     OH2      OT      -0.834000       15.9994           0
     83460 TIP3     24515    TIP3     H1       HT       0.417000       1.00800           0
     83461 TIP3     24515    TIP3     H2       HT       0.417000       1.00800           0
     83462 TIP3     24516    TIP3     OH2      OT      -0.834000       15.9994           0
     83463 TIP3     24516    TIP3     H1       HT       0.417000       1.00800           0
     83464 TIP3     24516    TIP3     H2       HT       0.417000       1.00800           0
     83465 TIP3     24517    TIP3     OH2      OT      -0.834000       15.9994           0
     83466 TIP3     24517    TIP3     H1       HT       0.417000       1.00800           0
     83467 TIP3     24517    TIP3     H2       HT       0.417000       1.00800           0
     83468 TIP3     24518    TIP3     OH2      OT      -0.834000       15.9994           0
     83469 TIP3     24518    TIP3     H1       HT       0.417000       1.00800           0
     83470 TIP3     24518    TIP3     H2       HT       0.417000       1.00800           0
     83471 TIP3     24519    TIP3     OH2      OT      -0.834000       15.9994           0
     83472 TIP3     24519    TIP3     H1       HT       0.417000       1.00800           0
     83473 TIP3     24519    TIP3     H2       HT       0.417000       1.00800           0
     83474 TIP3     24520    TIP3     OH2      OT      -0.834000       15.9994           0
     83475 TIP3     24520    TIP3     H1       HT       0.417000       1.00800           0
     83476 TIP3     24520    TIP3     H2       HT       0.417000       1.00800           0
     83477 TIP3     24521    TIP3     OH2      OT      -0.834000       15.9994           0
     83478 TIP3     24521    TIP3     H1       HT       0.417000       1.00800           0
     83479 TIP3     24521    TIP3     H2       HT       0.417000       1.00800           0
     83480 TIP3     24522    TIP3     OH2      OT      -0.834000       15.9994           0
     83481 TIP3     24522    TIP3     H1       HT       0.417000       1.00800           0
     83482 TIP3     24522    TIP3     H2       HT       0.417000       1.00800           0
     83483 TIP3     24523    TIP3     OH2      OT      -0.834000       15.9994           0
     83484 TIP3     24523    TIP3     H1       HT       0.417000       1.00800           0
     83485 TIP3     24523    TIP3     H2       HT       0.417000       1.00800           0
     83486 TIP3     24524    TIP3     OH2      OT      -0.834000       15.9994           0
     83487 TIP3     24524    TIP3     H1       HT       0.417000       1.00800           0
     83488 TIP3     24524    TIP3     H2       HT       0.417000       1.00800           0
     83489 TIP3     24525    TIP3     OH2      OT      -0.834000       15.9994           0
     83490 TIP3     24525    TIP3     H1       HT       0.417000       1.00800           0
     83491 TIP3     24525    TIP3     H2       HT       0.417000       1.00800           0
     83492 TIP3     24526    TIP3     OH2      OT      -0.834000       15.9994           0
     83493 TIP3     24526    TIP3     H1       HT       0.417000       1.00800           0
     83494 TIP3     24526    TIP3     H2       HT       0.417000       1.00800           0
     83495 TIP3     24527    TIP3     OH2      OT      -0.834000       15.9994           0
     83496 TIP3     24527    TIP3     H1       HT       0.417000       1.00800           0
     83497 TIP3     24527    TIP3     H2       HT       0.417000       1.00800           0
     83498 TIP3     24528    TIP3     OH2      OT      -0.834000       15.9994           0
     83499 TIP3     24528    TIP3     H1       HT       0.417000       1.00800           0
     83500 TIP3     24528    TIP3     H2       HT       0.417000       1.00800           0
     83501 TIP3     24529    TIP3     OH2      OT      -0.834000       15.9994           0
     83502 TIP3     24529    TIP3     H1       HT       0.417000       1.00800           0
     83503 TIP3     24529    TIP3     H2       HT       0.417000       1.00800           0
     83504 TIP3     24530    TIP3     OH2      OT      -0.834000       15.9994           0
     83505 TIP3     24530    TIP3     H1       HT       0.417000       1.00800           0
     83506 TIP3     24530    TIP3     H2       HT       0.417000       1.00800           0
     83507 TIP3     24531    TIP3     OH2      OT      -0.834000       15.9994           0
     83508 TIP3     24531    TIP3     H1       HT       0.417000       1.00800           0
     83509 TIP3     24531    TIP3     H2       HT       0.417000       1.00800           0
     83510 TIP3     24532    TIP3     OH2      OT      -0.834000       15.9994           0
     83511 TIP3     24532    TIP3     H1       HT       0.417000       1.00800           0
     83512 TIP3     24532    TIP3     H2       HT       0.417000       1.00800           0
     83513 TIP3     24533    TIP3     OH2      OT      -0.834000       15.9994           0
     83514 TIP3     24533    TIP3     H1       HT       0.417000       1.00800           0
     83515 TIP3     24533    TIP3     H2       HT       0.417000       1.00800           0
     83516 TIP3     24534    TIP3     OH2      OT      -0.834000       15.9994           0
     83517 TIP3     24534    TIP3     H1       HT       0.417000       1.00800           0
     83518 TIP3     24534    TIP3     H2       HT       0.417000       1.00800           0
     83519 TIP3     24535    TIP3     OH2      OT      -0.834000       15.9994           0
     83520 TIP3     24535    TIP3     H1       HT       0.417000       1.00800           0
     83521 TIP3     24535    TIP3     H2       HT       0.417000       1.00800           0
     83522 TIP3     24536    TIP3     OH2      OT      -0.834000       15.9994           0
     83523 TIP3     24536    TIP3     H1       HT       0.417000       1.00800           0
     83524 TIP3     24536    TIP3     H2       HT       0.417000       1.00800           0
     83525 TIP3     24537    TIP3     OH2      OT      -0.834000       15.9994           0
     83526 TIP3     24537    TIP3     H1       HT       0.417000       1.00800           0
     83527 TIP3     24537    TIP3     H2       HT       0.417000       1.00800           0
     83528 TIP3     24538    TIP3     OH2      OT      -0.834000       15.9994           0
     83529 TIP3     24538    TIP3     H1       HT       0.417000       1.00800           0
     83530 TIP3     24538    TIP3     H2       HT       0.417000       1.00800           0
     83531 TIP3     24539    TIP3     OH2      OT      -0.834000       15.9994           0
     83532 TIP3     24539    TIP3     H1       HT       0.417000       1.00800           0
     83533 TIP3     24539    TIP3     H2       HT       0.417000       1.00800           0
     83534 TIP3     24540    TIP3     OH2      OT      -0.834000       15.9994           0
     83535 TIP3     24540    TIP3     H1       HT       0.417000       1.00800           0
     83536 TIP3     24540    TIP3     H2       HT       0.417000       1.00800           0
     83537 TIP3     24541    TIP3     OH2      OT      -0.834000       15.9994           0
     83538 TIP3     24541    TIP3     H1       HT       0.417000       1.00800           0
     83539 TIP3     24541    TIP3     H2       HT       0.417000       1.00800           0
     83540 TIP3     24542    TIP3     OH2      OT      -0.834000       15.9994           0
     83541 TIP3     24542    TIP3     H1       HT       0.417000       1.00800           0
     83542 TIP3     24542    TIP3     H2       HT       0.417000       1.00800           0
     83543 TIP3     24543    TIP3     OH2      OT      -0.834000       15.9994           0
     83544 TIP3     24543    TIP3     H1       HT       0.417000       1.00800           0
     83545 TIP3     24543    TIP3     H2       HT       0.417000       1.00800           0
     83546 TIP3     24544    TIP3     OH2      OT      -0.834000       15.9994           0
     83547 TIP3     24544    TIP3     H1       HT       0.417000       1.00800           0
     83548 TIP3     24544    TIP3     H2       HT       0.417000       1.00800           0
     83549 TIP3     24545    TIP3     OH2      OT      -0.834000       15.9994           0
     83550 TIP3     24545    TIP3     H1       HT       0.417000       1.00800           0
     83551 TIP3     24545    TIP3     H2       HT       0.417000       1.00800           0
     83552 TIP3     24546    TIP3     OH2      OT      -0.834000       15.9994           0
     83553 TIP3     24546    TIP3     H1       HT       0.417000       1.00800           0
     83554 TIP3     24546    TIP3     H2       HT       0.417000       1.00800           0
     83555 TIP3     24547    TIP3     OH2      OT      -0.834000       15.9994           0
     83556 TIP3     24547    TIP3     H1       HT       0.417000       1.00800           0
     83557 TIP3     24547    TIP3     H2       HT       0.417000       1.00800           0
     83558 TIP3     24548    TIP3     OH2      OT      -0.834000       15.9994           0
     83559 TIP3     24548    TIP3     H1       HT       0.417000       1.00800           0
     83560 TIP3     24548    TIP3     H2       HT       0.417000       1.00800           0
     83561 TIP3     24549    TIP3     OH2      OT      -0.834000       15.9994           0
     83562 TIP3     24549    TIP3     H1       HT       0.417000       1.00800           0
     83563 TIP3     24549    TIP3     H2       HT       0.417000       1.00800           0
     83564 TIP3     24550    TIP3     OH2      OT      -0.834000       15.9994           0
     83565 TIP3     24550    TIP3     H1       HT       0.417000       1.00800           0
     83566 TIP3     24550    TIP3     H2       HT       0.417000       1.00800           0
     83567 TIP3     24551    TIP3     OH2      OT      -0.834000       15.9994           0
     83568 TIP3     24551    TIP3     H1       HT       0.417000       1.00800           0
     83569 TIP3     24551    TIP3     H2       HT       0.417000       1.00800           0
     83570 TIP3     24552    TIP3     OH2      OT      -0.834000       15.9994           0
     83571 TIP3     24552    TIP3     H1       HT       0.417000       1.00800           0
     83572 TIP3     24552    TIP3     H2       HT       0.417000       1.00800           0
     83573 TIP3     24553    TIP3     OH2      OT      -0.834000       15.9994           0
     83574 TIP3     24553    TIP3     H1       HT       0.417000       1.00800           0
     83575 TIP3     24553    TIP3     H2       HT       0.417000       1.00800           0
     83576 TIP3     24554    TIP3     OH2      OT      -0.834000       15.9994           0
     83577 TIP3     24554    TIP3     H1       HT       0.417000       1.00800           0
     83578 TIP3     24554    TIP3     H2       HT       0.417000       1.00800           0
     83579 TIP3     24555    TIP3     OH2      OT      -0.834000       15.9994           0
     83580 TIP3     24555    TIP3     H1       HT       0.417000       1.00800           0
     83581 TIP3     24555    TIP3     H2       HT       0.417000       1.00800           0
     83582 TIP3     24556    TIP3     OH2      OT      -0.834000       15.9994           0
     83583 TIP3     24556    TIP3     H1       HT       0.417000       1.00800           0
     83584 TIP3     24556    TIP3     H2       HT       0.417000       1.00800           0
     83585 TIP3     24557    TIP3     OH2      OT      -0.834000       15.9994           0
     83586 TIP3     24557    TIP3     H1       HT       0.417000       1.00800           0
     83587 TIP3     24557    TIP3     H2       HT       0.417000       1.00800           0
     83588 TIP3     24558    TIP3     OH2      OT      -0.834000       15.9994           0
     83589 TIP3     24558    TIP3     H1       HT       0.417000       1.00800           0
     83590 TIP3     24558    TIP3     H2       HT       0.417000       1.00800           0
     83591 TIP3     24559    TIP3     OH2      OT      -0.834000       15.9994           0
     83592 TIP3     24559    TIP3     H1       HT       0.417000       1.00800           0
     83593 TIP3     24559    TIP3     H2       HT       0.417000       1.00800           0
     83594 TIP3     24560    TIP3     OH2      OT      -0.834000       15.9994           0
     83595 TIP3     24560    TIP3     H1       HT       0.417000       1.00800           0
     83596 TIP3     24560    TIP3     H2       HT       0.417000       1.00800           0
     83597 TIP3     24561    TIP3     OH2      OT      -0.834000       15.9994           0
     83598 TIP3     24561    TIP3     H1       HT       0.417000       1.00800           0
     83599 TIP3     24561    TIP3     H2       HT       0.417000       1.00800           0
     83600 TIP3     24562    TIP3     OH2      OT      -0.834000       15.9994           0
     83601 TIP3     24562    TIP3     H1       HT       0.417000       1.00800           0
     83602 TIP3     24562    TIP3     H2       HT       0.417000       1.00800           0
     83603 TIP3     24563    TIP3     OH2      OT      -0.834000       15.9994           0
     83604 TIP3     24563    TIP3     H1       HT       0.417000       1.00800           0
     83605 TIP3     24563    TIP3     H2       HT       0.417000       1.00800           0
     83606 TIP3     24564    TIP3     OH2      OT      -0.834000       15.9994           0
     83607 TIP3     24564    TIP3     H1       HT       0.417000       1.00800           0
     83608 TIP3     24564    TIP3     H2       HT       0.417000       1.00800           0
     83609 TIP3     24565    TIP3     OH2      OT      -0.834000       15.9994           0
     83610 TIP3     24565    TIP3     H1       HT       0.417000       1.00800           0
     83611 TIP3     24565    TIP3     H2       HT       0.417000       1.00800           0
     83612 TIP3     24566    TIP3     OH2      OT      -0.834000       15.9994           0
     83613 TIP3     24566    TIP3     H1       HT       0.417000       1.00800           0
     83614 TIP3     24566    TIP3     H2       HT       0.417000       1.00800           0
     83615 TIP3     24567    TIP3     OH2      OT      -0.834000       15.9994           0
     83616 TIP3     24567    TIP3     H1       HT       0.417000       1.00800           0
     83617 TIP3     24567    TIP3     H2       HT       0.417000       1.00800           0
     83618 TIP3     24568    TIP3     OH2      OT      -0.834000       15.9994           0
     83619 TIP3     24568    TIP3     H1       HT       0.417000       1.00800           0
     83620 TIP3     24568    TIP3     H2       HT       0.417000       1.00800           0
     83621 TIP3     24569    TIP3     OH2      OT      -0.834000       15.9994           0
     83622 TIP3     24569    TIP3     H1       HT       0.417000       1.00800           0
     83623 TIP3     24569    TIP3     H2       HT       0.417000       1.00800           0
     83624 TIP3     24570    TIP3     OH2      OT      -0.834000       15.9994           0
     83625 TIP3     24570    TIP3     H1       HT       0.417000       1.00800           0
     83626 TIP3     24570    TIP3     H2       HT       0.417000       1.00800           0
     83627 TIP3     24571    TIP3     OH2      OT      -0.834000       15.9994           0
     83628 TIP3     24571    TIP3     H1       HT       0.417000       1.00800           0
     83629 TIP3     24571    TIP3     H2       HT       0.417000       1.00800           0
     83630 TIP3     24572    TIP3     OH2      OT      -0.834000       15.9994           0
     83631 TIP3     24572    TIP3     H1       HT       0.417000       1.00800           0
     83632 TIP3     24572    TIP3     H2       HT       0.417000       1.00800           0
     83633 TIP3     24573    TIP3     OH2      OT      -0.834000       15.9994           0
     83634 TIP3     24573    TIP3     H1       HT       0.417000       1.00800           0
     83635 TIP3     24573    TIP3     H2       HT       0.417000       1.00800           0
     83636 TIP3     24574    TIP3     OH2      OT      -0.834000       15.9994           0
     83637 TIP3     24574    TIP3     H1       HT       0.417000       1.00800           0
     83638 TIP3     24574    TIP3     H2       HT       0.417000       1.00800           0
     83639 TIP3     24575    TIP3     OH2      OT      -0.834000       15.9994           0
     83640 TIP3     24575    TIP3     H1       HT       0.417000       1.00800           0
     83641 TIP3     24575    TIP3     H2       HT       0.417000       1.00800           0
     83642 TIP3     24576    TIP3     OH2      OT      -0.834000       15.9994           0
     83643 TIP3     24576    TIP3     H1       HT       0.417000       1.00800           0
     83644 TIP3     24576    TIP3     H2       HT       0.417000       1.00800           0
     83645 TIP3     24577    TIP3     OH2      OT      -0.834000       15.9994           0
     83646 TIP3     24577    TIP3     H1       HT       0.417000       1.00800           0
     83647 TIP3     24577    TIP3     H2       HT       0.417000       1.00800           0
     83648 TIP3     24578    TIP3     OH2      OT      -0.834000       15.9994           0
     83649 TIP3     24578    TIP3     H1       HT       0.417000       1.00800           0
     83650 TIP3     24578    TIP3     H2       HT       0.417000       1.00800           0
     83651 TIP3     24579    TIP3     OH2      OT      -0.834000       15.9994           0
     83652 TIP3     24579    TIP3     H1       HT       0.417000       1.00800           0
     83653 TIP3     24579    TIP3     H2       HT       0.417000       1.00800           0
     83654 TIP3     24580    TIP3     OH2      OT      -0.834000       15.9994           0
     83655 TIP3     24580    TIP3     H1       HT       0.417000       1.00800           0
     83656 TIP3     24580    TIP3     H2       HT       0.417000       1.00800           0
     83657 TIP3     24581    TIP3     OH2      OT      -0.834000       15.9994           0
     83658 TIP3     24581    TIP3     H1       HT       0.417000       1.00800           0
     83659 TIP3     24581    TIP3     H2       HT       0.417000       1.00800           0
     83660 TIP3     24582    TIP3     OH2      OT      -0.834000       15.9994           0
     83661 TIP3     24582    TIP3     H1       HT       0.417000       1.00800           0
     83662 TIP3     24582    TIP3     H2       HT       0.417000       1.00800           0
     83663 TIP3     24583    TIP3     OH2      OT      -0.834000       15.9994           0
     83664 TIP3     24583    TIP3     H1       HT       0.417000       1.00800           0
     83665 TIP3     24583    TIP3     H2       HT       0.417000       1.00800           0
     83666 TIP3     24584    TIP3     OH2      OT      -0.834000       15.9994           0
     83667 TIP3     24584    TIP3     H1       HT       0.417000       1.00800           0
     83668 TIP3     24584    TIP3     H2       HT       0.417000       1.00800           0
     83669 TIP3     24585    TIP3     OH2      OT      -0.834000       15.9994           0
     83670 TIP3     24585    TIP3     H1       HT       0.417000       1.00800           0
     83671 TIP3     24585    TIP3     H2       HT       0.417000       1.00800           0
     83672 TIP3     24586    TIP3     OH2      OT      -0.834000       15.9994           0
     83673 TIP3     24586    TIP3     H1       HT       0.417000       1.00800           0
     83674 TIP3     24586    TIP3     H2       HT       0.417000       1.00800           0
     83675 TIP3     24587    TIP3     OH2      OT      -0.834000       15.9994           0
     83676 TIP3     24587    TIP3     H1       HT       0.417000       1.00800           0
     83677 TIP3     24587    TIP3     H2       HT       0.417000       1.00800           0
     83678 TIP3     24588    TIP3     OH2      OT      -0.834000       15.9994           0
     83679 TIP3     24588    TIP3     H1       HT       0.417000       1.00800           0
     83680 TIP3     24588    TIP3     H2       HT       0.417000       1.00800           0
     83681 TIP3     24589    TIP3     OH2      OT      -0.834000       15.9994           0
     83682 TIP3     24589    TIP3     H1       HT       0.417000       1.00800           0
     83683 TIP3     24589    TIP3     H2       HT       0.417000       1.00800           0
     83684 TIP3     24590    TIP3     OH2      OT      -0.834000       15.9994           0
     83685 TIP3     24590    TIP3     H1       HT       0.417000       1.00800           0
     83686 TIP3     24590    TIP3     H2       HT       0.417000       1.00800           0
     83687 TIP3     24591    TIP3     OH2      OT      -0.834000       15.9994           0
     83688 TIP3     24591    TIP3     H1       HT       0.417000       1.00800           0
     83689 TIP3     24591    TIP3     H2       HT       0.417000       1.00800           0
     83690 TIP3     24592    TIP3     OH2      OT      -0.834000       15.9994           0
     83691 TIP3     24592    TIP3     H1       HT       0.417000       1.00800           0
     83692 TIP3     24592    TIP3     H2       HT       0.417000       1.00800           0
     83693 TIP3     24593    TIP3     OH2      OT      -0.834000       15.9994           0
     83694 TIP3     24593    TIP3     H1       HT       0.417000       1.00800           0
     83695 TIP3     24593    TIP3     H2       HT       0.417000       1.00800           0
     83696 TIP3     24594    TIP3     OH2      OT      -0.834000       15.9994           0
     83697 TIP3     24594    TIP3     H1       HT       0.417000       1.00800           0
     83698 TIP3     24594    TIP3     H2       HT       0.417000       1.00800           0
     83699 TIP3     24595    TIP3     OH2      OT      -0.834000       15.9994           0
     83700 TIP3     24595    TIP3     H1       HT       0.417000       1.00800           0
     83701 TIP3     24595    TIP3     H2       HT       0.417000       1.00800           0
     83702 TIP3     24596    TIP3     OH2      OT      -0.834000       15.9994           0
     83703 TIP3     24596    TIP3     H1       HT       0.417000       1.00800           0
     83704 TIP3     24596    TIP3     H2       HT       0.417000       1.00800           0
     83705 TIP3     24597    TIP3     OH2      OT      -0.834000       15.9994           0
     83706 TIP3     24597    TIP3     H1       HT       0.417000       1.00800           0
     83707 TIP3     24597    TIP3     H2       HT       0.417000       1.00800           0
     83708 TIP3     24598    TIP3     OH2      OT      -0.834000       15.9994           0
     83709 TIP3     24598    TIP3     H1       HT       0.417000       1.00800           0
     83710 TIP3     24598    TIP3     H2       HT       0.417000       1.00800           0
     83711 TIP3     24599    TIP3     OH2      OT      -0.834000       15.9994           0
     83712 TIP3     24599    TIP3     H1       HT       0.417000       1.00800           0
     83713 TIP3     24599    TIP3     H2       HT       0.417000       1.00800           0
     83714 TIP3     24600    TIP3     OH2      OT      -0.834000       15.9994           0
     83715 TIP3     24600    TIP3     H1       HT       0.417000       1.00800           0
     83716 TIP3     24600    TIP3     H2       HT       0.417000       1.00800           0
     83717 TIP3     24601    TIP3     OH2      OT      -0.834000       15.9994           0
     83718 TIP3     24601    TIP3     H1       HT       0.417000       1.00800           0
     83719 TIP3     24601    TIP3     H2       HT       0.417000       1.00800           0
     83720 TIP3     24602    TIP3     OH2      OT      -0.834000       15.9994           0
     83721 TIP3     24602    TIP3     H1       HT       0.417000       1.00800           0
     83722 TIP3     24602    TIP3     H2       HT       0.417000       1.00800           0
     83723 TIP3     24603    TIP3     OH2      OT      -0.834000       15.9994           0
     83724 TIP3     24603    TIP3     H1       HT       0.417000       1.00800           0
     83725 TIP3     24603    TIP3     H2       HT       0.417000       1.00800           0
     83726 TIP3     24604    TIP3     OH2      OT      -0.834000       15.9994           0
     83727 TIP3     24604    TIP3     H1       HT       0.417000       1.00800           0
     83728 TIP3     24604    TIP3     H2       HT       0.417000       1.00800           0
     83729 TIP3     24605    TIP3     OH2      OT      -0.834000       15.9994           0
     83730 TIP3     24605    TIP3     H1       HT       0.417000       1.00800           0
     83731 TIP3     24605    TIP3     H2       HT       0.417000       1.00800           0
     83732 TIP3     24606    TIP3     OH2      OT      -0.834000       15.9994           0
     83733 TIP3     24606    TIP3     H1       HT       0.417000       1.00800           0
     83734 TIP3     24606    TIP3     H2       HT       0.417000       1.00800           0
     83735 TIP3     24607    TIP3     OH2      OT      -0.834000       15.9994           0
     83736 TIP3     24607    TIP3     H1       HT       0.417000       1.00800           0
     83737 TIP3     24607    TIP3     H2       HT       0.417000       1.00800           0
     83738 TIP3     24608    TIP3     OH2      OT      -0.834000       15.9994           0
     83739 TIP3     24608    TIP3     H1       HT       0.417000       1.00800           0
     83740 TIP3     24608    TIP3     H2       HT       0.417000       1.00800           0
     83741 TIP3     24609    TIP3     OH2      OT      -0.834000       15.9994           0
     83742 TIP3     24609    TIP3     H1       HT       0.417000       1.00800           0
     83743 TIP3     24609    TIP3     H2       HT       0.417000       1.00800           0
     83744 TIP3     24610    TIP3     OH2      OT      -0.834000       15.9994           0
     83745 TIP3     24610    TIP3     H1       HT       0.417000       1.00800           0
     83746 TIP3     24610    TIP3     H2       HT       0.417000       1.00800           0
     83747 TIP3     24611    TIP3     OH2      OT      -0.834000       15.9994           0
     83748 TIP3     24611    TIP3     H1       HT       0.417000       1.00800           0
     83749 TIP3     24611    TIP3     H2       HT       0.417000       1.00800           0
     83750 TIP3     24612    TIP3     OH2      OT      -0.834000       15.9994           0
     83751 TIP3     24612    TIP3     H1       HT       0.417000       1.00800           0
     83752 TIP3     24612    TIP3     H2       HT       0.417000       1.00800           0
     83753 TIP3     24613    TIP3     OH2      OT      -0.834000       15.9994           0
     83754 TIP3     24613    TIP3     H1       HT       0.417000       1.00800           0
     83755 TIP3     24613    TIP3     H2       HT       0.417000       1.00800           0
     83756 TIP3     24614    TIP3     OH2      OT      -0.834000       15.9994           0
     83757 TIP3     24614    TIP3     H1       HT       0.417000       1.00800           0
     83758 TIP3     24614    TIP3     H2       HT       0.417000       1.00800           0
     83759 TIP3     24615    TIP3     OH2      OT      -0.834000       15.9994           0
     83760 TIP3     24615    TIP3     H1       HT       0.417000       1.00800           0
     83761 TIP3     24615    TIP3     H2       HT       0.417000       1.00800           0
     83762 TIP3     24616    TIP3     OH2      OT      -0.834000       15.9994           0
     83763 TIP3     24616    TIP3     H1       HT       0.417000       1.00800           0
     83764 TIP3     24616    TIP3     H2       HT       0.417000       1.00800           0
     83765 TIP3     24617    TIP3     OH2      OT      -0.834000       15.9994           0
     83766 TIP3     24617    TIP3     H1       HT       0.417000       1.00800           0
     83767 TIP3     24617    TIP3     H2       HT       0.417000       1.00800           0
     83768 TIP3     24618    TIP3     OH2      OT      -0.834000       15.9994           0
     83769 TIP3     24618    TIP3     H1       HT       0.417000       1.00800           0
     83770 TIP3     24618    TIP3     H2       HT       0.417000       1.00800           0
     83771 TIP3     24619    TIP3     OH2      OT      -0.834000       15.9994           0
     83772 TIP3     24619    TIP3     H1       HT       0.417000       1.00800           0
     83773 TIP3     24619    TIP3     H2       HT       0.417000       1.00800           0
     83774 TIP3     24620    TIP3     OH2      OT      -0.834000       15.9994           0
     83775 TIP3     24620    TIP3     H1       HT       0.417000       1.00800           0
     83776 TIP3     24620    TIP3     H2       HT       0.417000       1.00800           0
     83777 TIP3     24621    TIP3     OH2      OT      -0.834000       15.9994           0
     83778 TIP3     24621    TIP3     H1       HT       0.417000       1.00800           0
     83779 TIP3     24621    TIP3     H2       HT       0.417000       1.00800           0
     83780 TIP3     24622    TIP3     OH2      OT      -0.834000       15.9994           0
     83781 TIP3     24622    TIP3     H1       HT       0.417000       1.00800           0
     83782 TIP3     24622    TIP3     H2       HT       0.417000       1.00800           0
     83783 TIP3     24623    TIP3     OH2      OT      -0.834000       15.9994           0
     83784 TIP3     24623    TIP3     H1       HT       0.417000       1.00800           0
     83785 TIP3     24623    TIP3     H2       HT       0.417000       1.00800           0
     83786 TIP3     24624    TIP3     OH2      OT      -0.834000       15.9994           0
     83787 TIP3     24624    TIP3     H1       HT       0.417000       1.00800           0
     83788 TIP3     24624    TIP3     H2       HT       0.417000       1.00800           0
     83789 TIP3     24625    TIP3     OH2      OT      -0.834000       15.9994           0
     83790 TIP3     24625    TIP3     H1       HT       0.417000       1.00800           0
     83791 TIP3     24625    TIP3     H2       HT       0.417000       1.00800           0
     83792 TIP3     24626    TIP3     OH2      OT      -0.834000       15.9994           0
     83793 TIP3     24626    TIP3     H1       HT       0.417000       1.00800           0
     83794 TIP3     24626    TIP3     H2       HT       0.417000       1.00800           0
     83795 TIP3     24627    TIP3     OH2      OT      -0.834000       15.9994           0
     83796 TIP3     24627    TIP3     H1       HT       0.417000       1.00800           0
     83797 TIP3     24627    TIP3     H2       HT       0.417000       1.00800           0
     83798 TIP3     24628    TIP3     OH2      OT      -0.834000       15.9994           0
     83799 TIP3     24628    TIP3     H1       HT       0.417000       1.00800           0
     83800 TIP3     24628    TIP3     H2       HT       0.417000       1.00800           0
     83801 TIP3     24629    TIP3     OH2      OT      -0.834000       15.9994           0
     83802 TIP3     24629    TIP3     H1       HT       0.417000       1.00800           0
     83803 TIP3     24629    TIP3     H2       HT       0.417000       1.00800           0
     83804 TIP3     24630    TIP3     OH2      OT      -0.834000       15.9994           0
     83805 TIP3     24630    TIP3     H1       HT       0.417000       1.00800           0
     83806 TIP3     24630    TIP3     H2       HT       0.417000       1.00800           0
     83807 TIP3     24631    TIP3     OH2      OT      -0.834000       15.9994           0
     83808 TIP3     24631    TIP3     H1       HT       0.417000       1.00800           0
     83809 TIP3     24631    TIP3     H2       HT       0.417000       1.00800           0
     83810 TIP3     24632    TIP3     OH2      OT      -0.834000       15.9994           0
     83811 TIP3     24632    TIP3     H1       HT       0.417000       1.00800           0
     83812 TIP3     24632    TIP3     H2       HT       0.417000       1.00800           0
     83813 TIP3     24633    TIP3     OH2      OT      -0.834000       15.9994           0
     83814 TIP3     24633    TIP3     H1       HT       0.417000       1.00800           0
     83815 TIP3     24633    TIP3     H2       HT       0.417000       1.00800           0
     83816 TIP3     24634    TIP3     OH2      OT      -0.834000       15.9994           0
     83817 TIP3     24634    TIP3     H1       HT       0.417000       1.00800           0
     83818 TIP3     24634    TIP3     H2       HT       0.417000       1.00800           0
     83819 TIP3     24635    TIP3     OH2      OT      -0.834000       15.9994           0
     83820 TIP3     24635    TIP3     H1       HT       0.417000       1.00800           0
     83821 TIP3     24635    TIP3     H2       HT       0.417000       1.00800           0
     83822 TIP3     24636    TIP3     OH2      OT      -0.834000       15.9994           0
     83823 TIP3     24636    TIP3     H1       HT       0.417000       1.00800           0
     83824 TIP3     24636    TIP3     H2       HT       0.417000       1.00800           0
     83825 TIP3     24637    TIP3     OH2      OT      -0.834000       15.9994           0
     83826 TIP3     24637    TIP3     H1       HT       0.417000       1.00800           0
     83827 TIP3     24637    TIP3     H2       HT       0.417000       1.00800           0
     83828 TIP3     24638    TIP3     OH2      OT      -0.834000       15.9994           0
     83829 TIP3     24638    TIP3     H1       HT       0.417000       1.00800           0
     83830 TIP3     24638    TIP3     H2       HT       0.417000       1.00800           0
     83831 TIP3     24639    TIP3     OH2      OT      -0.834000       15.9994           0
     83832 TIP3     24639    TIP3     H1       HT       0.417000       1.00800           0
     83833 TIP3     24639    TIP3     H2       HT       0.417000       1.00800           0
     83834 TIP3     24640    TIP3     OH2      OT      -0.834000       15.9994           0
     83835 TIP3     24640    TIP3     H1       HT       0.417000       1.00800           0
     83836 TIP3     24640    TIP3     H2       HT       0.417000       1.00800           0
     83837 TIP3     24641    TIP3     OH2      OT      -0.834000       15.9994           0
     83838 TIP3     24641    TIP3     H1       HT       0.417000       1.00800           0
     83839 TIP3     24641    TIP3     H2       HT       0.417000       1.00800           0
     83840 TIP3     24642    TIP3     OH2      OT      -0.834000       15.9994           0
     83841 TIP3     24642    TIP3     H1       HT       0.417000       1.00800           0
     83842 TIP3     24642    TIP3     H2       HT       0.417000       1.00800           0
     83843 TIP3     24643    TIP3     OH2      OT      -0.834000       15.9994           0
     83844 TIP3     24643    TIP3     H1       HT       0.417000       1.00800           0
     83845 TIP3     24643    TIP3     H2       HT       0.417000       1.00800           0
     83846 TIP3     24644    TIP3     OH2      OT      -0.834000       15.9994           0
     83847 TIP3     24644    TIP3     H1       HT       0.417000       1.00800           0
     83848 TIP3     24644    TIP3     H2       HT       0.417000       1.00800           0
     83849 TIP3     24645    TIP3     OH2      OT      -0.834000       15.9994           0
     83850 TIP3     24645    TIP3     H1       HT       0.417000       1.00800           0
     83851 TIP3     24645    TIP3     H2       HT       0.417000       1.00800           0
     83852 TIP3     24646    TIP3     OH2      OT      -0.834000       15.9994           0
     83853 TIP3     24646    TIP3     H1       HT       0.417000       1.00800           0
     83854 TIP3     24646    TIP3     H2       HT       0.417000       1.00800           0
     83855 TIP3     24647    TIP3     OH2      OT      -0.834000       15.9994           0
     83856 TIP3     24647    TIP3     H1       HT       0.417000       1.00800           0
     83857 TIP3     24647    TIP3     H2       HT       0.417000       1.00800           0
     83858 TIP3     24648    TIP3     OH2      OT      -0.834000       15.9994           0
     83859 TIP3     24648    TIP3     H1       HT       0.417000       1.00800           0
     83860 TIP3     24648    TIP3     H2       HT       0.417000       1.00800           0
     83861 TIP3     24649    TIP3     OH2      OT      -0.834000       15.9994           0
     83862 TIP3     24649    TIP3     H1       HT       0.417000       1.00800           0
     83863 TIP3     24649    TIP3     H2       HT       0.417000       1.00800           0
     83864 TIP3     24650    TIP3     OH2      OT      -0.834000       15.9994           0
     83865 TIP3     24650    TIP3     H1       HT       0.417000       1.00800           0
     83866 TIP3     24650    TIP3     H2       HT       0.417000       1.00800           0
     83867 TIP3     24651    TIP3     OH2      OT      -0.834000       15.9994           0
     83868 TIP3     24651    TIP3     H1       HT       0.417000       1.00800           0
     83869 TIP3     24651    TIP3     H2       HT       0.417000       1.00800           0
     83870 TIP3     24652    TIP3     OH2      OT      -0.834000       15.9994           0
     83871 TIP3     24652    TIP3     H1       HT       0.417000       1.00800           0
     83872 TIP3     24652    TIP3     H2       HT       0.417000       1.00800           0
     83873 TIP3     24653    TIP3     OH2      OT      -0.834000       15.9994           0
     83874 TIP3     24653    TIP3     H1       HT       0.417000       1.00800           0
     83875 TIP3     24653    TIP3     H2       HT       0.417000       1.00800           0
     83876 TIP3     24654    TIP3     OH2      OT      -0.834000       15.9994           0
     83877 TIP3     24654    TIP3     H1       HT       0.417000       1.00800           0
     83878 TIP3     24654    TIP3     H2       HT       0.417000       1.00800           0
     83879 TIP3     24655    TIP3     OH2      OT      -0.834000       15.9994           0
     83880 TIP3     24655    TIP3     H1       HT       0.417000       1.00800           0
     83881 TIP3     24655    TIP3     H2       HT       0.417000       1.00800           0
     83882 TIP3     24656    TIP3     OH2      OT      -0.834000       15.9994           0
     83883 TIP3     24656    TIP3     H1       HT       0.417000       1.00800           0
     83884 TIP3     24656    TIP3     H2       HT       0.417000       1.00800           0
     83885 TIP3     24657    TIP3     OH2      OT      -0.834000       15.9994           0
     83886 TIP3     24657    TIP3     H1       HT       0.417000       1.00800           0
     83887 TIP3     24657    TIP3     H2       HT       0.417000       1.00800           0
     83888 TIP3     24658    TIP3     OH2      OT      -0.834000       15.9994           0
     83889 TIP3     24658    TIP3     H1       HT       0.417000       1.00800           0
     83890 TIP3     24658    TIP3     H2       HT       0.417000       1.00800           0
     83891 TIP3     24659    TIP3     OH2      OT      -0.834000       15.9994           0
     83892 TIP3     24659    TIP3     H1       HT       0.417000       1.00800           0
     83893 TIP3     24659    TIP3     H2       HT       0.417000       1.00800           0
     83894 TIP3     24660    TIP3     OH2      OT      -0.834000       15.9994           0
     83895 TIP3     24660    TIP3     H1       HT       0.417000       1.00800           0
     83896 TIP3     24660    TIP3     H2       HT       0.417000       1.00800           0
     83897 TIP3     24661    TIP3     OH2      OT      -0.834000       15.9994           0
     83898 TIP3     24661    TIP3     H1       HT       0.417000       1.00800           0
     83899 TIP3     24661    TIP3     H2       HT       0.417000       1.00800           0
     83900 TIP3     24662    TIP3     OH2      OT      -0.834000       15.9994           0
     83901 TIP3     24662    TIP3     H1       HT       0.417000       1.00800           0
     83902 TIP3     24662    TIP3     H2       HT       0.417000       1.00800           0
     83903 TIP3     24663    TIP3     OH2      OT      -0.834000       15.9994           0
     83904 TIP3     24663    TIP3     H1       HT       0.417000       1.00800           0
     83905 TIP3     24663    TIP3     H2       HT       0.417000       1.00800           0
     83906 TIP3     24664    TIP3     OH2      OT      -0.834000       15.9994           0
     83907 TIP3     24664    TIP3     H1       HT       0.417000       1.00800           0
     83908 TIP3     24664    TIP3     H2       HT       0.417000       1.00800           0
     83909 TIP3     24665    TIP3     OH2      OT      -0.834000       15.9994           0
     83910 TIP3     24665    TIP3     H1       HT       0.417000       1.00800           0
     83911 TIP3     24665    TIP3     H2       HT       0.417000       1.00800           0
     83912 TIP3     24666    TIP3     OH2      OT      -0.834000       15.9994           0
     83913 TIP3     24666    TIP3     H1       HT       0.417000       1.00800           0
     83914 TIP3     24666    TIP3     H2       HT       0.417000       1.00800           0
     83915 TIP3     24667    TIP3     OH2      OT      -0.834000       15.9994           0
     83916 TIP3     24667    TIP3     H1       HT       0.417000       1.00800           0
     83917 TIP3     24667    TIP3     H2       HT       0.417000       1.00800           0
     83918 TIP3     24668    TIP3     OH2      OT      -0.834000       15.9994           0
     83919 TIP3     24668    TIP3     H1       HT       0.417000       1.00800           0
     83920 TIP3     24668    TIP3     H2       HT       0.417000       1.00800           0
     83921 TIP3     24669    TIP3     OH2      OT      -0.834000       15.9994           0
     83922 TIP3     24669    TIP3     H1       HT       0.417000       1.00800           0
     83923 TIP3     24669    TIP3     H2       HT       0.417000       1.00800           0
     83924 TIP3     24670    TIP3     OH2      OT      -0.834000       15.9994           0
     83925 TIP3     24670    TIP3     H1       HT       0.417000       1.00800           0
     83926 TIP3     24670    TIP3     H2       HT       0.417000       1.00800           0
     83927 TIP3     24671    TIP3     OH2      OT      -0.834000       15.9994           0
     83928 TIP3     24671    TIP3     H1       HT       0.417000       1.00800           0
     83929 TIP3     24671    TIP3     H2       HT       0.417000       1.00800           0
     83930 TIP3     24672    TIP3     OH2      OT      -0.834000       15.9994           0
     83931 TIP3     24672    TIP3     H1       HT       0.417000       1.00800           0
     83932 TIP3     24672    TIP3     H2       HT       0.417000       1.00800           0
     83933 TIP3     24673    TIP3     OH2      OT      -0.834000       15.9994           0
     83934 TIP3     24673    TIP3     H1       HT       0.417000       1.00800           0
     83935 TIP3     24673    TIP3     H2       HT       0.417000       1.00800           0
     83936 TIP3     24674    TIP3     OH2      OT      -0.834000       15.9994           0
     83937 TIP3     24674    TIP3     H1       HT       0.417000       1.00800           0
     83938 TIP3     24674    TIP3     H2       HT       0.417000       1.00800           0
     83939 TIP3     24675    TIP3     OH2      OT      -0.834000       15.9994           0
     83940 TIP3     24675    TIP3     H1       HT       0.417000       1.00800           0
     83941 TIP3     24675    TIP3     H2       HT       0.417000       1.00800           0
     83942 TIP3     24676    TIP3     OH2      OT      -0.834000       15.9994           0
     83943 TIP3     24676    TIP3     H1       HT       0.417000       1.00800           0
     83944 TIP3     24676    TIP3     H2       HT       0.417000       1.00800           0
     83945 TIP3     24677    TIP3     OH2      OT      -0.834000       15.9994           0
     83946 TIP3     24677    TIP3     H1       HT       0.417000       1.00800           0
     83947 TIP3     24677    TIP3     H2       HT       0.417000       1.00800           0
     83948 TIP3     24678    TIP3     OH2      OT      -0.834000       15.9994           0
     83949 TIP3     24678    TIP3     H1       HT       0.417000       1.00800           0
     83950 TIP3     24678    TIP3     H2       HT       0.417000       1.00800           0
     83951 TIP3     24679    TIP3     OH2      OT      -0.834000       15.9994           0
     83952 TIP3     24679    TIP3     H1       HT       0.417000       1.00800           0
     83953 TIP3     24679    TIP3     H2       HT       0.417000       1.00800           0
     83954 TIP3     24680    TIP3     OH2      OT      -0.834000       15.9994           0
     83955 TIP3     24680    TIP3     H1       HT       0.417000       1.00800           0
     83956 TIP3     24680    TIP3     H2       HT       0.417000       1.00800           0
     83957 TIP3     24681    TIP3     OH2      OT      -0.834000       15.9994           0
     83958 TIP3     24681    TIP3     H1       HT       0.417000       1.00800           0
     83959 TIP3     24681    TIP3     H2       HT       0.417000       1.00800           0
     83960 TIP3     24682    TIP3     OH2      OT      -0.834000       15.9994           0
     83961 TIP3     24682    TIP3     H1       HT       0.417000       1.00800           0
     83962 TIP3     24682    TIP3     H2       HT       0.417000       1.00800           0
     83963 TIP3     24683    TIP3     OH2      OT      -0.834000       15.9994           0
     83964 TIP3     24683    TIP3     H1       HT       0.417000       1.00800           0
     83965 TIP3     24683    TIP3     H2       HT       0.417000       1.00800           0
     83966 TIP3     24684    TIP3     OH2      OT      -0.834000       15.9994           0
     83967 TIP3     24684    TIP3     H1       HT       0.417000       1.00800           0
     83968 TIP3     24684    TIP3     H2       HT       0.417000       1.00800           0
     83969 TIP3     24685    TIP3     OH2      OT      -0.834000       15.9994           0
     83970 TIP3     24685    TIP3     H1       HT       0.417000       1.00800           0
     83971 TIP3     24685    TIP3     H2       HT       0.417000       1.00800           0
     83972 TIP3     24686    TIP3     OH2      OT      -0.834000       15.9994           0
     83973 TIP3     24686    TIP3     H1       HT       0.417000       1.00800           0
     83974 TIP3     24686    TIP3     H2       HT       0.417000       1.00800           0
     83975 TIP3     24687    TIP3     OH2      OT      -0.834000       15.9994           0
     83976 TIP3     24687    TIP3     H1       HT       0.417000       1.00800           0
     83977 TIP3     24687    TIP3     H2       HT       0.417000       1.00800           0
     83978 TIP3     24688    TIP3     OH2      OT      -0.834000       15.9994           0
     83979 TIP3     24688    TIP3     H1       HT       0.417000       1.00800           0
     83980 TIP3     24688    TIP3     H2       HT       0.417000       1.00800           0
     83981 TIP3     24689    TIP3     OH2      OT      -0.834000       15.9994           0
     83982 TIP3     24689    TIP3     H1       HT       0.417000       1.00800           0
     83983 TIP3     24689    TIP3     H2       HT       0.417000       1.00800           0
     83984 TIP3     24690    TIP3     OH2      OT      -0.834000       15.9994           0
     83985 TIP3     24690    TIP3     H1       HT       0.417000       1.00800           0
     83986 TIP3     24690    TIP3     H2       HT       0.417000       1.00800           0
     83987 TIP3     24691    TIP3     OH2      OT      -0.834000       15.9994           0
     83988 TIP3     24691    TIP3     H1       HT       0.417000       1.00800           0
     83989 TIP3     24691    TIP3     H2       HT       0.417000       1.00800           0
     83990 TIP3     24692    TIP3     OH2      OT      -0.834000       15.9994           0
     83991 TIP3     24692    TIP3     H1       HT       0.417000       1.00800           0
     83992 TIP3     24692    TIP3     H2       HT       0.417000       1.00800           0
     83993 TIP3     24693    TIP3     OH2      OT      -0.834000       15.9994           0
     83994 TIP3     24693    TIP3     H1       HT       0.417000       1.00800           0
     83995 TIP3     24693    TIP3     H2       HT       0.417000       1.00800           0
     83996 TIP3     24694    TIP3     OH2      OT      -0.834000       15.9994           0
     83997 TIP3     24694    TIP3     H1       HT       0.417000       1.00800           0
     83998 TIP3     24694    TIP3     H2       HT       0.417000       1.00800           0
     83999 TIP3     24695    TIP3     OH2      OT      -0.834000       15.9994           0
     84000 TIP3     24695    TIP3     H1       HT       0.417000       1.00800           0
     84001 TIP3     24695    TIP3     H2       HT       0.417000       1.00800           0
     84002 TIP3     24696    TIP3     OH2      OT      -0.834000       15.9994           0
     84003 TIP3     24696    TIP3     H1       HT       0.417000       1.00800           0
     84004 TIP3     24696    TIP3     H2       HT       0.417000       1.00800           0
     84005 TIP3     24697    TIP3     OH2      OT      -0.834000       15.9994           0
     84006 TIP3     24697    TIP3     H1       HT       0.417000       1.00800           0
     84007 TIP3     24697    TIP3     H2       HT       0.417000       1.00800           0
     84008 TIP3     24698    TIP3     OH2      OT      -0.834000       15.9994           0
     84009 TIP3     24698    TIP3     H1       HT       0.417000       1.00800           0
     84010 TIP3     24698    TIP3     H2       HT       0.417000       1.00800           0
     84011 TIP3     24699    TIP3     OH2      OT      -0.834000       15.9994           0
     84012 TIP3     24699    TIP3     H1       HT       0.417000       1.00800           0
     84013 TIP3     24699    TIP3     H2       HT       0.417000       1.00800           0
     84014 TIP3     24700    TIP3     OH2      OT      -0.834000       15.9994           0
     84015 TIP3     24700    TIP3     H1       HT       0.417000       1.00800           0
     84016 TIP3     24700    TIP3     H2       HT       0.417000       1.00800           0
     84017 TIP3     24701    TIP3     OH2      OT      -0.834000       15.9994           0
     84018 TIP3     24701    TIP3     H1       HT       0.417000       1.00800           0
     84019 TIP3     24701    TIP3     H2       HT       0.417000       1.00800           0
     84020 TIP3     24702    TIP3     OH2      OT      -0.834000       15.9994           0
     84021 TIP3     24702    TIP3     H1       HT       0.417000       1.00800           0
     84022 TIP3     24702    TIP3     H2       HT       0.417000       1.00800           0
     84023 TIP3     24703    TIP3     OH2      OT      -0.834000       15.9994           0
     84024 TIP3     24703    TIP3     H1       HT       0.417000       1.00800           0
     84025 TIP3     24703    TIP3     H2       HT       0.417000       1.00800           0
     84026 TIP3     24704    TIP3     OH2      OT      -0.834000       15.9994           0
     84027 TIP3     24704    TIP3     H1       HT       0.417000       1.00800           0
     84028 TIP3     24704    TIP3     H2       HT       0.417000       1.00800           0
     84029 TIP3     24705    TIP3     OH2      OT      -0.834000       15.9994           0
     84030 TIP3     24705    TIP3     H1       HT       0.417000       1.00800           0
     84031 TIP3     24705    TIP3     H2       HT       0.417000       1.00800           0
     84032 TIP3     24706    TIP3     OH2      OT      -0.834000       15.9994           0
     84033 TIP3     24706    TIP3     H1       HT       0.417000       1.00800           0
     84034 TIP3     24706    TIP3     H2       HT       0.417000       1.00800           0
     84035 TIP3     24707    TIP3     OH2      OT      -0.834000       15.9994           0
     84036 TIP3     24707    TIP3     H1       HT       0.417000       1.00800           0
     84037 TIP3     24707    TIP3     H2       HT       0.417000       1.00800           0
     84038 TIP3     24708    TIP3     OH2      OT      -0.834000       15.9994           0
     84039 TIP3     24708    TIP3     H1       HT       0.417000       1.00800           0
     84040 TIP3     24708    TIP3     H2       HT       0.417000       1.00800           0
     84041 TIP3     24709    TIP3     OH2      OT      -0.834000       15.9994           0
     84042 TIP3     24709    TIP3     H1       HT       0.417000       1.00800           0
     84043 TIP3     24709    TIP3     H2       HT       0.417000       1.00800           0
     84044 TIP3     24710    TIP3     OH2      OT      -0.834000       15.9994           0
     84045 TIP3     24710    TIP3     H1       HT       0.417000       1.00800           0
     84046 TIP3     24710    TIP3     H2       HT       0.417000       1.00800           0
     84047 TIP3     24711    TIP3     OH2      OT      -0.834000       15.9994           0
     84048 TIP3     24711    TIP3     H1       HT       0.417000       1.00800           0
     84049 TIP3     24711    TIP3     H2       HT       0.417000       1.00800           0
     84050 TIP3     24712    TIP3     OH2      OT      -0.834000       15.9994           0
     84051 TIP3     24712    TIP3     H1       HT       0.417000       1.00800           0
     84052 TIP3     24712    TIP3     H2       HT       0.417000       1.00800           0
     84053 TIP3     24713    TIP3     OH2      OT      -0.834000       15.9994           0
     84054 TIP3     24713    TIP3     H1       HT       0.417000       1.00800           0
     84055 TIP3     24713    TIP3     H2       HT       0.417000       1.00800           0
     84056 TIP3     24714    TIP3     OH2      OT      -0.834000       15.9994           0
     84057 TIP3     24714    TIP3     H1       HT       0.417000       1.00800           0
     84058 TIP3     24714    TIP3     H2       HT       0.417000       1.00800           0
     84059 TIP3     24715    TIP3     OH2      OT      -0.834000       15.9994           0
     84060 TIP3     24715    TIP3     H1       HT       0.417000       1.00800           0
     84061 TIP3     24715    TIP3     H2       HT       0.417000       1.00800           0
     84062 TIP3     24716    TIP3     OH2      OT      -0.834000       15.9994           0
     84063 TIP3     24716    TIP3     H1       HT       0.417000       1.00800           0
     84064 TIP3     24716    TIP3     H2       HT       0.417000       1.00800           0
     84065 TIP3     24717    TIP3     OH2      OT      -0.834000       15.9994           0
     84066 TIP3     24717    TIP3     H1       HT       0.417000       1.00800           0
     84067 TIP3     24717    TIP3     H2       HT       0.417000       1.00800           0
     84068 TIP3     24718    TIP3     OH2      OT      -0.834000       15.9994           0
     84069 TIP3     24718    TIP3     H1       HT       0.417000       1.00800           0
     84070 TIP3     24718    TIP3     H2       HT       0.417000       1.00800           0
     84071 TIP3     24719    TIP3     OH2      OT      -0.834000       15.9994           0
     84072 TIP3     24719    TIP3     H1       HT       0.417000       1.00800           0
     84073 TIP3     24719    TIP3     H2       HT       0.417000       1.00800           0
     84074 TIP3     24720    TIP3     OH2      OT      -0.834000       15.9994           0
     84075 TIP3     24720    TIP3     H1       HT       0.417000       1.00800           0
     84076 TIP3     24720    TIP3     H2       HT       0.417000       1.00800           0
     84077 TIP3     24721    TIP3     OH2      OT      -0.834000       15.9994           0
     84078 TIP3     24721    TIP3     H1       HT       0.417000       1.00800           0
     84079 TIP3     24721    TIP3     H2       HT       0.417000       1.00800           0
     84080 TIP3     24722    TIP3     OH2      OT      -0.834000       15.9994           0
     84081 TIP3     24722    TIP3     H1       HT       0.417000       1.00800           0
     84082 TIP3     24722    TIP3     H2       HT       0.417000       1.00800           0
     84083 TIP3     24723    TIP3     OH2      OT      -0.834000       15.9994           0
     84084 TIP3     24723    TIP3     H1       HT       0.417000       1.00800           0
     84085 TIP3     24723    TIP3     H2       HT       0.417000       1.00800           0
     84086 TIP3     24724    TIP3     OH2      OT      -0.834000       15.9994           0
     84087 TIP3     24724    TIP3     H1       HT       0.417000       1.00800           0
     84088 TIP3     24724    TIP3     H2       HT       0.417000       1.00800           0
     84089 TIP3     24725    TIP3     OH2      OT      -0.834000       15.9994           0
     84090 TIP3     24725    TIP3     H1       HT       0.417000       1.00800           0
     84091 TIP3     24725    TIP3     H2       HT       0.417000       1.00800           0
     84092 TIP3     24726    TIP3     OH2      OT      -0.834000       15.9994           0
     84093 TIP3     24726    TIP3     H1       HT       0.417000       1.00800           0
     84094 TIP3     24726    TIP3     H2       HT       0.417000       1.00800           0
     84095 TIP3     24727    TIP3     OH2      OT      -0.834000       15.9994           0
     84096 TIP3     24727    TIP3     H1       HT       0.417000       1.00800           0
     84097 TIP3     24727    TIP3     H2       HT       0.417000       1.00800           0
     84098 TIP3     24728    TIP3     OH2      OT      -0.834000       15.9994           0
     84099 TIP3     24728    TIP3     H1       HT       0.417000       1.00800           0
     84100 TIP3     24728    TIP3     H2       HT       0.417000       1.00800           0
     84101 TIP3     24729    TIP3     OH2      OT      -0.834000       15.9994           0
     84102 TIP3     24729    TIP3     H1       HT       0.417000       1.00800           0
     84103 TIP3     24729    TIP3     H2       HT       0.417000       1.00800           0
     84104 TIP3     24730    TIP3     OH2      OT      -0.834000       15.9994           0
     84105 TIP3     24730    TIP3     H1       HT       0.417000       1.00800           0
     84106 TIP3     24730    TIP3     H2       HT       0.417000       1.00800           0
     84107 TIP3     24731    TIP3     OH2      OT      -0.834000       15.9994           0
     84108 TIP3     24731    TIP3     H1       HT       0.417000       1.00800           0
     84109 TIP3     24731    TIP3     H2       HT       0.417000       1.00800           0
     84110 TIP3     24732    TIP3     OH2      OT      -0.834000       15.9994           0
     84111 TIP3     24732    TIP3     H1       HT       0.417000       1.00800           0
     84112 TIP3     24732    TIP3     H2       HT       0.417000       1.00800           0
     84113 TIP3     24733    TIP3     OH2      OT      -0.834000       15.9994           0
     84114 TIP3     24733    TIP3     H1       HT       0.417000       1.00800           0
     84115 TIP3     24733    TIP3     H2       HT       0.417000       1.00800           0
     84116 TIP3     24734    TIP3     OH2      OT      -0.834000       15.9994           0
     84117 TIP3     24734    TIP3     H1       HT       0.417000       1.00800           0
     84118 TIP3     24734    TIP3     H2       HT       0.417000       1.00800           0
     84119 TIP3     24735    TIP3     OH2      OT      -0.834000       15.9994           0
     84120 TIP3     24735    TIP3     H1       HT       0.417000       1.00800           0
     84121 TIP3     24735    TIP3     H2       HT       0.417000       1.00800           0
     84122 TIP3     24736    TIP3     OH2      OT      -0.834000       15.9994           0
     84123 TIP3     24736    TIP3     H1       HT       0.417000       1.00800           0
     84124 TIP3     24736    TIP3     H2       HT       0.417000       1.00800           0
     84125 TIP3     24737    TIP3     OH2      OT      -0.834000       15.9994           0
     84126 TIP3     24737    TIP3     H1       HT       0.417000       1.00800           0
     84127 TIP3     24737    TIP3     H2       HT       0.417000       1.00800           0
     84128 TIP3     24738    TIP3     OH2      OT      -0.834000       15.9994           0
     84129 TIP3     24738    TIP3     H1       HT       0.417000       1.00800           0
     84130 TIP3     24738    TIP3     H2       HT       0.417000       1.00800           0
     84131 TIP3     24739    TIP3     OH2      OT      -0.834000       15.9994           0
     84132 TIP3     24739    TIP3     H1       HT       0.417000       1.00800           0
     84133 TIP3     24739    TIP3     H2       HT       0.417000       1.00800           0
     84134 TIP3     24740    TIP3     OH2      OT      -0.834000       15.9994           0
     84135 TIP3     24740    TIP3     H1       HT       0.417000       1.00800           0
     84136 TIP3     24740    TIP3     H2       HT       0.417000       1.00800           0
     84137 TIP3     24741    TIP3     OH2      OT      -0.834000       15.9994           0
     84138 TIP3     24741    TIP3     H1       HT       0.417000       1.00800           0
     84139 TIP3     24741    TIP3     H2       HT       0.417000       1.00800           0
     84140 TIP3     24742    TIP3     OH2      OT      -0.834000       15.9994           0
     84141 TIP3     24742    TIP3     H1       HT       0.417000       1.00800           0
     84142 TIP3     24742    TIP3     H2       HT       0.417000       1.00800           0
     84143 TIP3     24743    TIP3     OH2      OT      -0.834000       15.9994           0
     84144 TIP3     24743    TIP3     H1       HT       0.417000       1.00800           0
     84145 TIP3     24743    TIP3     H2       HT       0.417000       1.00800           0
     84146 TIP3     24744    TIP3     OH2      OT      -0.834000       15.9994           0
     84147 TIP3     24744    TIP3     H1       HT       0.417000       1.00800           0
     84148 TIP3     24744    TIP3     H2       HT       0.417000       1.00800           0
     84149 TIP3     24745    TIP3     OH2      OT      -0.834000       15.9994           0
     84150 TIP3     24745    TIP3     H1       HT       0.417000       1.00800           0
     84151 TIP3     24745    TIP3     H2       HT       0.417000       1.00800           0
     84152 TIP3     24746    TIP3     OH2      OT      -0.834000       15.9994           0
     84153 TIP3     24746    TIP3     H1       HT       0.417000       1.00800           0
     84154 TIP3     24746    TIP3     H2       HT       0.417000       1.00800           0
     84155 TIP3     24747    TIP3     OH2      OT      -0.834000       15.9994           0
     84156 TIP3     24747    TIP3     H1       HT       0.417000       1.00800           0
     84157 TIP3     24747    TIP3     H2       HT       0.417000       1.00800           0
     84158 TIP3     24748    TIP3     OH2      OT      -0.834000       15.9994           0
     84159 TIP3     24748    TIP3     H1       HT       0.417000       1.00800           0
     84160 TIP3     24748    TIP3     H2       HT       0.417000       1.00800           0
     84161 TIP3     24749    TIP3     OH2      OT      -0.834000       15.9994           0
     84162 TIP3     24749    TIP3     H1       HT       0.417000       1.00800           0
     84163 TIP3     24749    TIP3     H2       HT       0.417000       1.00800           0
     84164 TIP3     24750    TIP3     OH2      OT      -0.834000       15.9994           0
     84165 TIP3     24750    TIP3     H1       HT       0.417000       1.00800           0
     84166 TIP3     24750    TIP3     H2       HT       0.417000       1.00800           0
     84167 TIP3     24751    TIP3     OH2      OT      -0.834000       15.9994           0
     84168 TIP3     24751    TIP3     H1       HT       0.417000       1.00800           0
     84169 TIP3     24751    TIP3     H2       HT       0.417000       1.00800           0
     84170 TIP3     24752    TIP3     OH2      OT      -0.834000       15.9994           0
     84171 TIP3     24752    TIP3     H1       HT       0.417000       1.00800           0
     84172 TIP3     24752    TIP3     H2       HT       0.417000       1.00800           0
     84173 TIP3     24753    TIP3     OH2      OT      -0.834000       15.9994           0
     84174 TIP3     24753    TIP3     H1       HT       0.417000       1.00800           0
     84175 TIP3     24753    TIP3     H2       HT       0.417000       1.00800           0
     84176 TIP3     24754    TIP3     OH2      OT      -0.834000       15.9994           0
     84177 TIP3     24754    TIP3     H1       HT       0.417000       1.00800           0
     84178 TIP3     24754    TIP3     H2       HT       0.417000       1.00800           0
     84179 TIP3     24755    TIP3     OH2      OT      -0.834000       15.9994           0
     84180 TIP3     24755    TIP3     H1       HT       0.417000       1.00800           0
     84181 TIP3     24755    TIP3     H2       HT       0.417000       1.00800           0
     84182 TIP3     24756    TIP3     OH2      OT      -0.834000       15.9994           0
     84183 TIP3     24756    TIP3     H1       HT       0.417000       1.00800           0
     84184 TIP3     24756    TIP3     H2       HT       0.417000       1.00800           0
     84185 TIP3     24757    TIP3     OH2      OT      -0.834000       15.9994           0
     84186 TIP3     24757    TIP3     H1       HT       0.417000       1.00800           0
     84187 TIP3     24757    TIP3     H2       HT       0.417000       1.00800           0
     84188 TIP3     24758    TIP3     OH2      OT      -0.834000       15.9994           0
     84189 TIP3     24758    TIP3     H1       HT       0.417000       1.00800           0
     84190 TIP3     24758    TIP3     H2       HT       0.417000       1.00800           0
     84191 TIP3     24759    TIP3     OH2      OT      -0.834000       15.9994           0
     84192 TIP3     24759    TIP3     H1       HT       0.417000       1.00800           0
     84193 TIP3     24759    TIP3     H2       HT       0.417000       1.00800           0
     84194 TIP3     24760    TIP3     OH2      OT      -0.834000       15.9994           0
     84195 TIP3     24760    TIP3     H1       HT       0.417000       1.00800           0
     84196 TIP3     24760    TIP3     H2       HT       0.417000       1.00800           0
     84197 TIP3     24761    TIP3     OH2      OT      -0.834000       15.9994           0
     84198 TIP3     24761    TIP3     H1       HT       0.417000       1.00800           0
     84199 TIP3     24761    TIP3     H2       HT       0.417000       1.00800           0
     84200 TIP3     24762    TIP3     OH2      OT      -0.834000       15.9994           0
     84201 TIP3     24762    TIP3     H1       HT       0.417000       1.00800           0
     84202 TIP3     24762    TIP3     H2       HT       0.417000       1.00800           0
     84203 TIP3     24763    TIP3     OH2      OT      -0.834000       15.9994           0
     84204 TIP3     24763    TIP3     H1       HT       0.417000       1.00800           0
     84205 TIP3     24763    TIP3     H2       HT       0.417000       1.00800           0
     84206 TIP3     24764    TIP3     OH2      OT      -0.834000       15.9994           0
     84207 TIP3     24764    TIP3     H1       HT       0.417000       1.00800           0
     84208 TIP3     24764    TIP3     H2       HT       0.417000       1.00800           0
     84209 TIP3     24765    TIP3     OH2      OT      -0.834000       15.9994           0
     84210 TIP3     24765    TIP3     H1       HT       0.417000       1.00800           0
     84211 TIP3     24765    TIP3     H2       HT       0.417000       1.00800           0
     84212 TIP3     24766    TIP3     OH2      OT      -0.834000       15.9994           0
     84213 TIP3     24766    TIP3     H1       HT       0.417000       1.00800           0
     84214 TIP3     24766    TIP3     H2       HT       0.417000       1.00800           0
     84215 TIP3     24767    TIP3     OH2      OT      -0.834000       15.9994           0
     84216 TIP3     24767    TIP3     H1       HT       0.417000       1.00800           0
     84217 TIP3     24767    TIP3     H2       HT       0.417000       1.00800           0
     84218 TIP3     24768    TIP3     OH2      OT      -0.834000       15.9994           0
     84219 TIP3     24768    TIP3     H1       HT       0.417000       1.00800           0
     84220 TIP3     24768    TIP3     H2       HT       0.417000       1.00800           0
     84221 TIP3     24769    TIP3     OH2      OT      -0.834000       15.9994           0
     84222 TIP3     24769    TIP3     H1       HT       0.417000       1.00800           0
     84223 TIP3     24769    TIP3     H2       HT       0.417000       1.00800           0
     84224 TIP3     24770    TIP3     OH2      OT      -0.834000       15.9994           0
     84225 TIP3     24770    TIP3     H1       HT       0.417000       1.00800           0
     84226 TIP3     24770    TIP3     H2       HT       0.417000       1.00800           0
     84227 TIP3     24771    TIP3     OH2      OT      -0.834000       15.9994           0
     84228 TIP3     24771    TIP3     H1       HT       0.417000       1.00800           0
     84229 TIP3     24771    TIP3     H2       HT       0.417000       1.00800           0
     84230 TIP3     24772    TIP3     OH2      OT      -0.834000       15.9994           0
     84231 TIP3     24772    TIP3     H1       HT       0.417000       1.00800           0
     84232 TIP3     24772    TIP3     H2       HT       0.417000       1.00800           0
     84233 TIP3     24773    TIP3     OH2      OT      -0.834000       15.9994           0
     84234 TIP3     24773    TIP3     H1       HT       0.417000       1.00800           0
     84235 TIP3     24773    TIP3     H2       HT       0.417000       1.00800           0
     84236 TIP3     24774    TIP3     OH2      OT      -0.834000       15.9994           0
     84237 TIP3     24774    TIP3     H1       HT       0.417000       1.00800           0
     84238 TIP3     24774    TIP3     H2       HT       0.417000       1.00800           0
     84239 TIP3     24775    TIP3     OH2      OT      -0.834000       15.9994           0
     84240 TIP3     24775    TIP3     H1       HT       0.417000       1.00800           0
     84241 TIP3     24775    TIP3     H2       HT       0.417000       1.00800           0
     84242 TIP3     24776    TIP3     OH2      OT      -0.834000       15.9994           0
     84243 TIP3     24776    TIP3     H1       HT       0.417000       1.00800           0
     84244 TIP3     24776    TIP3     H2       HT       0.417000       1.00800           0
     84245 TIP3     24777    TIP3     OH2      OT      -0.834000       15.9994           0
     84246 TIP3     24777    TIP3     H1       HT       0.417000       1.00800           0
     84247 TIP3     24777    TIP3     H2       HT       0.417000       1.00800           0
     84248 TIP3     24778    TIP3     OH2      OT      -0.834000       15.9994           0
     84249 TIP3     24778    TIP3     H1       HT       0.417000       1.00800           0
     84250 TIP3     24778    TIP3     H2       HT       0.417000       1.00800           0
     84251 TIP3     24779    TIP3     OH2      OT      -0.834000       15.9994           0
     84252 TIP3     24779    TIP3     H1       HT       0.417000       1.00800           0
     84253 TIP3     24779    TIP3     H2       HT       0.417000       1.00800           0
     84254 TIP3     24780    TIP3     OH2      OT      -0.834000       15.9994           0
     84255 TIP3     24780    TIP3     H1       HT       0.417000       1.00800           0
     84256 TIP3     24780    TIP3     H2       HT       0.417000       1.00800           0
     84257 TIP3     24781    TIP3     OH2      OT      -0.834000       15.9994           0
     84258 TIP3     24781    TIP3     H1       HT       0.417000       1.00800           0
     84259 TIP3     24781    TIP3     H2       HT       0.417000       1.00800           0
     84260 TIP3     24782    TIP3     OH2      OT      -0.834000       15.9994           0
     84261 TIP3     24782    TIP3     H1       HT       0.417000       1.00800           0
     84262 TIP3     24782    TIP3     H2       HT       0.417000       1.00800           0
     84263 TIP3     24783    TIP3     OH2      OT      -0.834000       15.9994           0
     84264 TIP3     24783    TIP3     H1       HT       0.417000       1.00800           0
     84265 TIP3     24783    TIP3     H2       HT       0.417000       1.00800           0
     84266 TIP3     24784    TIP3     OH2      OT      -0.834000       15.9994           0
     84267 TIP3     24784    TIP3     H1       HT       0.417000       1.00800           0
     84268 TIP3     24784    TIP3     H2       HT       0.417000       1.00800           0
     84269 TIP3     24785    TIP3     OH2      OT      -0.834000       15.9994           0
     84270 TIP3     24785    TIP3     H1       HT       0.417000       1.00800           0
     84271 TIP3     24785    TIP3     H2       HT       0.417000       1.00800           0
     84272 TIP3     24786    TIP3     OH2      OT      -0.834000       15.9994           0
     84273 TIP3     24786    TIP3     H1       HT       0.417000       1.00800           0
     84274 TIP3     24786    TIP3     H2       HT       0.417000       1.00800           0
     84275 TIP3     24787    TIP3     OH2      OT      -0.834000       15.9994           0
     84276 TIP3     24787    TIP3     H1       HT       0.417000       1.00800           0
     84277 TIP3     24787    TIP3     H2       HT       0.417000       1.00800           0
     84278 TIP3     24788    TIP3     OH2      OT      -0.834000       15.9994           0
     84279 TIP3     24788    TIP3     H1       HT       0.417000       1.00800           0
     84280 TIP3     24788    TIP3     H2       HT       0.417000       1.00800           0
     84281 TIP3     24789    TIP3     OH2      OT      -0.834000       15.9994           0
     84282 TIP3     24789    TIP3     H1       HT       0.417000       1.00800           0
     84283 TIP3     24789    TIP3     H2       HT       0.417000       1.00800           0
     84284 TIP3     24790    TIP3     OH2      OT      -0.834000       15.9994           0
     84285 TIP3     24790    TIP3     H1       HT       0.417000       1.00800           0
     84286 TIP3     24790    TIP3     H2       HT       0.417000       1.00800           0
     84287 TIP3     24791    TIP3     OH2      OT      -0.834000       15.9994           0
     84288 TIP3     24791    TIP3     H1       HT       0.417000       1.00800           0
     84289 TIP3     24791    TIP3     H2       HT       0.417000       1.00800           0
     84290 TIP3     24792    TIP3     OH2      OT      -0.834000       15.9994           0
     84291 TIP3     24792    TIP3     H1       HT       0.417000       1.00800           0
     84292 TIP3     24792    TIP3     H2       HT       0.417000       1.00800           0
     84293 TIP3     24793    TIP3     OH2      OT      -0.834000       15.9994           0
     84294 TIP3     24793    TIP3     H1       HT       0.417000       1.00800           0
     84295 TIP3     24793    TIP3     H2       HT       0.417000       1.00800           0
     84296 TIP3     24794    TIP3     OH2      OT      -0.834000       15.9994           0
     84297 TIP3     24794    TIP3     H1       HT       0.417000       1.00800           0
     84298 TIP3     24794    TIP3     H2       HT       0.417000       1.00800           0
     84299 TIP3     24795    TIP3     OH2      OT      -0.834000       15.9994           0
     84300 TIP3     24795    TIP3     H1       HT       0.417000       1.00800           0
     84301 TIP3     24795    TIP3     H2       HT       0.417000       1.00800           0
     84302 TIP3     24796    TIP3     OH2      OT      -0.834000       15.9994           0
     84303 TIP3     24796    TIP3     H1       HT       0.417000       1.00800           0
     84304 TIP3     24796    TIP3     H2       HT       0.417000       1.00800           0
     84305 TIP3     24797    TIP3     OH2      OT      -0.834000       15.9994           0
     84306 TIP3     24797    TIP3     H1       HT       0.417000       1.00800           0
     84307 TIP3     24797    TIP3     H2       HT       0.417000       1.00800           0
     84308 TIP3     24798    TIP3     OH2      OT      -0.834000       15.9994           0
     84309 TIP3     24798    TIP3     H1       HT       0.417000       1.00800           0
     84310 TIP3     24798    TIP3     H2       HT       0.417000       1.00800           0
     84311 TIP3     24799    TIP3     OH2      OT      -0.834000       15.9994           0
     84312 TIP3     24799    TIP3     H1       HT       0.417000       1.00800           0
     84313 TIP3     24799    TIP3     H2       HT       0.417000       1.00800           0
     84314 TIP3     24800    TIP3     OH2      OT      -0.834000       15.9994           0
     84315 TIP3     24800    TIP3     H1       HT       0.417000       1.00800           0
     84316 TIP3     24800    TIP3     H2       HT       0.417000       1.00800           0
     84317 TIP3     24801    TIP3     OH2      OT      -0.834000       15.9994           0
     84318 TIP3     24801    TIP3     H1       HT       0.417000       1.00800           0
     84319 TIP3     24801    TIP3     H2       HT       0.417000       1.00800           0
     84320 TIP3     24802    TIP3     OH2      OT      -0.834000       15.9994           0
     84321 TIP3     24802    TIP3     H1       HT       0.417000       1.00800           0
     84322 TIP3     24802    TIP3     H2       HT       0.417000       1.00800           0
     84323 TIP3     24803    TIP3     OH2      OT      -0.834000       15.9994           0
     84324 TIP3     24803    TIP3     H1       HT       0.417000       1.00800           0
     84325 TIP3     24803    TIP3     H2       HT       0.417000       1.00800           0
     84326 TIP3     24804    TIP3     OH2      OT      -0.834000       15.9994           0
     84327 TIP3     24804    TIP3     H1       HT       0.417000       1.00800           0
     84328 TIP3     24804    TIP3     H2       HT       0.417000       1.00800           0
     84329 TIP3     24805    TIP3     OH2      OT      -0.834000       15.9994           0
     84330 TIP3     24805    TIP3     H1       HT       0.417000       1.00800           0
     84331 TIP3     24805    TIP3     H2       HT       0.417000       1.00800           0
     84332 TIP3     24806    TIP3     OH2      OT      -0.834000       15.9994           0
     84333 TIP3     24806    TIP3     H1       HT       0.417000       1.00800           0
     84334 TIP3     24806    TIP3     H2       HT       0.417000       1.00800           0
     84335 TIP3     24807    TIP3     OH2      OT      -0.834000       15.9994           0
     84336 TIP3     24807    TIP3     H1       HT       0.417000       1.00800           0
     84337 TIP3     24807    TIP3     H2       HT       0.417000       1.00800           0
     84338 TIP3     24808    TIP3     OH2      OT      -0.834000       15.9994           0
     84339 TIP3     24808    TIP3     H1       HT       0.417000       1.00800           0
     84340 TIP3     24808    TIP3     H2       HT       0.417000       1.00800           0
     84341 TIP3     24809    TIP3     OH2      OT      -0.834000       15.9994           0
     84342 TIP3     24809    TIP3     H1       HT       0.417000       1.00800           0
     84343 TIP3     24809    TIP3     H2       HT       0.417000       1.00800           0
     84344 TIP3     24810    TIP3     OH2      OT      -0.834000       15.9994           0
     84345 TIP3     24810    TIP3     H1       HT       0.417000       1.00800           0
     84346 TIP3     24810    TIP3     H2       HT       0.417000       1.00800           0
     84347 TIP3     24811    TIP3     OH2      OT      -0.834000       15.9994           0
     84348 TIP3     24811    TIP3     H1       HT       0.417000       1.00800           0
     84349 TIP3     24811    TIP3     H2       HT       0.417000       1.00800           0
     84350 TIP3     24812    TIP3     OH2      OT      -0.834000       15.9994           0
     84351 TIP3     24812    TIP3     H1       HT       0.417000       1.00800           0
     84352 TIP3     24812    TIP3     H2       HT       0.417000       1.00800           0
     84353 TIP3     24813    TIP3     OH2      OT      -0.834000       15.9994           0
     84354 TIP3     24813    TIP3     H1       HT       0.417000       1.00800           0
     84355 TIP3     24813    TIP3     H2       HT       0.417000       1.00800           0
     84356 TIP3     24814    TIP3     OH2      OT      -0.834000       15.9994           0
     84357 TIP3     24814    TIP3     H1       HT       0.417000       1.00800           0
     84358 TIP3     24814    TIP3     H2       HT       0.417000       1.00800           0
     84359 TIP3     24815    TIP3     OH2      OT      -0.834000       15.9994           0
     84360 TIP3     24815    TIP3     H1       HT       0.417000       1.00800           0
     84361 TIP3     24815    TIP3     H2       HT       0.417000       1.00800           0
     84362 TIP3     24816    TIP3     OH2      OT      -0.834000       15.9994           0
     84363 TIP3     24816    TIP3     H1       HT       0.417000       1.00800           0
     84364 TIP3     24816    TIP3     H2       HT       0.417000       1.00800           0
     84365 TIP3     24817    TIP3     OH2      OT      -0.834000       15.9994           0
     84366 TIP3     24817    TIP3     H1       HT       0.417000       1.00800           0
     84367 TIP3     24817    TIP3     H2       HT       0.417000       1.00800           0
     84368 TIP3     24818    TIP3     OH2      OT      -0.834000       15.9994           0
     84369 TIP3     24818    TIP3     H1       HT       0.417000       1.00800           0
     84370 TIP3     24818    TIP3     H2       HT       0.417000       1.00800           0
     84371 TIP3     24819    TIP3     OH2      OT      -0.834000       15.9994           0
     84372 TIP3     24819    TIP3     H1       HT       0.417000       1.00800           0
     84373 TIP3     24819    TIP3     H2       HT       0.417000       1.00800           0
     84374 TIP3     24820    TIP3     OH2      OT      -0.834000       15.9994           0
     84375 TIP3     24820    TIP3     H1       HT       0.417000       1.00800           0
     84376 TIP3     24820    TIP3     H2       HT       0.417000       1.00800           0
     84377 TIP3     24821    TIP3     OH2      OT      -0.834000       15.9994           0
     84378 TIP3     24821    TIP3     H1       HT       0.417000       1.00800           0
     84379 TIP3     24821    TIP3     H2       HT       0.417000       1.00800           0
     84380 TIP3     24822    TIP3     OH2      OT      -0.834000       15.9994           0
     84381 TIP3     24822    TIP3     H1       HT       0.417000       1.00800           0
     84382 TIP3     24822    TIP3     H2       HT       0.417000       1.00800           0
     84383 TIP3     24823    TIP3     OH2      OT      -0.834000       15.9994           0
     84384 TIP3     24823    TIP3     H1       HT       0.417000       1.00800           0
     84385 TIP3     24823    TIP3     H2       HT       0.417000       1.00800           0
     84386 TIP3     24824    TIP3     OH2      OT      -0.834000       15.9994           0
     84387 TIP3     24824    TIP3     H1       HT       0.417000       1.00800           0
     84388 TIP3     24824    TIP3     H2       HT       0.417000       1.00800           0
     84389 TIP3     24825    TIP3     OH2      OT      -0.834000       15.9994           0
     84390 TIP3     24825    TIP3     H1       HT       0.417000       1.00800           0
     84391 TIP3     24825    TIP3     H2       HT       0.417000       1.00800           0
     84392 TIP3     24826    TIP3     OH2      OT      -0.834000       15.9994           0
     84393 TIP3     24826    TIP3     H1       HT       0.417000       1.00800           0
     84394 TIP3     24826    TIP3     H2       HT       0.417000       1.00800           0
     84395 TIP3     24827    TIP3     OH2      OT      -0.834000       15.9994           0
     84396 TIP3     24827    TIP3     H1       HT       0.417000       1.00800           0
     84397 TIP3     24827    TIP3     H2       HT       0.417000       1.00800           0
     84398 TIP3     24828    TIP3     OH2      OT      -0.834000       15.9994           0
     84399 TIP3     24828    TIP3     H1       HT       0.417000       1.00800           0
     84400 TIP3     24828    TIP3     H2       HT       0.417000       1.00800           0
     84401 TIP3     24829    TIP3     OH2      OT      -0.834000       15.9994           0
     84402 TIP3     24829    TIP3     H1       HT       0.417000       1.00800           0
     84403 TIP3     24829    TIP3     H2       HT       0.417000       1.00800           0
     84404 TIP3     24830    TIP3     OH2      OT      -0.834000       15.9994           0
     84405 TIP3     24830    TIP3     H1       HT       0.417000       1.00800           0
     84406 TIP3     24830    TIP3     H2       HT       0.417000       1.00800           0
     84407 TIP3     24831    TIP3     OH2      OT      -0.834000       15.9994           0
     84408 TIP3     24831    TIP3     H1       HT       0.417000       1.00800           0
     84409 TIP3     24831    TIP3     H2       HT       0.417000       1.00800           0
     84410 TIP3     24832    TIP3     OH2      OT      -0.834000       15.9994           0
     84411 TIP3     24832    TIP3     H1       HT       0.417000       1.00800           0
     84412 TIP3     24832    TIP3     H2       HT       0.417000       1.00800           0
     84413 TIP3     24833    TIP3     OH2      OT      -0.834000       15.9994           0
     84414 TIP3     24833    TIP3     H1       HT       0.417000       1.00800           0
     84415 TIP3     24833    TIP3     H2       HT       0.417000       1.00800           0
     84416 TIP3     24834    TIP3     OH2      OT      -0.834000       15.9994           0
     84417 TIP3     24834    TIP3     H1       HT       0.417000       1.00800           0
     84418 TIP3     24834    TIP3     H2       HT       0.417000       1.00800           0
     84419 TIP3     24835    TIP3     OH2      OT      -0.834000       15.9994           0
     84420 TIP3     24835    TIP3     H1       HT       0.417000       1.00800           0
     84421 TIP3     24835    TIP3     H2       HT       0.417000       1.00800           0
     84422 TIP3     24836    TIP3     OH2      OT      -0.834000       15.9994           0
     84423 TIP3     24836    TIP3     H1       HT       0.417000       1.00800           0
     84424 TIP3     24836    TIP3     H2       HT       0.417000       1.00800           0
     84425 TIP3     24837    TIP3     OH2      OT      -0.834000       15.9994           0
     84426 TIP3     24837    TIP3     H1       HT       0.417000       1.00800           0
     84427 TIP3     24837    TIP3     H2       HT       0.417000       1.00800           0
     84428 TIP3     24838    TIP3     OH2      OT      -0.834000       15.9994           0
     84429 TIP3     24838    TIP3     H1       HT       0.417000       1.00800           0
     84430 TIP3     24838    TIP3     H2       HT       0.417000       1.00800           0
     84431 TIP3     24839    TIP3     OH2      OT      -0.834000       15.9994           0
     84432 TIP3     24839    TIP3     H1       HT       0.417000       1.00800           0
     84433 TIP3     24839    TIP3     H2       HT       0.417000       1.00800           0
     84434 TIP3     24840    TIP3     OH2      OT      -0.834000       15.9994           0
     84435 TIP3     24840    TIP3     H1       HT       0.417000       1.00800           0
     84436 TIP3     24840    TIP3     H2       HT       0.417000       1.00800           0
     84437 TIP3     24841    TIP3     OH2      OT      -0.834000       15.9994           0
     84438 TIP3     24841    TIP3     H1       HT       0.417000       1.00800           0
     84439 TIP3     24841    TIP3     H2       HT       0.417000       1.00800           0
     84440 TIP3     24842    TIP3     OH2      OT      -0.834000       15.9994           0
     84441 TIP3     24842    TIP3     H1       HT       0.417000       1.00800           0
     84442 TIP3     24842    TIP3     H2       HT       0.417000       1.00800           0
     84443 TIP3     24843    TIP3     OH2      OT      -0.834000       15.9994           0
     84444 TIP3     24843    TIP3     H1       HT       0.417000       1.00800           0
     84445 TIP3     24843    TIP3     H2       HT       0.417000       1.00800           0
     84446 TIP3     24844    TIP3     OH2      OT      -0.834000       15.9994           0
     84447 TIP3     24844    TIP3     H1       HT       0.417000       1.00800           0
     84448 TIP3     24844    TIP3     H2       HT       0.417000       1.00800           0
     84449 TIP3     24845    TIP3     OH2      OT      -0.834000       15.9994           0
     84450 TIP3     24845    TIP3     H1       HT       0.417000       1.00800           0
     84451 TIP3     24845    TIP3     H2       HT       0.417000       1.00800           0
     84452 TIP3     24846    TIP3     OH2      OT      -0.834000       15.9994           0
     84453 TIP3     24846    TIP3     H1       HT       0.417000       1.00800           0
     84454 TIP3     24846    TIP3     H2       HT       0.417000       1.00800           0
     84455 TIP3     24847    TIP3     OH2      OT      -0.834000       15.9994           0
     84456 TIP3     24847    TIP3     H1       HT       0.417000       1.00800           0
     84457 TIP3     24847    TIP3     H2       HT       0.417000       1.00800           0
     84458 TIP3     24848    TIP3     OH2      OT      -0.834000       15.9994           0
     84459 TIP3     24848    TIP3     H1       HT       0.417000       1.00800           0
     84460 TIP3     24848    TIP3     H2       HT       0.417000       1.00800           0
     84461 TIP3     24849    TIP3     OH2      OT      -0.834000       15.9994           0
     84462 TIP3     24849    TIP3     H1       HT       0.417000       1.00800           0
     84463 TIP3     24849    TIP3     H2       HT       0.417000       1.00800           0
     84464 TIP3     24850    TIP3     OH2      OT      -0.834000       15.9994           0
     84465 TIP3     24850    TIP3     H1       HT       0.417000       1.00800           0
     84466 TIP3     24850    TIP3     H2       HT       0.417000       1.00800           0
     84467 TIP3     24851    TIP3     OH2      OT      -0.834000       15.9994           0
     84468 TIP3     24851    TIP3     H1       HT       0.417000       1.00800           0
     84469 TIP3     24851    TIP3     H2       HT       0.417000       1.00800           0
     84470 TIP3     24852    TIP3     OH2      OT      -0.834000       15.9994           0
     84471 TIP3     24852    TIP3     H1       HT       0.417000       1.00800           0
     84472 TIP3     24852    TIP3     H2       HT       0.417000       1.00800           0
     84473 TIP3     24853    TIP3     OH2      OT      -0.834000       15.9994           0
     84474 TIP3     24853    TIP3     H1       HT       0.417000       1.00800           0
     84475 TIP3     24853    TIP3     H2       HT       0.417000       1.00800           0
     84476 TIP3     24854    TIP3     OH2      OT      -0.834000       15.9994           0
     84477 TIP3     24854    TIP3     H1       HT       0.417000       1.00800           0
     84478 TIP3     24854    TIP3     H2       HT       0.417000       1.00800           0
     84479 TIP3     24855    TIP3     OH2      OT      -0.834000       15.9994           0
     84480 TIP3     24855    TIP3     H1       HT       0.417000       1.00800           0
     84481 TIP3     24855    TIP3     H2       HT       0.417000       1.00800           0
     84482 TIP3     24856    TIP3     OH2      OT      -0.834000       15.9994           0
     84483 TIP3     24856    TIP3     H1       HT       0.417000       1.00800           0
     84484 TIP3     24856    TIP3     H2       HT       0.417000       1.00800           0
     84485 TIP3     24857    TIP3     OH2      OT      -0.834000       15.9994           0
     84486 TIP3     24857    TIP3     H1       HT       0.417000       1.00800           0
     84487 TIP3     24857    TIP3     H2       HT       0.417000       1.00800           0
     84488 TIP3     24858    TIP3     OH2      OT      -0.834000       15.9994           0
     84489 TIP3     24858    TIP3     H1       HT       0.417000       1.00800           0
     84490 TIP3     24858    TIP3     H2       HT       0.417000       1.00800           0
     84491 TIP3     24859    TIP3     OH2      OT      -0.834000       15.9994           0
     84492 TIP3     24859    TIP3     H1       HT       0.417000       1.00800           0
     84493 TIP3     24859    TIP3     H2       HT       0.417000       1.00800           0
     84494 TIP3     24860    TIP3     OH2      OT      -0.834000       15.9994           0
     84495 TIP3     24860    TIP3     H1       HT       0.417000       1.00800           0
     84496 TIP3     24860    TIP3     H2       HT       0.417000       1.00800           0
     84497 TIP3     24861    TIP3     OH2      OT      -0.834000       15.9994           0
     84498 TIP3     24861    TIP3     H1       HT       0.417000       1.00800           0
     84499 TIP3     24861    TIP3     H2       HT       0.417000       1.00800           0
     84500 TIP3     24862    TIP3     OH2      OT      -0.834000       15.9994           0
     84501 TIP3     24862    TIP3     H1       HT       0.417000       1.00800           0
     84502 TIP3     24862    TIP3     H2       HT       0.417000       1.00800           0
     84503 TIP3     24863    TIP3     OH2      OT      -0.834000       15.9994           0
     84504 TIP3     24863    TIP3     H1       HT       0.417000       1.00800           0
     84505 TIP3     24863    TIP3     H2       HT       0.417000       1.00800           0
     84506 TIP3     24864    TIP3     OH2      OT      -0.834000       15.9994           0
     84507 TIP3     24864    TIP3     H1       HT       0.417000       1.00800           0
     84508 TIP3     24864    TIP3     H2       HT       0.417000       1.00800           0
     84509 TIP3     24865    TIP3     OH2      OT      -0.834000       15.9994           0
     84510 TIP3     24865    TIP3     H1       HT       0.417000       1.00800           0
     84511 TIP3     24865    TIP3     H2       HT       0.417000       1.00800           0
     84512 TIP3     24866    TIP3     OH2      OT      -0.834000       15.9994           0
     84513 TIP3     24866    TIP3     H1       HT       0.417000       1.00800           0
     84514 TIP3     24866    TIP3     H2       HT       0.417000       1.00800           0
     84515 TIP3     24867    TIP3     OH2      OT      -0.834000       15.9994           0
     84516 TIP3     24867    TIP3     H1       HT       0.417000       1.00800           0
     84517 TIP3     24867    TIP3     H2       HT       0.417000       1.00800           0
     84518 TIP3     24868    TIP3     OH2      OT      -0.834000       15.9994           0
     84519 TIP3     24868    TIP3     H1       HT       0.417000       1.00800           0
     84520 TIP3     24868    TIP3     H2       HT       0.417000       1.00800           0
     84521 TIP3     24869    TIP3     OH2      OT      -0.834000       15.9994           0
     84522 TIP3     24869    TIP3     H1       HT       0.417000       1.00800           0
     84523 TIP3     24869    TIP3     H2       HT       0.417000       1.00800           0
     84524 TIP3     24870    TIP3     OH2      OT      -0.834000       15.9994           0
     84525 TIP3     24870    TIP3     H1       HT       0.417000       1.00800           0
     84526 TIP3     24870    TIP3     H2       HT       0.417000       1.00800           0
     84527 TIP3     24871    TIP3     OH2      OT      -0.834000       15.9994           0
     84528 TIP3     24871    TIP3     H1       HT       0.417000       1.00800           0
     84529 TIP3     24871    TIP3     H2       HT       0.417000       1.00800           0
     84530 TIP3     24872    TIP3     OH2      OT      -0.834000       15.9994           0
     84531 TIP3     24872    TIP3     H1       HT       0.417000       1.00800           0
     84532 TIP3     24872    TIP3     H2       HT       0.417000       1.00800           0
     84533 TIP3     24873    TIP3     OH2      OT      -0.834000       15.9994           0
     84534 TIP3     24873    TIP3     H1       HT       0.417000       1.00800           0
     84535 TIP3     24873    TIP3     H2       HT       0.417000       1.00800           0
     84536 TIP3     24874    TIP3     OH2      OT      -0.834000       15.9994           0
     84537 TIP3     24874    TIP3     H1       HT       0.417000       1.00800           0
     84538 TIP3     24874    TIP3     H2       HT       0.417000       1.00800           0
     84539 TIP3     24875    TIP3     OH2      OT      -0.834000       15.9994           0
     84540 TIP3     24875    TIP3     H1       HT       0.417000       1.00800           0
     84541 TIP3     24875    TIP3     H2       HT       0.417000       1.00800           0
     84542 TIP3     24876    TIP3     OH2      OT      -0.834000       15.9994           0
     84543 TIP3     24876    TIP3     H1       HT       0.417000       1.00800           0
     84544 TIP3     24876    TIP3     H2       HT       0.417000       1.00800           0
     84545 TIP3     24877    TIP3     OH2      OT      -0.834000       15.9994           0
     84546 TIP3     24877    TIP3     H1       HT       0.417000       1.00800           0
     84547 TIP3     24877    TIP3     H2       HT       0.417000       1.00800           0
     84548 TIP3     24878    TIP3     OH2      OT      -0.834000       15.9994           0
     84549 TIP3     24878    TIP3     H1       HT       0.417000       1.00800           0
     84550 TIP3     24878    TIP3     H2       HT       0.417000       1.00800           0
     84551 TIP3     24879    TIP3     OH2      OT      -0.834000       15.9994           0
     84552 TIP3     24879    TIP3     H1       HT       0.417000       1.00800           0
     84553 TIP3     24879    TIP3     H2       HT       0.417000       1.00800           0
     84554 TIP3     24880    TIP3     OH2      OT      -0.834000       15.9994           0
     84555 TIP3     24880    TIP3     H1       HT       0.417000       1.00800           0
     84556 TIP3     24880    TIP3     H2       HT       0.417000       1.00800           0
     84557 TIP3     24881    TIP3     OH2      OT      -0.834000       15.9994           0
     84558 TIP3     24881    TIP3     H1       HT       0.417000       1.00800           0
     84559 TIP3     24881    TIP3     H2       HT       0.417000       1.00800           0
     84560 TIP3     24882    TIP3     OH2      OT      -0.834000       15.9994           0
     84561 TIP3     24882    TIP3     H1       HT       0.417000       1.00800           0
     84562 TIP3     24882    TIP3     H2       HT       0.417000       1.00800           0
     84563 TIP3     24883    TIP3     OH2      OT      -0.834000       15.9994           0
     84564 TIP3     24883    TIP3     H1       HT       0.417000       1.00800           0
     84565 TIP3     24883    TIP3     H2       HT       0.417000       1.00800           0
     84566 TIP3     24884    TIP3     OH2      OT      -0.834000       15.9994           0
     84567 TIP3     24884    TIP3     H1       HT       0.417000       1.00800           0
     84568 TIP3     24884    TIP3     H2       HT       0.417000       1.00800           0
     84569 TIP3     24885    TIP3     OH2      OT      -0.834000       15.9994           0
     84570 TIP3     24885    TIP3     H1       HT       0.417000       1.00800           0
     84571 TIP3     24885    TIP3     H2       HT       0.417000       1.00800           0
     84572 TIP3     24886    TIP3     OH2      OT      -0.834000       15.9994           0
     84573 TIP3     24886    TIP3     H1       HT       0.417000       1.00800           0
     84574 TIP3     24886    TIP3     H2       HT       0.417000       1.00800           0
     84575 TIP3     24887    TIP3     OH2      OT      -0.834000       15.9994           0
     84576 TIP3     24887    TIP3     H1       HT       0.417000       1.00800           0
     84577 TIP3     24887    TIP3     H2       HT       0.417000       1.00800           0
     84578 TIP3     24888    TIP3     OH2      OT      -0.834000       15.9994           0
     84579 TIP3     24888    TIP3     H1       HT       0.417000       1.00800           0
     84580 TIP3     24888    TIP3     H2       HT       0.417000       1.00800           0
     84581 TIP3     24889    TIP3     OH2      OT      -0.834000       15.9994           0
     84582 TIP3     24889    TIP3     H1       HT       0.417000       1.00800           0
     84583 TIP3     24889    TIP3     H2       HT       0.417000       1.00800           0
     84584 TIP3     24890    TIP3     OH2      OT      -0.834000       15.9994           0
     84585 TIP3     24890    TIP3     H1       HT       0.417000       1.00800           0
     84586 TIP3     24890    TIP3     H2       HT       0.417000       1.00800           0
     84587 TIP3     24891    TIP3     OH2      OT      -0.834000       15.9994           0
     84588 TIP3     24891    TIP3     H1       HT       0.417000       1.00800           0
     84589 TIP3     24891    TIP3     H2       HT       0.417000       1.00800           0
     84590 TIP3     24892    TIP3     OH2      OT      -0.834000       15.9994           0
     84591 TIP3     24892    TIP3     H1       HT       0.417000       1.00800           0
     84592 TIP3     24892    TIP3     H2       HT       0.417000       1.00800           0
     84593 TIP3     24893    TIP3     OH2      OT      -0.834000       15.9994           0
     84594 TIP3     24893    TIP3     H1       HT       0.417000       1.00800           0
     84595 TIP3     24893    TIP3     H2       HT       0.417000       1.00800           0
     84596 TIP3     24894    TIP3     OH2      OT      -0.834000       15.9994           0
     84597 TIP3     24894    TIP3     H1       HT       0.417000       1.00800           0
     84598 TIP3     24894    TIP3     H2       HT       0.417000       1.00800           0
     84599 TIP3     24895    TIP3     OH2      OT      -0.834000       15.9994           0
     84600 TIP3     24895    TIP3     H1       HT       0.417000       1.00800           0
     84601 TIP3     24895    TIP3     H2       HT       0.417000       1.00800           0
     84602 TIP3     24896    TIP3     OH2      OT      -0.834000       15.9994           0
     84603 TIP3     24896    TIP3     H1       HT       0.417000       1.00800           0
     84604 TIP3     24896    TIP3     H2       HT       0.417000       1.00800           0
     84605 TIP3     24897    TIP3     OH2      OT      -0.834000       15.9994           0
     84606 TIP3     24897    TIP3     H1       HT       0.417000       1.00800           0
     84607 TIP3     24897    TIP3     H2       HT       0.417000       1.00800           0
     84608 TIP3     24898    TIP3     OH2      OT      -0.834000       15.9994           0
     84609 TIP3     24898    TIP3     H1       HT       0.417000       1.00800           0
     84610 TIP3     24898    TIP3     H2       HT       0.417000       1.00800           0
     84611 TIP3     24899    TIP3     OH2      OT      -0.834000       15.9994           0
     84612 TIP3     24899    TIP3     H1       HT       0.417000       1.00800           0
     84613 TIP3     24899    TIP3     H2       HT       0.417000       1.00800           0
     84614 TIP3     24900    TIP3     OH2      OT      -0.834000       15.9994           0
     84615 TIP3     24900    TIP3     H1       HT       0.417000       1.00800           0
     84616 TIP3     24900    TIP3     H2       HT       0.417000       1.00800           0
     84617 TIP3     24901    TIP3     OH2      OT      -0.834000       15.9994           0
     84618 TIP3     24901    TIP3     H1       HT       0.417000       1.00800           0
     84619 TIP3     24901    TIP3     H2       HT       0.417000       1.00800           0
     84620 TIP3     24902    TIP3     OH2      OT      -0.834000       15.9994           0
     84621 TIP3     24902    TIP3     H1       HT       0.417000       1.00800           0
     84622 TIP3     24902    TIP3     H2       HT       0.417000       1.00800           0
     84623 TIP3     24903    TIP3     OH2      OT      -0.834000       15.9994           0
     84624 TIP3     24903    TIP3     H1       HT       0.417000       1.00800           0
     84625 TIP3     24903    TIP3     H2       HT       0.417000       1.00800           0
     84626 TIP3     24904    TIP3     OH2      OT      -0.834000       15.9994           0
     84627 TIP3     24904    TIP3     H1       HT       0.417000       1.00800           0
     84628 TIP3     24904    TIP3     H2       HT       0.417000       1.00800           0
     84629 TIP3     24905    TIP3     OH2      OT      -0.834000       15.9994           0
     84630 TIP3     24905    TIP3     H1       HT       0.417000       1.00800           0
     84631 TIP3     24905    TIP3     H2       HT       0.417000       1.00800           0
     84632 TIP3     24906    TIP3     OH2      OT      -0.834000       15.9994           0
     84633 TIP3     24906    TIP3     H1       HT       0.417000       1.00800           0
     84634 TIP3     24906    TIP3     H2       HT       0.417000       1.00800           0
     84635 TIP3     24907    TIP3     OH2      OT      -0.834000       15.9994           0
     84636 TIP3     24907    TIP3     H1       HT       0.417000       1.00800           0
     84637 TIP3     24907    TIP3     H2       HT       0.417000       1.00800           0
     84638 TIP3     24908    TIP3     OH2      OT      -0.834000       15.9994           0
     84639 TIP3     24908    TIP3     H1       HT       0.417000       1.00800           0
     84640 TIP3     24908    TIP3     H2       HT       0.417000       1.00800           0
     84641 TIP3     24909    TIP3     OH2      OT      -0.834000       15.9994           0
     84642 TIP3     24909    TIP3     H1       HT       0.417000       1.00800           0
     84643 TIP3     24909    TIP3     H2       HT       0.417000       1.00800           0
     84644 TIP3     24910    TIP3     OH2      OT      -0.834000       15.9994           0
     84645 TIP3     24910    TIP3     H1       HT       0.417000       1.00800           0
     84646 TIP3     24910    TIP3     H2       HT       0.417000       1.00800           0
     84647 TIP3     24911    TIP3     OH2      OT      -0.834000       15.9994           0
     84648 TIP3     24911    TIP3     H1       HT       0.417000       1.00800           0
     84649 TIP3     24911    TIP3     H2       HT       0.417000       1.00800           0
     84650 TIP3     24912    TIP3     OH2      OT      -0.834000       15.9994           0
     84651 TIP3     24912    TIP3     H1       HT       0.417000       1.00800           0
     84652 TIP3     24912    TIP3     H2       HT       0.417000       1.00800           0
     84653 TIP3     24913    TIP3     OH2      OT      -0.834000       15.9994           0
     84654 TIP3     24913    TIP3     H1       HT       0.417000       1.00800           0
     84655 TIP3     24913    TIP3     H2       HT       0.417000       1.00800           0
     84656 TIP3     24914    TIP3     OH2      OT      -0.834000       15.9994           0
     84657 TIP3     24914    TIP3     H1       HT       0.417000       1.00800           0
     84658 TIP3     24914    TIP3     H2       HT       0.417000       1.00800           0
     84659 TIP3     24915    TIP3     OH2      OT      -0.834000       15.9994           0
     84660 TIP3     24915    TIP3     H1       HT       0.417000       1.00800           0
     84661 TIP3     24915    TIP3     H2       HT       0.417000       1.00800           0
     84662 TIP3     24916    TIP3     OH2      OT      -0.834000       15.9994           0
     84663 TIP3     24916    TIP3     H1       HT       0.417000       1.00800           0
     84664 TIP3     24916    TIP3     H2       HT       0.417000       1.00800           0
     84665 TIP3     24917    TIP3     OH2      OT      -0.834000       15.9994           0
     84666 TIP3     24917    TIP3     H1       HT       0.417000       1.00800           0
     84667 TIP3     24917    TIP3     H2       HT       0.417000       1.00800           0
     84668 TIP3     24918    TIP3     OH2      OT      -0.834000       15.9994           0
     84669 TIP3     24918    TIP3     H1       HT       0.417000       1.00800           0
     84670 TIP3     24918    TIP3     H2       HT       0.417000       1.00800           0
     84671 TIP3     24919    TIP3     OH2      OT      -0.834000       15.9994           0
     84672 TIP3     24919    TIP3     H1       HT       0.417000       1.00800           0
     84673 TIP3     24919    TIP3     H2       HT       0.417000       1.00800           0
     84674 TIP3     24920    TIP3     OH2      OT      -0.834000       15.9994           0
     84675 TIP3     24920    TIP3     H1       HT       0.417000       1.00800           0
     84676 TIP3     24920    TIP3     H2       HT       0.417000       1.00800           0
     84677 TIP3     24921    TIP3     OH2      OT      -0.834000       15.9994           0
     84678 TIP3     24921    TIP3     H1       HT       0.417000       1.00800           0
     84679 TIP3     24921    TIP3     H2       HT       0.417000       1.00800           0
     84680 TIP3     24922    TIP3     OH2      OT      -0.834000       15.9994           0
     84681 TIP3     24922    TIP3     H1       HT       0.417000       1.00800           0
     84682 TIP3     24922    TIP3     H2       HT       0.417000       1.00800           0
     84683 TIP3     24923    TIP3     OH2      OT      -0.834000       15.9994           0
     84684 TIP3     24923    TIP3     H1       HT       0.417000       1.00800           0
     84685 TIP3     24923    TIP3     H2       HT       0.417000       1.00800           0
     84686 TIP3     24924    TIP3     OH2      OT      -0.834000       15.9994           0
     84687 TIP3     24924    TIP3     H1       HT       0.417000       1.00800           0
     84688 TIP3     24924    TIP3     H2       HT       0.417000       1.00800           0
     84689 TIP3     24925    TIP3     OH2      OT      -0.834000       15.9994           0
     84690 TIP3     24925    TIP3     H1       HT       0.417000       1.00800           0
     84691 TIP3     24925    TIP3     H2       HT       0.417000       1.00800           0
     84692 TIP3     24926    TIP3     OH2      OT      -0.834000       15.9994           0
     84693 TIP3     24926    TIP3     H1       HT       0.417000       1.00800           0
     84694 TIP3     24926    TIP3     H2       HT       0.417000       1.00800           0
     84695 TIP3     24927    TIP3     OH2      OT      -0.834000       15.9994           0
     84696 TIP3     24927    TIP3     H1       HT       0.417000       1.00800           0
     84697 TIP3     24927    TIP3     H2       HT       0.417000       1.00800           0
     84698 TIP3     24928    TIP3     OH2      OT      -0.834000       15.9994           0
     84699 TIP3     24928    TIP3     H1       HT       0.417000       1.00800           0
     84700 TIP3     24928    TIP3     H2       HT       0.417000       1.00800           0
     84701 TIP3     24929    TIP3     OH2      OT      -0.834000       15.9994           0
     84702 TIP3     24929    TIP3     H1       HT       0.417000       1.00800           0
     84703 TIP3     24929    TIP3     H2       HT       0.417000       1.00800           0
     84704 TIP3     24930    TIP3     OH2      OT      -0.834000       15.9994           0
     84705 TIP3     24930    TIP3     H1       HT       0.417000       1.00800           0
     84706 TIP3     24930    TIP3     H2       HT       0.417000       1.00800           0
     84707 TIP3     24931    TIP3     OH2      OT      -0.834000       15.9994           0
     84708 TIP3     24931    TIP3     H1       HT       0.417000       1.00800           0
     84709 TIP3     24931    TIP3     H2       HT       0.417000       1.00800           0
     84710 TIP3     24932    TIP3     OH2      OT      -0.834000       15.9994           0
     84711 TIP3     24932    TIP3     H1       HT       0.417000       1.00800           0
     84712 TIP3     24932    TIP3     H2       HT       0.417000       1.00800           0
     84713 TIP3     24933    TIP3     OH2      OT      -0.834000       15.9994           0
     84714 TIP3     24933    TIP3     H1       HT       0.417000       1.00800           0
     84715 TIP3     24933    TIP3     H2       HT       0.417000       1.00800           0
     84716 TIP3     24934    TIP3     OH2      OT      -0.834000       15.9994           0
     84717 TIP3     24934    TIP3     H1       HT       0.417000       1.00800           0
     84718 TIP3     24934    TIP3     H2       HT       0.417000       1.00800           0
     84719 TIP3     24935    TIP3     OH2      OT      -0.834000       15.9994           0
     84720 TIP3     24935    TIP3     H1       HT       0.417000       1.00800           0
     84721 TIP3     24935    TIP3     H2       HT       0.417000       1.00800           0
     84722 TIP3     24936    TIP3     OH2      OT      -0.834000       15.9994           0
     84723 TIP3     24936    TIP3     H1       HT       0.417000       1.00800           0
     84724 TIP3     24936    TIP3     H2       HT       0.417000       1.00800           0
     84725 TIP3     24937    TIP3     OH2      OT      -0.834000       15.9994           0
     84726 TIP3     24937    TIP3     H1       HT       0.417000       1.00800           0
     84727 TIP3     24937    TIP3     H2       HT       0.417000       1.00800           0
     84728 TIP3     24938    TIP3     OH2      OT      -0.834000       15.9994           0
     84729 TIP3     24938    TIP3     H1       HT       0.417000       1.00800           0
     84730 TIP3     24938    TIP3     H2       HT       0.417000       1.00800           0
     84731 TIP3     24939    TIP3     OH2      OT      -0.834000       15.9994           0
     84732 TIP3     24939    TIP3     H1       HT       0.417000       1.00800           0
     84733 TIP3     24939    TIP3     H2       HT       0.417000       1.00800           0
     84734 TIP3     24940    TIP3     OH2      OT      -0.834000       15.9994           0
     84735 TIP3     24940    TIP3     H1       HT       0.417000       1.00800           0
     84736 TIP3     24940    TIP3     H2       HT       0.417000       1.00800           0
     84737 TIP3     24941    TIP3     OH2      OT      -0.834000       15.9994           0
     84738 TIP3     24941    TIP3     H1       HT       0.417000       1.00800           0
     84739 TIP3     24941    TIP3     H2       HT       0.417000       1.00800           0
     84740 TIP3     24942    TIP3     OH2      OT      -0.834000       15.9994           0
     84741 TIP3     24942    TIP3     H1       HT       0.417000       1.00800           0
     84742 TIP3     24942    TIP3     H2       HT       0.417000       1.00800           0
     84743 TIP3     24943    TIP3     OH2      OT      -0.834000       15.9994           0
     84744 TIP3     24943    TIP3     H1       HT       0.417000       1.00800           0
     84745 TIP3     24943    TIP3     H2       HT       0.417000       1.00800           0
     84746 TIP3     24944    TIP3     OH2      OT      -0.834000       15.9994           0
     84747 TIP3     24944    TIP3     H1       HT       0.417000       1.00800           0
     84748 TIP3     24944    TIP3     H2       HT       0.417000       1.00800           0
     84749 TIP3     24945    TIP3     OH2      OT      -0.834000       15.9994           0
     84750 TIP3     24945    TIP3     H1       HT       0.417000       1.00800           0
     84751 TIP3     24945    TIP3     H2       HT       0.417000       1.00800           0
     84752 TIP3     24946    TIP3     OH2      OT      -0.834000       15.9994           0
     84753 TIP3     24946    TIP3     H1       HT       0.417000       1.00800           0
     84754 TIP3     24946    TIP3     H2       HT       0.417000       1.00800           0
     84755 TIP3     24947    TIP3     OH2      OT      -0.834000       15.9994           0
     84756 TIP3     24947    TIP3     H1       HT       0.417000       1.00800           0
     84757 TIP3     24947    TIP3     H2       HT       0.417000       1.00800           0
     84758 TIP3     24948    TIP3     OH2      OT      -0.834000       15.9994           0
     84759 TIP3     24948    TIP3     H1       HT       0.417000       1.00800           0
     84760 TIP3     24948    TIP3     H2       HT       0.417000       1.00800           0
     84761 TIP3     24949    TIP3     OH2      OT      -0.834000       15.9994           0
     84762 TIP3     24949    TIP3     H1       HT       0.417000       1.00800           0
     84763 TIP3     24949    TIP3     H2       HT       0.417000       1.00800           0
     84764 TIP3     24950    TIP3     OH2      OT      -0.834000       15.9994           0
     84765 TIP3     24950    TIP3     H1       HT       0.417000       1.00800           0
     84766 TIP3     24950    TIP3     H2       HT       0.417000       1.00800           0
     84767 TIP3     24951    TIP3     OH2      OT      -0.834000       15.9994           0
     84768 TIP3     24951    TIP3     H1       HT       0.417000       1.00800           0
     84769 TIP3     24951    TIP3     H2       HT       0.417000       1.00800           0
     84770 TIP3     24952    TIP3     OH2      OT      -0.834000       15.9994           0
     84771 TIP3     24952    TIP3     H1       HT       0.417000       1.00800           0
     84772 TIP3     24952    TIP3     H2       HT       0.417000       1.00800           0
     84773 TIP3     24953    TIP3     OH2      OT      -0.834000       15.9994           0
     84774 TIP3     24953    TIP3     H1       HT       0.417000       1.00800           0
     84775 TIP3     24953    TIP3     H2       HT       0.417000       1.00800           0
     84776 TIP3     24954    TIP3     OH2      OT      -0.834000       15.9994           0
     84777 TIP3     24954    TIP3     H1       HT       0.417000       1.00800           0
     84778 TIP3     24954    TIP3     H2       HT       0.417000       1.00800           0
     84779 TIP3     24955    TIP3     OH2      OT      -0.834000       15.9994           0
     84780 TIP3     24955    TIP3     H1       HT       0.417000       1.00800           0
     84781 TIP3     24955    TIP3     H2       HT       0.417000       1.00800           0
     84782 TIP3     24956    TIP3     OH2      OT      -0.834000       15.9994           0
     84783 TIP3     24956    TIP3     H1       HT       0.417000       1.00800           0
     84784 TIP3     24956    TIP3     H2       HT       0.417000       1.00800           0
     84785 TIP3     24957    TIP3     OH2      OT      -0.834000       15.9994           0
     84786 TIP3     24957    TIP3     H1       HT       0.417000       1.00800           0
     84787 TIP3     24957    TIP3     H2       HT       0.417000       1.00800           0
     84788 TIP3     24958    TIP3     OH2      OT      -0.834000       15.9994           0
     84789 TIP3     24958    TIP3     H1       HT       0.417000       1.00800           0
     84790 TIP3     24958    TIP3     H2       HT       0.417000       1.00800           0
     84791 TIP3     24959    TIP3     OH2      OT      -0.834000       15.9994           0
     84792 TIP3     24959    TIP3     H1       HT       0.417000       1.00800           0
     84793 TIP3     24959    TIP3     H2       HT       0.417000       1.00800           0
     84794 TIP3     24960    TIP3     OH2      OT      -0.834000       15.9994           0
     84795 TIP3     24960    TIP3     H1       HT       0.417000       1.00800           0
     84796 TIP3     24960    TIP3     H2       HT       0.417000       1.00800           0
     84797 TIP3     24961    TIP3     OH2      OT      -0.834000       15.9994           0
     84798 TIP3     24961    TIP3     H1       HT       0.417000       1.00800           0
     84799 TIP3     24961    TIP3     H2       HT       0.417000       1.00800           0
     84800 TIP3     24962    TIP3     OH2      OT      -0.834000       15.9994           0
     84801 TIP3     24962    TIP3     H1       HT       0.417000       1.00800           0
     84802 TIP3     24962    TIP3     H2       HT       0.417000       1.00800           0
     84803 TIP3     24963    TIP3     OH2      OT      -0.834000       15.9994           0
     84804 TIP3     24963    TIP3     H1       HT       0.417000       1.00800           0
     84805 TIP3     24963    TIP3     H2       HT       0.417000       1.00800           0
     84806 TIP3     24964    TIP3     OH2      OT      -0.834000       15.9994           0
     84807 TIP3     24964    TIP3     H1       HT       0.417000       1.00800           0
     84808 TIP3     24964    TIP3     H2       HT       0.417000       1.00800           0
     84809 TIP3     24965    TIP3     OH2      OT      -0.834000       15.9994           0
     84810 TIP3     24965    TIP3     H1       HT       0.417000       1.00800           0
     84811 TIP3     24965    TIP3     H2       HT       0.417000       1.00800           0
     84812 TIP3     24966    TIP3     OH2      OT      -0.834000       15.9994           0
     84813 TIP3     24966    TIP3     H1       HT       0.417000       1.00800           0
     84814 TIP3     24966    TIP3     H2       HT       0.417000       1.00800           0
     84815 TIP3     24967    TIP3     OH2      OT      -0.834000       15.9994           0
     84816 TIP3     24967    TIP3     H1       HT       0.417000       1.00800           0
     84817 TIP3     24967    TIP3     H2       HT       0.417000       1.00800           0
     84818 TIP3     24968    TIP3     OH2      OT      -0.834000       15.9994           0
     84819 TIP3     24968    TIP3     H1       HT       0.417000       1.00800           0
     84820 TIP3     24968    TIP3     H2       HT       0.417000       1.00800           0
     84821 TIP3     24969    TIP3     OH2      OT      -0.834000       15.9994           0
     84822 TIP3     24969    TIP3     H1       HT       0.417000       1.00800           0
     84823 TIP3     24969    TIP3     H2       HT       0.417000       1.00800           0
     84824 TIP3     24970    TIP3     OH2      OT      -0.834000       15.9994           0
     84825 TIP3     24970    TIP3     H1       HT       0.417000       1.00800           0
     84826 TIP3     24970    TIP3     H2       HT       0.417000       1.00800           0
     84827 TIP3     24971    TIP3     OH2      OT      -0.834000       15.9994           0
     84828 TIP3     24971    TIP3     H1       HT       0.417000       1.00800           0
     84829 TIP3     24971    TIP3     H2       HT       0.417000       1.00800           0
     84830 TIP3     24972    TIP3     OH2      OT      -0.834000       15.9994           0
     84831 TIP3     24972    TIP3     H1       HT       0.417000       1.00800           0
     84832 TIP3     24972    TIP3     H2       HT       0.417000       1.00800           0
     84833 TIP3     24973    TIP3     OH2      OT      -0.834000       15.9994           0
     84834 TIP3     24973    TIP3     H1       HT       0.417000       1.00800           0
     84835 TIP3     24973    TIP3     H2       HT       0.417000       1.00800           0
     84836 TIP3     24974    TIP3     OH2      OT      -0.834000       15.9994           0
     84837 TIP3     24974    TIP3     H1       HT       0.417000       1.00800           0
     84838 TIP3     24974    TIP3     H2       HT       0.417000       1.00800           0
     84839 TIP3     24975    TIP3     OH2      OT      -0.834000       15.9994           0
     84840 TIP3     24975    TIP3     H1       HT       0.417000       1.00800           0
     84841 TIP3     24975    TIP3     H2       HT       0.417000       1.00800           0
     84842 TIP3     24976    TIP3     OH2      OT      -0.834000       15.9994           0
     84843 TIP3     24976    TIP3     H1       HT       0.417000       1.00800           0
     84844 TIP3     24976    TIP3     H2       HT       0.417000       1.00800           0
     84845 TIP3     24977    TIP3     OH2      OT      -0.834000       15.9994           0
     84846 TIP3     24977    TIP3     H1       HT       0.417000       1.00800           0
     84847 TIP3     24977    TIP3     H2       HT       0.417000       1.00800           0
     84848 TIP3     24978    TIP3     OH2      OT      -0.834000       15.9994           0
     84849 TIP3     24978    TIP3     H1       HT       0.417000       1.00800           0
     84850 TIP3     24978    TIP3     H2       HT       0.417000       1.00800           0
     84851 TIP3     24979    TIP3     OH2      OT      -0.834000       15.9994           0
     84852 TIP3     24979    TIP3     H1       HT       0.417000       1.00800           0
     84853 TIP3     24979    TIP3     H2       HT       0.417000       1.00800           0
     84854 TIP3     24980    TIP3     OH2      OT      -0.834000       15.9994           0
     84855 TIP3     24980    TIP3     H1       HT       0.417000       1.00800           0
     84856 TIP3     24980    TIP3     H2       HT       0.417000       1.00800           0
     84857 TIP3     24981    TIP3     OH2      OT      -0.834000       15.9994           0
     84858 TIP3     24981    TIP3     H1       HT       0.417000       1.00800           0
     84859 TIP3     24981    TIP3     H2       HT       0.417000       1.00800           0
     84860 TIP3     24982    TIP3     OH2      OT      -0.834000       15.9994           0
     84861 TIP3     24982    TIP3     H1       HT       0.417000       1.00800           0
     84862 TIP3     24982    TIP3     H2       HT       0.417000       1.00800           0
     84863 TIP3     24983    TIP3     OH2      OT      -0.834000       15.9994           0
     84864 TIP3     24983    TIP3     H1       HT       0.417000       1.00800           0
     84865 TIP3     24983    TIP3     H2       HT       0.417000       1.00800           0
     84866 TIP3     24984    TIP3     OH2      OT      -0.834000       15.9994           0
     84867 TIP3     24984    TIP3     H1       HT       0.417000       1.00800           0
     84868 TIP3     24984    TIP3     H2       HT       0.417000       1.00800           0
     84869 TIP3     24985    TIP3     OH2      OT      -0.834000       15.9994           0
     84870 TIP3     24985    TIP3     H1       HT       0.417000       1.00800           0
     84871 TIP3     24985    TIP3     H2       HT       0.417000       1.00800           0
     84872 TIP3     24986    TIP3     OH2      OT      -0.834000       15.9994           0
     84873 TIP3     24986    TIP3     H1       HT       0.417000       1.00800           0
     84874 TIP3     24986    TIP3     H2       HT       0.417000       1.00800           0
     84875 TIP3     24987    TIP3     OH2      OT      -0.834000       15.9994           0
     84876 TIP3     24987    TIP3     H1       HT       0.417000       1.00800           0
     84877 TIP3     24987    TIP3     H2       HT       0.417000       1.00800           0
     84878 TIP3     24988    TIP3     OH2      OT      -0.834000       15.9994           0
     84879 TIP3     24988    TIP3     H1       HT       0.417000       1.00800           0
     84880 TIP3     24988    TIP3     H2       HT       0.417000       1.00800           0
     84881 TIP3     24989    TIP3     OH2      OT      -0.834000       15.9994           0
     84882 TIP3     24989    TIP3     H1       HT       0.417000       1.00800           0
     84883 TIP3     24989    TIP3     H2       HT       0.417000       1.00800           0
     84884 TIP3     24990    TIP3     OH2      OT      -0.834000       15.9994           0
     84885 TIP3     24990    TIP3     H1       HT       0.417000       1.00800           0
     84886 TIP3     24990    TIP3     H2       HT       0.417000       1.00800           0
     84887 TIP3     24991    TIP3     OH2      OT      -0.834000       15.9994           0
     84888 TIP3     24991    TIP3     H1       HT       0.417000       1.00800           0
     84889 TIP3     24991    TIP3     H2       HT       0.417000       1.00800           0
     84890 TIP3     24992    TIP3     OH2      OT      -0.834000       15.9994           0
     84891 TIP3     24992    TIP3     H1       HT       0.417000       1.00800           0
     84892 TIP3     24992    TIP3     H2       HT       0.417000       1.00800           0
     84893 TIP3     24993    TIP3     OH2      OT      -0.834000       15.9994           0
     84894 TIP3     24993    TIP3     H1       HT       0.417000       1.00800           0
     84895 TIP3     24993    TIP3     H2       HT       0.417000       1.00800           0
     84896 TIP3     24994    TIP3     OH2      OT      -0.834000       15.9994           0
     84897 TIP3     24994    TIP3     H1       HT       0.417000       1.00800           0
     84898 TIP3     24994    TIP3     H2       HT       0.417000       1.00800           0
     84899 TIP3     24995    TIP3     OH2      OT      -0.834000       15.9994           0
     84900 TIP3     24995    TIP3     H1       HT       0.417000       1.00800           0
     84901 TIP3     24995    TIP3     H2       HT       0.417000       1.00800           0
     84902 TIP3     24996    TIP3     OH2      OT      -0.834000       15.9994           0
     84903 TIP3     24996    TIP3     H1       HT       0.417000       1.00800           0
     84904 TIP3     24996    TIP3     H2       HT       0.417000       1.00800           0
     84905 TIP3     24997    TIP3     OH2      OT      -0.834000       15.9994           0
     84906 TIP3     24997    TIP3     H1       HT       0.417000       1.00800           0
     84907 TIP3     24997    TIP3     H2       HT       0.417000       1.00800           0
     84908 TIP3     24998    TIP3     OH2      OT      -0.834000       15.9994           0
     84909 TIP3     24998    TIP3     H1       HT       0.417000       1.00800           0
     84910 TIP3     24998    TIP3     H2       HT       0.417000       1.00800           0
     84911 TIP3     24999    TIP3     OH2      OT      -0.834000       15.9994           0
     84912 TIP3     24999    TIP3     H1       HT       0.417000       1.00800           0
     84913 TIP3     24999    TIP3     H2       HT       0.417000       1.00800           0
     84914 TIP3     25000    TIP3     OH2      OT      -0.834000       15.9994           0
     84915 TIP3     25000    TIP3     H1       HT       0.417000       1.00800           0
     84916 TIP3     25000    TIP3     H2       HT       0.417000       1.00800           0
     84917 TIP3     25001    TIP3     OH2      OT      -0.834000       15.9994           0
     84918 TIP3     25001    TIP3     H1       HT       0.417000       1.00800           0
     84919 TIP3     25001    TIP3     H2       HT       0.417000       1.00800           0
     84920 TIP3     25002    TIP3     OH2      OT      -0.834000       15.9994           0
     84921 TIP3     25002    TIP3     H1       HT       0.417000       1.00800           0
     84922 TIP3     25002    TIP3     H2       HT       0.417000       1.00800           0
     84923 TIP3     25003    TIP3     OH2      OT      -0.834000       15.9994           0
     84924 TIP3     25003    TIP3     H1       HT       0.417000       1.00800           0
     84925 TIP3     25003    TIP3     H2       HT       0.417000       1.00800           0
     84926 TIP3     25004    TIP3     OH2      OT      -0.834000       15.9994           0
     84927 TIP3     25004    TIP3     H1       HT       0.417000       1.00800           0
     84928 TIP3     25004    TIP3     H2       HT       0.417000       1.00800           0
     84929 TIP3     25005    TIP3     OH2      OT      -0.834000       15.9994           0
     84930 TIP3     25005    TIP3     H1       HT       0.417000       1.00800           0
     84931 TIP3     25005    TIP3     H2       HT       0.417000       1.00800           0
     84932 TIP3     25006    TIP3     OH2      OT      -0.834000       15.9994           0
     84933 TIP3     25006    TIP3     H1       HT       0.417000       1.00800           0
     84934 TIP3     25006    TIP3     H2       HT       0.417000       1.00800           0
     84935 TIP3     25007    TIP3     OH2      OT      -0.834000       15.9994           0
     84936 TIP3     25007    TIP3     H1       HT       0.417000       1.00800           0
     84937 TIP3     25007    TIP3     H2       HT       0.417000       1.00800           0
     84938 TIP3     25008    TIP3     OH2      OT      -0.834000       15.9994           0
     84939 TIP3     25008    TIP3     H1       HT       0.417000       1.00800           0
     84940 TIP3     25008    TIP3     H2       HT       0.417000       1.00800           0
     84941 TIP3     25009    TIP3     OH2      OT      -0.834000       15.9994           0
     84942 TIP3     25009    TIP3     H1       HT       0.417000       1.00800           0
     84943 TIP3     25009    TIP3     H2       HT       0.417000       1.00800           0
     84944 TIP3     25010    TIP3     OH2      OT      -0.834000       15.9994           0
     84945 TIP3     25010    TIP3     H1       HT       0.417000       1.00800           0
     84946 TIP3     25010    TIP3     H2       HT       0.417000       1.00800           0
     84947 TIP3     25011    TIP3     OH2      OT      -0.834000       15.9994           0
     84948 TIP3     25011    TIP3     H1       HT       0.417000       1.00800           0
     84949 TIP3     25011    TIP3     H2       HT       0.417000       1.00800           0
     84950 TIP3     25012    TIP3     OH2      OT      -0.834000       15.9994           0
     84951 TIP3     25012    TIP3     H1       HT       0.417000       1.00800           0
     84952 TIP3     25012    TIP3     H2       HT       0.417000       1.00800           0
     84953 TIP3     25013    TIP3     OH2      OT      -0.834000       15.9994           0
     84954 TIP3     25013    TIP3     H1       HT       0.417000       1.00800           0
     84955 TIP3     25013    TIP3     H2       HT       0.417000       1.00800           0
     84956 TIP3     25014    TIP3     OH2      OT      -0.834000       15.9994           0
     84957 TIP3     25014    TIP3     H1       HT       0.417000       1.00800           0
     84958 TIP3     25014    TIP3     H2       HT       0.417000       1.00800           0
     84959 TIP3     25015    TIP3     OH2      OT      -0.834000       15.9994           0
     84960 TIP3     25015    TIP3     H1       HT       0.417000       1.00800           0
     84961 TIP3     25015    TIP3     H2       HT       0.417000       1.00800           0
     84962 TIP3     25016    TIP3     OH2      OT      -0.834000       15.9994           0
     84963 TIP3     25016    TIP3     H1       HT       0.417000       1.00800           0
     84964 TIP3     25016    TIP3     H2       HT       0.417000       1.00800           0
     84965 TIP3     25017    TIP3     OH2      OT      -0.834000       15.9994           0
     84966 TIP3     25017    TIP3     H1       HT       0.417000       1.00800           0
     84967 TIP3     25017    TIP3     H2       HT       0.417000       1.00800           0
     84968 TIP3     25018    TIP3     OH2      OT      -0.834000       15.9994           0
     84969 TIP3     25018    TIP3     H1       HT       0.417000       1.00800           0
     84970 TIP3     25018    TIP3     H2       HT       0.417000       1.00800           0
     84971 TIP3     25019    TIP3     OH2      OT      -0.834000       15.9994           0
     84972 TIP3     25019    TIP3     H1       HT       0.417000       1.00800           0
     84973 TIP3     25019    TIP3     H2       HT       0.417000       1.00800           0
     84974 TIP3     25020    TIP3     OH2      OT      -0.834000       15.9994           0
     84975 TIP3     25020    TIP3     H1       HT       0.417000       1.00800           0
     84976 TIP3     25020    TIP3     H2       HT       0.417000       1.00800           0
     84977 TIP3     25021    TIP3     OH2      OT      -0.834000       15.9994           0
     84978 TIP3     25021    TIP3     H1       HT       0.417000       1.00800           0
     84979 TIP3     25021    TIP3     H2       HT       0.417000       1.00800           0
     84980 TIP3     25022    TIP3     OH2      OT      -0.834000       15.9994           0
     84981 TIP3     25022    TIP3     H1       HT       0.417000       1.00800           0
     84982 TIP3     25022    TIP3     H2       HT       0.417000       1.00800           0
     84983 TIP3     25023    TIP3     OH2      OT      -0.834000       15.9994           0
     84984 TIP3     25023    TIP3     H1       HT       0.417000       1.00800           0
     84985 TIP3     25023    TIP3     H2       HT       0.417000       1.00800           0
     84986 TIP3     25024    TIP3     OH2      OT      -0.834000       15.9994           0
     84987 TIP3     25024    TIP3     H1       HT       0.417000       1.00800           0
     84988 TIP3     25024    TIP3     H2       HT       0.417000       1.00800           0
     84989 TIP3     25025    TIP3     OH2      OT      -0.834000       15.9994           0
     84990 TIP3     25025    TIP3     H1       HT       0.417000       1.00800           0
     84991 TIP3     25025    TIP3     H2       HT       0.417000       1.00800           0
     84992 TIP3     25026    TIP3     OH2      OT      -0.834000       15.9994           0
     84993 TIP3     25026    TIP3     H1       HT       0.417000       1.00800           0
     84994 TIP3     25026    TIP3     H2       HT       0.417000       1.00800           0
     84995 TIP3     25027    TIP3     OH2      OT      -0.834000       15.9994           0
     84996 TIP3     25027    TIP3     H1       HT       0.417000       1.00800           0
     84997 TIP3     25027    TIP3     H2       HT       0.417000       1.00800           0
     84998 TIP3     25028    TIP3     OH2      OT      -0.834000       15.9994           0
     84999 TIP3     25028    TIP3     H1       HT       0.417000       1.00800           0
     85000 TIP3     25028    TIP3     H2       HT       0.417000       1.00800           0
     85001 TIP3     25029    TIP3     OH2      OT      -0.834000       15.9994           0
     85002 TIP3     25029    TIP3     H1       HT       0.417000       1.00800           0
     85003 TIP3     25029    TIP3     H2       HT       0.417000       1.00800           0
     85004 TIP3     25030    TIP3     OH2      OT      -0.834000       15.9994           0
     85005 TIP3     25030    TIP3     H1       HT       0.417000       1.00800           0
     85006 TIP3     25030    TIP3     H2       HT       0.417000       1.00800           0
     85007 TIP3     25031    TIP3     OH2      OT      -0.834000       15.9994           0
     85008 TIP3     25031    TIP3     H1       HT       0.417000       1.00800           0
     85009 TIP3     25031    TIP3     H2       HT       0.417000       1.00800           0
     85010 TIP3     25032    TIP3     OH2      OT      -0.834000       15.9994           0
     85011 TIP3     25032    TIP3     H1       HT       0.417000       1.00800           0
     85012 TIP3     25032    TIP3     H2       HT       0.417000       1.00800           0
     85013 TIP3     25033    TIP3     OH2      OT      -0.834000       15.9994           0
     85014 TIP3     25033    TIP3     H1       HT       0.417000       1.00800           0
     85015 TIP3     25033    TIP3     H2       HT       0.417000       1.00800           0
     85016 TIP3     25034    TIP3     OH2      OT      -0.834000       15.9994           0
     85017 TIP3     25034    TIP3     H1       HT       0.417000       1.00800           0
     85018 TIP3     25034    TIP3     H2       HT       0.417000       1.00800           0
     85019 TIP3     25035    TIP3     OH2      OT      -0.834000       15.9994           0
     85020 TIP3     25035    TIP3     H1       HT       0.417000       1.00800           0
     85021 TIP3     25035    TIP3     H2       HT       0.417000       1.00800           0
     85022 TIP3     25036    TIP3     OH2      OT      -0.834000       15.9994           0
     85023 TIP3     25036    TIP3     H1       HT       0.417000       1.00800           0
     85024 TIP3     25036    TIP3     H2       HT       0.417000       1.00800           0
     85025 TIP3     25037    TIP3     OH2      OT      -0.834000       15.9994           0
     85026 TIP3     25037    TIP3     H1       HT       0.417000       1.00800           0
     85027 TIP3     25037    TIP3     H2       HT       0.417000       1.00800           0
     85028 TIP3     25038    TIP3     OH2      OT      -0.834000       15.9994           0
     85029 TIP3     25038    TIP3     H1       HT       0.417000       1.00800           0
     85030 TIP3     25038    TIP3     H2       HT       0.417000       1.00800           0
     85031 TIP3     25039    TIP3     OH2      OT      -0.834000       15.9994           0
     85032 TIP3     25039    TIP3     H1       HT       0.417000       1.00800           0
     85033 TIP3     25039    TIP3     H2       HT       0.417000       1.00800           0
     85034 TIP3     25040    TIP3     OH2      OT      -0.834000       15.9994           0
     85035 TIP3     25040    TIP3     H1       HT       0.417000       1.00800           0
     85036 TIP3     25040    TIP3     H2       HT       0.417000       1.00800           0
     85037 TIP3     25041    TIP3     OH2      OT      -0.834000       15.9994           0
     85038 TIP3     25041    TIP3     H1       HT       0.417000       1.00800           0
     85039 TIP3     25041    TIP3     H2       HT       0.417000       1.00800           0
     85040 TIP3     25042    TIP3     OH2      OT      -0.834000       15.9994           0
     85041 TIP3     25042    TIP3     H1       HT       0.417000       1.00800           0
     85042 TIP3     25042    TIP3     H2       HT       0.417000       1.00800           0
     85043 TIP3     25043    TIP3     OH2      OT      -0.834000       15.9994           0
     85044 TIP3     25043    TIP3     H1       HT       0.417000       1.00800           0
     85045 TIP3     25043    TIP3     H2       HT       0.417000       1.00800           0
     85046 TIP3     25044    TIP3     OH2      OT      -0.834000       15.9994           0
     85047 TIP3     25044    TIP3     H1       HT       0.417000       1.00800           0
     85048 TIP3     25044    TIP3     H2       HT       0.417000       1.00800           0
     85049 TIP3     25045    TIP3     OH2      OT      -0.834000       15.9994           0
     85050 TIP3     25045    TIP3     H1       HT       0.417000       1.00800           0
     85051 TIP3     25045    TIP3     H2       HT       0.417000       1.00800           0
     85052 TIP3     25046    TIP3     OH2      OT      -0.834000       15.9994           0
     85053 TIP3     25046    TIP3     H1       HT       0.417000       1.00800           0
     85054 TIP3     25046    TIP3     H2       HT       0.417000       1.00800           0
     85055 TIP3     25047    TIP3     OH2      OT      -0.834000       15.9994           0
     85056 TIP3     25047    TIP3     H1       HT       0.417000       1.00800           0
     85057 TIP3     25047    TIP3     H2       HT       0.417000       1.00800           0
     85058 TIP3     25048    TIP3     OH2      OT      -0.834000       15.9994           0
     85059 TIP3     25048    TIP3     H1       HT       0.417000       1.00800           0
     85060 TIP3     25048    TIP3     H2       HT       0.417000       1.00800           0
     85061 TIP3     25049    TIP3     OH2      OT      -0.834000       15.9994           0
     85062 TIP3     25049    TIP3     H1       HT       0.417000       1.00800           0
     85063 TIP3     25049    TIP3     H2       HT       0.417000       1.00800           0
     85064 TIP3     25050    TIP3     OH2      OT      -0.834000       15.9994           0
     85065 TIP3     25050    TIP3     H1       HT       0.417000       1.00800           0
     85066 TIP3     25050    TIP3     H2       HT       0.417000       1.00800           0
     85067 TIP3     25051    TIP3     OH2      OT      -0.834000       15.9994           0
     85068 TIP3     25051    TIP3     H1       HT       0.417000       1.00800           0
     85069 TIP3     25051    TIP3     H2       HT       0.417000       1.00800           0
     85070 TIP3     25052    TIP3     OH2      OT      -0.834000       15.9994           0
     85071 TIP3     25052    TIP3     H1       HT       0.417000       1.00800           0
     85072 TIP3     25052    TIP3     H2       HT       0.417000       1.00800           0
     85073 TIP3     25053    TIP3     OH2      OT      -0.834000       15.9994           0
     85074 TIP3     25053    TIP3     H1       HT       0.417000       1.00800           0
     85075 TIP3     25053    TIP3     H2       HT       0.417000       1.00800           0
     85076 TIP3     25054    TIP3     OH2      OT      -0.834000       15.9994           0
     85077 TIP3     25054    TIP3     H1       HT       0.417000       1.00800           0
     85078 TIP3     25054    TIP3     H2       HT       0.417000       1.00800           0
     85079 TIP3     25055    TIP3     OH2      OT      -0.834000       15.9994           0
     85080 TIP3     25055    TIP3     H1       HT       0.417000       1.00800           0
     85081 TIP3     25055    TIP3     H2       HT       0.417000       1.00800           0
     85082 TIP3     25056    TIP3     OH2      OT      -0.834000       15.9994           0
     85083 TIP3     25056    TIP3     H1       HT       0.417000       1.00800           0
     85084 TIP3     25056    TIP3     H2       HT       0.417000       1.00800           0
     85085 TIP3     25057    TIP3     OH2      OT      -0.834000       15.9994           0
     85086 TIP3     25057    TIP3     H1       HT       0.417000       1.00800           0
     85087 TIP3     25057    TIP3     H2       HT       0.417000       1.00800           0
     85088 TIP3     25058    TIP3     OH2      OT      -0.834000       15.9994           0
     85089 TIP3     25058    TIP3     H1       HT       0.417000       1.00800           0
     85090 TIP3     25058    TIP3     H2       HT       0.417000       1.00800           0
     85091 TIP3     25059    TIP3     OH2      OT      -0.834000       15.9994           0
     85092 TIP3     25059    TIP3     H1       HT       0.417000       1.00800           0
     85093 TIP3     25059    TIP3     H2       HT       0.417000       1.00800           0
     85094 TIP3     25060    TIP3     OH2      OT      -0.834000       15.9994           0
     85095 TIP3     25060    TIP3     H1       HT       0.417000       1.00800           0
     85096 TIP3     25060    TIP3     H2       HT       0.417000       1.00800           0
     85097 TIP3     25061    TIP3     OH2      OT      -0.834000       15.9994           0
     85098 TIP3     25061    TIP3     H1       HT       0.417000       1.00800           0
     85099 TIP3     25061    TIP3     H2       HT       0.417000       1.00800           0
     85100 TIP3     25062    TIP3     OH2      OT      -0.834000       15.9994           0
     85101 TIP3     25062    TIP3     H1       HT       0.417000       1.00800           0
     85102 TIP3     25062    TIP3     H2       HT       0.417000       1.00800           0
     85103 TIP3     25063    TIP3     OH2      OT      -0.834000       15.9994           0
     85104 TIP3     25063    TIP3     H1       HT       0.417000       1.00800           0
     85105 TIP3     25063    TIP3     H2       HT       0.417000       1.00800           0
     85106 TIP3     25064    TIP3     OH2      OT      -0.834000       15.9994           0
     85107 TIP3     25064    TIP3     H1       HT       0.417000       1.00800           0
     85108 TIP3     25064    TIP3     H2       HT       0.417000       1.00800           0
     85109 TIP3     25065    TIP3     OH2      OT      -0.834000       15.9994           0
     85110 TIP3     25065    TIP3     H1       HT       0.417000       1.00800           0
     85111 TIP3     25065    TIP3     H2       HT       0.417000       1.00800           0
     85112 TIP3     25066    TIP3     OH2      OT      -0.834000       15.9994           0
     85113 TIP3     25066    TIP3     H1       HT       0.417000       1.00800           0
     85114 TIP3     25066    TIP3     H2       HT       0.417000       1.00800           0
     85115 TIP3     25067    TIP3     OH2      OT      -0.834000       15.9994           0
     85116 TIP3     25067    TIP3     H1       HT       0.417000       1.00800           0
     85117 TIP3     25067    TIP3     H2       HT       0.417000       1.00800           0
     85118 TIP3     25068    TIP3     OH2      OT      -0.834000       15.9994           0
     85119 TIP3     25068    TIP3     H1       HT       0.417000       1.00800           0
     85120 TIP3     25068    TIP3     H2       HT       0.417000       1.00800           0
     85121 TIP3     25069    TIP3     OH2      OT      -0.834000       15.9994           0
     85122 TIP3     25069    TIP3     H1       HT       0.417000       1.00800           0
     85123 TIP3     25069    TIP3     H2       HT       0.417000       1.00800           0
     85124 TIP3     25070    TIP3     OH2      OT      -0.834000       15.9994           0
     85125 TIP3     25070    TIP3     H1       HT       0.417000       1.00800           0
     85126 TIP3     25070    TIP3     H2       HT       0.417000       1.00800           0
     85127 TIP3     25071    TIP3     OH2      OT      -0.834000       15.9994           0
     85128 TIP3     25071    TIP3     H1       HT       0.417000       1.00800           0
     85129 TIP3     25071    TIP3     H2       HT       0.417000       1.00800           0
     85130 TIP3     25072    TIP3     OH2      OT      -0.834000       15.9994           0
     85131 TIP3     25072    TIP3     H1       HT       0.417000       1.00800           0
     85132 TIP3     25072    TIP3     H2       HT       0.417000       1.00800           0
     85133 TIP3     25073    TIP3     OH2      OT      -0.834000       15.9994           0
     85134 TIP3     25073    TIP3     H1       HT       0.417000       1.00800           0
     85135 TIP3     25073    TIP3     H2       HT       0.417000       1.00800           0
     85136 TIP3     25074    TIP3     OH2      OT      -0.834000       15.9994           0
     85137 TIP3     25074    TIP3     H1       HT       0.417000       1.00800           0
     85138 TIP3     25074    TIP3     H2       HT       0.417000       1.00800           0
     85139 TIP3     25075    TIP3     OH2      OT      -0.834000       15.9994           0
     85140 TIP3     25075    TIP3     H1       HT       0.417000       1.00800           0
     85141 TIP3     25075    TIP3     H2       HT       0.417000       1.00800           0
     85142 TIP3     25076    TIP3     OH2      OT      -0.834000       15.9994           0
     85143 TIP3     25076    TIP3     H1       HT       0.417000       1.00800           0
     85144 TIP3     25076    TIP3     H2       HT       0.417000       1.00800           0
     85145 TIP3     25077    TIP3     OH2      OT      -0.834000       15.9994           0
     85146 TIP3     25077    TIP3     H1       HT       0.417000       1.00800           0
     85147 TIP3     25077    TIP3     H2       HT       0.417000       1.00800           0
     85148 TIP3     25078    TIP3     OH2      OT      -0.834000       15.9994           0
     85149 TIP3     25078    TIP3     H1       HT       0.417000       1.00800           0
     85150 TIP3     25078    TIP3     H2       HT       0.417000       1.00800           0
     85151 TIP3     25079    TIP3     OH2      OT      -0.834000       15.9994           0
     85152 TIP3     25079    TIP3     H1       HT       0.417000       1.00800           0
     85153 TIP3     25079    TIP3     H2       HT       0.417000       1.00800           0
     85154 TIP3     25080    TIP3     OH2      OT      -0.834000       15.9994           0
     85155 TIP3     25080    TIP3     H1       HT       0.417000       1.00800           0
     85156 TIP3     25080    TIP3     H2       HT       0.417000       1.00800           0
     85157 TIP3     25081    TIP3     OH2      OT      -0.834000       15.9994           0
     85158 TIP3     25081    TIP3     H1       HT       0.417000       1.00800           0
     85159 TIP3     25081    TIP3     H2       HT       0.417000       1.00800           0
     85160 TIP3     25082    TIP3     OH2      OT      -0.834000       15.9994           0
     85161 TIP3     25082    TIP3     H1       HT       0.417000       1.00800           0
     85162 TIP3     25082    TIP3     H2       HT       0.417000       1.00800           0
     85163 TIP3     25083    TIP3     OH2      OT      -0.834000       15.9994           0
     85164 TIP3     25083    TIP3     H1       HT       0.417000       1.00800           0
     85165 TIP3     25083    TIP3     H2       HT       0.417000       1.00800           0
     85166 TIP3     25084    TIP3     OH2      OT      -0.834000       15.9994           0
     85167 TIP3     25084    TIP3     H1       HT       0.417000       1.00800           0
     85168 TIP3     25084    TIP3     H2       HT       0.417000       1.00800           0
     85169 TIP3     25085    TIP3     OH2      OT      -0.834000       15.9994           0
     85170 TIP3     25085    TIP3     H1       HT       0.417000       1.00800           0
     85171 TIP3     25085    TIP3     H2       HT       0.417000       1.00800           0
     85172 TIP3     25086    TIP3     OH2      OT      -0.834000       15.9994           0
     85173 TIP3     25086    TIP3     H1       HT       0.417000       1.00800           0
     85174 TIP3     25086    TIP3     H2       HT       0.417000       1.00800           0
     85175 TIP3     25087    TIP3     OH2      OT      -0.834000       15.9994           0
     85176 TIP3     25087    TIP3     H1       HT       0.417000       1.00800           0
     85177 TIP3     25087    TIP3     H2       HT       0.417000       1.00800           0
     85178 TIP3     25088    TIP3     OH2      OT      -0.834000       15.9994           0
     85179 TIP3     25088    TIP3     H1       HT       0.417000       1.00800           0
     85180 TIP3     25088    TIP3     H2       HT       0.417000       1.00800           0
     85181 TIP3     25089    TIP3     OH2      OT      -0.834000       15.9994           0
     85182 TIP3     25089    TIP3     H1       HT       0.417000       1.00800           0
     85183 TIP3     25089    TIP3     H2       HT       0.417000       1.00800           0
     85184 TIP3     25090    TIP3     OH2      OT      -0.834000       15.9994           0
     85185 TIP3     25090    TIP3     H1       HT       0.417000       1.00800           0
     85186 TIP3     25090    TIP3     H2       HT       0.417000       1.00800           0
     85187 TIP3     25091    TIP3     OH2      OT      -0.834000       15.9994           0
     85188 TIP3     25091    TIP3     H1       HT       0.417000       1.00800           0
     85189 TIP3     25091    TIP3     H2       HT       0.417000       1.00800           0
     85190 TIP3     25092    TIP3     OH2      OT      -0.834000       15.9994           0
     85191 TIP3     25092    TIP3     H1       HT       0.417000       1.00800           0
     85192 TIP3     25092    TIP3     H2       HT       0.417000       1.00800           0
     85193 TIP3     25093    TIP3     OH2      OT      -0.834000       15.9994           0
     85194 TIP3     25093    TIP3     H1       HT       0.417000       1.00800           0
     85195 TIP3     25093    TIP3     H2       HT       0.417000       1.00800           0
     85196 TIP3     25094    TIP3     OH2      OT      -0.834000       15.9994           0
     85197 TIP3     25094    TIP3     H1       HT       0.417000       1.00800           0
     85198 TIP3     25094    TIP3     H2       HT       0.417000       1.00800           0
     85199 TIP3     25095    TIP3     OH2      OT      -0.834000       15.9994           0
     85200 TIP3     25095    TIP3     H1       HT       0.417000       1.00800           0
     85201 TIP3     25095    TIP3     H2       HT       0.417000       1.00800           0
     85202 TIP3     25096    TIP3     OH2      OT      -0.834000       15.9994           0
     85203 TIP3     25096    TIP3     H1       HT       0.417000       1.00800           0
     85204 TIP3     25096    TIP3     H2       HT       0.417000       1.00800           0
     85205 TIP3     25097    TIP3     OH2      OT      -0.834000       15.9994           0
     85206 TIP3     25097    TIP3     H1       HT       0.417000       1.00800           0
     85207 TIP3     25097    TIP3     H2       HT       0.417000       1.00800           0
     85208 TIP3     25098    TIP3     OH2      OT      -0.834000       15.9994           0
     85209 TIP3     25098    TIP3     H1       HT       0.417000       1.00800           0
     85210 TIP3     25098    TIP3     H2       HT       0.417000       1.00800           0
     85211 TIP3     25099    TIP3     OH2      OT      -0.834000       15.9994           0
     85212 TIP3     25099    TIP3     H1       HT       0.417000       1.00800           0
     85213 TIP3     25099    TIP3     H2       HT       0.417000       1.00800           0
     85214 TIP3     25100    TIP3     OH2      OT      -0.834000       15.9994           0
     85215 TIP3     25100    TIP3     H1       HT       0.417000       1.00800           0
     85216 TIP3     25100    TIP3     H2       HT       0.417000       1.00800           0
     85217 TIP3     25101    TIP3     OH2      OT      -0.834000       15.9994           0
     85218 TIP3     25101    TIP3     H1       HT       0.417000       1.00800           0
     85219 TIP3     25101    TIP3     H2       HT       0.417000       1.00800           0
     85220 TIP3     25102    TIP3     OH2      OT      -0.834000       15.9994           0
     85221 TIP3     25102    TIP3     H1       HT       0.417000       1.00800           0
     85222 TIP3     25102    TIP3     H2       HT       0.417000       1.00800           0
     85223 TIP3     25103    TIP3     OH2      OT      -0.834000       15.9994           0
     85224 TIP3     25103    TIP3     H1       HT       0.417000       1.00800           0
     85225 TIP3     25103    TIP3     H2       HT       0.417000       1.00800           0
     85226 TIP3     25104    TIP3     OH2      OT      -0.834000       15.9994           0
     85227 TIP3     25104    TIP3     H1       HT       0.417000       1.00800           0
     85228 TIP3     25104    TIP3     H2       HT       0.417000       1.00800           0
     85229 TIP3     25105    TIP3     OH2      OT      -0.834000       15.9994           0
     85230 TIP3     25105    TIP3     H1       HT       0.417000       1.00800           0
     85231 TIP3     25105    TIP3     H2       HT       0.417000       1.00800           0
     85232 TIP3     25106    TIP3     OH2      OT      -0.834000       15.9994           0
     85233 TIP3     25106    TIP3     H1       HT       0.417000       1.00800           0
     85234 TIP3     25106    TIP3     H2       HT       0.417000       1.00800           0
     85235 TIP3     25107    TIP3     OH2      OT      -0.834000       15.9994           0
     85236 TIP3     25107    TIP3     H1       HT       0.417000       1.00800           0
     85237 TIP3     25107    TIP3     H2       HT       0.417000       1.00800           0
     85238 TIP3     25108    TIP3     OH2      OT      -0.834000       15.9994           0
     85239 TIP3     25108    TIP3     H1       HT       0.417000       1.00800           0
     85240 TIP3     25108    TIP3     H2       HT       0.417000       1.00800           0
     85241 TIP3     25109    TIP3     OH2      OT      -0.834000       15.9994           0
     85242 TIP3     25109    TIP3     H1       HT       0.417000       1.00800           0
     85243 TIP3     25109    TIP3     H2       HT       0.417000       1.00800           0
     85244 TIP3     25110    TIP3     OH2      OT      -0.834000       15.9994           0
     85245 TIP3     25110    TIP3     H1       HT       0.417000       1.00800           0
     85246 TIP3     25110    TIP3     H2       HT       0.417000       1.00800           0
     85247 TIP3     25111    TIP3     OH2      OT      -0.834000       15.9994           0
     85248 TIP3     25111    TIP3     H1       HT       0.417000       1.00800           0
     85249 TIP3     25111    TIP3     H2       HT       0.417000       1.00800           0
     85250 TIP3     25112    TIP3     OH2      OT      -0.834000       15.9994           0
     85251 TIP3     25112    TIP3     H1       HT       0.417000       1.00800           0
     85252 TIP3     25112    TIP3     H2       HT       0.417000       1.00800           0
     85253 TIP3     25113    TIP3     OH2      OT      -0.834000       15.9994           0
     85254 TIP3     25113    TIP3     H1       HT       0.417000       1.00800           0
     85255 TIP3     25113    TIP3     H2       HT       0.417000       1.00800           0
     85256 TIP3     25114    TIP3     OH2      OT      -0.834000       15.9994           0
     85257 TIP3     25114    TIP3     H1       HT       0.417000       1.00800           0
     85258 TIP3     25114    TIP3     H2       HT       0.417000       1.00800           0
     85259 TIP3     25115    TIP3     OH2      OT      -0.834000       15.9994           0
     85260 TIP3     25115    TIP3     H1       HT       0.417000       1.00800           0
     85261 TIP3     25115    TIP3     H2       HT       0.417000       1.00800           0
     85262 TIP3     25116    TIP3     OH2      OT      -0.834000       15.9994           0
     85263 TIP3     25116    TIP3     H1       HT       0.417000       1.00800           0
     85264 TIP3     25116    TIP3     H2       HT       0.417000       1.00800           0
     85265 TIP3     25117    TIP3     OH2      OT      -0.834000       15.9994           0
     85266 TIP3     25117    TIP3     H1       HT       0.417000       1.00800           0
     85267 TIP3     25117    TIP3     H2       HT       0.417000       1.00800           0
     85268 TIP3     25118    TIP3     OH2      OT      -0.834000       15.9994           0
     85269 TIP3     25118    TIP3     H1       HT       0.417000       1.00800           0
     85270 TIP3     25118    TIP3     H2       HT       0.417000       1.00800           0
     85271 TIP3     25119    TIP3     OH2      OT      -0.834000       15.9994           0
     85272 TIP3     25119    TIP3     H1       HT       0.417000       1.00800           0
     85273 TIP3     25119    TIP3     H2       HT       0.417000       1.00800           0
     85274 TIP3     25120    TIP3     OH2      OT      -0.834000       15.9994           0
     85275 TIP3     25120    TIP3     H1       HT       0.417000       1.00800           0
     85276 TIP3     25120    TIP3     H2       HT       0.417000       1.00800           0
     85277 TIP3     25121    TIP3     OH2      OT      -0.834000       15.9994           0
     85278 TIP3     25121    TIP3     H1       HT       0.417000       1.00800           0
     85279 TIP3     25121    TIP3     H2       HT       0.417000       1.00800           0
     85280 TIP3     25122    TIP3     OH2      OT      -0.834000       15.9994           0
     85281 TIP3     25122    TIP3     H1       HT       0.417000       1.00800           0
     85282 TIP3     25122    TIP3     H2       HT       0.417000       1.00800           0
     85283 TIP3     25123    TIP3     OH2      OT      -0.834000       15.9994           0
     85284 TIP3     25123    TIP3     H1       HT       0.417000       1.00800           0
     85285 TIP3     25123    TIP3     H2       HT       0.417000       1.00800           0
     85286 TIP3     25124    TIP3     OH2      OT      -0.834000       15.9994           0
     85287 TIP3     25124    TIP3     H1       HT       0.417000       1.00800           0
     85288 TIP3     25124    TIP3     H2       HT       0.417000       1.00800           0
     85289 TIP3     25125    TIP3     OH2      OT      -0.834000       15.9994           0
     85290 TIP3     25125    TIP3     H1       HT       0.417000       1.00800           0
     85291 TIP3     25125    TIP3     H2       HT       0.417000       1.00800           0
     85292 TIP3     25126    TIP3     OH2      OT      -0.834000       15.9994           0
     85293 TIP3     25126    TIP3     H1       HT       0.417000       1.00800           0
     85294 TIP3     25126    TIP3     H2       HT       0.417000       1.00800           0
     85295 TIP3     25127    TIP3     OH2      OT      -0.834000       15.9994           0
     85296 TIP3     25127    TIP3     H1       HT       0.417000       1.00800           0
     85297 TIP3     25127    TIP3     H2       HT       0.417000       1.00800           0
     85298 TIP3     25128    TIP3     OH2      OT      -0.834000       15.9994           0
     85299 TIP3     25128    TIP3     H1       HT       0.417000       1.00800           0
     85300 TIP3     25128    TIP3     H2       HT       0.417000       1.00800           0
     85301 TIP3     25129    TIP3     OH2      OT      -0.834000       15.9994           0
     85302 TIP3     25129    TIP3     H1       HT       0.417000       1.00800           0
     85303 TIP3     25129    TIP3     H2       HT       0.417000       1.00800           0
     85304 TIP3     25130    TIP3     OH2      OT      -0.834000       15.9994           0
     85305 TIP3     25130    TIP3     H1       HT       0.417000       1.00800           0
     85306 TIP3     25130    TIP3     H2       HT       0.417000       1.00800           0
     85307 TIP3     25131    TIP3     OH2      OT      -0.834000       15.9994           0
     85308 TIP3     25131    TIP3     H1       HT       0.417000       1.00800           0
     85309 TIP3     25131    TIP3     H2       HT       0.417000       1.00800           0
     85310 TIP3     25132    TIP3     OH2      OT      -0.834000       15.9994           0
     85311 TIP3     25132    TIP3     H1       HT       0.417000       1.00800           0
     85312 TIP3     25132    TIP3     H2       HT       0.417000       1.00800           0
     85313 TIP3     25133    TIP3     OH2      OT      -0.834000       15.9994           0
     85314 TIP3     25133    TIP3     H1       HT       0.417000       1.00800           0
     85315 TIP3     25133    TIP3     H2       HT       0.417000       1.00800           0
     85316 TIP3     25134    TIP3     OH2      OT      -0.834000       15.9994           0
     85317 TIP3     25134    TIP3     H1       HT       0.417000       1.00800           0
     85318 TIP3     25134    TIP3     H2       HT       0.417000       1.00800           0
     85319 TIP3     25135    TIP3     OH2      OT      -0.834000       15.9994           0
     85320 TIP3     25135    TIP3     H1       HT       0.417000       1.00800           0
     85321 TIP3     25135    TIP3     H2       HT       0.417000       1.00800           0
     85322 TIP3     25136    TIP3     OH2      OT      -0.834000       15.9994           0
     85323 TIP3     25136    TIP3     H1       HT       0.417000       1.00800           0
     85324 TIP3     25136    TIP3     H2       HT       0.417000       1.00800           0
     85325 TIP3     25137    TIP3     OH2      OT      -0.834000       15.9994           0
     85326 TIP3     25137    TIP3     H1       HT       0.417000       1.00800           0
     85327 TIP3     25137    TIP3     H2       HT       0.417000       1.00800           0
     85328 TIP3     25138    TIP3     OH2      OT      -0.834000       15.9994           0
     85329 TIP3     25138    TIP3     H1       HT       0.417000       1.00800           0
     85330 TIP3     25138    TIP3     H2       HT       0.417000       1.00800           0
     85331 TIP3     25139    TIP3     OH2      OT      -0.834000       15.9994           0
     85332 TIP3     25139    TIP3     H1       HT       0.417000       1.00800           0
     85333 TIP3     25139    TIP3     H2       HT       0.417000       1.00800           0
     85334 TIP3     25140    TIP3     OH2      OT      -0.834000       15.9994           0
     85335 TIP3     25140    TIP3     H1       HT       0.417000       1.00800           0
     85336 TIP3     25140    TIP3     H2       HT       0.417000       1.00800           0
     85337 TIP3     25141    TIP3     OH2      OT      -0.834000       15.9994           0
     85338 TIP3     25141    TIP3     H1       HT       0.417000       1.00800           0
     85339 TIP3     25141    TIP3     H2       HT       0.417000       1.00800           0
     85340 TIP3     25142    TIP3     OH2      OT      -0.834000       15.9994           0
     85341 TIP3     25142    TIP3     H1       HT       0.417000       1.00800           0
     85342 TIP3     25142    TIP3     H2       HT       0.417000       1.00800           0
     85343 TIP3     25143    TIP3     OH2      OT      -0.834000       15.9994           0
     85344 TIP3     25143    TIP3     H1       HT       0.417000       1.00800           0
     85345 TIP3     25143    TIP3     H2       HT       0.417000       1.00800           0
     85346 TIP3     25144    TIP3     OH2      OT      -0.834000       15.9994           0
     85347 TIP3     25144    TIP3     H1       HT       0.417000       1.00800           0
     85348 TIP3     25144    TIP3     H2       HT       0.417000       1.00800           0
     85349 TIP3     25145    TIP3     OH2      OT      -0.834000       15.9994           0
     85350 TIP3     25145    TIP3     H1       HT       0.417000       1.00800           0
     85351 TIP3     25145    TIP3     H2       HT       0.417000       1.00800           0
     85352 TIP3     25146    TIP3     OH2      OT      -0.834000       15.9994           0
     85353 TIP3     25146    TIP3     H1       HT       0.417000       1.00800           0
     85354 TIP3     25146    TIP3     H2       HT       0.417000       1.00800           0
     85355 TIP3     25147    TIP3     OH2      OT      -0.834000       15.9994           0
     85356 TIP3     25147    TIP3     H1       HT       0.417000       1.00800           0
     85357 TIP3     25147    TIP3     H2       HT       0.417000       1.00800           0
     85358 TIP3     25148    TIP3     OH2      OT      -0.834000       15.9994           0
     85359 TIP3     25148    TIP3     H1       HT       0.417000       1.00800           0
     85360 TIP3     25148    TIP3     H2       HT       0.417000       1.00800           0
     85361 TIP3     25149    TIP3     OH2      OT      -0.834000       15.9994           0
     85362 TIP3     25149    TIP3     H1       HT       0.417000       1.00800           0
     85363 TIP3     25149    TIP3     H2       HT       0.417000       1.00800           0
     85364 TIP3     25150    TIP3     OH2      OT      -0.834000       15.9994           0
     85365 TIP3     25150    TIP3     H1       HT       0.417000       1.00800           0
     85366 TIP3     25150    TIP3     H2       HT       0.417000       1.00800           0
     85367 TIP3     25151    TIP3     OH2      OT      -0.834000       15.9994           0
     85368 TIP3     25151    TIP3     H1       HT       0.417000       1.00800           0
     85369 TIP3     25151    TIP3     H2       HT       0.417000       1.00800           0
     85370 TIP3     25152    TIP3     OH2      OT      -0.834000       15.9994           0
     85371 TIP3     25152    TIP3     H1       HT       0.417000       1.00800           0
     85372 TIP3     25152    TIP3     H2       HT       0.417000       1.00800           0
     85373 TIP3     25153    TIP3     OH2      OT      -0.834000       15.9994           0
     85374 TIP3     25153    TIP3     H1       HT       0.417000       1.00800           0
     85375 TIP3     25153    TIP3     H2       HT       0.417000       1.00800           0
     85376 TIP3     25154    TIP3     OH2      OT      -0.834000       15.9994           0
     85377 TIP3     25154    TIP3     H1       HT       0.417000       1.00800           0
     85378 TIP3     25154    TIP3     H2       HT       0.417000       1.00800           0
     85379 TIP3     25155    TIP3     OH2      OT      -0.834000       15.9994           0
     85380 TIP3     25155    TIP3     H1       HT       0.417000       1.00800           0
     85381 TIP3     25155    TIP3     H2       HT       0.417000       1.00800           0
     85382 TIP3     25156    TIP3     OH2      OT      -0.834000       15.9994           0
     85383 TIP3     25156    TIP3     H1       HT       0.417000       1.00800           0
     85384 TIP3     25156    TIP3     H2       HT       0.417000       1.00800           0
     85385 TIP3     25157    TIP3     OH2      OT      -0.834000       15.9994           0
     85386 TIP3     25157    TIP3     H1       HT       0.417000       1.00800           0
     85387 TIP3     25157    TIP3     H2       HT       0.417000       1.00800           0
     85388 TIP3     25158    TIP3     OH2      OT      -0.834000       15.9994           0
     85389 TIP3     25158    TIP3     H1       HT       0.417000       1.00800           0
     85390 TIP3     25158    TIP3     H2       HT       0.417000       1.00800           0
     85391 TIP3     25159    TIP3     OH2      OT      -0.834000       15.9994           0
     85392 TIP3     25159    TIP3     H1       HT       0.417000       1.00800           0
     85393 TIP3     25159    TIP3     H2       HT       0.417000       1.00800           0
     85394 TIP3     25160    TIP3     OH2      OT      -0.834000       15.9994           0
     85395 TIP3     25160    TIP3     H1       HT       0.417000       1.00800           0
     85396 TIP3     25160    TIP3     H2       HT       0.417000       1.00800           0
     85397 TIP3     25161    TIP3     OH2      OT      -0.834000       15.9994           0
     85398 TIP3     25161    TIP3     H1       HT       0.417000       1.00800           0
     85399 TIP3     25161    TIP3     H2       HT       0.417000       1.00800           0
     85400 TIP3     25162    TIP3     OH2      OT      -0.834000       15.9994           0
     85401 TIP3     25162    TIP3     H1       HT       0.417000       1.00800           0
     85402 TIP3     25162    TIP3     H2       HT       0.417000       1.00800           0
     85403 TIP3     25163    TIP3     OH2      OT      -0.834000       15.9994           0
     85404 TIP3     25163    TIP3     H1       HT       0.417000       1.00800           0
     85405 TIP3     25163    TIP3     H2       HT       0.417000       1.00800           0
     85406 TIP3     25164    TIP3     OH2      OT      -0.834000       15.9994           0
     85407 TIP3     25164    TIP3     H1       HT       0.417000       1.00800           0
     85408 TIP3     25164    TIP3     H2       HT       0.417000       1.00800           0
     85409 TIP3     25165    TIP3     OH2      OT      -0.834000       15.9994           0
     85410 TIP3     25165    TIP3     H1       HT       0.417000       1.00800           0
     85411 TIP3     25165    TIP3     H2       HT       0.417000       1.00800           0
     85412 TIP3     25166    TIP3     OH2      OT      -0.834000       15.9994           0
     85413 TIP3     25166    TIP3     H1       HT       0.417000       1.00800           0
     85414 TIP3     25166    TIP3     H2       HT       0.417000       1.00800           0
     85415 TIP3     25167    TIP3     OH2      OT      -0.834000       15.9994           0
     85416 TIP3     25167    TIP3     H1       HT       0.417000       1.00800           0
     85417 TIP3     25167    TIP3     H2       HT       0.417000       1.00800           0
     85418 TIP3     25168    TIP3     OH2      OT      -0.834000       15.9994           0
     85419 TIP3     25168    TIP3     H1       HT       0.417000       1.00800           0
     85420 TIP3     25168    TIP3     H2       HT       0.417000       1.00800           0
     85421 TIP3     25169    TIP3     OH2      OT      -0.834000       15.9994           0
     85422 TIP3     25169    TIP3     H1       HT       0.417000       1.00800           0
     85423 TIP3     25169    TIP3     H2       HT       0.417000       1.00800           0
     85424 TIP3     25170    TIP3     OH2      OT      -0.834000       15.9994           0
     85425 TIP3     25170    TIP3     H1       HT       0.417000       1.00800           0
     85426 TIP3     25170    TIP3     H2       HT       0.417000       1.00800           0
     85427 TIP3     25171    TIP3     OH2      OT      -0.834000       15.9994           0
     85428 TIP3     25171    TIP3     H1       HT       0.417000       1.00800           0
     85429 TIP3     25171    TIP3     H2       HT       0.417000       1.00800           0
     85430 TIP3     25172    TIP3     OH2      OT      -0.834000       15.9994           0
     85431 TIP3     25172    TIP3     H1       HT       0.417000       1.00800           0
     85432 TIP3     25172    TIP3     H2       HT       0.417000       1.00800           0
     85433 TIP3     25173    TIP3     OH2      OT      -0.834000       15.9994           0
     85434 TIP3     25173    TIP3     H1       HT       0.417000       1.00800           0
     85435 TIP3     25173    TIP3     H2       HT       0.417000       1.00800           0
     85436 TIP3     25174    TIP3     OH2      OT      -0.834000       15.9994           0
     85437 TIP3     25174    TIP3     H1       HT       0.417000       1.00800           0
     85438 TIP3     25174    TIP3     H2       HT       0.417000       1.00800           0
     85439 TIP3     25175    TIP3     OH2      OT      -0.834000       15.9994           0
     85440 TIP3     25175    TIP3     H1       HT       0.417000       1.00800           0
     85441 TIP3     25175    TIP3     H2       HT       0.417000       1.00800           0
     85442 TIP3     25176    TIP3     OH2      OT      -0.834000       15.9994           0
     85443 TIP3     25176    TIP3     H1       HT       0.417000       1.00800           0
     85444 TIP3     25176    TIP3     H2       HT       0.417000       1.00800           0
     85445 TIP3     25177    TIP3     OH2      OT      -0.834000       15.9994           0
     85446 TIP3     25177    TIP3     H1       HT       0.417000       1.00800           0
     85447 TIP3     25177    TIP3     H2       HT       0.417000       1.00800           0
     85448 TIP3     25178    TIP3     OH2      OT      -0.834000       15.9994           0
     85449 TIP3     25178    TIP3     H1       HT       0.417000       1.00800           0
     85450 TIP3     25178    TIP3     H2       HT       0.417000       1.00800           0
     85451 TIP3     25179    TIP3     OH2      OT      -0.834000       15.9994           0
     85452 TIP3     25179    TIP3     H1       HT       0.417000       1.00800           0
     85453 TIP3     25179    TIP3     H2       HT       0.417000       1.00800           0
     85454 TIP3     25180    TIP3     OH2      OT      -0.834000       15.9994           0
     85455 TIP3     25180    TIP3     H1       HT       0.417000       1.00800           0
     85456 TIP3     25180    TIP3     H2       HT       0.417000       1.00800           0
     85457 TIP3     25181    TIP3     OH2      OT      -0.834000       15.9994           0
     85458 TIP3     25181    TIP3     H1       HT       0.417000       1.00800           0
     85459 TIP3     25181    TIP3     H2       HT       0.417000       1.00800           0
     85460 TIP3     25182    TIP3     OH2      OT      -0.834000       15.9994           0
     85461 TIP3     25182    TIP3     H1       HT       0.417000       1.00800           0
     85462 TIP3     25182    TIP3     H2       HT       0.417000       1.00800           0
     85463 TIP3     25183    TIP3     OH2      OT      -0.834000       15.9994           0
     85464 TIP3     25183    TIP3     H1       HT       0.417000       1.00800           0
     85465 TIP3     25183    TIP3     H2       HT       0.417000       1.00800           0
     85466 TIP3     25184    TIP3     OH2      OT      -0.834000       15.9994           0
     85467 TIP3     25184    TIP3     H1       HT       0.417000       1.00800           0
     85468 TIP3     25184    TIP3     H2       HT       0.417000       1.00800           0
     85469 TIP3     25185    TIP3     OH2      OT      -0.834000       15.9994           0
     85470 TIP3     25185    TIP3     H1       HT       0.417000       1.00800           0
     85471 TIP3     25185    TIP3     H2       HT       0.417000       1.00800           0
     85472 TIP3     25186    TIP3     OH2      OT      -0.834000       15.9994           0
     85473 TIP3     25186    TIP3     H1       HT       0.417000       1.00800           0
     85474 TIP3     25186    TIP3     H2       HT       0.417000       1.00800           0
     85475 TIP3     25187    TIP3     OH2      OT      -0.834000       15.9994           0
     85476 TIP3     25187    TIP3     H1       HT       0.417000       1.00800           0
     85477 TIP3     25187    TIP3     H2       HT       0.417000       1.00800           0
     85478 TIP3     25188    TIP3     OH2      OT      -0.834000       15.9994           0
     85479 TIP3     25188    TIP3     H1       HT       0.417000       1.00800           0
     85480 TIP3     25188    TIP3     H2       HT       0.417000       1.00800           0
     85481 TIP3     25189    TIP3     OH2      OT      -0.834000       15.9994           0
     85482 TIP3     25189    TIP3     H1       HT       0.417000       1.00800           0
     85483 TIP3     25189    TIP3     H2       HT       0.417000       1.00800           0
     85484 TIP3     25190    TIP3     OH2      OT      -0.834000       15.9994           0
     85485 TIP3     25190    TIP3     H1       HT       0.417000       1.00800           0
     85486 TIP3     25190    TIP3     H2       HT       0.417000       1.00800           0
     85487 TIP3     25191    TIP3     OH2      OT      -0.834000       15.9994           0
     85488 TIP3     25191    TIP3     H1       HT       0.417000       1.00800           0
     85489 TIP3     25191    TIP3     H2       HT       0.417000       1.00800           0
     85490 TIP3     25192    TIP3     OH2      OT      -0.834000       15.9994           0
     85491 TIP3     25192    TIP3     H1       HT       0.417000       1.00800           0
     85492 TIP3     25192    TIP3     H2       HT       0.417000       1.00800           0
     85493 TIP3     25193    TIP3     OH2      OT      -0.834000       15.9994           0
     85494 TIP3     25193    TIP3     H1       HT       0.417000       1.00800           0
     85495 TIP3     25193    TIP3     H2       HT       0.417000       1.00800           0
     85496 TIP3     25194    TIP3     OH2      OT      -0.834000       15.9994           0
     85497 TIP3     25194    TIP3     H1       HT       0.417000       1.00800           0
     85498 TIP3     25194    TIP3     H2       HT       0.417000       1.00800           0
     85499 TIP3     25195    TIP3     OH2      OT      -0.834000       15.9994           0
     85500 TIP3     25195    TIP3     H1       HT       0.417000       1.00800           0
     85501 TIP3     25195    TIP3     H2       HT       0.417000       1.00800           0
     85502 TIP3     25196    TIP3     OH2      OT      -0.834000       15.9994           0
     85503 TIP3     25196    TIP3     H1       HT       0.417000       1.00800           0
     85504 TIP3     25196    TIP3     H2       HT       0.417000       1.00800           0
     85505 TIP3     25197    TIP3     OH2      OT      -0.834000       15.9994           0
     85506 TIP3     25197    TIP3     H1       HT       0.417000       1.00800           0
     85507 TIP3     25197    TIP3     H2       HT       0.417000       1.00800           0
     85508 TIP3     25198    TIP3     OH2      OT      -0.834000       15.9994           0
     85509 TIP3     25198    TIP3     H1       HT       0.417000       1.00800           0
     85510 TIP3     25198    TIP3     H2       HT       0.417000       1.00800           0
     85511 TIP3     25199    TIP3     OH2      OT      -0.834000       15.9994           0
     85512 TIP3     25199    TIP3     H1       HT       0.417000       1.00800           0
     85513 TIP3     25199    TIP3     H2       HT       0.417000       1.00800           0
     85514 TIP3     25200    TIP3     OH2      OT      -0.834000       15.9994           0
     85515 TIP3     25200    TIP3     H1       HT       0.417000       1.00800           0
     85516 TIP3     25200    TIP3     H2       HT       0.417000       1.00800           0
     85517 TIP3     25201    TIP3     OH2      OT      -0.834000       15.9994           0
     85518 TIP3     25201    TIP3     H1       HT       0.417000       1.00800           0
     85519 TIP3     25201    TIP3     H2       HT       0.417000       1.00800           0
     85520 TIP3     25202    TIP3     OH2      OT      -0.834000       15.9994           0
     85521 TIP3     25202    TIP3     H1       HT       0.417000       1.00800           0
     85522 TIP3     25202    TIP3     H2       HT       0.417000       1.00800           0
     85523 TIP3     25203    TIP3     OH2      OT      -0.834000       15.9994           0
     85524 TIP3     25203    TIP3     H1       HT       0.417000       1.00800           0
     85525 TIP3     25203    TIP3     H2       HT       0.417000       1.00800           0
     85526 TIP3     25204    TIP3     OH2      OT      -0.834000       15.9994           0
     85527 TIP3     25204    TIP3     H1       HT       0.417000       1.00800           0
     85528 TIP3     25204    TIP3     H2       HT       0.417000       1.00800           0
     85529 TIP3     25205    TIP3     OH2      OT      -0.834000       15.9994           0
     85530 TIP3     25205    TIP3     H1       HT       0.417000       1.00800           0
     85531 TIP3     25205    TIP3     H2       HT       0.417000       1.00800           0
     85532 TIP3     25206    TIP3     OH2      OT      -0.834000       15.9994           0
     85533 TIP3     25206    TIP3     H1       HT       0.417000       1.00800           0
     85534 TIP3     25206    TIP3     H2       HT       0.417000       1.00800           0
     85535 TIP3     25207    TIP3     OH2      OT      -0.834000       15.9994           0
     85536 TIP3     25207    TIP3     H1       HT       0.417000       1.00800           0
     85537 TIP3     25207    TIP3     H2       HT       0.417000       1.00800           0
     85538 TIP3     25208    TIP3     OH2      OT      -0.834000       15.9994           0
     85539 TIP3     25208    TIP3     H1       HT       0.417000       1.00800           0
     85540 TIP3     25208    TIP3     H2       HT       0.417000       1.00800           0
     85541 TIP3     25209    TIP3     OH2      OT      -0.834000       15.9994           0
     85542 TIP3     25209    TIP3     H1       HT       0.417000       1.00800           0
     85543 TIP3     25209    TIP3     H2       HT       0.417000       1.00800           0
     85544 TIP3     25210    TIP3     OH2      OT      -0.834000       15.9994           0
     85545 TIP3     25210    TIP3     H1       HT       0.417000       1.00800           0
     85546 TIP3     25210    TIP3     H2       HT       0.417000       1.00800           0
     85547 TIP3     25211    TIP3     OH2      OT      -0.834000       15.9994           0
     85548 TIP3     25211    TIP3     H1       HT       0.417000       1.00800           0
     85549 TIP3     25211    TIP3     H2       HT       0.417000       1.00800           0
     85550 TIP3     25212    TIP3     OH2      OT      -0.834000       15.9994           0
     85551 TIP3     25212    TIP3     H1       HT       0.417000       1.00800           0
     85552 TIP3     25212    TIP3     H2       HT       0.417000       1.00800           0
     85553 TIP3     25213    TIP3     OH2      OT      -0.834000       15.9994           0
     85554 TIP3     25213    TIP3     H1       HT       0.417000       1.00800           0
     85555 TIP3     25213    TIP3     H2       HT       0.417000       1.00800           0
     85556 TIP3     25214    TIP3     OH2      OT      -0.834000       15.9994           0
     85557 TIP3     25214    TIP3     H1       HT       0.417000       1.00800           0
     85558 TIP3     25214    TIP3     H2       HT       0.417000       1.00800           0
     85559 TIP3     25215    TIP3     OH2      OT      -0.834000       15.9994           0
     85560 TIP3     25215    TIP3     H1       HT       0.417000       1.00800           0
     85561 TIP3     25215    TIP3     H2       HT       0.417000       1.00800           0
     85562 TIP3     25216    TIP3     OH2      OT      -0.834000       15.9994           0
     85563 TIP3     25216    TIP3     H1       HT       0.417000       1.00800           0
     85564 TIP3     25216    TIP3     H2       HT       0.417000       1.00800           0
     85565 TIP3     25217    TIP3     OH2      OT      -0.834000       15.9994           0
     85566 TIP3     25217    TIP3     H1       HT       0.417000       1.00800           0
     85567 TIP3     25217    TIP3     H2       HT       0.417000       1.00800           0
     85568 TIP3     25218    TIP3     OH2      OT      -0.834000       15.9994           0
     85569 TIP3     25218    TIP3     H1       HT       0.417000       1.00800           0
     85570 TIP3     25218    TIP3     H2       HT       0.417000       1.00800           0
     85571 TIP3     25219    TIP3     OH2      OT      -0.834000       15.9994           0
     85572 TIP3     25219    TIP3     H1       HT       0.417000       1.00800           0
     85573 TIP3     25219    TIP3     H2       HT       0.417000       1.00800           0
     85574 TIP3     25220    TIP3     OH2      OT      -0.834000       15.9994           0
     85575 TIP3     25220    TIP3     H1       HT       0.417000       1.00800           0
     85576 TIP3     25220    TIP3     H2       HT       0.417000       1.00800           0
     85577 TIP3     25221    TIP3     OH2      OT      -0.834000       15.9994           0
     85578 TIP3     25221    TIP3     H1       HT       0.417000       1.00800           0
     85579 TIP3     25221    TIP3     H2       HT       0.417000       1.00800           0
     85580 TIP3     25222    TIP3     OH2      OT      -0.834000       15.9994           0
     85581 TIP3     25222    TIP3     H1       HT       0.417000       1.00800           0
     85582 TIP3     25222    TIP3     H2       HT       0.417000       1.00800           0
     85583 TIP3     25223    TIP3     OH2      OT      -0.834000       15.9994           0
     85584 TIP3     25223    TIP3     H1       HT       0.417000       1.00800           0
     85585 TIP3     25223    TIP3     H2       HT       0.417000       1.00800           0
     85586 TIP3     25224    TIP3     OH2      OT      -0.834000       15.9994           0
     85587 TIP3     25224    TIP3     H1       HT       0.417000       1.00800           0
     85588 TIP3     25224    TIP3     H2       HT       0.417000       1.00800           0
     85589 TIP3     25225    TIP3     OH2      OT      -0.834000       15.9994           0
     85590 TIP3     25225    TIP3     H1       HT       0.417000       1.00800           0
     85591 TIP3     25225    TIP3     H2       HT       0.417000       1.00800           0
     85592 TIP3     25226    TIP3     OH2      OT      -0.834000       15.9994           0
     85593 TIP3     25226    TIP3     H1       HT       0.417000       1.00800           0
     85594 TIP3     25226    TIP3     H2       HT       0.417000       1.00800           0
     85595 TIP3     25227    TIP3     OH2      OT      -0.834000       15.9994           0
     85596 TIP3     25227    TIP3     H1       HT       0.417000       1.00800           0
     85597 TIP3     25227    TIP3     H2       HT       0.417000       1.00800           0
     85598 TIP3     25228    TIP3     OH2      OT      -0.834000       15.9994           0
     85599 TIP3     25228    TIP3     H1       HT       0.417000       1.00800           0
     85600 TIP3     25228    TIP3     H2       HT       0.417000       1.00800           0
     85601 TIP3     25229    TIP3     OH2      OT      -0.834000       15.9994           0
     85602 TIP3     25229    TIP3     H1       HT       0.417000       1.00800           0
     85603 TIP3     25229    TIP3     H2       HT       0.417000       1.00800           0
     85604 TIP3     25230    TIP3     OH2      OT      -0.834000       15.9994           0
     85605 TIP3     25230    TIP3     H1       HT       0.417000       1.00800           0
     85606 TIP3     25230    TIP3     H2       HT       0.417000       1.00800           0
     85607 TIP3     25231    TIP3     OH2      OT      -0.834000       15.9994           0
     85608 TIP3     25231    TIP3     H1       HT       0.417000       1.00800           0
     85609 TIP3     25231    TIP3     H2       HT       0.417000       1.00800           0
     85610 TIP3     25232    TIP3     OH2      OT      -0.834000       15.9994           0
     85611 TIP3     25232    TIP3     H1       HT       0.417000       1.00800           0
     85612 TIP3     25232    TIP3     H2       HT       0.417000       1.00800           0
     85613 TIP3     25233    TIP3     OH2      OT      -0.834000       15.9994           0
     85614 TIP3     25233    TIP3     H1       HT       0.417000       1.00800           0
     85615 TIP3     25233    TIP3     H2       HT       0.417000       1.00800           0
     85616 TIP3     25234    TIP3     OH2      OT      -0.834000       15.9994           0
     85617 TIP3     25234    TIP3     H1       HT       0.417000       1.00800           0
     85618 TIP3     25234    TIP3     H2       HT       0.417000       1.00800           0
     85619 TIP3     25235    TIP3     OH2      OT      -0.834000       15.9994           0
     85620 TIP3     25235    TIP3     H1       HT       0.417000       1.00800           0
     85621 TIP3     25235    TIP3     H2       HT       0.417000       1.00800           0
     85622 TIP3     25236    TIP3     OH2      OT      -0.834000       15.9994           0
     85623 TIP3     25236    TIP3     H1       HT       0.417000       1.00800           0
     85624 TIP3     25236    TIP3     H2       HT       0.417000       1.00800           0
     85625 TIP3     25237    TIP3     OH2      OT      -0.834000       15.9994           0
     85626 TIP3     25237    TIP3     H1       HT       0.417000       1.00800           0
     85627 TIP3     25237    TIP3     H2       HT       0.417000       1.00800           0
     85628 TIP3     25238    TIP3     OH2      OT      -0.834000       15.9994           0
     85629 TIP3     25238    TIP3     H1       HT       0.417000       1.00800           0
     85630 TIP3     25238    TIP3     H2       HT       0.417000       1.00800           0
     85631 TIP3     25239    TIP3     OH2      OT      -0.834000       15.9994           0
     85632 TIP3     25239    TIP3     H1       HT       0.417000       1.00800           0
     85633 TIP3     25239    TIP3     H2       HT       0.417000       1.00800           0
     85634 TIP3     25240    TIP3     OH2      OT      -0.834000       15.9994           0
     85635 TIP3     25240    TIP3     H1       HT       0.417000       1.00800           0
     85636 TIP3     25240    TIP3     H2       HT       0.417000       1.00800           0
     85637 TIP3     25241    TIP3     OH2      OT      -0.834000       15.9994           0
     85638 TIP3     25241    TIP3     H1       HT       0.417000       1.00800           0
     85639 TIP3     25241    TIP3     H2       HT       0.417000       1.00800           0
     85640 TIP3     25242    TIP3     OH2      OT      -0.834000       15.9994           0
     85641 TIP3     25242    TIP3     H1       HT       0.417000       1.00800           0
     85642 TIP3     25242    TIP3     H2       HT       0.417000       1.00800           0
     85643 TIP3     25243    TIP3     OH2      OT      -0.834000       15.9994           0
     85644 TIP3     25243    TIP3     H1       HT       0.417000       1.00800           0
     85645 TIP3     25243    TIP3     H2       HT       0.417000       1.00800           0
     85646 TIP3     25244    TIP3     OH2      OT      -0.834000       15.9994           0
     85647 TIP3     25244    TIP3     H1       HT       0.417000       1.00800           0
     85648 TIP3     25244    TIP3     H2       HT       0.417000       1.00800           0
     85649 TIP3     25245    TIP3     OH2      OT      -0.834000       15.9994           0
     85650 TIP3     25245    TIP3     H1       HT       0.417000       1.00800           0
     85651 TIP3     25245    TIP3     H2       HT       0.417000       1.00800           0
     85652 TIP3     25246    TIP3     OH2      OT      -0.834000       15.9994           0
     85653 TIP3     25246    TIP3     H1       HT       0.417000       1.00800           0
     85654 TIP3     25246    TIP3     H2       HT       0.417000       1.00800           0
     85655 TIP3     25247    TIP3     OH2      OT      -0.834000       15.9994           0
     85656 TIP3     25247    TIP3     H1       HT       0.417000       1.00800           0
     85657 TIP3     25247    TIP3     H2       HT       0.417000       1.00800           0
     85658 TIP3     25248    TIP3     OH2      OT      -0.834000       15.9994           0
     85659 TIP3     25248    TIP3     H1       HT       0.417000       1.00800           0
     85660 TIP3     25248    TIP3     H2       HT       0.417000       1.00800           0
     85661 TIP3     25249    TIP3     OH2      OT      -0.834000       15.9994           0
     85662 TIP3     25249    TIP3     H1       HT       0.417000       1.00800           0
     85663 TIP3     25249    TIP3     H2       HT       0.417000       1.00800           0
     85664 TIP3     25250    TIP3     OH2      OT      -0.834000       15.9994           0
     85665 TIP3     25250    TIP3     H1       HT       0.417000       1.00800           0
     85666 TIP3     25250    TIP3     H2       HT       0.417000       1.00800           0
     85667 TIP3     25251    TIP3     OH2      OT      -0.834000       15.9994           0
     85668 TIP3     25251    TIP3     H1       HT       0.417000       1.00800           0
     85669 TIP3     25251    TIP3     H2       HT       0.417000       1.00800           0
     85670 TIP3     25252    TIP3     OH2      OT      -0.834000       15.9994           0
     85671 TIP3     25252    TIP3     H1       HT       0.417000       1.00800           0
     85672 TIP3     25252    TIP3     H2       HT       0.417000       1.00800           0
     85673 TIP3     25253    TIP3     OH2      OT      -0.834000       15.9994           0
     85674 TIP3     25253    TIP3     H1       HT       0.417000       1.00800           0
     85675 TIP3     25253    TIP3     H2       HT       0.417000       1.00800           0
     85676 TIP3     25254    TIP3     OH2      OT      -0.834000       15.9994           0
     85677 TIP3     25254    TIP3     H1       HT       0.417000       1.00800           0
     85678 TIP3     25254    TIP3     H2       HT       0.417000       1.00800           0
     85679 TIP3     25255    TIP3     OH2      OT      -0.834000       15.9994           0
     85680 TIP3     25255    TIP3     H1       HT       0.417000       1.00800           0
     85681 TIP3     25255    TIP3     H2       HT       0.417000       1.00800           0
     85682 TIP3     25256    TIP3     OH2      OT      -0.834000       15.9994           0
     85683 TIP3     25256    TIP3     H1       HT       0.417000       1.00800           0
     85684 TIP3     25256    TIP3     H2       HT       0.417000       1.00800           0
     85685 TIP3     25257    TIP3     OH2      OT      -0.834000       15.9994           0
     85686 TIP3     25257    TIP3     H1       HT       0.417000       1.00800           0
     85687 TIP3     25257    TIP3     H2       HT       0.417000       1.00800           0
     85688 TIP3     25258    TIP3     OH2      OT      -0.834000       15.9994           0
     85689 TIP3     25258    TIP3     H1       HT       0.417000       1.00800           0
     85690 TIP3     25258    TIP3     H2       HT       0.417000       1.00800           0
     85691 TIP3     25259    TIP3     OH2      OT      -0.834000       15.9994           0
     85692 TIP3     25259    TIP3     H1       HT       0.417000       1.00800           0
     85693 TIP3     25259    TIP3     H2       HT       0.417000       1.00800           0
     85694 TIP3     25260    TIP3     OH2      OT      -0.834000       15.9994           0
     85695 TIP3     25260    TIP3     H1       HT       0.417000       1.00800           0
     85696 TIP3     25260    TIP3     H2       HT       0.417000       1.00800           0
     85697 TIP3     25261    TIP3     OH2      OT      -0.834000       15.9994           0
     85698 TIP3     25261    TIP3     H1       HT       0.417000       1.00800           0
     85699 TIP3     25261    TIP3     H2       HT       0.417000       1.00800           0
     85700 TIP3     25262    TIP3     OH2      OT      -0.834000       15.9994           0
     85701 TIP3     25262    TIP3     H1       HT       0.417000       1.00800           0
     85702 TIP3     25262    TIP3     H2       HT       0.417000       1.00800           0
     85703 TIP3     25263    TIP3     OH2      OT      -0.834000       15.9994           0
     85704 TIP3     25263    TIP3     H1       HT       0.417000       1.00800           0
     85705 TIP3     25263    TIP3     H2       HT       0.417000       1.00800           0
     85706 TIP3     25264    TIP3     OH2      OT      -0.834000       15.9994           0
     85707 TIP3     25264    TIP3     H1       HT       0.417000       1.00800           0
     85708 TIP3     25264    TIP3     H2       HT       0.417000       1.00800           0
     85709 TIP3     25265    TIP3     OH2      OT      -0.834000       15.9994           0
     85710 TIP3     25265    TIP3     H1       HT       0.417000       1.00800           0
     85711 TIP3     25265    TIP3     H2       HT       0.417000       1.00800           0
     85712 TIP3     25266    TIP3     OH2      OT      -0.834000       15.9994           0
     85713 TIP3     25266    TIP3     H1       HT       0.417000       1.00800           0
     85714 TIP3     25266    TIP3     H2       HT       0.417000       1.00800           0
     85715 TIP3     25267    TIP3     OH2      OT      -0.834000       15.9994           0
     85716 TIP3     25267    TIP3     H1       HT       0.417000       1.00800           0
     85717 TIP3     25267    TIP3     H2       HT       0.417000       1.00800           0
     85718 TIP3     25268    TIP3     OH2      OT      -0.834000       15.9994           0
     85719 TIP3     25268    TIP3     H1       HT       0.417000       1.00800           0
     85720 TIP3     25268    TIP3     H2       HT       0.417000       1.00800           0
     85721 TIP3     25269    TIP3     OH2      OT      -0.834000       15.9994           0
     85722 TIP3     25269    TIP3     H1       HT       0.417000       1.00800           0
     85723 TIP3     25269    TIP3     H2       HT       0.417000       1.00800           0
     85724 TIP3     25270    TIP3     OH2      OT      -0.834000       15.9994           0
     85725 TIP3     25270    TIP3     H1       HT       0.417000       1.00800           0
     85726 TIP3     25270    TIP3     H2       HT       0.417000       1.00800           0
     85727 TIP3     25271    TIP3     OH2      OT      -0.834000       15.9994           0
     85728 TIP3     25271    TIP3     H1       HT       0.417000       1.00800           0
     85729 TIP3     25271    TIP3     H2       HT       0.417000       1.00800           0
     85730 TIP3     25272    TIP3     OH2      OT      -0.834000       15.9994           0
     85731 TIP3     25272    TIP3     H1       HT       0.417000       1.00800           0
     85732 TIP3     25272    TIP3     H2       HT       0.417000       1.00800           0
     85733 TIP3     25273    TIP3     OH2      OT      -0.834000       15.9994           0
     85734 TIP3     25273    TIP3     H1       HT       0.417000       1.00800           0
     85735 TIP3     25273    TIP3     H2       HT       0.417000       1.00800           0
     85736 TIP3     25274    TIP3     OH2      OT      -0.834000       15.9994           0
     85737 TIP3     25274    TIP3     H1       HT       0.417000       1.00800           0
     85738 TIP3     25274    TIP3     H2       HT       0.417000       1.00800           0
     85739 TIP3     25275    TIP3     OH2      OT      -0.834000       15.9994           0
     85740 TIP3     25275    TIP3     H1       HT       0.417000       1.00800           0
     85741 TIP3     25275    TIP3     H2       HT       0.417000       1.00800           0
     85742 TIP3     25276    TIP3     OH2      OT      -0.834000       15.9994           0
     85743 TIP3     25276    TIP3     H1       HT       0.417000       1.00800           0
     85744 TIP3     25276    TIP3     H2       HT       0.417000       1.00800           0
     85745 TIP3     25277    TIP3     OH2      OT      -0.834000       15.9994           0
     85746 TIP3     25277    TIP3     H1       HT       0.417000       1.00800           0
     85747 TIP3     25277    TIP3     H2       HT       0.417000       1.00800           0
     85748 TIP3     25278    TIP3     OH2      OT      -0.834000       15.9994           0
     85749 TIP3     25278    TIP3     H1       HT       0.417000       1.00800           0
     85750 TIP3     25278    TIP3     H2       HT       0.417000       1.00800           0
     85751 TIP3     25279    TIP3     OH2      OT      -0.834000       15.9994           0
     85752 TIP3     25279    TIP3     H1       HT       0.417000       1.00800           0
     85753 TIP3     25279    TIP3     H2       HT       0.417000       1.00800           0
     85754 TIP3     25280    TIP3     OH2      OT      -0.834000       15.9994           0
     85755 TIP3     25280    TIP3     H1       HT       0.417000       1.00800           0
     85756 TIP3     25280    TIP3     H2       HT       0.417000       1.00800           0
     85757 TIP3     25281    TIP3     OH2      OT      -0.834000       15.9994           0
     85758 TIP3     25281    TIP3     H1       HT       0.417000       1.00800           0
     85759 TIP3     25281    TIP3     H2       HT       0.417000       1.00800           0
     85760 TIP3     25282    TIP3     OH2      OT      -0.834000       15.9994           0
     85761 TIP3     25282    TIP3     H1       HT       0.417000       1.00800           0
     85762 TIP3     25282    TIP3     H2       HT       0.417000       1.00800           0
     85763 TIP3     25283    TIP3     OH2      OT      -0.834000       15.9994           0
     85764 TIP3     25283    TIP3     H1       HT       0.417000       1.00800           0
     85765 TIP3     25283    TIP3     H2       HT       0.417000       1.00800           0
     85766 TIP3     25284    TIP3     OH2      OT      -0.834000       15.9994           0
     85767 TIP3     25284    TIP3     H1       HT       0.417000       1.00800           0
     85768 TIP3     25284    TIP3     H2       HT       0.417000       1.00800           0
     85769 TIP3     25285    TIP3     OH2      OT      -0.834000       15.9994           0
     85770 TIP3     25285    TIP3     H1       HT       0.417000       1.00800           0
     85771 TIP3     25285    TIP3     H2       HT       0.417000       1.00800           0
     85772 TIP3     25286    TIP3     OH2      OT      -0.834000       15.9994           0
     85773 TIP3     25286    TIP3     H1       HT       0.417000       1.00800           0
     85774 TIP3     25286    TIP3     H2       HT       0.417000       1.00800           0
     85775 TIP3     25287    TIP3     OH2      OT      -0.834000       15.9994           0
     85776 TIP3     25287    TIP3     H1       HT       0.417000       1.00800           0
     85777 TIP3     25287    TIP3     H2       HT       0.417000       1.00800           0
     85778 TIP3     25288    TIP3     OH2      OT      -0.834000       15.9994           0
     85779 TIP3     25288    TIP3     H1       HT       0.417000       1.00800           0
     85780 TIP3     25288    TIP3     H2       HT       0.417000       1.00800           0
     85781 TIP3     25289    TIP3     OH2      OT      -0.834000       15.9994           0
     85782 TIP3     25289    TIP3     H1       HT       0.417000       1.00800           0
     85783 TIP3     25289    TIP3     H2       HT       0.417000       1.00800           0
     85784 TIP3     25290    TIP3     OH2      OT      -0.834000       15.9994           0
     85785 TIP3     25290    TIP3     H1       HT       0.417000       1.00800           0
     85786 TIP3     25290    TIP3     H2       HT       0.417000       1.00800           0
     85787 TIP3     25291    TIP3     OH2      OT      -0.834000       15.9994           0
     85788 TIP3     25291    TIP3     H1       HT       0.417000       1.00800           0
     85789 TIP3     25291    TIP3     H2       HT       0.417000       1.00800           0
     85790 TIP3     25292    TIP3     OH2      OT      -0.834000       15.9994           0
     85791 TIP3     25292    TIP3     H1       HT       0.417000       1.00800           0
     85792 TIP3     25292    TIP3     H2       HT       0.417000       1.00800           0
     85793 TIP3     25293    TIP3     OH2      OT      -0.834000       15.9994           0
     85794 TIP3     25293    TIP3     H1       HT       0.417000       1.00800           0
     85795 TIP3     25293    TIP3     H2       HT       0.417000       1.00800           0
     85796 TIP3     25294    TIP3     OH2      OT      -0.834000       15.9994           0
     85797 TIP3     25294    TIP3     H1       HT       0.417000       1.00800           0
     85798 TIP3     25294    TIP3     H2       HT       0.417000       1.00800           0
     85799 TIP3     25295    TIP3     OH2      OT      -0.834000       15.9994           0
     85800 TIP3     25295    TIP3     H1       HT       0.417000       1.00800           0
     85801 TIP3     25295    TIP3     H2       HT       0.417000       1.00800           0
     85802 TIP3     25296    TIP3     OH2      OT      -0.834000       15.9994           0
     85803 TIP3     25296    TIP3     H1       HT       0.417000       1.00800           0
     85804 TIP3     25296    TIP3     H2       HT       0.417000       1.00800           0
     85805 TIP3     25297    TIP3     OH2      OT      -0.834000       15.9994           0
     85806 TIP3     25297    TIP3     H1       HT       0.417000       1.00800           0
     85807 TIP3     25297    TIP3     H2       HT       0.417000       1.00800           0
     85808 TIP3     25298    TIP3     OH2      OT      -0.834000       15.9994           0
     85809 TIP3     25298    TIP3     H1       HT       0.417000       1.00800           0
     85810 TIP3     25298    TIP3     H2       HT       0.417000       1.00800           0
     85811 TIP3     25299    TIP3     OH2      OT      -0.834000       15.9994           0
     85812 TIP3     25299    TIP3     H1       HT       0.417000       1.00800           0
     85813 TIP3     25299    TIP3     H2       HT       0.417000       1.00800           0
     85814 TIP3     25300    TIP3     OH2      OT      -0.834000       15.9994           0
     85815 TIP3     25300    TIP3     H1       HT       0.417000       1.00800           0
     85816 TIP3     25300    TIP3     H2       HT       0.417000       1.00800           0
     85817 TIP3     25301    TIP3     OH2      OT      -0.834000       15.9994           0
     85818 TIP3     25301    TIP3     H1       HT       0.417000       1.00800           0
     85819 TIP3     25301    TIP3     H2       HT       0.417000       1.00800           0
     85820 TIP3     25302    TIP3     OH2      OT      -0.834000       15.9994           0
     85821 TIP3     25302    TIP3     H1       HT       0.417000       1.00800           0
     85822 TIP3     25302    TIP3     H2       HT       0.417000       1.00800           0
     85823 TIP3     25303    TIP3     OH2      OT      -0.834000       15.9994           0
     85824 TIP3     25303    TIP3     H1       HT       0.417000       1.00800           0
     85825 TIP3     25303    TIP3     H2       HT       0.417000       1.00800           0
     85826 TIP3     25304    TIP3     OH2      OT      -0.834000       15.9994           0
     85827 TIP3     25304    TIP3     H1       HT       0.417000       1.00800           0
     85828 TIP3     25304    TIP3     H2       HT       0.417000       1.00800           0
     85829 TIP3     25305    TIP3     OH2      OT      -0.834000       15.9994           0
     85830 TIP3     25305    TIP3     H1       HT       0.417000       1.00800           0
     85831 TIP3     25305    TIP3     H2       HT       0.417000       1.00800           0
     85832 TIP3     25306    TIP3     OH2      OT      -0.834000       15.9994           0
     85833 TIP3     25306    TIP3     H1       HT       0.417000       1.00800           0
     85834 TIP3     25306    TIP3     H2       HT       0.417000       1.00800           0
     85835 TIP3     25307    TIP3     OH2      OT      -0.834000       15.9994           0
     85836 TIP3     25307    TIP3     H1       HT       0.417000       1.00800           0
     85837 TIP3     25307    TIP3     H2       HT       0.417000       1.00800           0
     85838 TIP3     25308    TIP3     OH2      OT      -0.834000       15.9994           0
     85839 TIP3     25308    TIP3     H1       HT       0.417000       1.00800           0
     85840 TIP3     25308    TIP3     H2       HT       0.417000       1.00800           0
     85841 TIP3     25309    TIP3     OH2      OT      -0.834000       15.9994           0
     85842 TIP3     25309    TIP3     H1       HT       0.417000       1.00800           0
     85843 TIP3     25309    TIP3     H2       HT       0.417000       1.00800           0
     85844 TIP3     25310    TIP3     OH2      OT      -0.834000       15.9994           0
     85845 TIP3     25310    TIP3     H1       HT       0.417000       1.00800           0
     85846 TIP3     25310    TIP3     H2       HT       0.417000       1.00800           0
     85847 TIP3     25311    TIP3     OH2      OT      -0.834000       15.9994           0
     85848 TIP3     25311    TIP3     H1       HT       0.417000       1.00800           0
     85849 TIP3     25311    TIP3     H2       HT       0.417000       1.00800           0
     85850 TIP3     25312    TIP3     OH2      OT      -0.834000       15.9994           0
     85851 TIP3     25312    TIP3     H1       HT       0.417000       1.00800           0
     85852 TIP3     25312    TIP3     H2       HT       0.417000       1.00800           0
     85853 TIP3     25313    TIP3     OH2      OT      -0.834000       15.9994           0
     85854 TIP3     25313    TIP3     H1       HT       0.417000       1.00800           0
     85855 TIP3     25313    TIP3     H2       HT       0.417000       1.00800           0
     85856 TIP3     25314    TIP3     OH2      OT      -0.834000       15.9994           0
     85857 TIP3     25314    TIP3     H1       HT       0.417000       1.00800           0
     85858 TIP3     25314    TIP3     H2       HT       0.417000       1.00800           0
     85859 TIP3     25315    TIP3     OH2      OT      -0.834000       15.9994           0
     85860 TIP3     25315    TIP3     H1       HT       0.417000       1.00800           0
     85861 TIP3     25315    TIP3     H2       HT       0.417000       1.00800           0
     85862 TIP3     25316    TIP3     OH2      OT      -0.834000       15.9994           0
     85863 TIP3     25316    TIP3     H1       HT       0.417000       1.00800           0
     85864 TIP3     25316    TIP3     H2       HT       0.417000       1.00800           0
     85865 TIP3     25317    TIP3     OH2      OT      -0.834000       15.9994           0
     85866 TIP3     25317    TIP3     H1       HT       0.417000       1.00800           0
     85867 TIP3     25317    TIP3     H2       HT       0.417000       1.00800           0
     85868 TIP3     25318    TIP3     OH2      OT      -0.834000       15.9994           0
     85869 TIP3     25318    TIP3     H1       HT       0.417000       1.00800           0
     85870 TIP3     25318    TIP3     H2       HT       0.417000       1.00800           0
     85871 TIP3     25319    TIP3     OH2      OT      -0.834000       15.9994           0
     85872 TIP3     25319    TIP3     H1       HT       0.417000       1.00800           0
     85873 TIP3     25319    TIP3     H2       HT       0.417000       1.00800           0
     85874 TIP3     25320    TIP3     OH2      OT      -0.834000       15.9994           0
     85875 TIP3     25320    TIP3     H1       HT       0.417000       1.00800           0
     85876 TIP3     25320    TIP3     H2       HT       0.417000       1.00800           0
     85877 TIP3     25321    TIP3     OH2      OT      -0.834000       15.9994           0
     85878 TIP3     25321    TIP3     H1       HT       0.417000       1.00800           0
     85879 TIP3     25321    TIP3     H2       HT       0.417000       1.00800           0
     85880 TIP3     25322    TIP3     OH2      OT      -0.834000       15.9994           0
     85881 TIP3     25322    TIP3     H1       HT       0.417000       1.00800           0
     85882 TIP3     25322    TIP3     H2       HT       0.417000       1.00800           0
     85883 TIP3     25323    TIP3     OH2      OT      -0.834000       15.9994           0
     85884 TIP3     25323    TIP3     H1       HT       0.417000       1.00800           0
     85885 TIP3     25323    TIP3     H2       HT       0.417000       1.00800           0
     85886 TIP3     25324    TIP3     OH2      OT      -0.834000       15.9994           0
     85887 TIP3     25324    TIP3     H1       HT       0.417000       1.00800           0
     85888 TIP3     25324    TIP3     H2       HT       0.417000       1.00800           0
     85889 TIP3     25325    TIP3     OH2      OT      -0.834000       15.9994           0
     85890 TIP3     25325    TIP3     H1       HT       0.417000       1.00800           0
     85891 TIP3     25325    TIP3     H2       HT       0.417000       1.00800           0
     85892 TIP3     25326    TIP3     OH2      OT      -0.834000       15.9994           0
     85893 TIP3     25326    TIP3     H1       HT       0.417000       1.00800           0
     85894 TIP3     25326    TIP3     H2       HT       0.417000       1.00800           0
     85895 TIP3     25327    TIP3     OH2      OT      -0.834000       15.9994           0
     85896 TIP3     25327    TIP3     H1       HT       0.417000       1.00800           0
     85897 TIP3     25327    TIP3     H2       HT       0.417000       1.00800           0
     85898 TIP3     25328    TIP3     OH2      OT      -0.834000       15.9994           0
     85899 TIP3     25328    TIP3     H1       HT       0.417000       1.00800           0
     85900 TIP3     25328    TIP3     H2       HT       0.417000       1.00800           0
     85901 TIP3     25329    TIP3     OH2      OT      -0.834000       15.9994           0
     85902 TIP3     25329    TIP3     H1       HT       0.417000       1.00800           0
     85903 TIP3     25329    TIP3     H2       HT       0.417000       1.00800           0
     85904 TIP3     25330    TIP3     OH2      OT      -0.834000       15.9994           0
     85905 TIP3     25330    TIP3     H1       HT       0.417000       1.00800           0
     85906 TIP3     25330    TIP3     H2       HT       0.417000       1.00800           0
     85907 TIP3     25331    TIP3     OH2      OT      -0.834000       15.9994           0
     85908 TIP3     25331    TIP3     H1       HT       0.417000       1.00800           0
     85909 TIP3     25331    TIP3     H2       HT       0.417000       1.00800           0
     85910 TIP3     25332    TIP3     OH2      OT      -0.834000       15.9994           0
     85911 TIP3     25332    TIP3     H1       HT       0.417000       1.00800           0
     85912 TIP3     25332    TIP3     H2       HT       0.417000       1.00800           0
     85913 TIP3     25333    TIP3     OH2      OT      -0.834000       15.9994           0
     85914 TIP3     25333    TIP3     H1       HT       0.417000       1.00800           0
     85915 TIP3     25333    TIP3     H2       HT       0.417000       1.00800           0
     85916 TIP3     25334    TIP3     OH2      OT      -0.834000       15.9994           0
     85917 TIP3     25334    TIP3     H1       HT       0.417000       1.00800           0
     85918 TIP3     25334    TIP3     H2       HT       0.417000       1.00800           0
     85919 TIP3     25335    TIP3     OH2      OT      -0.834000       15.9994           0
     85920 TIP3     25335    TIP3     H1       HT       0.417000       1.00800           0
     85921 TIP3     25335    TIP3     H2       HT       0.417000       1.00800           0
     85922 TIP3     25336    TIP3     OH2      OT      -0.834000       15.9994           0
     85923 TIP3     25336    TIP3     H1       HT       0.417000       1.00800           0
     85924 TIP3     25336    TIP3     H2       HT       0.417000       1.00800           0
     85925 TIP3     25337    TIP3     OH2      OT      -0.834000       15.9994           0
     85926 TIP3     25337    TIP3     H1       HT       0.417000       1.00800           0
     85927 TIP3     25337    TIP3     H2       HT       0.417000       1.00800           0
     85928 TIP3     25338    TIP3     OH2      OT      -0.834000       15.9994           0
     85929 TIP3     25338    TIP3     H1       HT       0.417000       1.00800           0
     85930 TIP3     25338    TIP3     H2       HT       0.417000       1.00800           0
     85931 TIP3     25339    TIP3     OH2      OT      -0.834000       15.9994           0
     85932 TIP3     25339    TIP3     H1       HT       0.417000       1.00800           0
     85933 TIP3     25339    TIP3     H2       HT       0.417000       1.00800           0
     85934 TIP3     25340    TIP3     OH2      OT      -0.834000       15.9994           0
     85935 TIP3     25340    TIP3     H1       HT       0.417000       1.00800           0
     85936 TIP3     25340    TIP3     H2       HT       0.417000       1.00800           0
     85937 TIP3     25341    TIP3     OH2      OT      -0.834000       15.9994           0
     85938 TIP3     25341    TIP3     H1       HT       0.417000       1.00800           0
     85939 TIP3     25341    TIP3     H2       HT       0.417000       1.00800           0
     85940 TIP3     25342    TIP3     OH2      OT      -0.834000       15.9994           0
     85941 TIP3     25342    TIP3     H1       HT       0.417000       1.00800           0
     85942 TIP3     25342    TIP3     H2       HT       0.417000       1.00800           0
     85943 TIP3     25343    TIP3     OH2      OT      -0.834000       15.9994           0
     85944 TIP3     25343    TIP3     H1       HT       0.417000       1.00800           0
     85945 TIP3     25343    TIP3     H2       HT       0.417000       1.00800           0
     85946 TIP3     25344    TIP3     OH2      OT      -0.834000       15.9994           0
     85947 TIP3     25344    TIP3     H1       HT       0.417000       1.00800           0
     85948 TIP3     25344    TIP3     H2       HT       0.417000       1.00800           0
     85949 TIP3     25345    TIP3     OH2      OT      -0.834000       15.9994           0
     85950 TIP3     25345    TIP3     H1       HT       0.417000       1.00800           0
     85951 TIP3     25345    TIP3     H2       HT       0.417000       1.00800           0
     85952 TIP3     25346    TIP3     OH2      OT      -0.834000       15.9994           0
     85953 TIP3     25346    TIP3     H1       HT       0.417000       1.00800           0
     85954 TIP3     25346    TIP3     H2       HT       0.417000       1.00800           0
     85955 TIP3     25347    TIP3     OH2      OT      -0.834000       15.9994           0
     85956 TIP3     25347    TIP3     H1       HT       0.417000       1.00800           0
     85957 TIP3     25347    TIP3     H2       HT       0.417000       1.00800           0
     85958 TIP3     25348    TIP3     OH2      OT      -0.834000       15.9994           0
     85959 TIP3     25348    TIP3     H1       HT       0.417000       1.00800           0
     85960 TIP3     25348    TIP3     H2       HT       0.417000       1.00800           0
     85961 TIP3     25349    TIP3     OH2      OT      -0.834000       15.9994           0
     85962 TIP3     25349    TIP3     H1       HT       0.417000       1.00800           0
     85963 TIP3     25349    TIP3     H2       HT       0.417000       1.00800           0
     85964 TIP3     25350    TIP3     OH2      OT      -0.834000       15.9994           0
     85965 TIP3     25350    TIP3     H1       HT       0.417000       1.00800           0
     85966 TIP3     25350    TIP3     H2       HT       0.417000       1.00800           0
     85967 TIP3     25351    TIP3     OH2      OT      -0.834000       15.9994           0
     85968 TIP3     25351    TIP3     H1       HT       0.417000       1.00800           0
     85969 TIP3     25351    TIP3     H2       HT       0.417000       1.00800           0
     85970 TIP3     25352    TIP3     OH2      OT      -0.834000       15.9994           0
     85971 TIP3     25352    TIP3     H1       HT       0.417000       1.00800           0
     85972 TIP3     25352    TIP3     H2       HT       0.417000       1.00800           0
     85973 TIP3     25353    TIP3     OH2      OT      -0.834000       15.9994           0
     85974 TIP3     25353    TIP3     H1       HT       0.417000       1.00800           0
     85975 TIP3     25353    TIP3     H2       HT       0.417000       1.00800           0
     85976 TIP3     25354    TIP3     OH2      OT      -0.834000       15.9994           0
     85977 TIP3     25354    TIP3     H1       HT       0.417000       1.00800           0
     85978 TIP3     25354    TIP3     H2       HT       0.417000       1.00800           0
     85979 TIP3     25355    TIP3     OH2      OT      -0.834000       15.9994           0
     85980 TIP3     25355    TIP3     H1       HT       0.417000       1.00800           0
     85981 TIP3     25355    TIP3     H2       HT       0.417000       1.00800           0
     85982 TIP3     25356    TIP3     OH2      OT      -0.834000       15.9994           0
     85983 TIP3     25356    TIP3     H1       HT       0.417000       1.00800           0
     85984 TIP3     25356    TIP3     H2       HT       0.417000       1.00800           0
     85985 TIP3     25357    TIP3     OH2      OT      -0.834000       15.9994           0
     85986 TIP3     25357    TIP3     H1       HT       0.417000       1.00800           0
     85987 TIP3     25357    TIP3     H2       HT       0.417000       1.00800           0
     85988 TIP3     25358    TIP3     OH2      OT      -0.834000       15.9994           0
     85989 TIP3     25358    TIP3     H1       HT       0.417000       1.00800           0
     85990 TIP3     25358    TIP3     H2       HT       0.417000       1.00800           0
     85991 TIP3     25359    TIP3     OH2      OT      -0.834000       15.9994           0
     85992 TIP3     25359    TIP3     H1       HT       0.417000       1.00800           0
     85993 TIP3     25359    TIP3     H2       HT       0.417000       1.00800           0
     85994 TIP3     25360    TIP3     OH2      OT      -0.834000       15.9994           0
     85995 TIP3     25360    TIP3     H1       HT       0.417000       1.00800           0
     85996 TIP3     25360    TIP3     H2       HT       0.417000       1.00800           0
     85997 TIP3     25361    TIP3     OH2      OT      -0.834000       15.9994           0
     85998 TIP3     25361    TIP3     H1       HT       0.417000       1.00800           0
     85999 TIP3     25361    TIP3     H2       HT       0.417000       1.00800           0
     86000 TIP3     25362    TIP3     OH2      OT      -0.834000       15.9994           0
     86001 TIP3     25362    TIP3     H1       HT       0.417000       1.00800           0
     86002 TIP3     25362    TIP3     H2       HT       0.417000       1.00800           0
     86003 TIP3     25363    TIP3     OH2      OT      -0.834000       15.9994           0
     86004 TIP3     25363    TIP3     H1       HT       0.417000       1.00800           0
     86005 TIP3     25363    TIP3     H2       HT       0.417000       1.00800           0
     86006 TIP3     25364    TIP3     OH2      OT      -0.834000       15.9994           0
     86007 TIP3     25364    TIP3     H1       HT       0.417000       1.00800           0
     86008 TIP3     25364    TIP3     H2       HT       0.417000       1.00800           0
     86009 TIP3     25365    TIP3     OH2      OT      -0.834000       15.9994           0
     86010 TIP3     25365    TIP3     H1       HT       0.417000       1.00800           0
     86011 TIP3     25365    TIP3     H2       HT       0.417000       1.00800           0
     86012 TIP3     25366    TIP3     OH2      OT      -0.834000       15.9994           0
     86013 TIP3     25366    TIP3     H1       HT       0.417000       1.00800           0
     86014 TIP3     25366    TIP3     H2       HT       0.417000       1.00800           0
     86015 TIP3     25367    TIP3     OH2      OT      -0.834000       15.9994           0
     86016 TIP3     25367    TIP3     H1       HT       0.417000       1.00800           0
     86017 TIP3     25367    TIP3     H2       HT       0.417000       1.00800           0
     86018 TIP3     25368    TIP3     OH2      OT      -0.834000       15.9994           0
     86019 TIP3     25368    TIP3     H1       HT       0.417000       1.00800           0
     86020 TIP3     25368    TIP3     H2       HT       0.417000       1.00800           0
     86021 TIP3     25369    TIP3     OH2      OT      -0.834000       15.9994           0
     86022 TIP3     25369    TIP3     H1       HT       0.417000       1.00800           0
     86023 TIP3     25369    TIP3     H2       HT       0.417000       1.00800           0
     86024 TIP3     25370    TIP3     OH2      OT      -0.834000       15.9994           0
     86025 TIP3     25370    TIP3     H1       HT       0.417000       1.00800           0
     86026 TIP3     25370    TIP3     H2       HT       0.417000       1.00800           0
     86027 TIP3     25371    TIP3     OH2      OT      -0.834000       15.9994           0
     86028 TIP3     25371    TIP3     H1       HT       0.417000       1.00800           0
     86029 TIP3     25371    TIP3     H2       HT       0.417000       1.00800           0
     86030 TIP3     25372    TIP3     OH2      OT      -0.834000       15.9994           0
     86031 TIP3     25372    TIP3     H1       HT       0.417000       1.00800           0
     86032 TIP3     25372    TIP3     H2       HT       0.417000       1.00800           0
     86033 TIP3     25373    TIP3     OH2      OT      -0.834000       15.9994           0
     86034 TIP3     25373    TIP3     H1       HT       0.417000       1.00800           0
     86035 TIP3     25373    TIP3     H2       HT       0.417000       1.00800           0
     86036 TIP3     25374    TIP3     OH2      OT      -0.834000       15.9994           0
     86037 TIP3     25374    TIP3     H1       HT       0.417000       1.00800           0
     86038 TIP3     25374    TIP3     H2       HT       0.417000       1.00800           0
     86039 TIP3     25375    TIP3     OH2      OT      -0.834000       15.9994           0
     86040 TIP3     25375    TIP3     H1       HT       0.417000       1.00800           0
     86041 TIP3     25375    TIP3     H2       HT       0.417000       1.00800           0
     86042 TIP3     25376    TIP3     OH2      OT      -0.834000       15.9994           0
     86043 TIP3     25376    TIP3     H1       HT       0.417000       1.00800           0
     86044 TIP3     25376    TIP3     H2       HT       0.417000       1.00800           0
     86045 TIP3     25377    TIP3     OH2      OT      -0.834000       15.9994           0
     86046 TIP3     25377    TIP3     H1       HT       0.417000       1.00800           0
     86047 TIP3     25377    TIP3     H2       HT       0.417000       1.00800           0
     86048 TIP3     25378    TIP3     OH2      OT      -0.834000       15.9994           0
     86049 TIP3     25378    TIP3     H1       HT       0.417000       1.00800           0
     86050 TIP3     25378    TIP3     H2       HT       0.417000       1.00800           0
     86051 TIP3     25379    TIP3     OH2      OT      -0.834000       15.9994           0
     86052 TIP3     25379    TIP3     H1       HT       0.417000       1.00800           0
     86053 TIP3     25379    TIP3     H2       HT       0.417000       1.00800           0
     86054 TIP3     25380    TIP3     OH2      OT      -0.834000       15.9994           0
     86055 TIP3     25380    TIP3     H1       HT       0.417000       1.00800           0
     86056 TIP3     25380    TIP3     H2       HT       0.417000       1.00800           0
     86057 TIP3     25381    TIP3     OH2      OT      -0.834000       15.9994           0
     86058 TIP3     25381    TIP3     H1       HT       0.417000       1.00800           0
     86059 TIP3     25381    TIP3     H2       HT       0.417000       1.00800           0
     86060 TIP3     25382    TIP3     OH2      OT      -0.834000       15.9994           0
     86061 TIP3     25382    TIP3     H1       HT       0.417000       1.00800           0
     86062 TIP3     25382    TIP3     H2       HT       0.417000       1.00800           0
     86063 TIP3     25383    TIP3     OH2      OT      -0.834000       15.9994           0
     86064 TIP3     25383    TIP3     H1       HT       0.417000       1.00800           0
     86065 TIP3     25383    TIP3     H2       HT       0.417000       1.00800           0
     86066 TIP3     25384    TIP3     OH2      OT      -0.834000       15.9994           0
     86067 TIP3     25384    TIP3     H1       HT       0.417000       1.00800           0
     86068 TIP3     25384    TIP3     H2       HT       0.417000       1.00800           0
     86069 TIP3     25385    TIP3     OH2      OT      -0.834000       15.9994           0
     86070 TIP3     25385    TIP3     H1       HT       0.417000       1.00800           0
     86071 TIP3     25385    TIP3     H2       HT       0.417000       1.00800           0
     86072 TIP3     25386    TIP3     OH2      OT      -0.834000       15.9994           0
     86073 TIP3     25386    TIP3     H1       HT       0.417000       1.00800           0
     86074 TIP3     25386    TIP3     H2       HT       0.417000       1.00800           0
     86075 TIP3     25387    TIP3     OH2      OT      -0.834000       15.9994           0
     86076 TIP3     25387    TIP3     H1       HT       0.417000       1.00800           0
     86077 TIP3     25387    TIP3     H2       HT       0.417000       1.00800           0
     86078 TIP3     25388    TIP3     OH2      OT      -0.834000       15.9994           0
     86079 TIP3     25388    TIP3     H1       HT       0.417000       1.00800           0
     86080 TIP3     25388    TIP3     H2       HT       0.417000       1.00800           0
     86081 TIP3     25389    TIP3     OH2      OT      -0.834000       15.9994           0
     86082 TIP3     25389    TIP3     H1       HT       0.417000       1.00800           0
     86083 TIP3     25389    TIP3     H2       HT       0.417000       1.00800           0
     86084 TIP3     25390    TIP3     OH2      OT      -0.834000       15.9994           0
     86085 TIP3     25390    TIP3     H1       HT       0.417000       1.00800           0
     86086 TIP3     25390    TIP3     H2       HT       0.417000       1.00800           0
     86087 TIP3     25391    TIP3     OH2      OT      -0.834000       15.9994           0
     86088 TIP3     25391    TIP3     H1       HT       0.417000       1.00800           0
     86089 TIP3     25391    TIP3     H2       HT       0.417000       1.00800           0
     86090 TIP3     25392    TIP3     OH2      OT      -0.834000       15.9994           0
     86091 TIP3     25392    TIP3     H1       HT       0.417000       1.00800           0
     86092 TIP3     25392    TIP3     H2       HT       0.417000       1.00800           0
     86093 TIP3     25393    TIP3     OH2      OT      -0.834000       15.9994           0
     86094 TIP3     25393    TIP3     H1       HT       0.417000       1.00800           0
     86095 TIP3     25393    TIP3     H2       HT       0.417000       1.00800           0
     86096 TIP3     25394    TIP3     OH2      OT      -0.834000       15.9994           0
     86097 TIP3     25394    TIP3     H1       HT       0.417000       1.00800           0
     86098 TIP3     25394    TIP3     H2       HT       0.417000       1.00800           0
     86099 TIP3     25395    TIP3     OH2      OT      -0.834000       15.9994           0
     86100 TIP3     25395    TIP3     H1       HT       0.417000       1.00800           0
     86101 TIP3     25395    TIP3     H2       HT       0.417000       1.00800           0
     86102 TIP3     25396    TIP3     OH2      OT      -0.834000       15.9994           0
     86103 TIP3     25396    TIP3     H1       HT       0.417000       1.00800           0
     86104 TIP3     25396    TIP3     H2       HT       0.417000       1.00800           0
     86105 TIP3     25397    TIP3     OH2      OT      -0.834000       15.9994           0
     86106 TIP3     25397    TIP3     H1       HT       0.417000       1.00800           0
     86107 TIP3     25397    TIP3     H2       HT       0.417000       1.00800           0
     86108 TIP3     25398    TIP3     OH2      OT      -0.834000       15.9994           0
     86109 TIP3     25398    TIP3     H1       HT       0.417000       1.00800           0
     86110 TIP3     25398    TIP3     H2       HT       0.417000       1.00800           0
     86111 TIP3     25399    TIP3     OH2      OT      -0.834000       15.9994           0
     86112 TIP3     25399    TIP3     H1       HT       0.417000       1.00800           0
     86113 TIP3     25399    TIP3     H2       HT       0.417000       1.00800           0
     86114 TIP3     25400    TIP3     OH2      OT      -0.834000       15.9994           0
     86115 TIP3     25400    TIP3     H1       HT       0.417000       1.00800           0
     86116 TIP3     25400    TIP3     H2       HT       0.417000       1.00800           0
     86117 TIP3     25401    TIP3     OH2      OT      -0.834000       15.9994           0
     86118 TIP3     25401    TIP3     H1       HT       0.417000       1.00800           0
     86119 TIP3     25401    TIP3     H2       HT       0.417000       1.00800           0
     86120 TIP3     25402    TIP3     OH2      OT      -0.834000       15.9994           0
     86121 TIP3     25402    TIP3     H1       HT       0.417000       1.00800           0
     86122 TIP3     25402    TIP3     H2       HT       0.417000       1.00800           0
     86123 TIP3     25403    TIP3     OH2      OT      -0.834000       15.9994           0
     86124 TIP3     25403    TIP3     H1       HT       0.417000       1.00800           0
     86125 TIP3     25403    TIP3     H2       HT       0.417000       1.00800           0
     86126 TIP3     25404    TIP3     OH2      OT      -0.834000       15.9994           0
     86127 TIP3     25404    TIP3     H1       HT       0.417000       1.00800           0
     86128 TIP3     25404    TIP3     H2       HT       0.417000       1.00800           0
     86129 TIP3     25405    TIP3     OH2      OT      -0.834000       15.9994           0
     86130 TIP3     25405    TIP3     H1       HT       0.417000       1.00800           0
     86131 TIP3     25405    TIP3     H2       HT       0.417000       1.00800           0
     86132 TIP3     25406    TIP3     OH2      OT      -0.834000       15.9994           0
     86133 TIP3     25406    TIP3     H1       HT       0.417000       1.00800           0
     86134 TIP3     25406    TIP3     H2       HT       0.417000       1.00800           0
     86135 TIP3     25407    TIP3     OH2      OT      -0.834000       15.9994           0
     86136 TIP3     25407    TIP3     H1       HT       0.417000       1.00800           0
     86137 TIP3     25407    TIP3     H2       HT       0.417000       1.00800           0
     86138 TIP3     25408    TIP3     OH2      OT      -0.834000       15.9994           0
     86139 TIP3     25408    TIP3     H1       HT       0.417000       1.00800           0
     86140 TIP3     25408    TIP3     H2       HT       0.417000       1.00800           0
     86141 TIP3     25409    TIP3     OH2      OT      -0.834000       15.9994           0
     86142 TIP3     25409    TIP3     H1       HT       0.417000       1.00800           0
     86143 TIP3     25409    TIP3     H2       HT       0.417000       1.00800           0
     86144 TIP3     25410    TIP3     OH2      OT      -0.834000       15.9994           0
     86145 TIP3     25410    TIP3     H1       HT       0.417000       1.00800           0
     86146 TIP3     25410    TIP3     H2       HT       0.417000       1.00800           0
     86147 TIP3     25411    TIP3     OH2      OT      -0.834000       15.9994           0
     86148 TIP3     25411    TIP3     H1       HT       0.417000       1.00800           0
     86149 TIP3     25411    TIP3     H2       HT       0.417000       1.00800           0
     86150 TIP3     25412    TIP3     OH2      OT      -0.834000       15.9994           0
     86151 TIP3     25412    TIP3     H1       HT       0.417000       1.00800           0
     86152 TIP3     25412    TIP3     H2       HT       0.417000       1.00800           0
     86153 TIP3     25413    TIP3     OH2      OT      -0.834000       15.9994           0
     86154 TIP3     25413    TIP3     H1       HT       0.417000       1.00800           0
     86155 TIP3     25413    TIP3     H2       HT       0.417000       1.00800           0
     86156 TIP3     25414    TIP3     OH2      OT      -0.834000       15.9994           0
     86157 TIP3     25414    TIP3     H1       HT       0.417000       1.00800           0
     86158 TIP3     25414    TIP3     H2       HT       0.417000       1.00800           0
     86159 TIP3     25415    TIP3     OH2      OT      -0.834000       15.9994           0
     86160 TIP3     25415    TIP3     H1       HT       0.417000       1.00800           0
     86161 TIP3     25415    TIP3     H2       HT       0.417000       1.00800           0
     86162 TIP3     25416    TIP3     OH2      OT      -0.834000       15.9994           0
     86163 TIP3     25416    TIP3     H1       HT       0.417000       1.00800           0
     86164 TIP3     25416    TIP3     H2       HT       0.417000       1.00800           0
     86165 TIP3     25417    TIP3     OH2      OT      -0.834000       15.9994           0
     86166 TIP3     25417    TIP3     H1       HT       0.417000       1.00800           0
     86167 TIP3     25417    TIP3     H2       HT       0.417000       1.00800           0
     86168 TIP3     25418    TIP3     OH2      OT      -0.834000       15.9994           0
     86169 TIP3     25418    TIP3     H1       HT       0.417000       1.00800           0
     86170 TIP3     25418    TIP3     H2       HT       0.417000       1.00800           0
     86171 TIP3     25419    TIP3     OH2      OT      -0.834000       15.9994           0
     86172 TIP3     25419    TIP3     H1       HT       0.417000       1.00800           0
     86173 TIP3     25419    TIP3     H2       HT       0.417000       1.00800           0
     86174 TIP3     25420    TIP3     OH2      OT      -0.834000       15.9994           0
     86175 TIP3     25420    TIP3     H1       HT       0.417000       1.00800           0
     86176 TIP3     25420    TIP3     H2       HT       0.417000       1.00800           0
     86177 TIP3     25421    TIP3     OH2      OT      -0.834000       15.9994           0
     86178 TIP3     25421    TIP3     H1       HT       0.417000       1.00800           0
     86179 TIP3     25421    TIP3     H2       HT       0.417000       1.00800           0
     86180 TIP3     25422    TIP3     OH2      OT      -0.834000       15.9994           0
     86181 TIP3     25422    TIP3     H1       HT       0.417000       1.00800           0
     86182 TIP3     25422    TIP3     H2       HT       0.417000       1.00800           0
     86183 TIP3     25423    TIP3     OH2      OT      -0.834000       15.9994           0
     86184 TIP3     25423    TIP3     H1       HT       0.417000       1.00800           0
     86185 TIP3     25423    TIP3     H2       HT       0.417000       1.00800           0
     86186 TIP3     25424    TIP3     OH2      OT      -0.834000       15.9994           0
     86187 TIP3     25424    TIP3     H1       HT       0.417000       1.00800           0
     86188 TIP3     25424    TIP3     H2       HT       0.417000       1.00800           0
     86189 TIP3     25425    TIP3     OH2      OT      -0.834000       15.9994           0
     86190 TIP3     25425    TIP3     H1       HT       0.417000       1.00800           0
     86191 TIP3     25425    TIP3     H2       HT       0.417000       1.00800           0
     86192 TIP3     25426    TIP3     OH2      OT      -0.834000       15.9994           0
     86193 TIP3     25426    TIP3     H1       HT       0.417000       1.00800           0
     86194 TIP3     25426    TIP3     H2       HT       0.417000       1.00800           0
     86195 TIP3     25427    TIP3     OH2      OT      -0.834000       15.9994           0
     86196 TIP3     25427    TIP3     H1       HT       0.417000       1.00800           0
     86197 TIP3     25427    TIP3     H2       HT       0.417000       1.00800           0
     86198 TIP3     25428    TIP3     OH2      OT      -0.834000       15.9994           0
     86199 TIP3     25428    TIP3     H1       HT       0.417000       1.00800           0
     86200 TIP3     25428    TIP3     H2       HT       0.417000       1.00800           0
     86201 TIP3     25429    TIP3     OH2      OT      -0.834000       15.9994           0
     86202 TIP3     25429    TIP3     H1       HT       0.417000       1.00800           0
     86203 TIP3     25429    TIP3     H2       HT       0.417000       1.00800           0
     86204 TIP3     25430    TIP3     OH2      OT      -0.834000       15.9994           0
     86205 TIP3     25430    TIP3     H1       HT       0.417000       1.00800           0
     86206 TIP3     25430    TIP3     H2       HT       0.417000       1.00800           0
     86207 TIP3     25431    TIP3     OH2      OT      -0.834000       15.9994           0
     86208 TIP3     25431    TIP3     H1       HT       0.417000       1.00800           0
     86209 TIP3     25431    TIP3     H2       HT       0.417000       1.00800           0
     86210 TIP3     25432    TIP3     OH2      OT      -0.834000       15.9994           0
     86211 TIP3     25432    TIP3     H1       HT       0.417000       1.00800           0
     86212 TIP3     25432    TIP3     H2       HT       0.417000       1.00800           0
     86213 TIP3     25433    TIP3     OH2      OT      -0.834000       15.9994           0
     86214 TIP3     25433    TIP3     H1       HT       0.417000       1.00800           0
     86215 TIP3     25433    TIP3     H2       HT       0.417000       1.00800           0
     86216 TIP3     25434    TIP3     OH2      OT      -0.834000       15.9994           0
     86217 TIP3     25434    TIP3     H1       HT       0.417000       1.00800           0
     86218 TIP3     25434    TIP3     H2       HT       0.417000       1.00800           0
     86219 TIP3     25435    TIP3     OH2      OT      -0.834000       15.9994           0
     86220 TIP3     25435    TIP3     H1       HT       0.417000       1.00800           0
     86221 TIP3     25435    TIP3     H2       HT       0.417000       1.00800           0
     86222 TIP3     25436    TIP3     OH2      OT      -0.834000       15.9994           0
     86223 TIP3     25436    TIP3     H1       HT       0.417000       1.00800           0
     86224 TIP3     25436    TIP3     H2       HT       0.417000       1.00800           0
     86225 TIP3     25437    TIP3     OH2      OT      -0.834000       15.9994           0
     86226 TIP3     25437    TIP3     H1       HT       0.417000       1.00800           0
     86227 TIP3     25437    TIP3     H2       HT       0.417000       1.00800           0
     86228 TIP3     25438    TIP3     OH2      OT      -0.834000       15.9994           0
     86229 TIP3     25438    TIP3     H1       HT       0.417000       1.00800           0
     86230 TIP3     25438    TIP3     H2       HT       0.417000       1.00800           0
     86231 TIP3     25439    TIP3     OH2      OT      -0.834000       15.9994           0
     86232 TIP3     25439    TIP3     H1       HT       0.417000       1.00800           0
     86233 TIP3     25439    TIP3     H2       HT       0.417000       1.00800           0
     86234 TIP3     25440    TIP3     OH2      OT      -0.834000       15.9994           0
     86235 TIP3     25440    TIP3     H1       HT       0.417000       1.00800           0
     86236 TIP3     25440    TIP3     H2       HT       0.417000       1.00800           0
     86237 TIP3     25441    TIP3     OH2      OT      -0.834000       15.9994           0
     86238 TIP3     25441    TIP3     H1       HT       0.417000       1.00800           0
     86239 TIP3     25441    TIP3     H2       HT       0.417000       1.00800           0
     86240 TIP3     25442    TIP3     OH2      OT      -0.834000       15.9994           0
     86241 TIP3     25442    TIP3     H1       HT       0.417000       1.00800           0
     86242 TIP3     25442    TIP3     H2       HT       0.417000       1.00800           0
     86243 TIP3     25443    TIP3     OH2      OT      -0.834000       15.9994           0
     86244 TIP3     25443    TIP3     H1       HT       0.417000       1.00800           0
     86245 TIP3     25443    TIP3     H2       HT       0.417000       1.00800           0
     86246 TIP3     25444    TIP3     OH2      OT      -0.834000       15.9994           0
     86247 TIP3     25444    TIP3     H1       HT       0.417000       1.00800           0
     86248 TIP3     25444    TIP3     H2       HT       0.417000       1.00800           0
     86249 TIP3     25445    TIP3     OH2      OT      -0.834000       15.9994           0
     86250 TIP3     25445    TIP3     H1       HT       0.417000       1.00800           0
     86251 TIP3     25445    TIP3     H2       HT       0.417000       1.00800           0
     86252 TIP3     25446    TIP3     OH2      OT      -0.834000       15.9994           0
     86253 TIP3     25446    TIP3     H1       HT       0.417000       1.00800           0
     86254 TIP3     25446    TIP3     H2       HT       0.417000       1.00800           0
     86255 TIP3     25447    TIP3     OH2      OT      -0.834000       15.9994           0
     86256 TIP3     25447    TIP3     H1       HT       0.417000       1.00800           0
     86257 TIP3     25447    TIP3     H2       HT       0.417000       1.00800           0
     86258 TIP3     25448    TIP3     OH2      OT      -0.834000       15.9994           0
     86259 TIP3     25448    TIP3     H1       HT       0.417000       1.00800           0
     86260 TIP3     25448    TIP3     H2       HT       0.417000       1.00800           0
     86261 TIP3     25449    TIP3     OH2      OT      -0.834000       15.9994           0
     86262 TIP3     25449    TIP3     H1       HT       0.417000       1.00800           0
     86263 TIP3     25449    TIP3     H2       HT       0.417000       1.00800           0
     86264 TIP3     25450    TIP3     OH2      OT      -0.834000       15.9994           0
     86265 TIP3     25450    TIP3     H1       HT       0.417000       1.00800           0
     86266 TIP3     25450    TIP3     H2       HT       0.417000       1.00800           0
     86267 TIP3     25451    TIP3     OH2      OT      -0.834000       15.9994           0
     86268 TIP3     25451    TIP3     H1       HT       0.417000       1.00800           0
     86269 TIP3     25451    TIP3     H2       HT       0.417000       1.00800           0
     86270 TIP3     25452    TIP3     OH2      OT      -0.834000       15.9994           0
     86271 TIP3     25452    TIP3     H1       HT       0.417000       1.00800           0
     86272 TIP3     25452    TIP3     H2       HT       0.417000       1.00800           0
     86273 TIP3     25453    TIP3     OH2      OT      -0.834000       15.9994           0
     86274 TIP3     25453    TIP3     H1       HT       0.417000       1.00800           0
     86275 TIP3     25453    TIP3     H2       HT       0.417000       1.00800           0
     86276 TIP3     25454    TIP3     OH2      OT      -0.834000       15.9994           0
     86277 TIP3     25454    TIP3     H1       HT       0.417000       1.00800           0
     86278 TIP3     25454    TIP3     H2       HT       0.417000       1.00800           0
     86279 TIP3     25455    TIP3     OH2      OT      -0.834000       15.9994           0
     86280 TIP3     25455    TIP3     H1       HT       0.417000       1.00800           0
     86281 TIP3     25455    TIP3     H2       HT       0.417000       1.00800           0
     86282 TIP3     25456    TIP3     OH2      OT      -0.834000       15.9994           0
     86283 TIP3     25456    TIP3     H1       HT       0.417000       1.00800           0
     86284 TIP3     25456    TIP3     H2       HT       0.417000       1.00800           0
     86285 TIP3     25457    TIP3     OH2      OT      -0.834000       15.9994           0
     86286 TIP3     25457    TIP3     H1       HT       0.417000       1.00800           0
     86287 TIP3     25457    TIP3     H2       HT       0.417000       1.00800           0
     86288 TIP3     25458    TIP3     OH2      OT      -0.834000       15.9994           0
     86289 TIP3     25458    TIP3     H1       HT       0.417000       1.00800           0
     86290 TIP3     25458    TIP3     H2       HT       0.417000       1.00800           0
     86291 TIP3     25459    TIP3     OH2      OT      -0.834000       15.9994           0
     86292 TIP3     25459    TIP3     H1       HT       0.417000       1.00800           0
     86293 TIP3     25459    TIP3     H2       HT       0.417000       1.00800           0
     86294 TIP3     25460    TIP3     OH2      OT      -0.834000       15.9994           0
     86295 TIP3     25460    TIP3     H1       HT       0.417000       1.00800           0
     86296 TIP3     25460    TIP3     H2       HT       0.417000       1.00800           0
     86297 TIP3     25461    TIP3     OH2      OT      -0.834000       15.9994           0
     86298 TIP3     25461    TIP3     H1       HT       0.417000       1.00800           0
     86299 TIP3     25461    TIP3     H2       HT       0.417000       1.00800           0
     86300 TIP3     25462    TIP3     OH2      OT      -0.834000       15.9994           0
     86301 TIP3     25462    TIP3     H1       HT       0.417000       1.00800           0
     86302 TIP3     25462    TIP3     H2       HT       0.417000       1.00800           0
     86303 TIP3     25463    TIP3     OH2      OT      -0.834000       15.9994           0
     86304 TIP3     25463    TIP3     H1       HT       0.417000       1.00800           0
     86305 TIP3     25463    TIP3     H2       HT       0.417000       1.00800           0
     86306 TIP3     25464    TIP3     OH2      OT      -0.834000       15.9994           0
     86307 TIP3     25464    TIP3     H1       HT       0.417000       1.00800           0
     86308 TIP3     25464    TIP3     H2       HT       0.417000       1.00800           0
     86309 TIP3     25465    TIP3     OH2      OT      -0.834000       15.9994           0
     86310 TIP3     25465    TIP3     H1       HT       0.417000       1.00800           0
     86311 TIP3     25465    TIP3     H2       HT       0.417000       1.00800           0
     86312 TIP3     25466    TIP3     OH2      OT      -0.834000       15.9994           0
     86313 TIP3     25466    TIP3     H1       HT       0.417000       1.00800           0
     86314 TIP3     25466    TIP3     H2       HT       0.417000       1.00800           0
     86315 TIP3     25467    TIP3     OH2      OT      -0.834000       15.9994           0
     86316 TIP3     25467    TIP3     H1       HT       0.417000       1.00800           0
     86317 TIP3     25467    TIP3     H2       HT       0.417000       1.00800           0
     86318 TIP3     25468    TIP3     OH2      OT      -0.834000       15.9994           0
     86319 TIP3     25468    TIP3     H1       HT       0.417000       1.00800           0
     86320 TIP3     25468    TIP3     H2       HT       0.417000       1.00800           0
     86321 TIP3     25469    TIP3     OH2      OT      -0.834000       15.9994           0
     86322 TIP3     25469    TIP3     H1       HT       0.417000       1.00800           0
     86323 TIP3     25469    TIP3     H2       HT       0.417000       1.00800           0
     86324 TIP3     25470    TIP3     OH2      OT      -0.834000       15.9994           0
     86325 TIP3     25470    TIP3     H1       HT       0.417000       1.00800           0
     86326 TIP3     25470    TIP3     H2       HT       0.417000       1.00800           0
     86327 TIP3     25471    TIP3     OH2      OT      -0.834000       15.9994           0
     86328 TIP3     25471    TIP3     H1       HT       0.417000       1.00800           0
     86329 TIP3     25471    TIP3     H2       HT       0.417000       1.00800           0
     86330 TIP3     25472    TIP3     OH2      OT      -0.834000       15.9994           0
     86331 TIP3     25472    TIP3     H1       HT       0.417000       1.00800           0
     86332 TIP3     25472    TIP3     H2       HT       0.417000       1.00800           0
     86333 TIP3     25473    TIP3     OH2      OT      -0.834000       15.9994           0
     86334 TIP3     25473    TIP3     H1       HT       0.417000       1.00800           0
     86335 TIP3     25473    TIP3     H2       HT       0.417000       1.00800           0
     86336 TIP3     25474    TIP3     OH2      OT      -0.834000       15.9994           0
     86337 TIP3     25474    TIP3     H1       HT       0.417000       1.00800           0
     86338 TIP3     25474    TIP3     H2       HT       0.417000       1.00800           0
     86339 TIP3     25475    TIP3     OH2      OT      -0.834000       15.9994           0
     86340 TIP3     25475    TIP3     H1       HT       0.417000       1.00800           0
     86341 TIP3     25475    TIP3     H2       HT       0.417000       1.00800           0
     86342 TIP3     25476    TIP3     OH2      OT      -0.834000       15.9994           0
     86343 TIP3     25476    TIP3     H1       HT       0.417000       1.00800           0
     86344 TIP3     25476    TIP3     H2       HT       0.417000       1.00800           0
     86345 TIP3     25477    TIP3     OH2      OT      -0.834000       15.9994           0
     86346 TIP3     25477    TIP3     H1       HT       0.417000       1.00800           0
     86347 TIP3     25477    TIP3     H2       HT       0.417000       1.00800           0
     86348 TIP3     25478    TIP3     OH2      OT      -0.834000       15.9994           0
     86349 TIP3     25478    TIP3     H1       HT       0.417000       1.00800           0
     86350 TIP3     25478    TIP3     H2       HT       0.417000       1.00800           0
     86351 TIP3     25479    TIP3     OH2      OT      -0.834000       15.9994           0
     86352 TIP3     25479    TIP3     H1       HT       0.417000       1.00800           0
     86353 TIP3     25479    TIP3     H2       HT       0.417000       1.00800           0
     86354 TIP3     25480    TIP3     OH2      OT      -0.834000       15.9994           0
     86355 TIP3     25480    TIP3     H1       HT       0.417000       1.00800           0
     86356 TIP3     25480    TIP3     H2       HT       0.417000       1.00800           0
     86357 TIP3     25481    TIP3     OH2      OT      -0.834000       15.9994           0
     86358 TIP3     25481    TIP3     H1       HT       0.417000       1.00800           0
     86359 TIP3     25481    TIP3     H2       HT       0.417000       1.00800           0
     86360 TIP3     25482    TIP3     OH2      OT      -0.834000       15.9994           0
     86361 TIP3     25482    TIP3     H1       HT       0.417000       1.00800           0
     86362 TIP3     25482    TIP3     H2       HT       0.417000       1.00800           0
     86363 TIP3     25483    TIP3     OH2      OT      -0.834000       15.9994           0
     86364 TIP3     25483    TIP3     H1       HT       0.417000       1.00800           0
     86365 TIP3     25483    TIP3     H2       HT       0.417000       1.00800           0
     86366 TIP3     25484    TIP3     OH2      OT      -0.834000       15.9994           0
     86367 TIP3     25484    TIP3     H1       HT       0.417000       1.00800           0
     86368 TIP3     25484    TIP3     H2       HT       0.417000       1.00800           0
     86369 TIP3     25485    TIP3     OH2      OT      -0.834000       15.9994           0
     86370 TIP3     25485    TIP3     H1       HT       0.417000       1.00800           0
     86371 TIP3     25485    TIP3     H2       HT       0.417000       1.00800           0
     86372 TIP3     25486    TIP3     OH2      OT      -0.834000       15.9994           0
     86373 TIP3     25486    TIP3     H1       HT       0.417000       1.00800           0
     86374 TIP3     25486    TIP3     H2       HT       0.417000       1.00800           0
     86375 TIP3     25487    TIP3     OH2      OT      -0.834000       15.9994           0
     86376 TIP3     25487    TIP3     H1       HT       0.417000       1.00800           0
     86377 TIP3     25487    TIP3     H2       HT       0.417000       1.00800           0
     86378 TIP3     25488    TIP3     OH2      OT      -0.834000       15.9994           0
     86379 TIP3     25488    TIP3     H1       HT       0.417000       1.00800           0
     86380 TIP3     25488    TIP3     H2       HT       0.417000       1.00800           0
     86381 TIP3     25489    TIP3     OH2      OT      -0.834000       15.9994           0
     86382 TIP3     25489    TIP3     H1       HT       0.417000       1.00800           0
     86383 TIP3     25489    TIP3     H2       HT       0.417000       1.00800           0
     86384 TIP3     25490    TIP3     OH2      OT      -0.834000       15.9994           0
     86385 TIP3     25490    TIP3     H1       HT       0.417000       1.00800           0
     86386 TIP3     25490    TIP3     H2       HT       0.417000       1.00800           0
     86387 TIP3     25491    TIP3     OH2      OT      -0.834000       15.9994           0
     86388 TIP3     25491    TIP3     H1       HT       0.417000       1.00800           0
     86389 TIP3     25491    TIP3     H2       HT       0.417000       1.00800           0
     86390 TIP3     25492    TIP3     OH2      OT      -0.834000       15.9994           0
     86391 TIP3     25492    TIP3     H1       HT       0.417000       1.00800           0
     86392 TIP3     25492    TIP3     H2       HT       0.417000       1.00800           0
     86393 TIP3     25493    TIP3     OH2      OT      -0.834000       15.9994           0
     86394 TIP3     25493    TIP3     H1       HT       0.417000       1.00800           0
     86395 TIP3     25493    TIP3     H2       HT       0.417000       1.00800           0
     86396 TIP3     25494    TIP3     OH2      OT      -0.834000       15.9994           0
     86397 TIP3     25494    TIP3     H1       HT       0.417000       1.00800           0
     86398 TIP3     25494    TIP3     H2       HT       0.417000       1.00800           0
     86399 TIP3     25495    TIP3     OH2      OT      -0.834000       15.9994           0
     86400 TIP3     25495    TIP3     H1       HT       0.417000       1.00800           0
     86401 TIP3     25495    TIP3     H2       HT       0.417000       1.00800           0
     86402 TIP3     25496    TIP3     OH2      OT      -0.834000       15.9994           0
     86403 TIP3     25496    TIP3     H1       HT       0.417000       1.00800           0
     86404 TIP3     25496    TIP3     H2       HT       0.417000       1.00800           0
     86405 TIP3     25497    TIP3     OH2      OT      -0.834000       15.9994           0
     86406 TIP3     25497    TIP3     H1       HT       0.417000       1.00800           0
     86407 TIP3     25497    TIP3     H2       HT       0.417000       1.00800           0
     86408 TIP3     25498    TIP3     OH2      OT      -0.834000       15.9994           0
     86409 TIP3     25498    TIP3     H1       HT       0.417000       1.00800           0
     86410 TIP3     25498    TIP3     H2       HT       0.417000       1.00800           0
     86411 TIP3     25499    TIP3     OH2      OT      -0.834000       15.9994           0
     86412 TIP3     25499    TIP3     H1       HT       0.417000       1.00800           0
     86413 TIP3     25499    TIP3     H2       HT       0.417000       1.00800           0
     86414 TIP3     25500    TIP3     OH2      OT      -0.834000       15.9994           0
     86415 TIP3     25500    TIP3     H1       HT       0.417000       1.00800           0
     86416 TIP3     25500    TIP3     H2       HT       0.417000       1.00800           0
     86417 TIP3     25501    TIP3     OH2      OT      -0.834000       15.9994           0
     86418 TIP3     25501    TIP3     H1       HT       0.417000       1.00800           0
     86419 TIP3     25501    TIP3     H2       HT       0.417000       1.00800           0
     86420 TIP3     25502    TIP3     OH2      OT      -0.834000       15.9994           0
     86421 TIP3     25502    TIP3     H1       HT       0.417000       1.00800           0
     86422 TIP3     25502    TIP3     H2       HT       0.417000       1.00800           0
     86423 TIP3     25503    TIP3     OH2      OT      -0.834000       15.9994           0
     86424 TIP3     25503    TIP3     H1       HT       0.417000       1.00800           0
     86425 TIP3     25503    TIP3     H2       HT       0.417000       1.00800           0
     86426 TIP3     25504    TIP3     OH2      OT      -0.834000       15.9994           0
     86427 TIP3     25504    TIP3     H1       HT       0.417000       1.00800           0
     86428 TIP3     25504    TIP3     H2       HT       0.417000       1.00800           0
     86429 TIP3     25505    TIP3     OH2      OT      -0.834000       15.9994           0
     86430 TIP3     25505    TIP3     H1       HT       0.417000       1.00800           0
     86431 TIP3     25505    TIP3     H2       HT       0.417000       1.00800           0
     86432 TIP3     25506    TIP3     OH2      OT      -0.834000       15.9994           0
     86433 TIP3     25506    TIP3     H1       HT       0.417000       1.00800           0
     86434 TIP3     25506    TIP3     H2       HT       0.417000       1.00800           0
     86435 TIP3     25507    TIP3     OH2      OT      -0.834000       15.9994           0
     86436 TIP3     25507    TIP3     H1       HT       0.417000       1.00800           0
     86437 TIP3     25507    TIP3     H2       HT       0.417000       1.00800           0
     86438 TIP3     25508    TIP3     OH2      OT      -0.834000       15.9994           0
     86439 TIP3     25508    TIP3     H1       HT       0.417000       1.00800           0
     86440 TIP3     25508    TIP3     H2       HT       0.417000       1.00800           0
     86441 TIP3     25509    TIP3     OH2      OT      -0.834000       15.9994           0
     86442 TIP3     25509    TIP3     H1       HT       0.417000       1.00800           0
     86443 TIP3     25509    TIP3     H2       HT       0.417000       1.00800           0
     86444 TIP3     25510    TIP3     OH2      OT      -0.834000       15.9994           0
     86445 TIP3     25510    TIP3     H1       HT       0.417000       1.00800           0
     86446 TIP3     25510    TIP3     H2       HT       0.417000       1.00800           0
     86447 TIP3     25511    TIP3     OH2      OT      -0.834000       15.9994           0
     86448 TIP3     25511    TIP3     H1       HT       0.417000       1.00800           0
     86449 TIP3     25511    TIP3     H2       HT       0.417000       1.00800           0
     86450 TIP3     25512    TIP3     OH2      OT      -0.834000       15.9994           0
     86451 TIP3     25512    TIP3     H1       HT       0.417000       1.00800           0
     86452 TIP3     25512    TIP3     H2       HT       0.417000       1.00800           0
     86453 TIP3     25513    TIP3     OH2      OT      -0.834000       15.9994           0
     86454 TIP3     25513    TIP3     H1       HT       0.417000       1.00800           0
     86455 TIP3     25513    TIP3     H2       HT       0.417000       1.00800           0
     86456 TIP3     25514    TIP3     OH2      OT      -0.834000       15.9994           0
     86457 TIP3     25514    TIP3     H1       HT       0.417000       1.00800           0
     86458 TIP3     25514    TIP3     H2       HT       0.417000       1.00800           0
     86459 TIP3     25515    TIP3     OH2      OT      -0.834000       15.9994           0
     86460 TIP3     25515    TIP3     H1       HT       0.417000       1.00800           0
     86461 TIP3     25515    TIP3     H2       HT       0.417000       1.00800           0
     86462 TIP3     25516    TIP3     OH2      OT      -0.834000       15.9994           0
     86463 TIP3     25516    TIP3     H1       HT       0.417000       1.00800           0
     86464 TIP3     25516    TIP3     H2       HT       0.417000       1.00800           0
     86465 TIP3     25517    TIP3     OH2      OT      -0.834000       15.9994           0
     86466 TIP3     25517    TIP3     H1       HT       0.417000       1.00800           0
     86467 TIP3     25517    TIP3     H2       HT       0.417000       1.00800           0
     86468 TIP3     25518    TIP3     OH2      OT      -0.834000       15.9994           0
     86469 TIP3     25518    TIP3     H1       HT       0.417000       1.00800           0
     86470 TIP3     25518    TIP3     H2       HT       0.417000       1.00800           0
     86471 TIP3     25519    TIP3     OH2      OT      -0.834000       15.9994           0
     86472 TIP3     25519    TIP3     H1       HT       0.417000       1.00800           0
     86473 TIP3     25519    TIP3     H2       HT       0.417000       1.00800           0
     86474 TIP3     25520    TIP3     OH2      OT      -0.834000       15.9994           0
     86475 TIP3     25520    TIP3     H1       HT       0.417000       1.00800           0
     86476 TIP3     25520    TIP3     H2       HT       0.417000       1.00800           0
     86477 TIP3     25521    TIP3     OH2      OT      -0.834000       15.9994           0
     86478 TIP3     25521    TIP3     H1       HT       0.417000       1.00800           0
     86479 TIP3     25521    TIP3     H2       HT       0.417000       1.00800           0
     86480 TIP3     25522    TIP3     OH2      OT      -0.834000       15.9994           0
     86481 TIP3     25522    TIP3     H1       HT       0.417000       1.00800           0
     86482 TIP3     25522    TIP3     H2       HT       0.417000       1.00800           0
     86483 TIP3     25523    TIP3     OH2      OT      -0.834000       15.9994           0
     86484 TIP3     25523    TIP3     H1       HT       0.417000       1.00800           0
     86485 TIP3     25523    TIP3     H2       HT       0.417000       1.00800           0
     86486 TIP3     25524    TIP3     OH2      OT      -0.834000       15.9994           0
     86487 TIP3     25524    TIP3     H1       HT       0.417000       1.00800           0
     86488 TIP3     25524    TIP3     H2       HT       0.417000       1.00800           0
     86489 TIP3     25525    TIP3     OH2      OT      -0.834000       15.9994           0
     86490 TIP3     25525    TIP3     H1       HT       0.417000       1.00800           0
     86491 TIP3     25525    TIP3     H2       HT       0.417000       1.00800           0
     86492 TIP3     25526    TIP3     OH2      OT      -0.834000       15.9994           0
     86493 TIP3     25526    TIP3     H1       HT       0.417000       1.00800           0
     86494 TIP3     25526    TIP3     H2       HT       0.417000       1.00800           0
     86495 TIP3     25527    TIP3     OH2      OT      -0.834000       15.9994           0
     86496 TIP3     25527    TIP3     H1       HT       0.417000       1.00800           0
     86497 TIP3     25527    TIP3     H2       HT       0.417000       1.00800           0
     86498 TIP3     25528    TIP3     OH2      OT      -0.834000       15.9994           0
     86499 TIP3     25528    TIP3     H1       HT       0.417000       1.00800           0
     86500 TIP3     25528    TIP3     H2       HT       0.417000       1.00800           0
     86501 TIP3     25529    TIP3     OH2      OT      -0.834000       15.9994           0
     86502 TIP3     25529    TIP3     H1       HT       0.417000       1.00800           0
     86503 TIP3     25529    TIP3     H2       HT       0.417000       1.00800           0
     86504 TIP3     25530    TIP3     OH2      OT      -0.834000       15.9994           0
     86505 TIP3     25530    TIP3     H1       HT       0.417000       1.00800           0
     86506 TIP3     25530    TIP3     H2       HT       0.417000       1.00800           0
     86507 TIP3     25531    TIP3     OH2      OT      -0.834000       15.9994           0
     86508 TIP3     25531    TIP3     H1       HT       0.417000       1.00800           0
     86509 TIP3     25531    TIP3     H2       HT       0.417000       1.00800           0
     86510 TIP3     25532    TIP3     OH2      OT      -0.834000       15.9994           0
     86511 TIP3     25532    TIP3     H1       HT       0.417000       1.00800           0
     86512 TIP3     25532    TIP3     H2       HT       0.417000       1.00800           0
     86513 TIP3     25533    TIP3     OH2      OT      -0.834000       15.9994           0
     86514 TIP3     25533    TIP3     H1       HT       0.417000       1.00800           0
     86515 TIP3     25533    TIP3     H2       HT       0.417000       1.00800           0
     86516 TIP3     25534    TIP3     OH2      OT      -0.834000       15.9994           0
     86517 TIP3     25534    TIP3     H1       HT       0.417000       1.00800           0
     86518 TIP3     25534    TIP3     H2       HT       0.417000       1.00800           0
     86519 TIP3     25535    TIP3     OH2      OT      -0.834000       15.9994           0
     86520 TIP3     25535    TIP3     H1       HT       0.417000       1.00800           0
     86521 TIP3     25535    TIP3     H2       HT       0.417000       1.00800           0
     86522 TIP3     25536    TIP3     OH2      OT      -0.834000       15.9994           0
     86523 TIP3     25536    TIP3     H1       HT       0.417000       1.00800           0
     86524 TIP3     25536    TIP3     H2       HT       0.417000       1.00800           0
     86525 TIP3     25537    TIP3     OH2      OT      -0.834000       15.9994           0
     86526 TIP3     25537    TIP3     H1       HT       0.417000       1.00800           0
     86527 TIP3     25537    TIP3     H2       HT       0.417000       1.00800           0
     86528 TIP3     25538    TIP3     OH2      OT      -0.834000       15.9994           0
     86529 TIP3     25538    TIP3     H1       HT       0.417000       1.00800           0
     86530 TIP3     25538    TIP3     H2       HT       0.417000       1.00800           0
     86531 TIP3     25539    TIP3     OH2      OT      -0.834000       15.9994           0
     86532 TIP3     25539    TIP3     H1       HT       0.417000       1.00800           0
     86533 TIP3     25539    TIP3     H2       HT       0.417000       1.00800           0
     86534 TIP3     25540    TIP3     OH2      OT      -0.834000       15.9994           0
     86535 TIP3     25540    TIP3     H1       HT       0.417000       1.00800           0
     86536 TIP3     25540    TIP3     H2       HT       0.417000       1.00800           0
     86537 TIP3     25541    TIP3     OH2      OT      -0.834000       15.9994           0
     86538 TIP3     25541    TIP3     H1       HT       0.417000       1.00800           0
     86539 TIP3     25541    TIP3     H2       HT       0.417000       1.00800           0
     86540 TIP3     25542    TIP3     OH2      OT      -0.834000       15.9994           0
     86541 TIP3     25542    TIP3     H1       HT       0.417000       1.00800           0
     86542 TIP3     25542    TIP3     H2       HT       0.417000       1.00800           0
     86543 TIP3     25543    TIP3     OH2      OT      -0.834000       15.9994           0
     86544 TIP3     25543    TIP3     H1       HT       0.417000       1.00800           0
     86545 TIP3     25543    TIP3     H2       HT       0.417000       1.00800           0
     86546 TIP3     25544    TIP3     OH2      OT      -0.834000       15.9994           0
     86547 TIP3     25544    TIP3     H1       HT       0.417000       1.00800           0
     86548 TIP3     25544    TIP3     H2       HT       0.417000       1.00800           0
     86549 TIP3     25545    TIP3     OH2      OT      -0.834000       15.9994           0
     86550 TIP3     25545    TIP3     H1       HT       0.417000       1.00800           0
     86551 TIP3     25545    TIP3     H2       HT       0.417000       1.00800           0
     86552 TIP3     25546    TIP3     OH2      OT      -0.834000       15.9994           0
     86553 TIP3     25546    TIP3     H1       HT       0.417000       1.00800           0
     86554 TIP3     25546    TIP3     H2       HT       0.417000       1.00800           0
     86555 TIP3     25547    TIP3     OH2      OT      -0.834000       15.9994           0
     86556 TIP3     25547    TIP3     H1       HT       0.417000       1.00800           0
     86557 TIP3     25547    TIP3     H2       HT       0.417000       1.00800           0
     86558 TIP3     25548    TIP3     OH2      OT      -0.834000       15.9994           0
     86559 TIP3     25548    TIP3     H1       HT       0.417000       1.00800           0
     86560 TIP3     25548    TIP3     H2       HT       0.417000       1.00800           0
     86561 TIP3     25549    TIP3     OH2      OT      -0.834000       15.9994           0
     86562 TIP3     25549    TIP3     H1       HT       0.417000       1.00800           0
     86563 TIP3     25549    TIP3     H2       HT       0.417000       1.00800           0
     86564 TIP3     25550    TIP3     OH2      OT      -0.834000       15.9994           0
     86565 TIP3     25550    TIP3     H1       HT       0.417000       1.00800           0
     86566 TIP3     25550    TIP3     H2       HT       0.417000       1.00800           0
     86567 TIP3     25551    TIP3     OH2      OT      -0.834000       15.9994           0
     86568 TIP3     25551    TIP3     H1       HT       0.417000       1.00800           0
     86569 TIP3     25551    TIP3     H2       HT       0.417000       1.00800           0
     86570 TIP3     25552    TIP3     OH2      OT      -0.834000       15.9994           0
     86571 TIP3     25552    TIP3     H1       HT       0.417000       1.00800           0
     86572 TIP3     25552    TIP3     H2       HT       0.417000       1.00800           0
     86573 TIP3     25553    TIP3     OH2      OT      -0.834000       15.9994           0
     86574 TIP3     25553    TIP3     H1       HT       0.417000       1.00800           0
     86575 TIP3     25553    TIP3     H2       HT       0.417000       1.00800           0
     86576 TIP3     25554    TIP3     OH2      OT      -0.834000       15.9994           0
     86577 TIP3     25554    TIP3     H1       HT       0.417000       1.00800           0
     86578 TIP3     25554    TIP3     H2       HT       0.417000       1.00800           0
     86579 TIP3     25555    TIP3     OH2      OT      -0.834000       15.9994           0
     86580 TIP3     25555    TIP3     H1       HT       0.417000       1.00800           0
     86581 TIP3     25555    TIP3     H2       HT       0.417000       1.00800           0
     86582 TIP3     25556    TIP3     OH2      OT      -0.834000       15.9994           0
     86583 TIP3     25556    TIP3     H1       HT       0.417000       1.00800           0
     86584 TIP3     25556    TIP3     H2       HT       0.417000       1.00800           0
     86585 TIP3     25557    TIP3     OH2      OT      -0.834000       15.9994           0
     86586 TIP3     25557    TIP3     H1       HT       0.417000       1.00800           0
     86587 TIP3     25557    TIP3     H2       HT       0.417000       1.00800           0
     86588 TIP3     25558    TIP3     OH2      OT      -0.834000       15.9994           0
     86589 TIP3     25558    TIP3     H1       HT       0.417000       1.00800           0
     86590 TIP3     25558    TIP3     H2       HT       0.417000       1.00800           0
     86591 TIP3     25559    TIP3     OH2      OT      -0.834000       15.9994           0
     86592 TIP3     25559    TIP3     H1       HT       0.417000       1.00800           0
     86593 TIP3     25559    TIP3     H2       HT       0.417000       1.00800           0
     86594 TIP3     25560    TIP3     OH2      OT      -0.834000       15.9994           0
     86595 TIP3     25560    TIP3     H1       HT       0.417000       1.00800           0
     86596 TIP3     25560    TIP3     H2       HT       0.417000       1.00800           0
     86597 TIP3     25561    TIP3     OH2      OT      -0.834000       15.9994           0
     86598 TIP3     25561    TIP3     H1       HT       0.417000       1.00800           0
     86599 TIP3     25561    TIP3     H2       HT       0.417000       1.00800           0
     86600 TIP3     25562    TIP3     OH2      OT      -0.834000       15.9994           0
     86601 TIP3     25562    TIP3     H1       HT       0.417000       1.00800           0
     86602 TIP3     25562    TIP3     H2       HT       0.417000       1.00800           0
     86603 TIP3     25563    TIP3     OH2      OT      -0.834000       15.9994           0
     86604 TIP3     25563    TIP3     H1       HT       0.417000       1.00800           0
     86605 TIP3     25563    TIP3     H2       HT       0.417000       1.00800           0
     86606 TIP3     25564    TIP3     OH2      OT      -0.834000       15.9994           0
     86607 TIP3     25564    TIP3     H1       HT       0.417000       1.00800           0
     86608 TIP3     25564    TIP3     H2       HT       0.417000       1.00800           0
     86609 TIP3     25565    TIP3     OH2      OT      -0.834000       15.9994           0
     86610 TIP3     25565    TIP3     H1       HT       0.417000       1.00800           0
     86611 TIP3     25565    TIP3     H2       HT       0.417000       1.00800           0
     86612 TIP3     25566    TIP3     OH2      OT      -0.834000       15.9994           0
     86613 TIP3     25566    TIP3     H1       HT       0.417000       1.00800           0
     86614 TIP3     25566    TIP3     H2       HT       0.417000       1.00800           0
     86615 TIP3     25567    TIP3     OH2      OT      -0.834000       15.9994           0
     86616 TIP3     25567    TIP3     H1       HT       0.417000       1.00800           0
     86617 TIP3     25567    TIP3     H2       HT       0.417000       1.00800           0
     86618 TIP3     25568    TIP3     OH2      OT      -0.834000       15.9994           0
     86619 TIP3     25568    TIP3     H1       HT       0.417000       1.00800           0
     86620 TIP3     25568    TIP3     H2       HT       0.417000       1.00800           0
     86621 TIP3     25569    TIP3     OH2      OT      -0.834000       15.9994           0
     86622 TIP3     25569    TIP3     H1       HT       0.417000       1.00800           0
     86623 TIP3     25569    TIP3     H2       HT       0.417000       1.00800           0
     86624 TIP3     25570    TIP3     OH2      OT      -0.834000       15.9994           0
     86625 TIP3     25570    TIP3     H1       HT       0.417000       1.00800           0
     86626 TIP3     25570    TIP3     H2       HT       0.417000       1.00800           0
     86627 TIP3     25571    TIP3     OH2      OT      -0.834000       15.9994           0
     86628 TIP3     25571    TIP3     H1       HT       0.417000       1.00800           0
     86629 TIP3     25571    TIP3     H2       HT       0.417000       1.00800           0
     86630 TIP3     25572    TIP3     OH2      OT      -0.834000       15.9994           0
     86631 TIP3     25572    TIP3     H1       HT       0.417000       1.00800           0
     86632 TIP3     25572    TIP3     H2       HT       0.417000       1.00800           0
     86633 TIP3     25573    TIP3     OH2      OT      -0.834000       15.9994           0
     86634 TIP3     25573    TIP3     H1       HT       0.417000       1.00800           0
     86635 TIP3     25573    TIP3     H2       HT       0.417000       1.00800           0
     86636 TIP3     25574    TIP3     OH2      OT      -0.834000       15.9994           0
     86637 TIP3     25574    TIP3     H1       HT       0.417000       1.00800           0
     86638 TIP3     25574    TIP3     H2       HT       0.417000       1.00800           0
     86639 TIP3     25575    TIP3     OH2      OT      -0.834000       15.9994           0
     86640 TIP3     25575    TIP3     H1       HT       0.417000       1.00800           0
     86641 TIP3     25575    TIP3     H2       HT       0.417000       1.00800           0
     86642 TIP3     25576    TIP3     OH2      OT      -0.834000       15.9994           0
     86643 TIP3     25576    TIP3     H1       HT       0.417000       1.00800           0
     86644 TIP3     25576    TIP3     H2       HT       0.417000       1.00800           0
     86645 TIP3     25577    TIP3     OH2      OT      -0.834000       15.9994           0
     86646 TIP3     25577    TIP3     H1       HT       0.417000       1.00800           0
     86647 TIP3     25577    TIP3     H2       HT       0.417000       1.00800           0
     86648 TIP3     25578    TIP3     OH2      OT      -0.834000       15.9994           0
     86649 TIP3     25578    TIP3     H1       HT       0.417000       1.00800           0
     86650 TIP3     25578    TIP3     H2       HT       0.417000       1.00800           0
     86651 TIP3     25579    TIP3     OH2      OT      -0.834000       15.9994           0
     86652 TIP3     25579    TIP3     H1       HT       0.417000       1.00800           0
     86653 TIP3     25579    TIP3     H2       HT       0.417000       1.00800           0
     86654 TIP3     25580    TIP3     OH2      OT      -0.834000       15.9994           0
     86655 TIP3     25580    TIP3     H1       HT       0.417000       1.00800           0
     86656 TIP3     25580    TIP3     H2       HT       0.417000       1.00800           0
     86657 TIP3     25581    TIP3     OH2      OT      -0.834000       15.9994           0
     86658 TIP3     25581    TIP3     H1       HT       0.417000       1.00800           0
     86659 TIP3     25581    TIP3     H2       HT       0.417000       1.00800           0
     86660 TIP3     25582    TIP3     OH2      OT      -0.834000       15.9994           0
     86661 TIP3     25582    TIP3     H1       HT       0.417000       1.00800           0
     86662 TIP3     25582    TIP3     H2       HT       0.417000       1.00800           0
     86663 TIP3     25583    TIP3     OH2      OT      -0.834000       15.9994           0
     86664 TIP3     25583    TIP3     H1       HT       0.417000       1.00800           0
     86665 TIP3     25583    TIP3     H2       HT       0.417000       1.00800           0
     86666 TIP3     25584    TIP3     OH2      OT      -0.834000       15.9994           0
     86667 TIP3     25584    TIP3     H1       HT       0.417000       1.00800           0
     86668 TIP3     25584    TIP3     H2       HT       0.417000       1.00800           0
     86669 TIP3     25585    TIP3     OH2      OT      -0.834000       15.9994           0
     86670 TIP3     25585    TIP3     H1       HT       0.417000       1.00800           0
     86671 TIP3     25585    TIP3     H2       HT       0.417000       1.00800           0
     86672 TIP3     25586    TIP3     OH2      OT      -0.834000       15.9994           0
     86673 TIP3     25586    TIP3     H1       HT       0.417000       1.00800           0
     86674 TIP3     25586    TIP3     H2       HT       0.417000       1.00800           0
     86675 TIP3     25587    TIP3     OH2      OT      -0.834000       15.9994           0
     86676 TIP3     25587    TIP3     H1       HT       0.417000       1.00800           0
     86677 TIP3     25587    TIP3     H2       HT       0.417000       1.00800           0
     86678 TIP3     25588    TIP3     OH2      OT      -0.834000       15.9994           0
     86679 TIP3     25588    TIP3     H1       HT       0.417000       1.00800           0
     86680 TIP3     25588    TIP3     H2       HT       0.417000       1.00800           0
     86681 TIP3     25589    TIP3     OH2      OT      -0.834000       15.9994           0
     86682 TIP3     25589    TIP3     H1       HT       0.417000       1.00800           0
     86683 TIP3     25589    TIP3     H2       HT       0.417000       1.00800           0
     86684 TIP3     25590    TIP3     OH2      OT      -0.834000       15.9994           0
     86685 TIP3     25590    TIP3     H1       HT       0.417000       1.00800           0
     86686 TIP3     25590    TIP3     H2       HT       0.417000       1.00800           0
     86687 TIP3     25591    TIP3     OH2      OT      -0.834000       15.9994           0
     86688 TIP3     25591    TIP3     H1       HT       0.417000       1.00800           0
     86689 TIP3     25591    TIP3     H2       HT       0.417000       1.00800           0
     86690 TIP3     25592    TIP3     OH2      OT      -0.834000       15.9994           0
     86691 TIP3     25592    TIP3     H1       HT       0.417000       1.00800           0
     86692 TIP3     25592    TIP3     H2       HT       0.417000       1.00800           0
     86693 TIP3     25593    TIP3     OH2      OT      -0.834000       15.9994           0
     86694 TIP3     25593    TIP3     H1       HT       0.417000       1.00800           0
     86695 TIP3     25593    TIP3     H2       HT       0.417000       1.00800           0
     86696 TIP3     25594    TIP3     OH2      OT      -0.834000       15.9994           0
     86697 TIP3     25594    TIP3     H1       HT       0.417000       1.00800           0
     86698 TIP3     25594    TIP3     H2       HT       0.417000       1.00800           0
     86699 TIP3     25595    TIP3     OH2      OT      -0.834000       15.9994           0
     86700 TIP3     25595    TIP3     H1       HT       0.417000       1.00800           0
     86701 TIP3     25595    TIP3     H2       HT       0.417000       1.00800           0
     86702 TIP3     25596    TIP3     OH2      OT      -0.834000       15.9994           0
     86703 TIP3     25596    TIP3     H1       HT       0.417000       1.00800           0
     86704 TIP3     25596    TIP3     H2       HT       0.417000       1.00800           0
     86705 TIP3     25597    TIP3     OH2      OT      -0.834000       15.9994           0
     86706 TIP3     25597    TIP3     H1       HT       0.417000       1.00800           0
     86707 TIP3     25597    TIP3     H2       HT       0.417000       1.00800           0
     86708 TIP3     25598    TIP3     OH2      OT      -0.834000       15.9994           0
     86709 TIP3     25598    TIP3     H1       HT       0.417000       1.00800           0
     86710 TIP3     25598    TIP3     H2       HT       0.417000       1.00800           0
     86711 TIP3     25599    TIP3     OH2      OT      -0.834000       15.9994           0
     86712 TIP3     25599    TIP3     H1       HT       0.417000       1.00800           0
     86713 TIP3     25599    TIP3     H2       HT       0.417000       1.00800           0
     86714 TIP3     25600    TIP3     OH2      OT      -0.834000       15.9994           0
     86715 TIP3     25600    TIP3     H1       HT       0.417000       1.00800           0
     86716 TIP3     25600    TIP3     H2       HT       0.417000       1.00800           0
     86717 TIP3     25601    TIP3     OH2      OT      -0.834000       15.9994           0
     86718 TIP3     25601    TIP3     H1       HT       0.417000       1.00800           0
     86719 TIP3     25601    TIP3     H2       HT       0.417000       1.00800           0
     86720 TIP3     25602    TIP3     OH2      OT      -0.834000       15.9994           0
     86721 TIP3     25602    TIP3     H1       HT       0.417000       1.00800           0
     86722 TIP3     25602    TIP3     H2       HT       0.417000       1.00800           0
     86723 TIP3     25603    TIP3     OH2      OT      -0.834000       15.9994           0
     86724 TIP3     25603    TIP3     H1       HT       0.417000       1.00800           0
     86725 TIP3     25603    TIP3     H2       HT       0.417000       1.00800           0
     86726 TIP3     25604    TIP3     OH2      OT      -0.834000       15.9994           0
     86727 TIP3     25604    TIP3     H1       HT       0.417000       1.00800           0
     86728 TIP3     25604    TIP3     H2       HT       0.417000       1.00800           0
     86729 TIP3     25605    TIP3     OH2      OT      -0.834000       15.9994           0
     86730 TIP3     25605    TIP3     H1       HT       0.417000       1.00800           0
     86731 TIP3     25605    TIP3     H2       HT       0.417000       1.00800           0
     86732 TIP3     25606    TIP3     OH2      OT      -0.834000       15.9994           0
     86733 TIP3     25606    TIP3     H1       HT       0.417000       1.00800           0
     86734 TIP3     25606    TIP3     H2       HT       0.417000       1.00800           0
     86735 TIP3     25607    TIP3     OH2      OT      -0.834000       15.9994           0
     86736 TIP3     25607    TIP3     H1       HT       0.417000       1.00800           0
     86737 TIP3     25607    TIP3     H2       HT       0.417000       1.00800           0
     86738 TIP3     25608    TIP3     OH2      OT      -0.834000       15.9994           0
     86739 TIP3     25608    TIP3     H1       HT       0.417000       1.00800           0
     86740 TIP3     25608    TIP3     H2       HT       0.417000       1.00800           0
     86741 TIP3     25609    TIP3     OH2      OT      -0.834000       15.9994           0
     86742 TIP3     25609    TIP3     H1       HT       0.417000       1.00800           0
     86743 TIP3     25609    TIP3     H2       HT       0.417000       1.00800           0
     86744 TIP3     25610    TIP3     OH2      OT      -0.834000       15.9994           0
     86745 TIP3     25610    TIP3     H1       HT       0.417000       1.00800           0
     86746 TIP3     25610    TIP3     H2       HT       0.417000       1.00800           0
     86747 TIP3     25611    TIP3     OH2      OT      -0.834000       15.9994           0
     86748 TIP3     25611    TIP3     H1       HT       0.417000       1.00800           0
     86749 TIP3     25611    TIP3     H2       HT       0.417000       1.00800           0
     86750 TIP3     25612    TIP3     OH2      OT      -0.834000       15.9994           0
     86751 TIP3     25612    TIP3     H1       HT       0.417000       1.00800           0
     86752 TIP3     25612    TIP3     H2       HT       0.417000       1.00800           0
     86753 TIP3     25613    TIP3     OH2      OT      -0.834000       15.9994           0
     86754 TIP3     25613    TIP3     H1       HT       0.417000       1.00800           0
     86755 TIP3     25613    TIP3     H2       HT       0.417000       1.00800           0
     86756 TIP3     25614    TIP3     OH2      OT      -0.834000       15.9994           0
     86757 TIP3     25614    TIP3     H1       HT       0.417000       1.00800           0
     86758 TIP3     25614    TIP3     H2       HT       0.417000       1.00800           0
     86759 TIP3     25615    TIP3     OH2      OT      -0.834000       15.9994           0
     86760 TIP3     25615    TIP3     H1       HT       0.417000       1.00800           0
     86761 TIP3     25615    TIP3     H2       HT       0.417000       1.00800           0
     86762 TIP3     25616    TIP3     OH2      OT      -0.834000       15.9994           0
     86763 TIP3     25616    TIP3     H1       HT       0.417000       1.00800           0
     86764 TIP3     25616    TIP3     H2       HT       0.417000       1.00800           0
     86765 TIP3     25617    TIP3     OH2      OT      -0.834000       15.9994           0
     86766 TIP3     25617    TIP3     H1       HT       0.417000       1.00800           0
     86767 TIP3     25617    TIP3     H2       HT       0.417000       1.00800           0
     86768 TIP3     25618    TIP3     OH2      OT      -0.834000       15.9994           0
     86769 TIP3     25618    TIP3     H1       HT       0.417000       1.00800           0
     86770 TIP3     25618    TIP3     H2       HT       0.417000       1.00800           0
     86771 TIP3     25619    TIP3     OH2      OT      -0.834000       15.9994           0
     86772 TIP3     25619    TIP3     H1       HT       0.417000       1.00800           0
     86773 TIP3     25619    TIP3     H2       HT       0.417000       1.00800           0
     86774 TIP3     25620    TIP3     OH2      OT      -0.834000       15.9994           0
     86775 TIP3     25620    TIP3     H1       HT       0.417000       1.00800           0
     86776 TIP3     25620    TIP3     H2       HT       0.417000       1.00800           0
     86777 TIP3     25621    TIP3     OH2      OT      -0.834000       15.9994           0
     86778 TIP3     25621    TIP3     H1       HT       0.417000       1.00800           0
     86779 TIP3     25621    TIP3     H2       HT       0.417000       1.00800           0
     86780 TIP3     25622    TIP3     OH2      OT      -0.834000       15.9994           0
     86781 TIP3     25622    TIP3     H1       HT       0.417000       1.00800           0
     86782 TIP3     25622    TIP3     H2       HT       0.417000       1.00800           0
     86783 TIP3     25623    TIP3     OH2      OT      -0.834000       15.9994           0
     86784 TIP3     25623    TIP3     H1       HT       0.417000       1.00800           0
     86785 TIP3     25623    TIP3     H2       HT       0.417000       1.00800           0
     86786 TIP3     25624    TIP3     OH2      OT      -0.834000       15.9994           0
     86787 TIP3     25624    TIP3     H1       HT       0.417000       1.00800           0
     86788 TIP3     25624    TIP3     H2       HT       0.417000       1.00800           0
     86789 TIP3     25625    TIP3     OH2      OT      -0.834000       15.9994           0
     86790 TIP3     25625    TIP3     H1       HT       0.417000       1.00800           0
     86791 TIP3     25625    TIP3     H2       HT       0.417000       1.00800           0
     86792 TIP3     25626    TIP3     OH2      OT      -0.834000       15.9994           0
     86793 TIP3     25626    TIP3     H1       HT       0.417000       1.00800           0
     86794 TIP3     25626    TIP3     H2       HT       0.417000       1.00800           0
     86795 TIP3     25627    TIP3     OH2      OT      -0.834000       15.9994           0
     86796 TIP3     25627    TIP3     H1       HT       0.417000       1.00800           0
     86797 TIP3     25627    TIP3     H2       HT       0.417000       1.00800           0
     86798 TIP3     25628    TIP3     OH2      OT      -0.834000       15.9994           0
     86799 TIP3     25628    TIP3     H1       HT       0.417000       1.00800           0
     86800 TIP3     25628    TIP3     H2       HT       0.417000       1.00800           0
     86801 TIP3     25629    TIP3     OH2      OT      -0.834000       15.9994           0
     86802 TIP3     25629    TIP3     H1       HT       0.417000       1.00800           0
     86803 TIP3     25629    TIP3     H2       HT       0.417000       1.00800           0
     86804 TIP3     25630    TIP3     OH2      OT      -0.834000       15.9994           0
     86805 TIP3     25630    TIP3     H1       HT       0.417000       1.00800           0
     86806 TIP3     25630    TIP3     H2       HT       0.417000       1.00800           0
     86807 TIP3     25631    TIP3     OH2      OT      -0.834000       15.9994           0
     86808 TIP3     25631    TIP3     H1       HT       0.417000       1.00800           0
     86809 TIP3     25631    TIP3     H2       HT       0.417000       1.00800           0
     86810 TIP3     25632    TIP3     OH2      OT      -0.834000       15.9994           0
     86811 TIP3     25632    TIP3     H1       HT       0.417000       1.00800           0
     86812 TIP3     25632    TIP3     H2       HT       0.417000       1.00800           0
     86813 TIP3     25633    TIP3     OH2      OT      -0.834000       15.9994           0
     86814 TIP3     25633    TIP3     H1       HT       0.417000       1.00800           0
     86815 TIP3     25633    TIP3     H2       HT       0.417000       1.00800           0
     86816 TIP3     25634    TIP3     OH2      OT      -0.834000       15.9994           0
     86817 TIP3     25634    TIP3     H1       HT       0.417000       1.00800           0
     86818 TIP3     25634    TIP3     H2       HT       0.417000       1.00800           0
     86819 TIP3     25635    TIP3     OH2      OT      -0.834000       15.9994           0
     86820 TIP3     25635    TIP3     H1       HT       0.417000       1.00800           0
     86821 TIP3     25635    TIP3     H2       HT       0.417000       1.00800           0
     86822 TIP3     25636    TIP3     OH2      OT      -0.834000       15.9994           0
     86823 TIP3     25636    TIP3     H1       HT       0.417000       1.00800           0
     86824 TIP3     25636    TIP3     H2       HT       0.417000       1.00800           0
     86825 TIP3     25637    TIP3     OH2      OT      -0.834000       15.9994           0
     86826 TIP3     25637    TIP3     H1       HT       0.417000       1.00800           0
     86827 TIP3     25637    TIP3     H2       HT       0.417000       1.00800           0
     86828 TIP3     25638    TIP3     OH2      OT      -0.834000       15.9994           0
     86829 TIP3     25638    TIP3     H1       HT       0.417000       1.00800           0
     86830 TIP3     25638    TIP3     H2       HT       0.417000       1.00800           0
     86831 TIP3     25639    TIP3     OH2      OT      -0.834000       15.9994           0
     86832 TIP3     25639    TIP3     H1       HT       0.417000       1.00800           0
     86833 TIP3     25639    TIP3     H2       HT       0.417000       1.00800           0
     86834 TIP3     25640    TIP3     OH2      OT      -0.834000       15.9994           0
     86835 TIP3     25640    TIP3     H1       HT       0.417000       1.00800           0
     86836 TIP3     25640    TIP3     H2       HT       0.417000       1.00800           0
     86837 TIP3     25641    TIP3     OH2      OT      -0.834000       15.9994           0
     86838 TIP3     25641    TIP3     H1       HT       0.417000       1.00800           0
     86839 TIP3     25641    TIP3     H2       HT       0.417000       1.00800           0
     86840 TIP3     25642    TIP3     OH2      OT      -0.834000       15.9994           0
     86841 TIP3     25642    TIP3     H1       HT       0.417000       1.00800           0
     86842 TIP3     25642    TIP3     H2       HT       0.417000       1.00800           0
     86843 TIP3     25643    TIP3     OH2      OT      -0.834000       15.9994           0
     86844 TIP3     25643    TIP3     H1       HT       0.417000       1.00800           0
     86845 TIP3     25643    TIP3     H2       HT       0.417000       1.00800           0
     86846 TIP3     25644    TIP3     OH2      OT      -0.834000       15.9994           0
     86847 TIP3     25644    TIP3     H1       HT       0.417000       1.00800           0
     86848 TIP3     25644    TIP3     H2       HT       0.417000       1.00800           0
     86849 TIP3     25645    TIP3     OH2      OT      -0.834000       15.9994           0
     86850 TIP3     25645    TIP3     H1       HT       0.417000       1.00800           0
     86851 TIP3     25645    TIP3     H2       HT       0.417000       1.00800           0
     86852 TIP3     25646    TIP3     OH2      OT      -0.834000       15.9994           0
     86853 TIP3     25646    TIP3     H1       HT       0.417000       1.00800           0
     86854 TIP3     25646    TIP3     H2       HT       0.417000       1.00800           0
     86855 TIP3     25647    TIP3     OH2      OT      -0.834000       15.9994           0
     86856 TIP3     25647    TIP3     H1       HT       0.417000       1.00800           0
     86857 TIP3     25647    TIP3     H2       HT       0.417000       1.00800           0
     86858 TIP3     25648    TIP3     OH2      OT      -0.834000       15.9994           0
     86859 TIP3     25648    TIP3     H1       HT       0.417000       1.00800           0
     86860 TIP3     25648    TIP3     H2       HT       0.417000       1.00800           0
     86861 TIP3     25649    TIP3     OH2      OT      -0.834000       15.9994           0
     86862 TIP3     25649    TIP3     H1       HT       0.417000       1.00800           0
     86863 TIP3     25649    TIP3     H2       HT       0.417000       1.00800           0
     86864 TIP3     25650    TIP3     OH2      OT      -0.834000       15.9994           0
     86865 TIP3     25650    TIP3     H1       HT       0.417000       1.00800           0
     86866 TIP3     25650    TIP3     H2       HT       0.417000       1.00800           0
     86867 TIP3     25651    TIP3     OH2      OT      -0.834000       15.9994           0
     86868 TIP3     25651    TIP3     H1       HT       0.417000       1.00800           0
     86869 TIP3     25651    TIP3     H2       HT       0.417000       1.00800           0
     86870 TIP3     25652    TIP3     OH2      OT      -0.834000       15.9994           0
     86871 TIP3     25652    TIP3     H1       HT       0.417000       1.00800           0
     86872 TIP3     25652    TIP3     H2       HT       0.417000       1.00800           0
     86873 TIP3     25653    TIP3     OH2      OT      -0.834000       15.9994           0
     86874 TIP3     25653    TIP3     H1       HT       0.417000       1.00800           0
     86875 TIP3     25653    TIP3     H2       HT       0.417000       1.00800           0
     86876 TIP3     25654    TIP3     OH2      OT      -0.834000       15.9994           0
     86877 TIP3     25654    TIP3     H1       HT       0.417000       1.00800           0
     86878 TIP3     25654    TIP3     H2       HT       0.417000       1.00800           0
     86879 TIP3     25655    TIP3     OH2      OT      -0.834000       15.9994           0
     86880 TIP3     25655    TIP3     H1       HT       0.417000       1.00800           0
     86881 TIP3     25655    TIP3     H2       HT       0.417000       1.00800           0
     86882 TIP3     25656    TIP3     OH2      OT      -0.834000       15.9994           0
     86883 TIP3     25656    TIP3     H1       HT       0.417000       1.00800           0
     86884 TIP3     25656    TIP3     H2       HT       0.417000       1.00800           0
     86885 TIP3     25657    TIP3     OH2      OT      -0.834000       15.9994           0
     86886 TIP3     25657    TIP3     H1       HT       0.417000       1.00800           0
     86887 TIP3     25657    TIP3     H2       HT       0.417000       1.00800           0
     86888 TIP3     25658    TIP3     OH2      OT      -0.834000       15.9994           0
     86889 TIP3     25658    TIP3     H1       HT       0.417000       1.00800           0
     86890 TIP3     25658    TIP3     H2       HT       0.417000       1.00800           0
     86891 TIP3     25659    TIP3     OH2      OT      -0.834000       15.9994           0
     86892 TIP3     25659    TIP3     H1       HT       0.417000       1.00800           0
     86893 TIP3     25659    TIP3     H2       HT       0.417000       1.00800           0
     86894 TIP3     25660    TIP3     OH2      OT      -0.834000       15.9994           0
     86895 TIP3     25660    TIP3     H1       HT       0.417000       1.00800           0
     86896 TIP3     25660    TIP3     H2       HT       0.417000       1.00800           0
     86897 TIP3     25661    TIP3     OH2      OT      -0.834000       15.9994           0
     86898 TIP3     25661    TIP3     H1       HT       0.417000       1.00800           0
     86899 TIP3     25661    TIP3     H2       HT       0.417000       1.00800           0
     86900 TIP3     25662    TIP3     OH2      OT      -0.834000       15.9994           0
     86901 TIP3     25662    TIP3     H1       HT       0.417000       1.00800           0
     86902 TIP3     25662    TIP3     H2       HT       0.417000       1.00800           0
     86903 TIP3     25663    TIP3     OH2      OT      -0.834000       15.9994           0
     86904 TIP3     25663    TIP3     H1       HT       0.417000       1.00800           0
     86905 TIP3     25663    TIP3     H2       HT       0.417000       1.00800           0
     86906 TIP3     25664    TIP3     OH2      OT      -0.834000       15.9994           0
     86907 TIP3     25664    TIP3     H1       HT       0.417000       1.00800           0
     86908 TIP3     25664    TIP3     H2       HT       0.417000       1.00800           0
     86909 TIP3     25665    TIP3     OH2      OT      -0.834000       15.9994           0
     86910 TIP3     25665    TIP3     H1       HT       0.417000       1.00800           0
     86911 TIP3     25665    TIP3     H2       HT       0.417000       1.00800           0
     86912 TIP3     25666    TIP3     OH2      OT      -0.834000       15.9994           0
     86913 TIP3     25666    TIP3     H1       HT       0.417000       1.00800           0
     86914 TIP3     25666    TIP3     H2       HT       0.417000       1.00800           0
     86915 TIP3     25667    TIP3     OH2      OT      -0.834000       15.9994           0
     86916 TIP3     25667    TIP3     H1       HT       0.417000       1.00800           0
     86917 TIP3     25667    TIP3     H2       HT       0.417000       1.00800           0
     86918 TIP3     25668    TIP3     OH2      OT      -0.834000       15.9994           0
     86919 TIP3     25668    TIP3     H1       HT       0.417000       1.00800           0
     86920 TIP3     25668    TIP3     H2       HT       0.417000       1.00800           0
     86921 TIP3     25669    TIP3     OH2      OT      -0.834000       15.9994           0
     86922 TIP3     25669    TIP3     H1       HT       0.417000       1.00800           0
     86923 TIP3     25669    TIP3     H2       HT       0.417000       1.00800           0
     86924 TIP3     25670    TIP3     OH2      OT      -0.834000       15.9994           0
     86925 TIP3     25670    TIP3     H1       HT       0.417000       1.00800           0
     86926 TIP3     25670    TIP3     H2       HT       0.417000       1.00800           0
     86927 TIP3     25671    TIP3     OH2      OT      -0.834000       15.9994           0
     86928 TIP3     25671    TIP3     H1       HT       0.417000       1.00800           0
     86929 TIP3     25671    TIP3     H2       HT       0.417000       1.00800           0
     86930 TIP3     25672    TIP3     OH2      OT      -0.834000       15.9994           0
     86931 TIP3     25672    TIP3     H1       HT       0.417000       1.00800           0
     86932 TIP3     25672    TIP3     H2       HT       0.417000       1.00800           0
     86933 TIP3     25673    TIP3     OH2      OT      -0.834000       15.9994           0
     86934 TIP3     25673    TIP3     H1       HT       0.417000       1.00800           0
     86935 TIP3     25673    TIP3     H2       HT       0.417000       1.00800           0
     86936 TIP3     25674    TIP3     OH2      OT      -0.834000       15.9994           0
     86937 TIP3     25674    TIP3     H1       HT       0.417000       1.00800           0
     86938 TIP3     25674    TIP3     H2       HT       0.417000       1.00800           0
     86939 TIP3     25675    TIP3     OH2      OT      -0.834000       15.9994           0
     86940 TIP3     25675    TIP3     H1       HT       0.417000       1.00800           0
     86941 TIP3     25675    TIP3     H2       HT       0.417000       1.00800           0
     86942 TIP3     25676    TIP3     OH2      OT      -0.834000       15.9994           0
     86943 TIP3     25676    TIP3     H1       HT       0.417000       1.00800           0
     86944 TIP3     25676    TIP3     H2       HT       0.417000       1.00800           0
     86945 TIP3     25677    TIP3     OH2      OT      -0.834000       15.9994           0
     86946 TIP3     25677    TIP3     H1       HT       0.417000       1.00800           0
     86947 TIP3     25677    TIP3     H2       HT       0.417000       1.00800           0
     86948 TIP3     25678    TIP3     OH2      OT      -0.834000       15.9994           0
     86949 TIP3     25678    TIP3     H1       HT       0.417000       1.00800           0
     86950 TIP3     25678    TIP3     H2       HT       0.417000       1.00800           0
     86951 TIP3     25679    TIP3     OH2      OT      -0.834000       15.9994           0
     86952 TIP3     25679    TIP3     H1       HT       0.417000       1.00800           0
     86953 TIP3     25679    TIP3     H2       HT       0.417000       1.00800           0
     86954 TIP3     25680    TIP3     OH2      OT      -0.834000       15.9994           0
     86955 TIP3     25680    TIP3     H1       HT       0.417000       1.00800           0
     86956 TIP3     25680    TIP3     H2       HT       0.417000       1.00800           0
     86957 TIP3     25681    TIP3     OH2      OT      -0.834000       15.9994           0
     86958 TIP3     25681    TIP3     H1       HT       0.417000       1.00800           0
     86959 TIP3     25681    TIP3     H2       HT       0.417000       1.00800           0
     86960 TIP3     25682    TIP3     OH2      OT      -0.834000       15.9994           0
     86961 TIP3     25682    TIP3     H1       HT       0.417000       1.00800           0
     86962 TIP3     25682    TIP3     H2       HT       0.417000       1.00800           0
     86963 TIP3     25683    TIP3     OH2      OT      -0.834000       15.9994           0
     86964 TIP3     25683    TIP3     H1       HT       0.417000       1.00800           0
     86965 TIP3     25683    TIP3     H2       HT       0.417000       1.00800           0
     86966 TIP3     25684    TIP3     OH2      OT      -0.834000       15.9994           0
     86967 TIP3     25684    TIP3     H1       HT       0.417000       1.00800           0
     86968 TIP3     25684    TIP3     H2       HT       0.417000       1.00800           0
     86969 TIP3     25685    TIP3     OH2      OT      -0.834000       15.9994           0
     86970 TIP3     25685    TIP3     H1       HT       0.417000       1.00800           0
     86971 TIP3     25685    TIP3     H2       HT       0.417000       1.00800           0
     86972 TIP3     25686    TIP3     OH2      OT      -0.834000       15.9994           0
     86973 TIP3     25686    TIP3     H1       HT       0.417000       1.00800           0
     86974 TIP3     25686    TIP3     H2       HT       0.417000       1.00800           0
     86975 TIP3     25687    TIP3     OH2      OT      -0.834000       15.9994           0
     86976 TIP3     25687    TIP3     H1       HT       0.417000       1.00800           0
     86977 TIP3     25687    TIP3     H2       HT       0.417000       1.00800           0
     86978 TIP3     25688    TIP3     OH2      OT      -0.834000       15.9994           0
     86979 TIP3     25688    TIP3     H1       HT       0.417000       1.00800           0
     86980 TIP3     25688    TIP3     H2       HT       0.417000       1.00800           0
     86981 TIP3     25689    TIP3     OH2      OT      -0.834000       15.9994           0
     86982 TIP3     25689    TIP3     H1       HT       0.417000       1.00800           0
     86983 TIP3     25689    TIP3     H2       HT       0.417000       1.00800           0
     86984 TIP3     25690    TIP3     OH2      OT      -0.834000       15.9994           0
     86985 TIP3     25690    TIP3     H1       HT       0.417000       1.00800           0
     86986 TIP3     25690    TIP3     H2       HT       0.417000       1.00800           0
     86987 TIP3     25691    TIP3     OH2      OT      -0.834000       15.9994           0
     86988 TIP3     25691    TIP3     H1       HT       0.417000       1.00800           0
     86989 TIP3     25691    TIP3     H2       HT       0.417000       1.00800           0
     86990 TIP3     25692    TIP3     OH2      OT      -0.834000       15.9994           0
     86991 TIP3     25692    TIP3     H1       HT       0.417000       1.00800           0
     86992 TIP3     25692    TIP3     H2       HT       0.417000       1.00800           0
     86993 TIP3     25693    TIP3     OH2      OT      -0.834000       15.9994           0
     86994 TIP3     25693    TIP3     H1       HT       0.417000       1.00800           0
     86995 TIP3     25693    TIP3     H2       HT       0.417000       1.00800           0
     86996 TIP3     25694    TIP3     OH2      OT      -0.834000       15.9994           0
     86997 TIP3     25694    TIP3     H1       HT       0.417000       1.00800           0
     86998 TIP3     25694    TIP3     H2       HT       0.417000       1.00800           0
     86999 TIP3     25695    TIP3     OH2      OT      -0.834000       15.9994           0
     87000 TIP3     25695    TIP3     H1       HT       0.417000       1.00800           0
     87001 TIP3     25695    TIP3     H2       HT       0.417000       1.00800           0
     87002 TIP3     25696    TIP3     OH2      OT      -0.834000       15.9994           0
     87003 TIP3     25696    TIP3     H1       HT       0.417000       1.00800           0
     87004 TIP3     25696    TIP3     H2       HT       0.417000       1.00800           0
     87005 TIP3     25697    TIP3     OH2      OT      -0.834000       15.9994           0
     87006 TIP3     25697    TIP3     H1       HT       0.417000       1.00800           0
     87007 TIP3     25697    TIP3     H2       HT       0.417000       1.00800           0
     87008 TIP3     25698    TIP3     OH2      OT      -0.834000       15.9994           0
     87009 TIP3     25698    TIP3     H1       HT       0.417000       1.00800           0
     87010 TIP3     25698    TIP3     H2       HT       0.417000       1.00800           0
     87011 TIP3     25699    TIP3     OH2      OT      -0.834000       15.9994           0
     87012 TIP3     25699    TIP3     H1       HT       0.417000       1.00800           0
     87013 TIP3     25699    TIP3     H2       HT       0.417000       1.00800           0
     87014 TIP3     25700    TIP3     OH2      OT      -0.834000       15.9994           0
     87015 TIP3     25700    TIP3     H1       HT       0.417000       1.00800           0
     87016 TIP3     25700    TIP3     H2       HT       0.417000       1.00800           0
     87017 TIP3     25701    TIP3     OH2      OT      -0.834000       15.9994           0
     87018 TIP3     25701    TIP3     H1       HT       0.417000       1.00800           0
     87019 TIP3     25701    TIP3     H2       HT       0.417000       1.00800           0
     87020 TIP3     25702    TIP3     OH2      OT      -0.834000       15.9994           0
     87021 TIP3     25702    TIP3     H1       HT       0.417000       1.00800           0
     87022 TIP3     25702    TIP3     H2       HT       0.417000       1.00800           0
     87023 TIP3     25703    TIP3     OH2      OT      -0.834000       15.9994           0
     87024 TIP3     25703    TIP3     H1       HT       0.417000       1.00800           0
     87025 TIP3     25703    TIP3     H2       HT       0.417000       1.00800           0
     87026 TIP3     25704    TIP3     OH2      OT      -0.834000       15.9994           0
     87027 TIP3     25704    TIP3     H1       HT       0.417000       1.00800           0
     87028 TIP3     25704    TIP3     H2       HT       0.417000       1.00800           0
     87029 TIP3     25705    TIP3     OH2      OT      -0.834000       15.9994           0
     87030 TIP3     25705    TIP3     H1       HT       0.417000       1.00800           0
     87031 TIP3     25705    TIP3     H2       HT       0.417000       1.00800           0
     87032 TIP3     25706    TIP3     OH2      OT      -0.834000       15.9994           0
     87033 TIP3     25706    TIP3     H1       HT       0.417000       1.00800           0
     87034 TIP3     25706    TIP3     H2       HT       0.417000       1.00800           0
     87035 TIP3     25707    TIP3     OH2      OT      -0.834000       15.9994           0
     87036 TIP3     25707    TIP3     H1       HT       0.417000       1.00800           0
     87037 TIP3     25707    TIP3     H2       HT       0.417000       1.00800           0
     87038 TIP3     25708    TIP3     OH2      OT      -0.834000       15.9994           0
     87039 TIP3     25708    TIP3     H1       HT       0.417000       1.00800           0
     87040 TIP3     25708    TIP3     H2       HT       0.417000       1.00800           0
     87041 TIP3     25709    TIP3     OH2      OT      -0.834000       15.9994           0
     87042 TIP3     25709    TIP3     H1       HT       0.417000       1.00800           0
     87043 TIP3     25709    TIP3     H2       HT       0.417000       1.00800           0
     87044 TIP3     25710    TIP3     OH2      OT      -0.834000       15.9994           0
     87045 TIP3     25710    TIP3     H1       HT       0.417000       1.00800           0
     87046 TIP3     25710    TIP3     H2       HT       0.417000       1.00800           0
     87047 TIP3     25711    TIP3     OH2      OT      -0.834000       15.9994           0
     87048 TIP3     25711    TIP3     H1       HT       0.417000       1.00800           0
     87049 TIP3     25711    TIP3     H2       HT       0.417000       1.00800           0
     87050 TIP3     25712    TIP3     OH2      OT      -0.834000       15.9994           0
     87051 TIP3     25712    TIP3     H1       HT       0.417000       1.00800           0
     87052 TIP3     25712    TIP3     H2       HT       0.417000       1.00800           0
     87053 TIP3     25713    TIP3     OH2      OT      -0.834000       15.9994           0
     87054 TIP3     25713    TIP3     H1       HT       0.417000       1.00800           0
     87055 TIP3     25713    TIP3     H2       HT       0.417000       1.00800           0
     87056 TIP3     25714    TIP3     OH2      OT      -0.834000       15.9994           0
     87057 TIP3     25714    TIP3     H1       HT       0.417000       1.00800           0
     87058 TIP3     25714    TIP3     H2       HT       0.417000       1.00800           0
     87059 TIP3     25715    TIP3     OH2      OT      -0.834000       15.9994           0
     87060 TIP3     25715    TIP3     H1       HT       0.417000       1.00800           0
     87061 TIP3     25715    TIP3     H2       HT       0.417000       1.00800           0
     87062 TIP3     25716    TIP3     OH2      OT      -0.834000       15.9994           0
     87063 TIP3     25716    TIP3     H1       HT       0.417000       1.00800           0
     87064 TIP3     25716    TIP3     H2       HT       0.417000       1.00800           0
     87065 TIP3     25717    TIP3     OH2      OT      -0.834000       15.9994           0
     87066 TIP3     25717    TIP3     H1       HT       0.417000       1.00800           0
     87067 TIP3     25717    TIP3     H2       HT       0.417000       1.00800           0
     87068 TIP3     25718    TIP3     OH2      OT      -0.834000       15.9994           0
     87069 TIP3     25718    TIP3     H1       HT       0.417000       1.00800           0
     87070 TIP3     25718    TIP3     H2       HT       0.417000       1.00800           0
     87071 TIP3     25719    TIP3     OH2      OT      -0.834000       15.9994           0
     87072 TIP3     25719    TIP3     H1       HT       0.417000       1.00800           0
     87073 TIP3     25719    TIP3     H2       HT       0.417000       1.00800           0
     87074 TIP3     25720    TIP3     OH2      OT      -0.834000       15.9994           0
     87075 TIP3     25720    TIP3     H1       HT       0.417000       1.00800           0
     87076 TIP3     25720    TIP3     H2       HT       0.417000       1.00800           0
     87077 TIP3     25721    TIP3     OH2      OT      -0.834000       15.9994           0
     87078 TIP3     25721    TIP3     H1       HT       0.417000       1.00800           0
     87079 TIP3     25721    TIP3     H2       HT       0.417000       1.00800           0
     87080 TIP3     25722    TIP3     OH2      OT      -0.834000       15.9994           0
     87081 TIP3     25722    TIP3     H1       HT       0.417000       1.00800           0
     87082 TIP3     25722    TIP3     H2       HT       0.417000       1.00800           0
     87083 TIP3     25723    TIP3     OH2      OT      -0.834000       15.9994           0
     87084 TIP3     25723    TIP3     H1       HT       0.417000       1.00800           0
     87085 TIP3     25723    TIP3     H2       HT       0.417000       1.00800           0
     87086 TIP3     25724    TIP3     OH2      OT      -0.834000       15.9994           0
     87087 TIP3     25724    TIP3     H1       HT       0.417000       1.00800           0
     87088 TIP3     25724    TIP3     H2       HT       0.417000       1.00800           0
     87089 TIP3     25725    TIP3     OH2      OT      -0.834000       15.9994           0
     87090 TIP3     25725    TIP3     H1       HT       0.417000       1.00800           0
     87091 TIP3     25725    TIP3     H2       HT       0.417000       1.00800           0
     87092 TIP3     25726    TIP3     OH2      OT      -0.834000       15.9994           0
     87093 TIP3     25726    TIP3     H1       HT       0.417000       1.00800           0
     87094 TIP3     25726    TIP3     H2       HT       0.417000       1.00800           0
     87095 TIP3     25727    TIP3     OH2      OT      -0.834000       15.9994           0
     87096 TIP3     25727    TIP3     H1       HT       0.417000       1.00800           0
     87097 TIP3     25727    TIP3     H2       HT       0.417000       1.00800           0
     87098 TIP3     25728    TIP3     OH2      OT      -0.834000       15.9994           0
     87099 TIP3     25728    TIP3     H1       HT       0.417000       1.00800           0
     87100 TIP3     25728    TIP3     H2       HT       0.417000       1.00800           0
     87101 TIP3     25729    TIP3     OH2      OT      -0.834000       15.9994           0
     87102 TIP3     25729    TIP3     H1       HT       0.417000       1.00800           0
     87103 TIP3     25729    TIP3     H2       HT       0.417000       1.00800           0
     87104 TIP3     25730    TIP3     OH2      OT      -0.834000       15.9994           0
     87105 TIP3     25730    TIP3     H1       HT       0.417000       1.00800           0
     87106 TIP3     25730    TIP3     H2       HT       0.417000       1.00800           0
     87107 TIP3     25731    TIP3     OH2      OT      -0.834000       15.9994           0
     87108 TIP3     25731    TIP3     H1       HT       0.417000       1.00800           0
     87109 TIP3     25731    TIP3     H2       HT       0.417000       1.00800           0
     87110 TIP3     25732    TIP3     OH2      OT      -0.834000       15.9994           0
     87111 TIP3     25732    TIP3     H1       HT       0.417000       1.00800           0
     87112 TIP3     25732    TIP3     H2       HT       0.417000       1.00800           0
     87113 TIP3     25733    TIP3     OH2      OT      -0.834000       15.9994           0
     87114 TIP3     25733    TIP3     H1       HT       0.417000       1.00800           0
     87115 TIP3     25733    TIP3     H2       HT       0.417000       1.00800           0
     87116 TIP3     25734    TIP3     OH2      OT      -0.834000       15.9994           0
     87117 TIP3     25734    TIP3     H1       HT       0.417000       1.00800           0
     87118 TIP3     25734    TIP3     H2       HT       0.417000       1.00800           0
     87119 TIP3     25735    TIP3     OH2      OT      -0.834000       15.9994           0
     87120 TIP3     25735    TIP3     H1       HT       0.417000       1.00800           0
     87121 TIP3     25735    TIP3     H2       HT       0.417000       1.00800           0
     87122 TIP3     25736    TIP3     OH2      OT      -0.834000       15.9994           0
     87123 TIP3     25736    TIP3     H1       HT       0.417000       1.00800           0
     87124 TIP3     25736    TIP3     H2       HT       0.417000       1.00800           0
     87125 TIP3     25737    TIP3     OH2      OT      -0.834000       15.9994           0
     87126 TIP3     25737    TIP3     H1       HT       0.417000       1.00800           0
     87127 TIP3     25737    TIP3     H2       HT       0.417000       1.00800           0
     87128 TIP3     25738    TIP3     OH2      OT      -0.834000       15.9994           0
     87129 TIP3     25738    TIP3     H1       HT       0.417000       1.00800           0
     87130 TIP3     25738    TIP3     H2       HT       0.417000       1.00800           0
     87131 TIP3     25739    TIP3     OH2      OT      -0.834000       15.9994           0
     87132 TIP3     25739    TIP3     H1       HT       0.417000       1.00800           0
     87133 TIP3     25739    TIP3     H2       HT       0.417000       1.00800           0
     87134 TIP3     25740    TIP3     OH2      OT      -0.834000       15.9994           0
     87135 TIP3     25740    TIP3     H1       HT       0.417000       1.00800           0
     87136 TIP3     25740    TIP3     H2       HT       0.417000       1.00800           0
     87137 TIP3     25741    TIP3     OH2      OT      -0.834000       15.9994           0
     87138 TIP3     25741    TIP3     H1       HT       0.417000       1.00800           0
     87139 TIP3     25741    TIP3     H2       HT       0.417000       1.00800           0
     87140 TIP3     25742    TIP3     OH2      OT      -0.834000       15.9994           0
     87141 TIP3     25742    TIP3     H1       HT       0.417000       1.00800           0
     87142 TIP3     25742    TIP3     H2       HT       0.417000       1.00800           0
     87143 TIP3     25743    TIP3     OH2      OT      -0.834000       15.9994           0
     87144 TIP3     25743    TIP3     H1       HT       0.417000       1.00800           0
     87145 TIP3     25743    TIP3     H2       HT       0.417000       1.00800           0
     87146 TIP3     25744    TIP3     OH2      OT      -0.834000       15.9994           0
     87147 TIP3     25744    TIP3     H1       HT       0.417000       1.00800           0
     87148 TIP3     25744    TIP3     H2       HT       0.417000       1.00800           0
     87149 TIP3     25745    TIP3     OH2      OT      -0.834000       15.9994           0
     87150 TIP3     25745    TIP3     H1       HT       0.417000       1.00800           0
     87151 TIP3     25745    TIP3     H2       HT       0.417000       1.00800           0
     87152 TIP3     25746    TIP3     OH2      OT      -0.834000       15.9994           0
     87153 TIP3     25746    TIP3     H1       HT       0.417000       1.00800           0
     87154 TIP3     25746    TIP3     H2       HT       0.417000       1.00800           0
     87155 TIP3     25747    TIP3     OH2      OT      -0.834000       15.9994           0
     87156 TIP3     25747    TIP3     H1       HT       0.417000       1.00800           0
     87157 TIP3     25747    TIP3     H2       HT       0.417000       1.00800           0
     87158 TIP3     25748    TIP3     OH2      OT      -0.834000       15.9994           0
     87159 TIP3     25748    TIP3     H1       HT       0.417000       1.00800           0
     87160 TIP3     25748    TIP3     H2       HT       0.417000       1.00800           0
     87161 TIP3     25749    TIP3     OH2      OT      -0.834000       15.9994           0
     87162 TIP3     25749    TIP3     H1       HT       0.417000       1.00800           0
     87163 TIP3     25749    TIP3     H2       HT       0.417000       1.00800           0
     87164 TIP3     25750    TIP3     OH2      OT      -0.834000       15.9994           0
     87165 TIP3     25750    TIP3     H1       HT       0.417000       1.00800           0
     87166 TIP3     25750    TIP3     H2       HT       0.417000       1.00800           0
     87167 TIP3     25751    TIP3     OH2      OT      -0.834000       15.9994           0
     87168 TIP3     25751    TIP3     H1       HT       0.417000       1.00800           0
     87169 TIP3     25751    TIP3     H2       HT       0.417000       1.00800           0
     87170 TIP3     25752    TIP3     OH2      OT      -0.834000       15.9994           0
     87171 TIP3     25752    TIP3     H1       HT       0.417000       1.00800           0
     87172 TIP3     25752    TIP3     H2       HT       0.417000       1.00800           0
     87173 TIP3     25753    TIP3     OH2      OT      -0.834000       15.9994           0
     87174 TIP3     25753    TIP3     H1       HT       0.417000       1.00800           0
     87175 TIP3     25753    TIP3     H2       HT       0.417000       1.00800           0
     87176 TIP3     25754    TIP3     OH2      OT      -0.834000       15.9994           0
     87177 TIP3     25754    TIP3     H1       HT       0.417000       1.00800           0
     87178 TIP3     25754    TIP3     H2       HT       0.417000       1.00800           0
     87179 TIP3     25755    TIP3     OH2      OT      -0.834000       15.9994           0
     87180 TIP3     25755    TIP3     H1       HT       0.417000       1.00800           0
     87181 TIP3     25755    TIP3     H2       HT       0.417000       1.00800           0
     87182 TIP3     25756    TIP3     OH2      OT      -0.834000       15.9994           0
     87183 TIP3     25756    TIP3     H1       HT       0.417000       1.00800           0
     87184 TIP3     25756    TIP3     H2       HT       0.417000       1.00800           0
     87185 TIP3     25757    TIP3     OH2      OT      -0.834000       15.9994           0
     87186 TIP3     25757    TIP3     H1       HT       0.417000       1.00800           0
     87187 TIP3     25757    TIP3     H2       HT       0.417000       1.00800           0
     87188 TIP3     25758    TIP3     OH2      OT      -0.834000       15.9994           0
     87189 TIP3     25758    TIP3     H1       HT       0.417000       1.00800           0
     87190 TIP3     25758    TIP3     H2       HT       0.417000       1.00800           0
     87191 TIP3     25759    TIP3     OH2      OT      -0.834000       15.9994           0
     87192 TIP3     25759    TIP3     H1       HT       0.417000       1.00800           0
     87193 TIP3     25759    TIP3     H2       HT       0.417000       1.00800           0
     87194 TIP3     25760    TIP3     OH2      OT      -0.834000       15.9994           0
     87195 TIP3     25760    TIP3     H1       HT       0.417000       1.00800           0
     87196 TIP3     25760    TIP3     H2       HT       0.417000       1.00800           0
     87197 TIP3     25761    TIP3     OH2      OT      -0.834000       15.9994           0
     87198 TIP3     25761    TIP3     H1       HT       0.417000       1.00800           0
     87199 TIP3     25761    TIP3     H2       HT       0.417000       1.00800           0
     87200 TIP3     25762    TIP3     OH2      OT      -0.834000       15.9994           0
     87201 TIP3     25762    TIP3     H1       HT       0.417000       1.00800           0
     87202 TIP3     25762    TIP3     H2       HT       0.417000       1.00800           0
     87203 TIP3     25763    TIP3     OH2      OT      -0.834000       15.9994           0
     87204 TIP3     25763    TIP3     H1       HT       0.417000       1.00800           0
     87205 TIP3     25763    TIP3     H2       HT       0.417000       1.00800           0
     87206 TIP3     25764    TIP3     OH2      OT      -0.834000       15.9994           0
     87207 TIP3     25764    TIP3     H1       HT       0.417000       1.00800           0
     87208 TIP3     25764    TIP3     H2       HT       0.417000       1.00800           0
     87209 TIP3     25765    TIP3     OH2      OT      -0.834000       15.9994           0
     87210 TIP3     25765    TIP3     H1       HT       0.417000       1.00800           0
     87211 TIP3     25765    TIP3     H2       HT       0.417000       1.00800           0
     87212 TIP3     25766    TIP3     OH2      OT      -0.834000       15.9994           0
     87213 TIP3     25766    TIP3     H1       HT       0.417000       1.00800           0
     87214 TIP3     25766    TIP3     H2       HT       0.417000       1.00800           0
     87215 TIP3     25767    TIP3     OH2      OT      -0.834000       15.9994           0
     87216 TIP3     25767    TIP3     H1       HT       0.417000       1.00800           0
     87217 TIP3     25767    TIP3     H2       HT       0.417000       1.00800           0
     87218 TIP3     25768    TIP3     OH2      OT      -0.834000       15.9994           0
     87219 TIP3     25768    TIP3     H1       HT       0.417000       1.00800           0
     87220 TIP3     25768    TIP3     H2       HT       0.417000       1.00800           0
     87221 TIP3     25769    TIP3     OH2      OT      -0.834000       15.9994           0
     87222 TIP3     25769    TIP3     H1       HT       0.417000       1.00800           0
     87223 TIP3     25769    TIP3     H2       HT       0.417000       1.00800           0
     87224 TIP3     25770    TIP3     OH2      OT      -0.834000       15.9994           0
     87225 TIP3     25770    TIP3     H1       HT       0.417000       1.00800           0
     87226 TIP3     25770    TIP3     H2       HT       0.417000       1.00800           0
     87227 TIP3     25771    TIP3     OH2      OT      -0.834000       15.9994           0
     87228 TIP3     25771    TIP3     H1       HT       0.417000       1.00800           0
     87229 TIP3     25771    TIP3     H2       HT       0.417000       1.00800           0
     87230 TIP3     25772    TIP3     OH2      OT      -0.834000       15.9994           0
     87231 TIP3     25772    TIP3     H1       HT       0.417000       1.00800           0
     87232 TIP3     25772    TIP3     H2       HT       0.417000       1.00800           0
     87233 TIP3     25773    TIP3     OH2      OT      -0.834000       15.9994           0
     87234 TIP3     25773    TIP3     H1       HT       0.417000       1.00800           0
     87235 TIP3     25773    TIP3     H2       HT       0.417000       1.00800           0
     87236 TIP3     25774    TIP3     OH2      OT      -0.834000       15.9994           0
     87237 TIP3     25774    TIP3     H1       HT       0.417000       1.00800           0
     87238 TIP3     25774    TIP3     H2       HT       0.417000       1.00800           0
     87239 TIP3     25775    TIP3     OH2      OT      -0.834000       15.9994           0
     87240 TIP3     25775    TIP3     H1       HT       0.417000       1.00800           0
     87241 TIP3     25775    TIP3     H2       HT       0.417000       1.00800           0
     87242 TIP3     25776    TIP3     OH2      OT      -0.834000       15.9994           0
     87243 TIP3     25776    TIP3     H1       HT       0.417000       1.00800           0
     87244 TIP3     25776    TIP3     H2       HT       0.417000       1.00800           0
     87245 TIP3     25777    TIP3     OH2      OT      -0.834000       15.9994           0
     87246 TIP3     25777    TIP3     H1       HT       0.417000       1.00800           0
     87247 TIP3     25777    TIP3     H2       HT       0.417000       1.00800           0
     87248 TIP3     25778    TIP3     OH2      OT      -0.834000       15.9994           0
     87249 TIP3     25778    TIP3     H1       HT       0.417000       1.00800           0
     87250 TIP3     25778    TIP3     H2       HT       0.417000       1.00800           0
     87251 TIP3     25779    TIP3     OH2      OT      -0.834000       15.9994           0
     87252 TIP3     25779    TIP3     H1       HT       0.417000       1.00800           0
     87253 TIP3     25779    TIP3     H2       HT       0.417000       1.00800           0
     87254 TIP3     25780    TIP3     OH2      OT      -0.834000       15.9994           0
     87255 TIP3     25780    TIP3     H1       HT       0.417000       1.00800           0
     87256 TIP3     25780    TIP3     H2       HT       0.417000       1.00800           0
     87257 TIP3     25781    TIP3     OH2      OT      -0.834000       15.9994           0
     87258 TIP3     25781    TIP3     H1       HT       0.417000       1.00800           0
     87259 TIP3     25781    TIP3     H2       HT       0.417000       1.00800           0
     87260 TIP3     25782    TIP3     OH2      OT      -0.834000       15.9994           0
     87261 TIP3     25782    TIP3     H1       HT       0.417000       1.00800           0
     87262 TIP3     25782    TIP3     H2       HT       0.417000       1.00800           0
     87263 TIP3     25783    TIP3     OH2      OT      -0.834000       15.9994           0
     87264 TIP3     25783    TIP3     H1       HT       0.417000       1.00800           0
     87265 TIP3     25783    TIP3     H2       HT       0.417000       1.00800           0
     87266 TIP3     25784    TIP3     OH2      OT      -0.834000       15.9994           0
     87267 TIP3     25784    TIP3     H1       HT       0.417000       1.00800           0
     87268 TIP3     25784    TIP3     H2       HT       0.417000       1.00800           0
     87269 TIP3     25785    TIP3     OH2      OT      -0.834000       15.9994           0
     87270 TIP3     25785    TIP3     H1       HT       0.417000       1.00800           0
     87271 TIP3     25785    TIP3     H2       HT       0.417000       1.00800           0
     87272 TIP3     25786    TIP3     OH2      OT      -0.834000       15.9994           0
     87273 TIP3     25786    TIP3     H1       HT       0.417000       1.00800           0
     87274 TIP3     25786    TIP3     H2       HT       0.417000       1.00800           0
     87275 TIP3     25787    TIP3     OH2      OT      -0.834000       15.9994           0
     87276 TIP3     25787    TIP3     H1       HT       0.417000       1.00800           0
     87277 TIP3     25787    TIP3     H2       HT       0.417000       1.00800           0
     87278 TIP3     25788    TIP3     OH2      OT      -0.834000       15.9994           0
     87279 TIP3     25788    TIP3     H1       HT       0.417000       1.00800           0
     87280 TIP3     25788    TIP3     H2       HT       0.417000       1.00800           0
     87281 TIP3     25789    TIP3     OH2      OT      -0.834000       15.9994           0
     87282 TIP3     25789    TIP3     H1       HT       0.417000       1.00800           0
     87283 TIP3     25789    TIP3     H2       HT       0.417000       1.00800           0
     87284 TIP3     25790    TIP3     OH2      OT      -0.834000       15.9994           0
     87285 TIP3     25790    TIP3     H1       HT       0.417000       1.00800           0
     87286 TIP3     25790    TIP3     H2       HT       0.417000       1.00800           0
     87287 TIP3     25791    TIP3     OH2      OT      -0.834000       15.9994           0
     87288 TIP3     25791    TIP3     H1       HT       0.417000       1.00800           0
     87289 TIP3     25791    TIP3     H2       HT       0.417000       1.00800           0
     87290 TIP3     25792    TIP3     OH2      OT      -0.834000       15.9994           0
     87291 TIP3     25792    TIP3     H1       HT       0.417000       1.00800           0
     87292 TIP3     25792    TIP3     H2       HT       0.417000       1.00800           0
     87293 TIP3     25793    TIP3     OH2      OT      -0.834000       15.9994           0
     87294 TIP3     25793    TIP3     H1       HT       0.417000       1.00800           0
     87295 TIP3     25793    TIP3     H2       HT       0.417000       1.00800           0
     87296 TIP3     25794    TIP3     OH2      OT      -0.834000       15.9994           0
     87297 TIP3     25794    TIP3     H1       HT       0.417000       1.00800           0
     87298 TIP3     25794    TIP3     H2       HT       0.417000       1.00800           0
     87299 TIP3     25795    TIP3     OH2      OT      -0.834000       15.9994           0
     87300 TIP3     25795    TIP3     H1       HT       0.417000       1.00800           0
     87301 TIP3     25795    TIP3     H2       HT       0.417000       1.00800           0
     87302 TIP3     25796    TIP3     OH2      OT      -0.834000       15.9994           0
     87303 TIP3     25796    TIP3     H1       HT       0.417000       1.00800           0
     87304 TIP3     25796    TIP3     H2       HT       0.417000       1.00800           0
     87305 TIP3     25797    TIP3     OH2      OT      -0.834000       15.9994           0
     87306 TIP3     25797    TIP3     H1       HT       0.417000       1.00800           0
     87307 TIP3     25797    TIP3     H2       HT       0.417000       1.00800           0
     87308 TIP3     25798    TIP3     OH2      OT      -0.834000       15.9994           0
     87309 TIP3     25798    TIP3     H1       HT       0.417000       1.00800           0
     87310 TIP3     25798    TIP3     H2       HT       0.417000       1.00800           0
     87311 TIP3     25799    TIP3     OH2      OT      -0.834000       15.9994           0
     87312 TIP3     25799    TIP3     H1       HT       0.417000       1.00800           0
     87313 TIP3     25799    TIP3     H2       HT       0.417000       1.00800           0
     87314 TIP3     25800    TIP3     OH2      OT      -0.834000       15.9994           0
     87315 TIP3     25800    TIP3     H1       HT       0.417000       1.00800           0
     87316 TIP3     25800    TIP3     H2       HT       0.417000       1.00800           0
     87317 TIP3     25801    TIP3     OH2      OT      -0.834000       15.9994           0
     87318 TIP3     25801    TIP3     H1       HT       0.417000       1.00800           0
     87319 TIP3     25801    TIP3     H2       HT       0.417000       1.00800           0
     87320 TIP3     25802    TIP3     OH2      OT      -0.834000       15.9994           0
     87321 TIP3     25802    TIP3     H1       HT       0.417000       1.00800           0
     87322 TIP3     25802    TIP3     H2       HT       0.417000       1.00800           0
     87323 TIP3     25803    TIP3     OH2      OT      -0.834000       15.9994           0
     87324 TIP3     25803    TIP3     H1       HT       0.417000       1.00800           0
     87325 TIP3     25803    TIP3     H2       HT       0.417000       1.00800           0
     87326 TIP3     25804    TIP3     OH2      OT      -0.834000       15.9994           0
     87327 TIP3     25804    TIP3     H1       HT       0.417000       1.00800           0
     87328 TIP3     25804    TIP3     H2       HT       0.417000       1.00800           0
     87329 TIP3     25805    TIP3     OH2      OT      -0.834000       15.9994           0
     87330 TIP3     25805    TIP3     H1       HT       0.417000       1.00800           0
     87331 TIP3     25805    TIP3     H2       HT       0.417000       1.00800           0
     87332 TIP3     25806    TIP3     OH2      OT      -0.834000       15.9994           0
     87333 TIP3     25806    TIP3     H1       HT       0.417000       1.00800           0
     87334 TIP3     25806    TIP3     H2       HT       0.417000       1.00800           0
     87335 TIP3     25807    TIP3     OH2      OT      -0.834000       15.9994           0
     87336 TIP3     25807    TIP3     H1       HT       0.417000       1.00800           0
     87337 TIP3     25807    TIP3     H2       HT       0.417000       1.00800           0
     87338 TIP3     25808    TIP3     OH2      OT      -0.834000       15.9994           0
     87339 TIP3     25808    TIP3     H1       HT       0.417000       1.00800           0
     87340 TIP3     25808    TIP3     H2       HT       0.417000       1.00800           0
     87341 TIP3     25809    TIP3     OH2      OT      -0.834000       15.9994           0
     87342 TIP3     25809    TIP3     H1       HT       0.417000       1.00800           0
     87343 TIP3     25809    TIP3     H2       HT       0.417000       1.00800           0
     87344 TIP3     25810    TIP3     OH2      OT      -0.834000       15.9994           0
     87345 TIP3     25810    TIP3     H1       HT       0.417000       1.00800           0
     87346 TIP3     25810    TIP3     H2       HT       0.417000       1.00800           0
     87347 TIP3     25811    TIP3     OH2      OT      -0.834000       15.9994           0
     87348 TIP3     25811    TIP3     H1       HT       0.417000       1.00800           0
     87349 TIP3     25811    TIP3     H2       HT       0.417000       1.00800           0
     87350 TIP3     25812    TIP3     OH2      OT      -0.834000       15.9994           0
     87351 TIP3     25812    TIP3     H1       HT       0.417000       1.00800           0
     87352 TIP3     25812    TIP3     H2       HT       0.417000       1.00800           0
     87353 TIP3     25813    TIP3     OH2      OT      -0.834000       15.9994           0
     87354 TIP3     25813    TIP3     H1       HT       0.417000       1.00800           0
     87355 TIP3     25813    TIP3     H2       HT       0.417000       1.00800           0
     87356 TIP3     25814    TIP3     OH2      OT      -0.834000       15.9994           0
     87357 TIP3     25814    TIP3     H1       HT       0.417000       1.00800           0
     87358 TIP3     25814    TIP3     H2       HT       0.417000       1.00800           0
     87359 TIP3     25815    TIP3     OH2      OT      -0.834000       15.9994           0
     87360 TIP3     25815    TIP3     H1       HT       0.417000       1.00800           0
     87361 TIP3     25815    TIP3     H2       HT       0.417000       1.00800           0
     87362 TIP3     25816    TIP3     OH2      OT      -0.834000       15.9994           0
     87363 TIP3     25816    TIP3     H1       HT       0.417000       1.00800           0
     87364 TIP3     25816    TIP3     H2       HT       0.417000       1.00800           0
     87365 TIP3     25817    TIP3     OH2      OT      -0.834000       15.9994           0
     87366 TIP3     25817    TIP3     H1       HT       0.417000       1.00800           0
     87367 TIP3     25817    TIP3     H2       HT       0.417000       1.00800           0
     87368 TIP3     25818    TIP3     OH2      OT      -0.834000       15.9994           0
     87369 TIP3     25818    TIP3     H1       HT       0.417000       1.00800           0
     87370 TIP3     25818    TIP3     H2       HT       0.417000       1.00800           0
     87371 TIP3     25819    TIP3     OH2      OT      -0.834000       15.9994           0
     87372 TIP3     25819    TIP3     H1       HT       0.417000       1.00800           0
     87373 TIP3     25819    TIP3     H2       HT       0.417000       1.00800           0
     87374 TIP3     25820    TIP3     OH2      OT      -0.834000       15.9994           0
     87375 TIP3     25820    TIP3     H1       HT       0.417000       1.00800           0
     87376 TIP3     25820    TIP3     H2       HT       0.417000       1.00800           0
     87377 TIP3     25821    TIP3     OH2      OT      -0.834000       15.9994           0
     87378 TIP3     25821    TIP3     H1       HT       0.417000       1.00800           0
     87379 TIP3     25821    TIP3     H2       HT       0.417000       1.00800           0
     87380 TIP3     25822    TIP3     OH2      OT      -0.834000       15.9994           0
     87381 TIP3     25822    TIP3     H1       HT       0.417000       1.00800           0
     87382 TIP3     25822    TIP3     H2       HT       0.417000       1.00800           0
     87383 TIP3     25823    TIP3     OH2      OT      -0.834000       15.9994           0
     87384 TIP3     25823    TIP3     H1       HT       0.417000       1.00800           0
     87385 TIP3     25823    TIP3     H2       HT       0.417000       1.00800           0
     87386 TIP3     25824    TIP3     OH2      OT      -0.834000       15.9994           0
     87387 TIP3     25824    TIP3     H1       HT       0.417000       1.00800           0
     87388 TIP3     25824    TIP3     H2       HT       0.417000       1.00800           0
     87389 TIP3     25825    TIP3     OH2      OT      -0.834000       15.9994           0
     87390 TIP3     25825    TIP3     H1       HT       0.417000       1.00800           0
     87391 TIP3     25825    TIP3     H2       HT       0.417000       1.00800           0
     87392 TIP3     25826    TIP3     OH2      OT      -0.834000       15.9994           0
     87393 TIP3     25826    TIP3     H1       HT       0.417000       1.00800           0
     87394 TIP3     25826    TIP3     H2       HT       0.417000       1.00800           0
     87395 TIP3     25827    TIP3     OH2      OT      -0.834000       15.9994           0
     87396 TIP3     25827    TIP3     H1       HT       0.417000       1.00800           0
     87397 TIP3     25827    TIP3     H2       HT       0.417000       1.00800           0
     87398 TIP3     25828    TIP3     OH2      OT      -0.834000       15.9994           0
     87399 TIP3     25828    TIP3     H1       HT       0.417000       1.00800           0
     87400 TIP3     25828    TIP3     H2       HT       0.417000       1.00800           0
     87401 TIP3     25829    TIP3     OH2      OT      -0.834000       15.9994           0
     87402 TIP3     25829    TIP3     H1       HT       0.417000       1.00800           0
     87403 TIP3     25829    TIP3     H2       HT       0.417000       1.00800           0
     87404 TIP3     25830    TIP3     OH2      OT      -0.834000       15.9994           0
     87405 TIP3     25830    TIP3     H1       HT       0.417000       1.00800           0
     87406 TIP3     25830    TIP3     H2       HT       0.417000       1.00800           0
     87407 TIP3     25831    TIP3     OH2      OT      -0.834000       15.9994           0
     87408 TIP3     25831    TIP3     H1       HT       0.417000       1.00800           0
     87409 TIP3     25831    TIP3     H2       HT       0.417000       1.00800           0
     87410 TIP3     25832    TIP3     OH2      OT      -0.834000       15.9994           0
     87411 TIP3     25832    TIP3     H1       HT       0.417000       1.00800           0
     87412 TIP3     25832    TIP3     H2       HT       0.417000       1.00800           0
     87413 TIP3     25833    TIP3     OH2      OT      -0.834000       15.9994           0
     87414 TIP3     25833    TIP3     H1       HT       0.417000       1.00800           0
     87415 TIP3     25833    TIP3     H2       HT       0.417000       1.00800           0
     87416 TIP3     25834    TIP3     OH2      OT      -0.834000       15.9994           0
     87417 TIP3     25834    TIP3     H1       HT       0.417000       1.00800           0
     87418 TIP3     25834    TIP3     H2       HT       0.417000       1.00800           0
     87419 TIP3     25835    TIP3     OH2      OT      -0.834000       15.9994           0
     87420 TIP3     25835    TIP3     H1       HT       0.417000       1.00800           0
     87421 TIP3     25835    TIP3     H2       HT       0.417000       1.00800           0
     87422 TIP3     25836    TIP3     OH2      OT      -0.834000       15.9994           0
     87423 TIP3     25836    TIP3     H1       HT       0.417000       1.00800           0
     87424 TIP3     25836    TIP3     H2       HT       0.417000       1.00800           0
     87425 TIP3     25837    TIP3     OH2      OT      -0.834000       15.9994           0
     87426 TIP3     25837    TIP3     H1       HT       0.417000       1.00800           0
     87427 TIP3     25837    TIP3     H2       HT       0.417000       1.00800           0
     87428 TIP3     25838    TIP3     OH2      OT      -0.834000       15.9994           0
     87429 TIP3     25838    TIP3     H1       HT       0.417000       1.00800           0
     87430 TIP3     25838    TIP3     H2       HT       0.417000       1.00800           0
     87431 TIP3     25839    TIP3     OH2      OT      -0.834000       15.9994           0
     87432 TIP3     25839    TIP3     H1       HT       0.417000       1.00800           0
     87433 TIP3     25839    TIP3     H2       HT       0.417000       1.00800           0
     87434 TIP3     25840    TIP3     OH2      OT      -0.834000       15.9994           0
     87435 TIP3     25840    TIP3     H1       HT       0.417000       1.00800           0
     87436 TIP3     25840    TIP3     H2       HT       0.417000       1.00800           0
     87437 TIP3     25841    TIP3     OH2      OT      -0.834000       15.9994           0
     87438 TIP3     25841    TIP3     H1       HT       0.417000       1.00800           0
     87439 TIP3     25841    TIP3     H2       HT       0.417000       1.00800           0
     87440 TIP3     25842    TIP3     OH2      OT      -0.834000       15.9994           0
     87441 TIP3     25842    TIP3     H1       HT       0.417000       1.00800           0
     87442 TIP3     25842    TIP3     H2       HT       0.417000       1.00800           0
     87443 TIP3     25843    TIP3     OH2      OT      -0.834000       15.9994           0
     87444 TIP3     25843    TIP3     H1       HT       0.417000       1.00800           0
     87445 TIP3     25843    TIP3     H2       HT       0.417000       1.00800           0
     87446 TIP3     25844    TIP3     OH2      OT      -0.834000       15.9994           0
     87447 TIP3     25844    TIP3     H1       HT       0.417000       1.00800           0
     87448 TIP3     25844    TIP3     H2       HT       0.417000       1.00800           0
     87449 TIP3     25845    TIP3     OH2      OT      -0.834000       15.9994           0
     87450 TIP3     25845    TIP3     H1       HT       0.417000       1.00800           0
     87451 TIP3     25845    TIP3     H2       HT       0.417000       1.00800           0
     87452 TIP3     25846    TIP3     OH2      OT      -0.834000       15.9994           0
     87453 TIP3     25846    TIP3     H1       HT       0.417000       1.00800           0
     87454 TIP3     25846    TIP3     H2       HT       0.417000       1.00800           0
     87455 TIP3     25847    TIP3     OH2      OT      -0.834000       15.9994           0
     87456 TIP3     25847    TIP3     H1       HT       0.417000       1.00800           0
     87457 TIP3     25847    TIP3     H2       HT       0.417000       1.00800           0
     87458 TIP3     25848    TIP3     OH2      OT      -0.834000       15.9994           0
     87459 TIP3     25848    TIP3     H1       HT       0.417000       1.00800           0
     87460 TIP3     25848    TIP3     H2       HT       0.417000       1.00800           0
     87461 TIP3     25849    TIP3     OH2      OT      -0.834000       15.9994           0
     87462 TIP3     25849    TIP3     H1       HT       0.417000       1.00800           0
     87463 TIP3     25849    TIP3     H2       HT       0.417000       1.00800           0
     87464 TIP3     25850    TIP3     OH2      OT      -0.834000       15.9994           0
     87465 TIP3     25850    TIP3     H1       HT       0.417000       1.00800           0
     87466 TIP3     25850    TIP3     H2       HT       0.417000       1.00800           0
     87467 TIP3     25851    TIP3     OH2      OT      -0.834000       15.9994           0
     87468 TIP3     25851    TIP3     H1       HT       0.417000       1.00800           0
     87469 TIP3     25851    TIP3     H2       HT       0.417000       1.00800           0
     87470 TIP3     25852    TIP3     OH2      OT      -0.834000       15.9994           0
     87471 TIP3     25852    TIP3     H1       HT       0.417000       1.00800           0
     87472 TIP3     25852    TIP3     H2       HT       0.417000       1.00800           0
     87473 TIP3     25853    TIP3     OH2      OT      -0.834000       15.9994           0
     87474 TIP3     25853    TIP3     H1       HT       0.417000       1.00800           0
     87475 TIP3     25853    TIP3     H2       HT       0.417000       1.00800           0
     87476 TIP3     25854    TIP3     OH2      OT      -0.834000       15.9994           0
     87477 TIP3     25854    TIP3     H1       HT       0.417000       1.00800           0
     87478 TIP3     25854    TIP3     H2       HT       0.417000       1.00800           0
     87479 TIP3     25855    TIP3     OH2      OT      -0.834000       15.9994           0
     87480 TIP3     25855    TIP3     H1       HT       0.417000       1.00800           0
     87481 TIP3     25855    TIP3     H2       HT       0.417000       1.00800           0
     87482 TIP3     25856    TIP3     OH2      OT      -0.834000       15.9994           0
     87483 TIP3     25856    TIP3     H1       HT       0.417000       1.00800           0
     87484 TIP3     25856    TIP3     H2       HT       0.417000       1.00800           0
     87485 TIP3     25857    TIP3     OH2      OT      -0.834000       15.9994           0
     87486 TIP3     25857    TIP3     H1       HT       0.417000       1.00800           0
     87487 TIP3     25857    TIP3     H2       HT       0.417000       1.00800           0
     87488 TIP3     25858    TIP3     OH2      OT      -0.834000       15.9994           0
     87489 TIP3     25858    TIP3     H1       HT       0.417000       1.00800           0
     87490 TIP3     25858    TIP3     H2       HT       0.417000       1.00800           0
     87491 TIP3     25859    TIP3     OH2      OT      -0.834000       15.9994           0
     87492 TIP3     25859    TIP3     H1       HT       0.417000       1.00800           0
     87493 TIP3     25859    TIP3     H2       HT       0.417000       1.00800           0
     87494 TIP3     25860    TIP3     OH2      OT      -0.834000       15.9994           0
     87495 TIP3     25860    TIP3     H1       HT       0.417000       1.00800           0
     87496 TIP3     25860    TIP3     H2       HT       0.417000       1.00800           0
     87497 TIP3     25861    TIP3     OH2      OT      -0.834000       15.9994           0
     87498 TIP3     25861    TIP3     H1       HT       0.417000       1.00800           0
     87499 TIP3     25861    TIP3     H2       HT       0.417000       1.00800           0
     87500 TIP3     25862    TIP3     OH2      OT      -0.834000       15.9994           0
     87501 TIP3     25862    TIP3     H1       HT       0.417000       1.00800           0
     87502 TIP3     25862    TIP3     H2       HT       0.417000       1.00800           0
     87503 TIP3     25863    TIP3     OH2      OT      -0.834000       15.9994           0
     87504 TIP3     25863    TIP3     H1       HT       0.417000       1.00800           0
     87505 TIP3     25863    TIP3     H2       HT       0.417000       1.00800           0
     87506 TIP3     25864    TIP3     OH2      OT      -0.834000       15.9994           0
     87507 TIP3     25864    TIP3     H1       HT       0.417000       1.00800           0
     87508 TIP3     25864    TIP3     H2       HT       0.417000       1.00800           0
     87509 TIP3     25865    TIP3     OH2      OT      -0.834000       15.9994           0
     87510 TIP3     25865    TIP3     H1       HT       0.417000       1.00800           0
     87511 TIP3     25865    TIP3     H2       HT       0.417000       1.00800           0
     87512 TIP3     25866    TIP3     OH2      OT      -0.834000       15.9994           0
     87513 TIP3     25866    TIP3     H1       HT       0.417000       1.00800           0
     87514 TIP3     25866    TIP3     H2       HT       0.417000       1.00800           0
     87515 TIP3     25867    TIP3     OH2      OT      -0.834000       15.9994           0
     87516 TIP3     25867    TIP3     H1       HT       0.417000       1.00800           0
     87517 TIP3     25867    TIP3     H2       HT       0.417000       1.00800           0
     87518 TIP3     25868    TIP3     OH2      OT      -0.834000       15.9994           0
     87519 TIP3     25868    TIP3     H1       HT       0.417000       1.00800           0
     87520 TIP3     25868    TIP3     H2       HT       0.417000       1.00800           0
     87521 TIP3     25869    TIP3     OH2      OT      -0.834000       15.9994           0
     87522 TIP3     25869    TIP3     H1       HT       0.417000       1.00800           0
     87523 TIP3     25869    TIP3     H2       HT       0.417000       1.00800           0
     87524 TIP3     25870    TIP3     OH2      OT      -0.834000       15.9994           0
     87525 TIP3     25870    TIP3     H1       HT       0.417000       1.00800           0
     87526 TIP3     25870    TIP3     H2       HT       0.417000       1.00800           0
     87527 TIP3     25871    TIP3     OH2      OT      -0.834000       15.9994           0
     87528 TIP3     25871    TIP3     H1       HT       0.417000       1.00800           0
     87529 TIP3     25871    TIP3     H2       HT       0.417000       1.00800           0
     87530 TIP3     25872    TIP3     OH2      OT      -0.834000       15.9994           0
     87531 TIP3     25872    TIP3     H1       HT       0.417000       1.00800           0
     87532 TIP3     25872    TIP3     H2       HT       0.417000       1.00800           0
     87533 TIP3     25873    TIP3     OH2      OT      -0.834000       15.9994           0
     87534 TIP3     25873    TIP3     H1       HT       0.417000       1.00800           0
     87535 TIP3     25873    TIP3     H2       HT       0.417000       1.00800           0
     87536 TIP3     25874    TIP3     OH2      OT      -0.834000       15.9994           0
     87537 TIP3     25874    TIP3     H1       HT       0.417000       1.00800           0
     87538 TIP3     25874    TIP3     H2       HT       0.417000       1.00800           0
     87539 TIP3     25875    TIP3     OH2      OT      -0.834000       15.9994           0
     87540 TIP3     25875    TIP3     H1       HT       0.417000       1.00800           0
     87541 TIP3     25875    TIP3     H2       HT       0.417000       1.00800           0
     87542 TIP3     25876    TIP3     OH2      OT      -0.834000       15.9994           0
     87543 TIP3     25876    TIP3     H1       HT       0.417000       1.00800           0
     87544 TIP3     25876    TIP3     H2       HT       0.417000       1.00800           0
     87545 TIP3     25877    TIP3     OH2      OT      -0.834000       15.9994           0
     87546 TIP3     25877    TIP3     H1       HT       0.417000       1.00800           0
     87547 TIP3     25877    TIP3     H2       HT       0.417000       1.00800           0
     87548 TIP3     25878    TIP3     OH2      OT      -0.834000       15.9994           0
     87549 TIP3     25878    TIP3     H1       HT       0.417000       1.00800           0
     87550 TIP3     25878    TIP3     H2       HT       0.417000       1.00800           0
     87551 TIP3     25879    TIP3     OH2      OT      -0.834000       15.9994           0
     87552 TIP3     25879    TIP3     H1       HT       0.417000       1.00800           0
     87553 TIP3     25879    TIP3     H2       HT       0.417000       1.00800           0
     87554 TIP3     25880    TIP3     OH2      OT      -0.834000       15.9994           0
     87555 TIP3     25880    TIP3     H1       HT       0.417000       1.00800           0
     87556 TIP3     25880    TIP3     H2       HT       0.417000       1.00800           0
     87557 TIP3     25881    TIP3     OH2      OT      -0.834000       15.9994           0
     87558 TIP3     25881    TIP3     H1       HT       0.417000       1.00800           0
     87559 TIP3     25881    TIP3     H2       HT       0.417000       1.00800           0
     87560 TIP3     25882    TIP3     OH2      OT      -0.834000       15.9994           0
     87561 TIP3     25882    TIP3     H1       HT       0.417000       1.00800           0
     87562 TIP3     25882    TIP3     H2       HT       0.417000       1.00800           0
     87563 TIP3     25883    TIP3     OH2      OT      -0.834000       15.9994           0
     87564 TIP3     25883    TIP3     H1       HT       0.417000       1.00800           0
     87565 TIP3     25883    TIP3     H2       HT       0.417000       1.00800           0
     87566 TIP3     25884    TIP3     OH2      OT      -0.834000       15.9994           0
     87567 TIP3     25884    TIP3     H1       HT       0.417000       1.00800           0
     87568 TIP3     25884    TIP3     H2       HT       0.417000       1.00800           0
     87569 TIP3     25885    TIP3     OH2      OT      -0.834000       15.9994           0
     87570 TIP3     25885    TIP3     H1       HT       0.417000       1.00800           0
     87571 TIP3     25885    TIP3     H2       HT       0.417000       1.00800           0
     87572 TIP3     25886    TIP3     OH2      OT      -0.834000       15.9994           0
     87573 TIP3     25886    TIP3     H1       HT       0.417000       1.00800           0
     87574 TIP3     25886    TIP3     H2       HT       0.417000       1.00800           0
     87575 TIP3     25887    TIP3     OH2      OT      -0.834000       15.9994           0
     87576 TIP3     25887    TIP3     H1       HT       0.417000       1.00800           0
     87577 TIP3     25887    TIP3     H2       HT       0.417000       1.00800           0
     87578 TIP3     25888    TIP3     OH2      OT      -0.834000       15.9994           0
     87579 TIP3     25888    TIP3     H1       HT       0.417000       1.00800           0
     87580 TIP3     25888    TIP3     H2       HT       0.417000       1.00800           0
     87581 TIP3     25889    TIP3     OH2      OT      -0.834000       15.9994           0
     87582 TIP3     25889    TIP3     H1       HT       0.417000       1.00800           0
     87583 TIP3     25889    TIP3     H2       HT       0.417000       1.00800           0
     87584 TIP3     25890    TIP3     OH2      OT      -0.834000       15.9994           0
     87585 TIP3     25890    TIP3     H1       HT       0.417000       1.00800           0
     87586 TIP3     25890    TIP3     H2       HT       0.417000       1.00800           0
     87587 TIP3     25891    TIP3     OH2      OT      -0.834000       15.9994           0
     87588 TIP3     25891    TIP3     H1       HT       0.417000       1.00800           0
     87589 TIP3     25891    TIP3     H2       HT       0.417000       1.00800           0
     87590 TIP3     25892    TIP3     OH2      OT      -0.834000       15.9994           0
     87591 TIP3     25892    TIP3     H1       HT       0.417000       1.00800           0
     87592 TIP3     25892    TIP3     H2       HT       0.417000       1.00800           0
     87593 TIP3     25893    TIP3     OH2      OT      -0.834000       15.9994           0
     87594 TIP3     25893    TIP3     H1       HT       0.417000       1.00800           0
     87595 TIP3     25893    TIP3     H2       HT       0.417000       1.00800           0
     87596 TIP3     25894    TIP3     OH2      OT      -0.834000       15.9994           0
     87597 TIP3     25894    TIP3     H1       HT       0.417000       1.00800           0
     87598 TIP3     25894    TIP3     H2       HT       0.417000       1.00800           0
     87599 TIP3     25895    TIP3     OH2      OT      -0.834000       15.9994           0
     87600 TIP3     25895    TIP3     H1       HT       0.417000       1.00800           0
     87601 TIP3     25895    TIP3     H2       HT       0.417000       1.00800           0
     87602 TIP3     25896    TIP3     OH2      OT      -0.834000       15.9994           0
     87603 TIP3     25896    TIP3     H1       HT       0.417000       1.00800           0
     87604 TIP3     25896    TIP3     H2       HT       0.417000       1.00800           0
     87605 TIP3     25897    TIP3     OH2      OT      -0.834000       15.9994           0
     87606 TIP3     25897    TIP3     H1       HT       0.417000       1.00800           0
     87607 TIP3     25897    TIP3     H2       HT       0.417000       1.00800           0
     87608 TIP3     25898    TIP3     OH2      OT      -0.834000       15.9994           0
     87609 TIP3     25898    TIP3     H1       HT       0.417000       1.00800           0
     87610 TIP3     25898    TIP3     H2       HT       0.417000       1.00800           0
     87611 TIP3     25899    TIP3     OH2      OT      -0.834000       15.9994           0
     87612 TIP3     25899    TIP3     H1       HT       0.417000       1.00800           0
     87613 TIP3     25899    TIP3     H2       HT       0.417000       1.00800           0
     87614 TIP3     25900    TIP3     OH2      OT      -0.834000       15.9994           0
     87615 TIP3     25900    TIP3     H1       HT       0.417000       1.00800           0
     87616 TIP3     25900    TIP3     H2       HT       0.417000       1.00800           0
     87617 TIP3     25901    TIP3     OH2      OT      -0.834000       15.9994           0
     87618 TIP3     25901    TIP3     H1       HT       0.417000       1.00800           0
     87619 TIP3     25901    TIP3     H2       HT       0.417000       1.00800           0
     87620 TIP3     25902    TIP3     OH2      OT      -0.834000       15.9994           0
     87621 TIP3     25902    TIP3     H1       HT       0.417000       1.00800           0
     87622 TIP3     25902    TIP3     H2       HT       0.417000       1.00800           0
     87623 TIP3     25903    TIP3     OH2      OT      -0.834000       15.9994           0
     87624 TIP3     25903    TIP3     H1       HT       0.417000       1.00800           0
     87625 TIP3     25903    TIP3     H2       HT       0.417000       1.00800           0
     87626 TIP3     25904    TIP3     OH2      OT      -0.834000       15.9994           0
     87627 TIP3     25904    TIP3     H1       HT       0.417000       1.00800           0
     87628 TIP3     25904    TIP3     H2       HT       0.417000       1.00800           0
     87629 TIP3     25905    TIP3     OH2      OT      -0.834000       15.9994           0
     87630 TIP3     25905    TIP3     H1       HT       0.417000       1.00800           0
     87631 TIP3     25905    TIP3     H2       HT       0.417000       1.00800           0
     87632 TIP3     25906    TIP3     OH2      OT      -0.834000       15.9994           0
     87633 TIP3     25906    TIP3     H1       HT       0.417000       1.00800           0
     87634 TIP3     25906    TIP3     H2       HT       0.417000       1.00800           0
     87635 TIP3     25907    TIP3     OH2      OT      -0.834000       15.9994           0
     87636 TIP3     25907    TIP3     H1       HT       0.417000       1.00800           0
     87637 TIP3     25907    TIP3     H2       HT       0.417000       1.00800           0
     87638 TIP3     25908    TIP3     OH2      OT      -0.834000       15.9994           0
     87639 TIP3     25908    TIP3     H1       HT       0.417000       1.00800           0
     87640 TIP3     25908    TIP3     H2       HT       0.417000       1.00800           0
     87641 TIP3     25909    TIP3     OH2      OT      -0.834000       15.9994           0
     87642 TIP3     25909    TIP3     H1       HT       0.417000       1.00800           0
     87643 TIP3     25909    TIP3     H2       HT       0.417000       1.00800           0
     87644 TIP3     25910    TIP3     OH2      OT      -0.834000       15.9994           0
     87645 TIP3     25910    TIP3     H1       HT       0.417000       1.00800           0
     87646 TIP3     25910    TIP3     H2       HT       0.417000       1.00800           0
     87647 TIP3     25911    TIP3     OH2      OT      -0.834000       15.9994           0
     87648 TIP3     25911    TIP3     H1       HT       0.417000       1.00800           0
     87649 TIP3     25911    TIP3     H2       HT       0.417000       1.00800           0
     87650 TIP3     25912    TIP3     OH2      OT      -0.834000       15.9994           0
     87651 TIP3     25912    TIP3     H1       HT       0.417000       1.00800           0
     87652 TIP3     25912    TIP3     H2       HT       0.417000       1.00800           0
     87653 TIP3     25913    TIP3     OH2      OT      -0.834000       15.9994           0
     87654 TIP3     25913    TIP3     H1       HT       0.417000       1.00800           0
     87655 TIP3     25913    TIP3     H2       HT       0.417000       1.00800           0
     87656 TIP3     25914    TIP3     OH2      OT      -0.834000       15.9994           0
     87657 TIP3     25914    TIP3     H1       HT       0.417000       1.00800           0
     87658 TIP3     25914    TIP3     H2       HT       0.417000       1.00800           0
     87659 TIP3     25915    TIP3     OH2      OT      -0.834000       15.9994           0
     87660 TIP3     25915    TIP3     H1       HT       0.417000       1.00800           0
     87661 TIP3     25915    TIP3     H2       HT       0.417000       1.00800           0
     87662 TIP3     25916    TIP3     OH2      OT      -0.834000       15.9994           0
     87663 TIP3     25916    TIP3     H1       HT       0.417000       1.00800           0
     87664 TIP3     25916    TIP3     H2       HT       0.417000       1.00800           0
     87665 TIP3     25917    TIP3     OH2      OT      -0.834000       15.9994           0
     87666 TIP3     25917    TIP3     H1       HT       0.417000       1.00800           0
     87667 TIP3     25917    TIP3     H2       HT       0.417000       1.00800           0
     87668 TIP3     25918    TIP3     OH2      OT      -0.834000       15.9994           0
     87669 TIP3     25918    TIP3     H1       HT       0.417000       1.00800           0
     87670 TIP3     25918    TIP3     H2       HT       0.417000       1.00800           0
     87671 TIP3     25919    TIP3     OH2      OT      -0.834000       15.9994           0
     87672 TIP3     25919    TIP3     H1       HT       0.417000       1.00800           0
     87673 TIP3     25919    TIP3     H2       HT       0.417000       1.00800           0
     87674 TIP3     25920    TIP3     OH2      OT      -0.834000       15.9994           0
     87675 TIP3     25920    TIP3     H1       HT       0.417000       1.00800           0
     87676 TIP3     25920    TIP3     H2       HT       0.417000       1.00800           0
     87677 TIP3     25921    TIP3     OH2      OT      -0.834000       15.9994           0
     87678 TIP3     25921    TIP3     H1       HT       0.417000       1.00800           0
     87679 TIP3     25921    TIP3     H2       HT       0.417000       1.00800           0
     87680 TIP3     25922    TIP3     OH2      OT      -0.834000       15.9994           0
     87681 TIP3     25922    TIP3     H1       HT       0.417000       1.00800           0
     87682 TIP3     25922    TIP3     H2       HT       0.417000       1.00800           0
     87683 TIP3     25923    TIP3     OH2      OT      -0.834000       15.9994           0
     87684 TIP3     25923    TIP3     H1       HT       0.417000       1.00800           0
     87685 TIP3     25923    TIP3     H2       HT       0.417000       1.00800           0
     87686 TIP3     25924    TIP3     OH2      OT      -0.834000       15.9994           0
     87687 TIP3     25924    TIP3     H1       HT       0.417000       1.00800           0
     87688 TIP3     25924    TIP3     H2       HT       0.417000       1.00800           0
     87689 TIP3     25925    TIP3     OH2      OT      -0.834000       15.9994           0
     87690 TIP3     25925    TIP3     H1       HT       0.417000       1.00800           0
     87691 TIP3     25925    TIP3     H2       HT       0.417000       1.00800           0
     87692 TIP3     25926    TIP3     OH2      OT      -0.834000       15.9994           0
     87693 TIP3     25926    TIP3     H1       HT       0.417000       1.00800           0
     87694 TIP3     25926    TIP3     H2       HT       0.417000       1.00800           0
     87695 TIP3     25927    TIP3     OH2      OT      -0.834000       15.9994           0
     87696 TIP3     25927    TIP3     H1       HT       0.417000       1.00800           0
     87697 TIP3     25927    TIP3     H2       HT       0.417000       1.00800           0
     87698 TIP3     25928    TIP3     OH2      OT      -0.834000       15.9994           0
     87699 TIP3     25928    TIP3     H1       HT       0.417000       1.00800           0
     87700 TIP3     25928    TIP3     H2       HT       0.417000       1.00800           0
     87701 TIP3     25929    TIP3     OH2      OT      -0.834000       15.9994           0
     87702 TIP3     25929    TIP3     H1       HT       0.417000       1.00800           0
     87703 TIP3     25929    TIP3     H2       HT       0.417000       1.00800           0
     87704 TIP3     25930    TIP3     OH2      OT      -0.834000       15.9994           0
     87705 TIP3     25930    TIP3     H1       HT       0.417000       1.00800           0
     87706 TIP3     25930    TIP3     H2       HT       0.417000       1.00800           0
     87707 TIP3     25931    TIP3     OH2      OT      -0.834000       15.9994           0
     87708 TIP3     25931    TIP3     H1       HT       0.417000       1.00800           0
     87709 TIP3     25931    TIP3     H2       HT       0.417000       1.00800           0
     87710 TIP3     25932    TIP3     OH2      OT      -0.834000       15.9994           0
     87711 TIP3     25932    TIP3     H1       HT       0.417000       1.00800           0
     87712 TIP3     25932    TIP3     H2       HT       0.417000       1.00800           0
     87713 TIP3     25933    TIP3     OH2      OT      -0.834000       15.9994           0
     87714 TIP3     25933    TIP3     H1       HT       0.417000       1.00800           0
     87715 TIP3     25933    TIP3     H2       HT       0.417000       1.00800           0
     87716 TIP3     25934    TIP3     OH2      OT      -0.834000       15.9994           0
     87717 TIP3     25934    TIP3     H1       HT       0.417000       1.00800           0
     87718 TIP3     25934    TIP3     H2       HT       0.417000       1.00800           0
     87719 TIP3     25935    TIP3     OH2      OT      -0.834000       15.9994           0
     87720 TIP3     25935    TIP3     H1       HT       0.417000       1.00800           0
     87721 TIP3     25935    TIP3     H2       HT       0.417000       1.00800           0
     87722 TIP3     25936    TIP3     OH2      OT      -0.834000       15.9994           0
     87723 TIP3     25936    TIP3     H1       HT       0.417000       1.00800           0
     87724 TIP3     25936    TIP3     H2       HT       0.417000       1.00800           0
     87725 TIP3     25937    TIP3     OH2      OT      -0.834000       15.9994           0
     87726 TIP3     25937    TIP3     H1       HT       0.417000       1.00800           0
     87727 TIP3     25937    TIP3     H2       HT       0.417000       1.00800           0
     87728 TIP3     25938    TIP3     OH2      OT      -0.834000       15.9994           0
     87729 TIP3     25938    TIP3     H1       HT       0.417000       1.00800           0
     87730 TIP3     25938    TIP3     H2       HT       0.417000       1.00800           0
     87731 TIP3     25939    TIP3     OH2      OT      -0.834000       15.9994           0
     87732 TIP3     25939    TIP3     H1       HT       0.417000       1.00800           0
     87733 TIP3     25939    TIP3     H2       HT       0.417000       1.00800           0
     87734 TIP3     25940    TIP3     OH2      OT      -0.834000       15.9994           0
     87735 TIP3     25940    TIP3     H1       HT       0.417000       1.00800           0
     87736 TIP3     25940    TIP3     H2       HT       0.417000       1.00800           0
     87737 TIP3     25941    TIP3     OH2      OT      -0.834000       15.9994           0
     87738 TIP3     25941    TIP3     H1       HT       0.417000       1.00800           0
     87739 TIP3     25941    TIP3     H2       HT       0.417000       1.00800           0
     87740 TIP3     25942    TIP3     OH2      OT      -0.834000       15.9994           0
     87741 TIP3     25942    TIP3     H1       HT       0.417000       1.00800           0
     87742 TIP3     25942    TIP3     H2       HT       0.417000       1.00800           0
     87743 TIP3     25943    TIP3     OH2      OT      -0.834000       15.9994           0
     87744 TIP3     25943    TIP3     H1       HT       0.417000       1.00800           0
     87745 TIP3     25943    TIP3     H2       HT       0.417000       1.00800           0
     87746 TIP3     25944    TIP3     OH2      OT      -0.834000       15.9994           0
     87747 TIP3     25944    TIP3     H1       HT       0.417000       1.00800           0
     87748 TIP3     25944    TIP3     H2       HT       0.417000       1.00800           0
     87749 TIP3     25945    TIP3     OH2      OT      -0.834000       15.9994           0
     87750 TIP3     25945    TIP3     H1       HT       0.417000       1.00800           0
     87751 TIP3     25945    TIP3     H2       HT       0.417000       1.00800           0
     87752 TIP3     25946    TIP3     OH2      OT      -0.834000       15.9994           0
     87753 TIP3     25946    TIP3     H1       HT       0.417000       1.00800           0
     87754 TIP3     25946    TIP3     H2       HT       0.417000       1.00800           0
     87755 TIP3     25947    TIP3     OH2      OT      -0.834000       15.9994           0
     87756 TIP3     25947    TIP3     H1       HT       0.417000       1.00800           0
     87757 TIP3     25947    TIP3     H2       HT       0.417000       1.00800           0
     87758 TIP3     25948    TIP3     OH2      OT      -0.834000       15.9994           0
     87759 TIP3     25948    TIP3     H1       HT       0.417000       1.00800           0
     87760 TIP3     25948    TIP3     H2       HT       0.417000       1.00800           0
     87761 TIP3     25949    TIP3     OH2      OT      -0.834000       15.9994           0
     87762 TIP3     25949    TIP3     H1       HT       0.417000       1.00800           0
     87763 TIP3     25949    TIP3     H2       HT       0.417000       1.00800           0
     87764 TIP3     25950    TIP3     OH2      OT      -0.834000       15.9994           0
     87765 TIP3     25950    TIP3     H1       HT       0.417000       1.00800           0
     87766 TIP3     25950    TIP3     H2       HT       0.417000       1.00800           0
     87767 TIP3     25951    TIP3     OH2      OT      -0.834000       15.9994           0
     87768 TIP3     25951    TIP3     H1       HT       0.417000       1.00800           0
     87769 TIP3     25951    TIP3     H2       HT       0.417000       1.00800           0
     87770 TIP3     25952    TIP3     OH2      OT      -0.834000       15.9994           0
     87771 TIP3     25952    TIP3     H1       HT       0.417000       1.00800           0
     87772 TIP3     25952    TIP3     H2       HT       0.417000       1.00800           0
     87773 TIP3     25953    TIP3     OH2      OT      -0.834000       15.9994           0
     87774 TIP3     25953    TIP3     H1       HT       0.417000       1.00800           0
     87775 TIP3     25953    TIP3     H2       HT       0.417000       1.00800           0
     87776 TIP3     25954    TIP3     OH2      OT      -0.834000       15.9994           0
     87777 TIP3     25954    TIP3     H1       HT       0.417000       1.00800           0
     87778 TIP3     25954    TIP3     H2       HT       0.417000       1.00800           0
     87779 TIP3     25955    TIP3     OH2      OT      -0.834000       15.9994           0
     87780 TIP3     25955    TIP3     H1       HT       0.417000       1.00800           0
     87781 TIP3     25955    TIP3     H2       HT       0.417000       1.00800           0
     87782 TIP3     25956    TIP3     OH2      OT      -0.834000       15.9994           0
     87783 TIP3     25956    TIP3     H1       HT       0.417000       1.00800           0
     87784 TIP3     25956    TIP3     H2       HT       0.417000       1.00800           0
     87785 TIP3     25957    TIP3     OH2      OT      -0.834000       15.9994           0
     87786 TIP3     25957    TIP3     H1       HT       0.417000       1.00800           0
     87787 TIP3     25957    TIP3     H2       HT       0.417000       1.00800           0
     87788 TIP3     25958    TIP3     OH2      OT      -0.834000       15.9994           0
     87789 TIP3     25958    TIP3     H1       HT       0.417000       1.00800           0
     87790 TIP3     25958    TIP3     H2       HT       0.417000       1.00800           0
     87791 TIP3     25959    TIP3     OH2      OT      -0.834000       15.9994           0
     87792 TIP3     25959    TIP3     H1       HT       0.417000       1.00800           0
     87793 TIP3     25959    TIP3     H2       HT       0.417000       1.00800           0
     87794 TIP3     25960    TIP3     OH2      OT      -0.834000       15.9994           0
     87795 TIP3     25960    TIP3     H1       HT       0.417000       1.00800           0
     87796 TIP3     25960    TIP3     H2       HT       0.417000       1.00800           0
     87797 TIP3     25961    TIP3     OH2      OT      -0.834000       15.9994           0
     87798 TIP3     25961    TIP3     H1       HT       0.417000       1.00800           0
     87799 TIP3     25961    TIP3     H2       HT       0.417000       1.00800           0
     87800 TIP3     25962    TIP3     OH2      OT      -0.834000       15.9994           0
     87801 TIP3     25962    TIP3     H1       HT       0.417000       1.00800           0
     87802 TIP3     25962    TIP3     H2       HT       0.417000       1.00800           0
     87803 TIP3     25963    TIP3     OH2      OT      -0.834000       15.9994           0
     87804 TIP3     25963    TIP3     H1       HT       0.417000       1.00800           0
     87805 TIP3     25963    TIP3     H2       HT       0.417000       1.00800           0
     87806 TIP3     25964    TIP3     OH2      OT      -0.834000       15.9994           0
     87807 TIP3     25964    TIP3     H1       HT       0.417000       1.00800           0
     87808 TIP3     25964    TIP3     H2       HT       0.417000       1.00800           0
     87809 TIP3     25965    TIP3     OH2      OT      -0.834000       15.9994           0
     87810 TIP3     25965    TIP3     H1       HT       0.417000       1.00800           0
     87811 TIP3     25965    TIP3     H2       HT       0.417000       1.00800           0
     87812 TIP3     25966    TIP3     OH2      OT      -0.834000       15.9994           0
     87813 TIP3     25966    TIP3     H1       HT       0.417000       1.00800           0
     87814 TIP3     25966    TIP3     H2       HT       0.417000       1.00800           0
     87815 TIP3     25967    TIP3     OH2      OT      -0.834000       15.9994           0
     87816 TIP3     25967    TIP3     H1       HT       0.417000       1.00800           0
     87817 TIP3     25967    TIP3     H2       HT       0.417000       1.00800           0
     87818 TIP3     25968    TIP3     OH2      OT      -0.834000       15.9994           0
     87819 TIP3     25968    TIP3     H1       HT       0.417000       1.00800           0
     87820 TIP3     25968    TIP3     H2       HT       0.417000       1.00800           0
     87821 TIP3     25969    TIP3     OH2      OT      -0.834000       15.9994           0
     87822 TIP3     25969    TIP3     H1       HT       0.417000       1.00800           0
     87823 TIP3     25969    TIP3     H2       HT       0.417000       1.00800           0
     87824 TIP3     25970    TIP3     OH2      OT      -0.834000       15.9994           0
     87825 TIP3     25970    TIP3     H1       HT       0.417000       1.00800           0
     87826 TIP3     25970    TIP3     H2       HT       0.417000       1.00800           0
     87827 TIP3     25971    TIP3     OH2      OT      -0.834000       15.9994           0
     87828 TIP3     25971    TIP3     H1       HT       0.417000       1.00800           0
     87829 TIP3     25971    TIP3     H2       HT       0.417000       1.00800           0
     87830 TIP3     25972    TIP3     OH2      OT      -0.834000       15.9994           0
     87831 TIP3     25972    TIP3     H1       HT       0.417000       1.00800           0
     87832 TIP3     25972    TIP3     H2       HT       0.417000       1.00800           0
     87833 TIP3     25973    TIP3     OH2      OT      -0.834000       15.9994           0
     87834 TIP3     25973    TIP3     H1       HT       0.417000       1.00800           0
     87835 TIP3     25973    TIP3     H2       HT       0.417000       1.00800           0
     87836 TIP3     25974    TIP3     OH2      OT      -0.834000       15.9994           0
     87837 TIP3     25974    TIP3     H1       HT       0.417000       1.00800           0
     87838 TIP3     25974    TIP3     H2       HT       0.417000       1.00800           0
     87839 TIP3     25975    TIP3     OH2      OT      -0.834000       15.9994           0
     87840 TIP3     25975    TIP3     H1       HT       0.417000       1.00800           0
     87841 TIP3     25975    TIP3     H2       HT       0.417000       1.00800           0
     87842 TIP3     25976    TIP3     OH2      OT      -0.834000       15.9994           0
     87843 TIP3     25976    TIP3     H1       HT       0.417000       1.00800           0
     87844 TIP3     25976    TIP3     H2       HT       0.417000       1.00800           0
     87845 TIP3     25977    TIP3     OH2      OT      -0.834000       15.9994           0
     87846 TIP3     25977    TIP3     H1       HT       0.417000       1.00800           0
     87847 TIP3     25977    TIP3     H2       HT       0.417000       1.00800           0
     87848 TIP3     25978    TIP3     OH2      OT      -0.834000       15.9994           0
     87849 TIP3     25978    TIP3     H1       HT       0.417000       1.00800           0
     87850 TIP3     25978    TIP3     H2       HT       0.417000       1.00800           0
     87851 TIP3     25979    TIP3     OH2      OT      -0.834000       15.9994           0
     87852 TIP3     25979    TIP3     H1       HT       0.417000       1.00800           0
     87853 TIP3     25979    TIP3     H2       HT       0.417000       1.00800           0
     87854 TIP3     25980    TIP3     OH2      OT      -0.834000       15.9994           0
     87855 TIP3     25980    TIP3     H1       HT       0.417000       1.00800           0
     87856 TIP3     25980    TIP3     H2       HT       0.417000       1.00800           0
     87857 TIP3     25981    TIP3     OH2      OT      -0.834000       15.9994           0
     87858 TIP3     25981    TIP3     H1       HT       0.417000       1.00800           0
     87859 TIP3     25981    TIP3     H2       HT       0.417000       1.00800           0
     87860 TIP3     25982    TIP3     OH2      OT      -0.834000       15.9994           0
     87861 TIP3     25982    TIP3     H1       HT       0.417000       1.00800           0
     87862 TIP3     25982    TIP3     H2       HT       0.417000       1.00800           0
     87863 TIP3     25983    TIP3     OH2      OT      -0.834000       15.9994           0
     87864 TIP3     25983    TIP3     H1       HT       0.417000       1.00800           0
     87865 TIP3     25983    TIP3     H2       HT       0.417000       1.00800           0
     87866 TIP3     25984    TIP3     OH2      OT      -0.834000       15.9994           0
     87867 TIP3     25984    TIP3     H1       HT       0.417000       1.00800           0
     87868 TIP3     25984    TIP3     H2       HT       0.417000       1.00800           0
     87869 TIP3     25985    TIP3     OH2      OT      -0.834000       15.9994           0
     87870 TIP3     25985    TIP3     H1       HT       0.417000       1.00800           0
     87871 TIP3     25985    TIP3     H2       HT       0.417000       1.00800           0
     87872 TIP3     25986    TIP3     OH2      OT      -0.834000       15.9994           0
     87873 TIP3     25986    TIP3     H1       HT       0.417000       1.00800           0
     87874 TIP3     25986    TIP3     H2       HT       0.417000       1.00800           0
     87875 TIP3     25987    TIP3     OH2      OT      -0.834000       15.9994           0
     87876 TIP3     25987    TIP3     H1       HT       0.417000       1.00800           0
     87877 TIP3     25987    TIP3     H2       HT       0.417000       1.00800           0
     87878 TIP3     25988    TIP3     OH2      OT      -0.834000       15.9994           0
     87879 TIP3     25988    TIP3     H1       HT       0.417000       1.00800           0
     87880 TIP3     25988    TIP3     H2       HT       0.417000       1.00800           0
     87881 TIP3     25989    TIP3     OH2      OT      -0.834000       15.9994           0
     87882 TIP3     25989    TIP3     H1       HT       0.417000       1.00800           0
     87883 TIP3     25989    TIP3     H2       HT       0.417000       1.00800           0
     87884 TIP3     25990    TIP3     OH2      OT      -0.834000       15.9994           0
     87885 TIP3     25990    TIP3     H1       HT       0.417000       1.00800           0
     87886 TIP3     25990    TIP3     H2       HT       0.417000       1.00800           0
     87887 TIP3     25991    TIP3     OH2      OT      -0.834000       15.9994           0
     87888 TIP3     25991    TIP3     H1       HT       0.417000       1.00800           0
     87889 TIP3     25991    TIP3     H2       HT       0.417000       1.00800           0
     87890 TIP3     25992    TIP3     OH2      OT      -0.834000       15.9994           0
     87891 TIP3     25992    TIP3     H1       HT       0.417000       1.00800           0
     87892 TIP3     25992    TIP3     H2       HT       0.417000       1.00800           0
     87893 TIP3     25993    TIP3     OH2      OT      -0.834000       15.9994           0
     87894 TIP3     25993    TIP3     H1       HT       0.417000       1.00800           0
     87895 TIP3     25993    TIP3     H2       HT       0.417000       1.00800           0
     87896 TIP3     25994    TIP3     OH2      OT      -0.834000       15.9994           0
     87897 TIP3     25994    TIP3     H1       HT       0.417000       1.00800           0
     87898 TIP3     25994    TIP3     H2       HT       0.417000       1.00800           0
     87899 TIP3     25995    TIP3     OH2      OT      -0.834000       15.9994           0
     87900 TIP3     25995    TIP3     H1       HT       0.417000       1.00800           0
     87901 TIP3     25995    TIP3     H2       HT       0.417000       1.00800           0
     87902 TIP3     25996    TIP3     OH2      OT      -0.834000       15.9994           0
     87903 TIP3     25996    TIP3     H1       HT       0.417000       1.00800           0
     87904 TIP3     25996    TIP3     H2       HT       0.417000       1.00800           0
     87905 TIP3     25997    TIP3     OH2      OT      -0.834000       15.9994           0
     87906 TIP3     25997    TIP3     H1       HT       0.417000       1.00800           0
     87907 TIP3     25997    TIP3     H2       HT       0.417000       1.00800           0
     87908 TIP3     25998    TIP3     OH2      OT      -0.834000       15.9994           0
     87909 TIP3     25998    TIP3     H1       HT       0.417000       1.00800           0
     87910 TIP3     25998    TIP3     H2       HT       0.417000       1.00800           0
     87911 TIP3     25999    TIP3     OH2      OT      -0.834000       15.9994           0
     87912 TIP3     25999    TIP3     H1       HT       0.417000       1.00800           0
     87913 TIP3     25999    TIP3     H2       HT       0.417000       1.00800           0
     87914 TIP3     26000    TIP3     OH2      OT      -0.834000       15.9994           0
     87915 TIP3     26000    TIP3     H1       HT       0.417000       1.00800           0
     87916 TIP3     26000    TIP3     H2       HT       0.417000       1.00800           0
     87917 TIP3     26001    TIP3     OH2      OT      -0.834000       15.9994           0
     87918 TIP3     26001    TIP3     H1       HT       0.417000       1.00800           0
     87919 TIP3     26001    TIP3     H2       HT       0.417000       1.00800           0
     87920 TIP3     26002    TIP3     OH2      OT      -0.834000       15.9994           0
     87921 TIP3     26002    TIP3     H1       HT       0.417000       1.00800           0
     87922 TIP3     26002    TIP3     H2       HT       0.417000       1.00800           0
     87923 TIP3     26003    TIP3     OH2      OT      -0.834000       15.9994           0
     87924 TIP3     26003    TIP3     H1       HT       0.417000       1.00800           0
     87925 TIP3     26003    TIP3     H2       HT       0.417000       1.00800           0
     87926 TIP3     26004    TIP3     OH2      OT      -0.834000       15.9994           0
     87927 TIP3     26004    TIP3     H1       HT       0.417000       1.00800           0
     87928 TIP3     26004    TIP3     H2       HT       0.417000       1.00800           0
     87929 TIP3     26005    TIP3     OH2      OT      -0.834000       15.9994           0
     87930 TIP3     26005    TIP3     H1       HT       0.417000       1.00800           0
     87931 TIP3     26005    TIP3     H2       HT       0.417000       1.00800           0
     87932 TIP3     26006    TIP3     OH2      OT      -0.834000       15.9994           0
     87933 TIP3     26006    TIP3     H1       HT       0.417000       1.00800           0
     87934 TIP3     26006    TIP3     H2       HT       0.417000       1.00800           0
     87935 TIP3     26007    TIP3     OH2      OT      -0.834000       15.9994           0
     87936 TIP3     26007    TIP3     H1       HT       0.417000       1.00800           0
     87937 TIP3     26007    TIP3     H2       HT       0.417000       1.00800           0
     87938 TIP3     26008    TIP3     OH2      OT      -0.834000       15.9994           0
     87939 TIP3     26008    TIP3     H1       HT       0.417000       1.00800           0
     87940 TIP3     26008    TIP3     H2       HT       0.417000       1.00800           0
     87941 TIP3     26009    TIP3     OH2      OT      -0.834000       15.9994           0
     87942 TIP3     26009    TIP3     H1       HT       0.417000       1.00800           0
     87943 TIP3     26009    TIP3     H2       HT       0.417000       1.00800           0
     87944 TIP3     26010    TIP3     OH2      OT      -0.834000       15.9994           0
     87945 TIP3     26010    TIP3     H1       HT       0.417000       1.00800           0
     87946 TIP3     26010    TIP3     H2       HT       0.417000       1.00800           0
     87947 TIP3     26011    TIP3     OH2      OT      -0.834000       15.9994           0
     87948 TIP3     26011    TIP3     H1       HT       0.417000       1.00800           0
     87949 TIP3     26011    TIP3     H2       HT       0.417000       1.00800           0
     87950 TIP3     26012    TIP3     OH2      OT      -0.834000       15.9994           0
     87951 TIP3     26012    TIP3     H1       HT       0.417000       1.00800           0
     87952 TIP3     26012    TIP3     H2       HT       0.417000       1.00800           0
     87953 TIP3     26013    TIP3     OH2      OT      -0.834000       15.9994           0
     87954 TIP3     26013    TIP3     H1       HT       0.417000       1.00800           0
     87955 TIP3     26013    TIP3     H2       HT       0.417000       1.00800           0
     87956 TIP3     26014    TIP3     OH2      OT      -0.834000       15.9994           0
     87957 TIP3     26014    TIP3     H1       HT       0.417000       1.00800           0
     87958 TIP3     26014    TIP3     H2       HT       0.417000       1.00800           0
     87959 TIP3     26015    TIP3     OH2      OT      -0.834000       15.9994           0
     87960 TIP3     26015    TIP3     H1       HT       0.417000       1.00800           0
     87961 TIP3     26015    TIP3     H2       HT       0.417000       1.00800           0
     87962 TIP3     26016    TIP3     OH2      OT      -0.834000       15.9994           0
     87963 TIP3     26016    TIP3     H1       HT       0.417000       1.00800           0
     87964 TIP3     26016    TIP3     H2       HT       0.417000       1.00800           0
     87965 TIP3     26017    TIP3     OH2      OT      -0.834000       15.9994           0
     87966 TIP3     26017    TIP3     H1       HT       0.417000       1.00800           0
     87967 TIP3     26017    TIP3     H2       HT       0.417000       1.00800           0
     87968 TIP3     26018    TIP3     OH2      OT      -0.834000       15.9994           0
     87969 TIP3     26018    TIP3     H1       HT       0.417000       1.00800           0
     87970 TIP3     26018    TIP3     H2       HT       0.417000       1.00800           0
     87971 TIP3     26019    TIP3     OH2      OT      -0.834000       15.9994           0
     87972 TIP3     26019    TIP3     H1       HT       0.417000       1.00800           0
     87973 TIP3     26019    TIP3     H2       HT       0.417000       1.00800           0
     87974 TIP3     26020    TIP3     OH2      OT      -0.834000       15.9994           0
     87975 TIP3     26020    TIP3     H1       HT       0.417000       1.00800           0
     87976 TIP3     26020    TIP3     H2       HT       0.417000       1.00800           0
     87977 TIP3     26021    TIP3     OH2      OT      -0.834000       15.9994           0
     87978 TIP3     26021    TIP3     H1       HT       0.417000       1.00800           0
     87979 TIP3     26021    TIP3     H2       HT       0.417000       1.00800           0
     87980 TIP3     26022    TIP3     OH2      OT      -0.834000       15.9994           0
     87981 TIP3     26022    TIP3     H1       HT       0.417000       1.00800           0
     87982 TIP3     26022    TIP3     H2       HT       0.417000       1.00800           0
     87983 TIP3     26023    TIP3     OH2      OT      -0.834000       15.9994           0
     87984 TIP3     26023    TIP3     H1       HT       0.417000       1.00800           0
     87985 TIP3     26023    TIP3     H2       HT       0.417000       1.00800           0
     87986 TIP3     26024    TIP3     OH2      OT      -0.834000       15.9994           0
     87987 TIP3     26024    TIP3     H1       HT       0.417000       1.00800           0
     87988 TIP3     26024    TIP3     H2       HT       0.417000       1.00800           0
     87989 TIP3     26025    TIP3     OH2      OT      -0.834000       15.9994           0
     87990 TIP3     26025    TIP3     H1       HT       0.417000       1.00800           0
     87991 TIP3     26025    TIP3     H2       HT       0.417000       1.00800           0
     87992 TIP3     26026    TIP3     OH2      OT      -0.834000       15.9994           0
     87993 TIP3     26026    TIP3     H1       HT       0.417000       1.00800           0
     87994 TIP3     26026    TIP3     H2       HT       0.417000       1.00800           0
     87995 TIP3     26027    TIP3     OH2      OT      -0.834000       15.9994           0
     87996 TIP3     26027    TIP3     H1       HT       0.417000       1.00800           0
     87997 TIP3     26027    TIP3     H2       HT       0.417000       1.00800           0
     87998 TIP3     26028    TIP3     OH2      OT      -0.834000       15.9994           0
     87999 TIP3     26028    TIP3     H1       HT       0.417000       1.00800           0
     88000 TIP3     26028    TIP3     H2       HT       0.417000       1.00800           0
     88001 TIP3     26029    TIP3     OH2      OT      -0.834000       15.9994           0
     88002 TIP3     26029    TIP3     H1       HT       0.417000       1.00800           0
     88003 TIP3     26029    TIP3     H2       HT       0.417000       1.00800           0
     88004 TIP3     26030    TIP3     OH2      OT      -0.834000       15.9994           0
     88005 TIP3     26030    TIP3     H1       HT       0.417000       1.00800           0
     88006 TIP3     26030    TIP3     H2       HT       0.417000       1.00800           0
     88007 TIP3     26031    TIP3     OH2      OT      -0.834000       15.9994           0
     88008 TIP3     26031    TIP3     H1       HT       0.417000       1.00800           0
     88009 TIP3     26031    TIP3     H2       HT       0.417000       1.00800           0
     88010 TIP3     26032    TIP3     OH2      OT      -0.834000       15.9994           0
     88011 TIP3     26032    TIP3     H1       HT       0.417000       1.00800           0
     88012 TIP3     26032    TIP3     H2       HT       0.417000       1.00800           0
     88013 TIP3     26033    TIP3     OH2      OT      -0.834000       15.9994           0
     88014 TIP3     26033    TIP3     H1       HT       0.417000       1.00800           0
     88015 TIP3     26033    TIP3     H2       HT       0.417000       1.00800           0
     88016 TIP3     26034    TIP3     OH2      OT      -0.834000       15.9994           0
     88017 TIP3     26034    TIP3     H1       HT       0.417000       1.00800           0
     88018 TIP3     26034    TIP3     H2       HT       0.417000       1.00800           0
     88019 TIP3     26035    TIP3     OH2      OT      -0.834000       15.9994           0
     88020 TIP3     26035    TIP3     H1       HT       0.417000       1.00800           0
     88021 TIP3     26035    TIP3     H2       HT       0.417000       1.00800           0
     88022 TIP3     26036    TIP3     OH2      OT      -0.834000       15.9994           0
     88023 TIP3     26036    TIP3     H1       HT       0.417000       1.00800           0
     88024 TIP3     26036    TIP3     H2       HT       0.417000       1.00800           0
     88025 TIP3     26037    TIP3     OH2      OT      -0.834000       15.9994           0
     88026 TIP3     26037    TIP3     H1       HT       0.417000       1.00800           0
     88027 TIP3     26037    TIP3     H2       HT       0.417000       1.00800           0
     88028 TIP3     26038    TIP3     OH2      OT      -0.834000       15.9994           0
     88029 TIP3     26038    TIP3     H1       HT       0.417000       1.00800           0
     88030 TIP3     26038    TIP3     H2       HT       0.417000       1.00800           0
     88031 TIP3     26039    TIP3     OH2      OT      -0.834000       15.9994           0
     88032 TIP3     26039    TIP3     H1       HT       0.417000       1.00800           0
     88033 TIP3     26039    TIP3     H2       HT       0.417000       1.00800           0
     88034 TIP3     26040    TIP3     OH2      OT      -0.834000       15.9994           0
     88035 TIP3     26040    TIP3     H1       HT       0.417000       1.00800           0
     88036 TIP3     26040    TIP3     H2       HT       0.417000       1.00800           0
     88037 TIP3     26041    TIP3     OH2      OT      -0.834000       15.9994           0
     88038 TIP3     26041    TIP3     H1       HT       0.417000       1.00800           0
     88039 TIP3     26041    TIP3     H2       HT       0.417000       1.00800           0
     88040 TIP3     26042    TIP3     OH2      OT      -0.834000       15.9994           0
     88041 TIP3     26042    TIP3     H1       HT       0.417000       1.00800           0
     88042 TIP3     26042    TIP3     H2       HT       0.417000       1.00800           0
     88043 TIP3     26043    TIP3     OH2      OT      -0.834000       15.9994           0
     88044 TIP3     26043    TIP3     H1       HT       0.417000       1.00800           0
     88045 TIP3     26043    TIP3     H2       HT       0.417000       1.00800           0
     88046 TIP3     26044    TIP3     OH2      OT      -0.834000       15.9994           0
     88047 TIP3     26044    TIP3     H1       HT       0.417000       1.00800           0
     88048 TIP3     26044    TIP3     H2       HT       0.417000       1.00800           0
     88049 TIP3     26045    TIP3     OH2      OT      -0.834000       15.9994           0
     88050 TIP3     26045    TIP3     H1       HT       0.417000       1.00800           0
     88051 TIP3     26045    TIP3     H2       HT       0.417000       1.00800           0
     88052 TIP3     26046    TIP3     OH2      OT      -0.834000       15.9994           0
     88053 TIP3     26046    TIP3     H1       HT       0.417000       1.00800           0
     88054 TIP3     26046    TIP3     H2       HT       0.417000       1.00800           0
     88055 TIP3     26047    TIP3     OH2      OT      -0.834000       15.9994           0
     88056 TIP3     26047    TIP3     H1       HT       0.417000       1.00800           0
     88057 TIP3     26047    TIP3     H2       HT       0.417000       1.00800           0
     88058 TIP3     26048    TIP3     OH2      OT      -0.834000       15.9994           0
     88059 TIP3     26048    TIP3     H1       HT       0.417000       1.00800           0
     88060 TIP3     26048    TIP3     H2       HT       0.417000       1.00800           0
     88061 TIP3     26049    TIP3     OH2      OT      -0.834000       15.9994           0
     88062 TIP3     26049    TIP3     H1       HT       0.417000       1.00800           0
     88063 TIP3     26049    TIP3     H2       HT       0.417000       1.00800           0
     88064 TIP3     26050    TIP3     OH2      OT      -0.834000       15.9994           0
     88065 TIP3     26050    TIP3     H1       HT       0.417000       1.00800           0
     88066 TIP3     26050    TIP3     H2       HT       0.417000       1.00800           0
     88067 TIP3     26051    TIP3     OH2      OT      -0.834000       15.9994           0
     88068 TIP3     26051    TIP3     H1       HT       0.417000       1.00800           0
     88069 TIP3     26051    TIP3     H2       HT       0.417000       1.00800           0
     88070 TIP3     26052    TIP3     OH2      OT      -0.834000       15.9994           0
     88071 TIP3     26052    TIP3     H1       HT       0.417000       1.00800           0
     88072 TIP3     26052    TIP3     H2       HT       0.417000       1.00800           0
     88073 TIP3     26053    TIP3     OH2      OT      -0.834000       15.9994           0
     88074 TIP3     26053    TIP3     H1       HT       0.417000       1.00800           0
     88075 TIP3     26053    TIP3     H2       HT       0.417000       1.00800           0
     88076 TIP3     26054    TIP3     OH2      OT      -0.834000       15.9994           0
     88077 TIP3     26054    TIP3     H1       HT       0.417000       1.00800           0
     88078 TIP3     26054    TIP3     H2       HT       0.417000       1.00800           0
     88079 TIP3     26055    TIP3     OH2      OT      -0.834000       15.9994           0
     88080 TIP3     26055    TIP3     H1       HT       0.417000       1.00800           0
     88081 TIP3     26055    TIP3     H2       HT       0.417000       1.00800           0
     88082 TIP3     26056    TIP3     OH2      OT      -0.834000       15.9994           0
     88083 TIP3     26056    TIP3     H1       HT       0.417000       1.00800           0
     88084 TIP3     26056    TIP3     H2       HT       0.417000       1.00800           0
     88085 TIP3     26057    TIP3     OH2      OT      -0.834000       15.9994           0
     88086 TIP3     26057    TIP3     H1       HT       0.417000       1.00800           0
     88087 TIP3     26057    TIP3     H2       HT       0.417000       1.00800           0
     88088 TIP3     26058    TIP3     OH2      OT      -0.834000       15.9994           0
     88089 TIP3     26058    TIP3     H1       HT       0.417000       1.00800           0
     88090 TIP3     26058    TIP3     H2       HT       0.417000       1.00800           0
     88091 TIP3     26059    TIP3     OH2      OT      -0.834000       15.9994           0
     88092 TIP3     26059    TIP3     H1       HT       0.417000       1.00800           0
     88093 TIP3     26059    TIP3     H2       HT       0.417000       1.00800           0
     88094 TIP3     26060    TIP3     OH2      OT      -0.834000       15.9994           0
     88095 TIP3     26060    TIP3     H1       HT       0.417000       1.00800           0
     88096 TIP3     26060    TIP3     H2       HT       0.417000       1.00800           0
     88097 TIP3     26061    TIP3     OH2      OT      -0.834000       15.9994           0
     88098 TIP3     26061    TIP3     H1       HT       0.417000       1.00800           0
     88099 TIP3     26061    TIP3     H2       HT       0.417000       1.00800           0
     88100 TIP3     26062    TIP3     OH2      OT      -0.834000       15.9994           0
     88101 TIP3     26062    TIP3     H1       HT       0.417000       1.00800           0
     88102 TIP3     26062    TIP3     H2       HT       0.417000       1.00800           0
     88103 TIP3     26063    TIP3     OH2      OT      -0.834000       15.9994           0
     88104 TIP3     26063    TIP3     H1       HT       0.417000       1.00800           0
     88105 TIP3     26063    TIP3     H2       HT       0.417000       1.00800           0
     88106 TIP3     26064    TIP3     OH2      OT      -0.834000       15.9994           0
     88107 TIP3     26064    TIP3     H1       HT       0.417000       1.00800           0
     88108 TIP3     26064    TIP3     H2       HT       0.417000       1.00800           0
     88109 TIP3     26065    TIP3     OH2      OT      -0.834000       15.9994           0
     88110 TIP3     26065    TIP3     H1       HT       0.417000       1.00800           0
     88111 TIP3     26065    TIP3     H2       HT       0.417000       1.00800           0
     88112 TIP3     26066    TIP3     OH2      OT      -0.834000       15.9994           0
     88113 TIP3     26066    TIP3     H1       HT       0.417000       1.00800           0
     88114 TIP3     26066    TIP3     H2       HT       0.417000       1.00800           0
     88115 TIP3     26067    TIP3     OH2      OT      -0.834000       15.9994           0
     88116 TIP3     26067    TIP3     H1       HT       0.417000       1.00800           0
     88117 TIP3     26067    TIP3     H2       HT       0.417000       1.00800           0
     88118 TIP3     26068    TIP3     OH2      OT      -0.834000       15.9994           0
     88119 TIP3     26068    TIP3     H1       HT       0.417000       1.00800           0
     88120 TIP3     26068    TIP3     H2       HT       0.417000       1.00800           0
     88121 TIP3     26069    TIP3     OH2      OT      -0.834000       15.9994           0
     88122 TIP3     26069    TIP3     H1       HT       0.417000       1.00800           0
     88123 TIP3     26069    TIP3     H2       HT       0.417000       1.00800           0
     88124 TIP3     26070    TIP3     OH2      OT      -0.834000       15.9994           0
     88125 TIP3     26070    TIP3     H1       HT       0.417000       1.00800           0
     88126 TIP3     26070    TIP3     H2       HT       0.417000       1.00800           0
     88127 TIP3     26071    TIP3     OH2      OT      -0.834000       15.9994           0
     88128 TIP3     26071    TIP3     H1       HT       0.417000       1.00800           0
     88129 TIP3     26071    TIP3     H2       HT       0.417000       1.00800           0
     88130 TIP3     26072    TIP3     OH2      OT      -0.834000       15.9994           0
     88131 TIP3     26072    TIP3     H1       HT       0.417000       1.00800           0
     88132 TIP3     26072    TIP3     H2       HT       0.417000       1.00800           0
     88133 TIP3     26073    TIP3     OH2      OT      -0.834000       15.9994           0
     88134 TIP3     26073    TIP3     H1       HT       0.417000       1.00800           0
     88135 TIP3     26073    TIP3     H2       HT       0.417000       1.00800           0
     88136 TIP3     26074    TIP3     OH2      OT      -0.834000       15.9994           0
     88137 TIP3     26074    TIP3     H1       HT       0.417000       1.00800           0
     88138 TIP3     26074    TIP3     H2       HT       0.417000       1.00800           0
     88139 TIP3     26075    TIP3     OH2      OT      -0.834000       15.9994           0
     88140 TIP3     26075    TIP3     H1       HT       0.417000       1.00800           0
     88141 TIP3     26075    TIP3     H2       HT       0.417000       1.00800           0
     88142 TIP3     26076    TIP3     OH2      OT      -0.834000       15.9994           0
     88143 TIP3     26076    TIP3     H1       HT       0.417000       1.00800           0
     88144 TIP3     26076    TIP3     H2       HT       0.417000       1.00800           0
     88145 TIP3     26077    TIP3     OH2      OT      -0.834000       15.9994           0
     88146 TIP3     26077    TIP3     H1       HT       0.417000       1.00800           0
     88147 TIP3     26077    TIP3     H2       HT       0.417000       1.00800           0
     88148 TIP3     26078    TIP3     OH2      OT      -0.834000       15.9994           0
     88149 TIP3     26078    TIP3     H1       HT       0.417000       1.00800           0
     88150 TIP3     26078    TIP3     H2       HT       0.417000       1.00800           0
     88151 TIP3     26079    TIP3     OH2      OT      -0.834000       15.9994           0
     88152 TIP3     26079    TIP3     H1       HT       0.417000       1.00800           0
     88153 TIP3     26079    TIP3     H2       HT       0.417000       1.00800           0
     88154 TIP3     26080    TIP3     OH2      OT      -0.834000       15.9994           0
     88155 TIP3     26080    TIP3     H1       HT       0.417000       1.00800           0
     88156 TIP3     26080    TIP3     H2       HT       0.417000       1.00800           0
     88157 TIP3     26081    TIP3     OH2      OT      -0.834000       15.9994           0
     88158 TIP3     26081    TIP3     H1       HT       0.417000       1.00800           0
     88159 TIP3     26081    TIP3     H2       HT       0.417000       1.00800           0
     88160 TIP3     26082    TIP3     OH2      OT      -0.834000       15.9994           0
     88161 TIP3     26082    TIP3     H1       HT       0.417000       1.00800           0
     88162 TIP3     26082    TIP3     H2       HT       0.417000       1.00800           0
     88163 TIP3     26083    TIP3     OH2      OT      -0.834000       15.9994           0
     88164 TIP3     26083    TIP3     H1       HT       0.417000       1.00800           0
     88165 TIP3     26083    TIP3     H2       HT       0.417000       1.00800           0
     88166 TIP3     26084    TIP3     OH2      OT      -0.834000       15.9994           0
     88167 TIP3     26084    TIP3     H1       HT       0.417000       1.00800           0
     88168 TIP3     26084    TIP3     H2       HT       0.417000       1.00800           0
     88169 TIP3     26085    TIP3     OH2      OT      -0.834000       15.9994           0
     88170 TIP3     26085    TIP3     H1       HT       0.417000       1.00800           0
     88171 TIP3     26085    TIP3     H2       HT       0.417000       1.00800           0
     88172 TIP3     26086    TIP3     OH2      OT      -0.834000       15.9994           0
     88173 TIP3     26086    TIP3     H1       HT       0.417000       1.00800           0
     88174 TIP3     26086    TIP3     H2       HT       0.417000       1.00800           0
     88175 TIP3     26087    TIP3     OH2      OT      -0.834000       15.9994           0
     88176 TIP3     26087    TIP3     H1       HT       0.417000       1.00800           0
     88177 TIP3     26087    TIP3     H2       HT       0.417000       1.00800           0
     88178 TIP3     26088    TIP3     OH2      OT      -0.834000       15.9994           0
     88179 TIP3     26088    TIP3     H1       HT       0.417000       1.00800           0
     88180 TIP3     26088    TIP3     H2       HT       0.417000       1.00800           0
     88181 TIP3     26089    TIP3     OH2      OT      -0.834000       15.9994           0
     88182 TIP3     26089    TIP3     H1       HT       0.417000       1.00800           0
     88183 TIP3     26089    TIP3     H2       HT       0.417000       1.00800           0
     88184 TIP3     26090    TIP3     OH2      OT      -0.834000       15.9994           0
     88185 TIP3     26090    TIP3     H1       HT       0.417000       1.00800           0
     88186 TIP3     26090    TIP3     H2       HT       0.417000       1.00800           0
     88187 TIP3     26091    TIP3     OH2      OT      -0.834000       15.9994           0
     88188 TIP3     26091    TIP3     H1       HT       0.417000       1.00800           0
     88189 TIP3     26091    TIP3     H2       HT       0.417000       1.00800           0
     88190 TIP3     26092    TIP3     OH2      OT      -0.834000       15.9994           0
     88191 TIP3     26092    TIP3     H1       HT       0.417000       1.00800           0
     88192 TIP3     26092    TIP3     H2       HT       0.417000       1.00800           0
     88193 TIP3     26093    TIP3     OH2      OT      -0.834000       15.9994           0
     88194 TIP3     26093    TIP3     H1       HT       0.417000       1.00800           0
     88195 TIP3     26093    TIP3     H2       HT       0.417000       1.00800           0
     88196 TIP3     26094    TIP3     OH2      OT      -0.834000       15.9994           0
     88197 TIP3     26094    TIP3     H1       HT       0.417000       1.00800           0
     88198 TIP3     26094    TIP3     H2       HT       0.417000       1.00800           0
     88199 TIP3     26095    TIP3     OH2      OT      -0.834000       15.9994           0
     88200 TIP3     26095    TIP3     H1       HT       0.417000       1.00800           0
     88201 TIP3     26095    TIP3     H2       HT       0.417000       1.00800           0
     88202 TIP3     26096    TIP3     OH2      OT      -0.834000       15.9994           0
     88203 TIP3     26096    TIP3     H1       HT       0.417000       1.00800           0
     88204 TIP3     26096    TIP3     H2       HT       0.417000       1.00800           0
     88205 TIP3     26097    TIP3     OH2      OT      -0.834000       15.9994           0
     88206 TIP3     26097    TIP3     H1       HT       0.417000       1.00800           0
     88207 TIP3     26097    TIP3     H2       HT       0.417000       1.00800           0
     88208 TIP3     26098    TIP3     OH2      OT      -0.834000       15.9994           0
     88209 TIP3     26098    TIP3     H1       HT       0.417000       1.00800           0
     88210 TIP3     26098    TIP3     H2       HT       0.417000       1.00800           0
     88211 TIP3     26099    TIP3     OH2      OT      -0.834000       15.9994           0
     88212 TIP3     26099    TIP3     H1       HT       0.417000       1.00800           0
     88213 TIP3     26099    TIP3     H2       HT       0.417000       1.00800           0
     88214 TIP3     26100    TIP3     OH2      OT      -0.834000       15.9994           0
     88215 TIP3     26100    TIP3     H1       HT       0.417000       1.00800           0
     88216 TIP3     26100    TIP3     H2       HT       0.417000       1.00800           0
     88217 TIP3     26101    TIP3     OH2      OT      -0.834000       15.9994           0
     88218 TIP3     26101    TIP3     H1       HT       0.417000       1.00800           0
     88219 TIP3     26101    TIP3     H2       HT       0.417000       1.00800           0
     88220 TIP3     26102    TIP3     OH2      OT      -0.834000       15.9994           0
     88221 TIP3     26102    TIP3     H1       HT       0.417000       1.00800           0
     88222 TIP3     26102    TIP3     H2       HT       0.417000       1.00800           0
     88223 TIP3     26103    TIP3     OH2      OT      -0.834000       15.9994           0
     88224 TIP3     26103    TIP3     H1       HT       0.417000       1.00800           0
     88225 TIP3     26103    TIP3     H2       HT       0.417000       1.00800           0
     88226 TIP3     26104    TIP3     OH2      OT      -0.834000       15.9994           0
     88227 TIP3     26104    TIP3     H1       HT       0.417000       1.00800           0
     88228 TIP3     26104    TIP3     H2       HT       0.417000       1.00800           0
     88229 TIP3     26105    TIP3     OH2      OT      -0.834000       15.9994           0
     88230 TIP3     26105    TIP3     H1       HT       0.417000       1.00800           0
     88231 TIP3     26105    TIP3     H2       HT       0.417000       1.00800           0
     88232 TIP3     26106    TIP3     OH2      OT      -0.834000       15.9994           0
     88233 TIP3     26106    TIP3     H1       HT       0.417000       1.00800           0
     88234 TIP3     26106    TIP3     H2       HT       0.417000       1.00800           0
     88235 TIP3     26107    TIP3     OH2      OT      -0.834000       15.9994           0
     88236 TIP3     26107    TIP3     H1       HT       0.417000       1.00800           0
     88237 TIP3     26107    TIP3     H2       HT       0.417000       1.00800           0
     88238 TIP3     26108    TIP3     OH2      OT      -0.834000       15.9994           0
     88239 TIP3     26108    TIP3     H1       HT       0.417000       1.00800           0
     88240 TIP3     26108    TIP3     H2       HT       0.417000       1.00800           0
     88241 TIP3     26109    TIP3     OH2      OT      -0.834000       15.9994           0
     88242 TIP3     26109    TIP3     H1       HT       0.417000       1.00800           0
     88243 TIP3     26109    TIP3     H2       HT       0.417000       1.00800           0
     88244 TIP3     26110    TIP3     OH2      OT      -0.834000       15.9994           0
     88245 TIP3     26110    TIP3     H1       HT       0.417000       1.00800           0
     88246 TIP3     26110    TIP3     H2       HT       0.417000       1.00800           0
     88247 TIP3     26111    TIP3     OH2      OT      -0.834000       15.9994           0
     88248 TIP3     26111    TIP3     H1       HT       0.417000       1.00800           0
     88249 TIP3     26111    TIP3     H2       HT       0.417000       1.00800           0
     88250 TIP3     26112    TIP3     OH2      OT      -0.834000       15.9994           0
     88251 TIP3     26112    TIP3     H1       HT       0.417000       1.00800           0
     88252 TIP3     26112    TIP3     H2       HT       0.417000       1.00800           0
     88253 TIP3     26113    TIP3     OH2      OT      -0.834000       15.9994           0
     88254 TIP3     26113    TIP3     H1       HT       0.417000       1.00800           0
     88255 TIP3     26113    TIP3     H2       HT       0.417000       1.00800           0
     88256 TIP3     26114    TIP3     OH2      OT      -0.834000       15.9994           0
     88257 TIP3     26114    TIP3     H1       HT       0.417000       1.00800           0
     88258 TIP3     26114    TIP3     H2       HT       0.417000       1.00800           0
     88259 TIP3     26115    TIP3     OH2      OT      -0.834000       15.9994           0
     88260 TIP3     26115    TIP3     H1       HT       0.417000       1.00800           0
     88261 TIP3     26115    TIP3     H2       HT       0.417000       1.00800           0
     88262 TIP3     26116    TIP3     OH2      OT      -0.834000       15.9994           0
     88263 TIP3     26116    TIP3     H1       HT       0.417000       1.00800           0
     88264 TIP3     26116    TIP3     H2       HT       0.417000       1.00800           0
     88265 TIP3     26117    TIP3     OH2      OT      -0.834000       15.9994           0
     88266 TIP3     26117    TIP3     H1       HT       0.417000       1.00800           0
     88267 TIP3     26117    TIP3     H2       HT       0.417000       1.00800           0
     88268 TIP3     26118    TIP3     OH2      OT      -0.834000       15.9994           0
     88269 TIP3     26118    TIP3     H1       HT       0.417000       1.00800           0
     88270 TIP3     26118    TIP3     H2       HT       0.417000       1.00800           0
     88271 TIP3     26119    TIP3     OH2      OT      -0.834000       15.9994           0
     88272 TIP3     26119    TIP3     H1       HT       0.417000       1.00800           0
     88273 TIP3     26119    TIP3     H2       HT       0.417000       1.00800           0
     88274 TIP3     26120    TIP3     OH2      OT      -0.834000       15.9994           0
     88275 TIP3     26120    TIP3     H1       HT       0.417000       1.00800           0
     88276 TIP3     26120    TIP3     H2       HT       0.417000       1.00800           0
     88277 TIP3     26121    TIP3     OH2      OT      -0.834000       15.9994           0
     88278 TIP3     26121    TIP3     H1       HT       0.417000       1.00800           0
     88279 TIP3     26121    TIP3     H2       HT       0.417000       1.00800           0
     88280 TIP3     26122    TIP3     OH2      OT      -0.834000       15.9994           0
     88281 TIP3     26122    TIP3     H1       HT       0.417000       1.00800           0
     88282 TIP3     26122    TIP3     H2       HT       0.417000       1.00800           0
     88283 TIP3     26123    TIP3     OH2      OT      -0.834000       15.9994           0
     88284 TIP3     26123    TIP3     H1       HT       0.417000       1.00800           0
     88285 TIP3     26123    TIP3     H2       HT       0.417000       1.00800           0
     88286 TIP3     26124    TIP3     OH2      OT      -0.834000       15.9994           0
     88287 TIP3     26124    TIP3     H1       HT       0.417000       1.00800           0
     88288 TIP3     26124    TIP3     H2       HT       0.417000       1.00800           0
     88289 TIP3     26125    TIP3     OH2      OT      -0.834000       15.9994           0
     88290 TIP3     26125    TIP3     H1       HT       0.417000       1.00800           0
     88291 TIP3     26125    TIP3     H2       HT       0.417000       1.00800           0
     88292 TIP3     26126    TIP3     OH2      OT      -0.834000       15.9994           0
     88293 TIP3     26126    TIP3     H1       HT       0.417000       1.00800           0
     88294 TIP3     26126    TIP3     H2       HT       0.417000       1.00800           0
     88295 TIP3     26127    TIP3     OH2      OT      -0.834000       15.9994           0
     88296 TIP3     26127    TIP3     H1       HT       0.417000       1.00800           0
     88297 TIP3     26127    TIP3     H2       HT       0.417000       1.00800           0
     88298 TIP3     26128    TIP3     OH2      OT      -0.834000       15.9994           0
     88299 TIP3     26128    TIP3     H1       HT       0.417000       1.00800           0
     88300 TIP3     26128    TIP3     H2       HT       0.417000       1.00800           0
     88301 TIP3     26129    TIP3     OH2      OT      -0.834000       15.9994           0
     88302 TIP3     26129    TIP3     H1       HT       0.417000       1.00800           0
     88303 TIP3     26129    TIP3     H2       HT       0.417000       1.00800           0
     88304 TIP3     26130    TIP3     OH2      OT      -0.834000       15.9994           0
     88305 TIP3     26130    TIP3     H1       HT       0.417000       1.00800           0
     88306 TIP3     26130    TIP3     H2       HT       0.417000       1.00800           0
     88307 TIP3     26131    TIP3     OH2      OT      -0.834000       15.9994           0
     88308 TIP3     26131    TIP3     H1       HT       0.417000       1.00800           0
     88309 TIP3     26131    TIP3     H2       HT       0.417000       1.00800           0
     88310 TIP3     26132    TIP3     OH2      OT      -0.834000       15.9994           0
     88311 TIP3     26132    TIP3     H1       HT       0.417000       1.00800           0
     88312 TIP3     26132    TIP3     H2       HT       0.417000       1.00800           0
     88313 TIP3     26133    TIP3     OH2      OT      -0.834000       15.9994           0
     88314 TIP3     26133    TIP3     H1       HT       0.417000       1.00800           0
     88315 TIP3     26133    TIP3     H2       HT       0.417000       1.00800           0
     88316 TIP3     26134    TIP3     OH2      OT      -0.834000       15.9994           0
     88317 TIP3     26134    TIP3     H1       HT       0.417000       1.00800           0
     88318 TIP3     26134    TIP3     H2       HT       0.417000       1.00800           0
     88319 TIP3     26135    TIP3     OH2      OT      -0.834000       15.9994           0
     88320 TIP3     26135    TIP3     H1       HT       0.417000       1.00800           0
     88321 TIP3     26135    TIP3     H2       HT       0.417000       1.00800           0
     88322 TIP3     26136    TIP3     OH2      OT      -0.834000       15.9994           0
     88323 TIP3     26136    TIP3     H1       HT       0.417000       1.00800           0
     88324 TIP3     26136    TIP3     H2       HT       0.417000       1.00800           0
     88325 TIP3     26137    TIP3     OH2      OT      -0.834000       15.9994           0
     88326 TIP3     26137    TIP3     H1       HT       0.417000       1.00800           0
     88327 TIP3     26137    TIP3     H2       HT       0.417000       1.00800           0
     88328 TIP3     26138    TIP3     OH2      OT      -0.834000       15.9994           0
     88329 TIP3     26138    TIP3     H1       HT       0.417000       1.00800           0
     88330 TIP3     26138    TIP3     H2       HT       0.417000       1.00800           0
     88331 TIP3     26139    TIP3     OH2      OT      -0.834000       15.9994           0
     88332 TIP3     26139    TIP3     H1       HT       0.417000       1.00800           0
     88333 TIP3     26139    TIP3     H2       HT       0.417000       1.00800           0
     88334 TIP3     26140    TIP3     OH2      OT      -0.834000       15.9994           0
     88335 TIP3     26140    TIP3     H1       HT       0.417000       1.00800           0
     88336 TIP3     26140    TIP3     H2       HT       0.417000       1.00800           0
     88337 TIP3     26141    TIP3     OH2      OT      -0.834000       15.9994           0
     88338 TIP3     26141    TIP3     H1       HT       0.417000       1.00800           0
     88339 TIP3     26141    TIP3     H2       HT       0.417000       1.00800           0
     88340 TIP3     26142    TIP3     OH2      OT      -0.834000       15.9994           0
     88341 TIP3     26142    TIP3     H1       HT       0.417000       1.00800           0
     88342 TIP3     26142    TIP3     H2       HT       0.417000       1.00800           0
     88343 TIP3     26143    TIP3     OH2      OT      -0.834000       15.9994           0
     88344 TIP3     26143    TIP3     H1       HT       0.417000       1.00800           0
     88345 TIP3     26143    TIP3     H2       HT       0.417000       1.00800           0
     88346 TIP3     26144    TIP3     OH2      OT      -0.834000       15.9994           0
     88347 TIP3     26144    TIP3     H1       HT       0.417000       1.00800           0
     88348 TIP3     26144    TIP3     H2       HT       0.417000       1.00800           0
     88349 TIP3     26145    TIP3     OH2      OT      -0.834000       15.9994           0
     88350 TIP3     26145    TIP3     H1       HT       0.417000       1.00800           0
     88351 TIP3     26145    TIP3     H2       HT       0.417000       1.00800           0
     88352 TIP3     26146    TIP3     OH2      OT      -0.834000       15.9994           0
     88353 TIP3     26146    TIP3     H1       HT       0.417000       1.00800           0
     88354 TIP3     26146    TIP3     H2       HT       0.417000       1.00800           0
     88355 TIP3     26147    TIP3     OH2      OT      -0.834000       15.9994           0
     88356 TIP3     26147    TIP3     H1       HT       0.417000       1.00800           0
     88357 TIP3     26147    TIP3     H2       HT       0.417000       1.00800           0
     88358 TIP3     26148    TIP3     OH2      OT      -0.834000       15.9994           0
     88359 TIP3     26148    TIP3     H1       HT       0.417000       1.00800           0
     88360 TIP3     26148    TIP3     H2       HT       0.417000       1.00800           0
     88361 TIP3     26149    TIP3     OH2      OT      -0.834000       15.9994           0
     88362 TIP3     26149    TIP3     H1       HT       0.417000       1.00800           0
     88363 TIP3     26149    TIP3     H2       HT       0.417000       1.00800           0
     88364 TIP3     26150    TIP3     OH2      OT      -0.834000       15.9994           0
     88365 TIP3     26150    TIP3     H1       HT       0.417000       1.00800           0
     88366 TIP3     26150    TIP3     H2       HT       0.417000       1.00800           0
     88367 TIP3     26151    TIP3     OH2      OT      -0.834000       15.9994           0
     88368 TIP3     26151    TIP3     H1       HT       0.417000       1.00800           0
     88369 TIP3     26151    TIP3     H2       HT       0.417000       1.00800           0
     88370 TIP3     26152    TIP3     OH2      OT      -0.834000       15.9994           0
     88371 TIP3     26152    TIP3     H1       HT       0.417000       1.00800           0
     88372 TIP3     26152    TIP3     H2       HT       0.417000       1.00800           0
     88373 TIP3     26153    TIP3     OH2      OT      -0.834000       15.9994           0
     88374 TIP3     26153    TIP3     H1       HT       0.417000       1.00800           0
     88375 TIP3     26153    TIP3     H2       HT       0.417000       1.00800           0
     88376 TIP3     26154    TIP3     OH2      OT      -0.834000       15.9994           0
     88377 TIP3     26154    TIP3     H1       HT       0.417000       1.00800           0
     88378 TIP3     26154    TIP3     H2       HT       0.417000       1.00800           0
     88379 TIP3     26155    TIP3     OH2      OT      -0.834000       15.9994           0
     88380 TIP3     26155    TIP3     H1       HT       0.417000       1.00800           0
     88381 TIP3     26155    TIP3     H2       HT       0.417000       1.00800           0
     88382 TIP3     26156    TIP3     OH2      OT      -0.834000       15.9994           0
     88383 TIP3     26156    TIP3     H1       HT       0.417000       1.00800           0
     88384 TIP3     26156    TIP3     H2       HT       0.417000       1.00800           0
     88385 TIP3     26157    TIP3     OH2      OT      -0.834000       15.9994           0
     88386 TIP3     26157    TIP3     H1       HT       0.417000       1.00800           0
     88387 TIP3     26157    TIP3     H2       HT       0.417000       1.00800           0
     88388 TIP3     26158    TIP3     OH2      OT      -0.834000       15.9994           0
     88389 TIP3     26158    TIP3     H1       HT       0.417000       1.00800           0
     88390 TIP3     26158    TIP3     H2       HT       0.417000       1.00800           0
     88391 TIP3     26159    TIP3     OH2      OT      -0.834000       15.9994           0
     88392 TIP3     26159    TIP3     H1       HT       0.417000       1.00800           0
     88393 TIP3     26159    TIP3     H2       HT       0.417000       1.00800           0
     88394 TIP3     26160    TIP3     OH2      OT      -0.834000       15.9994           0
     88395 TIP3     26160    TIP3     H1       HT       0.417000       1.00800           0
     88396 TIP3     26160    TIP3     H2       HT       0.417000       1.00800           0
     88397 TIP3     26161    TIP3     OH2      OT      -0.834000       15.9994           0
     88398 TIP3     26161    TIP3     H1       HT       0.417000       1.00800           0
     88399 TIP3     26161    TIP3     H2       HT       0.417000       1.00800           0
     88400 TIP3     26162    TIP3     OH2      OT      -0.834000       15.9994           0
     88401 TIP3     26162    TIP3     H1       HT       0.417000       1.00800           0
     88402 TIP3     26162    TIP3     H2       HT       0.417000       1.00800           0
     88403 TIP3     26163    TIP3     OH2      OT      -0.834000       15.9994           0
     88404 TIP3     26163    TIP3     H1       HT       0.417000       1.00800           0
     88405 TIP3     26163    TIP3     H2       HT       0.417000       1.00800           0
     88406 TIP3     26164    TIP3     OH2      OT      -0.834000       15.9994           0
     88407 TIP3     26164    TIP3     H1       HT       0.417000       1.00800           0
     88408 TIP3     26164    TIP3     H2       HT       0.417000       1.00800           0
     88409 TIP3     26165    TIP3     OH2      OT      -0.834000       15.9994           0
     88410 TIP3     26165    TIP3     H1       HT       0.417000       1.00800           0
     88411 TIP3     26165    TIP3     H2       HT       0.417000       1.00800           0
     88412 TIP3     26166    TIP3     OH2      OT      -0.834000       15.9994           0
     88413 TIP3     26166    TIP3     H1       HT       0.417000       1.00800           0
     88414 TIP3     26166    TIP3     H2       HT       0.417000       1.00800           0
     88415 TIP3     26167    TIP3     OH2      OT      -0.834000       15.9994           0
     88416 TIP3     26167    TIP3     H1       HT       0.417000       1.00800           0
     88417 TIP3     26167    TIP3     H2       HT       0.417000       1.00800           0
     88418 TIP3     26168    TIP3     OH2      OT      -0.834000       15.9994           0
     88419 TIP3     26168    TIP3     H1       HT       0.417000       1.00800           0
     88420 TIP3     26168    TIP3     H2       HT       0.417000       1.00800           0
     88421 TIP3     26169    TIP3     OH2      OT      -0.834000       15.9994           0
     88422 TIP3     26169    TIP3     H1       HT       0.417000       1.00800           0
     88423 TIP3     26169    TIP3     H2       HT       0.417000       1.00800           0
     88424 TIP3     26170    TIP3     OH2      OT      -0.834000       15.9994           0
     88425 TIP3     26170    TIP3     H1       HT       0.417000       1.00800           0
     88426 TIP3     26170    TIP3     H2       HT       0.417000       1.00800           0
     88427 TIP3     26171    TIP3     OH2      OT      -0.834000       15.9994           0
     88428 TIP3     26171    TIP3     H1       HT       0.417000       1.00800           0
     88429 TIP3     26171    TIP3     H2       HT       0.417000       1.00800           0
     88430 TIP3     26172    TIP3     OH2      OT      -0.834000       15.9994           0
     88431 TIP3     26172    TIP3     H1       HT       0.417000       1.00800           0
     88432 TIP3     26172    TIP3     H2       HT       0.417000       1.00800           0
     88433 TIP3     26173    TIP3     OH2      OT      -0.834000       15.9994           0
     88434 TIP3     26173    TIP3     H1       HT       0.417000       1.00800           0
     88435 TIP3     26173    TIP3     H2       HT       0.417000       1.00800           0
     88436 TIP3     26174    TIP3     OH2      OT      -0.834000       15.9994           0
     88437 TIP3     26174    TIP3     H1       HT       0.417000       1.00800           0
     88438 TIP3     26174    TIP3     H2       HT       0.417000       1.00800           0
     88439 TIP3     26175    TIP3     OH2      OT      -0.834000       15.9994           0
     88440 TIP3     26175    TIP3     H1       HT       0.417000       1.00800           0
     88441 TIP3     26175    TIP3     H2       HT       0.417000       1.00800           0
     88442 TIP3     26176    TIP3     OH2      OT      -0.834000       15.9994           0
     88443 TIP3     26176    TIP3     H1       HT       0.417000       1.00800           0
     88444 TIP3     26176    TIP3     H2       HT       0.417000       1.00800           0
     88445 TIP3     26177    TIP3     OH2      OT      -0.834000       15.9994           0
     88446 TIP3     26177    TIP3     H1       HT       0.417000       1.00800           0
     88447 TIP3     26177    TIP3     H2       HT       0.417000       1.00800           0
     88448 TIP3     26178    TIP3     OH2      OT      -0.834000       15.9994           0
     88449 TIP3     26178    TIP3     H1       HT       0.417000       1.00800           0
     88450 TIP3     26178    TIP3     H2       HT       0.417000       1.00800           0
     88451 TIP3     26179    TIP3     OH2      OT      -0.834000       15.9994           0
     88452 TIP3     26179    TIP3     H1       HT       0.417000       1.00800           0
     88453 TIP3     26179    TIP3     H2       HT       0.417000       1.00800           0
     88454 TIP3     26180    TIP3     OH2      OT      -0.834000       15.9994           0
     88455 TIP3     26180    TIP3     H1       HT       0.417000       1.00800           0
     88456 TIP3     26180    TIP3     H2       HT       0.417000       1.00800           0
     88457 TIP3     26181    TIP3     OH2      OT      -0.834000       15.9994           0
     88458 TIP3     26181    TIP3     H1       HT       0.417000       1.00800           0
     88459 TIP3     26181    TIP3     H2       HT       0.417000       1.00800           0
     88460 TIP3     26182    TIP3     OH2      OT      -0.834000       15.9994           0
     88461 TIP3     26182    TIP3     H1       HT       0.417000       1.00800           0
     88462 TIP3     26182    TIP3     H2       HT       0.417000       1.00800           0
     88463 TIP3     26183    TIP3     OH2      OT      -0.834000       15.9994           0
     88464 TIP3     26183    TIP3     H1       HT       0.417000       1.00800           0
     88465 TIP3     26183    TIP3     H2       HT       0.417000       1.00800           0
     88466 TIP3     26184    TIP3     OH2      OT      -0.834000       15.9994           0
     88467 TIP3     26184    TIP3     H1       HT       0.417000       1.00800           0
     88468 TIP3     26184    TIP3     H2       HT       0.417000       1.00800           0
     88469 TIP3     26185    TIP3     OH2      OT      -0.834000       15.9994           0
     88470 TIP3     26185    TIP3     H1       HT       0.417000       1.00800           0
     88471 TIP3     26185    TIP3     H2       HT       0.417000       1.00800           0
     88472 TIP3     26186    TIP3     OH2      OT      -0.834000       15.9994           0
     88473 TIP3     26186    TIP3     H1       HT       0.417000       1.00800           0
     88474 TIP3     26186    TIP3     H2       HT       0.417000       1.00800           0
     88475 TIP3     26187    TIP3     OH2      OT      -0.834000       15.9994           0
     88476 TIP3     26187    TIP3     H1       HT       0.417000       1.00800           0
     88477 TIP3     26187    TIP3     H2       HT       0.417000       1.00800           0
     88478 TIP3     26188    TIP3     OH2      OT      -0.834000       15.9994           0
     88479 TIP3     26188    TIP3     H1       HT       0.417000       1.00800           0
     88480 TIP3     26188    TIP3     H2       HT       0.417000       1.00800           0
     88481 TIP3     26189    TIP3     OH2      OT      -0.834000       15.9994           0
     88482 TIP3     26189    TIP3     H1       HT       0.417000       1.00800           0
     88483 TIP3     26189    TIP3     H2       HT       0.417000       1.00800           0
     88484 TIP3     26190    TIP3     OH2      OT      -0.834000       15.9994           0
     88485 TIP3     26190    TIP3     H1       HT       0.417000       1.00800           0
     88486 TIP3     26190    TIP3     H2       HT       0.417000       1.00800           0
     88487 TIP3     26191    TIP3     OH2      OT      -0.834000       15.9994           0
     88488 TIP3     26191    TIP3     H1       HT       0.417000       1.00800           0
     88489 TIP3     26191    TIP3     H2       HT       0.417000       1.00800           0
     88490 TIP3     26192    TIP3     OH2      OT      -0.834000       15.9994           0
     88491 TIP3     26192    TIP3     H1       HT       0.417000       1.00800           0
     88492 TIP3     26192    TIP3     H2       HT       0.417000       1.00800           0
     88493 TIP3     26193    TIP3     OH2      OT      -0.834000       15.9994           0
     88494 TIP3     26193    TIP3     H1       HT       0.417000       1.00800           0
     88495 TIP3     26193    TIP3     H2       HT       0.417000       1.00800           0
     88496 TIP3     26194    TIP3     OH2      OT      -0.834000       15.9994           0
     88497 TIP3     26194    TIP3     H1       HT       0.417000       1.00800           0
     88498 TIP3     26194    TIP3     H2       HT       0.417000       1.00800           0
     88499 TIP3     26195    TIP3     OH2      OT      -0.834000       15.9994           0
     88500 TIP3     26195    TIP3     H1       HT       0.417000       1.00800           0
     88501 TIP3     26195    TIP3     H2       HT       0.417000       1.00800           0
     88502 TIP3     26196    TIP3     OH2      OT      -0.834000       15.9994           0
     88503 TIP3     26196    TIP3     H1       HT       0.417000       1.00800           0
     88504 TIP3     26196    TIP3     H2       HT       0.417000       1.00800           0
     88505 TIP3     26197    TIP3     OH2      OT      -0.834000       15.9994           0
     88506 TIP3     26197    TIP3     H1       HT       0.417000       1.00800           0
     88507 TIP3     26197    TIP3     H2       HT       0.417000       1.00800           0
     88508 TIP3     26198    TIP3     OH2      OT      -0.834000       15.9994           0
     88509 TIP3     26198    TIP3     H1       HT       0.417000       1.00800           0
     88510 TIP3     26198    TIP3     H2       HT       0.417000       1.00800           0
     88511 TIP3     26199    TIP3     OH2      OT      -0.834000       15.9994           0
     88512 TIP3     26199    TIP3     H1       HT       0.417000       1.00800           0
     88513 TIP3     26199    TIP3     H2       HT       0.417000       1.00800           0
     88514 TIP3     26200    TIP3     OH2      OT      -0.834000       15.9994           0
     88515 TIP3     26200    TIP3     H1       HT       0.417000       1.00800           0
     88516 TIP3     26200    TIP3     H2       HT       0.417000       1.00800           0
     88517 TIP3     26201    TIP3     OH2      OT      -0.834000       15.9994           0
     88518 TIP3     26201    TIP3     H1       HT       0.417000       1.00800           0
     88519 TIP3     26201    TIP3     H2       HT       0.417000       1.00800           0
     88520 TIP3     26202    TIP3     OH2      OT      -0.834000       15.9994           0
     88521 TIP3     26202    TIP3     H1       HT       0.417000       1.00800           0
     88522 TIP3     26202    TIP3     H2       HT       0.417000       1.00800           0
     88523 TIP3     26203    TIP3     OH2      OT      -0.834000       15.9994           0
     88524 TIP3     26203    TIP3     H1       HT       0.417000       1.00800           0
     88525 TIP3     26203    TIP3     H2       HT       0.417000       1.00800           0
     88526 TIP3     26204    TIP3     OH2      OT      -0.834000       15.9994           0
     88527 TIP3     26204    TIP3     H1       HT       0.417000       1.00800           0
     88528 TIP3     26204    TIP3     H2       HT       0.417000       1.00800           0
     88529 TIP3     26205    TIP3     OH2      OT      -0.834000       15.9994           0
     88530 TIP3     26205    TIP3     H1       HT       0.417000       1.00800           0
     88531 TIP3     26205    TIP3     H2       HT       0.417000       1.00800           0
     88532 TIP3     26206    TIP3     OH2      OT      -0.834000       15.9994           0
     88533 TIP3     26206    TIP3     H1       HT       0.417000       1.00800           0
     88534 TIP3     26206    TIP3     H2       HT       0.417000       1.00800           0
     88535 TIP3     26207    TIP3     OH2      OT      -0.834000       15.9994           0
     88536 TIP3     26207    TIP3     H1       HT       0.417000       1.00800           0
     88537 TIP3     26207    TIP3     H2       HT       0.417000       1.00800           0
     88538 TIP3     26208    TIP3     OH2      OT      -0.834000       15.9994           0
     88539 TIP3     26208    TIP3     H1       HT       0.417000       1.00800           0
     88540 TIP3     26208    TIP3     H2       HT       0.417000       1.00800           0
     88541 TIP3     26209    TIP3     OH2      OT      -0.834000       15.9994           0
     88542 TIP3     26209    TIP3     H1       HT       0.417000       1.00800           0
     88543 TIP3     26209    TIP3     H2       HT       0.417000       1.00800           0
     88544 TIP3     26210    TIP3     OH2      OT      -0.834000       15.9994           0
     88545 TIP3     26210    TIP3     H1       HT       0.417000       1.00800           0
     88546 TIP3     26210    TIP3     H2       HT       0.417000       1.00800           0
     88547 TIP3     26211    TIP3     OH2      OT      -0.834000       15.9994           0
     88548 TIP3     26211    TIP3     H1       HT       0.417000       1.00800           0
     88549 TIP3     26211    TIP3     H2       HT       0.417000       1.00800           0
     88550 TIP3     26212    TIP3     OH2      OT      -0.834000       15.9994           0
     88551 TIP3     26212    TIP3     H1       HT       0.417000       1.00800           0
     88552 TIP3     26212    TIP3     H2       HT       0.417000       1.00800           0
     88553 TIP3     26213    TIP3     OH2      OT      -0.834000       15.9994           0
     88554 TIP3     26213    TIP3     H1       HT       0.417000       1.00800           0
     88555 TIP3     26213    TIP3     H2       HT       0.417000       1.00800           0
     88556 TIP3     26214    TIP3     OH2      OT      -0.834000       15.9994           0
     88557 TIP3     26214    TIP3     H1       HT       0.417000       1.00800           0
     88558 TIP3     26214    TIP3     H2       HT       0.417000       1.00800           0
     88559 TIP3     26215    TIP3     OH2      OT      -0.834000       15.9994           0
     88560 TIP3     26215    TIP3     H1       HT       0.417000       1.00800           0
     88561 TIP3     26215    TIP3     H2       HT       0.417000       1.00800           0
     88562 TIP3     26216    TIP3     OH2      OT      -0.834000       15.9994           0
     88563 TIP3     26216    TIP3     H1       HT       0.417000       1.00800           0
     88564 TIP3     26216    TIP3     H2       HT       0.417000       1.00800           0
     88565 TIP3     26217    TIP3     OH2      OT      -0.834000       15.9994           0
     88566 TIP3     26217    TIP3     H1       HT       0.417000       1.00800           0
     88567 TIP3     26217    TIP3     H2       HT       0.417000       1.00800           0
     88568 TIP3     26218    TIP3     OH2      OT      -0.834000       15.9994           0
     88569 TIP3     26218    TIP3     H1       HT       0.417000       1.00800           0
     88570 TIP3     26218    TIP3     H2       HT       0.417000       1.00800           0
     88571 TIP3     26219    TIP3     OH2      OT      -0.834000       15.9994           0
     88572 TIP3     26219    TIP3     H1       HT       0.417000       1.00800           0
     88573 TIP3     26219    TIP3     H2       HT       0.417000       1.00800           0
     88574 TIP3     26220    TIP3     OH2      OT      -0.834000       15.9994           0
     88575 TIP3     26220    TIP3     H1       HT       0.417000       1.00800           0
     88576 TIP3     26220    TIP3     H2       HT       0.417000       1.00800           0
     88577 TIP3     26221    TIP3     OH2      OT      -0.834000       15.9994           0
     88578 TIP3     26221    TIP3     H1       HT       0.417000       1.00800           0
     88579 TIP3     26221    TIP3     H2       HT       0.417000       1.00800           0
     88580 TIP3     26222    TIP3     OH2      OT      -0.834000       15.9994           0
     88581 TIP3     26222    TIP3     H1       HT       0.417000       1.00800           0
     88582 TIP3     26222    TIP3     H2       HT       0.417000       1.00800           0
     88583 TIP3     26223    TIP3     OH2      OT      -0.834000       15.9994           0
     88584 TIP3     26223    TIP3     H1       HT       0.417000       1.00800           0
     88585 TIP3     26223    TIP3     H2       HT       0.417000       1.00800           0
     88586 TIP3     26224    TIP3     OH2      OT      -0.834000       15.9994           0
     88587 TIP3     26224    TIP3     H1       HT       0.417000       1.00800           0
     88588 TIP3     26224    TIP3     H2       HT       0.417000       1.00800           0
     88589 TIP3     26225    TIP3     OH2      OT      -0.834000       15.9994           0
     88590 TIP3     26225    TIP3     H1       HT       0.417000       1.00800           0
     88591 TIP3     26225    TIP3     H2       HT       0.417000       1.00800           0
     88592 TIP3     26226    TIP3     OH2      OT      -0.834000       15.9994           0
     88593 TIP3     26226    TIP3     H1       HT       0.417000       1.00800           0
     88594 TIP3     26226    TIP3     H2       HT       0.417000       1.00800           0
     88595 TIP3     26227    TIP3     OH2      OT      -0.834000       15.9994           0
     88596 TIP3     26227    TIP3     H1       HT       0.417000       1.00800           0
     88597 TIP3     26227    TIP3     H2       HT       0.417000       1.00800           0
     88598 TIP3     26228    TIP3     OH2      OT      -0.834000       15.9994           0
     88599 TIP3     26228    TIP3     H1       HT       0.417000       1.00800           0
     88600 TIP3     26228    TIP3     H2       HT       0.417000       1.00800           0
     88601 TIP3     26229    TIP3     OH2      OT      -0.834000       15.9994           0
     88602 TIP3     26229    TIP3     H1       HT       0.417000       1.00800           0
     88603 TIP3     26229    TIP3     H2       HT       0.417000       1.00800           0
     88604 TIP3     26230    TIP3     OH2      OT      -0.834000       15.9994           0
     88605 TIP3     26230    TIP3     H1       HT       0.417000       1.00800           0
     88606 TIP3     26230    TIP3     H2       HT       0.417000       1.00800           0
     88607 TIP3     26231    TIP3     OH2      OT      -0.834000       15.9994           0
     88608 TIP3     26231    TIP3     H1       HT       0.417000       1.00800           0
     88609 TIP3     26231    TIP3     H2       HT       0.417000       1.00800           0
     88610 TIP3     26232    TIP3     OH2      OT      -0.834000       15.9994           0
     88611 TIP3     26232    TIP3     H1       HT       0.417000       1.00800           0
     88612 TIP3     26232    TIP3     H2       HT       0.417000       1.00800           0
     88613 TIP3     26233    TIP3     OH2      OT      -0.834000       15.9994           0
     88614 TIP3     26233    TIP3     H1       HT       0.417000       1.00800           0
     88615 TIP3     26233    TIP3     H2       HT       0.417000       1.00800           0
     88616 TIP3     26234    TIP3     OH2      OT      -0.834000       15.9994           0
     88617 TIP3     26234    TIP3     H1       HT       0.417000       1.00800           0
     88618 TIP3     26234    TIP3     H2       HT       0.417000       1.00800           0
     88619 TIP3     26235    TIP3     OH2      OT      -0.834000       15.9994           0
     88620 TIP3     26235    TIP3     H1       HT       0.417000       1.00800           0
     88621 TIP3     26235    TIP3     H2       HT       0.417000       1.00800           0
     88622 TIP3     26236    TIP3     OH2      OT      -0.834000       15.9994           0
     88623 TIP3     26236    TIP3     H1       HT       0.417000       1.00800           0
     88624 TIP3     26236    TIP3     H2       HT       0.417000       1.00800           0
     88625 TIP3     26237    TIP3     OH2      OT      -0.834000       15.9994           0
     88626 TIP3     26237    TIP3     H1       HT       0.417000       1.00800           0
     88627 TIP3     26237    TIP3     H2       HT       0.417000       1.00800           0
     88628 TIP3     26238    TIP3     OH2      OT      -0.834000       15.9994           0
     88629 TIP3     26238    TIP3     H1       HT       0.417000       1.00800           0
     88630 TIP3     26238    TIP3     H2       HT       0.417000       1.00800           0
     88631 TIP3     26239    TIP3     OH2      OT      -0.834000       15.9994           0
     88632 TIP3     26239    TIP3     H1       HT       0.417000       1.00800           0
     88633 TIP3     26239    TIP3     H2       HT       0.417000       1.00800           0
     88634 TIP3     26240    TIP3     OH2      OT      -0.834000       15.9994           0
     88635 TIP3     26240    TIP3     H1       HT       0.417000       1.00800           0
     88636 TIP3     26240    TIP3     H2       HT       0.417000       1.00800           0
     88637 TIP3     26241    TIP3     OH2      OT      -0.834000       15.9994           0
     88638 TIP3     26241    TIP3     H1       HT       0.417000       1.00800           0
     88639 TIP3     26241    TIP3     H2       HT       0.417000       1.00800           0
     88640 TIP3     26242    TIP3     OH2      OT      -0.834000       15.9994           0
     88641 TIP3     26242    TIP3     H1       HT       0.417000       1.00800           0
     88642 TIP3     26242    TIP3     H2       HT       0.417000       1.00800           0
     88643 TIP3     26243    TIP3     OH2      OT      -0.834000       15.9994           0
     88644 TIP3     26243    TIP3     H1       HT       0.417000       1.00800           0
     88645 TIP3     26243    TIP3     H2       HT       0.417000       1.00800           0
     88646 TIP3     26244    TIP3     OH2      OT      -0.834000       15.9994           0
     88647 TIP3     26244    TIP3     H1       HT       0.417000       1.00800           0
     88648 TIP3     26244    TIP3     H2       HT       0.417000       1.00800           0
     88649 TIP3     26245    TIP3     OH2      OT      -0.834000       15.9994           0
     88650 TIP3     26245    TIP3     H1       HT       0.417000       1.00800           0
     88651 TIP3     26245    TIP3     H2       HT       0.417000       1.00800           0
     88652 TIP3     26246    TIP3     OH2      OT      -0.834000       15.9994           0
     88653 TIP3     26246    TIP3     H1       HT       0.417000       1.00800           0
     88654 TIP3     26246    TIP3     H2       HT       0.417000       1.00800           0
     88655 TIP3     26247    TIP3     OH2      OT      -0.834000       15.9994           0
     88656 TIP3     26247    TIP3     H1       HT       0.417000       1.00800           0
     88657 TIP3     26247    TIP3     H2       HT       0.417000       1.00800           0
     88658 TIP3     26248    TIP3     OH2      OT      -0.834000       15.9994           0
     88659 TIP3     26248    TIP3     H1       HT       0.417000       1.00800           0
     88660 TIP3     26248    TIP3     H2       HT       0.417000       1.00800           0
     88661 TIP3     26249    TIP3     OH2      OT      -0.834000       15.9994           0
     88662 TIP3     26249    TIP3     H1       HT       0.417000       1.00800           0
     88663 TIP3     26249    TIP3     H2       HT       0.417000       1.00800           0
     88664 TIP3     26250    TIP3     OH2      OT      -0.834000       15.9994           0
     88665 TIP3     26250    TIP3     H1       HT       0.417000       1.00800           0
     88666 TIP3     26250    TIP3     H2       HT       0.417000       1.00800           0
     88667 TIP3     26251    TIP3     OH2      OT      -0.834000       15.9994           0
     88668 TIP3     26251    TIP3     H1       HT       0.417000       1.00800           0
     88669 TIP3     26251    TIP3     H2       HT       0.417000       1.00800           0
     88670 TIP3     26252    TIP3     OH2      OT      -0.834000       15.9994           0
     88671 TIP3     26252    TIP3     H1       HT       0.417000       1.00800           0
     88672 TIP3     26252    TIP3     H2       HT       0.417000       1.00800           0
     88673 TIP3     26253    TIP3     OH2      OT      -0.834000       15.9994           0
     88674 TIP3     26253    TIP3     H1       HT       0.417000       1.00800           0
     88675 TIP3     26253    TIP3     H2       HT       0.417000       1.00800           0
     88676 TIP3     26254    TIP3     OH2      OT      -0.834000       15.9994           0
     88677 TIP3     26254    TIP3     H1       HT       0.417000       1.00800           0
     88678 TIP3     26254    TIP3     H2       HT       0.417000       1.00800           0
     88679 TIP3     26255    TIP3     OH2      OT      -0.834000       15.9994           0
     88680 TIP3     26255    TIP3     H1       HT       0.417000       1.00800           0
     88681 TIP3     26255    TIP3     H2       HT       0.417000       1.00800           0
     88682 TIP3     26256    TIP3     OH2      OT      -0.834000       15.9994           0
     88683 TIP3     26256    TIP3     H1       HT       0.417000       1.00800           0
     88684 TIP3     26256    TIP3     H2       HT       0.417000       1.00800           0
     88685 TIP3     26257    TIP3     OH2      OT      -0.834000       15.9994           0
     88686 TIP3     26257    TIP3     H1       HT       0.417000       1.00800           0
     88687 TIP3     26257    TIP3     H2       HT       0.417000       1.00800           0
     88688 TIP3     26258    TIP3     OH2      OT      -0.834000       15.9994           0
     88689 TIP3     26258    TIP3     H1       HT       0.417000       1.00800           0
     88690 TIP3     26258    TIP3     H2       HT       0.417000       1.00800           0
     88691 TIP3     26259    TIP3     OH2      OT      -0.834000       15.9994           0
     88692 TIP3     26259    TIP3     H1       HT       0.417000       1.00800           0
     88693 TIP3     26259    TIP3     H2       HT       0.417000       1.00800           0
     88694 TIP3     26260    TIP3     OH2      OT      -0.834000       15.9994           0
     88695 TIP3     26260    TIP3     H1       HT       0.417000       1.00800           0
     88696 TIP3     26260    TIP3     H2       HT       0.417000       1.00800           0
     88697 TIP3     26261    TIP3     OH2      OT      -0.834000       15.9994           0
     88698 TIP3     26261    TIP3     H1       HT       0.417000       1.00800           0
     88699 TIP3     26261    TIP3     H2       HT       0.417000       1.00800           0
     88700 TIP3     26262    TIP3     OH2      OT      -0.834000       15.9994           0
     88701 TIP3     26262    TIP3     H1       HT       0.417000       1.00800           0
     88702 TIP3     26262    TIP3     H2       HT       0.417000       1.00800           0
     88703 TIP3     26263    TIP3     OH2      OT      -0.834000       15.9994           0
     88704 TIP3     26263    TIP3     H1       HT       0.417000       1.00800           0
     88705 TIP3     26263    TIP3     H2       HT       0.417000       1.00800           0
     88706 TIP3     26264    TIP3     OH2      OT      -0.834000       15.9994           0
     88707 TIP3     26264    TIP3     H1       HT       0.417000       1.00800           0
     88708 TIP3     26264    TIP3     H2       HT       0.417000       1.00800           0
     88709 TIP3     26265    TIP3     OH2      OT      -0.834000       15.9994           0
     88710 TIP3     26265    TIP3     H1       HT       0.417000       1.00800           0
     88711 TIP3     26265    TIP3     H2       HT       0.417000       1.00800           0
     88712 TIP3     26266    TIP3     OH2      OT      -0.834000       15.9994           0
     88713 TIP3     26266    TIP3     H1       HT       0.417000       1.00800           0
     88714 TIP3     26266    TIP3     H2       HT       0.417000       1.00800           0
     88715 TIP3     26267    TIP3     OH2      OT      -0.834000       15.9994           0
     88716 TIP3     26267    TIP3     H1       HT       0.417000       1.00800           0
     88717 TIP3     26267    TIP3     H2       HT       0.417000       1.00800           0
     88718 TIP3     26268    TIP3     OH2      OT      -0.834000       15.9994           0
     88719 TIP3     26268    TIP3     H1       HT       0.417000       1.00800           0
     88720 TIP3     26268    TIP3     H2       HT       0.417000       1.00800           0
     88721 TIP3     26269    TIP3     OH2      OT      -0.834000       15.9994           0
     88722 TIP3     26269    TIP3     H1       HT       0.417000       1.00800           0
     88723 TIP3     26269    TIP3     H2       HT       0.417000       1.00800           0
     88724 TIP3     26270    TIP3     OH2      OT      -0.834000       15.9994           0
     88725 TIP3     26270    TIP3     H1       HT       0.417000       1.00800           0
     88726 TIP3     26270    TIP3     H2       HT       0.417000       1.00800           0
     88727 TIP3     26271    TIP3     OH2      OT      -0.834000       15.9994           0
     88728 TIP3     26271    TIP3     H1       HT       0.417000       1.00800           0
     88729 TIP3     26271    TIP3     H2       HT       0.417000       1.00800           0
     88730 TIP3     26272    TIP3     OH2      OT      -0.834000       15.9994           0
     88731 TIP3     26272    TIP3     H1       HT       0.417000       1.00800           0
     88732 TIP3     26272    TIP3     H2       HT       0.417000       1.00800           0
     88733 TIP3     26273    TIP3     OH2      OT      -0.834000       15.9994           0
     88734 TIP3     26273    TIP3     H1       HT       0.417000       1.00800           0
     88735 TIP3     26273    TIP3     H2       HT       0.417000       1.00800           0
     88736 TIP3     26274    TIP3     OH2      OT      -0.834000       15.9994           0
     88737 TIP3     26274    TIP3     H1       HT       0.417000       1.00800           0
     88738 TIP3     26274    TIP3     H2       HT       0.417000       1.00800           0
     88739 TIP3     26275    TIP3     OH2      OT      -0.834000       15.9994           0
     88740 TIP3     26275    TIP3     H1       HT       0.417000       1.00800           0
     88741 TIP3     26275    TIP3     H2       HT       0.417000       1.00800           0
     88742 TIP3     26276    TIP3     OH2      OT      -0.834000       15.9994           0
     88743 TIP3     26276    TIP3     H1       HT       0.417000       1.00800           0
     88744 TIP3     26276    TIP3     H2       HT       0.417000       1.00800           0
     88745 TIP3     26277    TIP3     OH2      OT      -0.834000       15.9994           0
     88746 TIP3     26277    TIP3     H1       HT       0.417000       1.00800           0
     88747 TIP3     26277    TIP3     H2       HT       0.417000       1.00800           0
     88748 TIP3     26278    TIP3     OH2      OT      -0.834000       15.9994           0
     88749 TIP3     26278    TIP3     H1       HT       0.417000       1.00800           0
     88750 TIP3     26278    TIP3     H2       HT       0.417000       1.00800           0
     88751 TIP3     26279    TIP3     OH2      OT      -0.834000       15.9994           0
     88752 TIP3     26279    TIP3     H1       HT       0.417000       1.00800           0
     88753 TIP3     26279    TIP3     H2       HT       0.417000       1.00800           0
     88754 TIP3     26280    TIP3     OH2      OT      -0.834000       15.9994           0
     88755 TIP3     26280    TIP3     H1       HT       0.417000       1.00800           0
     88756 TIP3     26280    TIP3     H2       HT       0.417000       1.00800           0
     88757 TIP3     26281    TIP3     OH2      OT      -0.834000       15.9994           0
     88758 TIP3     26281    TIP3     H1       HT       0.417000       1.00800           0
     88759 TIP3     26281    TIP3     H2       HT       0.417000       1.00800           0
     88760 TIP3     26282    TIP3     OH2      OT      -0.834000       15.9994           0
     88761 TIP3     26282    TIP3     H1       HT       0.417000       1.00800           0
     88762 TIP3     26282    TIP3     H2       HT       0.417000       1.00800           0
     88763 TIP3     26283    TIP3     OH2      OT      -0.834000       15.9994           0
     88764 TIP3     26283    TIP3     H1       HT       0.417000       1.00800           0
     88765 TIP3     26283    TIP3     H2       HT       0.417000       1.00800           0
     88766 TIP3     26284    TIP3     OH2      OT      -0.834000       15.9994           0
     88767 TIP3     26284    TIP3     H1       HT       0.417000       1.00800           0
     88768 TIP3     26284    TIP3     H2       HT       0.417000       1.00800           0
     88769 TIP3     26285    TIP3     OH2      OT      -0.834000       15.9994           0
     88770 TIP3     26285    TIP3     H1       HT       0.417000       1.00800           0
     88771 TIP3     26285    TIP3     H2       HT       0.417000       1.00800           0
     88772 TIP3     26286    TIP3     OH2      OT      -0.834000       15.9994           0
     88773 TIP3     26286    TIP3     H1       HT       0.417000       1.00800           0
     88774 TIP3     26286    TIP3     H2       HT       0.417000       1.00800           0
     88775 TIP3     26287    TIP3     OH2      OT      -0.834000       15.9994           0
     88776 TIP3     26287    TIP3     H1       HT       0.417000       1.00800           0
     88777 TIP3     26287    TIP3     H2       HT       0.417000       1.00800           0
     88778 TIP3     26288    TIP3     OH2      OT      -0.834000       15.9994           0
     88779 TIP3     26288    TIP3     H1       HT       0.417000       1.00800           0
     88780 TIP3     26288    TIP3     H2       HT       0.417000       1.00800           0
     88781 TIP3     26289    TIP3     OH2      OT      -0.834000       15.9994           0
     88782 TIP3     26289    TIP3     H1       HT       0.417000       1.00800           0
     88783 TIP3     26289    TIP3     H2       HT       0.417000       1.00800           0
     88784 TIP3     26290    TIP3     OH2      OT      -0.834000       15.9994           0
     88785 TIP3     26290    TIP3     H1       HT       0.417000       1.00800           0
     88786 TIP3     26290    TIP3     H2       HT       0.417000       1.00800           0
     88787 TIP3     26291    TIP3     OH2      OT      -0.834000       15.9994           0
     88788 TIP3     26291    TIP3     H1       HT       0.417000       1.00800           0
     88789 TIP3     26291    TIP3     H2       HT       0.417000       1.00800           0
     88790 TIP3     26292    TIP3     OH2      OT      -0.834000       15.9994           0
     88791 TIP3     26292    TIP3     H1       HT       0.417000       1.00800           0
     88792 TIP3     26292    TIP3     H2       HT       0.417000       1.00800           0
     88793 TIP3     26293    TIP3     OH2      OT      -0.834000       15.9994           0
     88794 TIP3     26293    TIP3     H1       HT       0.417000       1.00800           0
     88795 TIP3     26293    TIP3     H2       HT       0.417000       1.00800           0
     88796 TIP3     26294    TIP3     OH2      OT      -0.834000       15.9994           0
     88797 TIP3     26294    TIP3     H1       HT       0.417000       1.00800           0
     88798 TIP3     26294    TIP3     H2       HT       0.417000       1.00800           0
     88799 TIP3     26295    TIP3     OH2      OT      -0.834000       15.9994           0
     88800 TIP3     26295    TIP3     H1       HT       0.417000       1.00800           0
     88801 TIP3     26295    TIP3     H2       HT       0.417000       1.00800           0
     88802 TIP3     26296    TIP3     OH2      OT      -0.834000       15.9994           0
     88803 TIP3     26296    TIP3     H1       HT       0.417000       1.00800           0
     88804 TIP3     26296    TIP3     H2       HT       0.417000       1.00800           0
     88805 TIP3     26297    TIP3     OH2      OT      -0.834000       15.9994           0
     88806 TIP3     26297    TIP3     H1       HT       0.417000       1.00800           0
     88807 TIP3     26297    TIP3     H2       HT       0.417000       1.00800           0
     88808 TIP3     26298    TIP3     OH2      OT      -0.834000       15.9994           0
     88809 TIP3     26298    TIP3     H1       HT       0.417000       1.00800           0
     88810 TIP3     26298    TIP3     H2       HT       0.417000       1.00800           0
     88811 TIP3     26299    TIP3     OH2      OT      -0.834000       15.9994           0
     88812 TIP3     26299    TIP3     H1       HT       0.417000       1.00800           0
     88813 TIP3     26299    TIP3     H2       HT       0.417000       1.00800           0
     88814 TIP3     26300    TIP3     OH2      OT      -0.834000       15.9994           0
     88815 TIP3     26300    TIP3     H1       HT       0.417000       1.00800           0
     88816 TIP3     26300    TIP3     H2       HT       0.417000       1.00800           0
     88817 TIP3     26301    TIP3     OH2      OT      -0.834000       15.9994           0
     88818 TIP3     26301    TIP3     H1       HT       0.417000       1.00800           0
     88819 TIP3     26301    TIP3     H2       HT       0.417000       1.00800           0
     88820 TIP3     26302    TIP3     OH2      OT      -0.834000       15.9994           0
     88821 TIP3     26302    TIP3     H1       HT       0.417000       1.00800           0
     88822 TIP3     26302    TIP3     H2       HT       0.417000       1.00800           0
     88823 TIP3     26303    TIP3     OH2      OT      -0.834000       15.9994           0
     88824 TIP3     26303    TIP3     H1       HT       0.417000       1.00800           0
     88825 TIP3     26303    TIP3     H2       HT       0.417000       1.00800           0
     88826 TIP3     26304    TIP3     OH2      OT      -0.834000       15.9994           0
     88827 TIP3     26304    TIP3     H1       HT       0.417000       1.00800           0
     88828 TIP3     26304    TIP3     H2       HT       0.417000       1.00800           0
     88829 TIP3     26305    TIP3     OH2      OT      -0.834000       15.9994           0
     88830 TIP3     26305    TIP3     H1       HT       0.417000       1.00800           0
     88831 TIP3     26305    TIP3     H2       HT       0.417000       1.00800           0
     88832 TIP3     26306    TIP3     OH2      OT      -0.834000       15.9994           0
     88833 TIP3     26306    TIP3     H1       HT       0.417000       1.00800           0
     88834 TIP3     26306    TIP3     H2       HT       0.417000       1.00800           0
     88835 TIP3     26307    TIP3     OH2      OT      -0.834000       15.9994           0
     88836 TIP3     26307    TIP3     H1       HT       0.417000       1.00800           0
     88837 TIP3     26307    TIP3     H2       HT       0.417000       1.00800           0
     88838 TIP3     26308    TIP3     OH2      OT      -0.834000       15.9994           0
     88839 TIP3     26308    TIP3     H1       HT       0.417000       1.00800           0
     88840 TIP3     26308    TIP3     H2       HT       0.417000       1.00800           0
     88841 TIP3     26309    TIP3     OH2      OT      -0.834000       15.9994           0
     88842 TIP3     26309    TIP3     H1       HT       0.417000       1.00800           0
     88843 TIP3     26309    TIP3     H2       HT       0.417000       1.00800           0
     88844 TIP3     26310    TIP3     OH2      OT      -0.834000       15.9994           0
     88845 TIP3     26310    TIP3     H1       HT       0.417000       1.00800           0
     88846 TIP3     26310    TIP3     H2       HT       0.417000       1.00800           0
     88847 TIP3     26311    TIP3     OH2      OT      -0.834000       15.9994           0
     88848 TIP3     26311    TIP3     H1       HT       0.417000       1.00800           0
     88849 TIP3     26311    TIP3     H2       HT       0.417000       1.00800           0
     88850 TIP3     26312    TIP3     OH2      OT      -0.834000       15.9994           0
     88851 TIP3     26312    TIP3     H1       HT       0.417000       1.00800           0
     88852 TIP3     26312    TIP3     H2       HT       0.417000       1.00800           0
     88853 TIP3     26313    TIP3     OH2      OT      -0.834000       15.9994           0
     88854 TIP3     26313    TIP3     H1       HT       0.417000       1.00800           0
     88855 TIP3     26313    TIP3     H2       HT       0.417000       1.00800           0
     88856 TIP3     26314    TIP3     OH2      OT      -0.834000       15.9994           0
     88857 TIP3     26314    TIP3     H1       HT       0.417000       1.00800           0
     88858 TIP3     26314    TIP3     H2       HT       0.417000       1.00800           0
     88859 TIP3     26315    TIP3     OH2      OT      -0.834000       15.9994           0
     88860 TIP3     26315    TIP3     H1       HT       0.417000       1.00800           0
     88861 TIP3     26315    TIP3     H2       HT       0.417000       1.00800           0
     88862 TIP3     26316    TIP3     OH2      OT      -0.834000       15.9994           0
     88863 TIP3     26316    TIP3     H1       HT       0.417000       1.00800           0
     88864 TIP3     26316    TIP3     H2       HT       0.417000       1.00800           0
     88865 TIP3     26317    TIP3     OH2      OT      -0.834000       15.9994           0
     88866 TIP3     26317    TIP3     H1       HT       0.417000       1.00800           0
     88867 TIP3     26317    TIP3     H2       HT       0.417000       1.00800           0
     88868 TIP3     26318    TIP3     OH2      OT      -0.834000       15.9994           0
     88869 TIP3     26318    TIP3     H1       HT       0.417000       1.00800           0
     88870 TIP3     26318    TIP3     H2       HT       0.417000       1.00800           0
     88871 TIP3     26319    TIP3     OH2      OT      -0.834000       15.9994           0
     88872 TIP3     26319    TIP3     H1       HT       0.417000       1.00800           0
     88873 TIP3     26319    TIP3     H2       HT       0.417000       1.00800           0
     88874 TIP3     26320    TIP3     OH2      OT      -0.834000       15.9994           0
     88875 TIP3     26320    TIP3     H1       HT       0.417000       1.00800           0
     88876 TIP3     26320    TIP3     H2       HT       0.417000       1.00800           0
     88877 TIP3     26321    TIP3     OH2      OT      -0.834000       15.9994           0
     88878 TIP3     26321    TIP3     H1       HT       0.417000       1.00800           0
     88879 TIP3     26321    TIP3     H2       HT       0.417000       1.00800           0
     88880 TIP3     26322    TIP3     OH2      OT      -0.834000       15.9994           0
     88881 TIP3     26322    TIP3     H1       HT       0.417000       1.00800           0
     88882 TIP3     26322    TIP3     H2       HT       0.417000       1.00800           0
     88883 TIP3     26323    TIP3     OH2      OT      -0.834000       15.9994           0
     88884 TIP3     26323    TIP3     H1       HT       0.417000       1.00800           0
     88885 TIP3     26323    TIP3     H2       HT       0.417000       1.00800           0
     88886 TIP3     26324    TIP3     OH2      OT      -0.834000       15.9994           0
     88887 TIP3     26324    TIP3     H1       HT       0.417000       1.00800           0
     88888 TIP3     26324    TIP3     H2       HT       0.417000       1.00800           0
     88889 TIP3     26325    TIP3     OH2      OT      -0.834000       15.9994           0
     88890 TIP3     26325    TIP3     H1       HT       0.417000       1.00800           0
     88891 TIP3     26325    TIP3     H2       HT       0.417000       1.00800           0
     88892 TIP3     26326    TIP3     OH2      OT      -0.834000       15.9994           0
     88893 TIP3     26326    TIP3     H1       HT       0.417000       1.00800           0
     88894 TIP3     26326    TIP3     H2       HT       0.417000       1.00800           0
     88895 TIP3     26327    TIP3     OH2      OT      -0.834000       15.9994           0
     88896 TIP3     26327    TIP3     H1       HT       0.417000       1.00800           0
     88897 TIP3     26327    TIP3     H2       HT       0.417000       1.00800           0
     88898 TIP3     26328    TIP3     OH2      OT      -0.834000       15.9994           0
     88899 TIP3     26328    TIP3     H1       HT       0.417000       1.00800           0
     88900 TIP3     26328    TIP3     H2       HT       0.417000       1.00800           0
     88901 TIP3     26329    TIP3     OH2      OT      -0.834000       15.9994           0
     88902 TIP3     26329    TIP3     H1       HT       0.417000       1.00800           0
     88903 TIP3     26329    TIP3     H2       HT       0.417000       1.00800           0
     88904 TIP3     26330    TIP3     OH2      OT      -0.834000       15.9994           0
     88905 TIP3     26330    TIP3     H1       HT       0.417000       1.00800           0
     88906 TIP3     26330    TIP3     H2       HT       0.417000       1.00800           0
     88907 TIP3     26331    TIP3     OH2      OT      -0.834000       15.9994           0
     88908 TIP3     26331    TIP3     H1       HT       0.417000       1.00800           0
     88909 TIP3     26331    TIP3     H2       HT       0.417000       1.00800           0
     88910 TIP3     26332    TIP3     OH2      OT      -0.834000       15.9994           0
     88911 TIP3     26332    TIP3     H1       HT       0.417000       1.00800           0
     88912 TIP3     26332    TIP3     H2       HT       0.417000       1.00800           0
     88913 TIP3     26333    TIP3     OH2      OT      -0.834000       15.9994           0
     88914 TIP3     26333    TIP3     H1       HT       0.417000       1.00800           0
     88915 TIP3     26333    TIP3     H2       HT       0.417000       1.00800           0
     88916 TIP3     26334    TIP3     OH2      OT      -0.834000       15.9994           0
     88917 TIP3     26334    TIP3     H1       HT       0.417000       1.00800           0
     88918 TIP3     26334    TIP3     H2       HT       0.417000       1.00800           0
     88919 TIP3     26335    TIP3     OH2      OT      -0.834000       15.9994           0
     88920 TIP3     26335    TIP3     H1       HT       0.417000       1.00800           0
     88921 TIP3     26335    TIP3     H2       HT       0.417000       1.00800           0
     88922 TIP3     26336    TIP3     OH2      OT      -0.834000       15.9994           0
     88923 TIP3     26336    TIP3     H1       HT       0.417000       1.00800           0
     88924 TIP3     26336    TIP3     H2       HT       0.417000       1.00800           0
     88925 TIP3     26337    TIP3     OH2      OT      -0.834000       15.9994           0
     88926 TIP3     26337    TIP3     H1       HT       0.417000       1.00800           0
     88927 TIP3     26337    TIP3     H2       HT       0.417000       1.00800           0
     88928 TIP3     26338    TIP3     OH2      OT      -0.834000       15.9994           0
     88929 TIP3     26338    TIP3     H1       HT       0.417000       1.00800           0
     88930 TIP3     26338    TIP3     H2       HT       0.417000       1.00800           0
     88931 TIP3     26339    TIP3     OH2      OT      -0.834000       15.9994           0
     88932 TIP3     26339    TIP3     H1       HT       0.417000       1.00800           0
     88933 TIP3     26339    TIP3     H2       HT       0.417000       1.00800           0
     88934 TIP3     26340    TIP3     OH2      OT      -0.834000       15.9994           0
     88935 TIP3     26340    TIP3     H1       HT       0.417000       1.00800           0
     88936 TIP3     26340    TIP3     H2       HT       0.417000       1.00800           0
     88937 TIP3     26341    TIP3     OH2      OT      -0.834000       15.9994           0
     88938 TIP3     26341    TIP3     H1       HT       0.417000       1.00800           0
     88939 TIP3     26341    TIP3     H2       HT       0.417000       1.00800           0
     88940 TIP3     26342    TIP3     OH2      OT      -0.834000       15.9994           0
     88941 TIP3     26342    TIP3     H1       HT       0.417000       1.00800           0
     88942 TIP3     26342    TIP3     H2       HT       0.417000       1.00800           0
     88943 TIP3     26343    TIP3     OH2      OT      -0.834000       15.9994           0
     88944 TIP3     26343    TIP3     H1       HT       0.417000       1.00800           0
     88945 TIP3     26343    TIP3     H2       HT       0.417000       1.00800           0
     88946 TIP3     26344    TIP3     OH2      OT      -0.834000       15.9994           0
     88947 TIP3     26344    TIP3     H1       HT       0.417000       1.00800           0
     88948 TIP3     26344    TIP3     H2       HT       0.417000       1.00800           0
     88949 TIP3     26345    TIP3     OH2      OT      -0.834000       15.9994           0
     88950 TIP3     26345    TIP3     H1       HT       0.417000       1.00800           0
     88951 TIP3     26345    TIP3     H2       HT       0.417000       1.00800           0
     88952 TIP3     26346    TIP3     OH2      OT      -0.834000       15.9994           0
     88953 TIP3     26346    TIP3     H1       HT       0.417000       1.00800           0
     88954 TIP3     26346    TIP3     H2       HT       0.417000       1.00800           0
     88955 TIP3     26347    TIP3     OH2      OT      -0.834000       15.9994           0
     88956 TIP3     26347    TIP3     H1       HT       0.417000       1.00800           0
     88957 TIP3     26347    TIP3     H2       HT       0.417000       1.00800           0
     88958 TIP3     26348    TIP3     OH2      OT      -0.834000       15.9994           0
     88959 TIP3     26348    TIP3     H1       HT       0.417000       1.00800           0
     88960 TIP3     26348    TIP3     H2       HT       0.417000       1.00800           0
     88961 TIP3     26349    TIP3     OH2      OT      -0.834000       15.9994           0
     88962 TIP3     26349    TIP3     H1       HT       0.417000       1.00800           0
     88963 TIP3     26349    TIP3     H2       HT       0.417000       1.00800           0
     88964 TIP3     26350    TIP3     OH2      OT      -0.834000       15.9994           0
     88965 TIP3     26350    TIP3     H1       HT       0.417000       1.00800           0
     88966 TIP3     26350    TIP3     H2       HT       0.417000       1.00800           0
     88967 TIP3     26351    TIP3     OH2      OT      -0.834000       15.9994           0
     88968 TIP3     26351    TIP3     H1       HT       0.417000       1.00800           0
     88969 TIP3     26351    TIP3     H2       HT       0.417000       1.00800           0
     88970 TIP3     26352    TIP3     OH2      OT      -0.834000       15.9994           0
     88971 TIP3     26352    TIP3     H1       HT       0.417000       1.00800           0
     88972 TIP3     26352    TIP3     H2       HT       0.417000       1.00800           0
     88973 TIP3     26353    TIP3     OH2      OT      -0.834000       15.9994           0
     88974 TIP3     26353    TIP3     H1       HT       0.417000       1.00800           0
     88975 TIP3     26353    TIP3     H2       HT       0.417000       1.00800           0
     88976 TIP3     26354    TIP3     OH2      OT      -0.834000       15.9994           0
     88977 TIP3     26354    TIP3     H1       HT       0.417000       1.00800           0
     88978 TIP3     26354    TIP3     H2       HT       0.417000       1.00800           0
     88979 TIP3     26355    TIP3     OH2      OT      -0.834000       15.9994           0
     88980 TIP3     26355    TIP3     H1       HT       0.417000       1.00800           0
     88981 TIP3     26355    TIP3     H2       HT       0.417000       1.00800           0
     88982 TIP3     26356    TIP3     OH2      OT      -0.834000       15.9994           0
     88983 TIP3     26356    TIP3     H1       HT       0.417000       1.00800           0
     88984 TIP3     26356    TIP3     H2       HT       0.417000       1.00800           0
     88985 TIP3     26357    TIP3     OH2      OT      -0.834000       15.9994           0
     88986 TIP3     26357    TIP3     H1       HT       0.417000       1.00800           0
     88987 TIP3     26357    TIP3     H2       HT       0.417000       1.00800           0
     88988 TIP3     26358    TIP3     OH2      OT      -0.834000       15.9994           0
     88989 TIP3     26358    TIP3     H1       HT       0.417000       1.00800           0
     88990 TIP3     26358    TIP3     H2       HT       0.417000       1.00800           0
     88991 TIP3     26359    TIP3     OH2      OT      -0.834000       15.9994           0
     88992 TIP3     26359    TIP3     H1       HT       0.417000       1.00800           0
     88993 TIP3     26359    TIP3     H2       HT       0.417000       1.00800           0
     88994 TIP3     26360    TIP3     OH2      OT      -0.834000       15.9994           0
     88995 TIP3     26360    TIP3     H1       HT       0.417000       1.00800           0
     88996 TIP3     26360    TIP3     H2       HT       0.417000       1.00800           0
     88997 TIP3     26361    TIP3     OH2      OT      -0.834000       15.9994           0
     88998 TIP3     26361    TIP3     H1       HT       0.417000       1.00800           0
     88999 TIP3     26361    TIP3     H2       HT       0.417000       1.00800           0
     89000 TIP3     26362    TIP3     OH2      OT      -0.834000       15.9994           0
     89001 TIP3     26362    TIP3     H1       HT       0.417000       1.00800           0
     89002 TIP3     26362    TIP3     H2       HT       0.417000       1.00800           0
     89003 TIP3     26363    TIP3     OH2      OT      -0.834000       15.9994           0
     89004 TIP3     26363    TIP3     H1       HT       0.417000       1.00800           0
     89005 TIP3     26363    TIP3     H2       HT       0.417000       1.00800           0
     89006 TIP3     26364    TIP3     OH2      OT      -0.834000       15.9994           0
     89007 TIP3     26364    TIP3     H1       HT       0.417000       1.00800           0
     89008 TIP3     26364    TIP3     H2       HT       0.417000       1.00800           0
     89009 TIP3     26365    TIP3     OH2      OT      -0.834000       15.9994           0
     89010 TIP3     26365    TIP3     H1       HT       0.417000       1.00800           0
     89011 TIP3     26365    TIP3     H2       HT       0.417000       1.00800           0
     89012 TIP3     26366    TIP3     OH2      OT      -0.834000       15.9994           0
     89013 TIP3     26366    TIP3     H1       HT       0.417000       1.00800           0
     89014 TIP3     26366    TIP3     H2       HT       0.417000       1.00800           0
     89015 TIP3     26367    TIP3     OH2      OT      -0.834000       15.9994           0
     89016 TIP3     26367    TIP3     H1       HT       0.417000       1.00800           0
     89017 TIP3     26367    TIP3     H2       HT       0.417000       1.00800           0
     89018 TIP3     26368    TIP3     OH2      OT      -0.834000       15.9994           0
     89019 TIP3     26368    TIP3     H1       HT       0.417000       1.00800           0
     89020 TIP3     26368    TIP3     H2       HT       0.417000       1.00800           0
     89021 TIP3     26369    TIP3     OH2      OT      -0.834000       15.9994           0
     89022 TIP3     26369    TIP3     H1       HT       0.417000       1.00800           0
     89023 TIP3     26369    TIP3     H2       HT       0.417000       1.00800           0
     89024 TIP3     26370    TIP3     OH2      OT      -0.834000       15.9994           0
     89025 TIP3     26370    TIP3     H1       HT       0.417000       1.00800           0
     89026 TIP3     26370    TIP3     H2       HT       0.417000       1.00800           0
     89027 TIP3     26371    TIP3     OH2      OT      -0.834000       15.9994           0
     89028 TIP3     26371    TIP3     H1       HT       0.417000       1.00800           0
     89029 TIP3     26371    TIP3     H2       HT       0.417000       1.00800           0
     89030 TIP3     26372    TIP3     OH2      OT      -0.834000       15.9994           0
     89031 TIP3     26372    TIP3     H1       HT       0.417000       1.00800           0
     89032 TIP3     26372    TIP3     H2       HT       0.417000       1.00800           0
     89033 TIP3     26373    TIP3     OH2      OT      -0.834000       15.9994           0
     89034 TIP3     26373    TIP3     H1       HT       0.417000       1.00800           0
     89035 TIP3     26373    TIP3     H2       HT       0.417000       1.00800           0
     89036 TIP3     26374    TIP3     OH2      OT      -0.834000       15.9994           0
     89037 TIP3     26374    TIP3     H1       HT       0.417000       1.00800           0
     89038 TIP3     26374    TIP3     H2       HT       0.417000       1.00800           0
     89039 TIP3     26375    TIP3     OH2      OT      -0.834000       15.9994           0
     89040 TIP3     26375    TIP3     H1       HT       0.417000       1.00800           0
     89041 TIP3     26375    TIP3     H2       HT       0.417000       1.00800           0
     89042 TIP3     26376    TIP3     OH2      OT      -0.834000       15.9994           0
     89043 TIP3     26376    TIP3     H1       HT       0.417000       1.00800           0
     89044 TIP3     26376    TIP3     H2       HT       0.417000       1.00800           0
     89045 TIP3     26377    TIP3     OH2      OT      -0.834000       15.9994           0
     89046 TIP3     26377    TIP3     H1       HT       0.417000       1.00800           0
     89047 TIP3     26377    TIP3     H2       HT       0.417000       1.00800           0
     89048 TIP3     26378    TIP3     OH2      OT      -0.834000       15.9994           0
     89049 TIP3     26378    TIP3     H1       HT       0.417000       1.00800           0
     89050 TIP3     26378    TIP3     H2       HT       0.417000       1.00800           0
     89051 TIP3     26379    TIP3     OH2      OT      -0.834000       15.9994           0
     89052 TIP3     26379    TIP3     H1       HT       0.417000       1.00800           0
     89053 TIP3     26379    TIP3     H2       HT       0.417000       1.00800           0
     89054 TIP3     26380    TIP3     OH2      OT      -0.834000       15.9994           0
     89055 TIP3     26380    TIP3     H1       HT       0.417000       1.00800           0
     89056 TIP3     26380    TIP3     H2       HT       0.417000       1.00800           0
     89057 TIP3     26381    TIP3     OH2      OT      -0.834000       15.9994           0
     89058 TIP3     26381    TIP3     H1       HT       0.417000       1.00800           0
     89059 TIP3     26381    TIP3     H2       HT       0.417000       1.00800           0
     89060 TIP3     26382    TIP3     OH2      OT      -0.834000       15.9994           0
     89061 TIP3     26382    TIP3     H1       HT       0.417000       1.00800           0
     89062 TIP3     26382    TIP3     H2       HT       0.417000       1.00800           0
     89063 TIP3     26383    TIP3     OH2      OT      -0.834000       15.9994           0
     89064 TIP3     26383    TIP3     H1       HT       0.417000       1.00800           0
     89065 TIP3     26383    TIP3     H2       HT       0.417000       1.00800           0
     89066 TIP3     26384    TIP3     OH2      OT      -0.834000       15.9994           0
     89067 TIP3     26384    TIP3     H1       HT       0.417000       1.00800           0
     89068 TIP3     26384    TIP3     H2       HT       0.417000       1.00800           0
     89069 TIP3     26385    TIP3     OH2      OT      -0.834000       15.9994           0
     89070 TIP3     26385    TIP3     H1       HT       0.417000       1.00800           0
     89071 TIP3     26385    TIP3     H2       HT       0.417000       1.00800           0
     89072 TIP3     26386    TIP3     OH2      OT      -0.834000       15.9994           0
     89073 TIP3     26386    TIP3     H1       HT       0.417000       1.00800           0
     89074 TIP3     26386    TIP3     H2       HT       0.417000       1.00800           0
     89075 TIP3     26387    TIP3     OH2      OT      -0.834000       15.9994           0
     89076 TIP3     26387    TIP3     H1       HT       0.417000       1.00800           0
     89077 TIP3     26387    TIP3     H2       HT       0.417000       1.00800           0
     89078 TIP3     26388    TIP3     OH2      OT      -0.834000       15.9994           0
     89079 TIP3     26388    TIP3     H1       HT       0.417000       1.00800           0
     89080 TIP3     26388    TIP3     H2       HT       0.417000       1.00800           0
     89081 TIP3     26389    TIP3     OH2      OT      -0.834000       15.9994           0
     89082 TIP3     26389    TIP3     H1       HT       0.417000       1.00800           0
     89083 TIP3     26389    TIP3     H2       HT       0.417000       1.00800           0
     89084 TIP3     26390    TIP3     OH2      OT      -0.834000       15.9994           0
     89085 TIP3     26390    TIP3     H1       HT       0.417000       1.00800           0
     89086 TIP3     26390    TIP3     H2       HT       0.417000       1.00800           0
     89087 TIP3     26391    TIP3     OH2      OT      -0.834000       15.9994           0
     89088 TIP3     26391    TIP3     H1       HT       0.417000       1.00800           0
     89089 TIP3     26391    TIP3     H2       HT       0.417000       1.00800           0
     89090 TIP3     26392    TIP3     OH2      OT      -0.834000       15.9994           0
     89091 TIP3     26392    TIP3     H1       HT       0.417000       1.00800           0
     89092 TIP3     26392    TIP3     H2       HT       0.417000       1.00800           0
     89093 TIP3     26393    TIP3     OH2      OT      -0.834000       15.9994           0
     89094 TIP3     26393    TIP3     H1       HT       0.417000       1.00800           0
     89095 TIP3     26393    TIP3     H2       HT       0.417000       1.00800           0
     89096 TIP3     26394    TIP3     OH2      OT      -0.834000       15.9994           0
     89097 TIP3     26394    TIP3     H1       HT       0.417000       1.00800           0
     89098 TIP3     26394    TIP3     H2       HT       0.417000       1.00800           0
     89099 TIP3     26395    TIP3     OH2      OT      -0.834000       15.9994           0
     89100 TIP3     26395    TIP3     H1       HT       0.417000       1.00800           0
     89101 TIP3     26395    TIP3     H2       HT       0.417000       1.00800           0
     89102 TIP3     26396    TIP3     OH2      OT      -0.834000       15.9994           0
     89103 TIP3     26396    TIP3     H1       HT       0.417000       1.00800           0
     89104 TIP3     26396    TIP3     H2       HT       0.417000       1.00800           0
     89105 TIP3     26397    TIP3     OH2      OT      -0.834000       15.9994           0
     89106 TIP3     26397    TIP3     H1       HT       0.417000       1.00800           0
     89107 TIP3     26397    TIP3     H2       HT       0.417000       1.00800           0
     89108 TIP3     26398    TIP3     OH2      OT      -0.834000       15.9994           0
     89109 TIP3     26398    TIP3     H1       HT       0.417000       1.00800           0
     89110 TIP3     26398    TIP3     H2       HT       0.417000       1.00800           0
     89111 TIP3     26399    TIP3     OH2      OT      -0.834000       15.9994           0
     89112 TIP3     26399    TIP3     H1       HT       0.417000       1.00800           0
     89113 TIP3     26399    TIP3     H2       HT       0.417000       1.00800           0
     89114 TIP3     26400    TIP3     OH2      OT      -0.834000       15.9994           0
     89115 TIP3     26400    TIP3     H1       HT       0.417000       1.00800           0
     89116 TIP3     26400    TIP3     H2       HT       0.417000       1.00800           0
     89117 TIP3     26401    TIP3     OH2      OT      -0.834000       15.9994           0
     89118 TIP3     26401    TIP3     H1       HT       0.417000       1.00800           0
     89119 TIP3     26401    TIP3     H2       HT       0.417000       1.00800           0
     89120 TIP3     26402    TIP3     OH2      OT      -0.834000       15.9994           0
     89121 TIP3     26402    TIP3     H1       HT       0.417000       1.00800           0
     89122 TIP3     26402    TIP3     H2       HT       0.417000       1.00800           0
     89123 TIP3     26403    TIP3     OH2      OT      -0.834000       15.9994           0
     89124 TIP3     26403    TIP3     H1       HT       0.417000       1.00800           0
     89125 TIP3     26403    TIP3     H2       HT       0.417000       1.00800           0
     89126 TIP3     26404    TIP3     OH2      OT      -0.834000       15.9994           0
     89127 TIP3     26404    TIP3     H1       HT       0.417000       1.00800           0
     89128 TIP3     26404    TIP3     H2       HT       0.417000       1.00800           0
     89129 TIP3     26405    TIP3     OH2      OT      -0.834000       15.9994           0
     89130 TIP3     26405    TIP3     H1       HT       0.417000       1.00800           0
     89131 TIP3     26405    TIP3     H2       HT       0.417000       1.00800           0
     89132 TIP3     26406    TIP3     OH2      OT      -0.834000       15.9994           0
     89133 TIP3     26406    TIP3     H1       HT       0.417000       1.00800           0
     89134 TIP3     26406    TIP3     H2       HT       0.417000       1.00800           0
     89135 TIP3     26407    TIP3     OH2      OT      -0.834000       15.9994           0
     89136 TIP3     26407    TIP3     H1       HT       0.417000       1.00800           0
     89137 TIP3     26407    TIP3     H2       HT       0.417000       1.00800           0
     89138 TIP3     26408    TIP3     OH2      OT      -0.834000       15.9994           0
     89139 TIP3     26408    TIP3     H1       HT       0.417000       1.00800           0
     89140 TIP3     26408    TIP3     H2       HT       0.417000       1.00800           0
     89141 TIP3     26409    TIP3     OH2      OT      -0.834000       15.9994           0
     89142 TIP3     26409    TIP3     H1       HT       0.417000       1.00800           0
     89143 TIP3     26409    TIP3     H2       HT       0.417000       1.00800           0
     89144 TIP3     26410    TIP3     OH2      OT      -0.834000       15.9994           0
     89145 TIP3     26410    TIP3     H1       HT       0.417000       1.00800           0
     89146 TIP3     26410    TIP3     H2       HT       0.417000       1.00800           0
     89147 TIP3     26411    TIP3     OH2      OT      -0.834000       15.9994           0
     89148 TIP3     26411    TIP3     H1       HT       0.417000       1.00800           0
     89149 TIP3     26411    TIP3     H2       HT       0.417000       1.00800           0
     89150 TIP3     26412    TIP3     OH2      OT      -0.834000       15.9994           0
     89151 TIP3     26412    TIP3     H1       HT       0.417000       1.00800           0
     89152 TIP3     26412    TIP3     H2       HT       0.417000       1.00800           0
     89153 TIP3     26413    TIP3     OH2      OT      -0.834000       15.9994           0
     89154 TIP3     26413    TIP3     H1       HT       0.417000       1.00800           0
     89155 TIP3     26413    TIP3     H2       HT       0.417000       1.00800           0
     89156 TIP3     26414    TIP3     OH2      OT      -0.834000       15.9994           0
     89157 TIP3     26414    TIP3     H1       HT       0.417000       1.00800           0
     89158 TIP3     26414    TIP3     H2       HT       0.417000       1.00800           0
     89159 TIP3     26415    TIP3     OH2      OT      -0.834000       15.9994           0
     89160 TIP3     26415    TIP3     H1       HT       0.417000       1.00800           0
     89161 TIP3     26415    TIP3     H2       HT       0.417000       1.00800           0
     89162 TIP3     26416    TIP3     OH2      OT      -0.834000       15.9994           0
     89163 TIP3     26416    TIP3     H1       HT       0.417000       1.00800           0
     89164 TIP3     26416    TIP3     H2       HT       0.417000       1.00800           0
     89165 TIP3     26417    TIP3     OH2      OT      -0.834000       15.9994           0
     89166 TIP3     26417    TIP3     H1       HT       0.417000       1.00800           0
     89167 TIP3     26417    TIP3     H2       HT       0.417000       1.00800           0
     89168 TIP3     26418    TIP3     OH2      OT      -0.834000       15.9994           0
     89169 TIP3     26418    TIP3     H1       HT       0.417000       1.00800           0
     89170 TIP3     26418    TIP3     H2       HT       0.417000       1.00800           0
     89171 TIP3     26419    TIP3     OH2      OT      -0.834000       15.9994           0
     89172 TIP3     26419    TIP3     H1       HT       0.417000       1.00800           0
     89173 TIP3     26419    TIP3     H2       HT       0.417000       1.00800           0
     89174 TIP3     26420    TIP3     OH2      OT      -0.834000       15.9994           0
     89175 TIP3     26420    TIP3     H1       HT       0.417000       1.00800           0
     89176 TIP3     26420    TIP3     H2       HT       0.417000       1.00800           0
     89177 TIP3     26421    TIP3     OH2      OT      -0.834000       15.9994           0
     89178 TIP3     26421    TIP3     H1       HT       0.417000       1.00800           0
     89179 TIP3     26421    TIP3     H2       HT       0.417000       1.00800           0
     89180 TIP3     26422    TIP3     OH2      OT      -0.834000       15.9994           0
     89181 TIP3     26422    TIP3     H1       HT       0.417000       1.00800           0
     89182 TIP3     26422    TIP3     H2       HT       0.417000       1.00800           0
     89183 TIP3     26423    TIP3     OH2      OT      -0.834000       15.9994           0
     89184 TIP3     26423    TIP3     H1       HT       0.417000       1.00800           0
     89185 TIP3     26423    TIP3     H2       HT       0.417000       1.00800           0
     89186 TIP3     26424    TIP3     OH2      OT      -0.834000       15.9994           0
     89187 TIP3     26424    TIP3     H1       HT       0.417000       1.00800           0
     89188 TIP3     26424    TIP3     H2       HT       0.417000       1.00800           0
     89189 TIP3     26425    TIP3     OH2      OT      -0.834000       15.9994           0
     89190 TIP3     26425    TIP3     H1       HT       0.417000       1.00800           0
     89191 TIP3     26425    TIP3     H2       HT       0.417000       1.00800           0
     89192 TIP3     26426    TIP3     OH2      OT      -0.834000       15.9994           0
     89193 TIP3     26426    TIP3     H1       HT       0.417000       1.00800           0
     89194 TIP3     26426    TIP3     H2       HT       0.417000       1.00800           0
     89195 TIP3     26427    TIP3     OH2      OT      -0.834000       15.9994           0
     89196 TIP3     26427    TIP3     H1       HT       0.417000       1.00800           0
     89197 TIP3     26427    TIP3     H2       HT       0.417000       1.00800           0
     89198 TIP3     26428    TIP3     OH2      OT      -0.834000       15.9994           0
     89199 TIP3     26428    TIP3     H1       HT       0.417000       1.00800           0
     89200 TIP3     26428    TIP3     H2       HT       0.417000       1.00800           0
     89201 TIP3     26429    TIP3     OH2      OT      -0.834000       15.9994           0
     89202 TIP3     26429    TIP3     H1       HT       0.417000       1.00800           0
     89203 TIP3     26429    TIP3     H2       HT       0.417000       1.00800           0
     89204 TIP3     26430    TIP3     OH2      OT      -0.834000       15.9994           0
     89205 TIP3     26430    TIP3     H1       HT       0.417000       1.00800           0
     89206 TIP3     26430    TIP3     H2       HT       0.417000       1.00800           0
     89207 TIP3     26431    TIP3     OH2      OT      -0.834000       15.9994           0
     89208 TIP3     26431    TIP3     H1       HT       0.417000       1.00800           0
     89209 TIP3     26431    TIP3     H2       HT       0.417000       1.00800           0
     89210 TIP3     26432    TIP3     OH2      OT      -0.834000       15.9994           0
     89211 TIP3     26432    TIP3     H1       HT       0.417000       1.00800           0
     89212 TIP3     26432    TIP3     H2       HT       0.417000       1.00800           0
     89213 TIP3     26433    TIP3     OH2      OT      -0.834000       15.9994           0
     89214 TIP3     26433    TIP3     H1       HT       0.417000       1.00800           0
     89215 TIP3     26433    TIP3     H2       HT       0.417000       1.00800           0
     89216 TIP3     26434    TIP3     OH2      OT      -0.834000       15.9994           0
     89217 TIP3     26434    TIP3     H1       HT       0.417000       1.00800           0
     89218 TIP3     26434    TIP3     H2       HT       0.417000       1.00800           0
     89219 TIP3     26435    TIP3     OH2      OT      -0.834000       15.9994           0
     89220 TIP3     26435    TIP3     H1       HT       0.417000       1.00800           0
     89221 TIP3     26435    TIP3     H2       HT       0.417000       1.00800           0
     89222 TIP3     26436    TIP3     OH2      OT      -0.834000       15.9994           0
     89223 TIP3     26436    TIP3     H1       HT       0.417000       1.00800           0
     89224 TIP3     26436    TIP3     H2       HT       0.417000       1.00800           0
     89225 TIP3     26437    TIP3     OH2      OT      -0.834000       15.9994           0
     89226 TIP3     26437    TIP3     H1       HT       0.417000       1.00800           0
     89227 TIP3     26437    TIP3     H2       HT       0.417000       1.00800           0
     89228 TIP3     26438    TIP3     OH2      OT      -0.834000       15.9994           0
     89229 TIP3     26438    TIP3     H1       HT       0.417000       1.00800           0
     89230 TIP3     26438    TIP3     H2       HT       0.417000       1.00800           0
     89231 TIP3     26439    TIP3     OH2      OT      -0.834000       15.9994           0
     89232 TIP3     26439    TIP3     H1       HT       0.417000       1.00800           0
     89233 TIP3     26439    TIP3     H2       HT       0.417000       1.00800           0
     89234 TIP3     26440    TIP3     OH2      OT      -0.834000       15.9994           0
     89235 TIP3     26440    TIP3     H1       HT       0.417000       1.00800           0
     89236 TIP3     26440    TIP3     H2       HT       0.417000       1.00800           0
     89237 TIP3     26441    TIP3     OH2      OT      -0.834000       15.9994           0
     89238 TIP3     26441    TIP3     H1       HT       0.417000       1.00800           0
     89239 TIP3     26441    TIP3     H2       HT       0.417000       1.00800           0
     89240 TIP3     26442    TIP3     OH2      OT      -0.834000       15.9994           0
     89241 TIP3     26442    TIP3     H1       HT       0.417000       1.00800           0
     89242 TIP3     26442    TIP3     H2       HT       0.417000       1.00800           0
     89243 TIP3     26443    TIP3     OH2      OT      -0.834000       15.9994           0
     89244 TIP3     26443    TIP3     H1       HT       0.417000       1.00800           0
     89245 TIP3     26443    TIP3     H2       HT       0.417000       1.00800           0
     89246 TIP3     26444    TIP3     OH2      OT      -0.834000       15.9994           0
     89247 TIP3     26444    TIP3     H1       HT       0.417000       1.00800           0
     89248 TIP3     26444    TIP3     H2       HT       0.417000       1.00800           0
     89249 TIP3     26445    TIP3     OH2      OT      -0.834000       15.9994           0
     89250 TIP3     26445    TIP3     H1       HT       0.417000       1.00800           0
     89251 TIP3     26445    TIP3     H2       HT       0.417000       1.00800           0
     89252 TIP3     26446    TIP3     OH2      OT      -0.834000       15.9994           0
     89253 TIP3     26446    TIP3     H1       HT       0.417000       1.00800           0
     89254 TIP3     26446    TIP3     H2       HT       0.417000       1.00800           0
     89255 TIP3     26447    TIP3     OH2      OT      -0.834000       15.9994           0
     89256 TIP3     26447    TIP3     H1       HT       0.417000       1.00800           0
     89257 TIP3     26447    TIP3     H2       HT       0.417000       1.00800           0
     89258 TIP3     26448    TIP3     OH2      OT      -0.834000       15.9994           0
     89259 TIP3     26448    TIP3     H1       HT       0.417000       1.00800           0
     89260 TIP3     26448    TIP3     H2       HT       0.417000       1.00800           0
     89261 TIP3     26449    TIP3     OH2      OT      -0.834000       15.9994           0
     89262 TIP3     26449    TIP3     H1       HT       0.417000       1.00800           0
     89263 TIP3     26449    TIP3     H2       HT       0.417000       1.00800           0
     89264 TIP3     26450    TIP3     OH2      OT      -0.834000       15.9994           0
     89265 TIP3     26450    TIP3     H1       HT       0.417000       1.00800           0
     89266 TIP3     26450    TIP3     H2       HT       0.417000       1.00800           0
     89267 TIP3     26451    TIP3     OH2      OT      -0.834000       15.9994           0
     89268 TIP3     26451    TIP3     H1       HT       0.417000       1.00800           0
     89269 TIP3     26451    TIP3     H2       HT       0.417000       1.00800           0
     89270 TIP3     26452    TIP3     OH2      OT      -0.834000       15.9994           0
     89271 TIP3     26452    TIP3     H1       HT       0.417000       1.00800           0
     89272 TIP3     26452    TIP3     H2       HT       0.417000       1.00800           0
     89273 TIP3     26453    TIP3     OH2      OT      -0.834000       15.9994           0
     89274 TIP3     26453    TIP3     H1       HT       0.417000       1.00800           0
     89275 TIP3     26453    TIP3     H2       HT       0.417000       1.00800           0
     89276 TIP3     26454    TIP3     OH2      OT      -0.834000       15.9994           0
     89277 TIP3     26454    TIP3     H1       HT       0.417000       1.00800           0
     89278 TIP3     26454    TIP3     H2       HT       0.417000       1.00800           0
     89279 TIP3     26455    TIP3     OH2      OT      -0.834000       15.9994           0
     89280 TIP3     26455    TIP3     H1       HT       0.417000       1.00800           0
     89281 TIP3     26455    TIP3     H2       HT       0.417000       1.00800           0
     89282 TIP3     26456    TIP3     OH2      OT      -0.834000       15.9994           0
     89283 TIP3     26456    TIP3     H1       HT       0.417000       1.00800           0
     89284 TIP3     26456    TIP3     H2       HT       0.417000       1.00800           0
     89285 TIP3     26457    TIP3     OH2      OT      -0.834000       15.9994           0
     89286 TIP3     26457    TIP3     H1       HT       0.417000       1.00800           0
     89287 TIP3     26457    TIP3     H2       HT       0.417000       1.00800           0
     89288 TIP3     26458    TIP3     OH2      OT      -0.834000       15.9994           0
     89289 TIP3     26458    TIP3     H1       HT       0.417000       1.00800           0
     89290 TIP3     26458    TIP3     H2       HT       0.417000       1.00800           0
     89291 TIP3     26459    TIP3     OH2      OT      -0.834000       15.9994           0
     89292 TIP3     26459    TIP3     H1       HT       0.417000       1.00800           0
     89293 TIP3     26459    TIP3     H2       HT       0.417000       1.00800           0
     89294 TIP3     26460    TIP3     OH2      OT      -0.834000       15.9994           0
     89295 TIP3     26460    TIP3     H1       HT       0.417000       1.00800           0
     89296 TIP3     26460    TIP3     H2       HT       0.417000       1.00800           0
     89297 TIP3     26461    TIP3     OH2      OT      -0.834000       15.9994           0
     89298 TIP3     26461    TIP3     H1       HT       0.417000       1.00800           0
     89299 TIP3     26461    TIP3     H2       HT       0.417000       1.00800           0
     89300 TIP3     26462    TIP3     OH2      OT      -0.834000       15.9994           0
     89301 TIP3     26462    TIP3     H1       HT       0.417000       1.00800           0
     89302 TIP3     26462    TIP3     H2       HT       0.417000       1.00800           0
     89303 TIP3     26463    TIP3     OH2      OT      -0.834000       15.9994           0
     89304 TIP3     26463    TIP3     H1       HT       0.417000       1.00800           0
     89305 TIP3     26463    TIP3     H2       HT       0.417000       1.00800           0
     89306 TIP3     26464    TIP3     OH2      OT      -0.834000       15.9994           0
     89307 TIP3     26464    TIP3     H1       HT       0.417000       1.00800           0
     89308 TIP3     26464    TIP3     H2       HT       0.417000       1.00800           0
     89309 TIP3     26465    TIP3     OH2      OT      -0.834000       15.9994           0
     89310 TIP3     26465    TIP3     H1       HT       0.417000       1.00800           0
     89311 TIP3     26465    TIP3     H2       HT       0.417000       1.00800           0
     89312 TIP3     26466    TIP3     OH2      OT      -0.834000       15.9994           0
     89313 TIP3     26466    TIP3     H1       HT       0.417000       1.00800           0
     89314 TIP3     26466    TIP3     H2       HT       0.417000       1.00800           0
     89315 TIP3     26467    TIP3     OH2      OT      -0.834000       15.9994           0
     89316 TIP3     26467    TIP3     H1       HT       0.417000       1.00800           0
     89317 TIP3     26467    TIP3     H2       HT       0.417000       1.00800           0
     89318 TIP3     26468    TIP3     OH2      OT      -0.834000       15.9994           0
     89319 TIP3     26468    TIP3     H1       HT       0.417000       1.00800           0
     89320 TIP3     26468    TIP3     H2       HT       0.417000       1.00800           0
     89321 TIP3     26469    TIP3     OH2      OT      -0.834000       15.9994           0
     89322 TIP3     26469    TIP3     H1       HT       0.417000       1.00800           0
     89323 TIP3     26469    TIP3     H2       HT       0.417000       1.00800           0
     89324 TIP3     26470    TIP3     OH2      OT      -0.834000       15.9994           0
     89325 TIP3     26470    TIP3     H1       HT       0.417000       1.00800           0
     89326 TIP3     26470    TIP3     H2       HT       0.417000       1.00800           0
     89327 TIP3     26471    TIP3     OH2      OT      -0.834000       15.9994           0
     89328 TIP3     26471    TIP3     H1       HT       0.417000       1.00800           0
     89329 TIP3     26471    TIP3     H2       HT       0.417000       1.00800           0
     89330 TIP3     26472    TIP3     OH2      OT      -0.834000       15.9994           0
     89331 TIP3     26472    TIP3     H1       HT       0.417000       1.00800           0
     89332 TIP3     26472    TIP3     H2       HT       0.417000       1.00800           0
     89333 TIP3     26473    TIP3     OH2      OT      -0.834000       15.9994           0
     89334 TIP3     26473    TIP3     H1       HT       0.417000       1.00800           0
     89335 TIP3     26473    TIP3     H2       HT       0.417000       1.00800           0
     89336 TIP3     26474    TIP3     OH2      OT      -0.834000       15.9994           0
     89337 TIP3     26474    TIP3     H1       HT       0.417000       1.00800           0
     89338 TIP3     26474    TIP3     H2       HT       0.417000       1.00800           0
     89339 TIP3     26475    TIP3     OH2      OT      -0.834000       15.9994           0
     89340 TIP3     26475    TIP3     H1       HT       0.417000       1.00800           0
     89341 TIP3     26475    TIP3     H2       HT       0.417000       1.00800           0
     89342 TIP3     26476    TIP3     OH2      OT      -0.834000       15.9994           0
     89343 TIP3     26476    TIP3     H1       HT       0.417000       1.00800           0
     89344 TIP3     26476    TIP3     H2       HT       0.417000       1.00800           0
     89345 TIP3     26477    TIP3     OH2      OT      -0.834000       15.9994           0
     89346 TIP3     26477    TIP3     H1       HT       0.417000       1.00800           0
     89347 TIP3     26477    TIP3     H2       HT       0.417000       1.00800           0
     89348 TIP3     26478    TIP3     OH2      OT      -0.834000       15.9994           0
     89349 TIP3     26478    TIP3     H1       HT       0.417000       1.00800           0
     89350 TIP3     26478    TIP3     H2       HT       0.417000       1.00800           0
     89351 TIP3     26479    TIP3     OH2      OT      -0.834000       15.9994           0
     89352 TIP3     26479    TIP3     H1       HT       0.417000       1.00800           0
     89353 TIP3     26479    TIP3     H2       HT       0.417000       1.00800           0
     89354 TIP3     26480    TIP3     OH2      OT      -0.834000       15.9994           0
     89355 TIP3     26480    TIP3     H1       HT       0.417000       1.00800           0
     89356 TIP3     26480    TIP3     H2       HT       0.417000       1.00800           0
     89357 TIP3     26481    TIP3     OH2      OT      -0.834000       15.9994           0
     89358 TIP3     26481    TIP3     H1       HT       0.417000       1.00800           0
     89359 TIP3     26481    TIP3     H2       HT       0.417000       1.00800           0
     89360 TIP3     26482    TIP3     OH2      OT      -0.834000       15.9994           0
     89361 TIP3     26482    TIP3     H1       HT       0.417000       1.00800           0
     89362 TIP3     26482    TIP3     H2       HT       0.417000       1.00800           0
     89363 TIP3     26483    TIP3     OH2      OT      -0.834000       15.9994           0
     89364 TIP3     26483    TIP3     H1       HT       0.417000       1.00800           0
     89365 TIP3     26483    TIP3     H2       HT       0.417000       1.00800           0
     89366 TIP3     26484    TIP3     OH2      OT      -0.834000       15.9994           0
     89367 TIP3     26484    TIP3     H1       HT       0.417000       1.00800           0
     89368 TIP3     26484    TIP3     H2       HT       0.417000       1.00800           0
     89369 TIP3     26485    TIP3     OH2      OT      -0.834000       15.9994           0
     89370 TIP3     26485    TIP3     H1       HT       0.417000       1.00800           0
     89371 TIP3     26485    TIP3     H2       HT       0.417000       1.00800           0
     89372 TIP3     26486    TIP3     OH2      OT      -0.834000       15.9994           0
     89373 TIP3     26486    TIP3     H1       HT       0.417000       1.00800           0
     89374 TIP3     26486    TIP3     H2       HT       0.417000       1.00800           0
     89375 TIP3     26487    TIP3     OH2      OT      -0.834000       15.9994           0
     89376 TIP3     26487    TIP3     H1       HT       0.417000       1.00800           0
     89377 TIP3     26487    TIP3     H2       HT       0.417000       1.00800           0
     89378 TIP3     26488    TIP3     OH2      OT      -0.834000       15.9994           0
     89379 TIP3     26488    TIP3     H1       HT       0.417000       1.00800           0
     89380 TIP3     26488    TIP3     H2       HT       0.417000       1.00800           0
     89381 TIP3     26489    TIP3     OH2      OT      -0.834000       15.9994           0
     89382 TIP3     26489    TIP3     H1       HT       0.417000       1.00800           0
     89383 TIP3     26489    TIP3     H2       HT       0.417000       1.00800           0
     89384 TIP3     26490    TIP3     OH2      OT      -0.834000       15.9994           0
     89385 TIP3     26490    TIP3     H1       HT       0.417000       1.00800           0
     89386 TIP3     26490    TIP3     H2       HT       0.417000       1.00800           0
     89387 TIP3     26491    TIP3     OH2      OT      -0.834000       15.9994           0
     89388 TIP3     26491    TIP3     H1       HT       0.417000       1.00800           0
     89389 TIP3     26491    TIP3     H2       HT       0.417000       1.00800           0
     89390 TIP3     26492    TIP3     OH2      OT      -0.834000       15.9994           0
     89391 TIP3     26492    TIP3     H1       HT       0.417000       1.00800           0
     89392 TIP3     26492    TIP3     H2       HT       0.417000       1.00800           0
     89393 TIP3     26493    TIP3     OH2      OT      -0.834000       15.9994           0
     89394 TIP3     26493    TIP3     H1       HT       0.417000       1.00800           0
     89395 TIP3     26493    TIP3     H2       HT       0.417000       1.00800           0
     89396 TIP3     26494    TIP3     OH2      OT      -0.834000       15.9994           0
     89397 TIP3     26494    TIP3     H1       HT       0.417000       1.00800           0
     89398 TIP3     26494    TIP3     H2       HT       0.417000       1.00800           0
     89399 TIP3     26495    TIP3     OH2      OT      -0.834000       15.9994           0
     89400 TIP3     26495    TIP3     H1       HT       0.417000       1.00800           0
     89401 TIP3     26495    TIP3     H2       HT       0.417000       1.00800           0
     89402 TIP3     26496    TIP3     OH2      OT      -0.834000       15.9994           0
     89403 TIP3     26496    TIP3     H1       HT       0.417000       1.00800           0
     89404 TIP3     26496    TIP3     H2       HT       0.417000       1.00800           0
     89405 TIP3     26497    TIP3     OH2      OT      -0.834000       15.9994           0
     89406 TIP3     26497    TIP3     H1       HT       0.417000       1.00800           0
     89407 TIP3     26497    TIP3     H2       HT       0.417000       1.00800           0
     89408 TIP3     26498    TIP3     OH2      OT      -0.834000       15.9994           0
     89409 TIP3     26498    TIP3     H1       HT       0.417000       1.00800           0
     89410 TIP3     26498    TIP3     H2       HT       0.417000       1.00800           0
     89411 TIP3     26499    TIP3     OH2      OT      -0.834000       15.9994           0
     89412 TIP3     26499    TIP3     H1       HT       0.417000       1.00800           0
     89413 TIP3     26499    TIP3     H2       HT       0.417000       1.00800           0
     89414 TIP3     26500    TIP3     OH2      OT      -0.834000       15.9994           0
     89415 TIP3     26500    TIP3     H1       HT       0.417000       1.00800           0
     89416 TIP3     26500    TIP3     H2       HT       0.417000       1.00800           0
     89417 TIP3     26501    TIP3     OH2      OT      -0.834000       15.9994           0
     89418 TIP3     26501    TIP3     H1       HT       0.417000       1.00800           0
     89419 TIP3     26501    TIP3     H2       HT       0.417000       1.00800           0
     89420 TIP3     26502    TIP3     OH2      OT      -0.834000       15.9994           0
     89421 TIP3     26502    TIP3     H1       HT       0.417000       1.00800           0
     89422 TIP3     26502    TIP3     H2       HT       0.417000       1.00800           0
     89423 TIP3     26503    TIP3     OH2      OT      -0.834000       15.9994           0
     89424 TIP3     26503    TIP3     H1       HT       0.417000       1.00800           0
     89425 TIP3     26503    TIP3     H2       HT       0.417000       1.00800           0
     89426 TIP3     26504    TIP3     OH2      OT      -0.834000       15.9994           0
     89427 TIP3     26504    TIP3     H1       HT       0.417000       1.00800           0
     89428 TIP3     26504    TIP3     H2       HT       0.417000       1.00800           0
     89429 TIP3     26505    TIP3     OH2      OT      -0.834000       15.9994           0
     89430 TIP3     26505    TIP3     H1       HT       0.417000       1.00800           0
     89431 TIP3     26505    TIP3     H2       HT       0.417000       1.00800           0
     89432 TIP3     26506    TIP3     OH2      OT      -0.834000       15.9994           0
     89433 TIP3     26506    TIP3     H1       HT       0.417000       1.00800           0
     89434 TIP3     26506    TIP3     H2       HT       0.417000       1.00800           0
     89435 TIP3     26507    TIP3     OH2      OT      -0.834000       15.9994           0
     89436 TIP3     26507    TIP3     H1       HT       0.417000       1.00800           0
     89437 TIP3     26507    TIP3     H2       HT       0.417000       1.00800           0
     89438 TIP3     26508    TIP3     OH2      OT      -0.834000       15.9994           0
     89439 TIP3     26508    TIP3     H1       HT       0.417000       1.00800           0
     89440 TIP3     26508    TIP3     H2       HT       0.417000       1.00800           0
     89441 TIP3     26509    TIP3     OH2      OT      -0.834000       15.9994           0
     89442 TIP3     26509    TIP3     H1       HT       0.417000       1.00800           0
     89443 TIP3     26509    TIP3     H2       HT       0.417000       1.00800           0
     89444 TIP3     26510    TIP3     OH2      OT      -0.834000       15.9994           0
     89445 TIP3     26510    TIP3     H1       HT       0.417000       1.00800           0
     89446 TIP3     26510    TIP3     H2       HT       0.417000       1.00800           0
     89447 TIP3     26511    TIP3     OH2      OT      -0.834000       15.9994           0
     89448 TIP3     26511    TIP3     H1       HT       0.417000       1.00800           0
     89449 TIP3     26511    TIP3     H2       HT       0.417000       1.00800           0
     89450 TIP3     26512    TIP3     OH2      OT      -0.834000       15.9994           0
     89451 TIP3     26512    TIP3     H1       HT       0.417000       1.00800           0
     89452 TIP3     26512    TIP3     H2       HT       0.417000       1.00800           0
     89453 TIP3     26513    TIP3     OH2      OT      -0.834000       15.9994           0
     89454 TIP3     26513    TIP3     H1       HT       0.417000       1.00800           0
     89455 TIP3     26513    TIP3     H2       HT       0.417000       1.00800           0
     89456 TIP3     26514    TIP3     OH2      OT      -0.834000       15.9994           0
     89457 TIP3     26514    TIP3     H1       HT       0.417000       1.00800           0
     89458 TIP3     26514    TIP3     H2       HT       0.417000       1.00800           0
     89459 TIP3     26515    TIP3     OH2      OT      -0.834000       15.9994           0
     89460 TIP3     26515    TIP3     H1       HT       0.417000       1.00800           0
     89461 TIP3     26515    TIP3     H2       HT       0.417000       1.00800           0
     89462 TIP3     26516    TIP3     OH2      OT      -0.834000       15.9994           0
     89463 TIP3     26516    TIP3     H1       HT       0.417000       1.00800           0
     89464 TIP3     26516    TIP3     H2       HT       0.417000       1.00800           0
     89465 TIP3     26517    TIP3     OH2      OT      -0.834000       15.9994           0
     89466 TIP3     26517    TIP3     H1       HT       0.417000       1.00800           0
     89467 TIP3     26517    TIP3     H2       HT       0.417000       1.00800           0
     89468 TIP3     26518    TIP3     OH2      OT      -0.834000       15.9994           0
     89469 TIP3     26518    TIP3     H1       HT       0.417000       1.00800           0
     89470 TIP3     26518    TIP3     H2       HT       0.417000       1.00800           0
     89471 TIP3     26519    TIP3     OH2      OT      -0.834000       15.9994           0
     89472 TIP3     26519    TIP3     H1       HT       0.417000       1.00800           0
     89473 TIP3     26519    TIP3     H2       HT       0.417000       1.00800           0
     89474 TIP3     26520    TIP3     OH2      OT      -0.834000       15.9994           0
     89475 TIP3     26520    TIP3     H1       HT       0.417000       1.00800           0
     89476 TIP3     26520    TIP3     H2       HT       0.417000       1.00800           0
     89477 TIP3     26521    TIP3     OH2      OT      -0.834000       15.9994           0
     89478 TIP3     26521    TIP3     H1       HT       0.417000       1.00800           0
     89479 TIP3     26521    TIP3     H2       HT       0.417000       1.00800           0
     89480 TIP3     26522    TIP3     OH2      OT      -0.834000       15.9994           0
     89481 TIP3     26522    TIP3     H1       HT       0.417000       1.00800           0
     89482 TIP3     26522    TIP3     H2       HT       0.417000       1.00800           0
     89483 TIP3     26523    TIP3     OH2      OT      -0.834000       15.9994           0
     89484 TIP3     26523    TIP3     H1       HT       0.417000       1.00800           0
     89485 TIP3     26523    TIP3     H2       HT       0.417000       1.00800           0
     89486 TIP3     26524    TIP3     OH2      OT      -0.834000       15.9994           0
     89487 TIP3     26524    TIP3     H1       HT       0.417000       1.00800           0
     89488 TIP3     26524    TIP3     H2       HT       0.417000       1.00800           0
     89489 TIP3     26525    TIP3     OH2      OT      -0.834000       15.9994           0
     89490 TIP3     26525    TIP3     H1       HT       0.417000       1.00800           0
     89491 TIP3     26525    TIP3     H2       HT       0.417000       1.00800           0
     89492 TIP3     26526    TIP3     OH2      OT      -0.834000       15.9994           0
     89493 TIP3     26526    TIP3     H1       HT       0.417000       1.00800           0
     89494 TIP3     26526    TIP3     H2       HT       0.417000       1.00800           0
     89495 TIP3     26527    TIP3     OH2      OT      -0.834000       15.9994           0
     89496 TIP3     26527    TIP3     H1       HT       0.417000       1.00800           0
     89497 TIP3     26527    TIP3     H2       HT       0.417000       1.00800           0
     89498 TIP3     26528    TIP3     OH2      OT      -0.834000       15.9994           0
     89499 TIP3     26528    TIP3     H1       HT       0.417000       1.00800           0
     89500 TIP3     26528    TIP3     H2       HT       0.417000       1.00800           0
     89501 TIP3     26529    TIP3     OH2      OT      -0.834000       15.9994           0
     89502 TIP3     26529    TIP3     H1       HT       0.417000       1.00800           0
     89503 TIP3     26529    TIP3     H2       HT       0.417000       1.00800           0
     89504 TIP3     26530    TIP3     OH2      OT      -0.834000       15.9994           0
     89505 TIP3     26530    TIP3     H1       HT       0.417000       1.00800           0
     89506 TIP3     26530    TIP3     H2       HT       0.417000       1.00800           0
     89507 TIP3     26531    TIP3     OH2      OT      -0.834000       15.9994           0
     89508 TIP3     26531    TIP3     H1       HT       0.417000       1.00800           0
     89509 TIP3     26531    TIP3     H2       HT       0.417000       1.00800           0
     89510 TIP3     26532    TIP3     OH2      OT      -0.834000       15.9994           0
     89511 TIP3     26532    TIP3     H1       HT       0.417000       1.00800           0
     89512 TIP3     26532    TIP3     H2       HT       0.417000       1.00800           0
     89513 TIP3     26533    TIP3     OH2      OT      -0.834000       15.9994           0
     89514 TIP3     26533    TIP3     H1       HT       0.417000       1.00800           0
     89515 TIP3     26533    TIP3     H2       HT       0.417000       1.00800           0
     89516 TIP3     26534    TIP3     OH2      OT      -0.834000       15.9994           0
     89517 TIP3     26534    TIP3     H1       HT       0.417000       1.00800           0
     89518 TIP3     26534    TIP3     H2       HT       0.417000       1.00800           0
     89519 TIP3     26535    TIP3     OH2      OT      -0.834000       15.9994           0
     89520 TIP3     26535    TIP3     H1       HT       0.417000       1.00800           0
     89521 TIP3     26535    TIP3     H2       HT       0.417000       1.00800           0
     89522 TIP3     26536    TIP3     OH2      OT      -0.834000       15.9994           0
     89523 TIP3     26536    TIP3     H1       HT       0.417000       1.00800           0
     89524 TIP3     26536    TIP3     H2       HT       0.417000       1.00800           0
     89525 TIP3     26537    TIP3     OH2      OT      -0.834000       15.9994           0
     89526 TIP3     26537    TIP3     H1       HT       0.417000       1.00800           0
     89527 TIP3     26537    TIP3     H2       HT       0.417000       1.00800           0
     89528 TIP3     26538    TIP3     OH2      OT      -0.834000       15.9994           0
     89529 TIP3     26538    TIP3     H1       HT       0.417000       1.00800           0
     89530 TIP3     26538    TIP3     H2       HT       0.417000       1.00800           0
     89531 TIP3     26539    TIP3     OH2      OT      -0.834000       15.9994           0
     89532 TIP3     26539    TIP3     H1       HT       0.417000       1.00800           0
     89533 TIP3     26539    TIP3     H2       HT       0.417000       1.00800           0
     89534 TIP3     26540    TIP3     OH2      OT      -0.834000       15.9994           0
     89535 TIP3     26540    TIP3     H1       HT       0.417000       1.00800           0
     89536 TIP3     26540    TIP3     H2       HT       0.417000       1.00800           0
     89537 TIP3     26541    TIP3     OH2      OT      -0.834000       15.9994           0
     89538 TIP3     26541    TIP3     H1       HT       0.417000       1.00800           0
     89539 TIP3     26541    TIP3     H2       HT       0.417000       1.00800           0
     89540 TIP3     26542    TIP3     OH2      OT      -0.834000       15.9994           0
     89541 TIP3     26542    TIP3     H1       HT       0.417000       1.00800           0
     89542 TIP3     26542    TIP3     H2       HT       0.417000       1.00800           0
     89543 TIP3     26543    TIP3     OH2      OT      -0.834000       15.9994           0
     89544 TIP3     26543    TIP3     H1       HT       0.417000       1.00800           0
     89545 TIP3     26543    TIP3     H2       HT       0.417000       1.00800           0
     89546 TIP3     26544    TIP3     OH2      OT      -0.834000       15.9994           0
     89547 TIP3     26544    TIP3     H1       HT       0.417000       1.00800           0
     89548 TIP3     26544    TIP3     H2       HT       0.417000       1.00800           0
     89549 TIP3     26545    TIP3     OH2      OT      -0.834000       15.9994           0
     89550 TIP3     26545    TIP3     H1       HT       0.417000       1.00800           0
     89551 TIP3     26545    TIP3     H2       HT       0.417000       1.00800           0
     89552 TIP3     26546    TIP3     OH2      OT      -0.834000       15.9994           0
     89553 TIP3     26546    TIP3     H1       HT       0.417000       1.00800           0
     89554 TIP3     26546    TIP3     H2       HT       0.417000       1.00800           0
     89555 TIP3     26547    TIP3     OH2      OT      -0.834000       15.9994           0
     89556 TIP3     26547    TIP3     H1       HT       0.417000       1.00800           0
     89557 TIP3     26547    TIP3     H2       HT       0.417000       1.00800           0
     89558 TIP3     26548    TIP3     OH2      OT      -0.834000       15.9994           0
     89559 TIP3     26548    TIP3     H1       HT       0.417000       1.00800           0
     89560 TIP3     26548    TIP3     H2       HT       0.417000       1.00800           0
     89561 TIP3     26549    TIP3     OH2      OT      -0.834000       15.9994           0
     89562 TIP3     26549    TIP3     H1       HT       0.417000       1.00800           0
     89563 TIP3     26549    TIP3     H2       HT       0.417000       1.00800           0
     89564 TIP3     26550    TIP3     OH2      OT      -0.834000       15.9994           0
     89565 TIP3     26550    TIP3     H1       HT       0.417000       1.00800           0
     89566 TIP3     26550    TIP3     H2       HT       0.417000       1.00800           0
     89567 TIP3     26551    TIP3     OH2      OT      -0.834000       15.9994           0
     89568 TIP3     26551    TIP3     H1       HT       0.417000       1.00800           0
     89569 TIP3     26551    TIP3     H2       HT       0.417000       1.00800           0
     89570 TIP3     26552    TIP3     OH2      OT      -0.834000       15.9994           0
     89571 TIP3     26552    TIP3     H1       HT       0.417000       1.00800           0
     89572 TIP3     26552    TIP3     H2       HT       0.417000       1.00800           0
     89573 TIP3     26553    TIP3     OH2      OT      -0.834000       15.9994           0
     89574 TIP3     26553    TIP3     H1       HT       0.417000       1.00800           0
     89575 TIP3     26553    TIP3     H2       HT       0.417000       1.00800           0
     89576 TIP3     26554    TIP3     OH2      OT      -0.834000       15.9994           0
     89577 TIP3     26554    TIP3     H1       HT       0.417000       1.00800           0
     89578 TIP3     26554    TIP3     H2       HT       0.417000       1.00800           0
     89579 TIP3     26555    TIP3     OH2      OT      -0.834000       15.9994           0
     89580 TIP3     26555    TIP3     H1       HT       0.417000       1.00800           0
     89581 TIP3     26555    TIP3     H2       HT       0.417000       1.00800           0
     89582 TIP3     26556    TIP3     OH2      OT      -0.834000       15.9994           0
     89583 TIP3     26556    TIP3     H1       HT       0.417000       1.00800           0
     89584 TIP3     26556    TIP3     H2       HT       0.417000       1.00800           0
     89585 TIP3     26557    TIP3     OH2      OT      -0.834000       15.9994           0
     89586 TIP3     26557    TIP3     H1       HT       0.417000       1.00800           0
     89587 TIP3     26557    TIP3     H2       HT       0.417000       1.00800           0
     89588 TIP3     26558    TIP3     OH2      OT      -0.834000       15.9994           0
     89589 TIP3     26558    TIP3     H1       HT       0.417000       1.00800           0
     89590 TIP3     26558    TIP3     H2       HT       0.417000       1.00800           0
     89591 TIP3     26559    TIP3     OH2      OT      -0.834000       15.9994           0
     89592 TIP3     26559    TIP3     H1       HT       0.417000       1.00800           0
     89593 TIP3     26559    TIP3     H2       HT       0.417000       1.00800           0
     89594 TIP3     26560    TIP3     OH2      OT      -0.834000       15.9994           0
     89595 TIP3     26560    TIP3     H1       HT       0.417000       1.00800           0
     89596 TIP3     26560    TIP3     H2       HT       0.417000       1.00800           0
     89597 TIP3     26561    TIP3     OH2      OT      -0.834000       15.9994           0
     89598 TIP3     26561    TIP3     H1       HT       0.417000       1.00800           0
     89599 TIP3     26561    TIP3     H2       HT       0.417000       1.00800           0
     89600 TIP3     26562    TIP3     OH2      OT      -0.834000       15.9994           0
     89601 TIP3     26562    TIP3     H1       HT       0.417000       1.00800           0
     89602 TIP3     26562    TIP3     H2       HT       0.417000       1.00800           0
     89603 TIP3     26563    TIP3     OH2      OT      -0.834000       15.9994           0
     89604 TIP3     26563    TIP3     H1       HT       0.417000       1.00800           0
     89605 TIP3     26563    TIP3     H2       HT       0.417000       1.00800           0
     89606 TIP3     26564    TIP3     OH2      OT      -0.834000       15.9994           0
     89607 TIP3     26564    TIP3     H1       HT       0.417000       1.00800           0
     89608 TIP3     26564    TIP3     H2       HT       0.417000       1.00800           0
     89609 TIP3     26565    TIP3     OH2      OT      -0.834000       15.9994           0
     89610 TIP3     26565    TIP3     H1       HT       0.417000       1.00800           0
     89611 TIP3     26565    TIP3     H2       HT       0.417000       1.00800           0
     89612 TIP3     26566    TIP3     OH2      OT      -0.834000       15.9994           0
     89613 TIP3     26566    TIP3     H1       HT       0.417000       1.00800           0
     89614 TIP3     26566    TIP3     H2       HT       0.417000       1.00800           0
     89615 TIP3     26567    TIP3     OH2      OT      -0.834000       15.9994           0
     89616 TIP3     26567    TIP3     H1       HT       0.417000       1.00800           0
     89617 TIP3     26567    TIP3     H2       HT       0.417000       1.00800           0
     89618 TIP3     26568    TIP3     OH2      OT      -0.834000       15.9994           0
     89619 TIP3     26568    TIP3     H1       HT       0.417000       1.00800           0
     89620 TIP3     26568    TIP3     H2       HT       0.417000       1.00800           0
     89621 TIP3     26569    TIP3     OH2      OT      -0.834000       15.9994           0
     89622 TIP3     26569    TIP3     H1       HT       0.417000       1.00800           0
     89623 TIP3     26569    TIP3     H2       HT       0.417000       1.00800           0
     89624 TIP3     26570    TIP3     OH2      OT      -0.834000       15.9994           0
     89625 TIP3     26570    TIP3     H1       HT       0.417000       1.00800           0
     89626 TIP3     26570    TIP3     H2       HT       0.417000       1.00800           0
     89627 TIP3     26571    TIP3     OH2      OT      -0.834000       15.9994           0
     89628 TIP3     26571    TIP3     H1       HT       0.417000       1.00800           0
     89629 TIP3     26571    TIP3     H2       HT       0.417000       1.00800           0
     89630 TIP3     26572    TIP3     OH2      OT      -0.834000       15.9994           0
     89631 TIP3     26572    TIP3     H1       HT       0.417000       1.00800           0
     89632 TIP3     26572    TIP3     H2       HT       0.417000       1.00800           0
     89633 TIP3     26573    TIP3     OH2      OT      -0.834000       15.9994           0
     89634 TIP3     26573    TIP3     H1       HT       0.417000       1.00800           0
     89635 TIP3     26573    TIP3     H2       HT       0.417000       1.00800           0
     89636 TIP3     26574    TIP3     OH2      OT      -0.834000       15.9994           0
     89637 TIP3     26574    TIP3     H1       HT       0.417000       1.00800           0
     89638 TIP3     26574    TIP3     H2       HT       0.417000       1.00800           0
     89639 TIP3     26575    TIP3     OH2      OT      -0.834000       15.9994           0
     89640 TIP3     26575    TIP3     H1       HT       0.417000       1.00800           0
     89641 TIP3     26575    TIP3     H2       HT       0.417000       1.00800           0
     89642 TIP3     26576    TIP3     OH2      OT      -0.834000       15.9994           0
     89643 TIP3     26576    TIP3     H1       HT       0.417000       1.00800           0
     89644 TIP3     26576    TIP3     H2       HT       0.417000       1.00800           0
     89645 TIP3     26577    TIP3     OH2      OT      -0.834000       15.9994           0
     89646 TIP3     26577    TIP3     H1       HT       0.417000       1.00800           0
     89647 TIP3     26577    TIP3     H2       HT       0.417000       1.00800           0
     89648 TIP3     26578    TIP3     OH2      OT      -0.834000       15.9994           0
     89649 TIP3     26578    TIP3     H1       HT       0.417000       1.00800           0
     89650 TIP3     26578    TIP3     H2       HT       0.417000       1.00800           0
     89651 TIP3     26579    TIP3     OH2      OT      -0.834000       15.9994           0
     89652 TIP3     26579    TIP3     H1       HT       0.417000       1.00800           0
     89653 TIP3     26579    TIP3     H2       HT       0.417000       1.00800           0
     89654 TIP3     26580    TIP3     OH2      OT      -0.834000       15.9994           0
     89655 TIP3     26580    TIP3     H1       HT       0.417000       1.00800           0
     89656 TIP3     26580    TIP3     H2       HT       0.417000       1.00800           0
     89657 TIP3     26581    TIP3     OH2      OT      -0.834000       15.9994           0
     89658 TIP3     26581    TIP3     H1       HT       0.417000       1.00800           0
     89659 TIP3     26581    TIP3     H2       HT       0.417000       1.00800           0
     89660 TIP3     26582    TIP3     OH2      OT      -0.834000       15.9994           0
     89661 TIP3     26582    TIP3     H1       HT       0.417000       1.00800           0
     89662 TIP3     26582    TIP3     H2       HT       0.417000       1.00800           0
     89663 TIP3     26583    TIP3     OH2      OT      -0.834000       15.9994           0
     89664 TIP3     26583    TIP3     H1       HT       0.417000       1.00800           0
     89665 TIP3     26583    TIP3     H2       HT       0.417000       1.00800           0
     89666 TIP3     26584    TIP3     OH2      OT      -0.834000       15.9994           0
     89667 TIP3     26584    TIP3     H1       HT       0.417000       1.00800           0
     89668 TIP3     26584    TIP3     H2       HT       0.417000       1.00800           0
     89669 TIP3     26585    TIP3     OH2      OT      -0.834000       15.9994           0
     89670 TIP3     26585    TIP3     H1       HT       0.417000       1.00800           0
     89671 TIP3     26585    TIP3     H2       HT       0.417000       1.00800           0
     89672 TIP3     26586    TIP3     OH2      OT      -0.834000       15.9994           0
     89673 TIP3     26586    TIP3     H1       HT       0.417000       1.00800           0
     89674 TIP3     26586    TIP3     H2       HT       0.417000       1.00800           0
     89675 TIP3     26587    TIP3     OH2      OT      -0.834000       15.9994           0
     89676 TIP3     26587    TIP3     H1       HT       0.417000       1.00800           0
     89677 TIP3     26587    TIP3     H2       HT       0.417000       1.00800           0
     89678 TIP3     26588    TIP3     OH2      OT      -0.834000       15.9994           0
     89679 TIP3     26588    TIP3     H1       HT       0.417000       1.00800           0
     89680 TIP3     26588    TIP3     H2       HT       0.417000       1.00800           0
     89681 TIP3     26589    TIP3     OH2      OT      -0.834000       15.9994           0
     89682 TIP3     26589    TIP3     H1       HT       0.417000       1.00800           0
     89683 TIP3     26589    TIP3     H2       HT       0.417000       1.00800           0
     89684 TIP3     26590    TIP3     OH2      OT      -0.834000       15.9994           0
     89685 TIP3     26590    TIP3     H1       HT       0.417000       1.00800           0
     89686 TIP3     26590    TIP3     H2       HT       0.417000       1.00800           0
     89687 TIP3     26591    TIP3     OH2      OT      -0.834000       15.9994           0
     89688 TIP3     26591    TIP3     H1       HT       0.417000       1.00800           0
     89689 TIP3     26591    TIP3     H2       HT       0.417000       1.00800           0
     89690 TIP3     26592    TIP3     OH2      OT      -0.834000       15.9994           0
     89691 TIP3     26592    TIP3     H1       HT       0.417000       1.00800           0
     89692 TIP3     26592    TIP3     H2       HT       0.417000       1.00800           0
     89693 TIP3     26593    TIP3     OH2      OT      -0.834000       15.9994           0
     89694 TIP3     26593    TIP3     H1       HT       0.417000       1.00800           0
     89695 TIP3     26593    TIP3     H2       HT       0.417000       1.00800           0
     89696 TIP3     26594    TIP3     OH2      OT      -0.834000       15.9994           0
     89697 TIP3     26594    TIP3     H1       HT       0.417000       1.00800           0
     89698 TIP3     26594    TIP3     H2       HT       0.417000       1.00800           0
     89699 TIP3     26595    TIP3     OH2      OT      -0.834000       15.9994           0
     89700 TIP3     26595    TIP3     H1       HT       0.417000       1.00800           0
     89701 TIP3     26595    TIP3     H2       HT       0.417000       1.00800           0
     89702 TIP3     26596    TIP3     OH2      OT      -0.834000       15.9994           0
     89703 TIP3     26596    TIP3     H1       HT       0.417000       1.00800           0
     89704 TIP3     26596    TIP3     H2       HT       0.417000       1.00800           0
     89705 TIP3     26597    TIP3     OH2      OT      -0.834000       15.9994           0
     89706 TIP3     26597    TIP3     H1       HT       0.417000       1.00800           0
     89707 TIP3     26597    TIP3     H2       HT       0.417000       1.00800           0
     89708 TIP3     26598    TIP3     OH2      OT      -0.834000       15.9994           0
     89709 TIP3     26598    TIP3     H1       HT       0.417000       1.00800           0
     89710 TIP3     26598    TIP3     H2       HT       0.417000       1.00800           0
     89711 TIP3     26599    TIP3     OH2      OT      -0.834000       15.9994           0
     89712 TIP3     26599    TIP3     H1       HT       0.417000       1.00800           0
     89713 TIP3     26599    TIP3     H2       HT       0.417000       1.00800           0
     89714 TIP3     26600    TIP3     OH2      OT      -0.834000       15.9994           0
     89715 TIP3     26600    TIP3     H1       HT       0.417000       1.00800           0
     89716 TIP3     26600    TIP3     H2       HT       0.417000       1.00800           0
     89717 TIP3     26601    TIP3     OH2      OT      -0.834000       15.9994           0
     89718 TIP3     26601    TIP3     H1       HT       0.417000       1.00800           0
     89719 TIP3     26601    TIP3     H2       HT       0.417000       1.00800           0
     89720 TIP3     26602    TIP3     OH2      OT      -0.834000       15.9994           0
     89721 TIP3     26602    TIP3     H1       HT       0.417000       1.00800           0
     89722 TIP3     26602    TIP3     H2       HT       0.417000       1.00800           0
     89723 TIP3     26603    TIP3     OH2      OT      -0.834000       15.9994           0
     89724 TIP3     26603    TIP3     H1       HT       0.417000       1.00800           0
     89725 TIP3     26603    TIP3     H2       HT       0.417000       1.00800           0
     89726 TIP3     26604    TIP3     OH2      OT      -0.834000       15.9994           0
     89727 TIP3     26604    TIP3     H1       HT       0.417000       1.00800           0
     89728 TIP3     26604    TIP3     H2       HT       0.417000       1.00800           0
     89729 TIP3     26605    TIP3     OH2      OT      -0.834000       15.9994           0
     89730 TIP3     26605    TIP3     H1       HT       0.417000       1.00800           0
     89731 TIP3     26605    TIP3     H2       HT       0.417000       1.00800           0
     89732 TIP3     26606    TIP3     OH2      OT      -0.834000       15.9994           0
     89733 TIP3     26606    TIP3     H1       HT       0.417000       1.00800           0
     89734 TIP3     26606    TIP3     H2       HT       0.417000       1.00800           0
     89735 TIP3     26607    TIP3     OH2      OT      -0.834000       15.9994           0
     89736 TIP3     26607    TIP3     H1       HT       0.417000       1.00800           0
     89737 TIP3     26607    TIP3     H2       HT       0.417000       1.00800           0
     89738 TIP3     26608    TIP3     OH2      OT      -0.834000       15.9994           0
     89739 TIP3     26608    TIP3     H1       HT       0.417000       1.00800           0
     89740 TIP3     26608    TIP3     H2       HT       0.417000       1.00800           0
     89741 TIP3     26609    TIP3     OH2      OT      -0.834000       15.9994           0
     89742 TIP3     26609    TIP3     H1       HT       0.417000       1.00800           0
     89743 TIP3     26609    TIP3     H2       HT       0.417000       1.00800           0
     89744 TIP3     26610    TIP3     OH2      OT      -0.834000       15.9994           0
     89745 TIP3     26610    TIP3     H1       HT       0.417000       1.00800           0
     89746 TIP3     26610    TIP3     H2       HT       0.417000       1.00800           0
     89747 TIP3     26611    TIP3     OH2      OT      -0.834000       15.9994           0
     89748 TIP3     26611    TIP3     H1       HT       0.417000       1.00800           0
     89749 TIP3     26611    TIP3     H2       HT       0.417000       1.00800           0
     89750 TIP3     26612    TIP3     OH2      OT      -0.834000       15.9994           0
     89751 TIP3     26612    TIP3     H1       HT       0.417000       1.00800           0
     89752 TIP3     26612    TIP3     H2       HT       0.417000       1.00800           0
     89753 TIP3     26613    TIP3     OH2      OT      -0.834000       15.9994           0
     89754 TIP3     26613    TIP3     H1       HT       0.417000       1.00800           0
     89755 TIP3     26613    TIP3     H2       HT       0.417000       1.00800           0
     89756 TIP3     26614    TIP3     OH2      OT      -0.834000       15.9994           0
     89757 TIP3     26614    TIP3     H1       HT       0.417000       1.00800           0
     89758 TIP3     26614    TIP3     H2       HT       0.417000       1.00800           0
     89759 TIP3     26615    TIP3     OH2      OT      -0.834000       15.9994           0
     89760 TIP3     26615    TIP3     H1       HT       0.417000       1.00800           0
     89761 TIP3     26615    TIP3     H2       HT       0.417000       1.00800           0
     89762 TIP3     26616    TIP3     OH2      OT      -0.834000       15.9994           0
     89763 TIP3     26616    TIP3     H1       HT       0.417000       1.00800           0
     89764 TIP3     26616    TIP3     H2       HT       0.417000       1.00800           0
     89765 TIP3     26617    TIP3     OH2      OT      -0.834000       15.9994           0
     89766 TIP3     26617    TIP3     H1       HT       0.417000       1.00800           0
     89767 TIP3     26617    TIP3     H2       HT       0.417000       1.00800           0
     89768 TIP3     26618    TIP3     OH2      OT      -0.834000       15.9994           0
     89769 TIP3     26618    TIP3     H1       HT       0.417000       1.00800           0
     89770 TIP3     26618    TIP3     H2       HT       0.417000       1.00800           0
     89771 TIP3     26619    TIP3     OH2      OT      -0.834000       15.9994           0
     89772 TIP3     26619    TIP3     H1       HT       0.417000       1.00800           0
     89773 TIP3     26619    TIP3     H2       HT       0.417000       1.00800           0
     89774 TIP3     26620    TIP3     OH2      OT      -0.834000       15.9994           0
     89775 TIP3     26620    TIP3     H1       HT       0.417000       1.00800           0
     89776 TIP3     26620    TIP3     H2       HT       0.417000       1.00800           0
     89777 TIP3     26621    TIP3     OH2      OT      -0.834000       15.9994           0
     89778 TIP3     26621    TIP3     H1       HT       0.417000       1.00800           0
     89779 TIP3     26621    TIP3     H2       HT       0.417000       1.00800           0
     89780 TIP3     26622    TIP3     OH2      OT      -0.834000       15.9994           0
     89781 TIP3     26622    TIP3     H1       HT       0.417000       1.00800           0
     89782 TIP3     26622    TIP3     H2       HT       0.417000       1.00800           0
     89783 TIP3     26623    TIP3     OH2      OT      -0.834000       15.9994           0
     89784 TIP3     26623    TIP3     H1       HT       0.417000       1.00800           0
     89785 TIP3     26623    TIP3     H2       HT       0.417000       1.00800           0
     89786 TIP3     26624    TIP3     OH2      OT      -0.834000       15.9994           0
     89787 TIP3     26624    TIP3     H1       HT       0.417000       1.00800           0
     89788 TIP3     26624    TIP3     H2       HT       0.417000       1.00800           0
     89789 TIP3     26625    TIP3     OH2      OT      -0.834000       15.9994           0
     89790 TIP3     26625    TIP3     H1       HT       0.417000       1.00800           0
     89791 TIP3     26625    TIP3     H2       HT       0.417000       1.00800           0
     89792 TIP3     26626    TIP3     OH2      OT      -0.834000       15.9994           0
     89793 TIP3     26626    TIP3     H1       HT       0.417000       1.00800           0
     89794 TIP3     26626    TIP3     H2       HT       0.417000       1.00800           0
     89795 TIP3     26627    TIP3     OH2      OT      -0.834000       15.9994           0
     89796 TIP3     26627    TIP3     H1       HT       0.417000       1.00800           0
     89797 TIP3     26627    TIP3     H2       HT       0.417000       1.00800           0
     89798 TIP3     26628    TIP3     OH2      OT      -0.834000       15.9994           0
     89799 TIP3     26628    TIP3     H1       HT       0.417000       1.00800           0
     89800 TIP3     26628    TIP3     H2       HT       0.417000       1.00800           0
     89801 TIP3     26629    TIP3     OH2      OT      -0.834000       15.9994           0
     89802 TIP3     26629    TIP3     H1       HT       0.417000       1.00800           0
     89803 TIP3     26629    TIP3     H2       HT       0.417000       1.00800           0
     89804 TIP3     26630    TIP3     OH2      OT      -0.834000       15.9994           0
     89805 TIP3     26630    TIP3     H1       HT       0.417000       1.00800           0
     89806 TIP3     26630    TIP3     H2       HT       0.417000       1.00800           0
     89807 TIP3     26631    TIP3     OH2      OT      -0.834000       15.9994           0
     89808 TIP3     26631    TIP3     H1       HT       0.417000       1.00800           0
     89809 TIP3     26631    TIP3     H2       HT       0.417000       1.00800           0
     89810 TIP3     26632    TIP3     OH2      OT      -0.834000       15.9994           0
     89811 TIP3     26632    TIP3     H1       HT       0.417000       1.00800           0
     89812 TIP3     26632    TIP3     H2       HT       0.417000       1.00800           0
     89813 TIP3     26633    TIP3     OH2      OT      -0.834000       15.9994           0
     89814 TIP3     26633    TIP3     H1       HT       0.417000       1.00800           0
     89815 TIP3     26633    TIP3     H2       HT       0.417000       1.00800           0
     89816 TIP3     26634    TIP3     OH2      OT      -0.834000       15.9994           0
     89817 TIP3     26634    TIP3     H1       HT       0.417000       1.00800           0
     89818 TIP3     26634    TIP3     H2       HT       0.417000       1.00800           0
     89819 TIP3     26635    TIP3     OH2      OT      -0.834000       15.9994           0
     89820 TIP3     26635    TIP3     H1       HT       0.417000       1.00800           0
     89821 TIP3     26635    TIP3     H2       HT       0.417000       1.00800           0
     89822 TIP3     26636    TIP3     OH2      OT      -0.834000       15.9994           0
     89823 TIP3     26636    TIP3     H1       HT       0.417000       1.00800           0
     89824 TIP3     26636    TIP3     H2       HT       0.417000       1.00800           0
     89825 TIP3     26637    TIP3     OH2      OT      -0.834000       15.9994           0
     89826 TIP3     26637    TIP3     H1       HT       0.417000       1.00800           0
     89827 TIP3     26637    TIP3     H2       HT       0.417000       1.00800           0
     89828 TIP3     26638    TIP3     OH2      OT      -0.834000       15.9994           0
     89829 TIP3     26638    TIP3     H1       HT       0.417000       1.00800           0
     89830 TIP3     26638    TIP3     H2       HT       0.417000       1.00800           0
     89831 TIP3     26639    TIP3     OH2      OT      -0.834000       15.9994           0
     89832 TIP3     26639    TIP3     H1       HT       0.417000       1.00800           0
     89833 TIP3     26639    TIP3     H2       HT       0.417000       1.00800           0
     89834 TIP3     26640    TIP3     OH2      OT      -0.834000       15.9994           0
     89835 TIP3     26640    TIP3     H1       HT       0.417000       1.00800           0
     89836 TIP3     26640    TIP3     H2       HT       0.417000       1.00800           0
     89837 TIP3     26641    TIP3     OH2      OT      -0.834000       15.9994           0
     89838 TIP3     26641    TIP3     H1       HT       0.417000       1.00800           0
     89839 TIP3     26641    TIP3     H2       HT       0.417000       1.00800           0
     89840 TIP3     26642    TIP3     OH2      OT      -0.834000       15.9994           0
     89841 TIP3     26642    TIP3     H1       HT       0.417000       1.00800           0
     89842 TIP3     26642    TIP3     H2       HT       0.417000       1.00800           0
     89843 TIP3     26643    TIP3     OH2      OT      -0.834000       15.9994           0
     89844 TIP3     26643    TIP3     H1       HT       0.417000       1.00800           0
     89845 TIP3     26643    TIP3     H2       HT       0.417000       1.00800           0
     89846 TIP3     26644    TIP3     OH2      OT      -0.834000       15.9994           0
     89847 TIP3     26644    TIP3     H1       HT       0.417000       1.00800           0
     89848 TIP3     26644    TIP3     H2       HT       0.417000       1.00800           0
     89849 TIP3     26645    TIP3     OH2      OT      -0.834000       15.9994           0
     89850 TIP3     26645    TIP3     H1       HT       0.417000       1.00800           0
     89851 TIP3     26645    TIP3     H2       HT       0.417000       1.00800           0
     89852 TIP3     26646    TIP3     OH2      OT      -0.834000       15.9994           0
     89853 TIP3     26646    TIP3     H1       HT       0.417000       1.00800           0
     89854 TIP3     26646    TIP3     H2       HT       0.417000       1.00800           0
     89855 TIP3     26647    TIP3     OH2      OT      -0.834000       15.9994           0
     89856 TIP3     26647    TIP3     H1       HT       0.417000       1.00800           0
     89857 TIP3     26647    TIP3     H2       HT       0.417000       1.00800           0
     89858 TIP3     26648    TIP3     OH2      OT      -0.834000       15.9994           0
     89859 TIP3     26648    TIP3     H1       HT       0.417000       1.00800           0
     89860 TIP3     26648    TIP3     H2       HT       0.417000       1.00800           0
     89861 TIP3     26649    TIP3     OH2      OT      -0.834000       15.9994           0
     89862 TIP3     26649    TIP3     H1       HT       0.417000       1.00800           0
     89863 TIP3     26649    TIP3     H2       HT       0.417000       1.00800           0
     89864 TIP3     26650    TIP3     OH2      OT      -0.834000       15.9994           0
     89865 TIP3     26650    TIP3     H1       HT       0.417000       1.00800           0
     89866 TIP3     26650    TIP3     H2       HT       0.417000       1.00800           0
     89867 TIP3     26651    TIP3     OH2      OT      -0.834000       15.9994           0
     89868 TIP3     26651    TIP3     H1       HT       0.417000       1.00800           0
     89869 TIP3     26651    TIP3     H2       HT       0.417000       1.00800           0
     89870 TIP3     26652    TIP3     OH2      OT      -0.834000       15.9994           0
     89871 TIP3     26652    TIP3     H1       HT       0.417000       1.00800           0
     89872 TIP3     26652    TIP3     H2       HT       0.417000       1.00800           0
     89873 TIP3     26653    TIP3     OH2      OT      -0.834000       15.9994           0
     89874 TIP3     26653    TIP3     H1       HT       0.417000       1.00800           0
     89875 TIP3     26653    TIP3     H2       HT       0.417000       1.00800           0
     89876 TIP3     26654    TIP3     OH2      OT      -0.834000       15.9994           0
     89877 TIP3     26654    TIP3     H1       HT       0.417000       1.00800           0
     89878 TIP3     26654    TIP3     H2       HT       0.417000       1.00800           0
     89879 TIP3     26655    TIP3     OH2      OT      -0.834000       15.9994           0
     89880 TIP3     26655    TIP3     H1       HT       0.417000       1.00800           0
     89881 TIP3     26655    TIP3     H2       HT       0.417000       1.00800           0
     89882 TIP3     26656    TIP3     OH2      OT      -0.834000       15.9994           0
     89883 TIP3     26656    TIP3     H1       HT       0.417000       1.00800           0
     89884 TIP3     26656    TIP3     H2       HT       0.417000       1.00800           0
     89885 TIP3     26657    TIP3     OH2      OT      -0.834000       15.9994           0
     89886 TIP3     26657    TIP3     H1       HT       0.417000       1.00800           0
     89887 TIP3     26657    TIP3     H2       HT       0.417000       1.00800           0
     89888 TIP3     26658    TIP3     OH2      OT      -0.834000       15.9994           0
     89889 TIP3     26658    TIP3     H1       HT       0.417000       1.00800           0
     89890 TIP3     26658    TIP3     H2       HT       0.417000       1.00800           0
     89891 TIP3     26659    TIP3     OH2      OT      -0.834000       15.9994           0
     89892 TIP3     26659    TIP3     H1       HT       0.417000       1.00800           0
     89893 TIP3     26659    TIP3     H2       HT       0.417000       1.00800           0
     89894 TIP3     26660    TIP3     OH2      OT      -0.834000       15.9994           0
     89895 TIP3     26660    TIP3     H1       HT       0.417000       1.00800           0
     89896 TIP3     26660    TIP3     H2       HT       0.417000       1.00800           0
     89897 TIP3     26661    TIP3     OH2      OT      -0.834000       15.9994           0
     89898 TIP3     26661    TIP3     H1       HT       0.417000       1.00800           0
     89899 TIP3     26661    TIP3     H2       HT       0.417000       1.00800           0
     89900 TIP3     26662    TIP3     OH2      OT      -0.834000       15.9994           0
     89901 TIP3     26662    TIP3     H1       HT       0.417000       1.00800           0
     89902 TIP3     26662    TIP3     H2       HT       0.417000       1.00800           0
     89903 TIP3     26663    TIP3     OH2      OT      -0.834000       15.9994           0
     89904 TIP3     26663    TIP3     H1       HT       0.417000       1.00800           0
     89905 TIP3     26663    TIP3     H2       HT       0.417000       1.00800           0
     89906 TIP3     26664    TIP3     OH2      OT      -0.834000       15.9994           0
     89907 TIP3     26664    TIP3     H1       HT       0.417000       1.00800           0
     89908 TIP3     26664    TIP3     H2       HT       0.417000       1.00800           0
     89909 TIP3     26665    TIP3     OH2      OT      -0.834000       15.9994           0
     89910 TIP3     26665    TIP3     H1       HT       0.417000       1.00800           0
     89911 TIP3     26665    TIP3     H2       HT       0.417000       1.00800           0
     89912 TIP3     26666    TIP3     OH2      OT      -0.834000       15.9994           0
     89913 TIP3     26666    TIP3     H1       HT       0.417000       1.00800           0
     89914 TIP3     26666    TIP3     H2       HT       0.417000       1.00800           0
     89915 TIP3     26667    TIP3     OH2      OT      -0.834000       15.9994           0
     89916 TIP3     26667    TIP3     H1       HT       0.417000       1.00800           0
     89917 TIP3     26667    TIP3     H2       HT       0.417000       1.00800           0
     89918 TIP3     26668    TIP3     OH2      OT      -0.834000       15.9994           0
     89919 TIP3     26668    TIP3     H1       HT       0.417000       1.00800           0
     89920 TIP3     26668    TIP3     H2       HT       0.417000       1.00800           0
     89921 TIP3     26669    TIP3     OH2      OT      -0.834000       15.9994           0
     89922 TIP3     26669    TIP3     H1       HT       0.417000       1.00800           0
     89923 TIP3     26669    TIP3     H2       HT       0.417000       1.00800           0
     89924 TIP3     26670    TIP3     OH2      OT      -0.834000       15.9994           0
     89925 TIP3     26670    TIP3     H1       HT       0.417000       1.00800           0
     89926 TIP3     26670    TIP3     H2       HT       0.417000       1.00800           0
     89927 TIP3     26671    TIP3     OH2      OT      -0.834000       15.9994           0
     89928 TIP3     26671    TIP3     H1       HT       0.417000       1.00800           0
     89929 TIP3     26671    TIP3     H2       HT       0.417000       1.00800           0
     89930 TIP3     26672    TIP3     OH2      OT      -0.834000       15.9994           0
     89931 TIP3     26672    TIP3     H1       HT       0.417000       1.00800           0
     89932 TIP3     26672    TIP3     H2       HT       0.417000       1.00800           0
     89933 TIP3     26673    TIP3     OH2      OT      -0.834000       15.9994           0
     89934 TIP3     26673    TIP3     H1       HT       0.417000       1.00800           0
     89935 TIP3     26673    TIP3     H2       HT       0.417000       1.00800           0
     89936 TIP3     26674    TIP3     OH2      OT      -0.834000       15.9994           0
     89937 TIP3     26674    TIP3     H1       HT       0.417000       1.00800           0
     89938 TIP3     26674    TIP3     H2       HT       0.417000       1.00800           0
     89939 TIP3     26675    TIP3     OH2      OT      -0.834000       15.9994           0
     89940 TIP3     26675    TIP3     H1       HT       0.417000       1.00800           0
     89941 TIP3     26675    TIP3     H2       HT       0.417000       1.00800           0
     89942 TIP3     26676    TIP3     OH2      OT      -0.834000       15.9994           0
     89943 TIP3     26676    TIP3     H1       HT       0.417000       1.00800           0
     89944 TIP3     26676    TIP3     H2       HT       0.417000       1.00800           0
     89945 TIP3     26677    TIP3     OH2      OT      -0.834000       15.9994           0
     89946 TIP3     26677    TIP3     H1       HT       0.417000       1.00800           0
     89947 TIP3     26677    TIP3     H2       HT       0.417000       1.00800           0
     89948 TIP3     26678    TIP3     OH2      OT      -0.834000       15.9994           0
     89949 TIP3     26678    TIP3     H1       HT       0.417000       1.00800           0
     89950 TIP3     26678    TIP3     H2       HT       0.417000       1.00800           0
     89951 TIP3     26679    TIP3     OH2      OT      -0.834000       15.9994           0
     89952 TIP3     26679    TIP3     H1       HT       0.417000       1.00800           0
     89953 TIP3     26679    TIP3     H2       HT       0.417000       1.00800           0
     89954 TIP3     26680    TIP3     OH2      OT      -0.834000       15.9994           0
     89955 TIP3     26680    TIP3     H1       HT       0.417000       1.00800           0
     89956 TIP3     26680    TIP3     H2       HT       0.417000       1.00800           0
     89957 TIP3     26681    TIP3     OH2      OT      -0.834000       15.9994           0
     89958 TIP3     26681    TIP3     H1       HT       0.417000       1.00800           0
     89959 TIP3     26681    TIP3     H2       HT       0.417000       1.00800           0
     89960 TIP3     26682    TIP3     OH2      OT      -0.834000       15.9994           0
     89961 TIP3     26682    TIP3     H1       HT       0.417000       1.00800           0
     89962 TIP3     26682    TIP3     H2       HT       0.417000       1.00800           0
     89963 TIP3     26683    TIP3     OH2      OT      -0.834000       15.9994           0
     89964 TIP3     26683    TIP3     H1       HT       0.417000       1.00800           0
     89965 TIP3     26683    TIP3     H2       HT       0.417000       1.00800           0
     89966 TIP3     26684    TIP3     OH2      OT      -0.834000       15.9994           0
     89967 TIP3     26684    TIP3     H1       HT       0.417000       1.00800           0
     89968 TIP3     26684    TIP3     H2       HT       0.417000       1.00800           0
     89969 TIP3     26685    TIP3     OH2      OT      -0.834000       15.9994           0
     89970 TIP3     26685    TIP3     H1       HT       0.417000       1.00800           0
     89971 TIP3     26685    TIP3     H2       HT       0.417000       1.00800           0
     89972 TIP3     26686    TIP3     OH2      OT      -0.834000       15.9994           0
     89973 TIP3     26686    TIP3     H1       HT       0.417000       1.00800           0
     89974 TIP3     26686    TIP3     H2       HT       0.417000       1.00800           0
     89975 TIP3     26687    TIP3     OH2      OT      -0.834000       15.9994           0
     89976 TIP3     26687    TIP3     H1       HT       0.417000       1.00800           0
     89977 TIP3     26687    TIP3     H2       HT       0.417000       1.00800           0
     89978 TIP3     26688    TIP3     OH2      OT      -0.834000       15.9994           0
     89979 TIP3     26688    TIP3     H1       HT       0.417000       1.00800           0
     89980 TIP3     26688    TIP3     H2       HT       0.417000       1.00800           0
     89981 TIP3     26689    TIP3     OH2      OT      -0.834000       15.9994           0
     89982 TIP3     26689    TIP3     H1       HT       0.417000       1.00800           0
     89983 TIP3     26689    TIP3     H2       HT       0.417000       1.00800           0
     89984 TIP3     26690    TIP3     OH2      OT      -0.834000       15.9994           0
     89985 TIP3     26690    TIP3     H1       HT       0.417000       1.00800           0
     89986 TIP3     26690    TIP3     H2       HT       0.417000       1.00800           0
     89987 TIP3     26691    TIP3     OH2      OT      -0.834000       15.9994           0
     89988 TIP3     26691    TIP3     H1       HT       0.417000       1.00800           0
     89989 TIP3     26691    TIP3     H2       HT       0.417000       1.00800           0
     89990 TIP3     26692    TIP3     OH2      OT      -0.834000       15.9994           0
     89991 TIP3     26692    TIP3     H1       HT       0.417000       1.00800           0
     89992 TIP3     26692    TIP3     H2       HT       0.417000       1.00800           0
     89993 TIP3     26693    TIP3     OH2      OT      -0.834000       15.9994           0
     89994 TIP3     26693    TIP3     H1       HT       0.417000       1.00800           0
     89995 TIP3     26693    TIP3     H2       HT       0.417000       1.00800           0
     89996 TIP3     26694    TIP3     OH2      OT      -0.834000       15.9994           0
     89997 TIP3     26694    TIP3     H1       HT       0.417000       1.00800           0
     89998 TIP3     26694    TIP3     H2       HT       0.417000       1.00800           0
     89999 TIP3     26695    TIP3     OH2      OT      -0.834000       15.9994           0
     90000 TIP3     26695    TIP3     H1       HT       0.417000       1.00800           0
     90001 TIP3     26695    TIP3     H2       HT       0.417000       1.00800           0
     90002 TIP3     26696    TIP3     OH2      OT      -0.834000       15.9994           0
     90003 TIP3     26696    TIP3     H1       HT       0.417000       1.00800           0
     90004 TIP3     26696    TIP3     H2       HT       0.417000       1.00800           0
     90005 TIP3     26697    TIP3     OH2      OT      -0.834000       15.9994           0
     90006 TIP3     26697    TIP3     H1       HT       0.417000       1.00800           0
     90007 TIP3     26697    TIP3     H2       HT       0.417000       1.00800           0
     90008 TIP3     26698    TIP3     OH2      OT      -0.834000       15.9994           0
     90009 TIP3     26698    TIP3     H1       HT       0.417000       1.00800           0
     90010 TIP3     26698    TIP3     H2       HT       0.417000       1.00800           0
     90011 TIP3     26699    TIP3     OH2      OT      -0.834000       15.9994           0
     90012 TIP3     26699    TIP3     H1       HT       0.417000       1.00800           0
     90013 TIP3     26699    TIP3     H2       HT       0.417000       1.00800           0
     90014 TIP3     26700    TIP3     OH2      OT      -0.834000       15.9994           0
     90015 TIP3     26700    TIP3     H1       HT       0.417000       1.00800           0
     90016 TIP3     26700    TIP3     H2       HT       0.417000       1.00800           0
     90017 TIP3     26701    TIP3     OH2      OT      -0.834000       15.9994           0
     90018 TIP3     26701    TIP3     H1       HT       0.417000       1.00800           0
     90019 TIP3     26701    TIP3     H2       HT       0.417000       1.00800           0
     90020 TIP3     26702    TIP3     OH2      OT      -0.834000       15.9994           0
     90021 TIP3     26702    TIP3     H1       HT       0.417000       1.00800           0
     90022 TIP3     26702    TIP3     H2       HT       0.417000       1.00800           0
     90023 TIP3     26703    TIP3     OH2      OT      -0.834000       15.9994           0
     90024 TIP3     26703    TIP3     H1       HT       0.417000       1.00800           0
     90025 TIP3     26703    TIP3     H2       HT       0.417000       1.00800           0
     90026 TIP3     26704    TIP3     OH2      OT      -0.834000       15.9994           0
     90027 TIP3     26704    TIP3     H1       HT       0.417000       1.00800           0
     90028 TIP3     26704    TIP3     H2       HT       0.417000       1.00800           0
     90029 TIP3     26705    TIP3     OH2      OT      -0.834000       15.9994           0
     90030 TIP3     26705    TIP3     H1       HT       0.417000       1.00800           0
     90031 TIP3     26705    TIP3     H2       HT       0.417000       1.00800           0
     90032 TIP3     26706    TIP3     OH2      OT      -0.834000       15.9994           0
     90033 TIP3     26706    TIP3     H1       HT       0.417000       1.00800           0
     90034 TIP3     26706    TIP3     H2       HT       0.417000       1.00800           0
     90035 TIP3     26707    TIP3     OH2      OT      -0.834000       15.9994           0
     90036 TIP3     26707    TIP3     H1       HT       0.417000       1.00800           0
     90037 TIP3     26707    TIP3     H2       HT       0.417000       1.00800           0
     90038 TIP3     26708    TIP3     OH2      OT      -0.834000       15.9994           0
     90039 TIP3     26708    TIP3     H1       HT       0.417000       1.00800           0
     90040 TIP3     26708    TIP3     H2       HT       0.417000       1.00800           0
     90041 TIP3     26709    TIP3     OH2      OT      -0.834000       15.9994           0
     90042 TIP3     26709    TIP3     H1       HT       0.417000       1.00800           0
     90043 TIP3     26709    TIP3     H2       HT       0.417000       1.00800           0
     90044 TIP3     26710    TIP3     OH2      OT      -0.834000       15.9994           0
     90045 TIP3     26710    TIP3     H1       HT       0.417000       1.00800           0
     90046 TIP3     26710    TIP3     H2       HT       0.417000       1.00800           0
     90047 TIP3     26711    TIP3     OH2      OT      -0.834000       15.9994           0
     90048 TIP3     26711    TIP3     H1       HT       0.417000       1.00800           0
     90049 TIP3     26711    TIP3     H2       HT       0.417000       1.00800           0
     90050 TIP3     26712    TIP3     OH2      OT      -0.834000       15.9994           0
     90051 TIP3     26712    TIP3     H1       HT       0.417000       1.00800           0
     90052 TIP3     26712    TIP3     H2       HT       0.417000       1.00800           0
     90053 TIP3     26713    TIP3     OH2      OT      -0.834000       15.9994           0
     90054 TIP3     26713    TIP3     H1       HT       0.417000       1.00800           0
     90055 TIP3     26713    TIP3     H2       HT       0.417000       1.00800           0
     90056 TIP3     26714    TIP3     OH2      OT      -0.834000       15.9994           0
     90057 TIP3     26714    TIP3     H1       HT       0.417000       1.00800           0
     90058 TIP3     26714    TIP3     H2       HT       0.417000       1.00800           0
     90059 TIP3     26715    TIP3     OH2      OT      -0.834000       15.9994           0
     90060 TIP3     26715    TIP3     H1       HT       0.417000       1.00800           0
     90061 TIP3     26715    TIP3     H2       HT       0.417000       1.00800           0
     90062 TIP3     26716    TIP3     OH2      OT      -0.834000       15.9994           0
     90063 TIP3     26716    TIP3     H1       HT       0.417000       1.00800           0
     90064 TIP3     26716    TIP3     H2       HT       0.417000       1.00800           0
     90065 TIP3     26717    TIP3     OH2      OT      -0.834000       15.9994           0
     90066 TIP3     26717    TIP3     H1       HT       0.417000       1.00800           0
     90067 TIP3     26717    TIP3     H2       HT       0.417000       1.00800           0
     90068 TIP3     26718    TIP3     OH2      OT      -0.834000       15.9994           0
     90069 TIP3     26718    TIP3     H1       HT       0.417000       1.00800           0
     90070 TIP3     26718    TIP3     H2       HT       0.417000       1.00800           0
     90071 TIP3     26719    TIP3     OH2      OT      -0.834000       15.9994           0
     90072 TIP3     26719    TIP3     H1       HT       0.417000       1.00800           0
     90073 TIP3     26719    TIP3     H2       HT       0.417000       1.00800           0
     90074 TIP3     26720    TIP3     OH2      OT      -0.834000       15.9994           0
     90075 TIP3     26720    TIP3     H1       HT       0.417000       1.00800           0
     90076 TIP3     26720    TIP3     H2       HT       0.417000       1.00800           0
     90077 TIP3     26721    TIP3     OH2      OT      -0.834000       15.9994           0
     90078 TIP3     26721    TIP3     H1       HT       0.417000       1.00800           0
     90079 TIP3     26721    TIP3     H2       HT       0.417000       1.00800           0
     90080 TIP3     26722    TIP3     OH2      OT      -0.834000       15.9994           0
     90081 TIP3     26722    TIP3     H1       HT       0.417000       1.00800           0
     90082 TIP3     26722    TIP3     H2       HT       0.417000       1.00800           0
     90083 TIP3     26723    TIP3     OH2      OT      -0.834000       15.9994           0
     90084 TIP3     26723    TIP3     H1       HT       0.417000       1.00800           0
     90085 TIP3     26723    TIP3     H2       HT       0.417000       1.00800           0
     90086 TIP3     26724    TIP3     OH2      OT      -0.834000       15.9994           0
     90087 TIP3     26724    TIP3     H1       HT       0.417000       1.00800           0
     90088 TIP3     26724    TIP3     H2       HT       0.417000       1.00800           0
     90089 TIP3     26725    TIP3     OH2      OT      -0.834000       15.9994           0
     90090 TIP3     26725    TIP3     H1       HT       0.417000       1.00800           0
     90091 TIP3     26725    TIP3     H2       HT       0.417000       1.00800           0
     90092 TIP3     26726    TIP3     OH2      OT      -0.834000       15.9994           0
     90093 TIP3     26726    TIP3     H1       HT       0.417000       1.00800           0
     90094 TIP3     26726    TIP3     H2       HT       0.417000       1.00800           0
     90095 TIP3     26727    TIP3     OH2      OT      -0.834000       15.9994           0
     90096 TIP3     26727    TIP3     H1       HT       0.417000       1.00800           0
     90097 TIP3     26727    TIP3     H2       HT       0.417000       1.00800           0
     90098 TIP3     26728    TIP3     OH2      OT      -0.834000       15.9994           0
     90099 TIP3     26728    TIP3     H1       HT       0.417000       1.00800           0
     90100 TIP3     26728    TIP3     H2       HT       0.417000       1.00800           0
     90101 TIP3     26729    TIP3     OH2      OT      -0.834000       15.9994           0
     90102 TIP3     26729    TIP3     H1       HT       0.417000       1.00800           0
     90103 TIP3     26729    TIP3     H2       HT       0.417000       1.00800           0
     90104 TIP3     26730    TIP3     OH2      OT      -0.834000       15.9994           0
     90105 TIP3     26730    TIP3     H1       HT       0.417000       1.00800           0
     90106 TIP3     26730    TIP3     H2       HT       0.417000       1.00800           0
     90107 TIP3     26731    TIP3     OH2      OT      -0.834000       15.9994           0
     90108 TIP3     26731    TIP3     H1       HT       0.417000       1.00800           0
     90109 TIP3     26731    TIP3     H2       HT       0.417000       1.00800           0
     90110 TIP3     26732    TIP3     OH2      OT      -0.834000       15.9994           0
     90111 TIP3     26732    TIP3     H1       HT       0.417000       1.00800           0
     90112 TIP3     26732    TIP3     H2       HT       0.417000       1.00800           0
     90113 TIP3     26733    TIP3     OH2      OT      -0.834000       15.9994           0
     90114 TIP3     26733    TIP3     H1       HT       0.417000       1.00800           0
     90115 TIP3     26733    TIP3     H2       HT       0.417000       1.00800           0
     90116 TIP3     26734    TIP3     OH2      OT      -0.834000       15.9994           0
     90117 TIP3     26734    TIP3     H1       HT       0.417000       1.00800           0
     90118 TIP3     26734    TIP3     H2       HT       0.417000       1.00800           0
     90119 TIP3     26735    TIP3     OH2      OT      -0.834000       15.9994           0
     90120 TIP3     26735    TIP3     H1       HT       0.417000       1.00800           0
     90121 TIP3     26735    TIP3     H2       HT       0.417000       1.00800           0
     90122 TIP3     26736    TIP3     OH2      OT      -0.834000       15.9994           0
     90123 TIP3     26736    TIP3     H1       HT       0.417000       1.00800           0
     90124 TIP3     26736    TIP3     H2       HT       0.417000       1.00800           0
     90125 TIP3     26737    TIP3     OH2      OT      -0.834000       15.9994           0
     90126 TIP3     26737    TIP3     H1       HT       0.417000       1.00800           0
     90127 TIP3     26737    TIP3     H2       HT       0.417000       1.00800           0
     90128 TIP3     26738    TIP3     OH2      OT      -0.834000       15.9994           0
     90129 TIP3     26738    TIP3     H1       HT       0.417000       1.00800           0
     90130 TIP3     26738    TIP3     H2       HT       0.417000       1.00800           0
     90131 TIP3     26739    TIP3     OH2      OT      -0.834000       15.9994           0
     90132 TIP3     26739    TIP3     H1       HT       0.417000       1.00800           0
     90133 TIP3     26739    TIP3     H2       HT       0.417000       1.00800           0
     90134 TIP3     26740    TIP3     OH2      OT      -0.834000       15.9994           0
     90135 TIP3     26740    TIP3     H1       HT       0.417000       1.00800           0
     90136 TIP3     26740    TIP3     H2       HT       0.417000       1.00800           0
     90137 TIP3     26741    TIP3     OH2      OT      -0.834000       15.9994           0
     90138 TIP3     26741    TIP3     H1       HT       0.417000       1.00800           0
     90139 TIP3     26741    TIP3     H2       HT       0.417000       1.00800           0
     90140 TIP3     26742    TIP3     OH2      OT      -0.834000       15.9994           0
     90141 TIP3     26742    TIP3     H1       HT       0.417000       1.00800           0
     90142 TIP3     26742    TIP3     H2       HT       0.417000       1.00800           0
     90143 TIP3     26743    TIP3     OH2      OT      -0.834000       15.9994           0
     90144 TIP3     26743    TIP3     H1       HT       0.417000       1.00800           0
     90145 TIP3     26743    TIP3     H2       HT       0.417000       1.00800           0
     90146 TIP3     26744    TIP3     OH2      OT      -0.834000       15.9994           0
     90147 TIP3     26744    TIP3     H1       HT       0.417000       1.00800           0
     90148 TIP3     26744    TIP3     H2       HT       0.417000       1.00800           0
     90149 TIP3     26745    TIP3     OH2      OT      -0.834000       15.9994           0
     90150 TIP3     26745    TIP3     H1       HT       0.417000       1.00800           0
     90151 TIP3     26745    TIP3     H2       HT       0.417000       1.00800           0
     90152 TIP3     26746    TIP3     OH2      OT      -0.834000       15.9994           0
     90153 TIP3     26746    TIP3     H1       HT       0.417000       1.00800           0
     90154 TIP3     26746    TIP3     H2       HT       0.417000       1.00800           0
     90155 TIP3     26747    TIP3     OH2      OT      -0.834000       15.9994           0
     90156 TIP3     26747    TIP3     H1       HT       0.417000       1.00800           0
     90157 TIP3     26747    TIP3     H2       HT       0.417000       1.00800           0
     90158 TIP3     26748    TIP3     OH2      OT      -0.834000       15.9994           0
     90159 TIP3     26748    TIP3     H1       HT       0.417000       1.00800           0
     90160 TIP3     26748    TIP3     H2       HT       0.417000       1.00800           0
     90161 TIP3     26749    TIP3     OH2      OT      -0.834000       15.9994           0
     90162 TIP3     26749    TIP3     H1       HT       0.417000       1.00800           0
     90163 TIP3     26749    TIP3     H2       HT       0.417000       1.00800           0
     90164 TIP3     26750    TIP3     OH2      OT      -0.834000       15.9994           0
     90165 TIP3     26750    TIP3     H1       HT       0.417000       1.00800           0
     90166 TIP3     26750    TIP3     H2       HT       0.417000       1.00800           0
     90167 TIP3     26751    TIP3     OH2      OT      -0.834000       15.9994           0
     90168 TIP3     26751    TIP3     H1       HT       0.417000       1.00800           0
     90169 TIP3     26751    TIP3     H2       HT       0.417000       1.00800           0
     90170 TIP3     26752    TIP3     OH2      OT      -0.834000       15.9994           0
     90171 TIP3     26752    TIP3     H1       HT       0.417000       1.00800           0
     90172 TIP3     26752    TIP3     H2       HT       0.417000       1.00800           0
     90173 TIP3     26753    TIP3     OH2      OT      -0.834000       15.9994           0
     90174 TIP3     26753    TIP3     H1       HT       0.417000       1.00800           0
     90175 TIP3     26753    TIP3     H2       HT       0.417000       1.00800           0
     90176 TIP3     26754    TIP3     OH2      OT      -0.834000       15.9994           0
     90177 TIP3     26754    TIP3     H1       HT       0.417000       1.00800           0
     90178 TIP3     26754    TIP3     H2       HT       0.417000       1.00800           0
     90179 TIP3     26755    TIP3     OH2      OT      -0.834000       15.9994           0
     90180 TIP3     26755    TIP3     H1       HT       0.417000       1.00800           0
     90181 TIP3     26755    TIP3     H2       HT       0.417000       1.00800           0
     90182 TIP3     26756    TIP3     OH2      OT      -0.834000       15.9994           0
     90183 TIP3     26756    TIP3     H1       HT       0.417000       1.00800           0
     90184 TIP3     26756    TIP3     H2       HT       0.417000       1.00800           0
     90185 TIP3     26757    TIP3     OH2      OT      -0.834000       15.9994           0
     90186 TIP3     26757    TIP3     H1       HT       0.417000       1.00800           0
     90187 TIP3     26757    TIP3     H2       HT       0.417000       1.00800           0
     90188 TIP3     26758    TIP3     OH2      OT      -0.834000       15.9994           0
     90189 TIP3     26758    TIP3     H1       HT       0.417000       1.00800           0
     90190 TIP3     26758    TIP3     H2       HT       0.417000       1.00800           0
     90191 TIP3     26759    TIP3     OH2      OT      -0.834000       15.9994           0
     90192 TIP3     26759    TIP3     H1       HT       0.417000       1.00800           0
     90193 TIP3     26759    TIP3     H2       HT       0.417000       1.00800           0
     90194 TIP3     26760    TIP3     OH2      OT      -0.834000       15.9994           0
     90195 TIP3     26760    TIP3     H1       HT       0.417000       1.00800           0
     90196 TIP3     26760    TIP3     H2       HT       0.417000       1.00800           0
     90197 TIP3     26761    TIP3     OH2      OT      -0.834000       15.9994           0
     90198 TIP3     26761    TIP3     H1       HT       0.417000       1.00800           0
     90199 TIP3     26761    TIP3     H2       HT       0.417000       1.00800           0
     90200 TIP3     26762    TIP3     OH2      OT      -0.834000       15.9994           0
     90201 TIP3     26762    TIP3     H1       HT       0.417000       1.00800           0
     90202 TIP3     26762    TIP3     H2       HT       0.417000       1.00800           0
     90203 TIP3     26763    TIP3     OH2      OT      -0.834000       15.9994           0
     90204 TIP3     26763    TIP3     H1       HT       0.417000       1.00800           0
     90205 TIP3     26763    TIP3     H2       HT       0.417000       1.00800           0
     90206 TIP3     26764    TIP3     OH2      OT      -0.834000       15.9994           0
     90207 TIP3     26764    TIP3     H1       HT       0.417000       1.00800           0
     90208 TIP3     26764    TIP3     H2       HT       0.417000       1.00800           0
     90209 TIP3     26765    TIP3     OH2      OT      -0.834000       15.9994           0
     90210 TIP3     26765    TIP3     H1       HT       0.417000       1.00800           0
     90211 TIP3     26765    TIP3     H2       HT       0.417000       1.00800           0
     90212 TIP3     26766    TIP3     OH2      OT      -0.834000       15.9994           0
     90213 TIP3     26766    TIP3     H1       HT       0.417000       1.00800           0
     90214 TIP3     26766    TIP3     H2       HT       0.417000       1.00800           0
     90215 TIP3     26767    TIP3     OH2      OT      -0.834000       15.9994           0
     90216 TIP3     26767    TIP3     H1       HT       0.417000       1.00800           0
     90217 TIP3     26767    TIP3     H2       HT       0.417000       1.00800           0
     90218 TIP3     26768    TIP3     OH2      OT      -0.834000       15.9994           0
     90219 TIP3     26768    TIP3     H1       HT       0.417000       1.00800           0
     90220 TIP3     26768    TIP3     H2       HT       0.417000       1.00800           0
     90221 TIP3     26769    TIP3     OH2      OT      -0.834000       15.9994           0
     90222 TIP3     26769    TIP3     H1       HT       0.417000       1.00800           0
     90223 TIP3     26769    TIP3     H2       HT       0.417000       1.00800           0
     90224 TIP3     26770    TIP3     OH2      OT      -0.834000       15.9994           0
     90225 TIP3     26770    TIP3     H1       HT       0.417000       1.00800           0
     90226 TIP3     26770    TIP3     H2       HT       0.417000       1.00800           0
     90227 TIP3     26771    TIP3     OH2      OT      -0.834000       15.9994           0
     90228 TIP3     26771    TIP3     H1       HT       0.417000       1.00800           0
     90229 TIP3     26771    TIP3     H2       HT       0.417000       1.00800           0
     90230 TIP3     26772    TIP3     OH2      OT      -0.834000       15.9994           0
     90231 TIP3     26772    TIP3     H1       HT       0.417000       1.00800           0
     90232 TIP3     26772    TIP3     H2       HT       0.417000       1.00800           0
     90233 TIP3     26773    TIP3     OH2      OT      -0.834000       15.9994           0
     90234 TIP3     26773    TIP3     H1       HT       0.417000       1.00800           0
     90235 TIP3     26773    TIP3     H2       HT       0.417000       1.00800           0
     90236 TIP3     26774    TIP3     OH2      OT      -0.834000       15.9994           0
     90237 TIP3     26774    TIP3     H1       HT       0.417000       1.00800           0
     90238 TIP3     26774    TIP3     H2       HT       0.417000       1.00800           0
     90239 TIP3     26775    TIP3     OH2      OT      -0.834000       15.9994           0
     90240 TIP3     26775    TIP3     H1       HT       0.417000       1.00800           0
     90241 TIP3     26775    TIP3     H2       HT       0.417000       1.00800           0
     90242 TIP3     26776    TIP3     OH2      OT      -0.834000       15.9994           0
     90243 TIP3     26776    TIP3     H1       HT       0.417000       1.00800           0
     90244 TIP3     26776    TIP3     H2       HT       0.417000       1.00800           0
     90245 TIP3     26777    TIP3     OH2      OT      -0.834000       15.9994           0
     90246 TIP3     26777    TIP3     H1       HT       0.417000       1.00800           0
     90247 TIP3     26777    TIP3     H2       HT       0.417000       1.00800           0
     90248 TIP3     26778    TIP3     OH2      OT      -0.834000       15.9994           0
     90249 TIP3     26778    TIP3     H1       HT       0.417000       1.00800           0
     90250 TIP3     26778    TIP3     H2       HT       0.417000       1.00800           0
     90251 TIP3     26779    TIP3     OH2      OT      -0.834000       15.9994           0
     90252 TIP3     26779    TIP3     H1       HT       0.417000       1.00800           0
     90253 TIP3     26779    TIP3     H2       HT       0.417000       1.00800           0
     90254 TIP3     26780    TIP3     OH2      OT      -0.834000       15.9994           0
     90255 TIP3     26780    TIP3     H1       HT       0.417000       1.00800           0
     90256 TIP3     26780    TIP3     H2       HT       0.417000       1.00800           0
     90257 TIP3     26781    TIP3     OH2      OT      -0.834000       15.9994           0
     90258 TIP3     26781    TIP3     H1       HT       0.417000       1.00800           0
     90259 TIP3     26781    TIP3     H2       HT       0.417000       1.00800           0
     90260 TIP3     26782    TIP3     OH2      OT      -0.834000       15.9994           0
     90261 TIP3     26782    TIP3     H1       HT       0.417000       1.00800           0
     90262 TIP3     26782    TIP3     H2       HT       0.417000       1.00800           0
     90263 TIP3     26783    TIP3     OH2      OT      -0.834000       15.9994           0
     90264 TIP3     26783    TIP3     H1       HT       0.417000       1.00800           0
     90265 TIP3     26783    TIP3     H2       HT       0.417000       1.00800           0
     90266 TIP3     26784    TIP3     OH2      OT      -0.834000       15.9994           0
     90267 TIP3     26784    TIP3     H1       HT       0.417000       1.00800           0
     90268 TIP3     26784    TIP3     H2       HT       0.417000       1.00800           0
     90269 TIP3     26785    TIP3     OH2      OT      -0.834000       15.9994           0
     90270 TIP3     26785    TIP3     H1       HT       0.417000       1.00800           0
     90271 TIP3     26785    TIP3     H2       HT       0.417000       1.00800           0
     90272 TIP3     26786    TIP3     OH2      OT      -0.834000       15.9994           0
     90273 TIP3     26786    TIP3     H1       HT       0.417000       1.00800           0
     90274 TIP3     26786    TIP3     H2       HT       0.417000       1.00800           0
     90275 TIP3     26787    TIP3     OH2      OT      -0.834000       15.9994           0
     90276 TIP3     26787    TIP3     H1       HT       0.417000       1.00800           0
     90277 TIP3     26787    TIP3     H2       HT       0.417000       1.00800           0
     90278 TIP3     26788    TIP3     OH2      OT      -0.834000       15.9994           0
     90279 TIP3     26788    TIP3     H1       HT       0.417000       1.00800           0
     90280 TIP3     26788    TIP3     H2       HT       0.417000       1.00800           0
     90281 TIP3     26789    TIP3     OH2      OT      -0.834000       15.9994           0
     90282 TIP3     26789    TIP3     H1       HT       0.417000       1.00800           0
     90283 TIP3     26789    TIP3     H2       HT       0.417000       1.00800           0
     90284 TIP3     26790    TIP3     OH2      OT      -0.834000       15.9994           0
     90285 TIP3     26790    TIP3     H1       HT       0.417000       1.00800           0
     90286 TIP3     26790    TIP3     H2       HT       0.417000       1.00800           0
     90287 TIP3     26791    TIP3     OH2      OT      -0.834000       15.9994           0
     90288 TIP3     26791    TIP3     H1       HT       0.417000       1.00800           0
     90289 TIP3     26791    TIP3     H2       HT       0.417000       1.00800           0
     90290 TIP3     26792    TIP3     OH2      OT      -0.834000       15.9994           0
     90291 TIP3     26792    TIP3     H1       HT       0.417000       1.00800           0
     90292 TIP3     26792    TIP3     H2       HT       0.417000       1.00800           0
     90293 TIP3     26793    TIP3     OH2      OT      -0.834000       15.9994           0
     90294 TIP3     26793    TIP3     H1       HT       0.417000       1.00800           0
     90295 TIP3     26793    TIP3     H2       HT       0.417000       1.00800           0
     90296 TIP3     26794    TIP3     OH2      OT      -0.834000       15.9994           0
     90297 TIP3     26794    TIP3     H1       HT       0.417000       1.00800           0
     90298 TIP3     26794    TIP3     H2       HT       0.417000       1.00800           0
     90299 TIP3     26795    TIP3     OH2      OT      -0.834000       15.9994           0
     90300 TIP3     26795    TIP3     H1       HT       0.417000       1.00800           0
     90301 TIP3     26795    TIP3     H2       HT       0.417000       1.00800           0
     90302 TIP3     26796    TIP3     OH2      OT      -0.834000       15.9994           0
     90303 TIP3     26796    TIP3     H1       HT       0.417000       1.00800           0
     90304 TIP3     26796    TIP3     H2       HT       0.417000       1.00800           0
     90305 TIP3     26797    TIP3     OH2      OT      -0.834000       15.9994           0
     90306 TIP3     26797    TIP3     H1       HT       0.417000       1.00800           0
     90307 TIP3     26797    TIP3     H2       HT       0.417000       1.00800           0
     90308 TIP3     26798    TIP3     OH2      OT      -0.834000       15.9994           0
     90309 TIP3     26798    TIP3     H1       HT       0.417000       1.00800           0
     90310 TIP3     26798    TIP3     H2       HT       0.417000       1.00800           0
     90311 TIP3     26799    TIP3     OH2      OT      -0.834000       15.9994           0
     90312 TIP3     26799    TIP3     H1       HT       0.417000       1.00800           0
     90313 TIP3     26799    TIP3     H2       HT       0.417000       1.00800           0
     90314 TIP3     26800    TIP3     OH2      OT      -0.834000       15.9994           0
     90315 TIP3     26800    TIP3     H1       HT       0.417000       1.00800           0
     90316 TIP3     26800    TIP3     H2       HT       0.417000       1.00800           0
     90317 TIP3     26801    TIP3     OH2      OT      -0.834000       15.9994           0
     90318 TIP3     26801    TIP3     H1       HT       0.417000       1.00800           0
     90319 TIP3     26801    TIP3     H2       HT       0.417000       1.00800           0
     90320 TIP3     26802    TIP3     OH2      OT      -0.834000       15.9994           0
     90321 TIP3     26802    TIP3     H1       HT       0.417000       1.00800           0
     90322 TIP3     26802    TIP3     H2       HT       0.417000       1.00800           0
     90323 TIP3     26803    TIP3     OH2      OT      -0.834000       15.9994           0
     90324 TIP3     26803    TIP3     H1       HT       0.417000       1.00800           0
     90325 TIP3     26803    TIP3     H2       HT       0.417000       1.00800           0
     90326 TIP3     26804    TIP3     OH2      OT      -0.834000       15.9994           0
     90327 TIP3     26804    TIP3     H1       HT       0.417000       1.00800           0
     90328 TIP3     26804    TIP3     H2       HT       0.417000       1.00800           0
     90329 TIP3     26805    TIP3     OH2      OT      -0.834000       15.9994           0
     90330 TIP3     26805    TIP3     H1       HT       0.417000       1.00800           0
     90331 TIP3     26805    TIP3     H2       HT       0.417000       1.00800           0
     90332 TIP3     26806    TIP3     OH2      OT      -0.834000       15.9994           0
     90333 TIP3     26806    TIP3     H1       HT       0.417000       1.00800           0
     90334 TIP3     26806    TIP3     H2       HT       0.417000       1.00800           0
     90335 TIP3     26807    TIP3     OH2      OT      -0.834000       15.9994           0
     90336 TIP3     26807    TIP3     H1       HT       0.417000       1.00800           0
     90337 TIP3     26807    TIP3     H2       HT       0.417000       1.00800           0
     90338 TIP3     26808    TIP3     OH2      OT      -0.834000       15.9994           0
     90339 TIP3     26808    TIP3     H1       HT       0.417000       1.00800           0
     90340 TIP3     26808    TIP3     H2       HT       0.417000       1.00800           0
     90341 TIP3     26809    TIP3     OH2      OT      -0.834000       15.9994           0
     90342 TIP3     26809    TIP3     H1       HT       0.417000       1.00800           0
     90343 TIP3     26809    TIP3     H2       HT       0.417000       1.00800           0
     90344 TIP3     26810    TIP3     OH2      OT      -0.834000       15.9994           0
     90345 TIP3     26810    TIP3     H1       HT       0.417000       1.00800           0
     90346 TIP3     26810    TIP3     H2       HT       0.417000       1.00800           0
     90347 TIP3     26811    TIP3     OH2      OT      -0.834000       15.9994           0
     90348 TIP3     26811    TIP3     H1       HT       0.417000       1.00800           0
     90349 TIP3     26811    TIP3     H2       HT       0.417000       1.00800           0
     90350 TIP3     26812    TIP3     OH2      OT      -0.834000       15.9994           0
     90351 TIP3     26812    TIP3     H1       HT       0.417000       1.00800           0
     90352 TIP3     26812    TIP3     H2       HT       0.417000       1.00800           0
     90353 TIP3     26813    TIP3     OH2      OT      -0.834000       15.9994           0
     90354 TIP3     26813    TIP3     H1       HT       0.417000       1.00800           0
     90355 TIP3     26813    TIP3     H2       HT       0.417000       1.00800           0
     90356 TIP3     26814    TIP3     OH2      OT      -0.834000       15.9994           0
     90357 TIP3     26814    TIP3     H1       HT       0.417000       1.00800           0
     90358 TIP3     26814    TIP3     H2       HT       0.417000       1.00800           0
     90359 TIP3     26815    TIP3     OH2      OT      -0.834000       15.9994           0
     90360 TIP3     26815    TIP3     H1       HT       0.417000       1.00800           0
     90361 TIP3     26815    TIP3     H2       HT       0.417000       1.00800           0
     90362 TIP3     26816    TIP3     OH2      OT      -0.834000       15.9994           0
     90363 TIP3     26816    TIP3     H1       HT       0.417000       1.00800           0
     90364 TIP3     26816    TIP3     H2       HT       0.417000       1.00800           0
     90365 TIP3     26817    TIP3     OH2      OT      -0.834000       15.9994           0
     90366 TIP3     26817    TIP3     H1       HT       0.417000       1.00800           0
     90367 TIP3     26817    TIP3     H2       HT       0.417000       1.00800           0
     90368 TIP3     26818    TIP3     OH2      OT      -0.834000       15.9994           0
     90369 TIP3     26818    TIP3     H1       HT       0.417000       1.00800           0
     90370 TIP3     26818    TIP3     H2       HT       0.417000       1.00800           0
     90371 TIP3     26819    TIP3     OH2      OT      -0.834000       15.9994           0
     90372 TIP3     26819    TIP3     H1       HT       0.417000       1.00800           0
     90373 TIP3     26819    TIP3     H2       HT       0.417000       1.00800           0
     90374 TIP3     26820    TIP3     OH2      OT      -0.834000       15.9994           0
     90375 TIP3     26820    TIP3     H1       HT       0.417000       1.00800           0
     90376 TIP3     26820    TIP3     H2       HT       0.417000       1.00800           0
     90377 TIP3     26821    TIP3     OH2      OT      -0.834000       15.9994           0
     90378 TIP3     26821    TIP3     H1       HT       0.417000       1.00800           0
     90379 TIP3     26821    TIP3     H2       HT       0.417000       1.00800           0
     90380 TIP3     26822    TIP3     OH2      OT      -0.834000       15.9994           0
     90381 TIP3     26822    TIP3     H1       HT       0.417000       1.00800           0
     90382 TIP3     26822    TIP3     H2       HT       0.417000       1.00800           0
     90383 TIP3     26823    TIP3     OH2      OT      -0.834000       15.9994           0
     90384 TIP3     26823    TIP3     H1       HT       0.417000       1.00800           0
     90385 TIP3     26823    TIP3     H2       HT       0.417000       1.00800           0
     90386 TIP3     26824    TIP3     OH2      OT      -0.834000       15.9994           0
     90387 TIP3     26824    TIP3     H1       HT       0.417000       1.00800           0
     90388 TIP3     26824    TIP3     H2       HT       0.417000       1.00800           0
     90389 TIP3     26825    TIP3     OH2      OT      -0.834000       15.9994           0
     90390 TIP3     26825    TIP3     H1       HT       0.417000       1.00800           0
     90391 TIP3     26825    TIP3     H2       HT       0.417000       1.00800           0
     90392 TIP3     26826    TIP3     OH2      OT      -0.834000       15.9994           0
     90393 TIP3     26826    TIP3     H1       HT       0.417000       1.00800           0
     90394 TIP3     26826    TIP3     H2       HT       0.417000       1.00800           0
     90395 TIP3     26827    TIP3     OH2      OT      -0.834000       15.9994           0
     90396 TIP3     26827    TIP3     H1       HT       0.417000       1.00800           0
     90397 TIP3     26827    TIP3     H2       HT       0.417000       1.00800           0
     90398 TIP3     26828    TIP3     OH2      OT      -0.834000       15.9994           0
     90399 TIP3     26828    TIP3     H1       HT       0.417000       1.00800           0
     90400 TIP3     26828    TIP3     H2       HT       0.417000       1.00800           0
     90401 TIP3     26829    TIP3     OH2      OT      -0.834000       15.9994           0
     90402 TIP3     26829    TIP3     H1       HT       0.417000       1.00800           0
     90403 TIP3     26829    TIP3     H2       HT       0.417000       1.00800           0
     90404 TIP3     26830    TIP3     OH2      OT      -0.834000       15.9994           0
     90405 TIP3     26830    TIP3     H1       HT       0.417000       1.00800           0
     90406 TIP3     26830    TIP3     H2       HT       0.417000       1.00800           0
     90407 TIP3     26831    TIP3     OH2      OT      -0.834000       15.9994           0
     90408 TIP3     26831    TIP3     H1       HT       0.417000       1.00800           0
     90409 TIP3     26831    TIP3     H2       HT       0.417000       1.00800           0
     90410 TIP3     26832    TIP3     OH2      OT      -0.834000       15.9994           0
     90411 TIP3     26832    TIP3     H1       HT       0.417000       1.00800           0
     90412 TIP3     26832    TIP3     H2       HT       0.417000       1.00800           0
     90413 TIP3     26833    TIP3     OH2      OT      -0.834000       15.9994           0
     90414 TIP3     26833    TIP3     H1       HT       0.417000       1.00800           0
     90415 TIP3     26833    TIP3     H2       HT       0.417000       1.00800           0
     90416 TIP3     26834    TIP3     OH2      OT      -0.834000       15.9994           0
     90417 TIP3     26834    TIP3     H1       HT       0.417000       1.00800           0
     90418 TIP3     26834    TIP3     H2       HT       0.417000       1.00800           0
     90419 TIP3     26835    TIP3     OH2      OT      -0.834000       15.9994           0
     90420 TIP3     26835    TIP3     H1       HT       0.417000       1.00800           0
     90421 TIP3     26835    TIP3     H2       HT       0.417000       1.00800           0
     90422 TIP3     26836    TIP3     OH2      OT      -0.834000       15.9994           0
     90423 TIP3     26836    TIP3     H1       HT       0.417000       1.00800           0
     90424 TIP3     26836    TIP3     H2       HT       0.417000       1.00800           0
     90425 TIP3     26837    TIP3     OH2      OT      -0.834000       15.9994           0
     90426 TIP3     26837    TIP3     H1       HT       0.417000       1.00800           0
     90427 TIP3     26837    TIP3     H2       HT       0.417000       1.00800           0
     90428 TIP3     26838    TIP3     OH2      OT      -0.834000       15.9994           0
     90429 TIP3     26838    TIP3     H1       HT       0.417000       1.00800           0
     90430 TIP3     26838    TIP3     H2       HT       0.417000       1.00800           0
     90431 TIP3     26839    TIP3     OH2      OT      -0.834000       15.9994           0
     90432 TIP3     26839    TIP3     H1       HT       0.417000       1.00800           0
     90433 TIP3     26839    TIP3     H2       HT       0.417000       1.00800           0
     90434 TIP3     26840    TIP3     OH2      OT      -0.834000       15.9994           0
     90435 TIP3     26840    TIP3     H1       HT       0.417000       1.00800           0
     90436 TIP3     26840    TIP3     H2       HT       0.417000       1.00800           0
     90437 TIP3     26841    TIP3     OH2      OT      -0.834000       15.9994           0
     90438 TIP3     26841    TIP3     H1       HT       0.417000       1.00800           0
     90439 TIP3     26841    TIP3     H2       HT       0.417000       1.00800           0
     90440 TIP3     26842    TIP3     OH2      OT      -0.834000       15.9994           0
     90441 TIP3     26842    TIP3     H1       HT       0.417000       1.00800           0
     90442 TIP3     26842    TIP3     H2       HT       0.417000       1.00800           0
     90443 TIP3     26843    TIP3     OH2      OT      -0.834000       15.9994           0
     90444 TIP3     26843    TIP3     H1       HT       0.417000       1.00800           0
     90445 TIP3     26843    TIP3     H2       HT       0.417000       1.00800           0
     90446 TIP3     26844    TIP3     OH2      OT      -0.834000       15.9994           0
     90447 TIP3     26844    TIP3     H1       HT       0.417000       1.00800           0
     90448 TIP3     26844    TIP3     H2       HT       0.417000       1.00800           0
     90449 TIP3     26845    TIP3     OH2      OT      -0.834000       15.9994           0
     90450 TIP3     26845    TIP3     H1       HT       0.417000       1.00800           0
     90451 TIP3     26845    TIP3     H2       HT       0.417000       1.00800           0
     90452 TIP3     26846    TIP3     OH2      OT      -0.834000       15.9994           0
     90453 TIP3     26846    TIP3     H1       HT       0.417000       1.00800           0
     90454 TIP3     26846    TIP3     H2       HT       0.417000       1.00800           0
     90455 TIP3     26847    TIP3     OH2      OT      -0.834000       15.9994           0
     90456 TIP3     26847    TIP3     H1       HT       0.417000       1.00800           0
     90457 TIP3     26847    TIP3     H2       HT       0.417000       1.00800           0
     90458 TIP3     26848    TIP3     OH2      OT      -0.834000       15.9994           0
     90459 TIP3     26848    TIP3     H1       HT       0.417000       1.00800           0
     90460 TIP3     26848    TIP3     H2       HT       0.417000       1.00800           0
     90461 TIP3     26849    TIP3     OH2      OT      -0.834000       15.9994           0
     90462 TIP3     26849    TIP3     H1       HT       0.417000       1.00800           0
     90463 TIP3     26849    TIP3     H2       HT       0.417000       1.00800           0
     90464 TIP3     26850    TIP3     OH2      OT      -0.834000       15.9994           0
     90465 TIP3     26850    TIP3     H1       HT       0.417000       1.00800           0
     90466 TIP3     26850    TIP3     H2       HT       0.417000       1.00800           0
     90467 TIP3     26851    TIP3     OH2      OT      -0.834000       15.9994           0
     90468 TIP3     26851    TIP3     H1       HT       0.417000       1.00800           0
     90469 TIP3     26851    TIP3     H2       HT       0.417000       1.00800           0
     90470 TIP3     26852    TIP3     OH2      OT      -0.834000       15.9994           0
     90471 TIP3     26852    TIP3     H1       HT       0.417000       1.00800           0
     90472 TIP3     26852    TIP3     H2       HT       0.417000       1.00800           0
     90473 TIP3     26853    TIP3     OH2      OT      -0.834000       15.9994           0
     90474 TIP3     26853    TIP3     H1       HT       0.417000       1.00800           0
     90475 TIP3     26853    TIP3     H2       HT       0.417000       1.00800           0
     90476 TIP3     26854    TIP3     OH2      OT      -0.834000       15.9994           0
     90477 TIP3     26854    TIP3     H1       HT       0.417000       1.00800           0
     90478 TIP3     26854    TIP3     H2       HT       0.417000       1.00800           0
     90479 TIP3     26855    TIP3     OH2      OT      -0.834000       15.9994           0
     90480 TIP3     26855    TIP3     H1       HT       0.417000       1.00800           0
     90481 TIP3     26855    TIP3     H2       HT       0.417000       1.00800           0
     90482 TIP3     26856    TIP3     OH2      OT      -0.834000       15.9994           0
     90483 TIP3     26856    TIP3     H1       HT       0.417000       1.00800           0
     90484 TIP3     26856    TIP3     H2       HT       0.417000       1.00800           0
     90485 TIP3     26857    TIP3     OH2      OT      -0.834000       15.9994           0
     90486 TIP3     26857    TIP3     H1       HT       0.417000       1.00800           0
     90487 TIP3     26857    TIP3     H2       HT       0.417000       1.00800           0
     90488 TIP3     26858    TIP3     OH2      OT      -0.834000       15.9994           0
     90489 TIP3     26858    TIP3     H1       HT       0.417000       1.00800           0
     90490 TIP3     26858    TIP3     H2       HT       0.417000       1.00800           0
     90491 TIP3     26859    TIP3     OH2      OT      -0.834000       15.9994           0
     90492 TIP3     26859    TIP3     H1       HT       0.417000       1.00800           0
     90493 TIP3     26859    TIP3     H2       HT       0.417000       1.00800           0
     90494 TIP3     26860    TIP3     OH2      OT      -0.834000       15.9994           0
     90495 TIP3     26860    TIP3     H1       HT       0.417000       1.00800           0
     90496 TIP3     26860    TIP3     H2       HT       0.417000       1.00800           0
     90497 TIP3     26861    TIP3     OH2      OT      -0.834000       15.9994           0
     90498 TIP3     26861    TIP3     H1       HT       0.417000       1.00800           0
     90499 TIP3     26861    TIP3     H2       HT       0.417000       1.00800           0
     90500 TIP3     26862    TIP3     OH2      OT      -0.834000       15.9994           0
     90501 TIP3     26862    TIP3     H1       HT       0.417000       1.00800           0
     90502 TIP3     26862    TIP3     H2       HT       0.417000       1.00800           0
     90503 TIP3     26863    TIP3     OH2      OT      -0.834000       15.9994           0
     90504 TIP3     26863    TIP3     H1       HT       0.417000       1.00800           0
     90505 TIP3     26863    TIP3     H2       HT       0.417000       1.00800           0
     90506 TIP3     26864    TIP3     OH2      OT      -0.834000       15.9994           0
     90507 TIP3     26864    TIP3     H1       HT       0.417000       1.00800           0
     90508 TIP3     26864    TIP3     H2       HT       0.417000       1.00800           0
     90509 TIP3     26865    TIP3     OH2      OT      -0.834000       15.9994           0
     90510 TIP3     26865    TIP3     H1       HT       0.417000       1.00800           0
     90511 TIP3     26865    TIP3     H2       HT       0.417000       1.00800           0
     90512 TIP3     26866    TIP3     OH2      OT      -0.834000       15.9994           0
     90513 TIP3     26866    TIP3     H1       HT       0.417000       1.00800           0
     90514 TIP3     26866    TIP3     H2       HT       0.417000       1.00800           0
     90515 TIP3     26867    TIP3     OH2      OT      -0.834000       15.9994           0
     90516 TIP3     26867    TIP3     H1       HT       0.417000       1.00800           0
     90517 TIP3     26867    TIP3     H2       HT       0.417000       1.00800           0
     90518 TIP3     26868    TIP3     OH2      OT      -0.834000       15.9994           0
     90519 TIP3     26868    TIP3     H1       HT       0.417000       1.00800           0
     90520 TIP3     26868    TIP3     H2       HT       0.417000       1.00800           0
     90521 TIP3     26869    TIP3     OH2      OT      -0.834000       15.9994           0
     90522 TIP3     26869    TIP3     H1       HT       0.417000       1.00800           0
     90523 TIP3     26869    TIP3     H2       HT       0.417000       1.00800           0
     90524 TIP3     26870    TIP3     OH2      OT      -0.834000       15.9994           0
     90525 TIP3     26870    TIP3     H1       HT       0.417000       1.00800           0
     90526 TIP3     26870    TIP3     H2       HT       0.417000       1.00800           0
     90527 TIP3     26871    TIP3     OH2      OT      -0.834000       15.9994           0
     90528 TIP3     26871    TIP3     H1       HT       0.417000       1.00800           0
     90529 TIP3     26871    TIP3     H2       HT       0.417000       1.00800           0
     90530 TIP3     26872    TIP3     OH2      OT      -0.834000       15.9994           0
     90531 TIP3     26872    TIP3     H1       HT       0.417000       1.00800           0
     90532 TIP3     26872    TIP3     H2       HT       0.417000       1.00800           0
     90533 TIP3     26873    TIP3     OH2      OT      -0.834000       15.9994           0
     90534 TIP3     26873    TIP3     H1       HT       0.417000       1.00800           0
     90535 TIP3     26873    TIP3     H2       HT       0.417000       1.00800           0
     90536 TIP3     26874    TIP3     OH2      OT      -0.834000       15.9994           0
     90537 TIP3     26874    TIP3     H1       HT       0.417000       1.00800           0
     90538 TIP3     26874    TIP3     H2       HT       0.417000       1.00800           0
     90539 TIP3     26875    TIP3     OH2      OT      -0.834000       15.9994           0
     90540 TIP3     26875    TIP3     H1       HT       0.417000       1.00800           0
     90541 TIP3     26875    TIP3     H2       HT       0.417000       1.00800           0
     90542 TIP3     26876    TIP3     OH2      OT      -0.834000       15.9994           0
     90543 TIP3     26876    TIP3     H1       HT       0.417000       1.00800           0
     90544 TIP3     26876    TIP3     H2       HT       0.417000       1.00800           0
     90545 TIP3     26877    TIP3     OH2      OT      -0.834000       15.9994           0
     90546 TIP3     26877    TIP3     H1       HT       0.417000       1.00800           0
     90547 TIP3     26877    TIP3     H2       HT       0.417000       1.00800           0
     90548 TIP3     26878    TIP3     OH2      OT      -0.834000       15.9994           0
     90549 TIP3     26878    TIP3     H1       HT       0.417000       1.00800           0
     90550 TIP3     26878    TIP3     H2       HT       0.417000       1.00800           0
     90551 TIP3     26879    TIP3     OH2      OT      -0.834000       15.9994           0
     90552 TIP3     26879    TIP3     H1       HT       0.417000       1.00800           0
     90553 TIP3     26879    TIP3     H2       HT       0.417000       1.00800           0
     90554 TIP3     26880    TIP3     OH2      OT      -0.834000       15.9994           0
     90555 TIP3     26880    TIP3     H1       HT       0.417000       1.00800           0
     90556 TIP3     26880    TIP3     H2       HT       0.417000       1.00800           0
     90557 TIP3     26881    TIP3     OH2      OT      -0.834000       15.9994           0
     90558 TIP3     26881    TIP3     H1       HT       0.417000       1.00800           0
     90559 TIP3     26881    TIP3     H2       HT       0.417000       1.00800           0
     90560 TIP3     26882    TIP3     OH2      OT      -0.834000       15.9994           0
     90561 TIP3     26882    TIP3     H1       HT       0.417000       1.00800           0
     90562 TIP3     26882    TIP3     H2       HT       0.417000       1.00800           0
     90563 TIP3     26883    TIP3     OH2      OT      -0.834000       15.9994           0
     90564 TIP3     26883    TIP3     H1       HT       0.417000       1.00800           0
     90565 TIP3     26883    TIP3     H2       HT       0.417000       1.00800           0
     90566 TIP3     26884    TIP3     OH2      OT      -0.834000       15.9994           0
     90567 TIP3     26884    TIP3     H1       HT       0.417000       1.00800           0
     90568 TIP3     26884    TIP3     H2       HT       0.417000       1.00800           0
     90569 TIP3     26885    TIP3     OH2      OT      -0.834000       15.9994           0
     90570 TIP3     26885    TIP3     H1       HT       0.417000       1.00800           0
     90571 TIP3     26885    TIP3     H2       HT       0.417000       1.00800           0
     90572 TIP3     26886    TIP3     OH2      OT      -0.834000       15.9994           0
     90573 TIP3     26886    TIP3     H1       HT       0.417000       1.00800           0
     90574 TIP3     26886    TIP3     H2       HT       0.417000       1.00800           0
     90575 TIP3     26887    TIP3     OH2      OT      -0.834000       15.9994           0
     90576 TIP3     26887    TIP3     H1       HT       0.417000       1.00800           0
     90577 TIP3     26887    TIP3     H2       HT       0.417000       1.00800           0
     90578 TIP3     26888    TIP3     OH2      OT      -0.834000       15.9994           0
     90579 TIP3     26888    TIP3     H1       HT       0.417000       1.00800           0
     90580 TIP3     26888    TIP3     H2       HT       0.417000       1.00800           0
     90581 TIP3     26889    TIP3     OH2      OT      -0.834000       15.9994           0
     90582 TIP3     26889    TIP3     H1       HT       0.417000       1.00800           0
     90583 TIP3     26889    TIP3     H2       HT       0.417000       1.00800           0
     90584 TIP3     26890    TIP3     OH2      OT      -0.834000       15.9994           0
     90585 TIP3     26890    TIP3     H1       HT       0.417000       1.00800           0
     90586 TIP3     26890    TIP3     H2       HT       0.417000       1.00800           0
     90587 TIP3     26891    TIP3     OH2      OT      -0.834000       15.9994           0
     90588 TIP3     26891    TIP3     H1       HT       0.417000       1.00800           0
     90589 TIP3     26891    TIP3     H2       HT       0.417000       1.00800           0
     90590 TIP3     26892    TIP3     OH2      OT      -0.834000       15.9994           0
     90591 TIP3     26892    TIP3     H1       HT       0.417000       1.00800           0
     90592 TIP3     26892    TIP3     H2       HT       0.417000       1.00800           0
     90593 TIP3     26893    TIP3     OH2      OT      -0.834000       15.9994           0
     90594 TIP3     26893    TIP3     H1       HT       0.417000       1.00800           0
     90595 TIP3     26893    TIP3     H2       HT       0.417000       1.00800           0
     90596 TIP3     26894    TIP3     OH2      OT      -0.834000       15.9994           0
     90597 TIP3     26894    TIP3     H1       HT       0.417000       1.00800           0
     90598 TIP3     26894    TIP3     H2       HT       0.417000       1.00800           0
     90599 TIP3     26895    TIP3     OH2      OT      -0.834000       15.9994           0
     90600 TIP3     26895    TIP3     H1       HT       0.417000       1.00800           0
     90601 TIP3     26895    TIP3     H2       HT       0.417000       1.00800           0
     90602 TIP3     26896    TIP3     OH2      OT      -0.834000       15.9994           0
     90603 TIP3     26896    TIP3     H1       HT       0.417000       1.00800           0
     90604 TIP3     26896    TIP3     H2       HT       0.417000       1.00800           0
     90605 TIP3     26897    TIP3     OH2      OT      -0.834000       15.9994           0
     90606 TIP3     26897    TIP3     H1       HT       0.417000       1.00800           0
     90607 TIP3     26897    TIP3     H2       HT       0.417000       1.00800           0
     90608 TIP3     26898    TIP3     OH2      OT      -0.834000       15.9994           0
     90609 TIP3     26898    TIP3     H1       HT       0.417000       1.00800           0
     90610 TIP3     26898    TIP3     H2       HT       0.417000       1.00800           0
     90611 TIP3     26899    TIP3     OH2      OT      -0.834000       15.9994           0
     90612 TIP3     26899    TIP3     H1       HT       0.417000       1.00800           0
     90613 TIP3     26899    TIP3     H2       HT       0.417000       1.00800           0
     90614 TIP3     26900    TIP3     OH2      OT      -0.834000       15.9994           0
     90615 TIP3     26900    TIP3     H1       HT       0.417000       1.00800           0
     90616 TIP3     26900    TIP3     H2       HT       0.417000       1.00800           0
     90617 TIP3     26901    TIP3     OH2      OT      -0.834000       15.9994           0
     90618 TIP3     26901    TIP3     H1       HT       0.417000       1.00800           0
     90619 TIP3     26901    TIP3     H2       HT       0.417000       1.00800           0
     90620 TIP3     26902    TIP3     OH2      OT      -0.834000       15.9994           0
     90621 TIP3     26902    TIP3     H1       HT       0.417000       1.00800           0
     90622 TIP3     26902    TIP3     H2       HT       0.417000       1.00800           0
     90623 TIP3     26903    TIP3     OH2      OT      -0.834000       15.9994           0
     90624 TIP3     26903    TIP3     H1       HT       0.417000       1.00800           0
     90625 TIP3     26903    TIP3     H2       HT       0.417000       1.00800           0
     90626 TIP3     26904    TIP3     OH2      OT      -0.834000       15.9994           0
     90627 TIP3     26904    TIP3     H1       HT       0.417000       1.00800           0
     90628 TIP3     26904    TIP3     H2       HT       0.417000       1.00800           0
     90629 TIP3     26905    TIP3     OH2      OT      -0.834000       15.9994           0
     90630 TIP3     26905    TIP3     H1       HT       0.417000       1.00800           0
     90631 TIP3     26905    TIP3     H2       HT       0.417000       1.00800           0
     90632 TIP3     26906    TIP3     OH2      OT      -0.834000       15.9994           0
     90633 TIP3     26906    TIP3     H1       HT       0.417000       1.00800           0
     90634 TIP3     26906    TIP3     H2       HT       0.417000       1.00800           0
     90635 TIP3     26907    TIP3     OH2      OT      -0.834000       15.9994           0
     90636 TIP3     26907    TIP3     H1       HT       0.417000       1.00800           0
     90637 TIP3     26907    TIP3     H2       HT       0.417000       1.00800           0
     90638 TIP3     26908    TIP3     OH2      OT      -0.834000       15.9994           0
     90639 TIP3     26908    TIP3     H1       HT       0.417000       1.00800           0
     90640 TIP3     26908    TIP3     H2       HT       0.417000       1.00800           0
     90641 TIP3     26909    TIP3     OH2      OT      -0.834000       15.9994           0
     90642 TIP3     26909    TIP3     H1       HT       0.417000       1.00800           0
     90643 TIP3     26909    TIP3     H2       HT       0.417000       1.00800           0
     90644 TIP3     26910    TIP3     OH2      OT      -0.834000       15.9994           0
     90645 TIP3     26910    TIP3     H1       HT       0.417000       1.00800           0
     90646 TIP3     26910    TIP3     H2       HT       0.417000       1.00800           0
     90647 TIP3     26911    TIP3     OH2      OT      -0.834000       15.9994           0
     90648 TIP3     26911    TIP3     H1       HT       0.417000       1.00800           0
     90649 TIP3     26911    TIP3     H2       HT       0.417000       1.00800           0
     90650 TIP3     26912    TIP3     OH2      OT      -0.834000       15.9994           0
     90651 TIP3     26912    TIP3     H1       HT       0.417000       1.00800           0
     90652 TIP3     26912    TIP3     H2       HT       0.417000       1.00800           0
     90653 TIP3     26913    TIP3     OH2      OT      -0.834000       15.9994           0
     90654 TIP3     26913    TIP3     H1       HT       0.417000       1.00800           0
     90655 TIP3     26913    TIP3     H2       HT       0.417000       1.00800           0
     90656 TIP3     26914    TIP3     OH2      OT      -0.834000       15.9994           0
     90657 TIP3     26914    TIP3     H1       HT       0.417000       1.00800           0
     90658 TIP3     26914    TIP3     H2       HT       0.417000       1.00800           0
     90659 TIP3     26915    TIP3     OH2      OT      -0.834000       15.9994           0
     90660 TIP3     26915    TIP3     H1       HT       0.417000       1.00800           0
     90661 TIP3     26915    TIP3     H2       HT       0.417000       1.00800           0
     90662 TIP3     26916    TIP3     OH2      OT      -0.834000       15.9994           0
     90663 TIP3     26916    TIP3     H1       HT       0.417000       1.00800           0
     90664 TIP3     26916    TIP3     H2       HT       0.417000       1.00800           0
     90665 TIP3     26917    TIP3     OH2      OT      -0.834000       15.9994           0
     90666 TIP3     26917    TIP3     H1       HT       0.417000       1.00800           0
     90667 TIP3     26917    TIP3     H2       HT       0.417000       1.00800           0
     90668 TIP3     26918    TIP3     OH2      OT      -0.834000       15.9994           0
     90669 TIP3     26918    TIP3     H1       HT       0.417000       1.00800           0
     90670 TIP3     26918    TIP3     H2       HT       0.417000       1.00800           0
     90671 TIP3     26919    TIP3     OH2      OT      -0.834000       15.9994           0
     90672 TIP3     26919    TIP3     H1       HT       0.417000       1.00800           0
     90673 TIP3     26919    TIP3     H2       HT       0.417000       1.00800           0
     90674 TIP3     26920    TIP3     OH2      OT      -0.834000       15.9994           0
     90675 TIP3     26920    TIP3     H1       HT       0.417000       1.00800           0
     90676 TIP3     26920    TIP3     H2       HT       0.417000       1.00800           0
     90677 TIP3     26921    TIP3     OH2      OT      -0.834000       15.9994           0
     90678 TIP3     26921    TIP3     H1       HT       0.417000       1.00800           0
     90679 TIP3     26921    TIP3     H2       HT       0.417000       1.00800           0
     90680 TIP3     26922    TIP3     OH2      OT      -0.834000       15.9994           0
     90681 TIP3     26922    TIP3     H1       HT       0.417000       1.00800           0
     90682 TIP3     26922    TIP3     H2       HT       0.417000       1.00800           0
     90683 TIP3     26923    TIP3     OH2      OT      -0.834000       15.9994           0
     90684 TIP3     26923    TIP3     H1       HT       0.417000       1.00800           0
     90685 TIP3     26923    TIP3     H2       HT       0.417000       1.00800           0
     90686 TIP3     26924    TIP3     OH2      OT      -0.834000       15.9994           0
     90687 TIP3     26924    TIP3     H1       HT       0.417000       1.00800           0
     90688 TIP3     26924    TIP3     H2       HT       0.417000       1.00800           0
     90689 TIP3     26925    TIP3     OH2      OT      -0.834000       15.9994           0
     90690 TIP3     26925    TIP3     H1       HT       0.417000       1.00800           0
     90691 TIP3     26925    TIP3     H2       HT       0.417000       1.00800           0
     90692 TIP3     26926    TIP3     OH2      OT      -0.834000       15.9994           0
     90693 TIP3     26926    TIP3     H1       HT       0.417000       1.00800           0
     90694 TIP3     26926    TIP3     H2       HT       0.417000       1.00800           0
     90695 TIP3     26927    TIP3     OH2      OT      -0.834000       15.9994           0
     90696 TIP3     26927    TIP3     H1       HT       0.417000       1.00800           0
     90697 TIP3     26927    TIP3     H2       HT       0.417000       1.00800           0
     90698 TIP3     26928    TIP3     OH2      OT      -0.834000       15.9994           0
     90699 TIP3     26928    TIP3     H1       HT       0.417000       1.00800           0
     90700 TIP3     26928    TIP3     H2       HT       0.417000       1.00800           0
     90701 TIP3     26929    TIP3     OH2      OT      -0.834000       15.9994           0
     90702 TIP3     26929    TIP3     H1       HT       0.417000       1.00800           0
     90703 TIP3     26929    TIP3     H2       HT       0.417000       1.00800           0
     90704 TIP3     26930    TIP3     OH2      OT      -0.834000       15.9994           0
     90705 TIP3     26930    TIP3     H1       HT       0.417000       1.00800           0
     90706 TIP3     26930    TIP3     H2       HT       0.417000       1.00800           0
     90707 TIP3     26931    TIP3     OH2      OT      -0.834000       15.9994           0
     90708 TIP3     26931    TIP3     H1       HT       0.417000       1.00800           0
     90709 TIP3     26931    TIP3     H2       HT       0.417000       1.00800           0
     90710 TIP3     26932    TIP3     OH2      OT      -0.834000       15.9994           0
     90711 TIP3     26932    TIP3     H1       HT       0.417000       1.00800           0
     90712 TIP3     26932    TIP3     H2       HT       0.417000       1.00800           0
     90713 TIP3     26933    TIP3     OH2      OT      -0.834000       15.9994           0
     90714 TIP3     26933    TIP3     H1       HT       0.417000       1.00800           0
     90715 TIP3     26933    TIP3     H2       HT       0.417000       1.00800           0
     90716 TIP3     26934    TIP3     OH2      OT      -0.834000       15.9994           0
     90717 TIP3     26934    TIP3     H1       HT       0.417000       1.00800           0
     90718 TIP3     26934    TIP3     H2       HT       0.417000       1.00800           0
     90719 TIP3     26935    TIP3     OH2      OT      -0.834000       15.9994           0
     90720 TIP3     26935    TIP3     H1       HT       0.417000       1.00800           0
     90721 TIP3     26935    TIP3     H2       HT       0.417000       1.00800           0
     90722 TIP3     26936    TIP3     OH2      OT      -0.834000       15.9994           0
     90723 TIP3     26936    TIP3     H1       HT       0.417000       1.00800           0
     90724 TIP3     26936    TIP3     H2       HT       0.417000       1.00800           0
     90725 TIP3     26937    TIP3     OH2      OT      -0.834000       15.9994           0
     90726 TIP3     26937    TIP3     H1       HT       0.417000       1.00800           0
     90727 TIP3     26937    TIP3     H2       HT       0.417000       1.00800           0
     90728 TIP3     26938    TIP3     OH2      OT      -0.834000       15.9994           0
     90729 TIP3     26938    TIP3     H1       HT       0.417000       1.00800           0
     90730 TIP3     26938    TIP3     H2       HT       0.417000       1.00800           0
     90731 TIP3     26939    TIP3     OH2      OT      -0.834000       15.9994           0
     90732 TIP3     26939    TIP3     H1       HT       0.417000       1.00800           0
     90733 TIP3     26939    TIP3     H2       HT       0.417000       1.00800           0
     90734 TIP3     26940    TIP3     OH2      OT      -0.834000       15.9994           0
     90735 TIP3     26940    TIP3     H1       HT       0.417000       1.00800           0
     90736 TIP3     26940    TIP3     H2       HT       0.417000       1.00800           0
     90737 TIP3     26941    TIP3     OH2      OT      -0.834000       15.9994           0
     90738 TIP3     26941    TIP3     H1       HT       0.417000       1.00800           0
     90739 TIP3     26941    TIP3     H2       HT       0.417000       1.00800           0
     90740 TIP3     26942    TIP3     OH2      OT      -0.834000       15.9994           0
     90741 TIP3     26942    TIP3     H1       HT       0.417000       1.00800           0
     90742 TIP3     26942    TIP3     H2       HT       0.417000       1.00800           0
     90743 TIP3     26943    TIP3     OH2      OT      -0.834000       15.9994           0
     90744 TIP3     26943    TIP3     H1       HT       0.417000       1.00800           0
     90745 TIP3     26943    TIP3     H2       HT       0.417000       1.00800           0
     90746 TIP3     26944    TIP3     OH2      OT      -0.834000       15.9994           0
     90747 TIP3     26944    TIP3     H1       HT       0.417000       1.00800           0
     90748 TIP3     26944    TIP3     H2       HT       0.417000       1.00800           0
     90749 TIP3     26945    TIP3     OH2      OT      -0.834000       15.9994           0
     90750 TIP3     26945    TIP3     H1       HT       0.417000       1.00800           0
     90751 TIP3     26945    TIP3     H2       HT       0.417000       1.00800           0
     90752 TIP3     26946    TIP3     OH2      OT      -0.834000       15.9994           0
     90753 TIP3     26946    TIP3     H1       HT       0.417000       1.00800           0
     90754 TIP3     26946    TIP3     H2       HT       0.417000       1.00800           0
     90755 TIP3     26947    TIP3     OH2      OT      -0.834000       15.9994           0
     90756 TIP3     26947    TIP3     H1       HT       0.417000       1.00800           0
     90757 TIP3     26947    TIP3     H2       HT       0.417000       1.00800           0
     90758 TIP3     26948    TIP3     OH2      OT      -0.834000       15.9994           0
     90759 TIP3     26948    TIP3     H1       HT       0.417000       1.00800           0
     90760 TIP3     26948    TIP3     H2       HT       0.417000       1.00800           0
     90761 TIP3     26949    TIP3     OH2      OT      -0.834000       15.9994           0
     90762 TIP3     26949    TIP3     H1       HT       0.417000       1.00800           0
     90763 TIP3     26949    TIP3     H2       HT       0.417000       1.00800           0
     90764 TIP3     26950    TIP3     OH2      OT      -0.834000       15.9994           0
     90765 TIP3     26950    TIP3     H1       HT       0.417000       1.00800           0
     90766 TIP3     26950    TIP3     H2       HT       0.417000       1.00800           0
     90767 TIP3     26951    TIP3     OH2      OT      -0.834000       15.9994           0
     90768 TIP3     26951    TIP3     H1       HT       0.417000       1.00800           0
     90769 TIP3     26951    TIP3     H2       HT       0.417000       1.00800           0
     90770 TIP3     26952    TIP3     OH2      OT      -0.834000       15.9994           0
     90771 TIP3     26952    TIP3     H1       HT       0.417000       1.00800           0
     90772 TIP3     26952    TIP3     H2       HT       0.417000       1.00800           0
     90773 TIP3     26953    TIP3     OH2      OT      -0.834000       15.9994           0
     90774 TIP3     26953    TIP3     H1       HT       0.417000       1.00800           0
     90775 TIP3     26953    TIP3     H2       HT       0.417000       1.00800           0
     90776 TIP3     26954    TIP3     OH2      OT      -0.834000       15.9994           0
     90777 TIP3     26954    TIP3     H1       HT       0.417000       1.00800           0
     90778 TIP3     26954    TIP3     H2       HT       0.417000       1.00800           0
     90779 TIP3     26955    TIP3     OH2      OT      -0.834000       15.9994           0
     90780 TIP3     26955    TIP3     H1       HT       0.417000       1.00800           0
     90781 TIP3     26955    TIP3     H2       HT       0.417000       1.00800           0
     90782 TIP3     26956    TIP3     OH2      OT      -0.834000       15.9994           0
     90783 TIP3     26956    TIP3     H1       HT       0.417000       1.00800           0
     90784 TIP3     26956    TIP3     H2       HT       0.417000       1.00800           0
     90785 TIP3     26957    TIP3     OH2      OT      -0.834000       15.9994           0
     90786 TIP3     26957    TIP3     H1       HT       0.417000       1.00800           0
     90787 TIP3     26957    TIP3     H2       HT       0.417000       1.00800           0
     90788 TIP3     26958    TIP3     OH2      OT      -0.834000       15.9994           0
     90789 TIP3     26958    TIP3     H1       HT       0.417000       1.00800           0
     90790 TIP3     26958    TIP3     H2       HT       0.417000       1.00800           0
     90791 TIP3     26959    TIP3     OH2      OT      -0.834000       15.9994           0
     90792 TIP3     26959    TIP3     H1       HT       0.417000       1.00800           0
     90793 TIP3     26959    TIP3     H2       HT       0.417000       1.00800           0
     90794 TIP3     26960    TIP3     OH2      OT      -0.834000       15.9994           0
     90795 TIP3     26960    TIP3     H1       HT       0.417000       1.00800           0
     90796 TIP3     26960    TIP3     H2       HT       0.417000       1.00800           0
     90797 TIP3     26961    TIP3     OH2      OT      -0.834000       15.9994           0
     90798 TIP3     26961    TIP3     H1       HT       0.417000       1.00800           0
     90799 TIP3     26961    TIP3     H2       HT       0.417000       1.00800           0
     90800 TIP3     26962    TIP3     OH2      OT      -0.834000       15.9994           0
     90801 TIP3     26962    TIP3     H1       HT       0.417000       1.00800           0
     90802 TIP3     26962    TIP3     H2       HT       0.417000       1.00800           0
     90803 TIP3     26963    TIP3     OH2      OT      -0.834000       15.9994           0
     90804 TIP3     26963    TIP3     H1       HT       0.417000       1.00800           0
     90805 TIP3     26963    TIP3     H2       HT       0.417000       1.00800           0
     90806 TIP3     26964    TIP3     OH2      OT      -0.834000       15.9994           0
     90807 TIP3     26964    TIP3     H1       HT       0.417000       1.00800           0
     90808 TIP3     26964    TIP3     H2       HT       0.417000       1.00800           0
     90809 TIP3     26965    TIP3     OH2      OT      -0.834000       15.9994           0
     90810 TIP3     26965    TIP3     H1       HT       0.417000       1.00800           0
     90811 TIP3     26965    TIP3     H2       HT       0.417000       1.00800           0
     90812 TIP3     26966    TIP3     OH2      OT      -0.834000       15.9994           0
     90813 TIP3     26966    TIP3     H1       HT       0.417000       1.00800           0
     90814 TIP3     26966    TIP3     H2       HT       0.417000       1.00800           0
     90815 TIP3     26967    TIP3     OH2      OT      -0.834000       15.9994           0
     90816 TIP3     26967    TIP3     H1       HT       0.417000       1.00800           0
     90817 TIP3     26967    TIP3     H2       HT       0.417000       1.00800           0
     90818 TIP3     26968    TIP3     OH2      OT      -0.834000       15.9994           0
     90819 TIP3     26968    TIP3     H1       HT       0.417000       1.00800           0
     90820 TIP3     26968    TIP3     H2       HT       0.417000       1.00800           0
     90821 TIP3     26969    TIP3     OH2      OT      -0.834000       15.9994           0
     90822 TIP3     26969    TIP3     H1       HT       0.417000       1.00800           0
     90823 TIP3     26969    TIP3     H2       HT       0.417000       1.00800           0
     90824 TIP3     26970    TIP3     OH2      OT      -0.834000       15.9994           0
     90825 TIP3     26970    TIP3     H1       HT       0.417000       1.00800           0
     90826 TIP3     26970    TIP3     H2       HT       0.417000       1.00800           0
     90827 TIP3     26971    TIP3     OH2      OT      -0.834000       15.9994           0
     90828 TIP3     26971    TIP3     H1       HT       0.417000       1.00800           0
     90829 TIP3     26971    TIP3     H2       HT       0.417000       1.00800           0
     90830 TIP3     26972    TIP3     OH2      OT      -0.834000       15.9994           0
     90831 TIP3     26972    TIP3     H1       HT       0.417000       1.00800           0
     90832 TIP3     26972    TIP3     H2       HT       0.417000       1.00800           0
     90833 TIP3     26973    TIP3     OH2      OT      -0.834000       15.9994           0
     90834 TIP3     26973    TIP3     H1       HT       0.417000       1.00800           0
     90835 TIP3     26973    TIP3     H2       HT       0.417000       1.00800           0
     90836 TIP3     26974    TIP3     OH2      OT      -0.834000       15.9994           0
     90837 TIP3     26974    TIP3     H1       HT       0.417000       1.00800           0
     90838 TIP3     26974    TIP3     H2       HT       0.417000       1.00800           0
     90839 TIP3     26975    TIP3     OH2      OT      -0.834000       15.9994           0
     90840 TIP3     26975    TIP3     H1       HT       0.417000       1.00800           0
     90841 TIP3     26975    TIP3     H2       HT       0.417000       1.00800           0
     90842 TIP3     26976    TIP3     OH2      OT      -0.834000       15.9994           0
     90843 TIP3     26976    TIP3     H1       HT       0.417000       1.00800           0
     90844 TIP3     26976    TIP3     H2       HT       0.417000       1.00800           0
     90845 TIP3     26977    TIP3     OH2      OT      -0.834000       15.9994           0
     90846 TIP3     26977    TIP3     H1       HT       0.417000       1.00800           0
     90847 TIP3     26977    TIP3     H2       HT       0.417000       1.00800           0
     90848 TIP3     26978    TIP3     OH2      OT      -0.834000       15.9994           0
     90849 TIP3     26978    TIP3     H1       HT       0.417000       1.00800           0
     90850 TIP3     26978    TIP3     H2       HT       0.417000       1.00800           0
     90851 TIP3     26979    TIP3     OH2      OT      -0.834000       15.9994           0
     90852 TIP3     26979    TIP3     H1       HT       0.417000       1.00800           0
     90853 TIP3     26979    TIP3     H2       HT       0.417000       1.00800           0
     90854 TIP3     26980    TIP3     OH2      OT      -0.834000       15.9994           0
     90855 TIP3     26980    TIP3     H1       HT       0.417000       1.00800           0
     90856 TIP3     26980    TIP3     H2       HT       0.417000       1.00800           0
     90857 TIP3     26981    TIP3     OH2      OT      -0.834000       15.9994           0
     90858 TIP3     26981    TIP3     H1       HT       0.417000       1.00800           0
     90859 TIP3     26981    TIP3     H2       HT       0.417000       1.00800           0
     90860 TIP3     26982    TIP3     OH2      OT      -0.834000       15.9994           0
     90861 TIP3     26982    TIP3     H1       HT       0.417000       1.00800           0
     90862 TIP3     26982    TIP3     H2       HT       0.417000       1.00800           0
     90863 TIP3     26983    TIP3     OH2      OT      -0.834000       15.9994           0
     90864 TIP3     26983    TIP3     H1       HT       0.417000       1.00800           0
     90865 TIP3     26983    TIP3     H2       HT       0.417000       1.00800           0
     90866 TIP3     26984    TIP3     OH2      OT      -0.834000       15.9994           0
     90867 TIP3     26984    TIP3     H1       HT       0.417000       1.00800           0
     90868 TIP3     26984    TIP3     H2       HT       0.417000       1.00800           0
     90869 TIP3     26985    TIP3     OH2      OT      -0.834000       15.9994           0
     90870 TIP3     26985    TIP3     H1       HT       0.417000       1.00800           0
     90871 TIP3     26985    TIP3     H2       HT       0.417000       1.00800           0
     90872 TIP3     26986    TIP3     OH2      OT      -0.834000       15.9994           0
     90873 TIP3     26986    TIP3     H1       HT       0.417000       1.00800           0
     90874 TIP3     26986    TIP3     H2       HT       0.417000       1.00800           0
     90875 TIP3     26987    TIP3     OH2      OT      -0.834000       15.9994           0
     90876 TIP3     26987    TIP3     H1       HT       0.417000       1.00800           0
     90877 TIP3     26987    TIP3     H2       HT       0.417000       1.00800           0
     90878 TIP3     26988    TIP3     OH2      OT      -0.834000       15.9994           0
     90879 TIP3     26988    TIP3     H1       HT       0.417000       1.00800           0
     90880 TIP3     26988    TIP3     H2       HT       0.417000       1.00800           0
     90881 TIP3     26989    TIP3     OH2      OT      -0.834000       15.9994           0
     90882 TIP3     26989    TIP3     H1       HT       0.417000       1.00800           0
     90883 TIP3     26989    TIP3     H2       HT       0.417000       1.00800           0
     90884 TIP3     26990    TIP3     OH2      OT      -0.834000       15.9994           0
     90885 TIP3     26990    TIP3     H1       HT       0.417000       1.00800           0
     90886 TIP3     26990    TIP3     H2       HT       0.417000       1.00800           0
     90887 TIP3     26991    TIP3     OH2      OT      -0.834000       15.9994           0
     90888 TIP3     26991    TIP3     H1       HT       0.417000       1.00800           0
     90889 TIP3     26991    TIP3     H2       HT       0.417000       1.00800           0
     90890 TIP3     26992    TIP3     OH2      OT      -0.834000       15.9994           0
     90891 TIP3     26992    TIP3     H1       HT       0.417000       1.00800           0
     90892 TIP3     26992    TIP3     H2       HT       0.417000       1.00800           0
     90893 TIP3     26993    TIP3     OH2      OT      -0.834000       15.9994           0
     90894 TIP3     26993    TIP3     H1       HT       0.417000       1.00800           0
     90895 TIP3     26993    TIP3     H2       HT       0.417000       1.00800           0
     90896 TIP3     26994    TIP3     OH2      OT      -0.834000       15.9994           0
     90897 TIP3     26994    TIP3     H1       HT       0.417000       1.00800           0
     90898 TIP3     26994    TIP3     H2       HT       0.417000       1.00800           0
     90899 TIP3     26995    TIP3     OH2      OT      -0.834000       15.9994           0
     90900 TIP3     26995    TIP3     H1       HT       0.417000       1.00800           0
     90901 TIP3     26995    TIP3     H2       HT       0.417000       1.00800           0
     90902 TIP3     26996    TIP3     OH2      OT      -0.834000       15.9994           0
     90903 TIP3     26996    TIP3     H1       HT       0.417000       1.00800           0
     90904 TIP3     26996    TIP3     H2       HT       0.417000       1.00800           0
     90905 TIP3     26997    TIP3     OH2      OT      -0.834000       15.9994           0
     90906 TIP3     26997    TIP3     H1       HT       0.417000       1.00800           0
     90907 TIP3     26997    TIP3     H2       HT       0.417000       1.00800           0
     90908 TIP3     26998    TIP3     OH2      OT      -0.834000       15.9994           0
     90909 TIP3     26998    TIP3     H1       HT       0.417000       1.00800           0
     90910 TIP3     26998    TIP3     H2       HT       0.417000       1.00800           0
     90911 TIP3     26999    TIP3     OH2      OT      -0.834000       15.9994           0
     90912 TIP3     26999    TIP3     H1       HT       0.417000       1.00800           0
     90913 TIP3     26999    TIP3     H2       HT       0.417000       1.00800           0
     90914 TIP3     27000    TIP3     OH2      OT      -0.834000       15.9994           0
     90915 TIP3     27000    TIP3     H1       HT       0.417000       1.00800           0
     90916 TIP3     27000    TIP3     H2       HT       0.417000       1.00800           0
     90917 TIP3     27001    TIP3     OH2      OT      -0.834000       15.9994           0
     90918 TIP3     27001    TIP3     H1       HT       0.417000       1.00800           0
     90919 TIP3     27001    TIP3     H2       HT       0.417000       1.00800           0
     90920 TIP3     27002    TIP3     OH2      OT      -0.834000       15.9994           0
     90921 TIP3     27002    TIP3     H1       HT       0.417000       1.00800           0
     90922 TIP3     27002    TIP3     H2       HT       0.417000       1.00800           0
     90923 TIP3     27003    TIP3     OH2      OT      -0.834000       15.9994           0
     90924 TIP3     27003    TIP3     H1       HT       0.417000       1.00800           0
     90925 TIP3     27003    TIP3     H2       HT       0.417000       1.00800           0
     90926 TIP3     27004    TIP3     OH2      OT      -0.834000       15.9994           0
     90927 TIP3     27004    TIP3     H1       HT       0.417000       1.00800           0
     90928 TIP3     27004    TIP3     H2       HT       0.417000       1.00800           0
     90929 TIP3     27005    TIP3     OH2      OT      -0.834000       15.9994           0
     90930 TIP3     27005    TIP3     H1       HT       0.417000       1.00800           0
     90931 TIP3     27005    TIP3     H2       HT       0.417000       1.00800           0
     90932 TIP3     27006    TIP3     OH2      OT      -0.834000       15.9994           0
     90933 TIP3     27006    TIP3     H1       HT       0.417000       1.00800           0
     90934 TIP3     27006    TIP3     H2       HT       0.417000       1.00800           0
     90935 TIP3     27007    TIP3     OH2      OT      -0.834000       15.9994           0
     90936 TIP3     27007    TIP3     H1       HT       0.417000       1.00800           0
     90937 TIP3     27007    TIP3     H2       HT       0.417000       1.00800           0
     90938 TIP3     27008    TIP3     OH2      OT      -0.834000       15.9994           0
     90939 TIP3     27008    TIP3     H1       HT       0.417000       1.00800           0
     90940 TIP3     27008    TIP3     H2       HT       0.417000       1.00800           0
     90941 TIP3     27009    TIP3     OH2      OT      -0.834000       15.9994           0
     90942 TIP3     27009    TIP3     H1       HT       0.417000       1.00800           0
     90943 TIP3     27009    TIP3     H2       HT       0.417000       1.00800           0
     90944 TIP3     27010    TIP3     OH2      OT      -0.834000       15.9994           0
     90945 TIP3     27010    TIP3     H1       HT       0.417000       1.00800           0
     90946 TIP3     27010    TIP3     H2       HT       0.417000       1.00800           0
     90947 TIP3     27011    TIP3     OH2      OT      -0.834000       15.9994           0
     90948 TIP3     27011    TIP3     H1       HT       0.417000       1.00800           0
     90949 TIP3     27011    TIP3     H2       HT       0.417000       1.00800           0
     90950 TIP3     27012    TIP3     OH2      OT      -0.834000       15.9994           0
     90951 TIP3     27012    TIP3     H1       HT       0.417000       1.00800           0
     90952 TIP3     27012    TIP3     H2       HT       0.417000       1.00800           0
     90953 TIP3     27013    TIP3     OH2      OT      -0.834000       15.9994           0
     90954 TIP3     27013    TIP3     H1       HT       0.417000       1.00800           0
     90955 TIP3     27013    TIP3     H2       HT       0.417000       1.00800           0
     90956 TIP3     27014    TIP3     OH2      OT      -0.834000       15.9994           0
     90957 TIP3     27014    TIP3     H1       HT       0.417000       1.00800           0
     90958 TIP3     27014    TIP3     H2       HT       0.417000       1.00800           0
     90959 TIP3     27015    TIP3     OH2      OT      -0.834000       15.9994           0
     90960 TIP3     27015    TIP3     H1       HT       0.417000       1.00800           0
     90961 TIP3     27015    TIP3     H2       HT       0.417000       1.00800           0
     90962 TIP3     27016    TIP3     OH2      OT      -0.834000       15.9994           0
     90963 TIP3     27016    TIP3     H1       HT       0.417000       1.00800           0
     90964 TIP3     27016    TIP3     H2       HT       0.417000       1.00800           0
     90965 TIP3     27017    TIP3     OH2      OT      -0.834000       15.9994           0
     90966 TIP3     27017    TIP3     H1       HT       0.417000       1.00800           0
     90967 TIP3     27017    TIP3     H2       HT       0.417000       1.00800           0
     90968 TIP3     27018    TIP3     OH2      OT      -0.834000       15.9994           0
     90969 TIP3     27018    TIP3     H1       HT       0.417000       1.00800           0
     90970 TIP3     27018    TIP3     H2       HT       0.417000       1.00800           0
     90971 TIP3     27019    TIP3     OH2      OT      -0.834000       15.9994           0
     90972 TIP3     27019    TIP3     H1       HT       0.417000       1.00800           0
     90973 TIP3     27019    TIP3     H2       HT       0.417000       1.00800           0
     90974 TIP3     27020    TIP3     OH2      OT      -0.834000       15.9994           0
     90975 TIP3     27020    TIP3     H1       HT       0.417000       1.00800           0
     90976 TIP3     27020    TIP3     H2       HT       0.417000       1.00800           0
     90977 TIP3     27021    TIP3     OH2      OT      -0.834000       15.9994           0
     90978 TIP3     27021    TIP3     H1       HT       0.417000       1.00800           0
     90979 TIP3     27021    TIP3     H2       HT       0.417000       1.00800           0
     90980 TIP3     27022    TIP3     OH2      OT      -0.834000       15.9994           0
     90981 TIP3     27022    TIP3     H1       HT       0.417000       1.00800           0
     90982 TIP3     27022    TIP3     H2       HT       0.417000       1.00800           0
     90983 TIP3     27023    TIP3     OH2      OT      -0.834000       15.9994           0
     90984 TIP3     27023    TIP3     H1       HT       0.417000       1.00800           0
     90985 TIP3     27023    TIP3     H2       HT       0.417000       1.00800           0
     90986 TIP3     27024    TIP3     OH2      OT      -0.834000       15.9994           0
     90987 TIP3     27024    TIP3     H1       HT       0.417000       1.00800           0
     90988 TIP3     27024    TIP3     H2       HT       0.417000       1.00800           0
     90989 TIP3     27025    TIP3     OH2      OT      -0.834000       15.9994           0
     90990 TIP3     27025    TIP3     H1       HT       0.417000       1.00800           0
     90991 TIP3     27025    TIP3     H2       HT       0.417000       1.00800           0
     90992 TIP3     27026    TIP3     OH2      OT      -0.834000       15.9994           0
     90993 TIP3     27026    TIP3     H1       HT       0.417000       1.00800           0
     90994 TIP3     27026    TIP3     H2       HT       0.417000       1.00800           0
     90995 TIP3     27027    TIP3     OH2      OT      -0.834000       15.9994           0
     90996 TIP3     27027    TIP3     H1       HT       0.417000       1.00800           0
     90997 TIP3     27027    TIP3     H2       HT       0.417000       1.00800           0
     90998 TIP3     27028    TIP3     OH2      OT      -0.834000       15.9994           0
     90999 TIP3     27028    TIP3     H1       HT       0.417000       1.00800           0
     91000 TIP3     27028    TIP3     H2       HT       0.417000       1.00800           0
     91001 TIP3     27029    TIP3     OH2      OT      -0.834000       15.9994           0
     91002 TIP3     27029    TIP3     H1       HT       0.417000       1.00800           0
     91003 TIP3     27029    TIP3     H2       HT       0.417000       1.00800           0
     91004 TIP3     27030    TIP3     OH2      OT      -0.834000       15.9994           0
     91005 TIP3     27030    TIP3     H1       HT       0.417000       1.00800           0
     91006 TIP3     27030    TIP3     H2       HT       0.417000       1.00800           0
     91007 TIP3     27031    TIP3     OH2      OT      -0.834000       15.9994           0
     91008 TIP3     27031    TIP3     H1       HT       0.417000       1.00800           0
     91009 TIP3     27031    TIP3     H2       HT       0.417000       1.00800           0
     91010 TIP3     27032    TIP3     OH2      OT      -0.834000       15.9994           0
     91011 TIP3     27032    TIP3     H1       HT       0.417000       1.00800           0
     91012 TIP3     27032    TIP3     H2       HT       0.417000       1.00800           0
     91013 TIP3     27033    TIP3     OH2      OT      -0.834000       15.9994           0
     91014 TIP3     27033    TIP3     H1       HT       0.417000       1.00800           0
     91015 TIP3     27033    TIP3     H2       HT       0.417000       1.00800           0
     91016 TIP3     27034    TIP3     OH2      OT      -0.834000       15.9994           0
     91017 TIP3     27034    TIP3     H1       HT       0.417000       1.00800           0
     91018 TIP3     27034    TIP3     H2       HT       0.417000       1.00800           0
     91019 TIP3     27035    TIP3     OH2      OT      -0.834000       15.9994           0
     91020 TIP3     27035    TIP3     H1       HT       0.417000       1.00800           0
     91021 TIP3     27035    TIP3     H2       HT       0.417000       1.00800           0
     91022 TIP3     27036    TIP3     OH2      OT      -0.834000       15.9994           0
     91023 TIP3     27036    TIP3     H1       HT       0.417000       1.00800           0
     91024 TIP3     27036    TIP3     H2       HT       0.417000       1.00800           0
     91025 TIP3     27037    TIP3     OH2      OT      -0.834000       15.9994           0
     91026 TIP3     27037    TIP3     H1       HT       0.417000       1.00800           0
     91027 TIP3     27037    TIP3     H2       HT       0.417000       1.00800           0
     91028 TIP3     27038    TIP3     OH2      OT      -0.834000       15.9994           0
     91029 TIP3     27038    TIP3     H1       HT       0.417000       1.00800           0
     91030 TIP3     27038    TIP3     H2       HT       0.417000       1.00800           0
     91031 TIP3     27039    TIP3     OH2      OT      -0.834000       15.9994           0
     91032 TIP3     27039    TIP3     H1       HT       0.417000       1.00800           0
     91033 TIP3     27039    TIP3     H2       HT       0.417000       1.00800           0
     91034 TIP3     27040    TIP3     OH2      OT      -0.834000       15.9994           0
     91035 TIP3     27040    TIP3     H1       HT       0.417000       1.00800           0
     91036 TIP3     27040    TIP3     H2       HT       0.417000       1.00800           0
     91037 TIP3     27041    TIP3     OH2      OT      -0.834000       15.9994           0
     91038 TIP3     27041    TIP3     H1       HT       0.417000       1.00800           0
     91039 TIP3     27041    TIP3     H2       HT       0.417000       1.00800           0
     91040 TIP3     27042    TIP3     OH2      OT      -0.834000       15.9994           0
     91041 TIP3     27042    TIP3     H1       HT       0.417000       1.00800           0
     91042 TIP3     27042    TIP3     H2       HT       0.417000       1.00800           0
     91043 TIP3     27043    TIP3     OH2      OT      -0.834000       15.9994           0
     91044 TIP3     27043    TIP3     H1       HT       0.417000       1.00800           0
     91045 TIP3     27043    TIP3     H2       HT       0.417000       1.00800           0
     91046 TIP3     27044    TIP3     OH2      OT      -0.834000       15.9994           0
     91047 TIP3     27044    TIP3     H1       HT       0.417000       1.00800           0
     91048 TIP3     27044    TIP3     H2       HT       0.417000       1.00800           0
     91049 TIP3     27045    TIP3     OH2      OT      -0.834000       15.9994           0
     91050 TIP3     27045    TIP3     H1       HT       0.417000       1.00800           0
     91051 TIP3     27045    TIP3     H2       HT       0.417000       1.00800           0
     91052 TIP3     27046    TIP3     OH2      OT      -0.834000       15.9994           0
     91053 TIP3     27046    TIP3     H1       HT       0.417000       1.00800           0
     91054 TIP3     27046    TIP3     H2       HT       0.417000       1.00800           0
     91055 TIP3     27047    TIP3     OH2      OT      -0.834000       15.9994           0
     91056 TIP3     27047    TIP3     H1       HT       0.417000       1.00800           0
     91057 TIP3     27047    TIP3     H2       HT       0.417000       1.00800           0
     91058 TIP3     27048    TIP3     OH2      OT      -0.834000       15.9994           0
     91059 TIP3     27048    TIP3     H1       HT       0.417000       1.00800           0
     91060 TIP3     27048    TIP3     H2       HT       0.417000       1.00800           0
     91061 TIP3     27049    TIP3     OH2      OT      -0.834000       15.9994           0
     91062 TIP3     27049    TIP3     H1       HT       0.417000       1.00800           0
     91063 TIP3     27049    TIP3     H2       HT       0.417000       1.00800           0
     91064 TIP3     27050    TIP3     OH2      OT      -0.834000       15.9994           0
     91065 TIP3     27050    TIP3     H1       HT       0.417000       1.00800           0
     91066 TIP3     27050    TIP3     H2       HT       0.417000       1.00800           0
     91067 TIP3     27051    TIP3     OH2      OT      -0.834000       15.9994           0
     91068 TIP3     27051    TIP3     H1       HT       0.417000       1.00800           0
     91069 TIP3     27051    TIP3     H2       HT       0.417000       1.00800           0
     91070 TIP3     27052    TIP3     OH2      OT      -0.834000       15.9994           0
     91071 TIP3     27052    TIP3     H1       HT       0.417000       1.00800           0
     91072 TIP3     27052    TIP3     H2       HT       0.417000       1.00800           0
     91073 TIP3     27053    TIP3     OH2      OT      -0.834000       15.9994           0
     91074 TIP3     27053    TIP3     H1       HT       0.417000       1.00800           0
     91075 TIP3     27053    TIP3     H2       HT       0.417000       1.00800           0
     91076 TIP3     27054    TIP3     OH2      OT      -0.834000       15.9994           0
     91077 TIP3     27054    TIP3     H1       HT       0.417000       1.00800           0
     91078 TIP3     27054    TIP3     H2       HT       0.417000       1.00800           0
     91079 TIP3     27055    TIP3     OH2      OT      -0.834000       15.9994           0
     91080 TIP3     27055    TIP3     H1       HT       0.417000       1.00800           0
     91081 TIP3     27055    TIP3     H2       HT       0.417000       1.00800           0
     91082 TIP3     27056    TIP3     OH2      OT      -0.834000       15.9994           0
     91083 TIP3     27056    TIP3     H1       HT       0.417000       1.00800           0
     91084 TIP3     27056    TIP3     H2       HT       0.417000       1.00800           0
     91085 TIP3     27057    TIP3     OH2      OT      -0.834000       15.9994           0
     91086 TIP3     27057    TIP3     H1       HT       0.417000       1.00800           0
     91087 TIP3     27057    TIP3     H2       HT       0.417000       1.00800           0
     91088 TIP3     27058    TIP3     OH2      OT      -0.834000       15.9994           0
     91089 TIP3     27058    TIP3     H1       HT       0.417000       1.00800           0
     91090 TIP3     27058    TIP3     H2       HT       0.417000       1.00800           0
     91091 TIP3     27059    TIP3     OH2      OT      -0.834000       15.9994           0
     91092 TIP3     27059    TIP3     H1       HT       0.417000       1.00800           0
     91093 TIP3     27059    TIP3     H2       HT       0.417000       1.00800           0
     91094 TIP3     27060    TIP3     OH2      OT      -0.834000       15.9994           0
     91095 TIP3     27060    TIP3     H1       HT       0.417000       1.00800           0
     91096 TIP3     27060    TIP3     H2       HT       0.417000       1.00800           0
     91097 TIP3     27061    TIP3     OH2      OT      -0.834000       15.9994           0
     91098 TIP3     27061    TIP3     H1       HT       0.417000       1.00800           0
     91099 TIP3     27061    TIP3     H2       HT       0.417000       1.00800           0
     91100 TIP3     27062    TIP3     OH2      OT      -0.834000       15.9994           0
     91101 TIP3     27062    TIP3     H1       HT       0.417000       1.00800           0
     91102 TIP3     27062    TIP3     H2       HT       0.417000       1.00800           0
     91103 TIP3     27063    TIP3     OH2      OT      -0.834000       15.9994           0
     91104 TIP3     27063    TIP3     H1       HT       0.417000       1.00800           0
     91105 TIP3     27063    TIP3     H2       HT       0.417000       1.00800           0
     91106 TIP3     27064    TIP3     OH2      OT      -0.834000       15.9994           0
     91107 TIP3     27064    TIP3     H1       HT       0.417000       1.00800           0
     91108 TIP3     27064    TIP3     H2       HT       0.417000       1.00800           0
     91109 TIP3     27065    TIP3     OH2      OT      -0.834000       15.9994           0
     91110 TIP3     27065    TIP3     H1       HT       0.417000       1.00800           0
     91111 TIP3     27065    TIP3     H2       HT       0.417000       1.00800           0
     91112 TIP3     27066    TIP3     OH2      OT      -0.834000       15.9994           0
     91113 TIP3     27066    TIP3     H1       HT       0.417000       1.00800           0
     91114 TIP3     27066    TIP3     H2       HT       0.417000       1.00800           0
     91115 TIP3     27067    TIP3     OH2      OT      -0.834000       15.9994           0
     91116 TIP3     27067    TIP3     H1       HT       0.417000       1.00800           0
     91117 TIP3     27067    TIP3     H2       HT       0.417000       1.00800           0
     91118 TIP3     27068    TIP3     OH2      OT      -0.834000       15.9994           0
     91119 TIP3     27068    TIP3     H1       HT       0.417000       1.00800           0
     91120 TIP3     27068    TIP3     H2       HT       0.417000       1.00800           0
     91121 TIP3     27069    TIP3     OH2      OT      -0.834000       15.9994           0
     91122 TIP3     27069    TIP3     H1       HT       0.417000       1.00800           0
     91123 TIP3     27069    TIP3     H2       HT       0.417000       1.00800           0
     91124 TIP3     27070    TIP3     OH2      OT      -0.834000       15.9994           0
     91125 TIP3     27070    TIP3     H1       HT       0.417000       1.00800           0
     91126 TIP3     27070    TIP3     H2       HT       0.417000       1.00800           0
     91127 TIP3     27071    TIP3     OH2      OT      -0.834000       15.9994           0
     91128 TIP3     27071    TIP3     H1       HT       0.417000       1.00800           0
     91129 TIP3     27071    TIP3     H2       HT       0.417000       1.00800           0
     91130 TIP3     27072    TIP3     OH2      OT      -0.834000       15.9994           0
     91131 TIP3     27072    TIP3     H1       HT       0.417000       1.00800           0
     91132 TIP3     27072    TIP3     H2       HT       0.417000       1.00800           0
     91133 TIP3     27073    TIP3     OH2      OT      -0.834000       15.9994           0
     91134 TIP3     27073    TIP3     H1       HT       0.417000       1.00800           0
     91135 TIP3     27073    TIP3     H2       HT       0.417000       1.00800           0
     91136 TIP3     27074    TIP3     OH2      OT      -0.834000       15.9994           0
     91137 TIP3     27074    TIP3     H1       HT       0.417000       1.00800           0
     91138 TIP3     27074    TIP3     H2       HT       0.417000       1.00800           0
     91139 TIP3     27075    TIP3     OH2      OT      -0.834000       15.9994           0
     91140 TIP3     27075    TIP3     H1       HT       0.417000       1.00800           0
     91141 TIP3     27075    TIP3     H2       HT       0.417000       1.00800           0
     91142 TIP3     27076    TIP3     OH2      OT      -0.834000       15.9994           0
     91143 TIP3     27076    TIP3     H1       HT       0.417000       1.00800           0
     91144 TIP3     27076    TIP3     H2       HT       0.417000       1.00800           0
     91145 TIP3     27077    TIP3     OH2      OT      -0.834000       15.9994           0
     91146 TIP3     27077    TIP3     H1       HT       0.417000       1.00800           0
     91147 TIP3     27077    TIP3     H2       HT       0.417000       1.00800           0
     91148 TIP3     27078    TIP3     OH2      OT      -0.834000       15.9994           0
     91149 TIP3     27078    TIP3     H1       HT       0.417000       1.00800           0
     91150 TIP3     27078    TIP3     H2       HT       0.417000       1.00800           0
     91151 TIP3     27079    TIP3     OH2      OT      -0.834000       15.9994           0
     91152 TIP3     27079    TIP3     H1       HT       0.417000       1.00800           0
     91153 TIP3     27079    TIP3     H2       HT       0.417000       1.00800           0
     91154 TIP3     27080    TIP3     OH2      OT      -0.834000       15.9994           0
     91155 TIP3     27080    TIP3     H1       HT       0.417000       1.00800           0
     91156 TIP3     27080    TIP3     H2       HT       0.417000       1.00800           0
     91157 TIP3     27081    TIP3     OH2      OT      -0.834000       15.9994           0
     91158 TIP3     27081    TIP3     H1       HT       0.417000       1.00800           0
     91159 TIP3     27081    TIP3     H2       HT       0.417000       1.00800           0
     91160 TIP3     27082    TIP3     OH2      OT      -0.834000       15.9994           0
     91161 TIP3     27082    TIP3     H1       HT       0.417000       1.00800           0
     91162 TIP3     27082    TIP3     H2       HT       0.417000       1.00800           0
     91163 TIP3     27083    TIP3     OH2      OT      -0.834000       15.9994           0
     91164 TIP3     27083    TIP3     H1       HT       0.417000       1.00800           0
     91165 TIP3     27083    TIP3     H2       HT       0.417000       1.00800           0
     91166 TIP3     27084    TIP3     OH2      OT      -0.834000       15.9994           0
     91167 TIP3     27084    TIP3     H1       HT       0.417000       1.00800           0
     91168 TIP3     27084    TIP3     H2       HT       0.417000       1.00800           0
     91169 TIP3     27085    TIP3     OH2      OT      -0.834000       15.9994           0
     91170 TIP3     27085    TIP3     H1       HT       0.417000       1.00800           0
     91171 TIP3     27085    TIP3     H2       HT       0.417000       1.00800           0
     91172 TIP3     27086    TIP3     OH2      OT      -0.834000       15.9994           0
     91173 TIP3     27086    TIP3     H1       HT       0.417000       1.00800           0
     91174 TIP3     27086    TIP3     H2       HT       0.417000       1.00800           0
     91175 TIP3     27087    TIP3     OH2      OT      -0.834000       15.9994           0
     91176 TIP3     27087    TIP3     H1       HT       0.417000       1.00800           0
     91177 TIP3     27087    TIP3     H2       HT       0.417000       1.00800           0
     91178 TIP3     27088    TIP3     OH2      OT      -0.834000       15.9994           0
     91179 TIP3     27088    TIP3     H1       HT       0.417000       1.00800           0
     91180 TIP3     27088    TIP3     H2       HT       0.417000       1.00800           0
     91181 TIP3     27089    TIP3     OH2      OT      -0.834000       15.9994           0
     91182 TIP3     27089    TIP3     H1       HT       0.417000       1.00800           0
     91183 TIP3     27089    TIP3     H2       HT       0.417000       1.00800           0
     91184 TIP3     27090    TIP3     OH2      OT      -0.834000       15.9994           0
     91185 TIP3     27090    TIP3     H1       HT       0.417000       1.00800           0
     91186 TIP3     27090    TIP3     H2       HT       0.417000       1.00800           0
     91187 TIP3     27091    TIP3     OH2      OT      -0.834000       15.9994           0
     91188 TIP3     27091    TIP3     H1       HT       0.417000       1.00800           0
     91189 TIP3     27091    TIP3     H2       HT       0.417000       1.00800           0
     91190 TIP3     27092    TIP3     OH2      OT      -0.834000       15.9994           0
     91191 TIP3     27092    TIP3     H1       HT       0.417000       1.00800           0
     91192 TIP3     27092    TIP3     H2       HT       0.417000       1.00800           0
     91193 TIP3     27093    TIP3     OH2      OT      -0.834000       15.9994           0
     91194 TIP3     27093    TIP3     H1       HT       0.417000       1.00800           0
     91195 TIP3     27093    TIP3     H2       HT       0.417000       1.00800           0
     91196 TIP3     27094    TIP3     OH2      OT      -0.834000       15.9994           0
     91197 TIP3     27094    TIP3     H1       HT       0.417000       1.00800           0
     91198 TIP3     27094    TIP3     H2       HT       0.417000       1.00800           0
     91199 TIP3     27095    TIP3     OH2      OT      -0.834000       15.9994           0
     91200 TIP3     27095    TIP3     H1       HT       0.417000       1.00800           0
     91201 TIP3     27095    TIP3     H2       HT       0.417000       1.00800           0
     91202 TIP3     27096    TIP3     OH2      OT      -0.834000       15.9994           0
     91203 TIP3     27096    TIP3     H1       HT       0.417000       1.00800           0
     91204 TIP3     27096    TIP3     H2       HT       0.417000       1.00800           0
     91205 TIP3     27097    TIP3     OH2      OT      -0.834000       15.9994           0
     91206 TIP3     27097    TIP3     H1       HT       0.417000       1.00800           0
     91207 TIP3     27097    TIP3     H2       HT       0.417000       1.00800           0
     91208 TIP3     27098    TIP3     OH2      OT      -0.834000       15.9994           0
     91209 TIP3     27098    TIP3     H1       HT       0.417000       1.00800           0
     91210 TIP3     27098    TIP3     H2       HT       0.417000       1.00800           0
     91211 TIP3     27099    TIP3     OH2      OT      -0.834000       15.9994           0
     91212 TIP3     27099    TIP3     H1       HT       0.417000       1.00800           0
     91213 TIP3     27099    TIP3     H2       HT       0.417000       1.00800           0
     91214 TIP3     27100    TIP3     OH2      OT      -0.834000       15.9994           0
     91215 TIP3     27100    TIP3     H1       HT       0.417000       1.00800           0
     91216 TIP3     27100    TIP3     H2       HT       0.417000       1.00800           0
     91217 TIP3     27101    TIP3     OH2      OT      -0.834000       15.9994           0
     91218 TIP3     27101    TIP3     H1       HT       0.417000       1.00800           0
     91219 TIP3     27101    TIP3     H2       HT       0.417000       1.00800           0
     91220 TIP3     27102    TIP3     OH2      OT      -0.834000       15.9994           0
     91221 TIP3     27102    TIP3     H1       HT       0.417000       1.00800           0
     91222 TIP3     27102    TIP3     H2       HT       0.417000       1.00800           0
     91223 TIP3     27103    TIP3     OH2      OT      -0.834000       15.9994           0
     91224 TIP3     27103    TIP3     H1       HT       0.417000       1.00800           0
     91225 TIP3     27103    TIP3     H2       HT       0.417000       1.00800           0
     91226 TIP3     27104    TIP3     OH2      OT      -0.834000       15.9994           0
     91227 TIP3     27104    TIP3     H1       HT       0.417000       1.00800           0
     91228 TIP3     27104    TIP3     H2       HT       0.417000       1.00800           0
     91229 TIP3     27105    TIP3     OH2      OT      -0.834000       15.9994           0
     91230 TIP3     27105    TIP3     H1       HT       0.417000       1.00800           0
     91231 TIP3     27105    TIP3     H2       HT       0.417000       1.00800           0
     91232 TIP3     27106    TIP3     OH2      OT      -0.834000       15.9994           0
     91233 TIP3     27106    TIP3     H1       HT       0.417000       1.00800           0
     91234 TIP3     27106    TIP3     H2       HT       0.417000       1.00800           0
     91235 TIP3     27107    TIP3     OH2      OT      -0.834000       15.9994           0
     91236 TIP3     27107    TIP3     H1       HT       0.417000       1.00800           0
     91237 TIP3     27107    TIP3     H2       HT       0.417000       1.00800           0
     91238 TIP3     27108    TIP3     OH2      OT      -0.834000       15.9994           0
     91239 TIP3     27108    TIP3     H1       HT       0.417000       1.00800           0
     91240 TIP3     27108    TIP3     H2       HT       0.417000       1.00800           0
     91241 TIP3     27109    TIP3     OH2      OT      -0.834000       15.9994           0
     91242 TIP3     27109    TIP3     H1       HT       0.417000       1.00800           0
     91243 TIP3     27109    TIP3     H2       HT       0.417000       1.00800           0
     91244 TIP3     27110    TIP3     OH2      OT      -0.834000       15.9994           0
     91245 TIP3     27110    TIP3     H1       HT       0.417000       1.00800           0
     91246 TIP3     27110    TIP3     H2       HT       0.417000       1.00800           0
     91247 TIP3     27111    TIP3     OH2      OT      -0.834000       15.9994           0
     91248 TIP3     27111    TIP3     H1       HT       0.417000       1.00800           0
     91249 TIP3     27111    TIP3     H2       HT       0.417000       1.00800           0
     91250 TIP3     27112    TIP3     OH2      OT      -0.834000       15.9994           0
     91251 TIP3     27112    TIP3     H1       HT       0.417000       1.00800           0
     91252 TIP3     27112    TIP3     H2       HT       0.417000       1.00800           0
     91253 TIP3     27113    TIP3     OH2      OT      -0.834000       15.9994           0
     91254 TIP3     27113    TIP3     H1       HT       0.417000       1.00800           0
     91255 TIP3     27113    TIP3     H2       HT       0.417000       1.00800           0
     91256 TIP3     27114    TIP3     OH2      OT      -0.834000       15.9994           0
     91257 TIP3     27114    TIP3     H1       HT       0.417000       1.00800           0
     91258 TIP3     27114    TIP3     H2       HT       0.417000       1.00800           0
     91259 TIP3     27115    TIP3     OH2      OT      -0.834000       15.9994           0
     91260 TIP3     27115    TIP3     H1       HT       0.417000       1.00800           0
     91261 TIP3     27115    TIP3     H2       HT       0.417000       1.00800           0
     91262 TIP3     27116    TIP3     OH2      OT      -0.834000       15.9994           0
     91263 TIP3     27116    TIP3     H1       HT       0.417000       1.00800           0
     91264 TIP3     27116    TIP3     H2       HT       0.417000       1.00800           0
     91265 TIP3     27117    TIP3     OH2      OT      -0.834000       15.9994           0
     91266 TIP3     27117    TIP3     H1       HT       0.417000       1.00800           0
     91267 TIP3     27117    TIP3     H2       HT       0.417000       1.00800           0
     91268 TIP3     27118    TIP3     OH2      OT      -0.834000       15.9994           0
     91269 TIP3     27118    TIP3     H1       HT       0.417000       1.00800           0
     91270 TIP3     27118    TIP3     H2       HT       0.417000       1.00800           0
     91271 TIP3     27119    TIP3     OH2      OT      -0.834000       15.9994           0
     91272 TIP3     27119    TIP3     H1       HT       0.417000       1.00800           0
     91273 TIP3     27119    TIP3     H2       HT       0.417000       1.00800           0
     91274 TIP3     27120    TIP3     OH2      OT      -0.834000       15.9994           0
     91275 TIP3     27120    TIP3     H1       HT       0.417000       1.00800           0
     91276 TIP3     27120    TIP3     H2       HT       0.417000       1.00800           0
     91277 TIP3     27121    TIP3     OH2      OT      -0.834000       15.9994           0
     91278 TIP3     27121    TIP3     H1       HT       0.417000       1.00800           0
     91279 TIP3     27121    TIP3     H2       HT       0.417000       1.00800           0
     91280 TIP3     27122    TIP3     OH2      OT      -0.834000       15.9994           0
     91281 TIP3     27122    TIP3     H1       HT       0.417000       1.00800           0
     91282 TIP3     27122    TIP3     H2       HT       0.417000       1.00800           0
     91283 TIP3     27123    TIP3     OH2      OT      -0.834000       15.9994           0
     91284 TIP3     27123    TIP3     H1       HT       0.417000       1.00800           0
     91285 TIP3     27123    TIP3     H2       HT       0.417000       1.00800           0
     91286 TIP3     27124    TIP3     OH2      OT      -0.834000       15.9994           0
     91287 TIP3     27124    TIP3     H1       HT       0.417000       1.00800           0
     91288 TIP3     27124    TIP3     H2       HT       0.417000       1.00800           0
     91289 TIP3     27125    TIP3     OH2      OT      -0.834000       15.9994           0
     91290 TIP3     27125    TIP3     H1       HT       0.417000       1.00800           0
     91291 TIP3     27125    TIP3     H2       HT       0.417000       1.00800           0
     91292 TIP3     27126    TIP3     OH2      OT      -0.834000       15.9994           0
     91293 TIP3     27126    TIP3     H1       HT       0.417000       1.00800           0
     91294 TIP3     27126    TIP3     H2       HT       0.417000       1.00800           0
     91295 TIP3     27127    TIP3     OH2      OT      -0.834000       15.9994           0
     91296 TIP3     27127    TIP3     H1       HT       0.417000       1.00800           0
     91297 TIP3     27127    TIP3     H2       HT       0.417000       1.00800           0
     91298 TIP3     27128    TIP3     OH2      OT      -0.834000       15.9994           0
     91299 TIP3     27128    TIP3     H1       HT       0.417000       1.00800           0
     91300 TIP3     27128    TIP3     H2       HT       0.417000       1.00800           0
     91301 TIP3     27129    TIP3     OH2      OT      -0.834000       15.9994           0
     91302 TIP3     27129    TIP3     H1       HT       0.417000       1.00800           0
     91303 TIP3     27129    TIP3     H2       HT       0.417000       1.00800           0
     91304 TIP3     27130    TIP3     OH2      OT      -0.834000       15.9994           0
     91305 TIP3     27130    TIP3     H1       HT       0.417000       1.00800           0
     91306 TIP3     27130    TIP3     H2       HT       0.417000       1.00800           0
     91307 TIP3     27131    TIP3     OH2      OT      -0.834000       15.9994           0
     91308 TIP3     27131    TIP3     H1       HT       0.417000       1.00800           0
     91309 TIP3     27131    TIP3     H2       HT       0.417000       1.00800           0
     91310 TIP3     27132    TIP3     OH2      OT      -0.834000       15.9994           0
     91311 TIP3     27132    TIP3     H1       HT       0.417000       1.00800           0
     91312 TIP3     27132    TIP3     H2       HT       0.417000       1.00800           0
     91313 TIP3     27133    TIP3     OH2      OT      -0.834000       15.9994           0
     91314 TIP3     27133    TIP3     H1       HT       0.417000       1.00800           0
     91315 TIP3     27133    TIP3     H2       HT       0.417000       1.00800           0
     91316 TIP3     27134    TIP3     OH2      OT      -0.834000       15.9994           0
     91317 TIP3     27134    TIP3     H1       HT       0.417000       1.00800           0
     91318 TIP3     27134    TIP3     H2       HT       0.417000       1.00800           0
     91319 TIP3     27135    TIP3     OH2      OT      -0.834000       15.9994           0
     91320 TIP3     27135    TIP3     H1       HT       0.417000       1.00800           0
     91321 TIP3     27135    TIP3     H2       HT       0.417000       1.00800           0
     91322 TIP3     27136    TIP3     OH2      OT      -0.834000       15.9994           0
     91323 TIP3     27136    TIP3     H1       HT       0.417000       1.00800           0
     91324 TIP3     27136    TIP3     H2       HT       0.417000       1.00800           0
     91325 TIP3     27137    TIP3     OH2      OT      -0.834000       15.9994           0
     91326 TIP3     27137    TIP3     H1       HT       0.417000       1.00800           0
     91327 TIP3     27137    TIP3     H2       HT       0.417000       1.00800           0
     91328 TIP3     27138    TIP3     OH2      OT      -0.834000       15.9994           0
     91329 TIP3     27138    TIP3     H1       HT       0.417000       1.00800           0
     91330 TIP3     27138    TIP3     H2       HT       0.417000       1.00800           0
     91331 TIP3     27139    TIP3     OH2      OT      -0.834000       15.9994           0
     91332 TIP3     27139    TIP3     H1       HT       0.417000       1.00800           0
     91333 TIP3     27139    TIP3     H2       HT       0.417000       1.00800           0
     91334 TIP3     27140    TIP3     OH2      OT      -0.834000       15.9994           0
     91335 TIP3     27140    TIP3     H1       HT       0.417000       1.00800           0
     91336 TIP3     27140    TIP3     H2       HT       0.417000       1.00800           0
     91337 TIP3     27141    TIP3     OH2      OT      -0.834000       15.9994           0
     91338 TIP3     27141    TIP3     H1       HT       0.417000       1.00800           0
     91339 TIP3     27141    TIP3     H2       HT       0.417000       1.00800           0
     91340 TIP3     27142    TIP3     OH2      OT      -0.834000       15.9994           0
     91341 TIP3     27142    TIP3     H1       HT       0.417000       1.00800           0
     91342 TIP3     27142    TIP3     H2       HT       0.417000       1.00800           0
     91343 TIP3     27143    TIP3     OH2      OT      -0.834000       15.9994           0
     91344 TIP3     27143    TIP3     H1       HT       0.417000       1.00800           0
     91345 TIP3     27143    TIP3     H2       HT       0.417000       1.00800           0
     91346 TIP3     27144    TIP3     OH2      OT      -0.834000       15.9994           0
     91347 TIP3     27144    TIP3     H1       HT       0.417000       1.00800           0
     91348 TIP3     27144    TIP3     H2       HT       0.417000       1.00800           0
     91349 TIP3     27145    TIP3     OH2      OT      -0.834000       15.9994           0
     91350 TIP3     27145    TIP3     H1       HT       0.417000       1.00800           0
     91351 TIP3     27145    TIP3     H2       HT       0.417000       1.00800           0
     91352 TIP3     27146    TIP3     OH2      OT      -0.834000       15.9994           0
     91353 TIP3     27146    TIP3     H1       HT       0.417000       1.00800           0
     91354 TIP3     27146    TIP3     H2       HT       0.417000       1.00800           0
     91355 TIP3     27147    TIP3     OH2      OT      -0.834000       15.9994           0
     91356 TIP3     27147    TIP3     H1       HT       0.417000       1.00800           0
     91357 TIP3     27147    TIP3     H2       HT       0.417000       1.00800           0
     91358 TIP3     27148    TIP3     OH2      OT      -0.834000       15.9994           0
     91359 TIP3     27148    TIP3     H1       HT       0.417000       1.00800           0
     91360 TIP3     27148    TIP3     H2       HT       0.417000       1.00800           0
     91361 TIP3     27149    TIP3     OH2      OT      -0.834000       15.9994           0
     91362 TIP3     27149    TIP3     H1       HT       0.417000       1.00800           0
     91363 TIP3     27149    TIP3     H2       HT       0.417000       1.00800           0
     91364 TIP3     27150    TIP3     OH2      OT      -0.834000       15.9994           0
     91365 TIP3     27150    TIP3     H1       HT       0.417000       1.00800           0
     91366 TIP3     27150    TIP3     H2       HT       0.417000       1.00800           0
     91367 TIP3     27151    TIP3     OH2      OT      -0.834000       15.9994           0
     91368 TIP3     27151    TIP3     H1       HT       0.417000       1.00800           0
     91369 TIP3     27151    TIP3     H2       HT       0.417000       1.00800           0
     91370 TIP3     27152    TIP3     OH2      OT      -0.834000       15.9994           0
     91371 TIP3     27152    TIP3     H1       HT       0.417000       1.00800           0
     91372 TIP3     27152    TIP3     H2       HT       0.417000       1.00800           0
     91373 TIP3     27153    TIP3     OH2      OT      -0.834000       15.9994           0
     91374 TIP3     27153    TIP3     H1       HT       0.417000       1.00800           0
     91375 TIP3     27153    TIP3     H2       HT       0.417000       1.00800           0
     91376 TIP3     27154    TIP3     OH2      OT      -0.834000       15.9994           0
     91377 TIP3     27154    TIP3     H1       HT       0.417000       1.00800           0
     91378 TIP3     27154    TIP3     H2       HT       0.417000       1.00800           0
     91379 TIP3     27155    TIP3     OH2      OT      -0.834000       15.9994           0
     91380 TIP3     27155    TIP3     H1       HT       0.417000       1.00800           0
     91381 TIP3     27155    TIP3     H2       HT       0.417000       1.00800           0
     91382 TIP3     27156    TIP3     OH2      OT      -0.834000       15.9994           0
     91383 TIP3     27156    TIP3     H1       HT       0.417000       1.00800           0
     91384 TIP3     27156    TIP3     H2       HT       0.417000       1.00800           0
     91385 TIP3     27157    TIP3     OH2      OT      -0.834000       15.9994           0
     91386 TIP3     27157    TIP3     H1       HT       0.417000       1.00800           0
     91387 TIP3     27157    TIP3     H2       HT       0.417000       1.00800           0
     91388 TIP3     27158    TIP3     OH2      OT      -0.834000       15.9994           0
     91389 TIP3     27158    TIP3     H1       HT       0.417000       1.00800           0
     91390 TIP3     27158    TIP3     H2       HT       0.417000       1.00800           0
     91391 TIP3     27159    TIP3     OH2      OT      -0.834000       15.9994           0
     91392 TIP3     27159    TIP3     H1       HT       0.417000       1.00800           0
     91393 TIP3     27159    TIP3     H2       HT       0.417000       1.00800           0
     91394 TIP3     27160    TIP3     OH2      OT      -0.834000       15.9994           0
     91395 TIP3     27160    TIP3     H1       HT       0.417000       1.00800           0
     91396 TIP3     27160    TIP3     H2       HT       0.417000       1.00800           0
     91397 TIP3     27161    TIP3     OH2      OT      -0.834000       15.9994           0
     91398 TIP3     27161    TIP3     H1       HT       0.417000       1.00800           0
     91399 TIP3     27161    TIP3     H2       HT       0.417000       1.00800           0
     91400 TIP3     27162    TIP3     OH2      OT      -0.834000       15.9994           0
     91401 TIP3     27162    TIP3     H1       HT       0.417000       1.00800           0
     91402 TIP3     27162    TIP3     H2       HT       0.417000       1.00800           0
     91403 TIP3     27163    TIP3     OH2      OT      -0.834000       15.9994           0
     91404 TIP3     27163    TIP3     H1       HT       0.417000       1.00800           0
     91405 TIP3     27163    TIP3     H2       HT       0.417000       1.00800           0
     91406 TIP3     27164    TIP3     OH2      OT      -0.834000       15.9994           0
     91407 TIP3     27164    TIP3     H1       HT       0.417000       1.00800           0
     91408 TIP3     27164    TIP3     H2       HT       0.417000       1.00800           0
     91409 TIP3     27165    TIP3     OH2      OT      -0.834000       15.9994           0
     91410 TIP3     27165    TIP3     H1       HT       0.417000       1.00800           0
     91411 TIP3     27165    TIP3     H2       HT       0.417000       1.00800           0
     91412 TIP3     27166    TIP3     OH2      OT      -0.834000       15.9994           0
     91413 TIP3     27166    TIP3     H1       HT       0.417000       1.00800           0
     91414 TIP3     27166    TIP3     H2       HT       0.417000       1.00800           0
     91415 TIP3     27167    TIP3     OH2      OT      -0.834000       15.9994           0
     91416 TIP3     27167    TIP3     H1       HT       0.417000       1.00800           0
     91417 TIP3     27167    TIP3     H2       HT       0.417000       1.00800           0
     91418 TIP3     27168    TIP3     OH2      OT      -0.834000       15.9994           0
     91419 TIP3     27168    TIP3     H1       HT       0.417000       1.00800           0
     91420 TIP3     27168    TIP3     H2       HT       0.417000       1.00800           0
     91421 TIP3     27169    TIP3     OH2      OT      -0.834000       15.9994           0
     91422 TIP3     27169    TIP3     H1       HT       0.417000       1.00800           0
     91423 TIP3     27169    TIP3     H2       HT       0.417000       1.00800           0
     91424 TIP3     27170    TIP3     OH2      OT      -0.834000       15.9994           0
     91425 TIP3     27170    TIP3     H1       HT       0.417000       1.00800           0
     91426 TIP3     27170    TIP3     H2       HT       0.417000       1.00800           0
     91427 TIP3     27171    TIP3     OH2      OT      -0.834000       15.9994           0
     91428 TIP3     27171    TIP3     H1       HT       0.417000       1.00800           0
     91429 TIP3     27171    TIP3     H2       HT       0.417000       1.00800           0
     91430 TIP3     27172    TIP3     OH2      OT      -0.834000       15.9994           0
     91431 TIP3     27172    TIP3     H1       HT       0.417000       1.00800           0
     91432 TIP3     27172    TIP3     H2       HT       0.417000       1.00800           0
     91433 TIP3     27173    TIP3     OH2      OT      -0.834000       15.9994           0
     91434 TIP3     27173    TIP3     H1       HT       0.417000       1.00800           0
     91435 TIP3     27173    TIP3     H2       HT       0.417000       1.00800           0
     91436 TIP3     27174    TIP3     OH2      OT      -0.834000       15.9994           0
     91437 TIP3     27174    TIP3     H1       HT       0.417000       1.00800           0
     91438 TIP3     27174    TIP3     H2       HT       0.417000       1.00800           0
     91439 TIP3     27175    TIP3     OH2      OT      -0.834000       15.9994           0
     91440 TIP3     27175    TIP3     H1       HT       0.417000       1.00800           0
     91441 TIP3     27175    TIP3     H2       HT       0.417000       1.00800           0
     91442 TIP3     27176    TIP3     OH2      OT      -0.834000       15.9994           0
     91443 TIP3     27176    TIP3     H1       HT       0.417000       1.00800           0
     91444 TIP3     27176    TIP3     H2       HT       0.417000       1.00800           0
     91445 TIP3     27177    TIP3     OH2      OT      -0.834000       15.9994           0
     91446 TIP3     27177    TIP3     H1       HT       0.417000       1.00800           0
     91447 TIP3     27177    TIP3     H2       HT       0.417000       1.00800           0
     91448 TIP3     27178    TIP3     OH2      OT      -0.834000       15.9994           0
     91449 TIP3     27178    TIP3     H1       HT       0.417000       1.00800           0
     91450 TIP3     27178    TIP3     H2       HT       0.417000       1.00800           0
     91451 TIP3     27179    TIP3     OH2      OT      -0.834000       15.9994           0
     91452 TIP3     27179    TIP3     H1       HT       0.417000       1.00800           0
     91453 TIP3     27179    TIP3     H2       HT       0.417000       1.00800           0
     91454 TIP3     27180    TIP3     OH2      OT      -0.834000       15.9994           0
     91455 TIP3     27180    TIP3     H1       HT       0.417000       1.00800           0
     91456 TIP3     27180    TIP3     H2       HT       0.417000       1.00800           0
     91457 TIP3     27181    TIP3     OH2      OT      -0.834000       15.9994           0
     91458 TIP3     27181    TIP3     H1       HT       0.417000       1.00800           0
     91459 TIP3     27181    TIP3     H2       HT       0.417000       1.00800           0
     91460 TIP3     27182    TIP3     OH2      OT      -0.834000       15.9994           0
     91461 TIP3     27182    TIP3     H1       HT       0.417000       1.00800           0
     91462 TIP3     27182    TIP3     H2       HT       0.417000       1.00800           0
     91463 TIP3     27183    TIP3     OH2      OT      -0.834000       15.9994           0
     91464 TIP3     27183    TIP3     H1       HT       0.417000       1.00800           0
     91465 TIP3     27183    TIP3     H2       HT       0.417000       1.00800           0
     91466 TIP3     27184    TIP3     OH2      OT      -0.834000       15.9994           0
     91467 TIP3     27184    TIP3     H1       HT       0.417000       1.00800           0
     91468 TIP3     27184    TIP3     H2       HT       0.417000       1.00800           0
     91469 TIP3     27185    TIP3     OH2      OT      -0.834000       15.9994           0
     91470 TIP3     27185    TIP3     H1       HT       0.417000       1.00800           0
     91471 TIP3     27185    TIP3     H2       HT       0.417000       1.00800           0
     91472 TIP3     27186    TIP3     OH2      OT      -0.834000       15.9994           0
     91473 TIP3     27186    TIP3     H1       HT       0.417000       1.00800           0
     91474 TIP3     27186    TIP3     H2       HT       0.417000       1.00800           0
     91475 TIP3     27187    TIP3     OH2      OT      -0.834000       15.9994           0
     91476 TIP3     27187    TIP3     H1       HT       0.417000       1.00800           0
     91477 TIP3     27187    TIP3     H2       HT       0.417000       1.00800           0
     91478 TIP3     27188    TIP3     OH2      OT      -0.834000       15.9994           0
     91479 TIP3     27188    TIP3     H1       HT       0.417000       1.00800           0
     91480 TIP3     27188    TIP3     H2       HT       0.417000       1.00800           0
     91481 TIP3     27189    TIP3     OH2      OT      -0.834000       15.9994           0
     91482 TIP3     27189    TIP3     H1       HT       0.417000       1.00800           0
     91483 TIP3     27189    TIP3     H2       HT       0.417000       1.00800           0
     91484 TIP3     27190    TIP3     OH2      OT      -0.834000       15.9994           0
     91485 TIP3     27190    TIP3     H1       HT       0.417000       1.00800           0
     91486 TIP3     27190    TIP3     H2       HT       0.417000       1.00800           0
     91487 TIP3     27191    TIP3     OH2      OT      -0.834000       15.9994           0
     91488 TIP3     27191    TIP3     H1       HT       0.417000       1.00800           0
     91489 TIP3     27191    TIP3     H2       HT       0.417000       1.00800           0
     91490 TIP3     27192    TIP3     OH2      OT      -0.834000       15.9994           0
     91491 TIP3     27192    TIP3     H1       HT       0.417000       1.00800           0
     91492 TIP3     27192    TIP3     H2       HT       0.417000       1.00800           0
     91493 TIP3     27193    TIP3     OH2      OT      -0.834000       15.9994           0
     91494 TIP3     27193    TIP3     H1       HT       0.417000       1.00800           0
     91495 TIP3     27193    TIP3     H2       HT       0.417000       1.00800           0
     91496 TIP3     27194    TIP3     OH2      OT      -0.834000       15.9994           0
     91497 TIP3     27194    TIP3     H1       HT       0.417000       1.00800           0
     91498 TIP3     27194    TIP3     H2       HT       0.417000       1.00800           0
     91499 TIP3     27195    TIP3     OH2      OT      -0.834000       15.9994           0
     91500 TIP3     27195    TIP3     H1       HT       0.417000       1.00800           0
     91501 TIP3     27195    TIP3     H2       HT       0.417000       1.00800           0
     91502 TIP3     27196    TIP3     OH2      OT      -0.834000       15.9994           0
     91503 TIP3     27196    TIP3     H1       HT       0.417000       1.00800           0
     91504 TIP3     27196    TIP3     H2       HT       0.417000       1.00800           0
     91505 TIP3     27197    TIP3     OH2      OT      -0.834000       15.9994           0
     91506 TIP3     27197    TIP3     H1       HT       0.417000       1.00800           0
     91507 TIP3     27197    TIP3     H2       HT       0.417000       1.00800           0
     91508 TIP3     27198    TIP3     OH2      OT      -0.834000       15.9994           0
     91509 TIP3     27198    TIP3     H1       HT       0.417000       1.00800           0
     91510 TIP3     27198    TIP3     H2       HT       0.417000       1.00800           0
     91511 TIP3     27199    TIP3     OH2      OT      -0.834000       15.9994           0
     91512 TIP3     27199    TIP3     H1       HT       0.417000       1.00800           0
     91513 TIP3     27199    TIP3     H2       HT       0.417000       1.00800           0
     91514 TIP3     27200    TIP3     OH2      OT      -0.834000       15.9994           0
     91515 TIP3     27200    TIP3     H1       HT       0.417000       1.00800           0
     91516 TIP3     27200    TIP3     H2       HT       0.417000       1.00800           0
     91517 TIP3     27201    TIP3     OH2      OT      -0.834000       15.9994           0
     91518 TIP3     27201    TIP3     H1       HT       0.417000       1.00800           0
     91519 TIP3     27201    TIP3     H2       HT       0.417000       1.00800           0
     91520 TIP3     27202    TIP3     OH2      OT      -0.834000       15.9994           0
     91521 TIP3     27202    TIP3     H1       HT       0.417000       1.00800           0
     91522 TIP3     27202    TIP3     H2       HT       0.417000       1.00800           0
     91523 TIP3     27203    TIP3     OH2      OT      -0.834000       15.9994           0
     91524 TIP3     27203    TIP3     H1       HT       0.417000       1.00800           0
     91525 TIP3     27203    TIP3     H2       HT       0.417000       1.00800           0
     91526 TIP3     27204    TIP3     OH2      OT      -0.834000       15.9994           0
     91527 TIP3     27204    TIP3     H1       HT       0.417000       1.00800           0
     91528 TIP3     27204    TIP3     H2       HT       0.417000       1.00800           0
     91529 TIP3     27205    TIP3     OH2      OT      -0.834000       15.9994           0
     91530 TIP3     27205    TIP3     H1       HT       0.417000       1.00800           0
     91531 TIP3     27205    TIP3     H2       HT       0.417000       1.00800           0
     91532 TIP3     27206    TIP3     OH2      OT      -0.834000       15.9994           0
     91533 TIP3     27206    TIP3     H1       HT       0.417000       1.00800           0
     91534 TIP3     27206    TIP3     H2       HT       0.417000       1.00800           0
     91535 TIP3     27207    TIP3     OH2      OT      -0.834000       15.9994           0
     91536 TIP3     27207    TIP3     H1       HT       0.417000       1.00800           0
     91537 TIP3     27207    TIP3     H2       HT       0.417000       1.00800           0
     91538 TIP3     27208    TIP3     OH2      OT      -0.834000       15.9994           0
     91539 TIP3     27208    TIP3     H1       HT       0.417000       1.00800           0
     91540 TIP3     27208    TIP3     H2       HT       0.417000       1.00800           0
     91541 TIP3     27209    TIP3     OH2      OT      -0.834000       15.9994           0
     91542 TIP3     27209    TIP3     H1       HT       0.417000       1.00800           0
     91543 TIP3     27209    TIP3     H2       HT       0.417000       1.00800           0
     91544 TIP3     27210    TIP3     OH2      OT      -0.834000       15.9994           0
     91545 TIP3     27210    TIP3     H1       HT       0.417000       1.00800           0
     91546 TIP3     27210    TIP3     H2       HT       0.417000       1.00800           0
     91547 TIP3     27211    TIP3     OH2      OT      -0.834000       15.9994           0
     91548 TIP3     27211    TIP3     H1       HT       0.417000       1.00800           0
     91549 TIP3     27211    TIP3     H2       HT       0.417000       1.00800           0
     91550 TIP3     27212    TIP3     OH2      OT      -0.834000       15.9994           0
     91551 TIP3     27212    TIP3     H1       HT       0.417000       1.00800           0
     91552 TIP3     27212    TIP3     H2       HT       0.417000       1.00800           0
     91553 TIP3     27213    TIP3     OH2      OT      -0.834000       15.9994           0
     91554 TIP3     27213    TIP3     H1       HT       0.417000       1.00800           0
     91555 TIP3     27213    TIP3     H2       HT       0.417000       1.00800           0
     91556 TIP3     27214    TIP3     OH2      OT      -0.834000       15.9994           0
     91557 TIP3     27214    TIP3     H1       HT       0.417000       1.00800           0
     91558 TIP3     27214    TIP3     H2       HT       0.417000       1.00800           0
     91559 TIP3     27215    TIP3     OH2      OT      -0.834000       15.9994           0
     91560 TIP3     27215    TIP3     H1       HT       0.417000       1.00800           0
     91561 TIP3     27215    TIP3     H2       HT       0.417000       1.00800           0
     91562 TIP3     27216    TIP3     OH2      OT      -0.834000       15.9994           0
     91563 TIP3     27216    TIP3     H1       HT       0.417000       1.00800           0
     91564 TIP3     27216    TIP3     H2       HT       0.417000       1.00800           0
     91565 TIP3     27217    TIP3     OH2      OT      -0.834000       15.9994           0
     91566 TIP3     27217    TIP3     H1       HT       0.417000       1.00800           0
     91567 TIP3     27217    TIP3     H2       HT       0.417000       1.00800           0
     91568 TIP3     27218    TIP3     OH2      OT      -0.834000       15.9994           0
     91569 TIP3     27218    TIP3     H1       HT       0.417000       1.00800           0
     91570 TIP3     27218    TIP3     H2       HT       0.417000       1.00800           0
     91571 TIP3     27219    TIP3     OH2      OT      -0.834000       15.9994           0
     91572 TIP3     27219    TIP3     H1       HT       0.417000       1.00800           0
     91573 TIP3     27219    TIP3     H2       HT       0.417000       1.00800           0
     91574 TIP3     27220    TIP3     OH2      OT      -0.834000       15.9994           0
     91575 TIP3     27220    TIP3     H1       HT       0.417000       1.00800           0
     91576 TIP3     27220    TIP3     H2       HT       0.417000       1.00800           0
     91577 TIP3     27221    TIP3     OH2      OT      -0.834000       15.9994           0
     91578 TIP3     27221    TIP3     H1       HT       0.417000       1.00800           0
     91579 TIP3     27221    TIP3     H2       HT       0.417000       1.00800           0
     91580 TIP3     27222    TIP3     OH2      OT      -0.834000       15.9994           0
     91581 TIP3     27222    TIP3     H1       HT       0.417000       1.00800           0
     91582 TIP3     27222    TIP3     H2       HT       0.417000       1.00800           0
     91583 TIP3     27223    TIP3     OH2      OT      -0.834000       15.9994           0
     91584 TIP3     27223    TIP3     H1       HT       0.417000       1.00800           0
     91585 TIP3     27223    TIP3     H2       HT       0.417000       1.00800           0
     91586 TIP3     27224    TIP3     OH2      OT      -0.834000       15.9994           0
     91587 TIP3     27224    TIP3     H1       HT       0.417000       1.00800           0
     91588 TIP3     27224    TIP3     H2       HT       0.417000       1.00800           0
     91589 TIP3     27225    TIP3     OH2      OT      -0.834000       15.9994           0
     91590 TIP3     27225    TIP3     H1       HT       0.417000       1.00800           0
     91591 TIP3     27225    TIP3     H2       HT       0.417000       1.00800           0
     91592 TIP3     27226    TIP3     OH2      OT      -0.834000       15.9994           0
     91593 TIP3     27226    TIP3     H1       HT       0.417000       1.00800           0
     91594 TIP3     27226    TIP3     H2       HT       0.417000       1.00800           0
     91595 TIP3     27227    TIP3     OH2      OT      -0.834000       15.9994           0
     91596 TIP3     27227    TIP3     H1       HT       0.417000       1.00800           0
     91597 TIP3     27227    TIP3     H2       HT       0.417000       1.00800           0
     91598 TIP3     27228    TIP3     OH2      OT      -0.834000       15.9994           0
     91599 TIP3     27228    TIP3     H1       HT       0.417000       1.00800           0
     91600 TIP3     27228    TIP3     H2       HT       0.417000       1.00800           0
     91601 TIP3     27229    TIP3     OH2      OT      -0.834000       15.9994           0
     91602 TIP3     27229    TIP3     H1       HT       0.417000       1.00800           0
     91603 TIP3     27229    TIP3     H2       HT       0.417000       1.00800           0
     91604 TIP3     27230    TIP3     OH2      OT      -0.834000       15.9994           0
     91605 TIP3     27230    TIP3     H1       HT       0.417000       1.00800           0
     91606 TIP3     27230    TIP3     H2       HT       0.417000       1.00800           0
     91607 TIP3     27231    TIP3     OH2      OT      -0.834000       15.9994           0
     91608 TIP3     27231    TIP3     H1       HT       0.417000       1.00800           0
     91609 TIP3     27231    TIP3     H2       HT       0.417000       1.00800           0
     91610 TIP3     27232    TIP3     OH2      OT      -0.834000       15.9994           0
     91611 TIP3     27232    TIP3     H1       HT       0.417000       1.00800           0
     91612 TIP3     27232    TIP3     H2       HT       0.417000       1.00800           0
     91613 TIP3     27233    TIP3     OH2      OT      -0.834000       15.9994           0
     91614 TIP3     27233    TIP3     H1       HT       0.417000       1.00800           0
     91615 TIP3     27233    TIP3     H2       HT       0.417000       1.00800           0
     91616 TIP3     27234    TIP3     OH2      OT      -0.834000       15.9994           0
     91617 TIP3     27234    TIP3     H1       HT       0.417000       1.00800           0
     91618 TIP3     27234    TIP3     H2       HT       0.417000       1.00800           0
     91619 TIP3     27235    TIP3     OH2      OT      -0.834000       15.9994           0
     91620 TIP3     27235    TIP3     H1       HT       0.417000       1.00800           0
     91621 TIP3     27235    TIP3     H2       HT       0.417000       1.00800           0
     91622 TIP3     27236    TIP3     OH2      OT      -0.834000       15.9994           0
     91623 TIP3     27236    TIP3     H1       HT       0.417000       1.00800           0
     91624 TIP3     27236    TIP3     H2       HT       0.417000       1.00800           0
     91625 TIP3     27237    TIP3     OH2      OT      -0.834000       15.9994           0
     91626 TIP3     27237    TIP3     H1       HT       0.417000       1.00800           0
     91627 TIP3     27237    TIP3     H2       HT       0.417000       1.00800           0
     91628 TIP3     27238    TIP3     OH2      OT      -0.834000       15.9994           0
     91629 TIP3     27238    TIP3     H1       HT       0.417000       1.00800           0
     91630 TIP3     27238    TIP3     H2       HT       0.417000       1.00800           0
     91631 TIP3     27239    TIP3     OH2      OT      -0.834000       15.9994           0
     91632 TIP3     27239    TIP3     H1       HT       0.417000       1.00800           0
     91633 TIP3     27239    TIP3     H2       HT       0.417000       1.00800           0
     91634 TIP3     27240    TIP3     OH2      OT      -0.834000       15.9994           0
     91635 TIP3     27240    TIP3     H1       HT       0.417000       1.00800           0
     91636 TIP3     27240    TIP3     H2       HT       0.417000       1.00800           0
     91637 TIP3     27241    TIP3     OH2      OT      -0.834000       15.9994           0
     91638 TIP3     27241    TIP3     H1       HT       0.417000       1.00800           0
     91639 TIP3     27241    TIP3     H2       HT       0.417000       1.00800           0
     91640 TIP3     27242    TIP3     OH2      OT      -0.834000       15.9994           0
     91641 TIP3     27242    TIP3     H1       HT       0.417000       1.00800           0
     91642 TIP3     27242    TIP3     H2       HT       0.417000       1.00800           0
     91643 TIP3     27243    TIP3     OH2      OT      -0.834000       15.9994           0
     91644 TIP3     27243    TIP3     H1       HT       0.417000       1.00800           0
     91645 TIP3     27243    TIP3     H2       HT       0.417000       1.00800           0
     91646 TIP3     27244    TIP3     OH2      OT      -0.834000       15.9994           0
     91647 TIP3     27244    TIP3     H1       HT       0.417000       1.00800           0
     91648 TIP3     27244    TIP3     H2       HT       0.417000       1.00800           0
     91649 TIP3     27245    TIP3     OH2      OT      -0.834000       15.9994           0
     91650 TIP3     27245    TIP3     H1       HT       0.417000       1.00800           0
     91651 TIP3     27245    TIP3     H2       HT       0.417000       1.00800           0
     91652 TIP3     27246    TIP3     OH2      OT      -0.834000       15.9994           0
     91653 TIP3     27246    TIP3     H1       HT       0.417000       1.00800           0
     91654 TIP3     27246    TIP3     H2       HT       0.417000       1.00800           0
     91655 TIP3     27247    TIP3     OH2      OT      -0.834000       15.9994           0
     91656 TIP3     27247    TIP3     H1       HT       0.417000       1.00800           0
     91657 TIP3     27247    TIP3     H2       HT       0.417000       1.00800           0
     91658 TIP3     27248    TIP3     OH2      OT      -0.834000       15.9994           0
     91659 TIP3     27248    TIP3     H1       HT       0.417000       1.00800           0
     91660 TIP3     27248    TIP3     H2       HT       0.417000       1.00800           0
     91661 TIP3     27249    TIP3     OH2      OT      -0.834000       15.9994           0
     91662 TIP3     27249    TIP3     H1       HT       0.417000       1.00800           0
     91663 TIP3     27249    TIP3     H2       HT       0.417000       1.00800           0
     91664 TIP3     27250    TIP3     OH2      OT      -0.834000       15.9994           0
     91665 TIP3     27250    TIP3     H1       HT       0.417000       1.00800           0
     91666 TIP3     27250    TIP3     H2       HT       0.417000       1.00800           0
     91667 TIP3     27251    TIP3     OH2      OT      -0.834000       15.9994           0
     91668 TIP3     27251    TIP3     H1       HT       0.417000       1.00800           0
     91669 TIP3     27251    TIP3     H2       HT       0.417000       1.00800           0
     91670 TIP3     27252    TIP3     OH2      OT      -0.834000       15.9994           0
     91671 TIP3     27252    TIP3     H1       HT       0.417000       1.00800           0
     91672 TIP3     27252    TIP3     H2       HT       0.417000       1.00800           0
     91673 TIP3     27253    TIP3     OH2      OT      -0.834000       15.9994           0
     91674 TIP3     27253    TIP3     H1       HT       0.417000       1.00800           0
     91675 TIP3     27253    TIP3     H2       HT       0.417000       1.00800           0
     91676 TIP3     27254    TIP3     OH2      OT      -0.834000       15.9994           0
     91677 TIP3     27254    TIP3     H1       HT       0.417000       1.00800           0
     91678 TIP3     27254    TIP3     H2       HT       0.417000       1.00800           0
     91679 TIP3     27255    TIP3     OH2      OT      -0.834000       15.9994           0
     91680 TIP3     27255    TIP3     H1       HT       0.417000       1.00800           0
     91681 TIP3     27255    TIP3     H2       HT       0.417000       1.00800           0
     91682 TIP3     27256    TIP3     OH2      OT      -0.834000       15.9994           0
     91683 TIP3     27256    TIP3     H1       HT       0.417000       1.00800           0
     91684 TIP3     27256    TIP3     H2       HT       0.417000       1.00800           0
     91685 TIP3     27257    TIP3     OH2      OT      -0.834000       15.9994           0
     91686 TIP3     27257    TIP3     H1       HT       0.417000       1.00800           0
     91687 TIP3     27257    TIP3     H2       HT       0.417000       1.00800           0
     91688 TIP3     27258    TIP3     OH2      OT      -0.834000       15.9994           0
     91689 TIP3     27258    TIP3     H1       HT       0.417000       1.00800           0
     91690 TIP3     27258    TIP3     H2       HT       0.417000       1.00800           0
     91691 TIP3     27259    TIP3     OH2      OT      -0.834000       15.9994           0
     91692 TIP3     27259    TIP3     H1       HT       0.417000       1.00800           0
     91693 TIP3     27259    TIP3     H2       HT       0.417000       1.00800           0
     91694 TIP3     27260    TIP3     OH2      OT      -0.834000       15.9994           0
     91695 TIP3     27260    TIP3     H1       HT       0.417000       1.00800           0
     91696 TIP3     27260    TIP3     H2       HT       0.417000       1.00800           0
     91697 TIP3     27261    TIP3     OH2      OT      -0.834000       15.9994           0
     91698 TIP3     27261    TIP3     H1       HT       0.417000       1.00800           0
     91699 TIP3     27261    TIP3     H2       HT       0.417000       1.00800           0
     91700 TIP3     27262    TIP3     OH2      OT      -0.834000       15.9994           0
     91701 TIP3     27262    TIP3     H1       HT       0.417000       1.00800           0
     91702 TIP3     27262    TIP3     H2       HT       0.417000       1.00800           0
     91703 TIP3     27263    TIP3     OH2      OT      -0.834000       15.9994           0
     91704 TIP3     27263    TIP3     H1       HT       0.417000       1.00800           0
     91705 TIP3     27263    TIP3     H2       HT       0.417000       1.00800           0
     91706 TIP3     27264    TIP3     OH2      OT      -0.834000       15.9994           0
     91707 TIP3     27264    TIP3     H1       HT       0.417000       1.00800           0
     91708 TIP3     27264    TIP3     H2       HT       0.417000       1.00800           0
     91709 TIP3     27265    TIP3     OH2      OT      -0.834000       15.9994           0
     91710 TIP3     27265    TIP3     H1       HT       0.417000       1.00800           0
     91711 TIP3     27265    TIP3     H2       HT       0.417000       1.00800           0
     91712 TIP3     27266    TIP3     OH2      OT      -0.834000       15.9994           0
     91713 TIP3     27266    TIP3     H1       HT       0.417000       1.00800           0
     91714 TIP3     27266    TIP3     H2       HT       0.417000       1.00800           0
     91715 TIP3     27267    TIP3     OH2      OT      -0.834000       15.9994           0
     91716 TIP3     27267    TIP3     H1       HT       0.417000       1.00800           0
     91717 TIP3     27267    TIP3     H2       HT       0.417000       1.00800           0
     91718 TIP3     27268    TIP3     OH2      OT      -0.834000       15.9994           0
     91719 TIP3     27268    TIP3     H1       HT       0.417000       1.00800           0
     91720 TIP3     27268    TIP3     H2       HT       0.417000       1.00800           0
     91721 TIP3     27269    TIP3     OH2      OT      -0.834000       15.9994           0
     91722 TIP3     27269    TIP3     H1       HT       0.417000       1.00800           0
     91723 TIP3     27269    TIP3     H2       HT       0.417000       1.00800           0
     91724 TIP3     27270    TIP3     OH2      OT      -0.834000       15.9994           0
     91725 TIP3     27270    TIP3     H1       HT       0.417000       1.00800           0
     91726 TIP3     27270    TIP3     H2       HT       0.417000       1.00800           0
     91727 TIP3     27271    TIP3     OH2      OT      -0.834000       15.9994           0
     91728 TIP3     27271    TIP3     H1       HT       0.417000       1.00800           0
     91729 TIP3     27271    TIP3     H2       HT       0.417000       1.00800           0
     91730 TIP3     27272    TIP3     OH2      OT      -0.834000       15.9994           0
     91731 TIP3     27272    TIP3     H1       HT       0.417000       1.00800           0
     91732 TIP3     27272    TIP3     H2       HT       0.417000       1.00800           0
     91733 TIP3     27273    TIP3     OH2      OT      -0.834000       15.9994           0
     91734 TIP3     27273    TIP3     H1       HT       0.417000       1.00800           0
     91735 TIP3     27273    TIP3     H2       HT       0.417000       1.00800           0
     91736 TIP3     27274    TIP3     OH2      OT      -0.834000       15.9994           0
     91737 TIP3     27274    TIP3     H1       HT       0.417000       1.00800           0
     91738 TIP3     27274    TIP3     H2       HT       0.417000       1.00800           0
     91739 TIP3     27275    TIP3     OH2      OT      -0.834000       15.9994           0
     91740 TIP3     27275    TIP3     H1       HT       0.417000       1.00800           0
     91741 TIP3     27275    TIP3     H2       HT       0.417000       1.00800           0
     91742 TIP3     27276    TIP3     OH2      OT      -0.834000       15.9994           0
     91743 TIP3     27276    TIP3     H1       HT       0.417000       1.00800           0
     91744 TIP3     27276    TIP3     H2       HT       0.417000       1.00800           0
     91745 TIP3     27277    TIP3     OH2      OT      -0.834000       15.9994           0
     91746 TIP3     27277    TIP3     H1       HT       0.417000       1.00800           0
     91747 TIP3     27277    TIP3     H2       HT       0.417000       1.00800           0
     91748 TIP3     27278    TIP3     OH2      OT      -0.834000       15.9994           0
     91749 TIP3     27278    TIP3     H1       HT       0.417000       1.00800           0
     91750 TIP3     27278    TIP3     H2       HT       0.417000       1.00800           0
     91751 TIP3     27279    TIP3     OH2      OT      -0.834000       15.9994           0
     91752 TIP3     27279    TIP3     H1       HT       0.417000       1.00800           0
     91753 TIP3     27279    TIP3     H2       HT       0.417000       1.00800           0
     91754 TIP3     27280    TIP3     OH2      OT      -0.834000       15.9994           0
     91755 TIP3     27280    TIP3     H1       HT       0.417000       1.00800           0
     91756 TIP3     27280    TIP3     H2       HT       0.417000       1.00800           0
     91757 TIP3     27281    TIP3     OH2      OT      -0.834000       15.9994           0
     91758 TIP3     27281    TIP3     H1       HT       0.417000       1.00800           0
     91759 TIP3     27281    TIP3     H2       HT       0.417000       1.00800           0
     91760 TIP3     27282    TIP3     OH2      OT      -0.834000       15.9994           0
     91761 TIP3     27282    TIP3     H1       HT       0.417000       1.00800           0
     91762 TIP3     27282    TIP3     H2       HT       0.417000       1.00800           0
     91763 TIP3     27283    TIP3     OH2      OT      -0.834000       15.9994           0
     91764 TIP3     27283    TIP3     H1       HT       0.417000       1.00800           0
     91765 TIP3     27283    TIP3     H2       HT       0.417000       1.00800           0
     91766 TIP3     27284    TIP3     OH2      OT      -0.834000       15.9994           0
     91767 TIP3     27284    TIP3     H1       HT       0.417000       1.00800           0
     91768 TIP3     27284    TIP3     H2       HT       0.417000       1.00800           0
     91769 TIP3     27285    TIP3     OH2      OT      -0.834000       15.9994           0
     91770 TIP3     27285    TIP3     H1       HT       0.417000       1.00800           0
     91771 TIP3     27285    TIP3     H2       HT       0.417000       1.00800           0
     91772 TIP3     27286    TIP3     OH2      OT      -0.834000       15.9994           0
     91773 TIP3     27286    TIP3     H1       HT       0.417000       1.00800           0
     91774 TIP3     27286    TIP3     H2       HT       0.417000       1.00800           0
     91775 TIP3     27287    TIP3     OH2      OT      -0.834000       15.9994           0
     91776 TIP3     27287    TIP3     H1       HT       0.417000       1.00800           0
     91777 TIP3     27287    TIP3     H2       HT       0.417000       1.00800           0
     91778 TIP3     27288    TIP3     OH2      OT      -0.834000       15.9994           0
     91779 TIP3     27288    TIP3     H1       HT       0.417000       1.00800           0
     91780 TIP3     27288    TIP3     H2       HT       0.417000       1.00800           0
     91781 TIP3     27289    TIP3     OH2      OT      -0.834000       15.9994           0
     91782 TIP3     27289    TIP3     H1       HT       0.417000       1.00800           0
     91783 TIP3     27289    TIP3     H2       HT       0.417000       1.00800           0
     91784 TIP3     27290    TIP3     OH2      OT      -0.834000       15.9994           0
     91785 TIP3     27290    TIP3     H1       HT       0.417000       1.00800           0
     91786 TIP3     27290    TIP3     H2       HT       0.417000       1.00800           0
     91787 TIP3     27291    TIP3     OH2      OT      -0.834000       15.9994           0
     91788 TIP3     27291    TIP3     H1       HT       0.417000       1.00800           0
     91789 TIP3     27291    TIP3     H2       HT       0.417000       1.00800           0
     91790 TIP3     27292    TIP3     OH2      OT      -0.834000       15.9994           0
     91791 TIP3     27292    TIP3     H1       HT       0.417000       1.00800           0
     91792 TIP3     27292    TIP3     H2       HT       0.417000       1.00800           0
     91793 TIP3     27293    TIP3     OH2      OT      -0.834000       15.9994           0
     91794 TIP3     27293    TIP3     H1       HT       0.417000       1.00800           0
     91795 TIP3     27293    TIP3     H2       HT       0.417000       1.00800           0
     91796 TIP3     27294    TIP3     OH2      OT      -0.834000       15.9994           0
     91797 TIP3     27294    TIP3     H1       HT       0.417000       1.00800           0
     91798 TIP3     27294    TIP3     H2       HT       0.417000       1.00800           0
     91799 TIP3     27295    TIP3     OH2      OT      -0.834000       15.9994           0
     91800 TIP3     27295    TIP3     H1       HT       0.417000       1.00800           0
     91801 TIP3     27295    TIP3     H2       HT       0.417000       1.00800           0
     91802 TIP3     27296    TIP3     OH2      OT      -0.834000       15.9994           0
     91803 TIP3     27296    TIP3     H1       HT       0.417000       1.00800           0
     91804 TIP3     27296    TIP3     H2       HT       0.417000       1.00800           0
     91805 TIP3     27297    TIP3     OH2      OT      -0.834000       15.9994           0
     91806 TIP3     27297    TIP3     H1       HT       0.417000       1.00800           0
     91807 TIP3     27297    TIP3     H2       HT       0.417000       1.00800           0
     91808 TIP3     27298    TIP3     OH2      OT      -0.834000       15.9994           0
     91809 TIP3     27298    TIP3     H1       HT       0.417000       1.00800           0
     91810 TIP3     27298    TIP3     H2       HT       0.417000       1.00800           0
     91811 TIP3     27299    TIP3     OH2      OT      -0.834000       15.9994           0
     91812 TIP3     27299    TIP3     H1       HT       0.417000       1.00800           0
     91813 TIP3     27299    TIP3     H2       HT       0.417000       1.00800           0
     91814 TIP3     27300    TIP3     OH2      OT      -0.834000       15.9994           0
     91815 TIP3     27300    TIP3     H1       HT       0.417000       1.00800           0
     91816 TIP3     27300    TIP3     H2       HT       0.417000       1.00800           0
     91817 TIP3     27301    TIP3     OH2      OT      -0.834000       15.9994           0
     91818 TIP3     27301    TIP3     H1       HT       0.417000       1.00800           0
     91819 TIP3     27301    TIP3     H2       HT       0.417000       1.00800           0
     91820 TIP3     27302    TIP3     OH2      OT      -0.834000       15.9994           0
     91821 TIP3     27302    TIP3     H1       HT       0.417000       1.00800           0
     91822 TIP3     27302    TIP3     H2       HT       0.417000       1.00800           0
     91823 TIP3     27303    TIP3     OH2      OT      -0.834000       15.9994           0
     91824 TIP3     27303    TIP3     H1       HT       0.417000       1.00800           0
     91825 TIP3     27303    TIP3     H2       HT       0.417000       1.00800           0
     91826 TIP3     27304    TIP3     OH2      OT      -0.834000       15.9994           0
     91827 TIP3     27304    TIP3     H1       HT       0.417000       1.00800           0
     91828 TIP3     27304    TIP3     H2       HT       0.417000       1.00800           0
     91829 TIP3     27305    TIP3     OH2      OT      -0.834000       15.9994           0
     91830 TIP3     27305    TIP3     H1       HT       0.417000       1.00800           0
     91831 TIP3     27305    TIP3     H2       HT       0.417000       1.00800           0
     91832 TIP3     27306    TIP3     OH2      OT      -0.834000       15.9994           0
     91833 TIP3     27306    TIP3     H1       HT       0.417000       1.00800           0
     91834 TIP3     27306    TIP3     H2       HT       0.417000       1.00800           0
     91835 TIP3     27307    TIP3     OH2      OT      -0.834000       15.9994           0
     91836 TIP3     27307    TIP3     H1       HT       0.417000       1.00800           0
     91837 TIP3     27307    TIP3     H2       HT       0.417000       1.00800           0
     91838 TIP3     27308    TIP3     OH2      OT      -0.834000       15.9994           0
     91839 TIP3     27308    TIP3     H1       HT       0.417000       1.00800           0
     91840 TIP3     27308    TIP3     H2       HT       0.417000       1.00800           0
     91841 TIP3     27309    TIP3     OH2      OT      -0.834000       15.9994           0
     91842 TIP3     27309    TIP3     H1       HT       0.417000       1.00800           0
     91843 TIP3     27309    TIP3     H2       HT       0.417000       1.00800           0
     91844 TIP3     27310    TIP3     OH2      OT      -0.834000       15.9994           0
     91845 TIP3     27310    TIP3     H1       HT       0.417000       1.00800           0
     91846 TIP3     27310    TIP3     H2       HT       0.417000       1.00800           0
     91847 TIP3     27311    TIP3     OH2      OT      -0.834000       15.9994           0
     91848 TIP3     27311    TIP3     H1       HT       0.417000       1.00800           0
     91849 TIP3     27311    TIP3     H2       HT       0.417000       1.00800           0
     91850 TIP3     27312    TIP3     OH2      OT      -0.834000       15.9994           0
     91851 TIP3     27312    TIP3     H1       HT       0.417000       1.00800           0
     91852 TIP3     27312    TIP3     H2       HT       0.417000       1.00800           0
     91853 TIP3     27313    TIP3     OH2      OT      -0.834000       15.9994           0
     91854 TIP3     27313    TIP3     H1       HT       0.417000       1.00800           0
     91855 TIP3     27313    TIP3     H2       HT       0.417000       1.00800           0
     91856 TIP3     27314    TIP3     OH2      OT      -0.834000       15.9994           0
     91857 TIP3     27314    TIP3     H1       HT       0.417000       1.00800           0
     91858 TIP3     27314    TIP3     H2       HT       0.417000       1.00800           0
     91859 TIP3     27315    TIP3     OH2      OT      -0.834000       15.9994           0
     91860 TIP3     27315    TIP3     H1       HT       0.417000       1.00800           0
     91861 TIP3     27315    TIP3     H2       HT       0.417000       1.00800           0
     91862 TIP3     27316    TIP3     OH2      OT      -0.834000       15.9994           0
     91863 TIP3     27316    TIP3     H1       HT       0.417000       1.00800           0
     91864 TIP3     27316    TIP3     H2       HT       0.417000       1.00800           0
     91865 TIP3     27317    TIP3     OH2      OT      -0.834000       15.9994           0
     91866 TIP3     27317    TIP3     H1       HT       0.417000       1.00800           0
     91867 TIP3     27317    TIP3     H2       HT       0.417000       1.00800           0
     91868 TIP3     27318    TIP3     OH2      OT      -0.834000       15.9994           0
     91869 TIP3     27318    TIP3     H1       HT       0.417000       1.00800           0
     91870 TIP3     27318    TIP3     H2       HT       0.417000       1.00800           0
     91871 TIP3     27319    TIP3     OH2      OT      -0.834000       15.9994           0
     91872 TIP3     27319    TIP3     H1       HT       0.417000       1.00800           0
     91873 TIP3     27319    TIP3     H2       HT       0.417000       1.00800           0
     91874 TIP3     27320    TIP3     OH2      OT      -0.834000       15.9994           0
     91875 TIP3     27320    TIP3     H1       HT       0.417000       1.00800           0
     91876 TIP3     27320    TIP3     H2       HT       0.417000       1.00800           0
     91877 TIP3     27321    TIP3     OH2      OT      -0.834000       15.9994           0
     91878 TIP3     27321    TIP3     H1       HT       0.417000       1.00800           0
     91879 TIP3     27321    TIP3     H2       HT       0.417000       1.00800           0
     91880 TIP3     27322    TIP3     OH2      OT      -0.834000       15.9994           0
     91881 TIP3     27322    TIP3     H1       HT       0.417000       1.00800           0
     91882 TIP3     27322    TIP3     H2       HT       0.417000       1.00800           0
     91883 TIP3     27323    TIP3     OH2      OT      -0.834000       15.9994           0
     91884 TIP3     27323    TIP3     H1       HT       0.417000       1.00800           0
     91885 TIP3     27323    TIP3     H2       HT       0.417000       1.00800           0
     91886 TIP3     27324    TIP3     OH2      OT      -0.834000       15.9994           0
     91887 TIP3     27324    TIP3     H1       HT       0.417000       1.00800           0
     91888 TIP3     27324    TIP3     H2       HT       0.417000       1.00800           0
     91889 TIP3     27325    TIP3     OH2      OT      -0.834000       15.9994           0
     91890 TIP3     27325    TIP3     H1       HT       0.417000       1.00800           0
     91891 TIP3     27325    TIP3     H2       HT       0.417000       1.00800           0
     91892 TIP3     27326    TIP3     OH2      OT      -0.834000       15.9994           0
     91893 TIP3     27326    TIP3     H1       HT       0.417000       1.00800           0
     91894 TIP3     27326    TIP3     H2       HT       0.417000       1.00800           0
     91895 TIP3     27327    TIP3     OH2      OT      -0.834000       15.9994           0
     91896 TIP3     27327    TIP3     H1       HT       0.417000       1.00800           0
     91897 TIP3     27327    TIP3     H2       HT       0.417000       1.00800           0
     91898 TIP3     27328    TIP3     OH2      OT      -0.834000       15.9994           0
     91899 TIP3     27328    TIP3     H1       HT       0.417000       1.00800           0
     91900 TIP3     27328    TIP3     H2       HT       0.417000       1.00800           0
     91901 TIP3     27329    TIP3     OH2      OT      -0.834000       15.9994           0
     91902 TIP3     27329    TIP3     H1       HT       0.417000       1.00800           0
     91903 TIP3     27329    TIP3     H2       HT       0.417000       1.00800           0
     91904 TIP3     27330    TIP3     OH2      OT      -0.834000       15.9994           0
     91905 TIP3     27330    TIP3     H1       HT       0.417000       1.00800           0
     91906 TIP3     27330    TIP3     H2       HT       0.417000       1.00800           0
     91907 TIP3     27331    TIP3     OH2      OT      -0.834000       15.9994           0
     91908 TIP3     27331    TIP3     H1       HT       0.417000       1.00800           0
     91909 TIP3     27331    TIP3     H2       HT       0.417000       1.00800           0
     91910 TIP3     27332    TIP3     OH2      OT      -0.834000       15.9994           0
     91911 TIP3     27332    TIP3     H1       HT       0.417000       1.00800           0
     91912 TIP3     27332    TIP3     H2       HT       0.417000       1.00800           0
     91913 TIP3     27333    TIP3     OH2      OT      -0.834000       15.9994           0
     91914 TIP3     27333    TIP3     H1       HT       0.417000       1.00800           0
     91915 TIP3     27333    TIP3     H2       HT       0.417000       1.00800           0
     91916 TIP3     27334    TIP3     OH2      OT      -0.834000       15.9994           0
     91917 TIP3     27334    TIP3     H1       HT       0.417000       1.00800           0
     91918 TIP3     27334    TIP3     H2       HT       0.417000       1.00800           0
     91919 TIP3     27335    TIP3     OH2      OT      -0.834000       15.9994           0
     91920 TIP3     27335    TIP3     H1       HT       0.417000       1.00800           0
     91921 TIP3     27335    TIP3     H2       HT       0.417000       1.00800           0
     91922 TIP3     27336    TIP3     OH2      OT      -0.834000       15.9994           0
     91923 TIP3     27336    TIP3     H1       HT       0.417000       1.00800           0
     91924 TIP3     27336    TIP3     H2       HT       0.417000       1.00800           0
     91925 TIP3     27337    TIP3     OH2      OT      -0.834000       15.9994           0
     91926 TIP3     27337    TIP3     H1       HT       0.417000       1.00800           0
     91927 TIP3     27337    TIP3     H2       HT       0.417000       1.00800           0
     91928 TIP3     27338    TIP3     OH2      OT      -0.834000       15.9994           0
     91929 TIP3     27338    TIP3     H1       HT       0.417000       1.00800           0
     91930 TIP3     27338    TIP3     H2       HT       0.417000       1.00800           0
     91931 TIP3     27339    TIP3     OH2      OT      -0.834000       15.9994           0
     91932 TIP3     27339    TIP3     H1       HT       0.417000       1.00800           0
     91933 TIP3     27339    TIP3     H2       HT       0.417000       1.00800           0
     91934 TIP3     27340    TIP3     OH2      OT      -0.834000       15.9994           0
     91935 TIP3     27340    TIP3     H1       HT       0.417000       1.00800           0
     91936 TIP3     27340    TIP3     H2       HT       0.417000       1.00800           0
     91937 TIP3     27341    TIP3     OH2      OT      -0.834000       15.9994           0
     91938 TIP3     27341    TIP3     H1       HT       0.417000       1.00800           0
     91939 TIP3     27341    TIP3     H2       HT       0.417000       1.00800           0
     91940 TIP3     27342    TIP3     OH2      OT      -0.834000       15.9994           0
     91941 TIP3     27342    TIP3     H1       HT       0.417000       1.00800           0
     91942 TIP3     27342    TIP3     H2       HT       0.417000       1.00800           0
     91943 TIP3     27343    TIP3     OH2      OT      -0.834000       15.9994           0
     91944 TIP3     27343    TIP3     H1       HT       0.417000       1.00800           0
     91945 TIP3     27343    TIP3     H2       HT       0.417000       1.00800           0
     91946 TIP3     27344    TIP3     OH2      OT      -0.834000       15.9994           0
     91947 TIP3     27344    TIP3     H1       HT       0.417000       1.00800           0
     91948 TIP3     27344    TIP3     H2       HT       0.417000       1.00800           0
     91949 TIP3     27345    TIP3     OH2      OT      -0.834000       15.9994           0
     91950 TIP3     27345    TIP3     H1       HT       0.417000       1.00800           0
     91951 TIP3     27345    TIP3     H2       HT       0.417000       1.00800           0
     91952 TIP3     27346    TIP3     OH2      OT      -0.834000       15.9994           0
     91953 TIP3     27346    TIP3     H1       HT       0.417000       1.00800           0
     91954 TIP3     27346    TIP3     H2       HT       0.417000       1.00800           0
     91955 TIP3     27347    TIP3     OH2      OT      -0.834000       15.9994           0
     91956 TIP3     27347    TIP3     H1       HT       0.417000       1.00800           0
     91957 TIP3     27347    TIP3     H2       HT       0.417000       1.00800           0
     91958 TIP3     27348    TIP3     OH2      OT      -0.834000       15.9994           0
     91959 TIP3     27348    TIP3     H1       HT       0.417000       1.00800           0
     91960 TIP3     27348    TIP3     H2       HT       0.417000       1.00800           0
     91961 TIP3     27349    TIP3     OH2      OT      -0.834000       15.9994           0
     91962 TIP3     27349    TIP3     H1       HT       0.417000       1.00800           0
     91963 TIP3     27349    TIP3     H2       HT       0.417000       1.00800           0
     91964 TIP3     27350    TIP3     OH2      OT      -0.834000       15.9994           0
     91965 TIP3     27350    TIP3     H1       HT       0.417000       1.00800           0
     91966 TIP3     27350    TIP3     H2       HT       0.417000       1.00800           0
     91967 TIP3     27351    TIP3     OH2      OT      -0.834000       15.9994           0
     91968 TIP3     27351    TIP3     H1       HT       0.417000       1.00800           0
     91969 TIP3     27351    TIP3     H2       HT       0.417000       1.00800           0
     91970 TIP3     27352    TIP3     OH2      OT      -0.834000       15.9994           0
     91971 TIP3     27352    TIP3     H1       HT       0.417000       1.00800           0
     91972 TIP3     27352    TIP3     H2       HT       0.417000       1.00800           0
     91973 TIP3     27353    TIP3     OH2      OT      -0.834000       15.9994           0
     91974 TIP3     27353    TIP3     H1       HT       0.417000       1.00800           0
     91975 TIP3     27353    TIP3     H2       HT       0.417000       1.00800           0
     91976 TIP3     27354    TIP3     OH2      OT      -0.834000       15.9994           0
     91977 TIP3     27354    TIP3     H1       HT       0.417000       1.00800           0
     91978 TIP3     27354    TIP3     H2       HT       0.417000       1.00800           0
     91979 TIP3     27355    TIP3     OH2      OT      -0.834000       15.9994           0
     91980 TIP3     27355    TIP3     H1       HT       0.417000       1.00800           0
     91981 TIP3     27355    TIP3     H2       HT       0.417000       1.00800           0
     91982 TIP3     27356    TIP3     OH2      OT      -0.834000       15.9994           0
     91983 TIP3     27356    TIP3     H1       HT       0.417000       1.00800           0
     91984 TIP3     27356    TIP3     H2       HT       0.417000       1.00800           0
     91985 TIP3     27357    TIP3     OH2      OT      -0.834000       15.9994           0
     91986 TIP3     27357    TIP3     H1       HT       0.417000       1.00800           0
     91987 TIP3     27357    TIP3     H2       HT       0.417000       1.00800           0
     91988 TIP3     27358    TIP3     OH2      OT      -0.834000       15.9994           0
     91989 TIP3     27358    TIP3     H1       HT       0.417000       1.00800           0
     91990 TIP3     27358    TIP3     H2       HT       0.417000       1.00800           0
     91991 TIP3     27359    TIP3     OH2      OT      -0.834000       15.9994           0
     91992 TIP3     27359    TIP3     H1       HT       0.417000       1.00800           0
     91993 TIP3     27359    TIP3     H2       HT       0.417000       1.00800           0
     91994 TIP3     27360    TIP3     OH2      OT      -0.834000       15.9994           0
     91995 TIP3     27360    TIP3     H1       HT       0.417000       1.00800           0
     91996 TIP3     27360    TIP3     H2       HT       0.417000       1.00800           0
     91997 TIP3     27361    TIP3     OH2      OT      -0.834000       15.9994           0
     91998 TIP3     27361    TIP3     H1       HT       0.417000       1.00800           0
     91999 TIP3     27361    TIP3     H2       HT       0.417000       1.00800           0
     92000 TIP3     27362    TIP3     OH2      OT      -0.834000       15.9994           0
     92001 TIP3     27362    TIP3     H1       HT       0.417000       1.00800           0
     92002 TIP3     27362    TIP3     H2       HT       0.417000       1.00800           0
     92003 TIP3     27363    TIP3     OH2      OT      -0.834000       15.9994           0
     92004 TIP3     27363    TIP3     H1       HT       0.417000       1.00800           0
     92005 TIP3     27363    TIP3     H2       HT       0.417000       1.00800           0
     92006 TIP3     27364    TIP3     OH2      OT      -0.834000       15.9994           0
     92007 TIP3     27364    TIP3     H1       HT       0.417000       1.00800           0
     92008 TIP3     27364    TIP3     H2       HT       0.417000       1.00800           0
     92009 TIP3     27365    TIP3     OH2      OT      -0.834000       15.9994           0
     92010 TIP3     27365    TIP3     H1       HT       0.417000       1.00800           0
     92011 TIP3     27365    TIP3     H2       HT       0.417000       1.00800           0
     92012 TIP3     27366    TIP3     OH2      OT      -0.834000       15.9994           0
     92013 TIP3     27366    TIP3     H1       HT       0.417000       1.00800           0
     92014 TIP3     27366    TIP3     H2       HT       0.417000       1.00800           0
     92015 TIP3     27367    TIP3     OH2      OT      -0.834000       15.9994           0
     92016 TIP3     27367    TIP3     H1       HT       0.417000       1.00800           0
     92017 TIP3     27367    TIP3     H2       HT       0.417000       1.00800           0
     92018 TIP3     27368    TIP3     OH2      OT      -0.834000       15.9994           0
     92019 TIP3     27368    TIP3     H1       HT       0.417000       1.00800           0
     92020 TIP3     27368    TIP3     H2       HT       0.417000       1.00800           0
     92021 TIP3     27369    TIP3     OH2      OT      -0.834000       15.9994           0
     92022 TIP3     27369    TIP3     H1       HT       0.417000       1.00800           0
     92023 TIP3     27369    TIP3     H2       HT       0.417000       1.00800           0
     92024 TIP3     27370    TIP3     OH2      OT      -0.834000       15.9994           0
     92025 TIP3     27370    TIP3     H1       HT       0.417000       1.00800           0
     92026 TIP3     27370    TIP3     H2       HT       0.417000       1.00800           0
     92027 TIP3     27371    TIP3     OH2      OT      -0.834000       15.9994           0
     92028 TIP3     27371    TIP3     H1       HT       0.417000       1.00800           0
     92029 TIP3     27371    TIP3     H2       HT       0.417000       1.00800           0
     92030 TIP3     27372    TIP3     OH2      OT      -0.834000       15.9994           0
     92031 TIP3     27372    TIP3     H1       HT       0.417000       1.00800           0
     92032 TIP3     27372    TIP3     H2       HT       0.417000       1.00800           0
     92033 TIP3     27373    TIP3     OH2      OT      -0.834000       15.9994           0
     92034 TIP3     27373    TIP3     H1       HT       0.417000       1.00800           0
     92035 TIP3     27373    TIP3     H2       HT       0.417000       1.00800           0
     92036 TIP3     27374    TIP3     OH2      OT      -0.834000       15.9994           0
     92037 TIP3     27374    TIP3     H1       HT       0.417000       1.00800           0
     92038 TIP3     27374    TIP3     H2       HT       0.417000       1.00800           0
     92039 TIP3     27375    TIP3     OH2      OT      -0.834000       15.9994           0
     92040 TIP3     27375    TIP3     H1       HT       0.417000       1.00800           0
     92041 TIP3     27375    TIP3     H2       HT       0.417000       1.00800           0
     92042 TIP3     27376    TIP3     OH2      OT      -0.834000       15.9994           0
     92043 TIP3     27376    TIP3     H1       HT       0.417000       1.00800           0
     92044 TIP3     27376    TIP3     H2       HT       0.417000       1.00800           0
     92045 TIP3     27377    TIP3     OH2      OT      -0.834000       15.9994           0
     92046 TIP3     27377    TIP3     H1       HT       0.417000       1.00800           0
     92047 TIP3     27377    TIP3     H2       HT       0.417000       1.00800           0
     92048 TIP3     27378    TIP3     OH2      OT      -0.834000       15.9994           0
     92049 TIP3     27378    TIP3     H1       HT       0.417000       1.00800           0
     92050 TIP3     27378    TIP3     H2       HT       0.417000       1.00800           0
     92051 TIP3     27379    TIP3     OH2      OT      -0.834000       15.9994           0
     92052 TIP3     27379    TIP3     H1       HT       0.417000       1.00800           0
     92053 TIP3     27379    TIP3     H2       HT       0.417000       1.00800           0
     92054 TIP3     27380    TIP3     OH2      OT      -0.834000       15.9994           0
     92055 TIP3     27380    TIP3     H1       HT       0.417000       1.00800           0
     92056 TIP3     27380    TIP3     H2       HT       0.417000       1.00800           0
     92057 TIP3     27381    TIP3     OH2      OT      -0.834000       15.9994           0
     92058 TIP3     27381    TIP3     H1       HT       0.417000       1.00800           0
     92059 TIP3     27381    TIP3     H2       HT       0.417000       1.00800           0
     92060 TIP3     27382    TIP3     OH2      OT      -0.834000       15.9994           0
     92061 TIP3     27382    TIP3     H1       HT       0.417000       1.00800           0
     92062 TIP3     27382    TIP3     H2       HT       0.417000       1.00800           0
     92063 TIP3     27383    TIP3     OH2      OT      -0.834000       15.9994           0
     92064 TIP3     27383    TIP3     H1       HT       0.417000       1.00800           0
     92065 TIP3     27383    TIP3     H2       HT       0.417000       1.00800           0
     92066 TIP3     27384    TIP3     OH2      OT      -0.834000       15.9994           0
     92067 TIP3     27384    TIP3     H1       HT       0.417000       1.00800           0
     92068 TIP3     27384    TIP3     H2       HT       0.417000       1.00800           0
     92069 TIP3     27385    TIP3     OH2      OT      -0.834000       15.9994           0
     92070 TIP3     27385    TIP3     H1       HT       0.417000       1.00800           0
     92071 TIP3     27385    TIP3     H2       HT       0.417000       1.00800           0
     92072 TIP3     27386    TIP3     OH2      OT      -0.834000       15.9994           0
     92073 TIP3     27386    TIP3     H1       HT       0.417000       1.00800           0
     92074 TIP3     27386    TIP3     H2       HT       0.417000       1.00800           0
     92075 TIP3     27387    TIP3     OH2      OT      -0.834000       15.9994           0
     92076 TIP3     27387    TIP3     H1       HT       0.417000       1.00800           0
     92077 TIP3     27387    TIP3     H2       HT       0.417000       1.00800           0
     92078 TIP3     27388    TIP3     OH2      OT      -0.834000       15.9994           0
     92079 TIP3     27388    TIP3     H1       HT       0.417000       1.00800           0
     92080 TIP3     27388    TIP3     H2       HT       0.417000       1.00800           0
     92081 TIP3     27389    TIP3     OH2      OT      -0.834000       15.9994           0
     92082 TIP3     27389    TIP3     H1       HT       0.417000       1.00800           0
     92083 TIP3     27389    TIP3     H2       HT       0.417000       1.00800           0
     92084 TIP3     27390    TIP3     OH2      OT      -0.834000       15.9994           0
     92085 TIP3     27390    TIP3     H1       HT       0.417000       1.00800           0
     92086 TIP3     27390    TIP3     H2       HT       0.417000       1.00800           0
     92087 TIP3     27391    TIP3     OH2      OT      -0.834000       15.9994           0
     92088 TIP3     27391    TIP3     H1       HT       0.417000       1.00800           0
     92089 TIP3     27391    TIP3     H2       HT       0.417000       1.00800           0
     92090 TIP3     27392    TIP3     OH2      OT      -0.834000       15.9994           0
     92091 TIP3     27392    TIP3     H1       HT       0.417000       1.00800           0
     92092 TIP3     27392    TIP3     H2       HT       0.417000       1.00800           0
     92093 TIP3     27393    TIP3     OH2      OT      -0.834000       15.9994           0
     92094 TIP3     27393    TIP3     H1       HT       0.417000       1.00800           0
     92095 TIP3     27393    TIP3     H2       HT       0.417000       1.00800           0
     92096 TIP3     27394    TIP3     OH2      OT      -0.834000       15.9994           0
     92097 TIP3     27394    TIP3     H1       HT       0.417000       1.00800           0
     92098 TIP3     27394    TIP3     H2       HT       0.417000       1.00800           0
     92099 TIP3     27395    TIP3     OH2      OT      -0.834000       15.9994           0
     92100 TIP3     27395    TIP3     H1       HT       0.417000       1.00800           0
     92101 TIP3     27395    TIP3     H2       HT       0.417000       1.00800           0
     92102 TIP3     27396    TIP3     OH2      OT      -0.834000       15.9994           0
     92103 TIP3     27396    TIP3     H1       HT       0.417000       1.00800           0
     92104 TIP3     27396    TIP3     H2       HT       0.417000       1.00800           0
     92105 TIP3     27397    TIP3     OH2      OT      -0.834000       15.9994           0
     92106 TIP3     27397    TIP3     H1       HT       0.417000       1.00800           0
     92107 TIP3     27397    TIP3     H2       HT       0.417000       1.00800           0
     92108 TIP3     27398    TIP3     OH2      OT      -0.834000       15.9994           0
     92109 TIP3     27398    TIP3     H1       HT       0.417000       1.00800           0
     92110 TIP3     27398    TIP3     H2       HT       0.417000       1.00800           0
     92111 TIP3     27399    TIP3     OH2      OT      -0.834000       15.9994           0
     92112 TIP3     27399    TIP3     H1       HT       0.417000       1.00800           0
     92113 TIP3     27399    TIP3     H2       HT       0.417000       1.00800           0
     92114 TIP3     27400    TIP3     OH2      OT      -0.834000       15.9994           0
     92115 TIP3     27400    TIP3     H1       HT       0.417000       1.00800           0
     92116 TIP3     27400    TIP3     H2       HT       0.417000       1.00800           0
     92117 TIP3     27401    TIP3     OH2      OT      -0.834000       15.9994           0
     92118 TIP3     27401    TIP3     H1       HT       0.417000       1.00800           0
     92119 TIP3     27401    TIP3     H2       HT       0.417000       1.00800           0
     92120 TIP3     27402    TIP3     OH2      OT      -0.834000       15.9994           0
     92121 TIP3     27402    TIP3     H1       HT       0.417000       1.00800           0
     92122 TIP3     27402    TIP3     H2       HT       0.417000       1.00800           0
     92123 TIP3     27403    TIP3     OH2      OT      -0.834000       15.9994           0
     92124 TIP3     27403    TIP3     H1       HT       0.417000       1.00800           0
     92125 TIP3     27403    TIP3     H2       HT       0.417000       1.00800           0
     92126 TIP3     27404    TIP3     OH2      OT      -0.834000       15.9994           0
     92127 TIP3     27404    TIP3     H1       HT       0.417000       1.00800           0
     92128 TIP3     27404    TIP3     H2       HT       0.417000       1.00800           0
     92129 TIP3     27405    TIP3     OH2      OT      -0.834000       15.9994           0
     92130 TIP3     27405    TIP3     H1       HT       0.417000       1.00800           0
     92131 TIP3     27405    TIP3     H2       HT       0.417000       1.00800           0
     92132 TIP3     27406    TIP3     OH2      OT      -0.834000       15.9994           0
     92133 TIP3     27406    TIP3     H1       HT       0.417000       1.00800           0
     92134 TIP3     27406    TIP3     H2       HT       0.417000       1.00800           0
     92135 TIP3     27407    TIP3     OH2      OT      -0.834000       15.9994           0
     92136 TIP3     27407    TIP3     H1       HT       0.417000       1.00800           0
     92137 TIP3     27407    TIP3     H2       HT       0.417000       1.00800           0
     92138 TIP3     27408    TIP3     OH2      OT      -0.834000       15.9994           0
     92139 TIP3     27408    TIP3     H1       HT       0.417000       1.00800           0
     92140 TIP3     27408    TIP3     H2       HT       0.417000       1.00800           0
     92141 TIP3     27409    TIP3     OH2      OT      -0.834000       15.9994           0
     92142 TIP3     27409    TIP3     H1       HT       0.417000       1.00800           0
     92143 TIP3     27409    TIP3     H2       HT       0.417000       1.00800           0
     92144 TIP3     27410    TIP3     OH2      OT      -0.834000       15.9994           0
     92145 TIP3     27410    TIP3     H1       HT       0.417000       1.00800           0
     92146 TIP3     27410    TIP3     H2       HT       0.417000       1.00800           0
     92147 TIP3     27411    TIP3     OH2      OT      -0.834000       15.9994           0
     92148 TIP3     27411    TIP3     H1       HT       0.417000       1.00800           0
     92149 TIP3     27411    TIP3     H2       HT       0.417000       1.00800           0
     92150 TIP3     27412    TIP3     OH2      OT      -0.834000       15.9994           0
     92151 TIP3     27412    TIP3     H1       HT       0.417000       1.00800           0
     92152 TIP3     27412    TIP3     H2       HT       0.417000       1.00800           0
     92153 TIP3     27413    TIP3     OH2      OT      -0.834000       15.9994           0
     92154 TIP3     27413    TIP3     H1       HT       0.417000       1.00800           0
     92155 TIP3     27413    TIP3     H2       HT       0.417000       1.00800           0
     92156 TIP3     27414    TIP3     OH2      OT      -0.834000       15.9994           0
     92157 TIP3     27414    TIP3     H1       HT       0.417000       1.00800           0
     92158 TIP3     27414    TIP3     H2       HT       0.417000       1.00800           0
     92159 TIP3     27415    TIP3     OH2      OT      -0.834000       15.9994           0
     92160 TIP3     27415    TIP3     H1       HT       0.417000       1.00800           0
     92161 TIP3     27415    TIP3     H2       HT       0.417000       1.00800           0
     92162 TIP3     27416    TIP3     OH2      OT      -0.834000       15.9994           0
     92163 TIP3     27416    TIP3     H1       HT       0.417000       1.00800           0
     92164 TIP3     27416    TIP3     H2       HT       0.417000       1.00800           0
     92165 TIP3     27417    TIP3     OH2      OT      -0.834000       15.9994           0
     92166 TIP3     27417    TIP3     H1       HT       0.417000       1.00800           0
     92167 TIP3     27417    TIP3     H2       HT       0.417000       1.00800           0
     92168 TIP3     27418    TIP3     OH2      OT      -0.834000       15.9994           0
     92169 TIP3     27418    TIP3     H1       HT       0.417000       1.00800           0
     92170 TIP3     27418    TIP3     H2       HT       0.417000       1.00800           0
     92171 TIP3     27419    TIP3     OH2      OT      -0.834000       15.9994           0
     92172 TIP3     27419    TIP3     H1       HT       0.417000       1.00800           0
     92173 TIP3     27419    TIP3     H2       HT       0.417000       1.00800           0
     92174 TIP3     27420    TIP3     OH2      OT      -0.834000       15.9994           0
     92175 TIP3     27420    TIP3     H1       HT       0.417000       1.00800           0
     92176 TIP3     27420    TIP3     H2       HT       0.417000       1.00800           0
     92177 TIP3     27421    TIP3     OH2      OT      -0.834000       15.9994           0
     92178 TIP3     27421    TIP3     H1       HT       0.417000       1.00800           0
     92179 TIP3     27421    TIP3     H2       HT       0.417000       1.00800           0
     92180 TIP3     27422    TIP3     OH2      OT      -0.834000       15.9994           0
     92181 TIP3     27422    TIP3     H1       HT       0.417000       1.00800           0
     92182 TIP3     27422    TIP3     H2       HT       0.417000       1.00800           0
     92183 TIP3     27423    TIP3     OH2      OT      -0.834000       15.9994           0
     92184 TIP3     27423    TIP3     H1       HT       0.417000       1.00800           0
     92185 TIP3     27423    TIP3     H2       HT       0.417000       1.00800           0
     92186 TIP3     27424    TIP3     OH2      OT      -0.834000       15.9994           0
     92187 TIP3     27424    TIP3     H1       HT       0.417000       1.00800           0
     92188 TIP3     27424    TIP3     H2       HT       0.417000       1.00800           0
     92189 TIP3     27425    TIP3     OH2      OT      -0.834000       15.9994           0
     92190 TIP3     27425    TIP3     H1       HT       0.417000       1.00800           0
     92191 TIP3     27425    TIP3     H2       HT       0.417000       1.00800           0
     92192 TIP3     27426    TIP3     OH2      OT      -0.834000       15.9994           0
     92193 TIP3     27426    TIP3     H1       HT       0.417000       1.00800           0
     92194 TIP3     27426    TIP3     H2       HT       0.417000       1.00800           0
     92195 TIP3     27427    TIP3     OH2      OT      -0.834000       15.9994           0
     92196 TIP3     27427    TIP3     H1       HT       0.417000       1.00800           0
     92197 TIP3     27427    TIP3     H2       HT       0.417000       1.00800           0
     92198 TIP3     27428    TIP3     OH2      OT      -0.834000       15.9994           0
     92199 TIP3     27428    TIP3     H1       HT       0.417000       1.00800           0
     92200 TIP3     27428    TIP3     H2       HT       0.417000       1.00800           0
     92201 TIP3     27429    TIP3     OH2      OT      -0.834000       15.9994           0
     92202 TIP3     27429    TIP3     H1       HT       0.417000       1.00800           0
     92203 TIP3     27429    TIP3     H2       HT       0.417000       1.00800           0
     92204 TIP3     27430    TIP3     OH2      OT      -0.834000       15.9994           0
     92205 TIP3     27430    TIP3     H1       HT       0.417000       1.00800           0
     92206 TIP3     27430    TIP3     H2       HT       0.417000       1.00800           0
     92207 TIP3     27431    TIP3     OH2      OT      -0.834000       15.9994           0
     92208 TIP3     27431    TIP3     H1       HT       0.417000       1.00800           0
     92209 TIP3     27431    TIP3     H2       HT       0.417000       1.00800           0
     92210 TIP3     27432    TIP3     OH2      OT      -0.834000       15.9994           0
     92211 TIP3     27432    TIP3     H1       HT       0.417000       1.00800           0
     92212 TIP3     27432    TIP3     H2       HT       0.417000       1.00800           0
     92213 TIP3     27433    TIP3     OH2      OT      -0.834000       15.9994           0
     92214 TIP3     27433    TIP3     H1       HT       0.417000       1.00800           0
     92215 TIP3     27433    TIP3     H2       HT       0.417000       1.00800           0
     92216 TIP3     27434    TIP3     OH2      OT      -0.834000       15.9994           0
     92217 TIP3     27434    TIP3     H1       HT       0.417000       1.00800           0
     92218 TIP3     27434    TIP3     H2       HT       0.417000       1.00800           0
     92219 TIP3     27435    TIP3     OH2      OT      -0.834000       15.9994           0
     92220 TIP3     27435    TIP3     H1       HT       0.417000       1.00800           0
     92221 TIP3     27435    TIP3     H2       HT       0.417000       1.00800           0
     92222 TIP3     27436    TIP3     OH2      OT      -0.834000       15.9994           0
     92223 TIP3     27436    TIP3     H1       HT       0.417000       1.00800           0
     92224 TIP3     27436    TIP3     H2       HT       0.417000       1.00800           0
     92225 TIP3     27437    TIP3     OH2      OT      -0.834000       15.9994           0
     92226 TIP3     27437    TIP3     H1       HT       0.417000       1.00800           0
     92227 TIP3     27437    TIP3     H2       HT       0.417000       1.00800           0
     92228 TIP3     27438    TIP3     OH2      OT      -0.834000       15.9994           0
     92229 TIP3     27438    TIP3     H1       HT       0.417000       1.00800           0
     92230 TIP3     27438    TIP3     H2       HT       0.417000       1.00800           0
     92231 TIP3     27439    TIP3     OH2      OT      -0.834000       15.9994           0
     92232 TIP3     27439    TIP3     H1       HT       0.417000       1.00800           0
     92233 TIP3     27439    TIP3     H2       HT       0.417000       1.00800           0
     92234 TIP3     27440    TIP3     OH2      OT      -0.834000       15.9994           0
     92235 TIP3     27440    TIP3     H1       HT       0.417000       1.00800           0
     92236 TIP3     27440    TIP3     H2       HT       0.417000       1.00800           0
     92237 TIP3     27441    TIP3     OH2      OT      -0.834000       15.9994           0
     92238 TIP3     27441    TIP3     H1       HT       0.417000       1.00800           0
     92239 TIP3     27441    TIP3     H2       HT       0.417000       1.00800           0
     92240 TIP3     27442    TIP3     OH2      OT      -0.834000       15.9994           0
     92241 TIP3     27442    TIP3     H1       HT       0.417000       1.00800           0
     92242 TIP3     27442    TIP3     H2       HT       0.417000       1.00800           0
     92243 TIP3     27443    TIP3     OH2      OT      -0.834000       15.9994           0
     92244 TIP3     27443    TIP3     H1       HT       0.417000       1.00800           0
     92245 TIP3     27443    TIP3     H2       HT       0.417000       1.00800           0
     92246 TIP3     27444    TIP3     OH2      OT      -0.834000       15.9994           0
     92247 TIP3     27444    TIP3     H1       HT       0.417000       1.00800           0
     92248 TIP3     27444    TIP3     H2       HT       0.417000       1.00800           0
     92249 TIP3     27445    TIP3     OH2      OT      -0.834000       15.9994           0
     92250 TIP3     27445    TIP3     H1       HT       0.417000       1.00800           0
     92251 TIP3     27445    TIP3     H2       HT       0.417000       1.00800           0
     92252 TIP3     27446    TIP3     OH2      OT      -0.834000       15.9994           0
     92253 TIP3     27446    TIP3     H1       HT       0.417000       1.00800           0
     92254 TIP3     27446    TIP3     H2       HT       0.417000       1.00800           0
     92255 TIP3     27447    TIP3     OH2      OT      -0.834000       15.9994           0
     92256 TIP3     27447    TIP3     H1       HT       0.417000       1.00800           0
     92257 TIP3     27447    TIP3     H2       HT       0.417000       1.00800           0
     92258 TIP3     27448    TIP3     OH2      OT      -0.834000       15.9994           0
     92259 TIP3     27448    TIP3     H1       HT       0.417000       1.00800           0
     92260 TIP3     27448    TIP3     H2       HT       0.417000       1.00800           0
     92261 TIP3     27449    TIP3     OH2      OT      -0.834000       15.9994           0
     92262 TIP3     27449    TIP3     H1       HT       0.417000       1.00800           0
     92263 TIP3     27449    TIP3     H2       HT       0.417000       1.00800           0
     92264 TIP3     27450    TIP3     OH2      OT      -0.834000       15.9994           0
     92265 TIP3     27450    TIP3     H1       HT       0.417000       1.00800           0
     92266 TIP3     27450    TIP3     H2       HT       0.417000       1.00800           0
     92267 TIP3     27451    TIP3     OH2      OT      -0.834000       15.9994           0
     92268 TIP3     27451    TIP3     H1       HT       0.417000       1.00800           0
     92269 TIP3     27451    TIP3     H2       HT       0.417000       1.00800           0
     92270 TIP3     27452    TIP3     OH2      OT      -0.834000       15.9994           0
     92271 TIP3     27452    TIP3     H1       HT       0.417000       1.00800           0
     92272 TIP3     27452    TIP3     H2       HT       0.417000       1.00800           0
     92273 TIP3     27453    TIP3     OH2      OT      -0.834000       15.9994           0
     92274 TIP3     27453    TIP3     H1       HT       0.417000       1.00800           0
     92275 TIP3     27453    TIP3     H2       HT       0.417000       1.00800           0
     92276 TIP3     27454    TIP3     OH2      OT      -0.834000       15.9994           0
     92277 TIP3     27454    TIP3     H1       HT       0.417000       1.00800           0
     92278 TIP3     27454    TIP3     H2       HT       0.417000       1.00800           0
     92279 TIP3     27455    TIP3     OH2      OT      -0.834000       15.9994           0
     92280 TIP3     27455    TIP3     H1       HT       0.417000       1.00800           0
     92281 TIP3     27455    TIP3     H2       HT       0.417000       1.00800           0
     92282 TIP3     27456    TIP3     OH2      OT      -0.834000       15.9994           0
     92283 TIP3     27456    TIP3     H1       HT       0.417000       1.00800           0
     92284 TIP3     27456    TIP3     H2       HT       0.417000       1.00800           0
     92285 TIP3     27457    TIP3     OH2      OT      -0.834000       15.9994           0
     92286 TIP3     27457    TIP3     H1       HT       0.417000       1.00800           0
     92287 TIP3     27457    TIP3     H2       HT       0.417000       1.00800           0
     92288 TIP3     27458    TIP3     OH2      OT      -0.834000       15.9994           0
     92289 TIP3     27458    TIP3     H1       HT       0.417000       1.00800           0
     92290 TIP3     27458    TIP3     H2       HT       0.417000       1.00800           0
     92291 TIP3     27459    TIP3     OH2      OT      -0.834000       15.9994           0
     92292 TIP3     27459    TIP3     H1       HT       0.417000       1.00800           0
     92293 TIP3     27459    TIP3     H2       HT       0.417000       1.00800           0
     92294 TIP3     27460    TIP3     OH2      OT      -0.834000       15.9994           0
     92295 TIP3     27460    TIP3     H1       HT       0.417000       1.00800           0
     92296 TIP3     27460    TIP3     H2       HT       0.417000       1.00800           0
     92297 TIP3     27461    TIP3     OH2      OT      -0.834000       15.9994           0
     92298 TIP3     27461    TIP3     H1       HT       0.417000       1.00800           0
     92299 TIP3     27461    TIP3     H2       HT       0.417000       1.00800           0
     92300 TIP3     27462    TIP3     OH2      OT      -0.834000       15.9994           0
     92301 TIP3     27462    TIP3     H1       HT       0.417000       1.00800           0
     92302 TIP3     27462    TIP3     H2       HT       0.417000       1.00800           0
     92303 TIP3     27463    TIP3     OH2      OT      -0.834000       15.9994           0
     92304 TIP3     27463    TIP3     H1       HT       0.417000       1.00800           0
     92305 TIP3     27463    TIP3     H2       HT       0.417000       1.00800           0
     92306 TIP3     27464    TIP3     OH2      OT      -0.834000       15.9994           0
     92307 TIP3     27464    TIP3     H1       HT       0.417000       1.00800           0
     92308 TIP3     27464    TIP3     H2       HT       0.417000       1.00800           0
     92309 TIP3     27465    TIP3     OH2      OT      -0.834000       15.9994           0
     92310 TIP3     27465    TIP3     H1       HT       0.417000       1.00800           0
     92311 TIP3     27465    TIP3     H2       HT       0.417000       1.00800           0
     92312 TIP3     27466    TIP3     OH2      OT      -0.834000       15.9994           0
     92313 TIP3     27466    TIP3     H1       HT       0.417000       1.00800           0
     92314 TIP3     27466    TIP3     H2       HT       0.417000       1.00800           0
     92315 TIP3     27467    TIP3     OH2      OT      -0.834000       15.9994           0
     92316 TIP3     27467    TIP3     H1       HT       0.417000       1.00800           0
     92317 TIP3     27467    TIP3     H2       HT       0.417000       1.00800           0
     92318 TIP3     27468    TIP3     OH2      OT      -0.834000       15.9994           0
     92319 TIP3     27468    TIP3     H1       HT       0.417000       1.00800           0
     92320 TIP3     27468    TIP3     H2       HT       0.417000       1.00800           0
     92321 TIP3     27469    TIP3     OH2      OT      -0.834000       15.9994           0
     92322 TIP3     27469    TIP3     H1       HT       0.417000       1.00800           0
     92323 TIP3     27469    TIP3     H2       HT       0.417000       1.00800           0
     92324 TIP3     27470    TIP3     OH2      OT      -0.834000       15.9994           0
     92325 TIP3     27470    TIP3     H1       HT       0.417000       1.00800           0
     92326 TIP3     27470    TIP3     H2       HT       0.417000       1.00800           0
     92327 TIP3     27471    TIP3     OH2      OT      -0.834000       15.9994           0
     92328 TIP3     27471    TIP3     H1       HT       0.417000       1.00800           0
     92329 TIP3     27471    TIP3     H2       HT       0.417000       1.00800           0
     92330 TIP3     27472    TIP3     OH2      OT      -0.834000       15.9994           0
     92331 TIP3     27472    TIP3     H1       HT       0.417000       1.00800           0
     92332 TIP3     27472    TIP3     H2       HT       0.417000       1.00800           0
     92333 TIP3     27473    TIP3     OH2      OT      -0.834000       15.9994           0
     92334 TIP3     27473    TIP3     H1       HT       0.417000       1.00800           0
     92335 TIP3     27473    TIP3     H2       HT       0.417000       1.00800           0
     92336 TIP3     27474    TIP3     OH2      OT      -0.834000       15.9994           0
     92337 TIP3     27474    TIP3     H1       HT       0.417000       1.00800           0
     92338 TIP3     27474    TIP3     H2       HT       0.417000       1.00800           0
     92339 TIP3     27475    TIP3     OH2      OT      -0.834000       15.9994           0
     92340 TIP3     27475    TIP3     H1       HT       0.417000       1.00800           0
     92341 TIP3     27475    TIP3     H2       HT       0.417000       1.00800           0
     92342 TIP3     27476    TIP3     OH2      OT      -0.834000       15.9994           0
     92343 TIP3     27476    TIP3     H1       HT       0.417000       1.00800           0
     92344 TIP3     27476    TIP3     H2       HT       0.417000       1.00800           0
     92345 TIP3     27477    TIP3     OH2      OT      -0.834000       15.9994           0
     92346 TIP3     27477    TIP3     H1       HT       0.417000       1.00800           0
     92347 TIP3     27477    TIP3     H2       HT       0.417000       1.00800           0
     92348 TIP3     27478    TIP3     OH2      OT      -0.834000       15.9994           0
     92349 TIP3     27478    TIP3     H1       HT       0.417000       1.00800           0
     92350 TIP3     27478    TIP3     H2       HT       0.417000       1.00800           0
     92351 TIP3     27479    TIP3     OH2      OT      -0.834000       15.9994           0
     92352 TIP3     27479    TIP3     H1       HT       0.417000       1.00800           0
     92353 TIP3     27479    TIP3     H2       HT       0.417000       1.00800           0
     92354 TIP3     27480    TIP3     OH2      OT      -0.834000       15.9994           0
     92355 TIP3     27480    TIP3     H1       HT       0.417000       1.00800           0
     92356 TIP3     27480    TIP3     H2       HT       0.417000       1.00800           0
     92357 TIP3     27481    TIP3     OH2      OT      -0.834000       15.9994           0
     92358 TIP3     27481    TIP3     H1       HT       0.417000       1.00800           0
     92359 TIP3     27481    TIP3     H2       HT       0.417000       1.00800           0
     92360 TIP3     27482    TIP3     OH2      OT      -0.834000       15.9994           0
     92361 TIP3     27482    TIP3     H1       HT       0.417000       1.00800           0
     92362 TIP3     27482    TIP3     H2       HT       0.417000       1.00800           0
     92363 TIP3     27483    TIP3     OH2      OT      -0.834000       15.9994           0
     92364 TIP3     27483    TIP3     H1       HT       0.417000       1.00800           0
     92365 TIP3     27483    TIP3     H2       HT       0.417000       1.00800           0
     92366 TIP3     27484    TIP3     OH2      OT      -0.834000       15.9994           0
     92367 TIP3     27484    TIP3     H1       HT       0.417000       1.00800           0
     92368 TIP3     27484    TIP3     H2       HT       0.417000       1.00800           0
     92369 TIP3     27485    TIP3     OH2      OT      -0.834000       15.9994           0
     92370 TIP3     27485    TIP3     H1       HT       0.417000       1.00800           0
     92371 TIP3     27485    TIP3     H2       HT       0.417000       1.00800           0
     92372 TIP3     27486    TIP3     OH2      OT      -0.834000       15.9994           0
     92373 TIP3     27486    TIP3     H1       HT       0.417000       1.00800           0
     92374 TIP3     27486    TIP3     H2       HT       0.417000       1.00800           0
     92375 TIP3     27487    TIP3     OH2      OT      -0.834000       15.9994           0
     92376 TIP3     27487    TIP3     H1       HT       0.417000       1.00800           0
     92377 TIP3     27487    TIP3     H2       HT       0.417000       1.00800           0
     92378 TIP3     27488    TIP3     OH2      OT      -0.834000       15.9994           0
     92379 TIP3     27488    TIP3     H1       HT       0.417000       1.00800           0
     92380 TIP3     27488    TIP3     H2       HT       0.417000       1.00800           0
     92381 TIP3     27489    TIP3     OH2      OT      -0.834000       15.9994           0
     92382 TIP3     27489    TIP3     H1       HT       0.417000       1.00800           0
     92383 TIP3     27489    TIP3     H2       HT       0.417000       1.00800           0
     92384 TIP3     27490    TIP3     OH2      OT      -0.834000       15.9994           0
     92385 TIP3     27490    TIP3     H1       HT       0.417000       1.00800           0
     92386 TIP3     27490    TIP3     H2       HT       0.417000       1.00800           0
     92387 TIP3     27491    TIP3     OH2      OT      -0.834000       15.9994           0
     92388 TIP3     27491    TIP3     H1       HT       0.417000       1.00800           0
     92389 TIP3     27491    TIP3     H2       HT       0.417000       1.00800           0
     92390 TIP3     27492    TIP3     OH2      OT      -0.834000       15.9994           0
     92391 TIP3     27492    TIP3     H1       HT       0.417000       1.00800           0
     92392 TIP3     27492    TIP3     H2       HT       0.417000       1.00800           0
     92393 TIP3     27493    TIP3     OH2      OT      -0.834000       15.9994           0
     92394 TIP3     27493    TIP3     H1       HT       0.417000       1.00800           0
     92395 TIP3     27493    TIP3     H2       HT       0.417000       1.00800           0
     92396 TIP3     27494    TIP3     OH2      OT      -0.834000       15.9994           0
     92397 TIP3     27494    TIP3     H1       HT       0.417000       1.00800           0
     92398 TIP3     27494    TIP3     H2       HT       0.417000       1.00800           0
     92399 TIP3     27495    TIP3     OH2      OT      -0.834000       15.9994           0
     92400 TIP3     27495    TIP3     H1       HT       0.417000       1.00800           0
     92401 TIP3     27495    TIP3     H2       HT       0.417000       1.00800           0
     92402 TIP3     27496    TIP3     OH2      OT      -0.834000       15.9994           0
     92403 TIP3     27496    TIP3     H1       HT       0.417000       1.00800           0
     92404 TIP3     27496    TIP3     H2       HT       0.417000       1.00800           0
     92405 TIP3     27497    TIP3     OH2      OT      -0.834000       15.9994           0
     92406 TIP3     27497    TIP3     H1       HT       0.417000       1.00800           0
     92407 TIP3     27497    TIP3     H2       HT       0.417000       1.00800           0
     92408 TIP3     27498    TIP3     OH2      OT      -0.834000       15.9994           0
     92409 TIP3     27498    TIP3     H1       HT       0.417000       1.00800           0
     92410 TIP3     27498    TIP3     H2       HT       0.417000       1.00800           0
     92411 TIP3     27499    TIP3     OH2      OT      -0.834000       15.9994           0
     92412 TIP3     27499    TIP3     H1       HT       0.417000       1.00800           0
     92413 TIP3     27499    TIP3     H2       HT       0.417000       1.00800           0
     92414 TIP3     27500    TIP3     OH2      OT      -0.834000       15.9994           0
     92415 TIP3     27500    TIP3     H1       HT       0.417000       1.00800           0
     92416 TIP3     27500    TIP3     H2       HT       0.417000       1.00800           0
     92417 TIP3     27501    TIP3     OH2      OT      -0.834000       15.9994           0
     92418 TIP3     27501    TIP3     H1       HT       0.417000       1.00800           0
     92419 TIP3     27501    TIP3     H2       HT       0.417000       1.00800           0
     92420 TIP3     27502    TIP3     OH2      OT      -0.834000       15.9994           0
     92421 TIP3     27502    TIP3     H1       HT       0.417000       1.00800           0
     92422 TIP3     27502    TIP3     H2       HT       0.417000       1.00800           0
     92423 TIP3     27503    TIP3     OH2      OT      -0.834000       15.9994           0
     92424 TIP3     27503    TIP3     H1       HT       0.417000       1.00800           0
     92425 TIP3     27503    TIP3     H2       HT       0.417000       1.00800           0
     92426 TIP3     27504    TIP3     OH2      OT      -0.834000       15.9994           0
     92427 TIP3     27504    TIP3     H1       HT       0.417000       1.00800           0
     92428 TIP3     27504    TIP3     H2       HT       0.417000       1.00800           0
     92429 TIP3     27505    TIP3     OH2      OT      -0.834000       15.9994           0
     92430 TIP3     27505    TIP3     H1       HT       0.417000       1.00800           0
     92431 TIP3     27505    TIP3     H2       HT       0.417000       1.00800           0
     92432 TIP3     27506    TIP3     OH2      OT      -0.834000       15.9994           0
     92433 TIP3     27506    TIP3     H1       HT       0.417000       1.00800           0
     92434 TIP3     27506    TIP3     H2       HT       0.417000       1.00800           0
     92435 TIP3     27507    TIP3     OH2      OT      -0.834000       15.9994           0
     92436 TIP3     27507    TIP3     H1       HT       0.417000       1.00800           0
     92437 TIP3     27507    TIP3     H2       HT       0.417000       1.00800           0
     92438 TIP3     27508    TIP3     OH2      OT      -0.834000       15.9994           0
     92439 TIP3     27508    TIP3     H1       HT       0.417000       1.00800           0
     92440 TIP3     27508    TIP3     H2       HT       0.417000       1.00800           0
     92441 TIP3     27509    TIP3     OH2      OT      -0.834000       15.9994           0
     92442 TIP3     27509    TIP3     H1       HT       0.417000       1.00800           0
     92443 TIP3     27509    TIP3     H2       HT       0.417000       1.00800           0
     92444 TIP3     27510    TIP3     OH2      OT      -0.834000       15.9994           0
     92445 TIP3     27510    TIP3     H1       HT       0.417000       1.00800           0
     92446 TIP3     27510    TIP3     H2       HT       0.417000       1.00800           0
     92447 TIP3     27511    TIP3     OH2      OT      -0.834000       15.9994           0
     92448 TIP3     27511    TIP3     H1       HT       0.417000       1.00800           0
     92449 TIP3     27511    TIP3     H2       HT       0.417000       1.00800           0
     92450 TIP3     27512    TIP3     OH2      OT      -0.834000       15.9994           0
     92451 TIP3     27512    TIP3     H1       HT       0.417000       1.00800           0
     92452 TIP3     27512    TIP3     H2       HT       0.417000       1.00800           0
     92453 TIP3     27513    TIP3     OH2      OT      -0.834000       15.9994           0
     92454 TIP3     27513    TIP3     H1       HT       0.417000       1.00800           0
     92455 TIP3     27513    TIP3     H2       HT       0.417000       1.00800           0
     92456 TIP3     27514    TIP3     OH2      OT      -0.834000       15.9994           0
     92457 TIP3     27514    TIP3     H1       HT       0.417000       1.00800           0
     92458 TIP3     27514    TIP3     H2       HT       0.417000       1.00800           0
     92459 TIP3     27515    TIP3     OH2      OT      -0.834000       15.9994           0
     92460 TIP3     27515    TIP3     H1       HT       0.417000       1.00800           0
     92461 TIP3     27515    TIP3     H2       HT       0.417000       1.00800           0
     92462 TIP3     27516    TIP3     OH2      OT      -0.834000       15.9994           0
     92463 TIP3     27516    TIP3     H1       HT       0.417000       1.00800           0
     92464 TIP3     27516    TIP3     H2       HT       0.417000       1.00800           0
     92465 TIP3     27517    TIP3     OH2      OT      -0.834000       15.9994           0
     92466 TIP3     27517    TIP3     H1       HT       0.417000       1.00800           0
     92467 TIP3     27517    TIP3     H2       HT       0.417000       1.00800           0
     92468 TIP3     27518    TIP3     OH2      OT      -0.834000       15.9994           0
     92469 TIP3     27518    TIP3     H1       HT       0.417000       1.00800           0
     92470 TIP3     27518    TIP3     H2       HT       0.417000       1.00800           0
     92471 TIP3     27519    TIP3     OH2      OT      -0.834000       15.9994           0
     92472 TIP3     27519    TIP3     H1       HT       0.417000       1.00800           0
     92473 TIP3     27519    TIP3     H2       HT       0.417000       1.00800           0
     92474 TIP3     27520    TIP3     OH2      OT      -0.834000       15.9994           0
     92475 TIP3     27520    TIP3     H1       HT       0.417000       1.00800           0
     92476 TIP3     27520    TIP3     H2       HT       0.417000       1.00800           0
     92477 TIP3     27521    TIP3     OH2      OT      -0.834000       15.9994           0
     92478 TIP3     27521    TIP3     H1       HT       0.417000       1.00800           0
     92479 TIP3     27521    TIP3     H2       HT       0.417000       1.00800           0
     92480 TIP3     27522    TIP3     OH2      OT      -0.834000       15.9994           0
     92481 TIP3     27522    TIP3     H1       HT       0.417000       1.00800           0
     92482 TIP3     27522    TIP3     H2       HT       0.417000       1.00800           0
     92483 TIP3     27523    TIP3     OH2      OT      -0.834000       15.9994           0
     92484 TIP3     27523    TIP3     H1       HT       0.417000       1.00800           0
     92485 TIP3     27523    TIP3     H2       HT       0.417000       1.00800           0
     92486 TIP3     27524    TIP3     OH2      OT      -0.834000       15.9994           0
     92487 TIP3     27524    TIP3     H1       HT       0.417000       1.00800           0
     92488 TIP3     27524    TIP3     H2       HT       0.417000       1.00800           0
     92489 TIP3     27525    TIP3     OH2      OT      -0.834000       15.9994           0
     92490 TIP3     27525    TIP3     H1       HT       0.417000       1.00800           0
     92491 TIP3     27525    TIP3     H2       HT       0.417000       1.00800           0
     92492 TIP3     27526    TIP3     OH2      OT      -0.834000       15.9994           0
     92493 TIP3     27526    TIP3     H1       HT       0.417000       1.00800           0
     92494 TIP3     27526    TIP3     H2       HT       0.417000       1.00800           0
     92495 TIP3     27527    TIP3     OH2      OT      -0.834000       15.9994           0
     92496 TIP3     27527    TIP3     H1       HT       0.417000       1.00800           0
     92497 TIP3     27527    TIP3     H2       HT       0.417000       1.00800           0
     92498 TIP3     27528    TIP3     OH2      OT      -0.834000       15.9994           0
     92499 TIP3     27528    TIP3     H1       HT       0.417000       1.00800           0
     92500 TIP3     27528    TIP3     H2       HT       0.417000       1.00800           0
     92501 TIP3     27529    TIP3     OH2      OT      -0.834000       15.9994           0
     92502 TIP3     27529    TIP3     H1       HT       0.417000       1.00800           0
     92503 TIP3     27529    TIP3     H2       HT       0.417000       1.00800           0
     92504 TIP3     27530    TIP3     OH2      OT      -0.834000       15.9994           0
     92505 TIP3     27530    TIP3     H1       HT       0.417000       1.00800           0
     92506 TIP3     27530    TIP3     H2       HT       0.417000       1.00800           0
     92507 TIP3     27531    TIP3     OH2      OT      -0.834000       15.9994           0
     92508 TIP3     27531    TIP3     H1       HT       0.417000       1.00800           0
     92509 TIP3     27531    TIP3     H2       HT       0.417000       1.00800           0
     92510 TIP3     27532    TIP3     OH2      OT      -0.834000       15.9994           0
     92511 TIP3     27532    TIP3     H1       HT       0.417000       1.00800           0
     92512 TIP3     27532    TIP3     H2       HT       0.417000       1.00800           0
     92513 TIP3     27533    TIP3     OH2      OT      -0.834000       15.9994           0
     92514 TIP3     27533    TIP3     H1       HT       0.417000       1.00800           0
     92515 TIP3     27533    TIP3     H2       HT       0.417000       1.00800           0
     92516 TIP3     27534    TIP3     OH2      OT      -0.834000       15.9994           0
     92517 TIP3     27534    TIP3     H1       HT       0.417000       1.00800           0
     92518 TIP3     27534    TIP3     H2       HT       0.417000       1.00800           0
     92519 TIP3     27535    TIP3     OH2      OT      -0.834000       15.9994           0
     92520 TIP3     27535    TIP3     H1       HT       0.417000       1.00800           0
     92521 TIP3     27535    TIP3     H2       HT       0.417000       1.00800           0
     92522 TIP3     27536    TIP3     OH2      OT      -0.834000       15.9994           0
     92523 TIP3     27536    TIP3     H1       HT       0.417000       1.00800           0
     92524 TIP3     27536    TIP3     H2       HT       0.417000       1.00800           0
     92525 TIP3     27537    TIP3     OH2      OT      -0.834000       15.9994           0
     92526 TIP3     27537    TIP3     H1       HT       0.417000       1.00800           0
     92527 TIP3     27537    TIP3     H2       HT       0.417000       1.00800           0
     92528 TIP3     27538    TIP3     OH2      OT      -0.834000       15.9994           0
     92529 TIP3     27538    TIP3     H1       HT       0.417000       1.00800           0
     92530 TIP3     27538    TIP3     H2       HT       0.417000       1.00800           0
     92531 TIP3     27539    TIP3     OH2      OT      -0.834000       15.9994           0
     92532 TIP3     27539    TIP3     H1       HT       0.417000       1.00800           0
     92533 TIP3     27539    TIP3     H2       HT       0.417000       1.00800           0
     92534 TIP3     27540    TIP3     OH2      OT      -0.834000       15.9994           0
     92535 TIP3     27540    TIP3     H1       HT       0.417000       1.00800           0
     92536 TIP3     27540    TIP3     H2       HT       0.417000       1.00800           0
     92537 TIP3     27541    TIP3     OH2      OT      -0.834000       15.9994           0
     92538 TIP3     27541    TIP3     H1       HT       0.417000       1.00800           0
     92539 TIP3     27541    TIP3     H2       HT       0.417000       1.00800           0
     92540 TIP3     27542    TIP3     OH2      OT      -0.834000       15.9994           0
     92541 TIP3     27542    TIP3     H1       HT       0.417000       1.00800           0
     92542 TIP3     27542    TIP3     H2       HT       0.417000       1.00800           0
     92543 TIP3     27543    TIP3     OH2      OT      -0.834000       15.9994           0
     92544 TIP3     27543    TIP3     H1       HT       0.417000       1.00800           0
     92545 TIP3     27543    TIP3     H2       HT       0.417000       1.00800           0
     92546 TIP3     27544    TIP3     OH2      OT      -0.834000       15.9994           0
     92547 TIP3     27544    TIP3     H1       HT       0.417000       1.00800           0
     92548 TIP3     27544    TIP3     H2       HT       0.417000       1.00800           0
     92549 TIP3     27545    TIP3     OH2      OT      -0.834000       15.9994           0
     92550 TIP3     27545    TIP3     H1       HT       0.417000       1.00800           0
     92551 TIP3     27545    TIP3     H2       HT       0.417000       1.00800           0
     92552 TIP3     27546    TIP3     OH2      OT      -0.834000       15.9994           0
     92553 TIP3     27546    TIP3     H1       HT       0.417000       1.00800           0
     92554 TIP3     27546    TIP3     H2       HT       0.417000       1.00800           0
     92555 TIP3     27547    TIP3     OH2      OT      -0.834000       15.9994           0
     92556 TIP3     27547    TIP3     H1       HT       0.417000       1.00800           0
     92557 TIP3     27547    TIP3     H2       HT       0.417000       1.00800           0
     92558 TIP3     27548    TIP3     OH2      OT      -0.834000       15.9994           0
     92559 TIP3     27548    TIP3     H1       HT       0.417000       1.00800           0
     92560 TIP3     27548    TIP3     H2       HT       0.417000       1.00800           0
     92561 TIP3     27549    TIP3     OH2      OT      -0.834000       15.9994           0
     92562 TIP3     27549    TIP3     H1       HT       0.417000       1.00800           0
     92563 TIP3     27549    TIP3     H2       HT       0.417000       1.00800           0
     92564 TIP3     27550    TIP3     OH2      OT      -0.834000       15.9994           0
     92565 TIP3     27550    TIP3     H1       HT       0.417000       1.00800           0
     92566 TIP3     27550    TIP3     H2       HT       0.417000       1.00800           0
     92567 TIP3     27551    TIP3     OH2      OT      -0.834000       15.9994           0
     92568 TIP3     27551    TIP3     H1       HT       0.417000       1.00800           0
     92569 TIP3     27551    TIP3     H2       HT       0.417000       1.00800           0
     92570 TIP3     27552    TIP3     OH2      OT      -0.834000       15.9994           0
     92571 TIP3     27552    TIP3     H1       HT       0.417000       1.00800           0
     92572 TIP3     27552    TIP3     H2       HT       0.417000       1.00800           0
     92573 TIP3     27553    TIP3     OH2      OT      -0.834000       15.9994           0
     92574 TIP3     27553    TIP3     H1       HT       0.417000       1.00800           0
     92575 TIP3     27553    TIP3     H2       HT       0.417000       1.00800           0
     92576 TIP3     27554    TIP3     OH2      OT      -0.834000       15.9994           0
     92577 TIP3     27554    TIP3     H1       HT       0.417000       1.00800           0
     92578 TIP3     27554    TIP3     H2       HT       0.417000       1.00800           0
     92579 TIP3     27555    TIP3     OH2      OT      -0.834000       15.9994           0
     92580 TIP3     27555    TIP3     H1       HT       0.417000       1.00800           0
     92581 TIP3     27555    TIP3     H2       HT       0.417000       1.00800           0
     92582 TIP3     27556    TIP3     OH2      OT      -0.834000       15.9994           0
     92583 TIP3     27556    TIP3     H1       HT       0.417000       1.00800           0
     92584 TIP3     27556    TIP3     H2       HT       0.417000       1.00800           0
     92585 TIP3     27557    TIP3     OH2      OT      -0.834000       15.9994           0
     92586 TIP3     27557    TIP3     H1       HT       0.417000       1.00800           0
     92587 TIP3     27557    TIP3     H2       HT       0.417000       1.00800           0
     92588 TIP3     27558    TIP3     OH2      OT      -0.834000       15.9994           0
     92589 TIP3     27558    TIP3     H1       HT       0.417000       1.00800           0
     92590 TIP3     27558    TIP3     H2       HT       0.417000       1.00800           0
     92591 TIP3     27559    TIP3     OH2      OT      -0.834000       15.9994           0
     92592 TIP3     27559    TIP3     H1       HT       0.417000       1.00800           0
     92593 TIP3     27559    TIP3     H2       HT       0.417000       1.00800           0
     92594 TIP3     27560    TIP3     OH2      OT      -0.834000       15.9994           0
     92595 TIP3     27560    TIP3     H1       HT       0.417000       1.00800           0
     92596 TIP3     27560    TIP3     H2       HT       0.417000       1.00800           0
     92597 TIP3     27561    TIP3     OH2      OT      -0.834000       15.9994           0
     92598 TIP3     27561    TIP3     H1       HT       0.417000       1.00800           0
     92599 TIP3     27561    TIP3     H2       HT       0.417000       1.00800           0
     92600 TIP3     27562    TIP3     OH2      OT      -0.834000       15.9994           0
     92601 TIP3     27562    TIP3     H1       HT       0.417000       1.00800           0
     92602 TIP3     27562    TIP3     H2       HT       0.417000       1.00800           0
     92603 TIP3     27563    TIP3     OH2      OT      -0.834000       15.9994           0
     92604 TIP3     27563    TIP3     H1       HT       0.417000       1.00800           0
     92605 TIP3     27563    TIP3     H2       HT       0.417000       1.00800           0
     92606 TIP3     27564    TIP3     OH2      OT      -0.834000       15.9994           0
     92607 TIP3     27564    TIP3     H1       HT       0.417000       1.00800           0
     92608 TIP3     27564    TIP3     H2       HT       0.417000       1.00800           0
     92609 TIP3     27565    TIP3     OH2      OT      -0.834000       15.9994           0
     92610 TIP3     27565    TIP3     H1       HT       0.417000       1.00800           0
     92611 TIP3     27565    TIP3     H2       HT       0.417000       1.00800           0
     92612 TIP3     27566    TIP3     OH2      OT      -0.834000       15.9994           0
     92613 TIP3     27566    TIP3     H1       HT       0.417000       1.00800           0
     92614 TIP3     27566    TIP3     H2       HT       0.417000       1.00800           0
     92615 TIP3     27567    TIP3     OH2      OT      -0.834000       15.9994           0
     92616 TIP3     27567    TIP3     H1       HT       0.417000       1.00800           0
     92617 TIP3     27567    TIP3     H2       HT       0.417000       1.00800           0
     92618 TIP3     27568    TIP3     OH2      OT      -0.834000       15.9994           0
     92619 TIP3     27568    TIP3     H1       HT       0.417000       1.00800           0
     92620 TIP3     27568    TIP3     H2       HT       0.417000       1.00800           0
     92621 TIP3     27569    TIP3     OH2      OT      -0.834000       15.9994           0
     92622 TIP3     27569    TIP3     H1       HT       0.417000       1.00800           0
     92623 TIP3     27569    TIP3     H2       HT       0.417000       1.00800           0
     92624 TIP3     27570    TIP3     OH2      OT      -0.834000       15.9994           0
     92625 TIP3     27570    TIP3     H1       HT       0.417000       1.00800           0
     92626 TIP3     27570    TIP3     H2       HT       0.417000       1.00800           0
     92627 TIP3     27571    TIP3     OH2      OT      -0.834000       15.9994           0
     92628 TIP3     27571    TIP3     H1       HT       0.417000       1.00800           0
     92629 TIP3     27571    TIP3     H2       HT       0.417000       1.00800           0
     92630 TIP3     27572    TIP3     OH2      OT      -0.834000       15.9994           0
     92631 TIP3     27572    TIP3     H1       HT       0.417000       1.00800           0
     92632 TIP3     27572    TIP3     H2       HT       0.417000       1.00800           0
     92633 TIP3     27573    TIP3     OH2      OT      -0.834000       15.9994           0
     92634 TIP3     27573    TIP3     H1       HT       0.417000       1.00800           0
     92635 TIP3     27573    TIP3     H2       HT       0.417000       1.00800           0
     92636 TIP3     27574    TIP3     OH2      OT      -0.834000       15.9994           0
     92637 TIP3     27574    TIP3     H1       HT       0.417000       1.00800           0
     92638 TIP3     27574    TIP3     H2       HT       0.417000       1.00800           0
     92639 TIP3     27575    TIP3     OH2      OT      -0.834000       15.9994           0
     92640 TIP3     27575    TIP3     H1       HT       0.417000       1.00800           0
     92641 TIP3     27575    TIP3     H2       HT       0.417000       1.00800           0
     92642 TIP3     27576    TIP3     OH2      OT      -0.834000       15.9994           0
     92643 TIP3     27576    TIP3     H1       HT       0.417000       1.00800           0
     92644 TIP3     27576    TIP3     H2       HT       0.417000       1.00800           0
     92645 TIP3     27577    TIP3     OH2      OT      -0.834000       15.9994           0
     92646 TIP3     27577    TIP3     H1       HT       0.417000       1.00800           0
     92647 TIP3     27577    TIP3     H2       HT       0.417000       1.00800           0
     92648 TIP3     27578    TIP3     OH2      OT      -0.834000       15.9994           0
     92649 TIP3     27578    TIP3     H1       HT       0.417000       1.00800           0
     92650 TIP3     27578    TIP3     H2       HT       0.417000       1.00800           0
     92651 TIP3     27579    TIP3     OH2      OT      -0.834000       15.9994           0
     92652 TIP3     27579    TIP3     H1       HT       0.417000       1.00800           0
     92653 TIP3     27579    TIP3     H2       HT       0.417000       1.00800           0
     92654 TIP3     27580    TIP3     OH2      OT      -0.834000       15.9994           0
     92655 TIP3     27580    TIP3     H1       HT       0.417000       1.00800           0
     92656 TIP3     27580    TIP3     H2       HT       0.417000       1.00800           0
     92657 TIP3     27581    TIP3     OH2      OT      -0.834000       15.9994           0
     92658 TIP3     27581    TIP3     H1       HT       0.417000       1.00800           0
     92659 TIP3     27581    TIP3     H2       HT       0.417000       1.00800           0
     92660 TIP3     27582    TIP3     OH2      OT      -0.834000       15.9994           0
     92661 TIP3     27582    TIP3     H1       HT       0.417000       1.00800           0
     92662 TIP3     27582    TIP3     H2       HT       0.417000       1.00800           0
     92663 TIP3     27583    TIP3     OH2      OT      -0.834000       15.9994           0
     92664 TIP3     27583    TIP3     H1       HT       0.417000       1.00800           0
     92665 TIP3     27583    TIP3     H2       HT       0.417000       1.00800           0
     92666 TIP3     27584    TIP3     OH2      OT      -0.834000       15.9994           0
     92667 TIP3     27584    TIP3     H1       HT       0.417000       1.00800           0
     92668 TIP3     27584    TIP3     H2       HT       0.417000       1.00800           0
     92669 TIP3     27585    TIP3     OH2      OT      -0.834000       15.9994           0
     92670 TIP3     27585    TIP3     H1       HT       0.417000       1.00800           0
     92671 TIP3     27585    TIP3     H2       HT       0.417000       1.00800           0
     92672 TIP3     27586    TIP3     OH2      OT      -0.834000       15.9994           0
     92673 TIP3     27586    TIP3     H1       HT       0.417000       1.00800           0
     92674 TIP3     27586    TIP3     H2       HT       0.417000       1.00800           0
     92675 TIP3     27587    TIP3     OH2      OT      -0.834000       15.9994           0
     92676 TIP3     27587    TIP3     H1       HT       0.417000       1.00800           0
     92677 TIP3     27587    TIP3     H2       HT       0.417000       1.00800           0
     92678 TIP3     27588    TIP3     OH2      OT      -0.834000       15.9994           0
     92679 TIP3     27588    TIP3     H1       HT       0.417000       1.00800           0
     92680 TIP3     27588    TIP3     H2       HT       0.417000       1.00800           0
     92681 TIP3     27589    TIP3     OH2      OT      -0.834000       15.9994           0
     92682 TIP3     27589    TIP3     H1       HT       0.417000       1.00800           0
     92683 TIP3     27589    TIP3     H2       HT       0.417000       1.00800           0
     92684 TIP3     27590    TIP3     OH2      OT      -0.834000       15.9994           0
     92685 TIP3     27590    TIP3     H1       HT       0.417000       1.00800           0
     92686 TIP3     27590    TIP3     H2       HT       0.417000       1.00800           0
     92687 TIP3     27591    TIP3     OH2      OT      -0.834000       15.9994           0
     92688 TIP3     27591    TIP3     H1       HT       0.417000       1.00800           0
     92689 TIP3     27591    TIP3     H2       HT       0.417000       1.00800           0
     92690 TIP3     27592    TIP3     OH2      OT      -0.834000       15.9994           0
     92691 TIP3     27592    TIP3     H1       HT       0.417000       1.00800           0
     92692 TIP3     27592    TIP3     H2       HT       0.417000       1.00800           0
     92693 TIP3     27593    TIP3     OH2      OT      -0.834000       15.9994           0
     92694 TIP3     27593    TIP3     H1       HT       0.417000       1.00800           0
     92695 TIP3     27593    TIP3     H2       HT       0.417000       1.00800           0
     92696 TIP3     27594    TIP3     OH2      OT      -0.834000       15.9994           0
     92697 TIP3     27594    TIP3     H1       HT       0.417000       1.00800           0
     92698 TIP3     27594    TIP3     H2       HT       0.417000       1.00800           0
     92699 TIP3     27595    TIP3     OH2      OT      -0.834000       15.9994           0
     92700 TIP3     27595    TIP3     H1       HT       0.417000       1.00800           0
     92701 TIP3     27595    TIP3     H2       HT       0.417000       1.00800           0
     92702 TIP3     27596    TIP3     OH2      OT      -0.834000       15.9994           0
     92703 TIP3     27596    TIP3     H1       HT       0.417000       1.00800           0
     92704 TIP3     27596    TIP3     H2       HT       0.417000       1.00800           0
     92705 TIP3     27597    TIP3     OH2      OT      -0.834000       15.9994           0
     92706 TIP3     27597    TIP3     H1       HT       0.417000       1.00800           0
     92707 TIP3     27597    TIP3     H2       HT       0.417000       1.00800           0
     92708 TIP3     27598    TIP3     OH2      OT      -0.834000       15.9994           0
     92709 TIP3     27598    TIP3     H1       HT       0.417000       1.00800           0
     92710 TIP3     27598    TIP3     H2       HT       0.417000       1.00800           0
     92711 TIP3     27599    TIP3     OH2      OT      -0.834000       15.9994           0
     92712 TIP3     27599    TIP3     H1       HT       0.417000       1.00800           0
     92713 TIP3     27599    TIP3     H2       HT       0.417000       1.00800           0
     92714 TIP3     27600    TIP3     OH2      OT      -0.834000       15.9994           0
     92715 TIP3     27600    TIP3     H1       HT       0.417000       1.00800           0
     92716 TIP3     27600    TIP3     H2       HT       0.417000       1.00800           0
     92717 TIP3     27601    TIP3     OH2      OT      -0.834000       15.9994           0
     92718 TIP3     27601    TIP3     H1       HT       0.417000       1.00800           0
     92719 TIP3     27601    TIP3     H2       HT       0.417000       1.00800           0
     92720 TIP3     27602    TIP3     OH2      OT      -0.834000       15.9994           0
     92721 TIP3     27602    TIP3     H1       HT       0.417000       1.00800           0
     92722 TIP3     27602    TIP3     H2       HT       0.417000       1.00800           0
     92723 TIP3     27603    TIP3     OH2      OT      -0.834000       15.9994           0
     92724 TIP3     27603    TIP3     H1       HT       0.417000       1.00800           0
     92725 TIP3     27603    TIP3     H2       HT       0.417000       1.00800           0
     92726 TIP3     27604    TIP3     OH2      OT      -0.834000       15.9994           0
     92727 TIP3     27604    TIP3     H1       HT       0.417000       1.00800           0
     92728 TIP3     27604    TIP3     H2       HT       0.417000       1.00800           0
     92729 TIP3     27605    TIP3     OH2      OT      -0.834000       15.9994           0
     92730 TIP3     27605    TIP3     H1       HT       0.417000       1.00800           0
     92731 TIP3     27605    TIP3     H2       HT       0.417000       1.00800           0
     92732 TIP3     27606    TIP3     OH2      OT      -0.834000       15.9994           0
     92733 TIP3     27606    TIP3     H1       HT       0.417000       1.00800           0
     92734 TIP3     27606    TIP3     H2       HT       0.417000       1.00800           0
     92735 TIP3     27607    TIP3     OH2      OT      -0.834000       15.9994           0
     92736 TIP3     27607    TIP3     H1       HT       0.417000       1.00800           0
     92737 TIP3     27607    TIP3     H2       HT       0.417000       1.00800           0
     92738 TIP3     27608    TIP3     OH2      OT      -0.834000       15.9994           0
     92739 TIP3     27608    TIP3     H1       HT       0.417000       1.00800           0
     92740 TIP3     27608    TIP3     H2       HT       0.417000       1.00800           0
     92741 TIP3     27609    TIP3     OH2      OT      -0.834000       15.9994           0
     92742 TIP3     27609    TIP3     H1       HT       0.417000       1.00800           0
     92743 TIP3     27609    TIP3     H2       HT       0.417000       1.00800           0
     92744 TIP3     27610    TIP3     OH2      OT      -0.834000       15.9994           0
     92745 TIP3     27610    TIP3     H1       HT       0.417000       1.00800           0
     92746 TIP3     27610    TIP3     H2       HT       0.417000       1.00800           0
     92747 TIP3     27611    TIP3     OH2      OT      -0.834000       15.9994           0
     92748 TIP3     27611    TIP3     H1       HT       0.417000       1.00800           0
     92749 TIP3     27611    TIP3     H2       HT       0.417000       1.00800           0
     92750 TIP3     27612    TIP3     OH2      OT      -0.834000       15.9994           0
     92751 TIP3     27612    TIP3     H1       HT       0.417000       1.00800           0
     92752 TIP3     27612    TIP3     H2       HT       0.417000       1.00800           0
     92753 TIP3     27613    TIP3     OH2      OT      -0.834000       15.9994           0
     92754 TIP3     27613    TIP3     H1       HT       0.417000       1.00800           0
     92755 TIP3     27613    TIP3     H2       HT       0.417000       1.00800           0
     92756 TIP3     27614    TIP3     OH2      OT      -0.834000       15.9994           0
     92757 TIP3     27614    TIP3     H1       HT       0.417000       1.00800           0
     92758 TIP3     27614    TIP3     H2       HT       0.417000       1.00800           0
     92759 TIP3     27615    TIP3     OH2      OT      -0.834000       15.9994           0
     92760 TIP3     27615    TIP3     H1       HT       0.417000       1.00800           0
     92761 TIP3     27615    TIP3     H2       HT       0.417000       1.00800           0
     92762 TIP3     27616    TIP3     OH2      OT      -0.834000       15.9994           0
     92763 TIP3     27616    TIP3     H1       HT       0.417000       1.00800           0
     92764 TIP3     27616    TIP3     H2       HT       0.417000       1.00800           0
     92765 TIP3     27617    TIP3     OH2      OT      -0.834000       15.9994           0
     92766 TIP3     27617    TIP3     H1       HT       0.417000       1.00800           0
     92767 TIP3     27617    TIP3     H2       HT       0.417000       1.00800           0
     92768 TIP3     27618    TIP3     OH2      OT      -0.834000       15.9994           0
     92769 TIP3     27618    TIP3     H1       HT       0.417000       1.00800           0
     92770 TIP3     27618    TIP3     H2       HT       0.417000       1.00800           0
     92771 TIP3     27619    TIP3     OH2      OT      -0.834000       15.9994           0
     92772 TIP3     27619    TIP3     H1       HT       0.417000       1.00800           0
     92773 TIP3     27619    TIP3     H2       HT       0.417000       1.00800           0
     92774 TIP3     27620    TIP3     OH2      OT      -0.834000       15.9994           0
     92775 TIP3     27620    TIP3     H1       HT       0.417000       1.00800           0
     92776 TIP3     27620    TIP3     H2       HT       0.417000       1.00800           0
     92777 TIP3     27621    TIP3     OH2      OT      -0.834000       15.9994           0
     92778 TIP3     27621    TIP3     H1       HT       0.417000       1.00800           0
     92779 TIP3     27621    TIP3     H2       HT       0.417000       1.00800           0
     92780 TIP3     27622    TIP3     OH2      OT      -0.834000       15.9994           0
     92781 TIP3     27622    TIP3     H1       HT       0.417000       1.00800           0
     92782 TIP3     27622    TIP3     H2       HT       0.417000       1.00800           0
     92783 TIP3     27623    TIP3     OH2      OT      -0.834000       15.9994           0
     92784 TIP3     27623    TIP3     H1       HT       0.417000       1.00800           0
     92785 TIP3     27623    TIP3     H2       HT       0.417000       1.00800           0
     92786 TIP3     27624    TIP3     OH2      OT      -0.834000       15.9994           0
     92787 TIP3     27624    TIP3     H1       HT       0.417000       1.00800           0
     92788 TIP3     27624    TIP3     H2       HT       0.417000       1.00800           0
     92789 TIP3     27625    TIP3     OH2      OT      -0.834000       15.9994           0
     92790 TIP3     27625    TIP3     H1       HT       0.417000       1.00800           0
     92791 TIP3     27625    TIP3     H2       HT       0.417000       1.00800           0
     92792 TIP3     27626    TIP3     OH2      OT      -0.834000       15.9994           0
     92793 TIP3     27626    TIP3     H1       HT       0.417000       1.00800           0
     92794 TIP3     27626    TIP3     H2       HT       0.417000       1.00800           0
     92795 TIP3     27627    TIP3     OH2      OT      -0.834000       15.9994           0
     92796 TIP3     27627    TIP3     H1       HT       0.417000       1.00800           0
     92797 TIP3     27627    TIP3     H2       HT       0.417000       1.00800           0
     92798 TIP3     27628    TIP3     OH2      OT      -0.834000       15.9994           0
     92799 TIP3     27628    TIP3     H1       HT       0.417000       1.00800           0
     92800 TIP3     27628    TIP3     H2       HT       0.417000       1.00800           0
     92801 TIP3     27629    TIP3     OH2      OT      -0.834000       15.9994           0
     92802 TIP3     27629    TIP3     H1       HT       0.417000       1.00800           0
     92803 TIP3     27629    TIP3     H2       HT       0.417000       1.00800           0
     92804 TIP3     27630    TIP3     OH2      OT      -0.834000       15.9994           0
     92805 TIP3     27630    TIP3     H1       HT       0.417000       1.00800           0
     92806 TIP3     27630    TIP3     H2       HT       0.417000       1.00800           0
     92807 TIP3     27631    TIP3     OH2      OT      -0.834000       15.9994           0
     92808 TIP3     27631    TIP3     H1       HT       0.417000       1.00800           0
     92809 TIP3     27631    TIP3     H2       HT       0.417000       1.00800           0
     92810 TIP3     27632    TIP3     OH2      OT      -0.834000       15.9994           0
     92811 TIP3     27632    TIP3     H1       HT       0.417000       1.00800           0
     92812 TIP3     27632    TIP3     H2       HT       0.417000       1.00800           0
     92813 TIP3     27633    TIP3     OH2      OT      -0.834000       15.9994           0
     92814 TIP3     27633    TIP3     H1       HT       0.417000       1.00800           0
     92815 TIP3     27633    TIP3     H2       HT       0.417000       1.00800           0
     92816 TIP3     27634    TIP3     OH2      OT      -0.834000       15.9994           0
     92817 TIP3     27634    TIP3     H1       HT       0.417000       1.00800           0
     92818 TIP3     27634    TIP3     H2       HT       0.417000       1.00800           0
     92819 TIP3     27635    TIP3     OH2      OT      -0.834000       15.9994           0
     92820 TIP3     27635    TIP3     H1       HT       0.417000       1.00800           0
     92821 TIP3     27635    TIP3     H2       HT       0.417000       1.00800           0
     92822 TIP3     27636    TIP3     OH2      OT      -0.834000       15.9994           0
     92823 TIP3     27636    TIP3     H1       HT       0.417000       1.00800           0
     92824 TIP3     27636    TIP3     H2       HT       0.417000       1.00800           0
     92825 TIP3     27637    TIP3     OH2      OT      -0.834000       15.9994           0
     92826 TIP3     27637    TIP3     H1       HT       0.417000       1.00800           0
     92827 TIP3     27637    TIP3     H2       HT       0.417000       1.00800           0
     92828 TIP3     27638    TIP3     OH2      OT      -0.834000       15.9994           0
     92829 TIP3     27638    TIP3     H1       HT       0.417000       1.00800           0
     92830 TIP3     27638    TIP3     H2       HT       0.417000       1.00800           0
     92831 TIP3     27639    TIP3     OH2      OT      -0.834000       15.9994           0
     92832 TIP3     27639    TIP3     H1       HT       0.417000       1.00800           0
     92833 TIP3     27639    TIP3     H2       HT       0.417000       1.00800           0
     92834 TIP3     27640    TIP3     OH2      OT      -0.834000       15.9994           0
     92835 TIP3     27640    TIP3     H1       HT       0.417000       1.00800           0
     92836 TIP3     27640    TIP3     H2       HT       0.417000       1.00800           0
     92837 TIP3     27641    TIP3     OH2      OT      -0.834000       15.9994           0
     92838 TIP3     27641    TIP3     H1       HT       0.417000       1.00800           0
     92839 TIP3     27641    TIP3     H2       HT       0.417000       1.00800           0
     92840 TIP3     27642    TIP3     OH2      OT      -0.834000       15.9994           0
     92841 TIP3     27642    TIP3     H1       HT       0.417000       1.00800           0
     92842 TIP3     27642    TIP3     H2       HT       0.417000       1.00800           0
     92843 TIP3     27643    TIP3     OH2      OT      -0.834000       15.9994           0
     92844 TIP3     27643    TIP3     H1       HT       0.417000       1.00800           0
     92845 TIP3     27643    TIP3     H2       HT       0.417000       1.00800           0
     92846 TIP3     27644    TIP3     OH2      OT      -0.834000       15.9994           0
     92847 TIP3     27644    TIP3     H1       HT       0.417000       1.00800           0
     92848 TIP3     27644    TIP3     H2       HT       0.417000       1.00800           0
     92849 TIP3     27645    TIP3     OH2      OT      -0.834000       15.9994           0
     92850 TIP3     27645    TIP3     H1       HT       0.417000       1.00800           0
     92851 TIP3     27645    TIP3     H2       HT       0.417000       1.00800           0
     92852 TIP3     27646    TIP3     OH2      OT      -0.834000       15.9994           0
     92853 TIP3     27646    TIP3     H1       HT       0.417000       1.00800           0
     92854 TIP3     27646    TIP3     H2       HT       0.417000       1.00800           0
     92855 TIP3     27647    TIP3     OH2      OT      -0.834000       15.9994           0
     92856 TIP3     27647    TIP3     H1       HT       0.417000       1.00800           0
     92857 TIP3     27647    TIP3     H2       HT       0.417000       1.00800           0
     92858 TIP3     27648    TIP3     OH2      OT      -0.834000       15.9994           0
     92859 TIP3     27648    TIP3     H1       HT       0.417000       1.00800           0
     92860 TIP3     27648    TIP3     H2       HT       0.417000       1.00800           0
     92861 TIP3     27649    TIP3     OH2      OT      -0.834000       15.9994           0
     92862 TIP3     27649    TIP3     H1       HT       0.417000       1.00800           0
     92863 TIP3     27649    TIP3     H2       HT       0.417000       1.00800           0
     92864 TIP3     27650    TIP3     OH2      OT      -0.834000       15.9994           0
     92865 TIP3     27650    TIP3     H1       HT       0.417000       1.00800           0
     92866 TIP3     27650    TIP3     H2       HT       0.417000       1.00800           0
     92867 TIP3     27651    TIP3     OH2      OT      -0.834000       15.9994           0
     92868 TIP3     27651    TIP3     H1       HT       0.417000       1.00800           0
     92869 TIP3     27651    TIP3     H2       HT       0.417000       1.00800           0
     92870 TIP3     27652    TIP3     OH2      OT      -0.834000       15.9994           0
     92871 TIP3     27652    TIP3     H1       HT       0.417000       1.00800           0
     92872 TIP3     27652    TIP3     H2       HT       0.417000       1.00800           0
     92873 TIP3     27653    TIP3     OH2      OT      -0.834000       15.9994           0
     92874 TIP3     27653    TIP3     H1       HT       0.417000       1.00800           0
     92875 TIP3     27653    TIP3     H2       HT       0.417000       1.00800           0
     92876 TIP3     27654    TIP3     OH2      OT      -0.834000       15.9994           0
     92877 TIP3     27654    TIP3     H1       HT       0.417000       1.00800           0
     92878 TIP3     27654    TIP3     H2       HT       0.417000       1.00800           0
     92879 TIP3     27655    TIP3     OH2      OT      -0.834000       15.9994           0
     92880 TIP3     27655    TIP3     H1       HT       0.417000       1.00800           0
     92881 TIP3     27655    TIP3     H2       HT       0.417000       1.00800           0
     92882 TIP3     27656    TIP3     OH2      OT      -0.834000       15.9994           0
     92883 TIP3     27656    TIP3     H1       HT       0.417000       1.00800           0
     92884 TIP3     27656    TIP3     H2       HT       0.417000       1.00800           0
     92885 TIP3     27657    TIP3     OH2      OT      -0.834000       15.9994           0
     92886 TIP3     27657    TIP3     H1       HT       0.417000       1.00800           0
     92887 TIP3     27657    TIP3     H2       HT       0.417000       1.00800           0
     92888 TIP3     27658    TIP3     OH2      OT      -0.834000       15.9994           0
     92889 TIP3     27658    TIP3     H1       HT       0.417000       1.00800           0
     92890 TIP3     27658    TIP3     H2       HT       0.417000       1.00800           0
     92891 TIP3     27659    TIP3     OH2      OT      -0.834000       15.9994           0
     92892 TIP3     27659    TIP3     H1       HT       0.417000       1.00800           0
     92893 TIP3     27659    TIP3     H2       HT       0.417000       1.00800           0
     92894 TIP3     27660    TIP3     OH2      OT      -0.834000       15.9994           0
     92895 TIP3     27660    TIP3     H1       HT       0.417000       1.00800           0
     92896 TIP3     27660    TIP3     H2       HT       0.417000       1.00800           0
     92897 TIP3     27661    TIP3     OH2      OT      -0.834000       15.9994           0
     92898 TIP3     27661    TIP3     H1       HT       0.417000       1.00800           0
     92899 TIP3     27661    TIP3     H2       HT       0.417000       1.00800           0
     92900 TIP3     27662    TIP3     OH2      OT      -0.834000       15.9994           0
     92901 TIP3     27662    TIP3     H1       HT       0.417000       1.00800           0
     92902 TIP3     27662    TIP3     H2       HT       0.417000       1.00800           0
     92903 TIP3     27663    TIP3     OH2      OT      -0.834000       15.9994           0
     92904 TIP3     27663    TIP3     H1       HT       0.417000       1.00800           0
     92905 TIP3     27663    TIP3     H2       HT       0.417000       1.00800           0
     92906 TIP3     27664    TIP3     OH2      OT      -0.834000       15.9994           0
     92907 TIP3     27664    TIP3     H1       HT       0.417000       1.00800           0
     92908 TIP3     27664    TIP3     H2       HT       0.417000       1.00800           0
     92909 TIP3     27665    TIP3     OH2      OT      -0.834000       15.9994           0
     92910 TIP3     27665    TIP3     H1       HT       0.417000       1.00800           0
     92911 TIP3     27665    TIP3     H2       HT       0.417000       1.00800           0
     92912 TIP3     27666    TIP3     OH2      OT      -0.834000       15.9994           0
     92913 TIP3     27666    TIP3     H1       HT       0.417000       1.00800           0
     92914 TIP3     27666    TIP3     H2       HT       0.417000       1.00800           0
     92915 TIP3     27667    TIP3     OH2      OT      -0.834000       15.9994           0
     92916 TIP3     27667    TIP3     H1       HT       0.417000       1.00800           0
     92917 TIP3     27667    TIP3     H2       HT       0.417000       1.00800           0
     92918 TIP3     27668    TIP3     OH2      OT      -0.834000       15.9994           0
     92919 TIP3     27668    TIP3     H1       HT       0.417000       1.00800           0
     92920 TIP3     27668    TIP3     H2       HT       0.417000       1.00800           0
     92921 TIP3     27669    TIP3     OH2      OT      -0.834000       15.9994           0
     92922 TIP3     27669    TIP3     H1       HT       0.417000       1.00800           0
     92923 TIP3     27669    TIP3     H2       HT       0.417000       1.00800           0
     92924 TIP3     27670    TIP3     OH2      OT      -0.834000       15.9994           0
     92925 TIP3     27670    TIP3     H1       HT       0.417000       1.00800           0
     92926 TIP3     27670    TIP3     H2       HT       0.417000       1.00800           0
     92927 TIP3     27671    TIP3     OH2      OT      -0.834000       15.9994           0
     92928 TIP3     27671    TIP3     H1       HT       0.417000       1.00800           0
     92929 TIP3     27671    TIP3     H2       HT       0.417000       1.00800           0
     92930 TIP3     27672    TIP3     OH2      OT      -0.834000       15.9994           0
     92931 TIP3     27672    TIP3     H1       HT       0.417000       1.00800           0
     92932 TIP3     27672    TIP3     H2       HT       0.417000       1.00800           0
     92933 TIP3     27673    TIP3     OH2      OT      -0.834000       15.9994           0
     92934 TIP3     27673    TIP3     H1       HT       0.417000       1.00800           0
     92935 TIP3     27673    TIP3     H2       HT       0.417000       1.00800           0
     92936 TIP3     27674    TIP3     OH2      OT      -0.834000       15.9994           0
     92937 TIP3     27674    TIP3     H1       HT       0.417000       1.00800           0
     92938 TIP3     27674    TIP3     H2       HT       0.417000       1.00800           0
     92939 TIP3     27675    TIP3     OH2      OT      -0.834000       15.9994           0
     92940 TIP3     27675    TIP3     H1       HT       0.417000       1.00800           0
     92941 TIP3     27675    TIP3     H2       HT       0.417000       1.00800           0
     92942 TIP3     27676    TIP3     OH2      OT      -0.834000       15.9994           0
     92943 TIP3     27676    TIP3     H1       HT       0.417000       1.00800           0
     92944 TIP3     27676    TIP3     H2       HT       0.417000       1.00800           0
     92945 TIP3     27677    TIP3     OH2      OT      -0.834000       15.9994           0
     92946 TIP3     27677    TIP3     H1       HT       0.417000       1.00800           0
     92947 TIP3     27677    TIP3     H2       HT       0.417000       1.00800           0
     92948 TIP3     27678    TIP3     OH2      OT      -0.834000       15.9994           0
     92949 TIP3     27678    TIP3     H1       HT       0.417000       1.00800           0
     92950 TIP3     27678    TIP3     H2       HT       0.417000       1.00800           0
     92951 TIP3     27679    TIP3     OH2      OT      -0.834000       15.9994           0
     92952 TIP3     27679    TIP3     H1       HT       0.417000       1.00800           0
     92953 TIP3     27679    TIP3     H2       HT       0.417000       1.00800           0
     92954 TIP3     27680    TIP3     OH2      OT      -0.834000       15.9994           0
     92955 TIP3     27680    TIP3     H1       HT       0.417000       1.00800           0
     92956 TIP3     27680    TIP3     H2       HT       0.417000       1.00800           0
     92957 TIP3     27681    TIP3     OH2      OT      -0.834000       15.9994           0
     92958 TIP3     27681    TIP3     H1       HT       0.417000       1.00800           0
     92959 TIP3     27681    TIP3     H2       HT       0.417000       1.00800           0
     92960 TIP3     27682    TIP3     OH2      OT      -0.834000       15.9994           0
     92961 TIP3     27682    TIP3     H1       HT       0.417000       1.00800           0
     92962 TIP3     27682    TIP3     H2       HT       0.417000       1.00800           0
     92963 TIP3     27683    TIP3     OH2      OT      -0.834000       15.9994           0
     92964 TIP3     27683    TIP3     H1       HT       0.417000       1.00800           0
     92965 TIP3     27683    TIP3     H2       HT       0.417000       1.00800           0
     92966 TIP3     27684    TIP3     OH2      OT      -0.834000       15.9994           0
     92967 TIP3     27684    TIP3     H1       HT       0.417000       1.00800           0
     92968 TIP3     27684    TIP3     H2       HT       0.417000       1.00800           0
     92969 TIP3     27685    TIP3     OH2      OT      -0.834000       15.9994           0
     92970 TIP3     27685    TIP3     H1       HT       0.417000       1.00800           0
     92971 TIP3     27685    TIP3     H2       HT       0.417000       1.00800           0
     92972 TIP3     27686    TIP3     OH2      OT      -0.834000       15.9994           0
     92973 TIP3     27686    TIP3     H1       HT       0.417000       1.00800           0
     92974 TIP3     27686    TIP3     H2       HT       0.417000       1.00800           0
     92975 TIP3     27687    TIP3     OH2      OT      -0.834000       15.9994           0
     92976 TIP3     27687    TIP3     H1       HT       0.417000       1.00800           0
     92977 TIP3     27687    TIP3     H2       HT       0.417000       1.00800           0
     92978 TIP3     27688    TIP3     OH2      OT      -0.834000       15.9994           0
     92979 TIP3     27688    TIP3     H1       HT       0.417000       1.00800           0
     92980 TIP3     27688    TIP3     H2       HT       0.417000       1.00800           0
     92981 TIP3     27689    TIP3     OH2      OT      -0.834000       15.9994           0
     92982 TIP3     27689    TIP3     H1       HT       0.417000       1.00800           0
     92983 TIP3     27689    TIP3     H2       HT       0.417000       1.00800           0
     92984 TIP3     27690    TIP3     OH2      OT      -0.834000       15.9994           0
     92985 TIP3     27690    TIP3     H1       HT       0.417000       1.00800           0
     92986 TIP3     27690    TIP3     H2       HT       0.417000       1.00800           0
     92987 TIP3     27691    TIP3     OH2      OT      -0.834000       15.9994           0
     92988 TIP3     27691    TIP3     H1       HT       0.417000       1.00800           0
     92989 TIP3     27691    TIP3     H2       HT       0.417000       1.00800           0
     92990 TIP3     27692    TIP3     OH2      OT      -0.834000       15.9994           0
     92991 TIP3     27692    TIP3     H1       HT       0.417000       1.00800           0
     92992 TIP3     27692    TIP3     H2       HT       0.417000       1.00800           0
     92993 TIP3     27693    TIP3     OH2      OT      -0.834000       15.9994           0
     92994 TIP3     27693    TIP3     H1       HT       0.417000       1.00800           0
     92995 TIP3     27693    TIP3     H2       HT       0.417000       1.00800           0
     92996 TIP3     27694    TIP3     OH2      OT      -0.834000       15.9994           0
     92997 TIP3     27694    TIP3     H1       HT       0.417000       1.00800           0
     92998 TIP3     27694    TIP3     H2       HT       0.417000       1.00800           0
     92999 TIP3     27695    TIP3     OH2      OT      -0.834000       15.9994           0
     93000 TIP3     27695    TIP3     H1       HT       0.417000       1.00800           0
     93001 TIP3     27695    TIP3     H2       HT       0.417000       1.00800           0
     93002 TIP3     27696    TIP3     OH2      OT      -0.834000       15.9994           0
     93003 TIP3     27696    TIP3     H1       HT       0.417000       1.00800           0
     93004 TIP3     27696    TIP3     H2       HT       0.417000       1.00800           0
     93005 TIP3     27697    TIP3     OH2      OT      -0.834000       15.9994           0
     93006 TIP3     27697    TIP3     H1       HT       0.417000       1.00800           0
     93007 TIP3     27697    TIP3     H2       HT       0.417000       1.00800           0
     93008 TIP3     27698    TIP3     OH2      OT      -0.834000       15.9994           0
     93009 TIP3     27698    TIP3     H1       HT       0.417000       1.00800           0
     93010 TIP3     27698    TIP3     H2       HT       0.417000       1.00800           0
     93011 TIP3     27699    TIP3     OH2      OT      -0.834000       15.9994           0
     93012 TIP3     27699    TIP3     H1       HT       0.417000       1.00800           0
     93013 TIP3     27699    TIP3     H2       HT       0.417000       1.00800           0
     93014 TIP3     27700    TIP3     OH2      OT      -0.834000       15.9994           0
     93015 TIP3     27700    TIP3     H1       HT       0.417000       1.00800           0
     93016 TIP3     27700    TIP3     H2       HT       0.417000       1.00800           0
     93017 TIP3     27701    TIP3     OH2      OT      -0.834000       15.9994           0
     93018 TIP3     27701    TIP3     H1       HT       0.417000       1.00800           0
     93019 TIP3     27701    TIP3     H2       HT       0.417000       1.00800           0
     93020 TIP3     27702    TIP3     OH2      OT      -0.834000       15.9994           0
     93021 TIP3     27702    TIP3     H1       HT       0.417000       1.00800           0
     93022 TIP3     27702    TIP3     H2       HT       0.417000       1.00800           0
     93023 TIP3     27703    TIP3     OH2      OT      -0.834000       15.9994           0
     93024 TIP3     27703    TIP3     H1       HT       0.417000       1.00800           0
     93025 TIP3     27703    TIP3     H2       HT       0.417000       1.00800           0
     93026 TIP3     27704    TIP3     OH2      OT      -0.834000       15.9994           0
     93027 TIP3     27704    TIP3     H1       HT       0.417000       1.00800           0
     93028 TIP3     27704    TIP3     H2       HT       0.417000       1.00800           0
     93029 TIP3     27705    TIP3     OH2      OT      -0.834000       15.9994           0
     93030 TIP3     27705    TIP3     H1       HT       0.417000       1.00800           0
     93031 TIP3     27705    TIP3     H2       HT       0.417000       1.00800           0
     93032 TIP3     27706    TIP3     OH2      OT      -0.834000       15.9994           0
     93033 TIP3     27706    TIP3     H1       HT       0.417000       1.00800           0
     93034 TIP3     27706    TIP3     H2       HT       0.417000       1.00800           0
     93035 TIP3     27707    TIP3     OH2      OT      -0.834000       15.9994           0
     93036 TIP3     27707    TIP3     H1       HT       0.417000       1.00800           0
     93037 TIP3     27707    TIP3     H2       HT       0.417000       1.00800           0
     93038 TIP3     27708    TIP3     OH2      OT      -0.834000       15.9994           0
     93039 TIP3     27708    TIP3     H1       HT       0.417000       1.00800           0
     93040 TIP3     27708    TIP3     H2       HT       0.417000       1.00800           0
     93041 TIP3     27709    TIP3     OH2      OT      -0.834000       15.9994           0
     93042 TIP3     27709    TIP3     H1       HT       0.417000       1.00800           0
     93043 TIP3     27709    TIP3     H2       HT       0.417000       1.00800           0
     93044 TIP3     27710    TIP3     OH2      OT      -0.834000       15.9994           0
     93045 TIP3     27710    TIP3     H1       HT       0.417000       1.00800           0
     93046 TIP3     27710    TIP3     H2       HT       0.417000       1.00800           0
     93047 TIP3     27711    TIP3     OH2      OT      -0.834000       15.9994           0
     93048 TIP3     27711    TIP3     H1       HT       0.417000       1.00800           0
     93049 TIP3     27711    TIP3     H2       HT       0.417000       1.00800           0
     93050 TIP3     27712    TIP3     OH2      OT      -0.834000       15.9994           0
     93051 TIP3     27712    TIP3     H1       HT       0.417000       1.00800           0
     93052 TIP3     27712    TIP3     H2       HT       0.417000       1.00800           0
     93053 TIP3     27713    TIP3     OH2      OT      -0.834000       15.9994           0
     93054 TIP3     27713    TIP3     H1       HT       0.417000       1.00800           0
     93055 TIP3     27713    TIP3     H2       HT       0.417000       1.00800           0
     93056 TIP3     27714    TIP3     OH2      OT      -0.834000       15.9994           0
     93057 TIP3     27714    TIP3     H1       HT       0.417000       1.00800           0
     93058 TIP3     27714    TIP3     H2       HT       0.417000       1.00800           0
     93059 TIP3     27715    TIP3     OH2      OT      -0.834000       15.9994           0
     93060 TIP3     27715    TIP3     H1       HT       0.417000       1.00800           0
     93061 TIP3     27715    TIP3     H2       HT       0.417000       1.00800           0
     93062 TIP3     27716    TIP3     OH2      OT      -0.834000       15.9994           0
     93063 TIP3     27716    TIP3     H1       HT       0.417000       1.00800           0
     93064 TIP3     27716    TIP3     H2       HT       0.417000       1.00800           0
     93065 TIP3     27717    TIP3     OH2      OT      -0.834000       15.9994           0
     93066 TIP3     27717    TIP3     H1       HT       0.417000       1.00800           0
     93067 TIP3     27717    TIP3     H2       HT       0.417000       1.00800           0
     93068 TIP3     27718    TIP3     OH2      OT      -0.834000       15.9994           0
     93069 TIP3     27718    TIP3     H1       HT       0.417000       1.00800           0
     93070 TIP3     27718    TIP3     H2       HT       0.417000       1.00800           0
     93071 TIP3     27719    TIP3     OH2      OT      -0.834000       15.9994           0
     93072 TIP3     27719    TIP3     H1       HT       0.417000       1.00800           0
     93073 TIP3     27719    TIP3     H2       HT       0.417000       1.00800           0
     93074 TIP3     27720    TIP3     OH2      OT      -0.834000       15.9994           0
     93075 TIP3     27720    TIP3     H1       HT       0.417000       1.00800           0
     93076 TIP3     27720    TIP3     H2       HT       0.417000       1.00800           0
     93077 TIP3     27721    TIP3     OH2      OT      -0.834000       15.9994           0
     93078 TIP3     27721    TIP3     H1       HT       0.417000       1.00800           0
     93079 TIP3     27721    TIP3     H2       HT       0.417000       1.00800           0
     93080 TIP3     27722    TIP3     OH2      OT      -0.834000       15.9994           0
     93081 TIP3     27722    TIP3     H1       HT       0.417000       1.00800           0
     93082 TIP3     27722    TIP3     H2       HT       0.417000       1.00800           0
     93083 TIP3     27723    TIP3     OH2      OT      -0.834000       15.9994           0
     93084 TIP3     27723    TIP3     H1       HT       0.417000       1.00800           0
     93085 TIP3     27723    TIP3     H2       HT       0.417000       1.00800           0
     93086 TIP3     27724    TIP3     OH2      OT      -0.834000       15.9994           0
     93087 TIP3     27724    TIP3     H1       HT       0.417000       1.00800           0
     93088 TIP3     27724    TIP3     H2       HT       0.417000       1.00800           0
     93089 TIP3     27725    TIP3     OH2      OT      -0.834000       15.9994           0
     93090 TIP3     27725    TIP3     H1       HT       0.417000       1.00800           0
     93091 TIP3     27725    TIP3     H2       HT       0.417000       1.00800           0
     93092 TIP3     27726    TIP3     OH2      OT      -0.834000       15.9994           0
     93093 TIP3     27726    TIP3     H1       HT       0.417000       1.00800           0
     93094 TIP3     27726    TIP3     H2       HT       0.417000       1.00800           0
     93095 TIP3     27727    TIP3     OH2      OT      -0.834000       15.9994           0
     93096 TIP3     27727    TIP3     H1       HT       0.417000       1.00800           0
     93097 TIP3     27727    TIP3     H2       HT       0.417000       1.00800           0
     93098 TIP3     27728    TIP3     OH2      OT      -0.834000       15.9994           0
     93099 TIP3     27728    TIP3     H1       HT       0.417000       1.00800           0
     93100 TIP3     27728    TIP3     H2       HT       0.417000       1.00800           0
     93101 TIP3     27729    TIP3     OH2      OT      -0.834000       15.9994           0
     93102 TIP3     27729    TIP3     H1       HT       0.417000       1.00800           0
     93103 TIP3     27729    TIP3     H2       HT       0.417000       1.00800           0
     93104 TIP3     27730    TIP3     OH2      OT      -0.834000       15.9994           0
     93105 TIP3     27730    TIP3     H1       HT       0.417000       1.00800           0
     93106 TIP3     27730    TIP3     H2       HT       0.417000       1.00800           0
     93107 TIP3     27731    TIP3     OH2      OT      -0.834000       15.9994           0
     93108 TIP3     27731    TIP3     H1       HT       0.417000       1.00800           0
     93109 TIP3     27731    TIP3     H2       HT       0.417000       1.00800           0
     93110 TIP3     27732    TIP3     OH2      OT      -0.834000       15.9994           0
     93111 TIP3     27732    TIP3     H1       HT       0.417000       1.00800           0
     93112 TIP3     27732    TIP3     H2       HT       0.417000       1.00800           0
     93113 TIP3     27733    TIP3     OH2      OT      -0.834000       15.9994           0
     93114 TIP3     27733    TIP3     H1       HT       0.417000       1.00800           0
     93115 TIP3     27733    TIP3     H2       HT       0.417000       1.00800           0
     93116 TIP3     27734    TIP3     OH2      OT      -0.834000       15.9994           0
     93117 TIP3     27734    TIP3     H1       HT       0.417000       1.00800           0
     93118 TIP3     27734    TIP3     H2       HT       0.417000       1.00800           0
     93119 TIP3     27735    TIP3     OH2      OT      -0.834000       15.9994           0
     93120 TIP3     27735    TIP3     H1       HT       0.417000       1.00800           0
     93121 TIP3     27735    TIP3     H2       HT       0.417000       1.00800           0
     93122 TIP3     27736    TIP3     OH2      OT      -0.834000       15.9994           0
     93123 TIP3     27736    TIP3     H1       HT       0.417000       1.00800           0
     93124 TIP3     27736    TIP3     H2       HT       0.417000       1.00800           0
     93125 TIP3     27737    TIP3     OH2      OT      -0.834000       15.9994           0
     93126 TIP3     27737    TIP3     H1       HT       0.417000       1.00800           0
     93127 TIP3     27737    TIP3     H2       HT       0.417000       1.00800           0
     93128 TIP3     27738    TIP3     OH2      OT      -0.834000       15.9994           0
     93129 TIP3     27738    TIP3     H1       HT       0.417000       1.00800           0
     93130 TIP3     27738    TIP3     H2       HT       0.417000       1.00800           0
     93131 TIP3     27739    TIP3     OH2      OT      -0.834000       15.9994           0
     93132 TIP3     27739    TIP3     H1       HT       0.417000       1.00800           0
     93133 TIP3     27739    TIP3     H2       HT       0.417000       1.00800           0
     93134 TIP3     27740    TIP3     OH2      OT      -0.834000       15.9994           0
     93135 TIP3     27740    TIP3     H1       HT       0.417000       1.00800           0
     93136 TIP3     27740    TIP3     H2       HT       0.417000       1.00800           0
     93137 TIP3     27741    TIP3     OH2      OT      -0.834000       15.9994           0
     93138 TIP3     27741    TIP3     H1       HT       0.417000       1.00800           0
     93139 TIP3     27741    TIP3     H2       HT       0.417000       1.00800           0
     93140 TIP3     27742    TIP3     OH2      OT      -0.834000       15.9994           0
     93141 TIP3     27742    TIP3     H1       HT       0.417000       1.00800           0
     93142 TIP3     27742    TIP3     H2       HT       0.417000       1.00800           0
     93143 TIP3     27743    TIP3     OH2      OT      -0.834000       15.9994           0
     93144 TIP3     27743    TIP3     H1       HT       0.417000       1.00800           0
     93145 TIP3     27743    TIP3     H2       HT       0.417000       1.00800           0
     93146 TIP3     27744    TIP3     OH2      OT      -0.834000       15.9994           0
     93147 TIP3     27744    TIP3     H1       HT       0.417000       1.00800           0
     93148 TIP3     27744    TIP3     H2       HT       0.417000       1.00800           0
     93149 TIP3     27745    TIP3     OH2      OT      -0.834000       15.9994           0
     93150 TIP3     27745    TIP3     H1       HT       0.417000       1.00800           0
     93151 TIP3     27745    TIP3     H2       HT       0.417000       1.00800           0
     93152 TIP3     27746    TIP3     OH2      OT      -0.834000       15.9994           0
     93153 TIP3     27746    TIP3     H1       HT       0.417000       1.00800           0
     93154 TIP3     27746    TIP3     H2       HT       0.417000       1.00800           0
     93155 TIP3     27747    TIP3     OH2      OT      -0.834000       15.9994           0
     93156 TIP3     27747    TIP3     H1       HT       0.417000       1.00800           0
     93157 TIP3     27747    TIP3     H2       HT       0.417000       1.00800           0
     93158 TIP3     27748    TIP3     OH2      OT      -0.834000       15.9994           0
     93159 TIP3     27748    TIP3     H1       HT       0.417000       1.00800           0
     93160 TIP3     27748    TIP3     H2       HT       0.417000       1.00800           0
     93161 TIP3     27749    TIP3     OH2      OT      -0.834000       15.9994           0
     93162 TIP3     27749    TIP3     H1       HT       0.417000       1.00800           0
     93163 TIP3     27749    TIP3     H2       HT       0.417000       1.00800           0
     93164 TIP3     27750    TIP3     OH2      OT      -0.834000       15.9994           0
     93165 TIP3     27750    TIP3     H1       HT       0.417000       1.00800           0
     93166 TIP3     27750    TIP3     H2       HT       0.417000       1.00800           0
     93167 TIP3     27751    TIP3     OH2      OT      -0.834000       15.9994           0
     93168 TIP3     27751    TIP3     H1       HT       0.417000       1.00800           0
     93169 TIP3     27751    TIP3     H2       HT       0.417000       1.00800           0
     93170 TIP3     27752    TIP3     OH2      OT      -0.834000       15.9994           0
     93171 TIP3     27752    TIP3     H1       HT       0.417000       1.00800           0
     93172 TIP3     27752    TIP3     H2       HT       0.417000       1.00800           0
     93173 TIP3     27753    TIP3     OH2      OT      -0.834000       15.9994           0
     93174 TIP3     27753    TIP3     H1       HT       0.417000       1.00800           0
     93175 TIP3     27753    TIP3     H2       HT       0.417000       1.00800           0
     93176 TIP3     27754    TIP3     OH2      OT      -0.834000       15.9994           0
     93177 TIP3     27754    TIP3     H1       HT       0.417000       1.00800           0
     93178 TIP3     27754    TIP3     H2       HT       0.417000       1.00800           0
     93179 TIP3     27755    TIP3     OH2      OT      -0.834000       15.9994           0
     93180 TIP3     27755    TIP3     H1       HT       0.417000       1.00800           0
     93181 TIP3     27755    TIP3     H2       HT       0.417000       1.00800           0
     93182 TIP3     27756    TIP3     OH2      OT      -0.834000       15.9994           0
     93183 TIP3     27756    TIP3     H1       HT       0.417000       1.00800           0
     93184 TIP3     27756    TIP3     H2       HT       0.417000       1.00800           0
     93185 TIP3     27757    TIP3     OH2      OT      -0.834000       15.9994           0
     93186 TIP3     27757    TIP3     H1       HT       0.417000       1.00800           0
     93187 TIP3     27757    TIP3     H2       HT       0.417000       1.00800           0
     93188 TIP3     27758    TIP3     OH2      OT      -0.834000       15.9994           0
     93189 TIP3     27758    TIP3     H1       HT       0.417000       1.00800           0
     93190 TIP3     27758    TIP3     H2       HT       0.417000       1.00800           0
     93191 TIP3     27759    TIP3     OH2      OT      -0.834000       15.9994           0
     93192 TIP3     27759    TIP3     H1       HT       0.417000       1.00800           0
     93193 TIP3     27759    TIP3     H2       HT       0.417000       1.00800           0
     93194 TIP3     27760    TIP3     OH2      OT      -0.834000       15.9994           0
     93195 TIP3     27760    TIP3     H1       HT       0.417000       1.00800           0
     93196 TIP3     27760    TIP3     H2       HT       0.417000       1.00800           0
     93197 TIP3     27761    TIP3     OH2      OT      -0.834000       15.9994           0
     93198 TIP3     27761    TIP3     H1       HT       0.417000       1.00800           0
     93199 TIP3     27761    TIP3     H2       HT       0.417000       1.00800           0
     93200 TIP3     27762    TIP3     OH2      OT      -0.834000       15.9994           0
     93201 TIP3     27762    TIP3     H1       HT       0.417000       1.00800           0
     93202 TIP3     27762    TIP3     H2       HT       0.417000       1.00800           0
     93203 TIP3     27763    TIP3     OH2      OT      -0.834000       15.9994           0
     93204 TIP3     27763    TIP3     H1       HT       0.417000       1.00800           0
     93205 TIP3     27763    TIP3     H2       HT       0.417000       1.00800           0
     93206 TIP3     27764    TIP3     OH2      OT      -0.834000       15.9994           0
     93207 TIP3     27764    TIP3     H1       HT       0.417000       1.00800           0
     93208 TIP3     27764    TIP3     H2       HT       0.417000       1.00800           0
     93209 TIP3     27765    TIP3     OH2      OT      -0.834000       15.9994           0
     93210 TIP3     27765    TIP3     H1       HT       0.417000       1.00800           0
     93211 TIP3     27765    TIP3     H2       HT       0.417000       1.00800           0
     93212 TIP3     27766    TIP3     OH2      OT      -0.834000       15.9994           0
     93213 TIP3     27766    TIP3     H1       HT       0.417000       1.00800           0
     93214 TIP3     27766    TIP3     H2       HT       0.417000       1.00800           0
     93215 TIP3     27767    TIP3     OH2      OT      -0.834000       15.9994           0
     93216 TIP3     27767    TIP3     H1       HT       0.417000       1.00800           0
     93217 TIP3     27767    TIP3     H2       HT       0.417000       1.00800           0
     93218 TIP3     27768    TIP3     OH2      OT      -0.834000       15.9994           0
     93219 TIP3     27768    TIP3     H1       HT       0.417000       1.00800           0
     93220 TIP3     27768    TIP3     H2       HT       0.417000       1.00800           0
     93221 TIP3     27769    TIP3     OH2      OT      -0.834000       15.9994           0
     93222 TIP3     27769    TIP3     H1       HT       0.417000       1.00800           0
     93223 TIP3     27769    TIP3     H2       HT       0.417000       1.00800           0
     93224 TIP3     27770    TIP3     OH2      OT      -0.834000       15.9994           0
     93225 TIP3     27770    TIP3     H1       HT       0.417000       1.00800           0
     93226 TIP3     27770    TIP3     H2       HT       0.417000       1.00800           0
     93227 TIP3     27771    TIP3     OH2      OT      -0.834000       15.9994           0
     93228 TIP3     27771    TIP3     H1       HT       0.417000       1.00800           0
     93229 TIP3     27771    TIP3     H2       HT       0.417000       1.00800           0
     93230 TIP3     27772    TIP3     OH2      OT      -0.834000       15.9994           0
     93231 TIP3     27772    TIP3     H1       HT       0.417000       1.00800           0
     93232 TIP3     27772    TIP3     H2       HT       0.417000       1.00800           0
     93233 TIP3     27773    TIP3     OH2      OT      -0.834000       15.9994           0
     93234 TIP3     27773    TIP3     H1       HT       0.417000       1.00800           0
     93235 TIP3     27773    TIP3     H2       HT       0.417000       1.00800           0
     93236 TIP3     27774    TIP3     OH2      OT      -0.834000       15.9994           0
     93237 TIP3     27774    TIP3     H1       HT       0.417000       1.00800           0
     93238 TIP3     27774    TIP3     H2       HT       0.417000       1.00800           0
     93239 TIP3     27775    TIP3     OH2      OT      -0.834000       15.9994           0
     93240 TIP3     27775    TIP3     H1       HT       0.417000       1.00800           0
     93241 TIP3     27775    TIP3     H2       HT       0.417000       1.00800           0
     93242 TIP3     27776    TIP3     OH2      OT      -0.834000       15.9994           0
     93243 TIP3     27776    TIP3     H1       HT       0.417000       1.00800           0
     93244 TIP3     27776    TIP3     H2       HT       0.417000       1.00800           0
     93245 TIP3     27777    TIP3     OH2      OT      -0.834000       15.9994           0
     93246 TIP3     27777    TIP3     H1       HT       0.417000       1.00800           0
     93247 TIP3     27777    TIP3     H2       HT       0.417000       1.00800           0
     93248 TIP3     27778    TIP3     OH2      OT      -0.834000       15.9994           0
     93249 TIP3     27778    TIP3     H1       HT       0.417000       1.00800           0
     93250 TIP3     27778    TIP3     H2       HT       0.417000       1.00800           0
     93251 TIP3     27779    TIP3     OH2      OT      -0.834000       15.9994           0
     93252 TIP3     27779    TIP3     H1       HT       0.417000       1.00800           0
     93253 TIP3     27779    TIP3     H2       HT       0.417000       1.00800           0
     93254 TIP3     27780    TIP3     OH2      OT      -0.834000       15.9994           0
     93255 TIP3     27780    TIP3     H1       HT       0.417000       1.00800           0
     93256 TIP3     27780    TIP3     H2       HT       0.417000       1.00800           0
     93257 TIP3     27781    TIP3     OH2      OT      -0.834000       15.9994           0
     93258 TIP3     27781    TIP3     H1       HT       0.417000       1.00800           0
     93259 TIP3     27781    TIP3     H2       HT       0.417000       1.00800           0
     93260 TIP3     27782    TIP3     OH2      OT      -0.834000       15.9994           0
     93261 TIP3     27782    TIP3     H1       HT       0.417000       1.00800           0
     93262 TIP3     27782    TIP3     H2       HT       0.417000       1.00800           0
     93263 TIP3     27783    TIP3     OH2      OT      -0.834000       15.9994           0
     93264 TIP3     27783    TIP3     H1       HT       0.417000       1.00800           0
     93265 TIP3     27783    TIP3     H2       HT       0.417000       1.00800           0
     93266 TIP3     27784    TIP3     OH2      OT      -0.834000       15.9994           0
     93267 TIP3     27784    TIP3     H1       HT       0.417000       1.00800           0
     93268 TIP3     27784    TIP3     H2       HT       0.417000       1.00800           0
     93269 TIP3     27785    TIP3     OH2      OT      -0.834000       15.9994           0
     93270 TIP3     27785    TIP3     H1       HT       0.417000       1.00800           0
     93271 TIP3     27785    TIP3     H2       HT       0.417000       1.00800           0
     93272 TIP3     27786    TIP3     OH2      OT      -0.834000       15.9994           0
     93273 TIP3     27786    TIP3     H1       HT       0.417000       1.00800           0
     93274 TIP3     27786    TIP3     H2       HT       0.417000       1.00800           0
     93275 TIP3     27787    TIP3     OH2      OT      -0.834000       15.9994           0
     93276 TIP3     27787    TIP3     H1       HT       0.417000       1.00800           0
     93277 TIP3     27787    TIP3     H2       HT       0.417000       1.00800           0
     93278 TIP3     27788    TIP3     OH2      OT      -0.834000       15.9994           0
     93279 TIP3     27788    TIP3     H1       HT       0.417000       1.00800           0
     93280 TIP3     27788    TIP3     H2       HT       0.417000       1.00800           0
     93281 TIP3     27789    TIP3     OH2      OT      -0.834000       15.9994           0
     93282 TIP3     27789    TIP3     H1       HT       0.417000       1.00800           0
     93283 TIP3     27789    TIP3     H2       HT       0.417000       1.00800           0
     93284 TIP3     27790    TIP3     OH2      OT      -0.834000       15.9994           0
     93285 TIP3     27790    TIP3     H1       HT       0.417000       1.00800           0
     93286 TIP3     27790    TIP3     H2       HT       0.417000       1.00800           0
     93287 TIP3     27791    TIP3     OH2      OT      -0.834000       15.9994           0
     93288 TIP3     27791    TIP3     H1       HT       0.417000       1.00800           0
     93289 TIP3     27791    TIP3     H2       HT       0.417000       1.00800           0
     93290 TIP3     27792    TIP3     OH2      OT      -0.834000       15.9994           0
     93291 TIP3     27792    TIP3     H1       HT       0.417000       1.00800           0
     93292 TIP3     27792    TIP3     H2       HT       0.417000       1.00800           0
     93293 TIP3     27793    TIP3     OH2      OT      -0.834000       15.9994           0
     93294 TIP3     27793    TIP3     H1       HT       0.417000       1.00800           0
     93295 TIP3     27793    TIP3     H2       HT       0.417000       1.00800           0
     93296 TIP3     27794    TIP3     OH2      OT      -0.834000       15.9994           0
     93297 TIP3     27794    TIP3     H1       HT       0.417000       1.00800           0
     93298 TIP3     27794    TIP3     H2       HT       0.417000       1.00800           0
     93299 TIP3     27795    TIP3     OH2      OT      -0.834000       15.9994           0
     93300 TIP3     27795    TIP3     H1       HT       0.417000       1.00800           0
     93301 TIP3     27795    TIP3     H2       HT       0.417000       1.00800           0
     93302 TIP3     27796    TIP3     OH2      OT      -0.834000       15.9994           0
     93303 TIP3     27796    TIP3     H1       HT       0.417000       1.00800           0
     93304 TIP3     27796    TIP3     H2       HT       0.417000       1.00800           0
     93305 TIP3     27797    TIP3     OH2      OT      -0.834000       15.9994           0
     93306 TIP3     27797    TIP3     H1       HT       0.417000       1.00800           0
     93307 TIP3     27797    TIP3     H2       HT       0.417000       1.00800           0
     93308 TIP3     27798    TIP3     OH2      OT      -0.834000       15.9994           0
     93309 TIP3     27798    TIP3     H1       HT       0.417000       1.00800           0
     93310 TIP3     27798    TIP3     H2       HT       0.417000       1.00800           0
     93311 TIP3     27799    TIP3     OH2      OT      -0.834000       15.9994           0
     93312 TIP3     27799    TIP3     H1       HT       0.417000       1.00800           0
     93313 TIP3     27799    TIP3     H2       HT       0.417000       1.00800           0
     93314 TIP3     27800    TIP3     OH2      OT      -0.834000       15.9994           0
     93315 TIP3     27800    TIP3     H1       HT       0.417000       1.00800           0
     93316 TIP3     27800    TIP3     H2       HT       0.417000       1.00800           0
     93317 TIP3     27801    TIP3     OH2      OT      -0.834000       15.9994           0
     93318 TIP3     27801    TIP3     H1       HT       0.417000       1.00800           0
     93319 TIP3     27801    TIP3     H2       HT       0.417000       1.00800           0
     93320 TIP3     27802    TIP3     OH2      OT      -0.834000       15.9994           0
     93321 TIP3     27802    TIP3     H1       HT       0.417000       1.00800           0
     93322 TIP3     27802    TIP3     H2       HT       0.417000       1.00800           0
     93323 TIP3     27803    TIP3     OH2      OT      -0.834000       15.9994           0
     93324 TIP3     27803    TIP3     H1       HT       0.417000       1.00800           0
     93325 TIP3     27803    TIP3     H2       HT       0.417000       1.00800           0
     93326 TIP3     27804    TIP3     OH2      OT      -0.834000       15.9994           0
     93327 TIP3     27804    TIP3     H1       HT       0.417000       1.00800           0
     93328 TIP3     27804    TIP3     H2       HT       0.417000       1.00800           0
     93329 TIP3     27805    TIP3     OH2      OT      -0.834000       15.9994           0
     93330 TIP3     27805    TIP3     H1       HT       0.417000       1.00800           0
     93331 TIP3     27805    TIP3     H2       HT       0.417000       1.00800           0
     93332 TIP3     27806    TIP3     OH2      OT      -0.834000       15.9994           0
     93333 TIP3     27806    TIP3     H1       HT       0.417000       1.00800           0
     93334 TIP3     27806    TIP3     H2       HT       0.417000       1.00800           0
     93335 TIP3     27807    TIP3     OH2      OT      -0.834000       15.9994           0
     93336 TIP3     27807    TIP3     H1       HT       0.417000       1.00800           0
     93337 TIP3     27807    TIP3     H2       HT       0.417000       1.00800           0
     93338 TIP3     27808    TIP3     OH2      OT      -0.834000       15.9994           0
     93339 TIP3     27808    TIP3     H1       HT       0.417000       1.00800           0
     93340 TIP3     27808    TIP3     H2       HT       0.417000       1.00800           0
     93341 TIP3     27809    TIP3     OH2      OT      -0.834000       15.9994           0
     93342 TIP3     27809    TIP3     H1       HT       0.417000       1.00800           0
     93343 TIP3     27809    TIP3     H2       HT       0.417000       1.00800           0
     93344 TIP3     27810    TIP3     OH2      OT      -0.834000       15.9994           0
     93345 TIP3     27810    TIP3     H1       HT       0.417000       1.00800           0
     93346 TIP3     27810    TIP3     H2       HT       0.417000       1.00800           0
     93347 TIP3     27811    TIP3     OH2      OT      -0.834000       15.9994           0
     93348 TIP3     27811    TIP3     H1       HT       0.417000       1.00800           0
     93349 TIP3     27811    TIP3     H2       HT       0.417000       1.00800           0
     93350 TIP3     27812    TIP3     OH2      OT      -0.834000       15.9994           0
     93351 TIP3     27812    TIP3     H1       HT       0.417000       1.00800           0
     93352 TIP3     27812    TIP3     H2       HT       0.417000       1.00800           0
     93353 TIP3     27813    TIP3     OH2      OT      -0.834000       15.9994           0
     93354 TIP3     27813    TIP3     H1       HT       0.417000       1.00800           0
     93355 TIP3     27813    TIP3     H2       HT       0.417000       1.00800           0
     93356 TIP3     27814    TIP3     OH2      OT      -0.834000       15.9994           0
     93357 TIP3     27814    TIP3     H1       HT       0.417000       1.00800           0
     93358 TIP3     27814    TIP3     H2       HT       0.417000       1.00800           0
     93359 TIP3     27815    TIP3     OH2      OT      -0.834000       15.9994           0
     93360 TIP3     27815    TIP3     H1       HT       0.417000       1.00800           0
     93361 TIP3     27815    TIP3     H2       HT       0.417000       1.00800           0
     93362 TIP3     27816    TIP3     OH2      OT      -0.834000       15.9994           0
     93363 TIP3     27816    TIP3     H1       HT       0.417000       1.00800           0
     93364 TIP3     27816    TIP3     H2       HT       0.417000       1.00800           0
     93365 TIP3     27817    TIP3     OH2      OT      -0.834000       15.9994           0
     93366 TIP3     27817    TIP3     H1       HT       0.417000       1.00800           0
     93367 TIP3     27817    TIP3     H2       HT       0.417000       1.00800           0
     93368 TIP3     27818    TIP3     OH2      OT      -0.834000       15.9994           0
     93369 TIP3     27818    TIP3     H1       HT       0.417000       1.00800           0
     93370 TIP3     27818    TIP3     H2       HT       0.417000       1.00800           0
     93371 TIP3     27819    TIP3     OH2      OT      -0.834000       15.9994           0
     93372 TIP3     27819    TIP3     H1       HT       0.417000       1.00800           0
     93373 TIP3     27819    TIP3     H2       HT       0.417000       1.00800           0
     93374 TIP3     27820    TIP3     OH2      OT      -0.834000       15.9994           0
     93375 TIP3     27820    TIP3     H1       HT       0.417000       1.00800           0
     93376 TIP3     27820    TIP3     H2       HT       0.417000       1.00800           0
     93377 TIP3     27821    TIP3     OH2      OT      -0.834000       15.9994           0
     93378 TIP3     27821    TIP3     H1       HT       0.417000       1.00800           0
     93379 TIP3     27821    TIP3     H2       HT       0.417000       1.00800           0
     93380 TIP3     27822    TIP3     OH2      OT      -0.834000       15.9994           0
     93381 TIP3     27822    TIP3     H1       HT       0.417000       1.00800           0
     93382 TIP3     27822    TIP3     H2       HT       0.417000       1.00800           0
     93383 TIP3     27823    TIP3     OH2      OT      -0.834000       15.9994           0
     93384 TIP3     27823    TIP3     H1       HT       0.417000       1.00800           0
     93385 TIP3     27823    TIP3     H2       HT       0.417000       1.00800           0
     93386 TIP3     27824    TIP3     OH2      OT      -0.834000       15.9994           0
     93387 TIP3     27824    TIP3     H1       HT       0.417000       1.00800           0
     93388 TIP3     27824    TIP3     H2       HT       0.417000       1.00800           0
     93389 TIP3     27825    TIP3     OH2      OT      -0.834000       15.9994           0
     93390 TIP3     27825    TIP3     H1       HT       0.417000       1.00800           0
     93391 TIP3     27825    TIP3     H2       HT       0.417000       1.00800           0
     93392 TIP3     27826    TIP3     OH2      OT      -0.834000       15.9994           0
     93393 TIP3     27826    TIP3     H1       HT       0.417000       1.00800           0
     93394 TIP3     27826    TIP3     H2       HT       0.417000       1.00800           0
     93395 TIP3     27827    TIP3     OH2      OT      -0.834000       15.9994           0
     93396 TIP3     27827    TIP3     H1       HT       0.417000       1.00800           0
     93397 TIP3     27827    TIP3     H2       HT       0.417000       1.00800           0
     93398 TIP3     27828    TIP3     OH2      OT      -0.834000       15.9994           0
     93399 TIP3     27828    TIP3     H1       HT       0.417000       1.00800           0
     93400 TIP3     27828    TIP3     H2       HT       0.417000       1.00800           0
     93401 TIP3     27829    TIP3     OH2      OT      -0.834000       15.9994           0
     93402 TIP3     27829    TIP3     H1       HT       0.417000       1.00800           0
     93403 TIP3     27829    TIP3     H2       HT       0.417000       1.00800           0
     93404 TIP3     27830    TIP3     OH2      OT      -0.834000       15.9994           0
     93405 TIP3     27830    TIP3     H1       HT       0.417000       1.00800           0
     93406 TIP3     27830    TIP3     H2       HT       0.417000       1.00800           0
     93407 TIP3     27831    TIP3     OH2      OT      -0.834000       15.9994           0
     93408 TIP3     27831    TIP3     H1       HT       0.417000       1.00800           0
     93409 TIP3     27831    TIP3     H2       HT       0.417000       1.00800           0
     93410 TIP3     27832    TIP3     OH2      OT      -0.834000       15.9994           0
     93411 TIP3     27832    TIP3     H1       HT       0.417000       1.00800           0
     93412 TIP3     27832    TIP3     H2       HT       0.417000       1.00800           0
     93413 TIP3     27833    TIP3     OH2      OT      -0.834000       15.9994           0
     93414 TIP3     27833    TIP3     H1       HT       0.417000       1.00800           0
     93415 TIP3     27833    TIP3     H2       HT       0.417000       1.00800           0
     93416 TIP3     27834    TIP3     OH2      OT      -0.834000       15.9994           0
     93417 TIP3     27834    TIP3     H1       HT       0.417000       1.00800           0
     93418 TIP3     27834    TIP3     H2       HT       0.417000       1.00800           0
     93419 TIP3     27835    TIP3     OH2      OT      -0.834000       15.9994           0
     93420 TIP3     27835    TIP3     H1       HT       0.417000       1.00800           0
     93421 TIP3     27835    TIP3     H2       HT       0.417000       1.00800           0
     93422 TIP3     27836    TIP3     OH2      OT      -0.834000       15.9994           0
     93423 TIP3     27836    TIP3     H1       HT       0.417000       1.00800           0
     93424 TIP3     27836    TIP3     H2       HT       0.417000       1.00800           0
     93425 TIP3     27837    TIP3     OH2      OT      -0.834000       15.9994           0
     93426 TIP3     27837    TIP3     H1       HT       0.417000       1.00800           0
     93427 TIP3     27837    TIP3     H2       HT       0.417000       1.00800           0
     93428 TIP3     27838    TIP3     OH2      OT      -0.834000       15.9994           0
     93429 TIP3     27838    TIP3     H1       HT       0.417000       1.00800           0
     93430 TIP3     27838    TIP3     H2       HT       0.417000       1.00800           0
     93431 TIP3     27839    TIP3     OH2      OT      -0.834000       15.9994           0
     93432 TIP3     27839    TIP3     H1       HT       0.417000       1.00800           0
     93433 TIP3     27839    TIP3     H2       HT       0.417000       1.00800           0
     93434 TIP3     27840    TIP3     OH2      OT      -0.834000       15.9994           0
     93435 TIP3     27840    TIP3     H1       HT       0.417000       1.00800           0
     93436 TIP3     27840    TIP3     H2       HT       0.417000       1.00800           0
     93437 TIP3     27841    TIP3     OH2      OT      -0.834000       15.9994           0
     93438 TIP3     27841    TIP3     H1       HT       0.417000       1.00800           0
     93439 TIP3     27841    TIP3     H2       HT       0.417000       1.00800           0
     93440 TIP3     27842    TIP3     OH2      OT      -0.834000       15.9994           0
     93441 TIP3     27842    TIP3     H1       HT       0.417000       1.00800           0
     93442 TIP3     27842    TIP3     H2       HT       0.417000       1.00800           0
     93443 TIP3     27843    TIP3     OH2      OT      -0.834000       15.9994           0
     93444 TIP3     27843    TIP3     H1       HT       0.417000       1.00800           0
     93445 TIP3     27843    TIP3     H2       HT       0.417000       1.00800           0
     93446 TIP3     27844    TIP3     OH2      OT      -0.834000       15.9994           0
     93447 TIP3     27844    TIP3     H1       HT       0.417000       1.00800           0
     93448 TIP3     27844    TIP3     H2       HT       0.417000       1.00800           0
     93449 TIP3     27845    TIP3     OH2      OT      -0.834000       15.9994           0
     93450 TIP3     27845    TIP3     H1       HT       0.417000       1.00800           0
     93451 TIP3     27845    TIP3     H2       HT       0.417000       1.00800           0
     93452 TIP3     27846    TIP3     OH2      OT      -0.834000       15.9994           0
     93453 TIP3     27846    TIP3     H1       HT       0.417000       1.00800           0
     93454 TIP3     27846    TIP3     H2       HT       0.417000       1.00800           0
     93455 TIP3     27847    TIP3     OH2      OT      -0.834000       15.9994           0
     93456 TIP3     27847    TIP3     H1       HT       0.417000       1.00800           0
     93457 TIP3     27847    TIP3     H2       HT       0.417000       1.00800           0
     93458 TIP3     27848    TIP3     OH2      OT      -0.834000       15.9994           0
     93459 TIP3     27848    TIP3     H1       HT       0.417000       1.00800           0
     93460 TIP3     27848    TIP3     H2       HT       0.417000       1.00800           0
     93461 TIP3     27849    TIP3     OH2      OT      -0.834000       15.9994           0
     93462 TIP3     27849    TIP3     H1       HT       0.417000       1.00800           0
     93463 TIP3     27849    TIP3     H2       HT       0.417000       1.00800           0
     93464 TIP3     27850    TIP3     OH2      OT      -0.834000       15.9994           0
     93465 TIP3     27850    TIP3     H1       HT       0.417000       1.00800           0
     93466 TIP3     27850    TIP3     H2       HT       0.417000       1.00800           0
     93467 TIP3     27851    TIP3     OH2      OT      -0.834000       15.9994           0
     93468 TIP3     27851    TIP3     H1       HT       0.417000       1.00800           0
     93469 TIP3     27851    TIP3     H2       HT       0.417000       1.00800           0
     93470 TIP3     27852    TIP3     OH2      OT      -0.834000       15.9994           0
     93471 TIP3     27852    TIP3     H1       HT       0.417000       1.00800           0
     93472 TIP3     27852    TIP3     H2       HT       0.417000       1.00800           0
     93473 TIP3     27853    TIP3     OH2      OT      -0.834000       15.9994           0
     93474 TIP3     27853    TIP3     H1       HT       0.417000       1.00800           0
     93475 TIP3     27853    TIP3     H2       HT       0.417000       1.00800           0
     93476 TIP3     27854    TIP3     OH2      OT      -0.834000       15.9994           0
     93477 TIP3     27854    TIP3     H1       HT       0.417000       1.00800           0
     93478 TIP3     27854    TIP3     H2       HT       0.417000       1.00800           0
     93479 TIP3     27855    TIP3     OH2      OT      -0.834000       15.9994           0
     93480 TIP3     27855    TIP3     H1       HT       0.417000       1.00800           0
     93481 TIP3     27855    TIP3     H2       HT       0.417000       1.00800           0
     93482 TIP3     27856    TIP3     OH2      OT      -0.834000       15.9994           0
     93483 TIP3     27856    TIP3     H1       HT       0.417000       1.00800           0
     93484 TIP3     27856    TIP3     H2       HT       0.417000       1.00800           0
     93485 TIP3     27857    TIP3     OH2      OT      -0.834000       15.9994           0
     93486 TIP3     27857    TIP3     H1       HT       0.417000       1.00800           0
     93487 TIP3     27857    TIP3     H2       HT       0.417000       1.00800           0
     93488 TIP3     27858    TIP3     OH2      OT      -0.834000       15.9994           0
     93489 TIP3     27858    TIP3     H1       HT       0.417000       1.00800           0
     93490 TIP3     27858    TIP3     H2       HT       0.417000       1.00800           0
     93491 TIP3     27859    TIP3     OH2      OT      -0.834000       15.9994           0
     93492 TIP3     27859    TIP3     H1       HT       0.417000       1.00800           0
     93493 TIP3     27859    TIP3     H2       HT       0.417000       1.00800           0
     93494 TIP3     27860    TIP3     OH2      OT      -0.834000       15.9994           0
     93495 TIP3     27860    TIP3     H1       HT       0.417000       1.00800           0
     93496 TIP3     27860    TIP3     H2       HT       0.417000       1.00800           0
     93497 TIP3     27861    TIP3     OH2      OT      -0.834000       15.9994           0
     93498 TIP3     27861    TIP3     H1       HT       0.417000       1.00800           0
     93499 TIP3     27861    TIP3     H2       HT       0.417000       1.00800           0
     93500 TIP3     27862    TIP3     OH2      OT      -0.834000       15.9994           0
     93501 TIP3     27862    TIP3     H1       HT       0.417000       1.00800           0
     93502 TIP3     27862    TIP3     H2       HT       0.417000       1.00800           0
     93503 TIP3     27863    TIP3     OH2      OT      -0.834000       15.9994           0
     93504 TIP3     27863    TIP3     H1       HT       0.417000       1.00800           0
     93505 TIP3     27863    TIP3     H2       HT       0.417000       1.00800           0
     93506 TIP3     27864    TIP3     OH2      OT      -0.834000       15.9994           0
     93507 TIP3     27864    TIP3     H1       HT       0.417000       1.00800           0
     93508 TIP3     27864    TIP3     H2       HT       0.417000       1.00800           0
     93509 TIP3     27865    TIP3     OH2      OT      -0.834000       15.9994           0
     93510 TIP3     27865    TIP3     H1       HT       0.417000       1.00800           0
     93511 TIP3     27865    TIP3     H2       HT       0.417000       1.00800           0
     93512 TIP3     27866    TIP3     OH2      OT      -0.834000       15.9994           0
     93513 TIP3     27866    TIP3     H1       HT       0.417000       1.00800           0
     93514 TIP3     27866    TIP3     H2       HT       0.417000       1.00800           0
     93515 TIP3     27867    TIP3     OH2      OT      -0.834000       15.9994           0
     93516 TIP3     27867    TIP3     H1       HT       0.417000       1.00800           0
     93517 TIP3     27867    TIP3     H2       HT       0.417000       1.00800           0
     93518 TIP3     27868    TIP3     OH2      OT      -0.834000       15.9994           0
     93519 TIP3     27868    TIP3     H1       HT       0.417000       1.00800           0
     93520 TIP3     27868    TIP3     H2       HT       0.417000       1.00800           0
     93521 TIP3     27869    TIP3     OH2      OT      -0.834000       15.9994           0
     93522 TIP3     27869    TIP3     H1       HT       0.417000       1.00800           0
     93523 TIP3     27869    TIP3     H2       HT       0.417000       1.00800           0
     93524 TIP3     27870    TIP3     OH2      OT      -0.834000       15.9994           0
     93525 TIP3     27870    TIP3     H1       HT       0.417000       1.00800           0
     93526 TIP3     27870    TIP3     H2       HT       0.417000       1.00800           0
     93527 TIP3     27871    TIP3     OH2      OT      -0.834000       15.9994           0
     93528 TIP3     27871    TIP3     H1       HT       0.417000       1.00800           0
     93529 TIP3     27871    TIP3     H2       HT       0.417000       1.00800           0
     93530 TIP3     27872    TIP3     OH2      OT      -0.834000       15.9994           0
     93531 TIP3     27872    TIP3     H1       HT       0.417000       1.00800           0
     93532 TIP3     27872    TIP3     H2       HT       0.417000       1.00800           0
     93533 TIP3     27873    TIP3     OH2      OT      -0.834000       15.9994           0
     93534 TIP3     27873    TIP3     H1       HT       0.417000       1.00800           0
     93535 TIP3     27873    TIP3     H2       HT       0.417000       1.00800           0
     93536 TIP3     27874    TIP3     OH2      OT      -0.834000       15.9994           0
     93537 TIP3     27874    TIP3     H1       HT       0.417000       1.00800           0
     93538 TIP3     27874    TIP3     H2       HT       0.417000       1.00800           0
     93539 TIP3     27875    TIP3     OH2      OT      -0.834000       15.9994           0
     93540 TIP3     27875    TIP3     H1       HT       0.417000       1.00800           0
     93541 TIP3     27875    TIP3     H2       HT       0.417000       1.00800           0
     93542 TIP3     27876    TIP3     OH2      OT      -0.834000       15.9994           0
     93543 TIP3     27876    TIP3     H1       HT       0.417000       1.00800           0
     93544 TIP3     27876    TIP3     H2       HT       0.417000       1.00800           0
     93545 TIP3     27877    TIP3     OH2      OT      -0.834000       15.9994           0
     93546 TIP3     27877    TIP3     H1       HT       0.417000       1.00800           0
     93547 TIP3     27877    TIP3     H2       HT       0.417000       1.00800           0
     93548 TIP3     27878    TIP3     OH2      OT      -0.834000       15.9994           0
     93549 TIP3     27878    TIP3     H1       HT       0.417000       1.00800           0
     93550 TIP3     27878    TIP3     H2       HT       0.417000       1.00800           0
     93551 TIP3     27879    TIP3     OH2      OT      -0.834000       15.9994           0
     93552 TIP3     27879    TIP3     H1       HT       0.417000       1.00800           0
     93553 TIP3     27879    TIP3     H2       HT       0.417000       1.00800           0
     93554 TIP3     27880    TIP3     OH2      OT      -0.834000       15.9994           0
     93555 TIP3     27880    TIP3     H1       HT       0.417000       1.00800           0
     93556 TIP3     27880    TIP3     H2       HT       0.417000       1.00800           0
     93557 TIP3     27881    TIP3     OH2      OT      -0.834000       15.9994           0
     93558 TIP3     27881    TIP3     H1       HT       0.417000       1.00800           0
     93559 TIP3     27881    TIP3     H2       HT       0.417000       1.00800           0
     93560 TIP3     27882    TIP3     OH2      OT      -0.834000       15.9994           0
     93561 TIP3     27882    TIP3     H1       HT       0.417000       1.00800           0
     93562 TIP3     27882    TIP3     H2       HT       0.417000       1.00800           0
     93563 TIP3     27883    TIP3     OH2      OT      -0.834000       15.9994           0
     93564 TIP3     27883    TIP3     H1       HT       0.417000       1.00800           0
     93565 TIP3     27883    TIP3     H2       HT       0.417000       1.00800           0
     93566 TIP3     27884    TIP3     OH2      OT      -0.834000       15.9994           0
     93567 TIP3     27884    TIP3     H1       HT       0.417000       1.00800           0
     93568 TIP3     27884    TIP3     H2       HT       0.417000       1.00800           0
     93569 TIP3     27885    TIP3     OH2      OT      -0.834000       15.9994           0
     93570 TIP3     27885    TIP3     H1       HT       0.417000       1.00800           0
     93571 TIP3     27885    TIP3     H2       HT       0.417000       1.00800           0
     93572 TIP3     27886    TIP3     OH2      OT      -0.834000       15.9994           0
     93573 TIP3     27886    TIP3     H1       HT       0.417000       1.00800           0
     93574 TIP3     27886    TIP3     H2       HT       0.417000       1.00800           0
     93575 TIP3     27887    TIP3     OH2      OT      -0.834000       15.9994           0
     93576 TIP3     27887    TIP3     H1       HT       0.417000       1.00800           0
     93577 TIP3     27887    TIP3     H2       HT       0.417000       1.00800           0
     93578 TIP3     27888    TIP3     OH2      OT      -0.834000       15.9994           0
     93579 TIP3     27888    TIP3     H1       HT       0.417000       1.00800           0
     93580 TIP3     27888    TIP3     H2       HT       0.417000       1.00800           0
     93581 TIP3     27889    TIP3     OH2      OT      -0.834000       15.9994           0
     93582 TIP3     27889    TIP3     H1       HT       0.417000       1.00800           0
     93583 TIP3     27889    TIP3     H2       HT       0.417000       1.00800           0
     93584 TIP3     27890    TIP3     OH2      OT      -0.834000       15.9994           0
     93585 TIP3     27890    TIP3     H1       HT       0.417000       1.00800           0
     93586 TIP3     27890    TIP3     H2       HT       0.417000       1.00800           0
     93587 TIP3     27891    TIP3     OH2      OT      -0.834000       15.9994           0
     93588 TIP3     27891    TIP3     H1       HT       0.417000       1.00800           0
     93589 TIP3     27891    TIP3     H2       HT       0.417000       1.00800           0
     93590 TIP3     27892    TIP3     OH2      OT      -0.834000       15.9994           0
     93591 TIP3     27892    TIP3     H1       HT       0.417000       1.00800           0
     93592 TIP3     27892    TIP3     H2       HT       0.417000       1.00800           0
     93593 TIP3     27893    TIP3     OH2      OT      -0.834000       15.9994           0
     93594 TIP3     27893    TIP3     H1       HT       0.417000       1.00800           0
     93595 TIP3     27893    TIP3     H2       HT       0.417000       1.00800           0
     93596 TIP3     27894    TIP3     OH2      OT      -0.834000       15.9994           0
     93597 TIP3     27894    TIP3     H1       HT       0.417000       1.00800           0
     93598 TIP3     27894    TIP3     H2       HT       0.417000       1.00800           0
     93599 TIP3     27895    TIP3     OH2      OT      -0.834000       15.9994           0
     93600 TIP3     27895    TIP3     H1       HT       0.417000       1.00800           0
     93601 TIP3     27895    TIP3     H2       HT       0.417000       1.00800           0
     93602 TIP3     27896    TIP3     OH2      OT      -0.834000       15.9994           0
     93603 TIP3     27896    TIP3     H1       HT       0.417000       1.00800           0
     93604 TIP3     27896    TIP3     H2       HT       0.417000       1.00800           0
     93605 TIP3     27897    TIP3     OH2      OT      -0.834000       15.9994           0
     93606 TIP3     27897    TIP3     H1       HT       0.417000       1.00800           0
     93607 TIP3     27897    TIP3     H2       HT       0.417000       1.00800           0
     93608 TIP3     27898    TIP3     OH2      OT      -0.834000       15.9994           0
     93609 TIP3     27898    TIP3     H1       HT       0.417000       1.00800           0
     93610 TIP3     27898    TIP3     H2       HT       0.417000       1.00800           0
     93611 TIP3     27899    TIP3     OH2      OT      -0.834000       15.9994           0
     93612 TIP3     27899    TIP3     H1       HT       0.417000       1.00800           0
     93613 TIP3     27899    TIP3     H2       HT       0.417000       1.00800           0
     93614 TIP3     27900    TIP3     OH2      OT      -0.834000       15.9994           0
     93615 TIP3     27900    TIP3     H1       HT       0.417000       1.00800           0
     93616 TIP3     27900    TIP3     H2       HT       0.417000       1.00800           0
     93617 TIP3     27901    TIP3     OH2      OT      -0.834000       15.9994           0
     93618 TIP3     27901    TIP3     H1       HT       0.417000       1.00800           0
     93619 TIP3     27901    TIP3     H2       HT       0.417000       1.00800           0
     93620 TIP3     27902    TIP3     OH2      OT      -0.834000       15.9994           0
     93621 TIP3     27902    TIP3     H1       HT       0.417000       1.00800           0
     93622 TIP3     27902    TIP3     H2       HT       0.417000       1.00800           0
     93623 TIP3     27903    TIP3     OH2      OT      -0.834000       15.9994           0
     93624 TIP3     27903    TIP3     H1       HT       0.417000       1.00800           0
     93625 TIP3     27903    TIP3     H2       HT       0.417000       1.00800           0
     93626 TIP3     27904    TIP3     OH2      OT      -0.834000       15.9994           0
     93627 TIP3     27904    TIP3     H1       HT       0.417000       1.00800           0
     93628 TIP3     27904    TIP3     H2       HT       0.417000       1.00800           0
     93629 TIP3     27905    TIP3     OH2      OT      -0.834000       15.9994           0
     93630 TIP3     27905    TIP3     H1       HT       0.417000       1.00800           0
     93631 TIP3     27905    TIP3     H2       HT       0.417000       1.00800           0
     93632 TIP3     27906    TIP3     OH2      OT      -0.834000       15.9994           0
     93633 TIP3     27906    TIP3     H1       HT       0.417000       1.00800           0
     93634 TIP3     27906    TIP3     H2       HT       0.417000       1.00800           0
     93635 TIP3     27907    TIP3     OH2      OT      -0.834000       15.9994           0
     93636 TIP3     27907    TIP3     H1       HT       0.417000       1.00800           0
     93637 TIP3     27907    TIP3     H2       HT       0.417000       1.00800           0
     93638 TIP3     27908    TIP3     OH2      OT      -0.834000       15.9994           0
     93639 TIP3     27908    TIP3     H1       HT       0.417000       1.00800           0
     93640 TIP3     27908    TIP3     H2       HT       0.417000       1.00800           0
     93641 TIP3     27909    TIP3     OH2      OT      -0.834000       15.9994           0
     93642 TIP3     27909    TIP3     H1       HT       0.417000       1.00800           0
     93643 TIP3     27909    TIP3     H2       HT       0.417000       1.00800           0
     93644 TIP3     27910    TIP3     OH2      OT      -0.834000       15.9994           0
     93645 TIP3     27910    TIP3     H1       HT       0.417000       1.00800           0
     93646 TIP3     27910    TIP3     H2       HT       0.417000       1.00800           0
     93647 TIP3     27911    TIP3     OH2      OT      -0.834000       15.9994           0
     93648 TIP3     27911    TIP3     H1       HT       0.417000       1.00800           0
     93649 TIP3     27911    TIP3     H2       HT       0.417000       1.00800           0
     93650 TIP3     27912    TIP3     OH2      OT      -0.834000       15.9994           0
     93651 TIP3     27912    TIP3     H1       HT       0.417000       1.00800           0
     93652 TIP3     27912    TIP3     H2       HT       0.417000       1.00800           0
     93653 TIP3     27913    TIP3     OH2      OT      -0.834000       15.9994           0
     93654 TIP3     27913    TIP3     H1       HT       0.417000       1.00800           0
     93655 TIP3     27913    TIP3     H2       HT       0.417000       1.00800           0
     93656 TIP3     27914    TIP3     OH2      OT      -0.834000       15.9994           0
     93657 TIP3     27914    TIP3     H1       HT       0.417000       1.00800           0
     93658 TIP3     27914    TIP3     H2       HT       0.417000       1.00800           0
     93659 TIP3     27915    TIP3     OH2      OT      -0.834000       15.9994           0
     93660 TIP3     27915    TIP3     H1       HT       0.417000       1.00800           0
     93661 TIP3     27915    TIP3     H2       HT       0.417000       1.00800           0
     93662 TIP3     27916    TIP3     OH2      OT      -0.834000       15.9994           0
     93663 TIP3     27916    TIP3     H1       HT       0.417000       1.00800           0
     93664 TIP3     27916    TIP3     H2       HT       0.417000       1.00800           0
     93665 TIP3     27917    TIP3     OH2      OT      -0.834000       15.9994           0
     93666 TIP3     27917    TIP3     H1       HT       0.417000       1.00800           0
     93667 TIP3     27917    TIP3     H2       HT       0.417000       1.00800           0
     93668 TIP3     27918    TIP3     OH2      OT      -0.834000       15.9994           0
     93669 TIP3     27918    TIP3     H1       HT       0.417000       1.00800           0
     93670 TIP3     27918    TIP3     H2       HT       0.417000       1.00800           0
     93671 TIP3     27919    TIP3     OH2      OT      -0.834000       15.9994           0
     93672 TIP3     27919    TIP3     H1       HT       0.417000       1.00800           0
     93673 TIP3     27919    TIP3     H2       HT       0.417000       1.00800           0
     93674 TIP3     27920    TIP3     OH2      OT      -0.834000       15.9994           0
     93675 TIP3     27920    TIP3     H1       HT       0.417000       1.00800           0
     93676 TIP3     27920    TIP3     H2       HT       0.417000       1.00800           0
     93677 TIP3     27921    TIP3     OH2      OT      -0.834000       15.9994           0
     93678 TIP3     27921    TIP3     H1       HT       0.417000       1.00800           0
     93679 TIP3     27921    TIP3     H2       HT       0.417000       1.00800           0
     93680 TIP3     27922    TIP3     OH2      OT      -0.834000       15.9994           0
     93681 TIP3     27922    TIP3     H1       HT       0.417000       1.00800           0
     93682 TIP3     27922    TIP3     H2       HT       0.417000       1.00800           0
     93683 TIP3     27923    TIP3     OH2      OT      -0.834000       15.9994           0
     93684 TIP3     27923    TIP3     H1       HT       0.417000       1.00800           0
     93685 TIP3     27923    TIP3     H2       HT       0.417000       1.00800           0
     93686 TIP3     27924    TIP3     OH2      OT      -0.834000       15.9994           0
     93687 TIP3     27924    TIP3     H1       HT       0.417000       1.00800           0
     93688 TIP3     27924    TIP3     H2       HT       0.417000       1.00800           0
     93689 TIP3     27925    TIP3     OH2      OT      -0.834000       15.9994           0
     93690 TIP3     27925    TIP3     H1       HT       0.417000       1.00800           0
     93691 TIP3     27925    TIP3     H2       HT       0.417000       1.00800           0
     93692 TIP3     27926    TIP3     OH2      OT      -0.834000       15.9994           0
     93693 TIP3     27926    TIP3     H1       HT       0.417000       1.00800           0
     93694 TIP3     27926    TIP3     H2       HT       0.417000       1.00800           0
     93695 TIP3     27927    TIP3     OH2      OT      -0.834000       15.9994           0
     93696 TIP3     27927    TIP3     H1       HT       0.417000       1.00800           0
     93697 TIP3     27927    TIP3     H2       HT       0.417000       1.00800           0
     93698 TIP3     27928    TIP3     OH2      OT      -0.834000       15.9994           0
     93699 TIP3     27928    TIP3     H1       HT       0.417000       1.00800           0
     93700 TIP3     27928    TIP3     H2       HT       0.417000       1.00800           0
     93701 TIP3     27929    TIP3     OH2      OT      -0.834000       15.9994           0
     93702 TIP3     27929    TIP3     H1       HT       0.417000       1.00800           0
     93703 TIP3     27929    TIP3     H2       HT       0.417000       1.00800           0
     93704 TIP3     27930    TIP3     OH2      OT      -0.834000       15.9994           0
     93705 TIP3     27930    TIP3     H1       HT       0.417000       1.00800           0
     93706 TIP3     27930    TIP3     H2       HT       0.417000       1.00800           0
     93707 TIP3     27931    TIP3     OH2      OT      -0.834000       15.9994           0
     93708 TIP3     27931    TIP3     H1       HT       0.417000       1.00800           0
     93709 TIP3     27931    TIP3     H2       HT       0.417000       1.00800           0
     93710 TIP3     27932    TIP3     OH2      OT      -0.834000       15.9994           0
     93711 TIP3     27932    TIP3     H1       HT       0.417000       1.00800           0
     93712 TIP3     27932    TIP3     H2       HT       0.417000       1.00800           0
     93713 TIP3     27933    TIP3     OH2      OT      -0.834000       15.9994           0
     93714 TIP3     27933    TIP3     H1       HT       0.417000       1.00800           0
     93715 TIP3     27933    TIP3     H2       HT       0.417000       1.00800           0
     93716 TIP3     27934    TIP3     OH2      OT      -0.834000       15.9994           0
     93717 TIP3     27934    TIP3     H1       HT       0.417000       1.00800           0
     93718 TIP3     27934    TIP3     H2       HT       0.417000       1.00800           0
     93719 TIP3     27935    TIP3     OH2      OT      -0.834000       15.9994           0
     93720 TIP3     27935    TIP3     H1       HT       0.417000       1.00800           0
     93721 TIP3     27935    TIP3     H2       HT       0.417000       1.00800           0
     93722 TIP3     27936    TIP3     OH2      OT      -0.834000       15.9994           0
     93723 TIP3     27936    TIP3     H1       HT       0.417000       1.00800           0
     93724 TIP3     27936    TIP3     H2       HT       0.417000       1.00800           0
     93725 TIP3     27937    TIP3     OH2      OT      -0.834000       15.9994           0
     93726 TIP3     27937    TIP3     H1       HT       0.417000       1.00800           0
     93727 TIP3     27937    TIP3     H2       HT       0.417000       1.00800           0
     93728 TIP3     27938    TIP3     OH2      OT      -0.834000       15.9994           0
     93729 TIP3     27938    TIP3     H1       HT       0.417000       1.00800           0
     93730 TIP3     27938    TIP3     H2       HT       0.417000       1.00800           0
     93731 TIP3     27939    TIP3     OH2      OT      -0.834000       15.9994           0
     93732 TIP3     27939    TIP3     H1       HT       0.417000       1.00800           0
     93733 TIP3     27939    TIP3     H2       HT       0.417000       1.00800           0
     93734 TIP3     27940    TIP3     OH2      OT      -0.834000       15.9994           0
     93735 TIP3     27940    TIP3     H1       HT       0.417000       1.00800           0
     93736 TIP3     27940    TIP3     H2       HT       0.417000       1.00800           0
     93737 TIP3     27941    TIP3     OH2      OT      -0.834000       15.9994           0
     93738 TIP3     27941    TIP3     H1       HT       0.417000       1.00800           0
     93739 TIP3     27941    TIP3     H2       HT       0.417000       1.00800           0
     93740 TIP3     27942    TIP3     OH2      OT      -0.834000       15.9994           0
     93741 TIP3     27942    TIP3     H1       HT       0.417000       1.00800           0
     93742 TIP3     27942    TIP3     H2       HT       0.417000       1.00800           0
     93743 TIP3     27943    TIP3     OH2      OT      -0.834000       15.9994           0
     93744 TIP3     27943    TIP3     H1       HT       0.417000       1.00800           0
     93745 TIP3     27943    TIP3     H2       HT       0.417000       1.00800           0
     93746 TIP3     27944    TIP3     OH2      OT      -0.834000       15.9994           0
     93747 TIP3     27944    TIP3     H1       HT       0.417000       1.00800           0
     93748 TIP3     27944    TIP3     H2       HT       0.417000       1.00800           0
     93749 TIP3     27945    TIP3     OH2      OT      -0.834000       15.9994           0
     93750 TIP3     27945    TIP3     H1       HT       0.417000       1.00800           0
     93751 TIP3     27945    TIP3     H2       HT       0.417000       1.00800           0
     93752 TIP3     27946    TIP3     OH2      OT      -0.834000       15.9994           0
     93753 TIP3     27946    TIP3     H1       HT       0.417000       1.00800           0
     93754 TIP3     27946    TIP3     H2       HT       0.417000       1.00800           0
     93755 TIP3     27947    TIP3     OH2      OT      -0.834000       15.9994           0
     93756 TIP3     27947    TIP3     H1       HT       0.417000       1.00800           0
     93757 TIP3     27947    TIP3     H2       HT       0.417000       1.00800           0
     93758 TIP3     27948    TIP3     OH2      OT      -0.834000       15.9994           0
     93759 TIP3     27948    TIP3     H1       HT       0.417000       1.00800           0
     93760 TIP3     27948    TIP3     H2       HT       0.417000       1.00800           0
     93761 TIP3     27949    TIP3     OH2      OT      -0.834000       15.9994           0
     93762 TIP3     27949    TIP3     H1       HT       0.417000       1.00800           0
     93763 TIP3     27949    TIP3     H2       HT       0.417000       1.00800           0
     93764 TIP3     27950    TIP3     OH2      OT      -0.834000       15.9994           0
     93765 TIP3     27950    TIP3     H1       HT       0.417000       1.00800           0
     93766 TIP3     27950    TIP3     H2       HT       0.417000       1.00800           0
     93767 TIP3     27951    TIP3     OH2      OT      -0.834000       15.9994           0
     93768 TIP3     27951    TIP3     H1       HT       0.417000       1.00800           0
     93769 TIP3     27951    TIP3     H2       HT       0.417000       1.00800           0
     93770 TIP3     27952    TIP3     OH2      OT      -0.834000       15.9994           0
     93771 TIP3     27952    TIP3     H1       HT       0.417000       1.00800           0
     93772 TIP3     27952    TIP3     H2       HT       0.417000       1.00800           0
     93773 TIP3     27953    TIP3     OH2      OT      -0.834000       15.9994           0
     93774 TIP3     27953    TIP3     H1       HT       0.417000       1.00800           0
     93775 TIP3     27953    TIP3     H2       HT       0.417000       1.00800           0
     93776 TIP3     27954    TIP3     OH2      OT      -0.834000       15.9994           0
     93777 TIP3     27954    TIP3     H1       HT       0.417000       1.00800           0
     93778 TIP3     27954    TIP3     H2       HT       0.417000       1.00800           0
     93779 TIP3     27955    TIP3     OH2      OT      -0.834000       15.9994           0
     93780 TIP3     27955    TIP3     H1       HT       0.417000       1.00800           0
     93781 TIP3     27955    TIP3     H2       HT       0.417000       1.00800           0
     93782 TIP3     27956    TIP3     OH2      OT      -0.834000       15.9994           0
     93783 TIP3     27956    TIP3     H1       HT       0.417000       1.00800           0
     93784 TIP3     27956    TIP3     H2       HT       0.417000       1.00800           0
     93785 TIP3     27957    TIP3     OH2      OT      -0.834000       15.9994           0
     93786 TIP3     27957    TIP3     H1       HT       0.417000       1.00800           0
     93787 TIP3     27957    TIP3     H2       HT       0.417000       1.00800           0
     93788 TIP3     27958    TIP3     OH2      OT      -0.834000       15.9994           0
     93789 TIP3     27958    TIP3     H1       HT       0.417000       1.00800           0
     93790 TIP3     27958    TIP3     H2       HT       0.417000       1.00800           0
     93791 TIP3     27959    TIP3     OH2      OT      -0.834000       15.9994           0
     93792 TIP3     27959    TIP3     H1       HT       0.417000       1.00800           0
     93793 TIP3     27959    TIP3     H2       HT       0.417000       1.00800           0
     93794 TIP3     27960    TIP3     OH2      OT      -0.834000       15.9994           0
     93795 TIP3     27960    TIP3     H1       HT       0.417000       1.00800           0
     93796 TIP3     27960    TIP3     H2       HT       0.417000       1.00800           0
     93797 TIP3     27961    TIP3     OH2      OT      -0.834000       15.9994           0
     93798 TIP3     27961    TIP3     H1       HT       0.417000       1.00800           0
     93799 TIP3     27961    TIP3     H2       HT       0.417000       1.00800           0
     93800 TIP3     27962    TIP3     OH2      OT      -0.834000       15.9994           0
     93801 TIP3     27962    TIP3     H1       HT       0.417000       1.00800           0
     93802 TIP3     27962    TIP3     H2       HT       0.417000       1.00800           0
     93803 TIP3     27963    TIP3     OH2      OT      -0.834000       15.9994           0
     93804 TIP3     27963    TIP3     H1       HT       0.417000       1.00800           0
     93805 TIP3     27963    TIP3     H2       HT       0.417000       1.00800           0
     93806 TIP3     27964    TIP3     OH2      OT      -0.834000       15.9994           0
     93807 TIP3     27964    TIP3     H1       HT       0.417000       1.00800           0
     93808 TIP3     27964    TIP3     H2       HT       0.417000       1.00800           0
     93809 TIP3     27965    TIP3     OH2      OT      -0.834000       15.9994           0
     93810 TIP3     27965    TIP3     H1       HT       0.417000       1.00800           0
     93811 TIP3     27965    TIP3     H2       HT       0.417000       1.00800           0
     93812 TIP3     27966    TIP3     OH2      OT      -0.834000       15.9994           0
     93813 TIP3     27966    TIP3     H1       HT       0.417000       1.00800           0
     93814 TIP3     27966    TIP3     H2       HT       0.417000       1.00800           0
     93815 TIP3     27967    TIP3     OH2      OT      -0.834000       15.9994           0
     93816 TIP3     27967    TIP3     H1       HT       0.417000       1.00800           0
     93817 TIP3     27967    TIP3     H2       HT       0.417000       1.00800           0
     93818 TIP3     27968    TIP3     OH2      OT      -0.834000       15.9994           0
     93819 TIP3     27968    TIP3     H1       HT       0.417000       1.00800           0
     93820 TIP3     27968    TIP3     H2       HT       0.417000       1.00800           0
     93821 TIP3     27969    TIP3     OH2      OT      -0.834000       15.9994           0
     93822 TIP3     27969    TIP3     H1       HT       0.417000       1.00800           0
     93823 TIP3     27969    TIP3     H2       HT       0.417000       1.00800           0
     93824 TIP3     27970    TIP3     OH2      OT      -0.834000       15.9994           0
     93825 TIP3     27970    TIP3     H1       HT       0.417000       1.00800           0
     93826 TIP3     27970    TIP3     H2       HT       0.417000       1.00800           0
     93827 TIP3     27971    TIP3     OH2      OT      -0.834000       15.9994           0
     93828 TIP3     27971    TIP3     H1       HT       0.417000       1.00800           0
     93829 TIP3     27971    TIP3     H2       HT       0.417000       1.00800           0
     93830 TIP3     27972    TIP3     OH2      OT      -0.834000       15.9994           0
     93831 TIP3     27972    TIP3     H1       HT       0.417000       1.00800           0
     93832 TIP3     27972    TIP3     H2       HT       0.417000       1.00800           0
     93833 TIP3     27973    TIP3     OH2      OT      -0.834000       15.9994           0
     93834 TIP3     27973    TIP3     H1       HT       0.417000       1.00800           0
     93835 TIP3     27973    TIP3     H2       HT       0.417000       1.00800           0
     93836 TIP3     27974    TIP3     OH2      OT      -0.834000       15.9994           0
     93837 TIP3     27974    TIP3     H1       HT       0.417000       1.00800           0
     93838 TIP3     27974    TIP3     H2       HT       0.417000       1.00800           0
     93839 TIP3     27975    TIP3     OH2      OT      -0.834000       15.9994           0
     93840 TIP3     27975    TIP3     H1       HT       0.417000       1.00800           0
     93841 TIP3     27975    TIP3     H2       HT       0.417000       1.00800           0
     93842 TIP3     27976    TIP3     OH2      OT      -0.834000       15.9994           0
     93843 TIP3     27976    TIP3     H1       HT       0.417000       1.00800           0
     93844 TIP3     27976    TIP3     H2       HT       0.417000       1.00800           0
     93845 TIP3     27977    TIP3     OH2      OT      -0.834000       15.9994           0
     93846 TIP3     27977    TIP3     H1       HT       0.417000       1.00800           0
     93847 TIP3     27977    TIP3     H2       HT       0.417000       1.00800           0
     93848 TIP3     27978    TIP3     OH2      OT      -0.834000       15.9994           0
     93849 TIP3     27978    TIP3     H1       HT       0.417000       1.00800           0
     93850 TIP3     27978    TIP3     H2       HT       0.417000       1.00800           0
     93851 TIP3     27979    TIP3     OH2      OT      -0.834000       15.9994           0
     93852 TIP3     27979    TIP3     H1       HT       0.417000       1.00800           0
     93853 TIP3     27979    TIP3     H2       HT       0.417000       1.00800           0
     93854 TIP3     27980    TIP3     OH2      OT      -0.834000       15.9994           0
     93855 TIP3     27980    TIP3     H1       HT       0.417000       1.00800           0
     93856 TIP3     27980    TIP3     H2       HT       0.417000       1.00800           0
     93857 TIP3     27981    TIP3     OH2      OT      -0.834000       15.9994           0
     93858 TIP3     27981    TIP3     H1       HT       0.417000       1.00800           0
     93859 TIP3     27981    TIP3     H2       HT       0.417000       1.00800           0
     93860 TIP3     27982    TIP3     OH2      OT      -0.834000       15.9994           0
     93861 TIP3     27982    TIP3     H1       HT       0.417000       1.00800           0
     93862 TIP3     27982    TIP3     H2       HT       0.417000       1.00800           0
     93863 TIP3     27983    TIP3     OH2      OT      -0.834000       15.9994           0
     93864 TIP3     27983    TIP3     H1       HT       0.417000       1.00800           0
     93865 TIP3     27983    TIP3     H2       HT       0.417000       1.00800           0
     93866 TIP3     27984    TIP3     OH2      OT      -0.834000       15.9994           0
     93867 TIP3     27984    TIP3     H1       HT       0.417000       1.00800           0
     93868 TIP3     27984    TIP3     H2       HT       0.417000       1.00800           0
     93869 TIP3     27985    TIP3     OH2      OT      -0.834000       15.9994           0
     93870 TIP3     27985    TIP3     H1       HT       0.417000       1.00800           0
     93871 TIP3     27985    TIP3     H2       HT       0.417000       1.00800           0
     93872 TIP3     27986    TIP3     OH2      OT      -0.834000       15.9994           0
     93873 TIP3     27986    TIP3     H1       HT       0.417000       1.00800           0
     93874 TIP3     27986    TIP3     H2       HT       0.417000       1.00800           0
     93875 TIP3     27987    TIP3     OH2      OT      -0.834000       15.9994           0
     93876 TIP3     27987    TIP3     H1       HT       0.417000       1.00800           0
     93877 TIP3     27987    TIP3     H2       HT       0.417000       1.00800           0
     93878 TIP3     27988    TIP3     OH2      OT      -0.834000       15.9994           0
     93879 TIP3     27988    TIP3     H1       HT       0.417000       1.00800           0
     93880 TIP3     27988    TIP3     H2       HT       0.417000       1.00800           0
     93881 TIP3     27989    TIP3     OH2      OT      -0.834000       15.9994           0
     93882 TIP3     27989    TIP3     H1       HT       0.417000       1.00800           0
     93883 TIP3     27989    TIP3     H2       HT       0.417000       1.00800           0
     93884 TIP3     27990    TIP3     OH2      OT      -0.834000       15.9994           0
     93885 TIP3     27990    TIP3     H1       HT       0.417000       1.00800           0
     93886 TIP3     27990    TIP3     H2       HT       0.417000       1.00800           0
     93887 TIP3     27991    TIP3     OH2      OT      -0.834000       15.9994           0
     93888 TIP3     27991    TIP3     H1       HT       0.417000       1.00800           0
     93889 TIP3     27991    TIP3     H2       HT       0.417000       1.00800           0
     93890 TIP3     27992    TIP3     OH2      OT      -0.834000       15.9994           0
     93891 TIP3     27992    TIP3     H1       HT       0.417000       1.00800           0
     93892 TIP3     27992    TIP3     H2       HT       0.417000       1.00800           0
     93893 TIP3     27993    TIP3     OH2      OT      -0.834000       15.9994           0
     93894 TIP3     27993    TIP3     H1       HT       0.417000       1.00800           0
     93895 TIP3     27993    TIP3     H2       HT       0.417000       1.00800           0
     93896 TIP3     27994    TIP3     OH2      OT      -0.834000       15.9994           0
     93897 TIP3     27994    TIP3     H1       HT       0.417000       1.00800           0
     93898 TIP3     27994    TIP3     H2       HT       0.417000       1.00800           0
     93899 TIP3     27995    TIP3     OH2      OT      -0.834000       15.9994           0
     93900 TIP3     27995    TIP3     H1       HT       0.417000       1.00800           0
     93901 TIP3     27995    TIP3     H2       HT       0.417000       1.00800           0
     93902 TIP3     27996    TIP3     OH2      OT      -0.834000       15.9994           0
     93903 TIP3     27996    TIP3     H1       HT       0.417000       1.00800           0
     93904 TIP3     27996    TIP3     H2       HT       0.417000       1.00800           0
     93905 TIP3     27997    TIP3     OH2      OT      -0.834000       15.9994           0
     93906 TIP3     27997    TIP3     H1       HT       0.417000       1.00800           0
     93907 TIP3     27997    TIP3     H2       HT       0.417000       1.00800           0
     93908 TIP3     27998    TIP3     OH2      OT      -0.834000       15.9994           0
     93909 TIP3     27998    TIP3     H1       HT       0.417000       1.00800           0
     93910 TIP3     27998    TIP3     H2       HT       0.417000       1.00800           0
     93911 TIP3     27999    TIP3     OH2      OT      -0.834000       15.9994           0
     93912 TIP3     27999    TIP3     H1       HT       0.417000       1.00800           0
     93913 TIP3     27999    TIP3     H2       HT       0.417000       1.00800           0
     93914 TIP3     28000    TIP3     OH2      OT      -0.834000       15.9994           0
     93915 TIP3     28000    TIP3     H1       HT       0.417000       1.00800           0
     93916 TIP3     28000    TIP3     H2       HT       0.417000       1.00800           0
     93917 TIP3     28001    TIP3     OH2      OT      -0.834000       15.9994           0
     93918 TIP3     28001    TIP3     H1       HT       0.417000       1.00800           0
     93919 TIP3     28001    TIP3     H2       HT       0.417000       1.00800           0
     93920 TIP3     28002    TIP3     OH2      OT      -0.834000       15.9994           0
     93921 TIP3     28002    TIP3     H1       HT       0.417000       1.00800           0
     93922 TIP3     28002    TIP3     H2       HT       0.417000       1.00800           0
     93923 TIP3     28003    TIP3     OH2      OT      -0.834000       15.9994           0
     93924 TIP3     28003    TIP3     H1       HT       0.417000       1.00800           0
     93925 TIP3     28003    TIP3     H2       HT       0.417000       1.00800           0
     93926 TIP3     28004    TIP3     OH2      OT      -0.834000       15.9994           0
     93927 TIP3     28004    TIP3     H1       HT       0.417000       1.00800           0
     93928 TIP3     28004    TIP3     H2       HT       0.417000       1.00800           0
     93929 TIP3     28005    TIP3     OH2      OT      -0.834000       15.9994           0
     93930 TIP3     28005    TIP3     H1       HT       0.417000       1.00800           0
     93931 TIP3     28005    TIP3     H2       HT       0.417000       1.00800           0
     93932 TIP3     28006    TIP3     OH2      OT      -0.834000       15.9994           0
     93933 TIP3     28006    TIP3     H1       HT       0.417000       1.00800           0
     93934 TIP3     28006    TIP3     H2       HT       0.417000       1.00800           0
     93935 TIP3     28007    TIP3     OH2      OT      -0.834000       15.9994           0
     93936 TIP3     28007    TIP3     H1       HT       0.417000       1.00800           0
     93937 TIP3     28007    TIP3     H2       HT       0.417000       1.00800           0
     93938 TIP3     28008    TIP3     OH2      OT      -0.834000       15.9994           0
     93939 TIP3     28008    TIP3     H1       HT       0.417000       1.00800           0
     93940 TIP3     28008    TIP3     H2       HT       0.417000       1.00800           0
     93941 TIP3     28009    TIP3     OH2      OT      -0.834000       15.9994           0
     93942 TIP3     28009    TIP3     H1       HT       0.417000       1.00800           0
     93943 TIP3     28009    TIP3     H2       HT       0.417000       1.00800           0
     93944 TIP3     28010    TIP3     OH2      OT      -0.834000       15.9994           0
     93945 TIP3     28010    TIP3     H1       HT       0.417000       1.00800           0
     93946 TIP3     28010    TIP3     H2       HT       0.417000       1.00800           0
     93947 TIP3     28011    TIP3     OH2      OT      -0.834000       15.9994           0
     93948 TIP3     28011    TIP3     H1       HT       0.417000       1.00800           0
     93949 TIP3     28011    TIP3     H2       HT       0.417000       1.00800           0
     93950 TIP3     28012    TIP3     OH2      OT      -0.834000       15.9994           0
     93951 TIP3     28012    TIP3     H1       HT       0.417000       1.00800           0
     93952 TIP3     28012    TIP3     H2       HT       0.417000       1.00800           0
     93953 TIP3     28013    TIP3     OH2      OT      -0.834000       15.9994           0
     93954 TIP3     28013    TIP3     H1       HT       0.417000       1.00800           0
     93955 TIP3     28013    TIP3     H2       HT       0.417000       1.00800           0
     93956 TIP3     28014    TIP3     OH2      OT      -0.834000       15.9994           0
     93957 TIP3     28014    TIP3     H1       HT       0.417000       1.00800           0
     93958 TIP3     28014    TIP3     H2       HT       0.417000       1.00800           0
     93959 TIP3     28015    TIP3     OH2      OT      -0.834000       15.9994           0
     93960 TIP3     28015    TIP3     H1       HT       0.417000       1.00800           0
     93961 TIP3     28015    TIP3     H2       HT       0.417000       1.00800           0
     93962 TIP3     28016    TIP3     OH2      OT      -0.834000       15.9994           0
     93963 TIP3     28016    TIP3     H1       HT       0.417000       1.00800           0
     93964 TIP3     28016    TIP3     H2       HT       0.417000       1.00800           0
     93965 TIP3     28017    TIP3     OH2      OT      -0.834000       15.9994           0
     93966 TIP3     28017    TIP3     H1       HT       0.417000       1.00800           0
     93967 TIP3     28017    TIP3     H2       HT       0.417000       1.00800           0
     93968 TIP3     28018    TIP3     OH2      OT      -0.834000       15.9994           0
     93969 TIP3     28018    TIP3     H1       HT       0.417000       1.00800           0
     93970 TIP3     28018    TIP3     H2       HT       0.417000       1.00800           0
     93971 TIP3     28019    TIP3     OH2      OT      -0.834000       15.9994           0
     93972 TIP3     28019    TIP3     H1       HT       0.417000       1.00800           0
     93973 TIP3     28019    TIP3     H2       HT       0.417000       1.00800           0
     93974 TIP3     28020    TIP3     OH2      OT      -0.834000       15.9994           0
     93975 TIP3     28020    TIP3     H1       HT       0.417000       1.00800           0
     93976 TIP3     28020    TIP3     H2       HT       0.417000       1.00800           0
     93977 TIP3     28021    TIP3     OH2      OT      -0.834000       15.9994           0
     93978 TIP3     28021    TIP3     H1       HT       0.417000       1.00800           0
     93979 TIP3     28021    TIP3     H2       HT       0.417000       1.00800           0
     93980 TIP3     28022    TIP3     OH2      OT      -0.834000       15.9994           0
     93981 TIP3     28022    TIP3     H1       HT       0.417000       1.00800           0
     93982 TIP3     28022    TIP3     H2       HT       0.417000       1.00800           0
     93983 TIP3     28023    TIP3     OH2      OT      -0.834000       15.9994           0
     93984 TIP3     28023    TIP3     H1       HT       0.417000       1.00800           0
     93985 TIP3     28023    TIP3     H2       HT       0.417000       1.00800           0
     93986 TIP3     28024    TIP3     OH2      OT      -0.834000       15.9994           0
     93987 TIP3     28024    TIP3     H1       HT       0.417000       1.00800           0
     93988 TIP3     28024    TIP3     H2       HT       0.417000       1.00800           0
     93989 TIP3     28025    TIP3     OH2      OT      -0.834000       15.9994           0
     93990 TIP3     28025    TIP3     H1       HT       0.417000       1.00800           0
     93991 TIP3     28025    TIP3     H2       HT       0.417000       1.00800           0
     93992 TIP3     28026    TIP3     OH2      OT      -0.834000       15.9994           0
     93993 TIP3     28026    TIP3     H1       HT       0.417000       1.00800           0
     93994 TIP3     28026    TIP3     H2       HT       0.417000       1.00800           0
     93995 TIP3     28027    TIP3     OH2      OT      -0.834000       15.9994           0
     93996 TIP3     28027    TIP3     H1       HT       0.417000       1.00800           0
     93997 TIP3     28027    TIP3     H2       HT       0.417000       1.00800           0
     93998 TIP3     28028    TIP3     OH2      OT      -0.834000       15.9994           0
     93999 TIP3     28028    TIP3     H1       HT       0.417000       1.00800           0
     94000 TIP3     28028    TIP3     H2       HT       0.417000       1.00800           0
     94001 TIP3     28029    TIP3     OH2      OT      -0.834000       15.9994           0
     94002 TIP3     28029    TIP3     H1       HT       0.417000       1.00800           0
     94003 TIP3     28029    TIP3     H2       HT       0.417000       1.00800           0
     94004 TIP3     28030    TIP3     OH2      OT      -0.834000       15.9994           0
     94005 TIP3     28030    TIP3     H1       HT       0.417000       1.00800           0
     94006 TIP3     28030    TIP3     H2       HT       0.417000       1.00800           0
     94007 TIP3     28031    TIP3     OH2      OT      -0.834000       15.9994           0
     94008 TIP3     28031    TIP3     H1       HT       0.417000       1.00800           0
     94009 TIP3     28031    TIP3     H2       HT       0.417000       1.00800           0
     94010 TIP3     28032    TIP3     OH2      OT      -0.834000       15.9994           0
     94011 TIP3     28032    TIP3     H1       HT       0.417000       1.00800           0
     94012 TIP3     28032    TIP3     H2       HT       0.417000       1.00800           0
     94013 TIP3     28033    TIP3     OH2      OT      -0.834000       15.9994           0
     94014 TIP3     28033    TIP3     H1       HT       0.417000       1.00800           0
     94015 TIP3     28033    TIP3     H2       HT       0.417000       1.00800           0
     94016 TIP3     28034    TIP3     OH2      OT      -0.834000       15.9994           0
     94017 TIP3     28034    TIP3     H1       HT       0.417000       1.00800           0
     94018 TIP3     28034    TIP3     H2       HT       0.417000       1.00800           0
     94019 TIP3     28035    TIP3     OH2      OT      -0.834000       15.9994           0
     94020 TIP3     28035    TIP3     H1       HT       0.417000       1.00800           0
     94021 TIP3     28035    TIP3     H2       HT       0.417000       1.00800           0
     94022 TIP3     28036    TIP3     OH2      OT      -0.834000       15.9994           0
     94023 TIP3     28036    TIP3     H1       HT       0.417000       1.00800           0
     94024 TIP3     28036    TIP3     H2       HT       0.417000       1.00800           0
     94025 TIP3     28037    TIP3     OH2      OT      -0.834000       15.9994           0
     94026 TIP3     28037    TIP3     H1       HT       0.417000       1.00800           0
     94027 TIP3     28037    TIP3     H2       HT       0.417000       1.00800           0
     94028 TIP3     28038    TIP3     OH2      OT      -0.834000       15.9994           0
     94029 TIP3     28038    TIP3     H1       HT       0.417000       1.00800           0
     94030 TIP3     28038    TIP3     H2       HT       0.417000       1.00800           0
     94031 TIP3     28039    TIP3     OH2      OT      -0.834000       15.9994           0
     94032 TIP3     28039    TIP3     H1       HT       0.417000       1.00800           0
     94033 TIP3     28039    TIP3     H2       HT       0.417000       1.00800           0
     94034 TIP3     28040    TIP3     OH2      OT      -0.834000       15.9994           0
     94035 TIP3     28040    TIP3     H1       HT       0.417000       1.00800           0
     94036 TIP3     28040    TIP3     H2       HT       0.417000       1.00800           0
     94037 TIP3     28041    TIP3     OH2      OT      -0.834000       15.9994           0
     94038 TIP3     28041    TIP3     H1       HT       0.417000       1.00800           0
     94039 TIP3     28041    TIP3     H2       HT       0.417000       1.00800           0
     94040 TIP3     28042    TIP3     OH2      OT      -0.834000       15.9994           0
     94041 TIP3     28042    TIP3     H1       HT       0.417000       1.00800           0
     94042 TIP3     28042    TIP3     H2       HT       0.417000       1.00800           0
     94043 TIP3     28043    TIP3     OH2      OT      -0.834000       15.9994           0
     94044 TIP3     28043    TIP3     H1       HT       0.417000       1.00800           0
     94045 TIP3     28043    TIP3     H2       HT       0.417000       1.00800           0
     94046 TIP3     28044    TIP3     OH2      OT      -0.834000       15.9994           0
     94047 TIP3     28044    TIP3     H1       HT       0.417000       1.00800           0
     94048 TIP3     28044    TIP3     H2       HT       0.417000       1.00800           0
     94049 TIP3     28045    TIP3     OH2      OT      -0.834000       15.9994           0
     94050 TIP3     28045    TIP3     H1       HT       0.417000       1.00800           0
     94051 TIP3     28045    TIP3     H2       HT       0.417000       1.00800           0
     94052 TIP3     28046    TIP3     OH2      OT      -0.834000       15.9994           0
     94053 TIP3     28046    TIP3     H1       HT       0.417000       1.00800           0
     94054 TIP3     28046    TIP3     H2       HT       0.417000       1.00800           0
     94055 TIP3     28047    TIP3     OH2      OT      -0.834000       15.9994           0
     94056 TIP3     28047    TIP3     H1       HT       0.417000       1.00800           0
     94057 TIP3     28047    TIP3     H2       HT       0.417000       1.00800           0
     94058 TIP3     28048    TIP3     OH2      OT      -0.834000       15.9994           0
     94059 TIP3     28048    TIP3     H1       HT       0.417000       1.00800           0
     94060 TIP3     28048    TIP3     H2       HT       0.417000       1.00800           0
     94061 TIP3     28049    TIP3     OH2      OT      -0.834000       15.9994           0
     94062 TIP3     28049    TIP3     H1       HT       0.417000       1.00800           0
     94063 TIP3     28049    TIP3     H2       HT       0.417000       1.00800           0
     94064 TIP3     28050    TIP3     OH2      OT      -0.834000       15.9994           0
     94065 TIP3     28050    TIP3     H1       HT       0.417000       1.00800           0
     94066 TIP3     28050    TIP3     H2       HT       0.417000       1.00800           0
     94067 TIP3     28051    TIP3     OH2      OT      -0.834000       15.9994           0
     94068 TIP3     28051    TIP3     H1       HT       0.417000       1.00800           0
     94069 TIP3     28051    TIP3     H2       HT       0.417000       1.00800           0
     94070 TIP3     28052    TIP3     OH2      OT      -0.834000       15.9994           0
     94071 TIP3     28052    TIP3     H1       HT       0.417000       1.00800           0
     94072 TIP3     28052    TIP3     H2       HT       0.417000       1.00800           0
     94073 TIP3     28053    TIP3     OH2      OT      -0.834000       15.9994           0
     94074 TIP3     28053    TIP3     H1       HT       0.417000       1.00800           0
     94075 TIP3     28053    TIP3     H2       HT       0.417000       1.00800           0
     94076 TIP3     28054    TIP3     OH2      OT      -0.834000       15.9994           0
     94077 TIP3     28054    TIP3     H1       HT       0.417000       1.00800           0
     94078 TIP3     28054    TIP3     H2       HT       0.417000       1.00800           0
     94079 TIP3     28055    TIP3     OH2      OT      -0.834000       15.9994           0
     94080 TIP3     28055    TIP3     H1       HT       0.417000       1.00800           0
     94081 TIP3     28055    TIP3     H2       HT       0.417000       1.00800           0
     94082 TIP3     28056    TIP3     OH2      OT      -0.834000       15.9994           0
     94083 TIP3     28056    TIP3     H1       HT       0.417000       1.00800           0
     94084 TIP3     28056    TIP3     H2       HT       0.417000       1.00800           0
     94085 TIP3     28057    TIP3     OH2      OT      -0.834000       15.9994           0
     94086 TIP3     28057    TIP3     H1       HT       0.417000       1.00800           0
     94087 TIP3     28057    TIP3     H2       HT       0.417000       1.00800           0
     94088 TIP3     28058    TIP3     OH2      OT      -0.834000       15.9994           0
     94089 TIP3     28058    TIP3     H1       HT       0.417000       1.00800           0
     94090 TIP3     28058    TIP3     H2       HT       0.417000       1.00800           0
     94091 TIP3     28059    TIP3     OH2      OT      -0.834000       15.9994           0
     94092 TIP3     28059    TIP3     H1       HT       0.417000       1.00800           0
     94093 TIP3     28059    TIP3     H2       HT       0.417000       1.00800           0
     94094 TIP3     28060    TIP3     OH2      OT      -0.834000       15.9994           0
     94095 TIP3     28060    TIP3     H1       HT       0.417000       1.00800           0
     94096 TIP3     28060    TIP3     H2       HT       0.417000       1.00800           0
     94097 TIP3     28061    TIP3     OH2      OT      -0.834000       15.9994           0
     94098 TIP3     28061    TIP3     H1       HT       0.417000       1.00800           0
     94099 TIP3     28061    TIP3     H2       HT       0.417000       1.00800           0
     94100 TIP3     28062    TIP3     OH2      OT      -0.834000       15.9994           0
     94101 TIP3     28062    TIP3     H1       HT       0.417000       1.00800           0
     94102 TIP3     28062    TIP3     H2       HT       0.417000       1.00800           0
     94103 TIP3     28063    TIP3     OH2      OT      -0.834000       15.9994           0
     94104 TIP3     28063    TIP3     H1       HT       0.417000       1.00800           0
     94105 TIP3     28063    TIP3     H2       HT       0.417000       1.00800           0
     94106 TIP3     28064    TIP3     OH2      OT      -0.834000       15.9994           0
     94107 TIP3     28064    TIP3     H1       HT       0.417000       1.00800           0
     94108 TIP3     28064    TIP3     H2       HT       0.417000       1.00800           0
     94109 TIP3     28065    TIP3     OH2      OT      -0.834000       15.9994           0
     94110 TIP3     28065    TIP3     H1       HT       0.417000       1.00800           0
     94111 TIP3     28065    TIP3     H2       HT       0.417000       1.00800           0
     94112 TIP3     28066    TIP3     OH2      OT      -0.834000       15.9994           0
     94113 TIP3     28066    TIP3     H1       HT       0.417000       1.00800           0
     94114 TIP3     28066    TIP3     H2       HT       0.417000       1.00800           0
     94115 TIP3     28067    TIP3     OH2      OT      -0.834000       15.9994           0
     94116 TIP3     28067    TIP3     H1       HT       0.417000       1.00800           0
     94117 TIP3     28067    TIP3     H2       HT       0.417000       1.00800           0
     94118 TIP3     28068    TIP3     OH2      OT      -0.834000       15.9994           0
     94119 TIP3     28068    TIP3     H1       HT       0.417000       1.00800           0
     94120 TIP3     28068    TIP3     H2       HT       0.417000       1.00800           0
     94121 TIP3     28069    TIP3     OH2      OT      -0.834000       15.9994           0
     94122 TIP3     28069    TIP3     H1       HT       0.417000       1.00800           0
     94123 TIP3     28069    TIP3     H2       HT       0.417000       1.00800           0
     94124 TIP3     28070    TIP3     OH2      OT      -0.834000       15.9994           0
     94125 TIP3     28070    TIP3     H1       HT       0.417000       1.00800           0
     94126 TIP3     28070    TIP3     H2       HT       0.417000       1.00800           0
     94127 TIP3     28071    TIP3     OH2      OT      -0.834000       15.9994           0
     94128 TIP3     28071    TIP3     H1       HT       0.417000       1.00800           0
     94129 TIP3     28071    TIP3     H2       HT       0.417000       1.00800           0
     94130 TIP3     28072    TIP3     OH2      OT      -0.834000       15.9994           0
     94131 TIP3     28072    TIP3     H1       HT       0.417000       1.00800           0
     94132 TIP3     28072    TIP3     H2       HT       0.417000       1.00800           0
     94133 TIP3     28073    TIP3     OH2      OT      -0.834000       15.9994           0
     94134 TIP3     28073    TIP3     H1       HT       0.417000       1.00800           0
     94135 TIP3     28073    TIP3     H2       HT       0.417000       1.00800           0
     94136 TIP3     28074    TIP3     OH2      OT      -0.834000       15.9994           0
     94137 TIP3     28074    TIP3     H1       HT       0.417000       1.00800           0
     94138 TIP3     28074    TIP3     H2       HT       0.417000       1.00800           0
     94139 TIP3     28075    TIP3     OH2      OT      -0.834000       15.9994           0
     94140 TIP3     28075    TIP3     H1       HT       0.417000       1.00800           0
     94141 TIP3     28075    TIP3     H2       HT       0.417000       1.00800           0
     94142 TIP3     28076    TIP3     OH2      OT      -0.834000       15.9994           0
     94143 TIP3     28076    TIP3     H1       HT       0.417000       1.00800           0
     94144 TIP3     28076    TIP3     H2       HT       0.417000       1.00800           0
     94145 TIP3     28077    TIP3     OH2      OT      -0.834000       15.9994           0
     94146 TIP3     28077    TIP3     H1       HT       0.417000       1.00800           0
     94147 TIP3     28077    TIP3     H2       HT       0.417000       1.00800           0
     94148 TIP3     28078    TIP3     OH2      OT      -0.834000       15.9994           0
     94149 TIP3     28078    TIP3     H1       HT       0.417000       1.00800           0
     94150 TIP3     28078    TIP3     H2       HT       0.417000       1.00800           0
     94151 TIP3     28079    TIP3     OH2      OT      -0.834000       15.9994           0
     94152 TIP3     28079    TIP3     H1       HT       0.417000       1.00800           0
     94153 TIP3     28079    TIP3     H2       HT       0.417000       1.00800           0
     94154 TIP3     28080    TIP3     OH2      OT      -0.834000       15.9994           0
     94155 TIP3     28080    TIP3     H1       HT       0.417000       1.00800           0
     94156 TIP3     28080    TIP3     H2       HT       0.417000       1.00800           0
     94157 TIP3     28081    TIP3     OH2      OT      -0.834000       15.9994           0
     94158 TIP3     28081    TIP3     H1       HT       0.417000       1.00800           0
     94159 TIP3     28081    TIP3     H2       HT       0.417000       1.00800           0
     94160 TIP3     28082    TIP3     OH2      OT      -0.834000       15.9994           0
     94161 TIP3     28082    TIP3     H1       HT       0.417000       1.00800           0
     94162 TIP3     28082    TIP3     H2       HT       0.417000       1.00800           0
     94163 TIP3     28083    TIP3     OH2      OT      -0.834000       15.9994           0
     94164 TIP3     28083    TIP3     H1       HT       0.417000       1.00800           0
     94165 TIP3     28083    TIP3     H2       HT       0.417000       1.00800           0
     94166 TIP3     28084    TIP3     OH2      OT      -0.834000       15.9994           0
     94167 TIP3     28084    TIP3     H1       HT       0.417000       1.00800           0
     94168 TIP3     28084    TIP3     H2       HT       0.417000       1.00800           0
     94169 TIP3     28085    TIP3     OH2      OT      -0.834000       15.9994           0
     94170 TIP3     28085    TIP3     H1       HT       0.417000       1.00800           0
     94171 TIP3     28085    TIP3     H2       HT       0.417000       1.00800           0
     94172 TIP3     28086    TIP3     OH2      OT      -0.834000       15.9994           0
     94173 TIP3     28086    TIP3     H1       HT       0.417000       1.00800           0
     94174 TIP3     28086    TIP3     H2       HT       0.417000       1.00800           0
     94175 TIP3     28087    TIP3     OH2      OT      -0.834000       15.9994           0
     94176 TIP3     28087    TIP3     H1       HT       0.417000       1.00800           0
     94177 TIP3     28087    TIP3     H2       HT       0.417000       1.00800           0
     94178 TIP3     28088    TIP3     OH2      OT      -0.834000       15.9994           0
     94179 TIP3     28088    TIP3     H1       HT       0.417000       1.00800           0
     94180 TIP3     28088    TIP3     H2       HT       0.417000       1.00800           0
     94181 TIP3     28089    TIP3     OH2      OT      -0.834000       15.9994           0
     94182 TIP3     28089    TIP3     H1       HT       0.417000       1.00800           0
     94183 TIP3     28089    TIP3     H2       HT       0.417000       1.00800           0
     94184 TIP3     28090    TIP3     OH2      OT      -0.834000       15.9994           0
     94185 TIP3     28090    TIP3     H1       HT       0.417000       1.00800           0
     94186 TIP3     28090    TIP3     H2       HT       0.417000       1.00800           0
     94187 TIP3     28091    TIP3     OH2      OT      -0.834000       15.9994           0
     94188 TIP3     28091    TIP3     H1       HT       0.417000       1.00800           0
     94189 TIP3     28091    TIP3     H2       HT       0.417000       1.00800           0
     94190 TIP3     28092    TIP3     OH2      OT      -0.834000       15.9994           0
     94191 TIP3     28092    TIP3     H1       HT       0.417000       1.00800           0
     94192 TIP3     28092    TIP3     H2       HT       0.417000       1.00800           0
     94193 TIP3     28093    TIP3     OH2      OT      -0.834000       15.9994           0
     94194 TIP3     28093    TIP3     H1       HT       0.417000       1.00800           0
     94195 TIP3     28093    TIP3     H2       HT       0.417000       1.00800           0
     94196 TIP3     28094    TIP3     OH2      OT      -0.834000       15.9994           0
     94197 TIP3     28094    TIP3     H1       HT       0.417000       1.00800           0
     94198 TIP3     28094    TIP3     H2       HT       0.417000       1.00800           0
     94199 TIP3     28095    TIP3     OH2      OT      -0.834000       15.9994           0
     94200 TIP3     28095    TIP3     H1       HT       0.417000       1.00800           0
     94201 TIP3     28095    TIP3     H2       HT       0.417000       1.00800           0
     94202 TIP3     28096    TIP3     OH2      OT      -0.834000       15.9994           0
     94203 TIP3     28096    TIP3     H1       HT       0.417000       1.00800           0
     94204 TIP3     28096    TIP3     H2       HT       0.417000       1.00800           0
     94205 TIP3     28097    TIP3     OH2      OT      -0.834000       15.9994           0
     94206 TIP3     28097    TIP3     H1       HT       0.417000       1.00800           0
     94207 TIP3     28097    TIP3     H2       HT       0.417000       1.00800           0
     94208 TIP3     28098    TIP3     OH2      OT      -0.834000       15.9994           0
     94209 TIP3     28098    TIP3     H1       HT       0.417000       1.00800           0
     94210 TIP3     28098    TIP3     H2       HT       0.417000       1.00800           0
     94211 TIP3     28099    TIP3     OH2      OT      -0.834000       15.9994           0
     94212 TIP3     28099    TIP3     H1       HT       0.417000       1.00800           0
     94213 TIP3     28099    TIP3     H2       HT       0.417000       1.00800           0
     94214 TIP3     28100    TIP3     OH2      OT      -0.834000       15.9994           0
     94215 TIP3     28100    TIP3     H1       HT       0.417000       1.00800           0
     94216 TIP3     28100    TIP3     H2       HT       0.417000       1.00800           0
     94217 TIP3     28101    TIP3     OH2      OT      -0.834000       15.9994           0
     94218 TIP3     28101    TIP3     H1       HT       0.417000       1.00800           0
     94219 TIP3     28101    TIP3     H2       HT       0.417000       1.00800           0
     94220 TIP3     28102    TIP3     OH2      OT      -0.834000       15.9994           0
     94221 TIP3     28102    TIP3     H1       HT       0.417000       1.00800           0
     94222 TIP3     28102    TIP3     H2       HT       0.417000       1.00800           0
     94223 TIP3     28103    TIP3     OH2      OT      -0.834000       15.9994           0
     94224 TIP3     28103    TIP3     H1       HT       0.417000       1.00800           0
     94225 TIP3     28103    TIP3     H2       HT       0.417000       1.00800           0
     94226 TIP3     28104    TIP3     OH2      OT      -0.834000       15.9994           0
     94227 TIP3     28104    TIP3     H1       HT       0.417000       1.00800           0
     94228 TIP3     28104    TIP3     H2       HT       0.417000       1.00800           0
     94229 TIP3     28105    TIP3     OH2      OT      -0.834000       15.9994           0
     94230 TIP3     28105    TIP3     H1       HT       0.417000       1.00800           0
     94231 TIP3     28105    TIP3     H2       HT       0.417000       1.00800           0
     94232 TIP3     28106    TIP3     OH2      OT      -0.834000       15.9994           0
     94233 TIP3     28106    TIP3     H1       HT       0.417000       1.00800           0
     94234 TIP3     28106    TIP3     H2       HT       0.417000       1.00800           0
     94235 TIP3     28107    TIP3     OH2      OT      -0.834000       15.9994           0
     94236 TIP3     28107    TIP3     H1       HT       0.417000       1.00800           0
     94237 TIP3     28107    TIP3     H2       HT       0.417000       1.00800           0
     94238 TIP3     28108    TIP3     OH2      OT      -0.834000       15.9994           0
     94239 TIP3     28108    TIP3     H1       HT       0.417000       1.00800           0
     94240 TIP3     28108    TIP3     H2       HT       0.417000       1.00800           0
     94241 TIP3     28109    TIP3     OH2      OT      -0.834000       15.9994           0
     94242 TIP3     28109    TIP3     H1       HT       0.417000       1.00800           0
     94243 TIP3     28109    TIP3     H2       HT       0.417000       1.00800           0
     94244 TIP3     28110    TIP3     OH2      OT      -0.834000       15.9994           0
     94245 TIP3     28110    TIP3     H1       HT       0.417000       1.00800           0
     94246 TIP3     28110    TIP3     H2       HT       0.417000       1.00800           0
     94247 TIP3     28111    TIP3     OH2      OT      -0.834000       15.9994           0
     94248 TIP3     28111    TIP3     H1       HT       0.417000       1.00800           0
     94249 TIP3     28111    TIP3     H2       HT       0.417000       1.00800           0
     94250 TIP3     28112    TIP3     OH2      OT      -0.834000       15.9994           0
     94251 TIP3     28112    TIP3     H1       HT       0.417000       1.00800           0
     94252 TIP3     28112    TIP3     H2       HT       0.417000       1.00800           0
     94253 TIP3     28113    TIP3     OH2      OT      -0.834000       15.9994           0
     94254 TIP3     28113    TIP3     H1       HT       0.417000       1.00800           0
     94255 TIP3     28113    TIP3     H2       HT       0.417000       1.00800           0
     94256 TIP3     28114    TIP3     OH2      OT      -0.834000       15.9994           0
     94257 TIP3     28114    TIP3     H1       HT       0.417000       1.00800           0
     94258 TIP3     28114    TIP3     H2       HT       0.417000       1.00800           0
     94259 TIP3     28115    TIP3     OH2      OT      -0.834000       15.9994           0
     94260 TIP3     28115    TIP3     H1       HT       0.417000       1.00800           0
     94261 TIP3     28115    TIP3     H2       HT       0.417000       1.00800           0
     94262 TIP3     28116    TIP3     OH2      OT      -0.834000       15.9994           0
     94263 TIP3     28116    TIP3     H1       HT       0.417000       1.00800           0
     94264 TIP3     28116    TIP3     H2       HT       0.417000       1.00800           0
     94265 TIP3     28117    TIP3     OH2      OT      -0.834000       15.9994           0
     94266 TIP3     28117    TIP3     H1       HT       0.417000       1.00800           0
     94267 TIP3     28117    TIP3     H2       HT       0.417000       1.00800           0
     94268 TIP3     28118    TIP3     OH2      OT      -0.834000       15.9994           0
     94269 TIP3     28118    TIP3     H1       HT       0.417000       1.00800           0
     94270 TIP3     28118    TIP3     H2       HT       0.417000       1.00800           0
     94271 TIP3     28119    TIP3     OH2      OT      -0.834000       15.9994           0
     94272 TIP3     28119    TIP3     H1       HT       0.417000       1.00800           0
     94273 TIP3     28119    TIP3     H2       HT       0.417000       1.00800           0
     94274 TIP3     28120    TIP3     OH2      OT      -0.834000       15.9994           0
     94275 TIP3     28120    TIP3     H1       HT       0.417000       1.00800           0
     94276 TIP3     28120    TIP3     H2       HT       0.417000       1.00800           0
     94277 TIP3     28121    TIP3     OH2      OT      -0.834000       15.9994           0
     94278 TIP3     28121    TIP3     H1       HT       0.417000       1.00800           0
     94279 TIP3     28121    TIP3     H2       HT       0.417000       1.00800           0
     94280 TIP3     28122    TIP3     OH2      OT      -0.834000       15.9994           0
     94281 TIP3     28122    TIP3     H1       HT       0.417000       1.00800           0
     94282 TIP3     28122    TIP3     H2       HT       0.417000       1.00800           0
     94283 TIP3     28123    TIP3     OH2      OT      -0.834000       15.9994           0
     94284 TIP3     28123    TIP3     H1       HT       0.417000       1.00800           0
     94285 TIP3     28123    TIP3     H2       HT       0.417000       1.00800           0
     94286 TIP3     28124    TIP3     OH2      OT      -0.834000       15.9994           0
     94287 TIP3     28124    TIP3     H1       HT       0.417000       1.00800           0
     94288 TIP3     28124    TIP3     H2       HT       0.417000       1.00800           0
     94289 TIP3     28125    TIP3     OH2      OT      -0.834000       15.9994           0
     94290 TIP3     28125    TIP3     H1       HT       0.417000       1.00800           0
     94291 TIP3     28125    TIP3     H2       HT       0.417000       1.00800           0
     94292 TIP3     28126    TIP3     OH2      OT      -0.834000       15.9994           0
     94293 TIP3     28126    TIP3     H1       HT       0.417000       1.00800           0
     94294 TIP3     28126    TIP3     H2       HT       0.417000       1.00800           0
     94295 TIP3     28127    TIP3     OH2      OT      -0.834000       15.9994           0
     94296 TIP3     28127    TIP3     H1       HT       0.417000       1.00800           0
     94297 TIP3     28127    TIP3     H2       HT       0.417000       1.00800           0
     94298 TIP3     28128    TIP3     OH2      OT      -0.834000       15.9994           0
     94299 TIP3     28128    TIP3     H1       HT       0.417000       1.00800           0
     94300 TIP3     28128    TIP3     H2       HT       0.417000       1.00800           0
     94301 TIP3     28129    TIP3     OH2      OT      -0.834000       15.9994           0
     94302 TIP3     28129    TIP3     H1       HT       0.417000       1.00800           0
     94303 TIP3     28129    TIP3     H2       HT       0.417000       1.00800           0
     94304 TIP3     28130    TIP3     OH2      OT      -0.834000       15.9994           0
     94305 TIP3     28130    TIP3     H1       HT       0.417000       1.00800           0
     94306 TIP3     28130    TIP3     H2       HT       0.417000       1.00800           0
     94307 TIP3     28131    TIP3     OH2      OT      -0.834000       15.9994           0
     94308 TIP3     28131    TIP3     H1       HT       0.417000       1.00800           0
     94309 TIP3     28131    TIP3     H2       HT       0.417000       1.00800           0
     94310 TIP3     28132    TIP3     OH2      OT      -0.834000       15.9994           0
     94311 TIP3     28132    TIP3     H1       HT       0.417000       1.00800           0
     94312 TIP3     28132    TIP3     H2       HT       0.417000       1.00800           0
     94313 TIP3     28133    TIP3     OH2      OT      -0.834000       15.9994           0
     94314 TIP3     28133    TIP3     H1       HT       0.417000       1.00800           0
     94315 TIP3     28133    TIP3     H2       HT       0.417000       1.00800           0
     94316 TIP3     28134    TIP3     OH2      OT      -0.834000       15.9994           0
     94317 TIP3     28134    TIP3     H1       HT       0.417000       1.00800           0
     94318 TIP3     28134    TIP3     H2       HT       0.417000       1.00800           0
     94319 TIP3     28135    TIP3     OH2      OT      -0.834000       15.9994           0
     94320 TIP3     28135    TIP3     H1       HT       0.417000       1.00800           0
     94321 TIP3     28135    TIP3     H2       HT       0.417000       1.00800           0
     94322 TIP3     28136    TIP3     OH2      OT      -0.834000       15.9994           0
     94323 TIP3     28136    TIP3     H1       HT       0.417000       1.00800           0
     94324 TIP3     28136    TIP3     H2       HT       0.417000       1.00800           0
     94325 TIP3     28137    TIP3     OH2      OT      -0.834000       15.9994           0
     94326 TIP3     28137    TIP3     H1       HT       0.417000       1.00800           0
     94327 TIP3     28137    TIP3     H2       HT       0.417000       1.00800           0
     94328 TIP3     28138    TIP3     OH2      OT      -0.834000       15.9994           0
     94329 TIP3     28138    TIP3     H1       HT       0.417000       1.00800           0
     94330 TIP3     28138    TIP3     H2       HT       0.417000       1.00800           0
     94331 TIP3     28139    TIP3     OH2      OT      -0.834000       15.9994           0
     94332 TIP3     28139    TIP3     H1       HT       0.417000       1.00800           0
     94333 TIP3     28139    TIP3     H2       HT       0.417000       1.00800           0
     94334 TIP3     28140    TIP3     OH2      OT      -0.834000       15.9994           0
     94335 TIP3     28140    TIP3     H1       HT       0.417000       1.00800           0
     94336 TIP3     28140    TIP3     H2       HT       0.417000       1.00800           0
     94337 TIP3     28141    TIP3     OH2      OT      -0.834000       15.9994           0
     94338 TIP3     28141    TIP3     H1       HT       0.417000       1.00800           0
     94339 TIP3     28141    TIP3     H2       HT       0.417000       1.00800           0
     94340 TIP3     28142    TIP3     OH2      OT      -0.834000       15.9994           0
     94341 TIP3     28142    TIP3     H1       HT       0.417000       1.00800           0
     94342 TIP3     28142    TIP3     H2       HT       0.417000       1.00800           0
     94343 TIP3     28143    TIP3     OH2      OT      -0.834000       15.9994           0
     94344 TIP3     28143    TIP3     H1       HT       0.417000       1.00800           0
     94345 TIP3     28143    TIP3     H2       HT       0.417000       1.00800           0
     94346 TIP3     28144    TIP3     OH2      OT      -0.834000       15.9994           0
     94347 TIP3     28144    TIP3     H1       HT       0.417000       1.00800           0
     94348 TIP3     28144    TIP3     H2       HT       0.417000       1.00800           0
     94349 TIP3     28145    TIP3     OH2      OT      -0.834000       15.9994           0
     94350 TIP3     28145    TIP3     H1       HT       0.417000       1.00800           0
     94351 TIP3     28145    TIP3     H2       HT       0.417000       1.00800           0
     94352 TIP3     28146    TIP3     OH2      OT      -0.834000       15.9994           0
     94353 TIP3     28146    TIP3     H1       HT       0.417000       1.00800           0
     94354 TIP3     28146    TIP3     H2       HT       0.417000       1.00800           0
     94355 TIP3     28147    TIP3     OH2      OT      -0.834000       15.9994           0
     94356 TIP3     28147    TIP3     H1       HT       0.417000       1.00800           0
     94357 TIP3     28147    TIP3     H2       HT       0.417000       1.00800           0
     94358 TIP3     28148    TIP3     OH2      OT      -0.834000       15.9994           0
     94359 TIP3     28148    TIP3     H1       HT       0.417000       1.00800           0
     94360 TIP3     28148    TIP3     H2       HT       0.417000       1.00800           0
     94361 TIP3     28149    TIP3     OH2      OT      -0.834000       15.9994           0
     94362 TIP3     28149    TIP3     H1       HT       0.417000       1.00800           0
     94363 TIP3     28149    TIP3     H2       HT       0.417000       1.00800           0
     94364 TIP3     28150    TIP3     OH2      OT      -0.834000       15.9994           0
     94365 TIP3     28150    TIP3     H1       HT       0.417000       1.00800           0
     94366 TIP3     28150    TIP3     H2       HT       0.417000       1.00800           0
     94367 TIP3     28151    TIP3     OH2      OT      -0.834000       15.9994           0
     94368 TIP3     28151    TIP3     H1       HT       0.417000       1.00800           0
     94369 TIP3     28151    TIP3     H2       HT       0.417000       1.00800           0
     94370 TIP3     28152    TIP3     OH2      OT      -0.834000       15.9994           0
     94371 TIP3     28152    TIP3     H1       HT       0.417000       1.00800           0
     94372 TIP3     28152    TIP3     H2       HT       0.417000       1.00800           0
     94373 TIP3     28153    TIP3     OH2      OT      -0.834000       15.9994           0
     94374 TIP3     28153    TIP3     H1       HT       0.417000       1.00800           0
     94375 TIP3     28153    TIP3     H2       HT       0.417000       1.00800           0
     94376 TIP3     28154    TIP3     OH2      OT      -0.834000       15.9994           0
     94377 TIP3     28154    TIP3     H1       HT       0.417000       1.00800           0
     94378 TIP3     28154    TIP3     H2       HT       0.417000       1.00800           0
     94379 TIP3     28155    TIP3     OH2      OT      -0.834000       15.9994           0
     94380 TIP3     28155    TIP3     H1       HT       0.417000       1.00800           0
     94381 TIP3     28155    TIP3     H2       HT       0.417000       1.00800           0
     94382 TIP3     28156    TIP3     OH2      OT      -0.834000       15.9994           0
     94383 TIP3     28156    TIP3     H1       HT       0.417000       1.00800           0
     94384 TIP3     28156    TIP3     H2       HT       0.417000       1.00800           0
     94385 TIP3     28157    TIP3     OH2      OT      -0.834000       15.9994           0
     94386 TIP3     28157    TIP3     H1       HT       0.417000       1.00800           0
     94387 TIP3     28157    TIP3     H2       HT       0.417000       1.00800           0
     94388 TIP3     28158    TIP3     OH2      OT      -0.834000       15.9994           0
     94389 TIP3     28158    TIP3     H1       HT       0.417000       1.00800           0
     94390 TIP3     28158    TIP3     H2       HT       0.417000       1.00800           0
     94391 TIP3     28159    TIP3     OH2      OT      -0.834000       15.9994           0
     94392 TIP3     28159    TIP3     H1       HT       0.417000       1.00800           0
     94393 TIP3     28159    TIP3     H2       HT       0.417000       1.00800           0
     94394 TIP3     28160    TIP3     OH2      OT      -0.834000       15.9994           0
     94395 TIP3     28160    TIP3     H1       HT       0.417000       1.00800           0
     94396 TIP3     28160    TIP3     H2       HT       0.417000       1.00800           0
     94397 TIP3     28161    TIP3     OH2      OT      -0.834000       15.9994           0
     94398 TIP3     28161    TIP3     H1       HT       0.417000       1.00800           0
     94399 TIP3     28161    TIP3     H2       HT       0.417000       1.00800           0
     94400 TIP3     28162    TIP3     OH2      OT      -0.834000       15.9994           0
     94401 TIP3     28162    TIP3     H1       HT       0.417000       1.00800           0
     94402 TIP3     28162    TIP3     H2       HT       0.417000       1.00800           0
     94403 TIP3     28163    TIP3     OH2      OT      -0.834000       15.9994           0
     94404 TIP3     28163    TIP3     H1       HT       0.417000       1.00800           0
     94405 TIP3     28163    TIP3     H2       HT       0.417000       1.00800           0
     94406 TIP3     28164    TIP3     OH2      OT      -0.834000       15.9994           0
     94407 TIP3     28164    TIP3     H1       HT       0.417000       1.00800           0
     94408 TIP3     28164    TIP3     H2       HT       0.417000       1.00800           0
     94409 TIP3     28165    TIP3     OH2      OT      -0.834000       15.9994           0
     94410 TIP3     28165    TIP3     H1       HT       0.417000       1.00800           0
     94411 TIP3     28165    TIP3     H2       HT       0.417000       1.00800           0
     94412 TIP3     28166    TIP3     OH2      OT      -0.834000       15.9994           0
     94413 TIP3     28166    TIP3     H1       HT       0.417000       1.00800           0
     94414 TIP3     28166    TIP3     H2       HT       0.417000       1.00800           0
     94415 TIP3     28167    TIP3     OH2      OT      -0.834000       15.9994           0
     94416 TIP3     28167    TIP3     H1       HT       0.417000       1.00800           0
     94417 TIP3     28167    TIP3     H2       HT       0.417000       1.00800           0
     94418 TIP3     28168    TIP3     OH2      OT      -0.834000       15.9994           0
     94419 TIP3     28168    TIP3     H1       HT       0.417000       1.00800           0
     94420 TIP3     28168    TIP3     H2       HT       0.417000       1.00800           0
     94421 TIP3     28169    TIP3     OH2      OT      -0.834000       15.9994           0
     94422 TIP3     28169    TIP3     H1       HT       0.417000       1.00800           0
     94423 TIP3     28169    TIP3     H2       HT       0.417000       1.00800           0
     94424 TIP3     28170    TIP3     OH2      OT      -0.834000       15.9994           0
     94425 TIP3     28170    TIP3     H1       HT       0.417000       1.00800           0
     94426 TIP3     28170    TIP3     H2       HT       0.417000       1.00800           0
     94427 TIP3     28171    TIP3     OH2      OT      -0.834000       15.9994           0
     94428 TIP3     28171    TIP3     H1       HT       0.417000       1.00800           0
     94429 TIP3     28171    TIP3     H2       HT       0.417000       1.00800           0
     94430 TIP3     28172    TIP3     OH2      OT      -0.834000       15.9994           0
     94431 TIP3     28172    TIP3     H1       HT       0.417000       1.00800           0
     94432 TIP3     28172    TIP3     H2       HT       0.417000       1.00800           0
     94433 TIP3     28173    TIP3     OH2      OT      -0.834000       15.9994           0
     94434 TIP3     28173    TIP3     H1       HT       0.417000       1.00800           0
     94435 TIP3     28173    TIP3     H2       HT       0.417000       1.00800           0
     94436 TIP3     28174    TIP3     OH2      OT      -0.834000       15.9994           0
     94437 TIP3     28174    TIP3     H1       HT       0.417000       1.00800           0
     94438 TIP3     28174    TIP3     H2       HT       0.417000       1.00800           0
     94439 TIP3     28175    TIP3     OH2      OT      -0.834000       15.9994           0
     94440 TIP3     28175    TIP3     H1       HT       0.417000       1.00800           0
     94441 TIP3     28175    TIP3     H2       HT       0.417000       1.00800           0
     94442 TIP3     28176    TIP3     OH2      OT      -0.834000       15.9994           0
     94443 TIP3     28176    TIP3     H1       HT       0.417000       1.00800           0
     94444 TIP3     28176    TIP3     H2       HT       0.417000       1.00800           0
     94445 TIP3     28177    TIP3     OH2      OT      -0.834000       15.9994           0
     94446 TIP3     28177    TIP3     H1       HT       0.417000       1.00800           0
     94447 TIP3     28177    TIP3     H2       HT       0.417000       1.00800           0
     94448 TIP3     28178    TIP3     OH2      OT      -0.834000       15.9994           0
     94449 TIP3     28178    TIP3     H1       HT       0.417000       1.00800           0
     94450 TIP3     28178    TIP3     H2       HT       0.417000       1.00800           0
     94451 TIP3     28179    TIP3     OH2      OT      -0.834000       15.9994           0
     94452 TIP3     28179    TIP3     H1       HT       0.417000       1.00800           0
     94453 TIP3     28179    TIP3     H2       HT       0.417000       1.00800           0
     94454 TIP3     28180    TIP3     OH2      OT      -0.834000       15.9994           0
     94455 TIP3     28180    TIP3     H1       HT       0.417000       1.00800           0
     94456 TIP3     28180    TIP3     H2       HT       0.417000       1.00800           0
     94457 TIP3     28181    TIP3     OH2      OT      -0.834000       15.9994           0
     94458 TIP3     28181    TIP3     H1       HT       0.417000       1.00800           0
     94459 TIP3     28181    TIP3     H2       HT       0.417000       1.00800           0
     94460 TIP3     28182    TIP3     OH2      OT      -0.834000       15.9994           0
     94461 TIP3     28182    TIP3     H1       HT       0.417000       1.00800           0
     94462 TIP3     28182    TIP3     H2       HT       0.417000       1.00800           0
     94463 TIP3     28183    TIP3     OH2      OT      -0.834000       15.9994           0
     94464 TIP3     28183    TIP3     H1       HT       0.417000       1.00800           0
     94465 TIP3     28183    TIP3     H2       HT       0.417000       1.00800           0
     94466 TIP3     28184    TIP3     OH2      OT      -0.834000       15.9994           0
     94467 TIP3     28184    TIP3     H1       HT       0.417000       1.00800           0
     94468 TIP3     28184    TIP3     H2       HT       0.417000       1.00800           0
     94469 TIP3     28185    TIP3     OH2      OT      -0.834000       15.9994           0
     94470 TIP3     28185    TIP3     H1       HT       0.417000       1.00800           0
     94471 TIP3     28185    TIP3     H2       HT       0.417000       1.00800           0
     94472 TIP3     28186    TIP3     OH2      OT      -0.834000       15.9994           0
     94473 TIP3     28186    TIP3     H1       HT       0.417000       1.00800           0
     94474 TIP3     28186    TIP3     H2       HT       0.417000       1.00800           0
     94475 TIP3     28187    TIP3     OH2      OT      -0.834000       15.9994           0
     94476 TIP3     28187    TIP3     H1       HT       0.417000       1.00800           0
     94477 TIP3     28187    TIP3     H2       HT       0.417000       1.00800           0
     94478 TIP3     28188    TIP3     OH2      OT      -0.834000       15.9994           0
     94479 TIP3     28188    TIP3     H1       HT       0.417000       1.00800           0
     94480 TIP3     28188    TIP3     H2       HT       0.417000       1.00800           0
     94481 TIP3     28189    TIP3     OH2      OT      -0.834000       15.9994           0
     94482 TIP3     28189    TIP3     H1       HT       0.417000       1.00800           0
     94483 TIP3     28189    TIP3     H2       HT       0.417000       1.00800           0
     94484 TIP3     28190    TIP3     OH2      OT      -0.834000       15.9994           0
     94485 TIP3     28190    TIP3     H1       HT       0.417000       1.00800           0
     94486 TIP3     28190    TIP3     H2       HT       0.417000       1.00800           0
     94487 TIP3     28191    TIP3     OH2      OT      -0.834000       15.9994           0
     94488 TIP3     28191    TIP3     H1       HT       0.417000       1.00800           0
     94489 TIP3     28191    TIP3     H2       HT       0.417000       1.00800           0
     94490 TIP3     28192    TIP3     OH2      OT      -0.834000       15.9994           0
     94491 TIP3     28192    TIP3     H1       HT       0.417000       1.00800           0
     94492 TIP3     28192    TIP3     H2       HT       0.417000       1.00800           0
     94493 TIP3     28193    TIP3     OH2      OT      -0.834000       15.9994           0
     94494 TIP3     28193    TIP3     H1       HT       0.417000       1.00800           0
     94495 TIP3     28193    TIP3     H2       HT       0.417000       1.00800           0
     94496 TIP3     28194    TIP3     OH2      OT      -0.834000       15.9994           0
     94497 TIP3     28194    TIP3     H1       HT       0.417000       1.00800           0
     94498 TIP3     28194    TIP3     H2       HT       0.417000       1.00800           0
     94499 TIP3     28195    TIP3     OH2      OT      -0.834000       15.9994           0
     94500 TIP3     28195    TIP3     H1       HT       0.417000       1.00800           0
     94501 TIP3     28195    TIP3     H2       HT       0.417000       1.00800           0
     94502 TIP3     28196    TIP3     OH2      OT      -0.834000       15.9994           0
     94503 TIP3     28196    TIP3     H1       HT       0.417000       1.00800           0
     94504 TIP3     28196    TIP3     H2       HT       0.417000       1.00800           0
     94505 TIP3     28197    TIP3     OH2      OT      -0.834000       15.9994           0
     94506 TIP3     28197    TIP3     H1       HT       0.417000       1.00800           0
     94507 TIP3     28197    TIP3     H2       HT       0.417000       1.00800           0
     94508 TIP3     28198    TIP3     OH2      OT      -0.834000       15.9994           0
     94509 TIP3     28198    TIP3     H1       HT       0.417000       1.00800           0
     94510 TIP3     28198    TIP3     H2       HT       0.417000       1.00800           0
     94511 TIP3     28199    TIP3     OH2      OT      -0.834000       15.9994           0
     94512 TIP3     28199    TIP3     H1       HT       0.417000       1.00800           0
     94513 TIP3     28199    TIP3     H2       HT       0.417000       1.00800           0
     94514 TIP3     28200    TIP3     OH2      OT      -0.834000       15.9994           0
     94515 TIP3     28200    TIP3     H1       HT       0.417000       1.00800           0
     94516 TIP3     28200    TIP3     H2       HT       0.417000       1.00800           0
     94517 TIP3     28201    TIP3     OH2      OT      -0.834000       15.9994           0
     94518 TIP3     28201    TIP3     H1       HT       0.417000       1.00800           0
     94519 TIP3     28201    TIP3     H2       HT       0.417000       1.00800           0
     94520 TIP3     28202    TIP3     OH2      OT      -0.834000       15.9994           0
     94521 TIP3     28202    TIP3     H1       HT       0.417000       1.00800           0
     94522 TIP3     28202    TIP3     H2       HT       0.417000       1.00800           0
     94523 TIP3     28203    TIP3     OH2      OT      -0.834000       15.9994           0
     94524 TIP3     28203    TIP3     H1       HT       0.417000       1.00800           0
     94525 TIP3     28203    TIP3     H2       HT       0.417000       1.00800           0
     94526 TIP3     28204    TIP3     OH2      OT      -0.834000       15.9994           0
     94527 TIP3     28204    TIP3     H1       HT       0.417000       1.00800           0
     94528 TIP3     28204    TIP3     H2       HT       0.417000       1.00800           0
     94529 TIP3     28205    TIP3     OH2      OT      -0.834000       15.9994           0
     94530 TIP3     28205    TIP3     H1       HT       0.417000       1.00800           0
     94531 TIP3     28205    TIP3     H2       HT       0.417000       1.00800           0
     94532 TIP3     28206    TIP3     OH2      OT      -0.834000       15.9994           0
     94533 TIP3     28206    TIP3     H1       HT       0.417000       1.00800           0
     94534 TIP3     28206    TIP3     H2       HT       0.417000       1.00800           0
     94535 TIP3     28207    TIP3     OH2      OT      -0.834000       15.9994           0
     94536 TIP3     28207    TIP3     H1       HT       0.417000       1.00800           0
     94537 TIP3     28207    TIP3     H2       HT       0.417000       1.00800           0
     94538 TIP3     28208    TIP3     OH2      OT      -0.834000       15.9994           0
     94539 TIP3     28208    TIP3     H1       HT       0.417000       1.00800           0
     94540 TIP3     28208    TIP3     H2       HT       0.417000       1.00800           0
     94541 TIP3     28209    TIP3     OH2      OT      -0.834000       15.9994           0
     94542 TIP3     28209    TIP3     H1       HT       0.417000       1.00800           0
     94543 TIP3     28209    TIP3     H2       HT       0.417000       1.00800           0
     94544 TIP3     28210    TIP3     OH2      OT      -0.834000       15.9994           0
     94545 TIP3     28210    TIP3     H1       HT       0.417000       1.00800           0
     94546 TIP3     28210    TIP3     H2       HT       0.417000       1.00800           0
     94547 TIP3     28211    TIP3     OH2      OT      -0.834000       15.9994           0
     94548 TIP3     28211    TIP3     H1       HT       0.417000       1.00800           0
     94549 TIP3     28211    TIP3     H2       HT       0.417000       1.00800           0
     94550 TIP3     28212    TIP3     OH2      OT      -0.834000       15.9994           0
     94551 TIP3     28212    TIP3     H1       HT       0.417000       1.00800           0
     94552 TIP3     28212    TIP3     H2       HT       0.417000       1.00800           0
     94553 TIP3     28213    TIP3     OH2      OT      -0.834000       15.9994           0
     94554 TIP3     28213    TIP3     H1       HT       0.417000       1.00800           0
     94555 TIP3     28213    TIP3     H2       HT       0.417000       1.00800           0
     94556 TIP3     28214    TIP3     OH2      OT      -0.834000       15.9994           0
     94557 TIP3     28214    TIP3     H1       HT       0.417000       1.00800           0
     94558 TIP3     28214    TIP3     H2       HT       0.417000       1.00800           0
     94559 TIP3     28215    TIP3     OH2      OT      -0.834000       15.9994           0
     94560 TIP3     28215    TIP3     H1       HT       0.417000       1.00800           0
     94561 TIP3     28215    TIP3     H2       HT       0.417000       1.00800           0
     94562 TIP3     28216    TIP3     OH2      OT      -0.834000       15.9994           0
     94563 TIP3     28216    TIP3     H1       HT       0.417000       1.00800           0
     94564 TIP3     28216    TIP3     H2       HT       0.417000       1.00800           0
     94565 TIP3     28217    TIP3     OH2      OT      -0.834000       15.9994           0
     94566 TIP3     28217    TIP3     H1       HT       0.417000       1.00800           0
     94567 TIP3     28217    TIP3     H2       HT       0.417000       1.00800           0
     94568 TIP3     28218    TIP3     OH2      OT      -0.834000       15.9994           0
     94569 TIP3     28218    TIP3     H1       HT       0.417000       1.00800           0
     94570 TIP3     28218    TIP3     H2       HT       0.417000       1.00800           0
     94571 TIP3     28219    TIP3     OH2      OT      -0.834000       15.9994           0
     94572 TIP3     28219    TIP3     H1       HT       0.417000       1.00800           0
     94573 TIP3     28219    TIP3     H2       HT       0.417000       1.00800           0
     94574 TIP3     28220    TIP3     OH2      OT      -0.834000       15.9994           0
     94575 TIP3     28220    TIP3     H1       HT       0.417000       1.00800           0
     94576 TIP3     28220    TIP3     H2       HT       0.417000       1.00800           0
     94577 TIP3     28221    TIP3     OH2      OT      -0.834000       15.9994           0
     94578 TIP3     28221    TIP3     H1       HT       0.417000       1.00800           0
     94579 TIP3     28221    TIP3     H2       HT       0.417000       1.00800           0
     94580 TIP3     28222    TIP3     OH2      OT      -0.834000       15.9994           0
     94581 TIP3     28222    TIP3     H1       HT       0.417000       1.00800           0
     94582 TIP3     28222    TIP3     H2       HT       0.417000       1.00800           0
     94583 TIP3     28223    TIP3     OH2      OT      -0.834000       15.9994           0
     94584 TIP3     28223    TIP3     H1       HT       0.417000       1.00800           0
     94585 TIP3     28223    TIP3     H2       HT       0.417000       1.00800           0
     94586 TIP3     28224    TIP3     OH2      OT      -0.834000       15.9994           0
     94587 TIP3     28224    TIP3     H1       HT       0.417000       1.00800           0
     94588 TIP3     28224    TIP3     H2       HT       0.417000       1.00800           0
     94589 TIP3     28225    TIP3     OH2      OT      -0.834000       15.9994           0
     94590 TIP3     28225    TIP3     H1       HT       0.417000       1.00800           0
     94591 TIP3     28225    TIP3     H2       HT       0.417000       1.00800           0
     94592 TIP3     28226    TIP3     OH2      OT      -0.834000       15.9994           0
     94593 TIP3     28226    TIP3     H1       HT       0.417000       1.00800           0
     94594 TIP3     28226    TIP3     H2       HT       0.417000       1.00800           0
     94595 TIP3     28227    TIP3     OH2      OT      -0.834000       15.9994           0
     94596 TIP3     28227    TIP3     H1       HT       0.417000       1.00800           0
     94597 TIP3     28227    TIP3     H2       HT       0.417000       1.00800           0
     94598 TIP3     28228    TIP3     OH2      OT      -0.834000       15.9994           0
     94599 TIP3     28228    TIP3     H1       HT       0.417000       1.00800           0
     94600 TIP3     28228    TIP3     H2       HT       0.417000       1.00800           0
     94601 TIP3     28229    TIP3     OH2      OT      -0.834000       15.9994           0
     94602 TIP3     28229    TIP3     H1       HT       0.417000       1.00800           0
     94603 TIP3     28229    TIP3     H2       HT       0.417000       1.00800           0
     94604 TIP3     28230    TIP3     OH2      OT      -0.834000       15.9994           0
     94605 TIP3     28230    TIP3     H1       HT       0.417000       1.00800           0
     94606 TIP3     28230    TIP3     H2       HT       0.417000       1.00800           0
     94607 TIP3     28231    TIP3     OH2      OT      -0.834000       15.9994           0
     94608 TIP3     28231    TIP3     H1       HT       0.417000       1.00800           0
     94609 TIP3     28231    TIP3     H2       HT       0.417000       1.00800           0
     94610 TIP3     28232    TIP3     OH2      OT      -0.834000       15.9994           0
     94611 TIP3     28232    TIP3     H1       HT       0.417000       1.00800           0
     94612 TIP3     28232    TIP3     H2       HT       0.417000       1.00800           0
     94613 TIP3     28233    TIP3     OH2      OT      -0.834000       15.9994           0
     94614 TIP3     28233    TIP3     H1       HT       0.417000       1.00800           0
     94615 TIP3     28233    TIP3     H2       HT       0.417000       1.00800           0
     94616 TIP3     28234    TIP3     OH2      OT      -0.834000       15.9994           0
     94617 TIP3     28234    TIP3     H1       HT       0.417000       1.00800           0
     94618 TIP3     28234    TIP3     H2       HT       0.417000       1.00800           0
     94619 TIP3     28235    TIP3     OH2      OT      -0.834000       15.9994           0
     94620 TIP3     28235    TIP3     H1       HT       0.417000       1.00800           0
     94621 TIP3     28235    TIP3     H2       HT       0.417000       1.00800           0
     94622 TIP3     28236    TIP3     OH2      OT      -0.834000       15.9994           0
     94623 TIP3     28236    TIP3     H1       HT       0.417000       1.00800           0
     94624 TIP3     28236    TIP3     H2       HT       0.417000       1.00800           0
     94625 TIP3     28237    TIP3     OH2      OT      -0.834000       15.9994           0
     94626 TIP3     28237    TIP3     H1       HT       0.417000       1.00800           0
     94627 TIP3     28237    TIP3     H2       HT       0.417000       1.00800           0
     94628 TIP3     28238    TIP3     OH2      OT      -0.834000       15.9994           0
     94629 TIP3     28238    TIP3     H1       HT       0.417000       1.00800           0
     94630 TIP3     28238    TIP3     H2       HT       0.417000       1.00800           0
     94631 TIP3     28239    TIP3     OH2      OT      -0.834000       15.9994           0
     94632 TIP3     28239    TIP3     H1       HT       0.417000       1.00800           0
     94633 TIP3     28239    TIP3     H2       HT       0.417000       1.00800           0
     94634 TIP3     28240    TIP3     OH2      OT      -0.834000       15.9994           0
     94635 TIP3     28240    TIP3     H1       HT       0.417000       1.00800           0
     94636 TIP3     28240    TIP3     H2       HT       0.417000       1.00800           0
     94637 TIP3     28241    TIP3     OH2      OT      -0.834000       15.9994           0
     94638 TIP3     28241    TIP3     H1       HT       0.417000       1.00800           0
     94639 TIP3     28241    TIP3     H2       HT       0.417000       1.00800           0
     94640 TIP3     28242    TIP3     OH2      OT      -0.834000       15.9994           0
     94641 TIP3     28242    TIP3     H1       HT       0.417000       1.00800           0
     94642 TIP3     28242    TIP3     H2       HT       0.417000       1.00800           0
     94643 TIP3     28243    TIP3     OH2      OT      -0.834000       15.9994           0
     94644 TIP3     28243    TIP3     H1       HT       0.417000       1.00800           0
     94645 TIP3     28243    TIP3     H2       HT       0.417000       1.00800           0
     94646 TIP3     28244    TIP3     OH2      OT      -0.834000       15.9994           0
     94647 TIP3     28244    TIP3     H1       HT       0.417000       1.00800           0
     94648 TIP3     28244    TIP3     H2       HT       0.417000       1.00800           0
     94649 TIP3     28245    TIP3     OH2      OT      -0.834000       15.9994           0
     94650 TIP3     28245    TIP3     H1       HT       0.417000       1.00800           0
     94651 TIP3     28245    TIP3     H2       HT       0.417000       1.00800           0
     94652 TIP3     28246    TIP3     OH2      OT      -0.834000       15.9994           0
     94653 TIP3     28246    TIP3     H1       HT       0.417000       1.00800           0
     94654 TIP3     28246    TIP3     H2       HT       0.417000       1.00800           0
     94655 TIP3     28247    TIP3     OH2      OT      -0.834000       15.9994           0
     94656 TIP3     28247    TIP3     H1       HT       0.417000       1.00800           0
     94657 TIP3     28247    TIP3     H2       HT       0.417000       1.00800           0
     94658 TIP3     28248    TIP3     OH2      OT      -0.834000       15.9994           0
     94659 TIP3     28248    TIP3     H1       HT       0.417000       1.00800           0
     94660 TIP3     28248    TIP3     H2       HT       0.417000       1.00800           0
     94661 TIP3     28249    TIP3     OH2      OT      -0.834000       15.9994           0
     94662 TIP3     28249    TIP3     H1       HT       0.417000       1.00800           0
     94663 TIP3     28249    TIP3     H2       HT       0.417000       1.00800           0
     94664 TIP3     28250    TIP3     OH2      OT      -0.834000       15.9994           0
     94665 TIP3     28250    TIP3     H1       HT       0.417000       1.00800           0
     94666 TIP3     28250    TIP3     H2       HT       0.417000       1.00800           0
     94667 TIP3     28251    TIP3     OH2      OT      -0.834000       15.9994           0
     94668 TIP3     28251    TIP3     H1       HT       0.417000       1.00800           0
     94669 TIP3     28251    TIP3     H2       HT       0.417000       1.00800           0
     94670 TIP3     28252    TIP3     OH2      OT      -0.834000       15.9994           0
     94671 TIP3     28252    TIP3     H1       HT       0.417000       1.00800           0
     94672 TIP3     28252    TIP3     H2       HT       0.417000       1.00800           0
     94673 TIP3     28253    TIP3     OH2      OT      -0.834000       15.9994           0
     94674 TIP3     28253    TIP3     H1       HT       0.417000       1.00800           0
     94675 TIP3     28253    TIP3     H2       HT       0.417000       1.00800           0
     94676 TIP3     28254    TIP3     OH2      OT      -0.834000       15.9994           0
     94677 TIP3     28254    TIP3     H1       HT       0.417000       1.00800           0
     94678 TIP3     28254    TIP3     H2       HT       0.417000       1.00800           0
     94679 TIP3     28255    TIP3     OH2      OT      -0.834000       15.9994           0
     94680 TIP3     28255    TIP3     H1       HT       0.417000       1.00800           0
     94681 TIP3     28255    TIP3     H2       HT       0.417000       1.00800           0
     94682 TIP3     28256    TIP3     OH2      OT      -0.834000       15.9994           0
     94683 TIP3     28256    TIP3     H1       HT       0.417000       1.00800           0
     94684 TIP3     28256    TIP3     H2       HT       0.417000       1.00800           0
     94685 TIP3     28257    TIP3     OH2      OT      -0.834000       15.9994           0
     94686 TIP3     28257    TIP3     H1       HT       0.417000       1.00800           0
     94687 TIP3     28257    TIP3     H2       HT       0.417000       1.00800           0
     94688 TIP3     28258    TIP3     OH2      OT      -0.834000       15.9994           0
     94689 TIP3     28258    TIP3     H1       HT       0.417000       1.00800           0
     94690 TIP3     28258    TIP3     H2       HT       0.417000       1.00800           0
     94691 TIP3     28259    TIP3     OH2      OT      -0.834000       15.9994           0
     94692 TIP3     28259    TIP3     H1       HT       0.417000       1.00800           0
     94693 TIP3     28259    TIP3     H2       HT       0.417000       1.00800           0
     94694 TIP3     28260    TIP3     OH2      OT      -0.834000       15.9994           0
     94695 TIP3     28260    TIP3     H1       HT       0.417000       1.00800           0
     94696 TIP3     28260    TIP3     H2       HT       0.417000       1.00800           0
     94697 TIP3     28261    TIP3     OH2      OT      -0.834000       15.9994           0
     94698 TIP3     28261    TIP3     H1       HT       0.417000       1.00800           0
     94699 TIP3     28261    TIP3     H2       HT       0.417000       1.00800           0
     94700 TIP3     28262    TIP3     OH2      OT      -0.834000       15.9994           0
     94701 TIP3     28262    TIP3     H1       HT       0.417000       1.00800           0
     94702 TIP3     28262    TIP3     H2       HT       0.417000       1.00800           0
     94703 TIP3     28263    TIP3     OH2      OT      -0.834000       15.9994           0
     94704 TIP3     28263    TIP3     H1       HT       0.417000       1.00800           0
     94705 TIP3     28263    TIP3     H2       HT       0.417000       1.00800           0
     94706 TIP3     28264    TIP3     OH2      OT      -0.834000       15.9994           0
     94707 TIP3     28264    TIP3     H1       HT       0.417000       1.00800           0
     94708 TIP3     28264    TIP3     H2       HT       0.417000       1.00800           0
     94709 TIP3     28265    TIP3     OH2      OT      -0.834000       15.9994           0
     94710 TIP3     28265    TIP3     H1       HT       0.417000       1.00800           0
     94711 TIP3     28265    TIP3     H2       HT       0.417000       1.00800           0
     94712 TIP3     28266    TIP3     OH2      OT      -0.834000       15.9994           0
     94713 TIP3     28266    TIP3     H1       HT       0.417000       1.00800           0
     94714 TIP3     28266    TIP3     H2       HT       0.417000       1.00800           0
     94715 TIP3     28267    TIP3     OH2      OT      -0.834000       15.9994           0
     94716 TIP3     28267    TIP3     H1       HT       0.417000       1.00800           0
     94717 TIP3     28267    TIP3     H2       HT       0.417000       1.00800           0
     94718 TIP3     28268    TIP3     OH2      OT      -0.834000       15.9994           0
     94719 TIP3     28268    TIP3     H1       HT       0.417000       1.00800           0
     94720 TIP3     28268    TIP3     H2       HT       0.417000       1.00800           0
     94721 TIP3     28269    TIP3     OH2      OT      -0.834000       15.9994           0
     94722 TIP3     28269    TIP3     H1       HT       0.417000       1.00800           0
     94723 TIP3     28269    TIP3     H2       HT       0.417000       1.00800           0
     94724 TIP3     28270    TIP3     OH2      OT      -0.834000       15.9994           0
     94725 TIP3     28270    TIP3     H1       HT       0.417000       1.00800           0
     94726 TIP3     28270    TIP3     H2       HT       0.417000       1.00800           0
     94727 TIP3     28271    TIP3     OH2      OT      -0.834000       15.9994           0
     94728 TIP3     28271    TIP3     H1       HT       0.417000       1.00800           0
     94729 TIP3     28271    TIP3     H2       HT       0.417000       1.00800           0
     94730 TIP3     28272    TIP3     OH2      OT      -0.834000       15.9994           0
     94731 TIP3     28272    TIP3     H1       HT       0.417000       1.00800           0
     94732 TIP3     28272    TIP3     H2       HT       0.417000       1.00800           0
     94733 TIP3     28273    TIP3     OH2      OT      -0.834000       15.9994           0
     94734 TIP3     28273    TIP3     H1       HT       0.417000       1.00800           0
     94735 TIP3     28273    TIP3     H2       HT       0.417000       1.00800           0
     94736 TIP3     28274    TIP3     OH2      OT      -0.834000       15.9994           0
     94737 TIP3     28274    TIP3     H1       HT       0.417000       1.00800           0
     94738 TIP3     28274    TIP3     H2       HT       0.417000       1.00800           0
     94739 TIP3     28275    TIP3     OH2      OT      -0.834000       15.9994           0
     94740 TIP3     28275    TIP3     H1       HT       0.417000       1.00800           0
     94741 TIP3     28275    TIP3     H2       HT       0.417000       1.00800           0
     94742 TIP3     28276    TIP3     OH2      OT      -0.834000       15.9994           0
     94743 TIP3     28276    TIP3     H1       HT       0.417000       1.00800           0
     94744 TIP3     28276    TIP3     H2       HT       0.417000       1.00800           0
     94745 TIP3     28277    TIP3     OH2      OT      -0.834000       15.9994           0
     94746 TIP3     28277    TIP3     H1       HT       0.417000       1.00800           0
     94747 TIP3     28277    TIP3     H2       HT       0.417000       1.00800           0
     94748 TIP3     28278    TIP3     OH2      OT      -0.834000       15.9994           0
     94749 TIP3     28278    TIP3     H1       HT       0.417000       1.00800           0
     94750 TIP3     28278    TIP3     H2       HT       0.417000       1.00800           0
     94751 TIP3     28279    TIP3     OH2      OT      -0.834000       15.9994           0
     94752 TIP3     28279    TIP3     H1       HT       0.417000       1.00800           0
     94753 TIP3     28279    TIP3     H2       HT       0.417000       1.00800           0
     94754 TIP3     28280    TIP3     OH2      OT      -0.834000       15.9994           0
     94755 TIP3     28280    TIP3     H1       HT       0.417000       1.00800           0
     94756 TIP3     28280    TIP3     H2       HT       0.417000       1.00800           0
     94757 TIP3     28281    TIP3     OH2      OT      -0.834000       15.9994           0
     94758 TIP3     28281    TIP3     H1       HT       0.417000       1.00800           0
     94759 TIP3     28281    TIP3     H2       HT       0.417000       1.00800           0
     94760 TIP3     28282    TIP3     OH2      OT      -0.834000       15.9994           0
     94761 TIP3     28282    TIP3     H1       HT       0.417000       1.00800           0
     94762 TIP3     28282    TIP3     H2       HT       0.417000       1.00800           0
     94763 TIP3     28283    TIP3     OH2      OT      -0.834000       15.9994           0
     94764 TIP3     28283    TIP3     H1       HT       0.417000       1.00800           0
     94765 TIP3     28283    TIP3     H2       HT       0.417000       1.00800           0
     94766 TIP3     28284    TIP3     OH2      OT      -0.834000       15.9994           0
     94767 TIP3     28284    TIP3     H1       HT       0.417000       1.00800           0
     94768 TIP3     28284    TIP3     H2       HT       0.417000       1.00800           0
     94769 TIP3     28285    TIP3     OH2      OT      -0.834000       15.9994           0
     94770 TIP3     28285    TIP3     H1       HT       0.417000       1.00800           0
     94771 TIP3     28285    TIP3     H2       HT       0.417000       1.00800           0
     94772 TIP3     28286    TIP3     OH2      OT      -0.834000       15.9994           0
     94773 TIP3     28286    TIP3     H1       HT       0.417000       1.00800           0
     94774 TIP3     28286    TIP3     H2       HT       0.417000       1.00800           0
     94775 TIP3     28287    TIP3     OH2      OT      -0.834000       15.9994           0
     94776 TIP3     28287    TIP3     H1       HT       0.417000       1.00800           0
     94777 TIP3     28287    TIP3     H2       HT       0.417000       1.00800           0
     94778 TIP3     28288    TIP3     OH2      OT      -0.834000       15.9994           0
     94779 TIP3     28288    TIP3     H1       HT       0.417000       1.00800           0
     94780 TIP3     28288    TIP3     H2       HT       0.417000       1.00800           0
     94781 TIP3     28289    TIP3     OH2      OT      -0.834000       15.9994           0
     94782 TIP3     28289    TIP3     H1       HT       0.417000       1.00800           0
     94783 TIP3     28289    TIP3     H2       HT       0.417000       1.00800           0
     94784 TIP3     28290    TIP3     OH2      OT      -0.834000       15.9994           0
     94785 TIP3     28290    TIP3     H1       HT       0.417000       1.00800           0
     94786 TIP3     28290    TIP3     H2       HT       0.417000       1.00800           0
     94787 TIP3     28291    TIP3     OH2      OT      -0.834000       15.9994           0
     94788 TIP3     28291    TIP3     H1       HT       0.417000       1.00800           0
     94789 TIP3     28291    TIP3     H2       HT       0.417000       1.00800           0
     94790 TIP3     28292    TIP3     OH2      OT      -0.834000       15.9994           0
     94791 TIP3     28292    TIP3     H1       HT       0.417000       1.00800           0
     94792 TIP3     28292    TIP3     H2       HT       0.417000       1.00800           0
     94793 TIP3     28293    TIP3     OH2      OT      -0.834000       15.9994           0
     94794 TIP3     28293    TIP3     H1       HT       0.417000       1.00800           0
     94795 TIP3     28293    TIP3     H2       HT       0.417000       1.00800           0
     94796 TIP3     28294    TIP3     OH2      OT      -0.834000       15.9994           0
     94797 TIP3     28294    TIP3     H1       HT       0.417000       1.00800           0
     94798 TIP3     28294    TIP3     H2       HT       0.417000       1.00800           0
     94799 TIP3     28295    TIP3     OH2      OT      -0.834000       15.9994           0
     94800 TIP3     28295    TIP3     H1       HT       0.417000       1.00800           0
     94801 TIP3     28295    TIP3     H2       HT       0.417000       1.00800           0
     94802 TIP3     28296    TIP3     OH2      OT      -0.834000       15.9994           0
     94803 TIP3     28296    TIP3     H1       HT       0.417000       1.00800           0
     94804 TIP3     28296    TIP3     H2       HT       0.417000       1.00800           0
     94805 TIP3     28297    TIP3     OH2      OT      -0.834000       15.9994           0
     94806 TIP3     28297    TIP3     H1       HT       0.417000       1.00800           0
     94807 TIP3     28297    TIP3     H2       HT       0.417000       1.00800           0
     94808 TIP3     28298    TIP3     OH2      OT      -0.834000       15.9994           0
     94809 TIP3     28298    TIP3     H1       HT       0.417000       1.00800           0
     94810 TIP3     28298    TIP3     H2       HT       0.417000       1.00800           0
     94811 TIP3     28299    TIP3     OH2      OT      -0.834000       15.9994           0
     94812 TIP3     28299    TIP3     H1       HT       0.417000       1.00800           0
     94813 TIP3     28299    TIP3     H2       HT       0.417000       1.00800           0
     94814 TIP3     28300    TIP3     OH2      OT      -0.834000       15.9994           0
     94815 TIP3     28300    TIP3     H1       HT       0.417000       1.00800           0
     94816 TIP3     28300    TIP3     H2       HT       0.417000       1.00800           0
     94817 TIP3     28301    TIP3     OH2      OT      -0.834000       15.9994           0
     94818 TIP3     28301    TIP3     H1       HT       0.417000       1.00800           0
     94819 TIP3     28301    TIP3     H2       HT       0.417000       1.00800           0
     94820 TIP3     28302    TIP3     OH2      OT      -0.834000       15.9994           0
     94821 TIP3     28302    TIP3     H1       HT       0.417000       1.00800           0
     94822 TIP3     28302    TIP3     H2       HT       0.417000       1.00800           0
     94823 TIP3     28303    TIP3     OH2      OT      -0.834000       15.9994           0
     94824 TIP3     28303    TIP3     H1       HT       0.417000       1.00800           0
     94825 TIP3     28303    TIP3     H2       HT       0.417000       1.00800           0
     94826 TIP3     28304    TIP3     OH2      OT      -0.834000       15.9994           0
     94827 TIP3     28304    TIP3     H1       HT       0.417000       1.00800           0
     94828 TIP3     28304    TIP3     H2       HT       0.417000       1.00800           0
     94829 TIP3     28305    TIP3     OH2      OT      -0.834000       15.9994           0
     94830 TIP3     28305    TIP3     H1       HT       0.417000       1.00800           0
     94831 TIP3     28305    TIP3     H2       HT       0.417000       1.00800           0
     94832 TIP3     28306    TIP3     OH2      OT      -0.834000       15.9994           0
     94833 TIP3     28306    TIP3     H1       HT       0.417000       1.00800           0
     94834 TIP3     28306    TIP3     H2       HT       0.417000       1.00800           0
     94835 TIP3     28307    TIP3     OH2      OT      -0.834000       15.9994           0
     94836 TIP3     28307    TIP3     H1       HT       0.417000       1.00800           0
     94837 TIP3     28307    TIP3     H2       HT       0.417000       1.00800           0
     94838 TIP3     28308    TIP3     OH2      OT      -0.834000       15.9994           0
     94839 TIP3     28308    TIP3     H1       HT       0.417000       1.00800           0
     94840 TIP3     28308    TIP3     H2       HT       0.417000       1.00800           0
     94841 TIP3     28309    TIP3     OH2      OT      -0.834000       15.9994           0
     94842 TIP3     28309    TIP3     H1       HT       0.417000       1.00800           0
     94843 TIP3     28309    TIP3     H2       HT       0.417000       1.00800           0
     94844 TIP3     28310    TIP3     OH2      OT      -0.834000       15.9994           0
     94845 TIP3     28310    TIP3     H1       HT       0.417000       1.00800           0
     94846 TIP3     28310    TIP3     H2       HT       0.417000       1.00800           0
     94847 TIP3     28311    TIP3     OH2      OT      -0.834000       15.9994           0
     94848 TIP3     28311    TIP3     H1       HT       0.417000       1.00800           0
     94849 TIP3     28311    TIP3     H2       HT       0.417000       1.00800           0
     94850 TIP3     28312    TIP3     OH2      OT      -0.834000       15.9994           0
     94851 TIP3     28312    TIP3     H1       HT       0.417000       1.00800           0
     94852 TIP3     28312    TIP3     H2       HT       0.417000       1.00800           0
     94853 TIP3     28313    TIP3     OH2      OT      -0.834000       15.9994           0
     94854 TIP3     28313    TIP3     H1       HT       0.417000       1.00800           0
     94855 TIP3     28313    TIP3     H2       HT       0.417000       1.00800           0
     94856 TIP3     28314    TIP3     OH2      OT      -0.834000       15.9994           0
     94857 TIP3     28314    TIP3     H1       HT       0.417000       1.00800           0
     94858 TIP3     28314    TIP3     H2       HT       0.417000       1.00800           0
     94859 TIP3     28315    TIP3     OH2      OT      -0.834000       15.9994           0
     94860 TIP3     28315    TIP3     H1       HT       0.417000       1.00800           0
     94861 TIP3     28315    TIP3     H2       HT       0.417000       1.00800           0
     94862 TIP3     28316    TIP3     OH2      OT      -0.834000       15.9994           0
     94863 TIP3     28316    TIP3     H1       HT       0.417000       1.00800           0
     94864 TIP3     28316    TIP3     H2       HT       0.417000       1.00800           0
     94865 TIP3     28317    TIP3     OH2      OT      -0.834000       15.9994           0
     94866 TIP3     28317    TIP3     H1       HT       0.417000       1.00800           0
     94867 TIP3     28317    TIP3     H2       HT       0.417000       1.00800           0
     94868 TIP3     28318    TIP3     OH2      OT      -0.834000       15.9994           0
     94869 TIP3     28318    TIP3     H1       HT       0.417000       1.00800           0
     94870 TIP3     28318    TIP3     H2       HT       0.417000       1.00800           0
     94871 TIP3     28319    TIP3     OH2      OT      -0.834000       15.9994           0
     94872 TIP3     28319    TIP3     H1       HT       0.417000       1.00800           0
     94873 TIP3     28319    TIP3     H2       HT       0.417000       1.00800           0
     94874 TIP3     28320    TIP3     OH2      OT      -0.834000       15.9994           0
     94875 TIP3     28320    TIP3     H1       HT       0.417000       1.00800           0
     94876 TIP3     28320    TIP3     H2       HT       0.417000       1.00800           0
     94877 TIP3     28321    TIP3     OH2      OT      -0.834000       15.9994           0
     94878 TIP3     28321    TIP3     H1       HT       0.417000       1.00800           0
     94879 TIP3     28321    TIP3     H2       HT       0.417000       1.00800           0
     94880 TIP3     28322    TIP3     OH2      OT      -0.834000       15.9994           0
     94881 TIP3     28322    TIP3     H1       HT       0.417000       1.00800           0
     94882 TIP3     28322    TIP3     H2       HT       0.417000       1.00800           0
     94883 TIP3     28323    TIP3     OH2      OT      -0.834000       15.9994           0
     94884 TIP3     28323    TIP3     H1       HT       0.417000       1.00800           0
     94885 TIP3     28323    TIP3     H2       HT       0.417000       1.00800           0
     94886 TIP3     28324    TIP3     OH2      OT      -0.834000       15.9994           0
     94887 TIP3     28324    TIP3     H1       HT       0.417000       1.00800           0
     94888 TIP3     28324    TIP3     H2       HT       0.417000       1.00800           0
     94889 TIP3     28325    TIP3     OH2      OT      -0.834000       15.9994           0
     94890 TIP3     28325    TIP3     H1       HT       0.417000       1.00800           0
     94891 TIP3     28325    TIP3     H2       HT       0.417000       1.00800           0
     94892 TIP3     28326    TIP3     OH2      OT      -0.834000       15.9994           0
     94893 TIP3     28326    TIP3     H1       HT       0.417000       1.00800           0
     94894 TIP3     28326    TIP3     H2       HT       0.417000       1.00800           0
     94895 TIP3     28327    TIP3     OH2      OT      -0.834000       15.9994           0
     94896 TIP3     28327    TIP3     H1       HT       0.417000       1.00800           0
     94897 TIP3     28327    TIP3     H2       HT       0.417000       1.00800           0
     94898 TIP3     28328    TIP3     OH2      OT      -0.834000       15.9994           0
     94899 TIP3     28328    TIP3     H1       HT       0.417000       1.00800           0
     94900 TIP3     28328    TIP3     H2       HT       0.417000       1.00800           0
     94901 TIP3     28329    TIP3     OH2      OT      -0.834000       15.9994           0
     94902 TIP3     28329    TIP3     H1       HT       0.417000       1.00800           0
     94903 TIP3     28329    TIP3     H2       HT       0.417000       1.00800           0
     94904 TIP3     28330    TIP3     OH2      OT      -0.834000       15.9994           0
     94905 TIP3     28330    TIP3     H1       HT       0.417000       1.00800           0
     94906 TIP3     28330    TIP3     H2       HT       0.417000       1.00800           0
     94907 TIP3     28331    TIP3     OH2      OT      -0.834000       15.9994           0
     94908 TIP3     28331    TIP3     H1       HT       0.417000       1.00800           0
     94909 TIP3     28331    TIP3     H2       HT       0.417000       1.00800           0
     94910 TIP3     28332    TIP3     OH2      OT      -0.834000       15.9994           0
     94911 TIP3     28332    TIP3     H1       HT       0.417000       1.00800           0
     94912 TIP3     28332    TIP3     H2       HT       0.417000       1.00800           0
     94913 TIP3     28333    TIP3     OH2      OT      -0.834000       15.9994           0
     94914 TIP3     28333    TIP3     H1       HT       0.417000       1.00800           0
     94915 TIP3     28333    TIP3     H2       HT       0.417000       1.00800           0
     94916 TIP3     28334    TIP3     OH2      OT      -0.834000       15.9994           0
     94917 TIP3     28334    TIP3     H1       HT       0.417000       1.00800           0
     94918 TIP3     28334    TIP3     H2       HT       0.417000       1.00800           0
     94919 TIP3     28335    TIP3     OH2      OT      -0.834000       15.9994           0
     94920 TIP3     28335    TIP3     H1       HT       0.417000       1.00800           0
     94921 TIP3     28335    TIP3     H2       HT       0.417000       1.00800           0
     94922 TIP3     28336    TIP3     OH2      OT      -0.834000       15.9994           0
     94923 TIP3     28336    TIP3     H1       HT       0.417000       1.00800           0
     94924 TIP3     28336    TIP3     H2       HT       0.417000       1.00800           0
     94925 TIP3     28337    TIP3     OH2      OT      -0.834000       15.9994           0
     94926 TIP3     28337    TIP3     H1       HT       0.417000       1.00800           0
     94927 TIP3     28337    TIP3     H2       HT       0.417000       1.00800           0
     94928 TIP3     28338    TIP3     OH2      OT      -0.834000       15.9994           0
     94929 TIP3     28338    TIP3     H1       HT       0.417000       1.00800           0
     94930 TIP3     28338    TIP3     H2       HT       0.417000       1.00800           0
     94931 TIP3     28339    TIP3     OH2      OT      -0.834000       15.9994           0
     94932 TIP3     28339    TIP3     H1       HT       0.417000       1.00800           0
     94933 TIP3     28339    TIP3     H2       HT       0.417000       1.00800           0
     94934 TIP3     28340    TIP3     OH2      OT      -0.834000       15.9994           0
     94935 TIP3     28340    TIP3     H1       HT       0.417000       1.00800           0
     94936 TIP3     28340    TIP3     H2       HT       0.417000       1.00800           0
     94937 TIP3     28341    TIP3     OH2      OT      -0.834000       15.9994           0
     94938 TIP3     28341    TIP3     H1       HT       0.417000       1.00800           0
     94939 TIP3     28341    TIP3     H2       HT       0.417000       1.00800           0
     94940 TIP3     28342    TIP3     OH2      OT      -0.834000       15.9994           0
     94941 TIP3     28342    TIP3     H1       HT       0.417000       1.00800           0
     94942 TIP3     28342    TIP3     H2       HT       0.417000       1.00800           0
     94943 TIP3     28343    TIP3     OH2      OT      -0.834000       15.9994           0
     94944 TIP3     28343    TIP3     H1       HT       0.417000       1.00800           0
     94945 TIP3     28343    TIP3     H2       HT       0.417000       1.00800           0
     94946 TIP3     28344    TIP3     OH2      OT      -0.834000       15.9994           0
     94947 TIP3     28344    TIP3     H1       HT       0.417000       1.00800           0
     94948 TIP3     28344    TIP3     H2       HT       0.417000       1.00800           0
     94949 TIP3     28345    TIP3     OH2      OT      -0.834000       15.9994           0
     94950 TIP3     28345    TIP3     H1       HT       0.417000       1.00800           0
     94951 TIP3     28345    TIP3     H2       HT       0.417000       1.00800           0
     94952 TIP3     28346    TIP3     OH2      OT      -0.834000       15.9994           0
     94953 TIP3     28346    TIP3     H1       HT       0.417000       1.00800           0
     94954 TIP3     28346    TIP3     H2       HT       0.417000       1.00800           0
     94955 TIP3     28347    TIP3     OH2      OT      -0.834000       15.9994           0
     94956 TIP3     28347    TIP3     H1       HT       0.417000       1.00800           0
     94957 TIP3     28347    TIP3     H2       HT       0.417000       1.00800           0
     94958 TIP3     28348    TIP3     OH2      OT      -0.834000       15.9994           0
     94959 TIP3     28348    TIP3     H1       HT       0.417000       1.00800           0
     94960 TIP3     28348    TIP3     H2       HT       0.417000       1.00800           0
     94961 TIP3     28349    TIP3     OH2      OT      -0.834000       15.9994           0
     94962 TIP3     28349    TIP3     H1       HT       0.417000       1.00800           0
     94963 TIP3     28349    TIP3     H2       HT       0.417000       1.00800           0
     94964 TIP3     28350    TIP3     OH2      OT      -0.834000       15.9994           0
     94965 TIP3     28350    TIP3     H1       HT       0.417000       1.00800           0
     94966 TIP3     28350    TIP3     H2       HT       0.417000       1.00800           0
     94967 TIP3     28351    TIP3     OH2      OT      -0.834000       15.9994           0
     94968 TIP3     28351    TIP3     H1       HT       0.417000       1.00800           0
     94969 TIP3     28351    TIP3     H2       HT       0.417000       1.00800           0
     94970 TIP3     28352    TIP3     OH2      OT      -0.834000       15.9994           0
     94971 TIP3     28352    TIP3     H1       HT       0.417000       1.00800           0
     94972 TIP3     28352    TIP3     H2       HT       0.417000       1.00800           0
     94973 TIP3     28353    TIP3     OH2      OT      -0.834000       15.9994           0
     94974 TIP3     28353    TIP3     H1       HT       0.417000       1.00800           0
     94975 TIP3     28353    TIP3     H2       HT       0.417000       1.00800           0
     94976 TIP3     28354    TIP3     OH2      OT      -0.834000       15.9994           0
     94977 TIP3     28354    TIP3     H1       HT       0.417000       1.00800           0
     94978 TIP3     28354    TIP3     H2       HT       0.417000       1.00800           0
     94979 TIP3     28355    TIP3     OH2      OT      -0.834000       15.9994           0
     94980 TIP3     28355    TIP3     H1       HT       0.417000       1.00800           0
     94981 TIP3     28355    TIP3     H2       HT       0.417000       1.00800           0
     94982 TIP3     28356    TIP3     OH2      OT      -0.834000       15.9994           0
     94983 TIP3     28356    TIP3     H1       HT       0.417000       1.00800           0
     94984 TIP3     28356    TIP3     H2       HT       0.417000       1.00800           0
     94985 TIP3     28357    TIP3     OH2      OT      -0.834000       15.9994           0
     94986 TIP3     28357    TIP3     H1       HT       0.417000       1.00800           0
     94987 TIP3     28357    TIP3     H2       HT       0.417000       1.00800           0
     94988 TIP3     28358    TIP3     OH2      OT      -0.834000       15.9994           0
     94989 TIP3     28358    TIP3     H1       HT       0.417000       1.00800           0
     94990 TIP3     28358    TIP3     H2       HT       0.417000       1.00800           0
     94991 TIP3     28359    TIP3     OH2      OT      -0.834000       15.9994           0
     94992 TIP3     28359    TIP3     H1       HT       0.417000       1.00800           0
     94993 TIP3     28359    TIP3     H2       HT       0.417000       1.00800           0
     94994 TIP3     28360    TIP3     OH2      OT      -0.834000       15.9994           0
     94995 TIP3     28360    TIP3     H1       HT       0.417000       1.00800           0
     94996 TIP3     28360    TIP3     H2       HT       0.417000       1.00800           0
     94997 TIP3     28361    TIP3     OH2      OT      -0.834000       15.9994           0
     94998 TIP3     28361    TIP3     H1       HT       0.417000       1.00800           0
     94999 TIP3     28361    TIP3     H2       HT       0.417000       1.00800           0
     95000 TIP3     28362    TIP3     OH2      OT      -0.834000       15.9994           0
     95001 TIP3     28362    TIP3     H1       HT       0.417000       1.00800           0
     95002 TIP3     28362    TIP3     H2       HT       0.417000       1.00800           0
     95003 TIP3     28363    TIP3     OH2      OT      -0.834000       15.9994           0
     95004 TIP3     28363    TIP3     H1       HT       0.417000       1.00800           0
     95005 TIP3     28363    TIP3     H2       HT       0.417000       1.00800           0
     95006 TIP3     28364    TIP3     OH2      OT      -0.834000       15.9994           0
     95007 TIP3     28364    TIP3     H1       HT       0.417000       1.00800           0
     95008 TIP3     28364    TIP3     H2       HT       0.417000       1.00800           0
     95009 TIP3     28365    TIP3     OH2      OT      -0.834000       15.9994           0
     95010 TIP3     28365    TIP3     H1       HT       0.417000       1.00800           0
     95011 TIP3     28365    TIP3     H2       HT       0.417000       1.00800           0
     95012 TIP3     28366    TIP3     OH2      OT      -0.834000       15.9994           0
     95013 TIP3     28366    TIP3     H1       HT       0.417000       1.00800           0
     95014 TIP3     28366    TIP3     H2       HT       0.417000       1.00800           0
     95015 TIP3     28367    TIP3     OH2      OT      -0.834000       15.9994           0
     95016 TIP3     28367    TIP3     H1       HT       0.417000       1.00800           0
     95017 TIP3     28367    TIP3     H2       HT       0.417000       1.00800           0
     95018 TIP3     28368    TIP3     OH2      OT      -0.834000       15.9994           0
     95019 TIP3     28368    TIP3     H1       HT       0.417000       1.00800           0
     95020 TIP3     28368    TIP3     H2       HT       0.417000       1.00800           0
     95021 TIP3     28369    TIP3     OH2      OT      -0.834000       15.9994           0
     95022 TIP3     28369    TIP3     H1       HT       0.417000       1.00800           0
     95023 TIP3     28369    TIP3     H2       HT       0.417000       1.00800           0
     95024 TIP3     28370    TIP3     OH2      OT      -0.834000       15.9994           0
     95025 TIP3     28370    TIP3     H1       HT       0.417000       1.00800           0
     95026 TIP3     28370    TIP3     H2       HT       0.417000       1.00800           0
     95027 TIP3     28371    TIP3     OH2      OT      -0.834000       15.9994           0
     95028 TIP3     28371    TIP3     H1       HT       0.417000       1.00800           0
     95029 TIP3     28371    TIP3     H2       HT       0.417000       1.00800           0
     95030 TIP3     28372    TIP3     OH2      OT      -0.834000       15.9994           0
     95031 TIP3     28372    TIP3     H1       HT       0.417000       1.00800           0
     95032 TIP3     28372    TIP3     H2       HT       0.417000       1.00800           0
     95033 TIP3     28373    TIP3     OH2      OT      -0.834000       15.9994           0
     95034 TIP3     28373    TIP3     H1       HT       0.417000       1.00800           0
     95035 TIP3     28373    TIP3     H2       HT       0.417000       1.00800           0
     95036 TIP3     28374    TIP3     OH2      OT      -0.834000       15.9994           0
     95037 TIP3     28374    TIP3     H1       HT       0.417000       1.00800           0
     95038 TIP3     28374    TIP3     H2       HT       0.417000       1.00800           0
     95039 TIP3     28375    TIP3     OH2      OT      -0.834000       15.9994           0
     95040 TIP3     28375    TIP3     H1       HT       0.417000       1.00800           0
     95041 TIP3     28375    TIP3     H2       HT       0.417000       1.00800           0
     95042 TIP3     28376    TIP3     OH2      OT      -0.834000       15.9994           0
     95043 TIP3     28376    TIP3     H1       HT       0.417000       1.00800           0
     95044 TIP3     28376    TIP3     H2       HT       0.417000       1.00800           0
     95045 TIP3     28377    TIP3     OH2      OT      -0.834000       15.9994           0
     95046 TIP3     28377    TIP3     H1       HT       0.417000       1.00800           0
     95047 TIP3     28377    TIP3     H2       HT       0.417000       1.00800           0
     95048 TIP3     28378    TIP3     OH2      OT      -0.834000       15.9994           0
     95049 TIP3     28378    TIP3     H1       HT       0.417000       1.00800           0
     95050 TIP3     28378    TIP3     H2       HT       0.417000       1.00800           0
     95051 TIP3     28379    TIP3     OH2      OT      -0.834000       15.9994           0
     95052 TIP3     28379    TIP3     H1       HT       0.417000       1.00800           0
     95053 TIP3     28379    TIP3     H2       HT       0.417000       1.00800           0
     95054 TIP3     28380    TIP3     OH2      OT      -0.834000       15.9994           0
     95055 TIP3     28380    TIP3     H1       HT       0.417000       1.00800           0
     95056 TIP3     28380    TIP3     H2       HT       0.417000       1.00800           0
     95057 TIP3     28381    TIP3     OH2      OT      -0.834000       15.9994           0
     95058 TIP3     28381    TIP3     H1       HT       0.417000       1.00800           0
     95059 TIP3     28381    TIP3     H2       HT       0.417000       1.00800           0
     95060 TIP3     28382    TIP3     OH2      OT      -0.834000       15.9994           0
     95061 TIP3     28382    TIP3     H1       HT       0.417000       1.00800           0
     95062 TIP3     28382    TIP3     H2       HT       0.417000       1.00800           0
     95063 TIP3     28383    TIP3     OH2      OT      -0.834000       15.9994           0
     95064 TIP3     28383    TIP3     H1       HT       0.417000       1.00800           0
     95065 TIP3     28383    TIP3     H2       HT       0.417000       1.00800           0
     95066 TIP3     28384    TIP3     OH2      OT      -0.834000       15.9994           0
     95067 TIP3     28384    TIP3     H1       HT       0.417000       1.00800           0
     95068 TIP3     28384    TIP3     H2       HT       0.417000       1.00800           0
     95069 TIP3     28385    TIP3     OH2      OT      -0.834000       15.9994           0
     95070 TIP3     28385    TIP3     H1       HT       0.417000       1.00800           0
     95071 TIP3     28385    TIP3     H2       HT       0.417000       1.00800           0
     95072 TIP3     28386    TIP3     OH2      OT      -0.834000       15.9994           0
     95073 TIP3     28386    TIP3     H1       HT       0.417000       1.00800           0
     95074 TIP3     28386    TIP3     H2       HT       0.417000       1.00800           0
     95075 TIP3     28387    TIP3     OH2      OT      -0.834000       15.9994           0
     95076 TIP3     28387    TIP3     H1       HT       0.417000       1.00800           0
     95077 TIP3     28387    TIP3     H2       HT       0.417000       1.00800           0
     95078 TIP3     28388    TIP3     OH2      OT      -0.834000       15.9994           0
     95079 TIP3     28388    TIP3     H1       HT       0.417000       1.00800           0
     95080 TIP3     28388    TIP3     H2       HT       0.417000       1.00800           0
     95081 TIP3     28389    TIP3     OH2      OT      -0.834000       15.9994           0
     95082 TIP3     28389    TIP3     H1       HT       0.417000       1.00800           0
     95083 TIP3     28389    TIP3     H2       HT       0.417000       1.00800           0
     95084 TIP3     28390    TIP3     OH2      OT      -0.834000       15.9994           0
     95085 TIP3     28390    TIP3     H1       HT       0.417000       1.00800           0
     95086 TIP3     28390    TIP3     H2       HT       0.417000       1.00800           0
     95087 TIP3     28391    TIP3     OH2      OT      -0.834000       15.9994           0
     95088 TIP3     28391    TIP3     H1       HT       0.417000       1.00800           0
     95089 TIP3     28391    TIP3     H2       HT       0.417000       1.00800           0
     95090 TIP3     28392    TIP3     OH2      OT      -0.834000       15.9994           0
     95091 TIP3     28392    TIP3     H1       HT       0.417000       1.00800           0
     95092 TIP3     28392    TIP3     H2       HT       0.417000       1.00800           0
     95093 TIP3     28393    TIP3     OH2      OT      -0.834000       15.9994           0
     95094 TIP3     28393    TIP3     H1       HT       0.417000       1.00800           0
     95095 TIP3     28393    TIP3     H2       HT       0.417000       1.00800           0
     95096 TIP3     28394    TIP3     OH2      OT      -0.834000       15.9994           0
     95097 TIP3     28394    TIP3     H1       HT       0.417000       1.00800           0
     95098 TIP3     28394    TIP3     H2       HT       0.417000       1.00800           0
     95099 TIP3     28395    TIP3     OH2      OT      -0.834000       15.9994           0
     95100 TIP3     28395    TIP3     H1       HT       0.417000       1.00800           0
     95101 TIP3     28395    TIP3     H2       HT       0.417000       1.00800           0
     95102 TIP3     28396    TIP3     OH2      OT      -0.834000       15.9994           0
     95103 TIP3     28396    TIP3     H1       HT       0.417000       1.00800           0
     95104 TIP3     28396    TIP3     H2       HT       0.417000       1.00800           0
     95105 TIP3     28397    TIP3     OH2      OT      -0.834000       15.9994           0
     95106 TIP3     28397    TIP3     H1       HT       0.417000       1.00800           0
     95107 TIP3     28397    TIP3     H2       HT       0.417000       1.00800           0
     95108 TIP3     28398    TIP3     OH2      OT      -0.834000       15.9994           0
     95109 TIP3     28398    TIP3     H1       HT       0.417000       1.00800           0
     95110 TIP3     28398    TIP3     H2       HT       0.417000       1.00800           0
     95111 TIP3     28399    TIP3     OH2      OT      -0.834000       15.9994           0
     95112 TIP3     28399    TIP3     H1       HT       0.417000       1.00800           0
     95113 TIP3     28399    TIP3     H2       HT       0.417000       1.00800           0
     95114 TIP3     28400    TIP3     OH2      OT      -0.834000       15.9994           0
     95115 TIP3     28400    TIP3     H1       HT       0.417000       1.00800           0
     95116 TIP3     28400    TIP3     H2       HT       0.417000       1.00800           0
     95117 TIP3     28401    TIP3     OH2      OT      -0.834000       15.9994           0
     95118 TIP3     28401    TIP3     H1       HT       0.417000       1.00800           0
     95119 TIP3     28401    TIP3     H2       HT       0.417000       1.00800           0
     95120 TIP3     28402    TIP3     OH2      OT      -0.834000       15.9994           0
     95121 TIP3     28402    TIP3     H1       HT       0.417000       1.00800           0
     95122 TIP3     28402    TIP3     H2       HT       0.417000       1.00800           0
     95123 TIP3     28403    TIP3     OH2      OT      -0.834000       15.9994           0
     95124 TIP3     28403    TIP3     H1       HT       0.417000       1.00800           0
     95125 TIP3     28403    TIP3     H2       HT       0.417000       1.00800           0
     95126 TIP3     28404    TIP3     OH2      OT      -0.834000       15.9994           0
     95127 TIP3     28404    TIP3     H1       HT       0.417000       1.00800           0
     95128 TIP3     28404    TIP3     H2       HT       0.417000       1.00800           0
     95129 TIP3     28405    TIP3     OH2      OT      -0.834000       15.9994           0
     95130 TIP3     28405    TIP3     H1       HT       0.417000       1.00800           0
     95131 TIP3     28405    TIP3     H2       HT       0.417000       1.00800           0
     95132 TIP3     28406    TIP3     OH2      OT      -0.834000       15.9994           0
     95133 TIP3     28406    TIP3     H1       HT       0.417000       1.00800           0
     95134 TIP3     28406    TIP3     H2       HT       0.417000       1.00800           0
     95135 TIP3     28407    TIP3     OH2      OT      -0.834000       15.9994           0
     95136 TIP3     28407    TIP3     H1       HT       0.417000       1.00800           0
     95137 TIP3     28407    TIP3     H2       HT       0.417000       1.00800           0
     95138 TIP3     28408    TIP3     OH2      OT      -0.834000       15.9994           0
     95139 TIP3     28408    TIP3     H1       HT       0.417000       1.00800           0
     95140 TIP3     28408    TIP3     H2       HT       0.417000       1.00800           0
     95141 TIP3     28409    TIP3     OH2      OT      -0.834000       15.9994           0
     95142 TIP3     28409    TIP3     H1       HT       0.417000       1.00800           0
     95143 TIP3     28409    TIP3     H2       HT       0.417000       1.00800           0
     95144 TIP3     28410    TIP3     OH2      OT      -0.834000       15.9994           0
     95145 TIP3     28410    TIP3     H1       HT       0.417000       1.00800           0
     95146 TIP3     28410    TIP3     H2       HT       0.417000       1.00800           0
     95147 TIP3     28411    TIP3     OH2      OT      -0.834000       15.9994           0
     95148 TIP3     28411    TIP3     H1       HT       0.417000       1.00800           0
     95149 TIP3     28411    TIP3     H2       HT       0.417000       1.00800           0
     95150 TIP3     28412    TIP3     OH2      OT      -0.834000       15.9994           0
     95151 TIP3     28412    TIP3     H1       HT       0.417000       1.00800           0
     95152 TIP3     28412    TIP3     H2       HT       0.417000       1.00800           0
     95153 TIP3     28413    TIP3     OH2      OT      -0.834000       15.9994           0
     95154 TIP3     28413    TIP3     H1       HT       0.417000       1.00800           0
     95155 TIP3     28413    TIP3     H2       HT       0.417000       1.00800           0
     95156 TIP3     28414    TIP3     OH2      OT      -0.834000       15.9994           0
     95157 TIP3     28414    TIP3     H1       HT       0.417000       1.00800           0
     95158 TIP3     28414    TIP3     H2       HT       0.417000       1.00800           0
     95159 TIP3     28415    TIP3     OH2      OT      -0.834000       15.9994           0
     95160 TIP3     28415    TIP3     H1       HT       0.417000       1.00800           0
     95161 TIP3     28415    TIP3     H2       HT       0.417000       1.00800           0
     95162 TIP3     28416    TIP3     OH2      OT      -0.834000       15.9994           0
     95163 TIP3     28416    TIP3     H1       HT       0.417000       1.00800           0
     95164 TIP3     28416    TIP3     H2       HT       0.417000       1.00800           0
     95165 TIP3     28417    TIP3     OH2      OT      -0.834000       15.9994           0
     95166 TIP3     28417    TIP3     H1       HT       0.417000       1.00800           0
     95167 TIP3     28417    TIP3     H2       HT       0.417000       1.00800           0
     95168 TIP3     28418    TIP3     OH2      OT      -0.834000       15.9994           0
     95169 TIP3     28418    TIP3     H1       HT       0.417000       1.00800           0
     95170 TIP3     28418    TIP3     H2       HT       0.417000       1.00800           0
     95171 TIP3     28419    TIP3     OH2      OT      -0.834000       15.9994           0
     95172 TIP3     28419    TIP3     H1       HT       0.417000       1.00800           0
     95173 TIP3     28419    TIP3     H2       HT       0.417000       1.00800           0
     95174 TIP3     28420    TIP3     OH2      OT      -0.834000       15.9994           0
     95175 TIP3     28420    TIP3     H1       HT       0.417000       1.00800           0
     95176 TIP3     28420    TIP3     H2       HT       0.417000       1.00800           0
     95177 TIP3     28421    TIP3     OH2      OT      -0.834000       15.9994           0
     95178 TIP3     28421    TIP3     H1       HT       0.417000       1.00800           0
     95179 TIP3     28421    TIP3     H2       HT       0.417000       1.00800           0
     95180 TIP3     28422    TIP3     OH2      OT      -0.834000       15.9994           0
     95181 TIP3     28422    TIP3     H1       HT       0.417000       1.00800           0
     95182 TIP3     28422    TIP3     H2       HT       0.417000       1.00800           0
     95183 TIP3     28423    TIP3     OH2      OT      -0.834000       15.9994           0
     95184 TIP3     28423    TIP3     H1       HT       0.417000       1.00800           0
     95185 TIP3     28423    TIP3     H2       HT       0.417000       1.00800           0
     95186 TIP3     28424    TIP3     OH2      OT      -0.834000       15.9994           0
     95187 TIP3     28424    TIP3     H1       HT       0.417000       1.00800           0
     95188 TIP3     28424    TIP3     H2       HT       0.417000       1.00800           0
     95189 TIP3     28425    TIP3     OH2      OT      -0.834000       15.9994           0
     95190 TIP3     28425    TIP3     H1       HT       0.417000       1.00800           0
     95191 TIP3     28425    TIP3     H2       HT       0.417000       1.00800           0
     95192 TIP3     28426    TIP3     OH2      OT      -0.834000       15.9994           0
     95193 TIP3     28426    TIP3     H1       HT       0.417000       1.00800           0
     95194 TIP3     28426    TIP3     H2       HT       0.417000       1.00800           0
     95195 TIP3     28427    TIP3     OH2      OT      -0.834000       15.9994           0
     95196 TIP3     28427    TIP3     H1       HT       0.417000       1.00800           0
     95197 TIP3     28427    TIP3     H2       HT       0.417000       1.00800           0
     95198 TIP3     28428    TIP3     OH2      OT      -0.834000       15.9994           0
     95199 TIP3     28428    TIP3     H1       HT       0.417000       1.00800           0
     95200 TIP3     28428    TIP3     H2       HT       0.417000       1.00800           0
     95201 TIP3     28429    TIP3     OH2      OT      -0.834000       15.9994           0
     95202 TIP3     28429    TIP3     H1       HT       0.417000       1.00800           0
     95203 TIP3     28429    TIP3     H2       HT       0.417000       1.00800           0
     95204 TIP3     28430    TIP3     OH2      OT      -0.834000       15.9994           0
     95205 TIP3     28430    TIP3     H1       HT       0.417000       1.00800           0
     95206 TIP3     28430    TIP3     H2       HT       0.417000       1.00800           0
     95207 TIP3     28431    TIP3     OH2      OT      -0.834000       15.9994           0
     95208 TIP3     28431    TIP3     H1       HT       0.417000       1.00800           0
     95209 TIP3     28431    TIP3     H2       HT       0.417000       1.00800           0
     95210 TIP3     28432    TIP3     OH2      OT      -0.834000       15.9994           0
     95211 TIP3     28432    TIP3     H1       HT       0.417000       1.00800           0
     95212 TIP3     28432    TIP3     H2       HT       0.417000       1.00800           0
     95213 TIP3     28433    TIP3     OH2      OT      -0.834000       15.9994           0
     95214 TIP3     28433    TIP3     H1       HT       0.417000       1.00800           0
     95215 TIP3     28433    TIP3     H2       HT       0.417000       1.00800           0
     95216 TIP3     28434    TIP3     OH2      OT      -0.834000       15.9994           0
     95217 TIP3     28434    TIP3     H1       HT       0.417000       1.00800           0
     95218 TIP3     28434    TIP3     H2       HT       0.417000       1.00800           0
     95219 TIP3     28435    TIP3     OH2      OT      -0.834000       15.9994           0
     95220 TIP3     28435    TIP3     H1       HT       0.417000       1.00800           0
     95221 TIP3     28435    TIP3     H2       HT       0.417000       1.00800           0
     95222 TIP3     28436    TIP3     OH2      OT      -0.834000       15.9994           0
     95223 TIP3     28436    TIP3     H1       HT       0.417000       1.00800           0
     95224 TIP3     28436    TIP3     H2       HT       0.417000       1.00800           0
     95225 TIP3     28437    TIP3     OH2      OT      -0.834000       15.9994           0
     95226 TIP3     28437    TIP3     H1       HT       0.417000       1.00800           0
     95227 TIP3     28437    TIP3     H2       HT       0.417000       1.00800           0
     95228 TIP3     28438    TIP3     OH2      OT      -0.834000       15.9994           0
     95229 TIP3     28438    TIP3     H1       HT       0.417000       1.00800           0
     95230 TIP3     28438    TIP3     H2       HT       0.417000       1.00800           0
     95231 TIP3     28439    TIP3     OH2      OT      -0.834000       15.9994           0
     95232 TIP3     28439    TIP3     H1       HT       0.417000       1.00800           0
     95233 TIP3     28439    TIP3     H2       HT       0.417000       1.00800           0
     95234 TIP3     28440    TIP3     OH2      OT      -0.834000       15.9994           0
     95235 TIP3     28440    TIP3     H1       HT       0.417000       1.00800           0
     95236 TIP3     28440    TIP3     H2       HT       0.417000       1.00800           0
     95237 TIP3     28441    TIP3     OH2      OT      -0.834000       15.9994           0
     95238 TIP3     28441    TIP3     H1       HT       0.417000       1.00800           0
     95239 TIP3     28441    TIP3     H2       HT       0.417000       1.00800           0
     95240 TIP3     28442    TIP3     OH2      OT      -0.834000       15.9994           0
     95241 TIP3     28442    TIP3     H1       HT       0.417000       1.00800           0
     95242 TIP3     28442    TIP3     H2       HT       0.417000       1.00800           0
     95243 TIP3     28443    TIP3     OH2      OT      -0.834000       15.9994           0
     95244 TIP3     28443    TIP3     H1       HT       0.417000       1.00800           0
     95245 TIP3     28443    TIP3     H2       HT       0.417000       1.00800           0
     95246 TIP3     28444    TIP3     OH2      OT      -0.834000       15.9994           0
     95247 TIP3     28444    TIP3     H1       HT       0.417000       1.00800           0
     95248 TIP3     28444    TIP3     H2       HT       0.417000       1.00800           0
     95249 TIP3     28445    TIP3     OH2      OT      -0.834000       15.9994           0
     95250 TIP3     28445    TIP3     H1       HT       0.417000       1.00800           0
     95251 TIP3     28445    TIP3     H2       HT       0.417000       1.00800           0
     95252 TIP3     28446    TIP3     OH2      OT      -0.834000       15.9994           0
     95253 TIP3     28446    TIP3     H1       HT       0.417000       1.00800           0
     95254 TIP3     28446    TIP3     H2       HT       0.417000       1.00800           0
     95255 TIP3     28447    TIP3     OH2      OT      -0.834000       15.9994           0
     95256 TIP3     28447    TIP3     H1       HT       0.417000       1.00800           0
     95257 TIP3     28447    TIP3     H2       HT       0.417000       1.00800           0
     95258 TIP3     28448    TIP3     OH2      OT      -0.834000       15.9994           0
     95259 TIP3     28448    TIP3     H1       HT       0.417000       1.00800           0
     95260 TIP3     28448    TIP3     H2       HT       0.417000       1.00800           0
     95261 TIP3     28449    TIP3     OH2      OT      -0.834000       15.9994           0
     95262 TIP3     28449    TIP3     H1       HT       0.417000       1.00800           0
     95263 TIP3     28449    TIP3     H2       HT       0.417000       1.00800           0
     95264 TIP3     28450    TIP3     OH2      OT      -0.834000       15.9994           0
     95265 TIP3     28450    TIP3     H1       HT       0.417000       1.00800           0
     95266 TIP3     28450    TIP3     H2       HT       0.417000       1.00800           0
     95267 TIP3     28451    TIP3     OH2      OT      -0.834000       15.9994           0
     95268 TIP3     28451    TIP3     H1       HT       0.417000       1.00800           0
     95269 TIP3     28451    TIP3     H2       HT       0.417000       1.00800           0
     95270 TIP3     28452    TIP3     OH2      OT      -0.834000       15.9994           0
     95271 TIP3     28452    TIP3     H1       HT       0.417000       1.00800           0
     95272 TIP3     28452    TIP3     H2       HT       0.417000       1.00800           0
     95273 TIP3     28453    TIP3     OH2      OT      -0.834000       15.9994           0
     95274 TIP3     28453    TIP3     H1       HT       0.417000       1.00800           0
     95275 TIP3     28453    TIP3     H2       HT       0.417000       1.00800           0
     95276 TIP3     28454    TIP3     OH2      OT      -0.834000       15.9994           0
     95277 TIP3     28454    TIP3     H1       HT       0.417000       1.00800           0
     95278 TIP3     28454    TIP3     H2       HT       0.417000       1.00800           0
     95279 TIP3     28455    TIP3     OH2      OT      -0.834000       15.9994           0
     95280 TIP3     28455    TIP3     H1       HT       0.417000       1.00800           0
     95281 TIP3     28455    TIP3     H2       HT       0.417000       1.00800           0
     95282 TIP3     28456    TIP3     OH2      OT      -0.834000       15.9994           0
     95283 TIP3     28456    TIP3     H1       HT       0.417000       1.00800           0
     95284 TIP3     28456    TIP3     H2       HT       0.417000       1.00800           0
     95285 TIP3     28457    TIP3     OH2      OT      -0.834000       15.9994           0
     95286 TIP3     28457    TIP3     H1       HT       0.417000       1.00800           0
     95287 TIP3     28457    TIP3     H2       HT       0.417000       1.00800           0
     95288 TIP3     28458    TIP3     OH2      OT      -0.834000       15.9994           0
     95289 TIP3     28458    TIP3     H1       HT       0.417000       1.00800           0
     95290 TIP3     28458    TIP3     H2       HT       0.417000       1.00800           0
     95291 TIP3     28459    TIP3     OH2      OT      -0.834000       15.9994           0
     95292 TIP3     28459    TIP3     H1       HT       0.417000       1.00800           0
     95293 TIP3     28459    TIP3     H2       HT       0.417000       1.00800           0
     95294 TIP3     28460    TIP3     OH2      OT      -0.834000       15.9994           0
     95295 TIP3     28460    TIP3     H1       HT       0.417000       1.00800           0
     95296 TIP3     28460    TIP3     H2       HT       0.417000       1.00800           0
     95297 TIP3     28461    TIP3     OH2      OT      -0.834000       15.9994           0
     95298 TIP3     28461    TIP3     H1       HT       0.417000       1.00800           0
     95299 TIP3     28461    TIP3     H2       HT       0.417000       1.00800           0
     95300 TIP3     28462    TIP3     OH2      OT      -0.834000       15.9994           0
     95301 TIP3     28462    TIP3     H1       HT       0.417000       1.00800           0
     95302 TIP3     28462    TIP3     H2       HT       0.417000       1.00800           0
     95303 TIP3     28463    TIP3     OH2      OT      -0.834000       15.9994           0
     95304 TIP3     28463    TIP3     H1       HT       0.417000       1.00800           0
     95305 TIP3     28463    TIP3     H2       HT       0.417000       1.00800           0
     95306 TIP3     28464    TIP3     OH2      OT      -0.834000       15.9994           0
     95307 TIP3     28464    TIP3     H1       HT       0.417000       1.00800           0
     95308 TIP3     28464    TIP3     H2       HT       0.417000       1.00800           0
     95309 TIP3     28465    TIP3     OH2      OT      -0.834000       15.9994           0
     95310 TIP3     28465    TIP3     H1       HT       0.417000       1.00800           0
     95311 TIP3     28465    TIP3     H2       HT       0.417000       1.00800           0
     95312 TIP3     28466    TIP3     OH2      OT      -0.834000       15.9994           0
     95313 TIP3     28466    TIP3     H1       HT       0.417000       1.00800           0
     95314 TIP3     28466    TIP3     H2       HT       0.417000       1.00800           0
     95315 TIP3     28467    TIP3     OH2      OT      -0.834000       15.9994           0
     95316 TIP3     28467    TIP3     H1       HT       0.417000       1.00800           0
     95317 TIP3     28467    TIP3     H2       HT       0.417000       1.00800           0
     95318 TIP3     28468    TIP3     OH2      OT      -0.834000       15.9994           0
     95319 TIP3     28468    TIP3     H1       HT       0.417000       1.00800           0
     95320 TIP3     28468    TIP3     H2       HT       0.417000       1.00800           0
     95321 TIP3     28469    TIP3     OH2      OT      -0.834000       15.9994           0
     95322 TIP3     28469    TIP3     H1       HT       0.417000       1.00800           0
     95323 TIP3     28469    TIP3     H2       HT       0.417000       1.00800           0
     95324 TIP3     28470    TIP3     OH2      OT      -0.834000       15.9994           0
     95325 TIP3     28470    TIP3     H1       HT       0.417000       1.00800           0
     95326 TIP3     28470    TIP3     H2       HT       0.417000       1.00800           0
     95327 TIP3     28471    TIP3     OH2      OT      -0.834000       15.9994           0
     95328 TIP3     28471    TIP3     H1       HT       0.417000       1.00800           0
     95329 TIP3     28471    TIP3     H2       HT       0.417000       1.00800           0
     95330 TIP3     28472    TIP3     OH2      OT      -0.834000       15.9994           0
     95331 TIP3     28472    TIP3     H1       HT       0.417000       1.00800           0
     95332 TIP3     28472    TIP3     H2       HT       0.417000       1.00800           0
     95333 TIP3     28473    TIP3     OH2      OT      -0.834000       15.9994           0
     95334 TIP3     28473    TIP3     H1       HT       0.417000       1.00800           0
     95335 TIP3     28473    TIP3     H2       HT       0.417000       1.00800           0
     95336 TIP3     28474    TIP3     OH2      OT      -0.834000       15.9994           0
     95337 TIP3     28474    TIP3     H1       HT       0.417000       1.00800           0
     95338 TIP3     28474    TIP3     H2       HT       0.417000       1.00800           0
     95339 TIP3     28475    TIP3     OH2      OT      -0.834000       15.9994           0
     95340 TIP3     28475    TIP3     H1       HT       0.417000       1.00800           0
     95341 TIP3     28475    TIP3     H2       HT       0.417000       1.00800           0
     95342 TIP3     28476    TIP3     OH2      OT      -0.834000       15.9994           0
     95343 TIP3     28476    TIP3     H1       HT       0.417000       1.00800           0
     95344 TIP3     28476    TIP3     H2       HT       0.417000       1.00800           0
     95345 TIP3     28477    TIP3     OH2      OT      -0.834000       15.9994           0
     95346 TIP3     28477    TIP3     H1       HT       0.417000       1.00800           0
     95347 TIP3     28477    TIP3     H2       HT       0.417000       1.00800           0
     95348 TIP3     28478    TIP3     OH2      OT      -0.834000       15.9994           0
     95349 TIP3     28478    TIP3     H1       HT       0.417000       1.00800           0
     95350 TIP3     28478    TIP3     H2       HT       0.417000       1.00800           0
     95351 TIP3     28479    TIP3     OH2      OT      -0.834000       15.9994           0
     95352 TIP3     28479    TIP3     H1       HT       0.417000       1.00800           0
     95353 TIP3     28479    TIP3     H2       HT       0.417000       1.00800           0
     95354 TIP3     28480    TIP3     OH2      OT      -0.834000       15.9994           0
     95355 TIP3     28480    TIP3     H1       HT       0.417000       1.00800           0
     95356 TIP3     28480    TIP3     H2       HT       0.417000       1.00800           0
     95357 TIP3     28481    TIP3     OH2      OT      -0.834000       15.9994           0
     95358 TIP3     28481    TIP3     H1       HT       0.417000       1.00800           0
     95359 TIP3     28481    TIP3     H2       HT       0.417000       1.00800           0
     95360 TIP3     28482    TIP3     OH2      OT      -0.834000       15.9994           0
     95361 TIP3     28482    TIP3     H1       HT       0.417000       1.00800           0
     95362 TIP3     28482    TIP3     H2       HT       0.417000       1.00800           0
     95363 TIP3     28483    TIP3     OH2      OT      -0.834000       15.9994           0
     95364 TIP3     28483    TIP3     H1       HT       0.417000       1.00800           0
     95365 TIP3     28483    TIP3     H2       HT       0.417000       1.00800           0
     95366 TIP3     28484    TIP3     OH2      OT      -0.834000       15.9994           0
     95367 TIP3     28484    TIP3     H1       HT       0.417000       1.00800           0
     95368 TIP3     28484    TIP3     H2       HT       0.417000       1.00800           0
     95369 TIP3     28485    TIP3     OH2      OT      -0.834000       15.9994           0
     95370 TIP3     28485    TIP3     H1       HT       0.417000       1.00800           0
     95371 TIP3     28485    TIP3     H2       HT       0.417000       1.00800           0
     95372 TIP3     28486    TIP3     OH2      OT      -0.834000       15.9994           0
     95373 TIP3     28486    TIP3     H1       HT       0.417000       1.00800           0
     95374 TIP3     28486    TIP3     H2       HT       0.417000       1.00800           0
     95375 TIP3     28487    TIP3     OH2      OT      -0.834000       15.9994           0
     95376 TIP3     28487    TIP3     H1       HT       0.417000       1.00800           0
     95377 TIP3     28487    TIP3     H2       HT       0.417000       1.00800           0
     95378 TIP3     28488    TIP3     OH2      OT      -0.834000       15.9994           0
     95379 TIP3     28488    TIP3     H1       HT       0.417000       1.00800           0
     95380 TIP3     28488    TIP3     H2       HT       0.417000       1.00800           0
     95381 TIP3     28489    TIP3     OH2      OT      -0.834000       15.9994           0
     95382 TIP3     28489    TIP3     H1       HT       0.417000       1.00800           0
     95383 TIP3     28489    TIP3     H2       HT       0.417000       1.00800           0
     95384 TIP3     28490    TIP3     OH2      OT      -0.834000       15.9994           0
     95385 TIP3     28490    TIP3     H1       HT       0.417000       1.00800           0
     95386 TIP3     28490    TIP3     H2       HT       0.417000       1.00800           0
     95387 TIP3     28491    TIP3     OH2      OT      -0.834000       15.9994           0
     95388 TIP3     28491    TIP3     H1       HT       0.417000       1.00800           0
     95389 TIP3     28491    TIP3     H2       HT       0.417000       1.00800           0
     95390 TIP3     28492    TIP3     OH2      OT      -0.834000       15.9994           0
     95391 TIP3     28492    TIP3     H1       HT       0.417000       1.00800           0
     95392 TIP3     28492    TIP3     H2       HT       0.417000       1.00800           0
     95393 TIP3     28493    TIP3     OH2      OT      -0.834000       15.9994           0
     95394 TIP3     28493    TIP3     H1       HT       0.417000       1.00800           0
     95395 TIP3     28493    TIP3     H2       HT       0.417000       1.00800           0
     95396 TIP3     28494    TIP3     OH2      OT      -0.834000       15.9994           0
     95397 TIP3     28494    TIP3     H1       HT       0.417000       1.00800           0
     95398 TIP3     28494    TIP3     H2       HT       0.417000       1.00800           0
     95399 TIP3     28495    TIP3     OH2      OT      -0.834000       15.9994           0
     95400 TIP3     28495    TIP3     H1       HT       0.417000       1.00800           0
     95401 TIP3     28495    TIP3     H2       HT       0.417000       1.00800           0
     95402 TIP3     28496    TIP3     OH2      OT      -0.834000       15.9994           0
     95403 TIP3     28496    TIP3     H1       HT       0.417000       1.00800           0
     95404 TIP3     28496    TIP3     H2       HT       0.417000       1.00800           0
     95405 TIP3     28497    TIP3     OH2      OT      -0.834000       15.9994           0
     95406 TIP3     28497    TIP3     H1       HT       0.417000       1.00800           0
     95407 TIP3     28497    TIP3     H2       HT       0.417000       1.00800           0
     95408 TIP3     28498    TIP3     OH2      OT      -0.834000       15.9994           0
     95409 TIP3     28498    TIP3     H1       HT       0.417000       1.00800           0
     95410 TIP3     28498    TIP3     H2       HT       0.417000       1.00800           0
     95411 TIP3     28499    TIP3     OH2      OT      -0.834000       15.9994           0
     95412 TIP3     28499    TIP3     H1       HT       0.417000       1.00800           0
     95413 TIP3     28499    TIP3     H2       HT       0.417000       1.00800           0
     95414 TIP3     28500    TIP3     OH2      OT      -0.834000       15.9994           0
     95415 TIP3     28500    TIP3     H1       HT       0.417000       1.00800           0
     95416 TIP3     28500    TIP3     H2       HT       0.417000       1.00800           0
     95417 TIP3     28501    TIP3     OH2      OT      -0.834000       15.9994           0
     95418 TIP3     28501    TIP3     H1       HT       0.417000       1.00800           0
     95419 TIP3     28501    TIP3     H2       HT       0.417000       1.00800           0
     95420 TIP3     28502    TIP3     OH2      OT      -0.834000       15.9994           0
     95421 TIP3     28502    TIP3     H1       HT       0.417000       1.00800           0
     95422 TIP3     28502    TIP3     H2       HT       0.417000       1.00800           0
     95423 TIP3     28503    TIP3     OH2      OT      -0.834000       15.9994           0
     95424 TIP3     28503    TIP3     H1       HT       0.417000       1.00800           0
     95425 TIP3     28503    TIP3     H2       HT       0.417000       1.00800           0
     95426 TIP3     28504    TIP3     OH2      OT      -0.834000       15.9994           0
     95427 TIP3     28504    TIP3     H1       HT       0.417000       1.00800           0
     95428 TIP3     28504    TIP3     H2       HT       0.417000       1.00800           0
     95429 TIP3     28505    TIP3     OH2      OT      -0.834000       15.9994           0
     95430 TIP3     28505    TIP3     H1       HT       0.417000       1.00800           0
     95431 TIP3     28505    TIP3     H2       HT       0.417000       1.00800           0
     95432 TIP3     28506    TIP3     OH2      OT      -0.834000       15.9994           0
     95433 TIP3     28506    TIP3     H1       HT       0.417000       1.00800           0
     95434 TIP3     28506    TIP3     H2       HT       0.417000       1.00800           0
     95435 TIP3     28507    TIP3     OH2      OT      -0.834000       15.9994           0
     95436 TIP3     28507    TIP3     H1       HT       0.417000       1.00800           0
     95437 TIP3     28507    TIP3     H2       HT       0.417000       1.00800           0
     95438 TIP3     28508    TIP3     OH2      OT      -0.834000       15.9994           0
     95439 TIP3     28508    TIP3     H1       HT       0.417000       1.00800           0
     95440 TIP3     28508    TIP3     H2       HT       0.417000       1.00800           0
     95441 TIP3     28509    TIP3     OH2      OT      -0.834000       15.9994           0
     95442 TIP3     28509    TIP3     H1       HT       0.417000       1.00800           0
     95443 TIP3     28509    TIP3     H2       HT       0.417000       1.00800           0
     95444 TIP3     28510    TIP3     OH2      OT      -0.834000       15.9994           0
     95445 TIP3     28510    TIP3     H1       HT       0.417000       1.00800           0
     95446 TIP3     28510    TIP3     H2       HT       0.417000       1.00800           0
     95447 TIP3     28511    TIP3     OH2      OT      -0.834000       15.9994           0
     95448 TIP3     28511    TIP3     H1       HT       0.417000       1.00800           0
     95449 TIP3     28511    TIP3     H2       HT       0.417000       1.00800           0
     95450 TIP3     28512    TIP3     OH2      OT      -0.834000       15.9994           0
     95451 TIP3     28512    TIP3     H1       HT       0.417000       1.00800           0
     95452 TIP3     28512    TIP3     H2       HT       0.417000       1.00800           0
     95453 TIP3     28513    TIP3     OH2      OT      -0.834000       15.9994           0
     95454 TIP3     28513    TIP3     H1       HT       0.417000       1.00800           0
     95455 TIP3     28513    TIP3     H2       HT       0.417000       1.00800           0
     95456 TIP3     28514    TIP3     OH2      OT      -0.834000       15.9994           0
     95457 TIP3     28514    TIP3     H1       HT       0.417000       1.00800           0
     95458 TIP3     28514    TIP3     H2       HT       0.417000       1.00800           0
     95459 TIP3     28515    TIP3     OH2      OT      -0.834000       15.9994           0
     95460 TIP3     28515    TIP3     H1       HT       0.417000       1.00800           0
     95461 TIP3     28515    TIP3     H2       HT       0.417000       1.00800           0
     95462 TIP3     28516    TIP3     OH2      OT      -0.834000       15.9994           0
     95463 TIP3     28516    TIP3     H1       HT       0.417000       1.00800           0
     95464 TIP3     28516    TIP3     H2       HT       0.417000       1.00800           0
     95465 TIP3     28517    TIP3     OH2      OT      -0.834000       15.9994           0
     95466 TIP3     28517    TIP3     H1       HT       0.417000       1.00800           0
     95467 TIP3     28517    TIP3     H2       HT       0.417000       1.00800           0
     95468 TIP3     28518    TIP3     OH2      OT      -0.834000       15.9994           0
     95469 TIP3     28518    TIP3     H1       HT       0.417000       1.00800           0
     95470 TIP3     28518    TIP3     H2       HT       0.417000       1.00800           0
     95471 TIP3     28519    TIP3     OH2      OT      -0.834000       15.9994           0
     95472 TIP3     28519    TIP3     H1       HT       0.417000       1.00800           0
     95473 TIP3     28519    TIP3     H2       HT       0.417000       1.00800           0
     95474 TIP3     28520    TIP3     OH2      OT      -0.834000       15.9994           0
     95475 TIP3     28520    TIP3     H1       HT       0.417000       1.00800           0
     95476 TIP3     28520    TIP3     H2       HT       0.417000       1.00800           0
     95477 TIP3     28521    TIP3     OH2      OT      -0.834000       15.9994           0
     95478 TIP3     28521    TIP3     H1       HT       0.417000       1.00800           0
     95479 TIP3     28521    TIP3     H2       HT       0.417000       1.00800           0
     95480 TIP3     28522    TIP3     OH2      OT      -0.834000       15.9994           0
     95481 TIP3     28522    TIP3     H1       HT       0.417000       1.00800           0
     95482 TIP3     28522    TIP3     H2       HT       0.417000       1.00800           0
     95483 TIP3     28523    TIP3     OH2      OT      -0.834000       15.9994           0
     95484 TIP3     28523    TIP3     H1       HT       0.417000       1.00800           0
     95485 TIP3     28523    TIP3     H2       HT       0.417000       1.00800           0
     95486 TIP3     28524    TIP3     OH2      OT      -0.834000       15.9994           0
     95487 TIP3     28524    TIP3     H1       HT       0.417000       1.00800           0
     95488 TIP3     28524    TIP3     H2       HT       0.417000       1.00800           0
     95489 TIP3     28525    TIP3     OH2      OT      -0.834000       15.9994           0
     95490 TIP3     28525    TIP3     H1       HT       0.417000       1.00800           0
     95491 TIP3     28525    TIP3     H2       HT       0.417000       1.00800           0
     95492 TIP3     28526    TIP3     OH2      OT      -0.834000       15.9994           0
     95493 TIP3     28526    TIP3     H1       HT       0.417000       1.00800           0
     95494 TIP3     28526    TIP3     H2       HT       0.417000       1.00800           0
     95495 TIP3     28527    TIP3     OH2      OT      -0.834000       15.9994           0
     95496 TIP3     28527    TIP3     H1       HT       0.417000       1.00800           0
     95497 TIP3     28527    TIP3     H2       HT       0.417000       1.00800           0
     95498 TIP3     28528    TIP3     OH2      OT      -0.834000       15.9994           0
     95499 TIP3     28528    TIP3     H1       HT       0.417000       1.00800           0
     95500 TIP3     28528    TIP3     H2       HT       0.417000       1.00800           0
     95501 TIP3     28529    TIP3     OH2      OT      -0.834000       15.9994           0
     95502 TIP3     28529    TIP3     H1       HT       0.417000       1.00800           0
     95503 TIP3     28529    TIP3     H2       HT       0.417000       1.00800           0
     95504 TIP3     28530    TIP3     OH2      OT      -0.834000       15.9994           0
     95505 TIP3     28530    TIP3     H1       HT       0.417000       1.00800           0
     95506 TIP3     28530    TIP3     H2       HT       0.417000       1.00800           0
     95507 TIP3     28531    TIP3     OH2      OT      -0.834000       15.9994           0
     95508 TIP3     28531    TIP3     H1       HT       0.417000       1.00800           0
     95509 TIP3     28531    TIP3     H2       HT       0.417000       1.00800           0
     95510 TIP3     28532    TIP3     OH2      OT      -0.834000       15.9994           0
     95511 TIP3     28532    TIP3     H1       HT       0.417000       1.00800           0
     95512 TIP3     28532    TIP3     H2       HT       0.417000       1.00800           0
     95513 TIP3     28533    TIP3     OH2      OT      -0.834000       15.9994           0
     95514 TIP3     28533    TIP3     H1       HT       0.417000       1.00800           0
     95515 TIP3     28533    TIP3     H2       HT       0.417000       1.00800           0
     95516 TIP3     28534    TIP3     OH2      OT      -0.834000       15.9994           0
     95517 TIP3     28534    TIP3     H1       HT       0.417000       1.00800           0
     95518 TIP3     28534    TIP3     H2       HT       0.417000       1.00800           0
     95519 TIP3     28535    TIP3     OH2      OT      -0.834000       15.9994           0
     95520 TIP3     28535    TIP3     H1       HT       0.417000       1.00800           0
     95521 TIP3     28535    TIP3     H2       HT       0.417000       1.00800           0
     95522 TIP3     28536    TIP3     OH2      OT      -0.834000       15.9994           0
     95523 TIP3     28536    TIP3     H1       HT       0.417000       1.00800           0
     95524 TIP3     28536    TIP3     H2       HT       0.417000       1.00800           0
     95525 TIP3     28537    TIP3     OH2      OT      -0.834000       15.9994           0
     95526 TIP3     28537    TIP3     H1       HT       0.417000       1.00800           0
     95527 TIP3     28537    TIP3     H2       HT       0.417000       1.00800           0
     95528 TIP3     28538    TIP3     OH2      OT      -0.834000       15.9994           0
     95529 TIP3     28538    TIP3     H1       HT       0.417000       1.00800           0
     95530 TIP3     28538    TIP3     H2       HT       0.417000       1.00800           0
     95531 TIP3     28539    TIP3     OH2      OT      -0.834000       15.9994           0
     95532 TIP3     28539    TIP3     H1       HT       0.417000       1.00800           0
     95533 TIP3     28539    TIP3     H2       HT       0.417000       1.00800           0
     95534 TIP3     28540    TIP3     OH2      OT      -0.834000       15.9994           0
     95535 TIP3     28540    TIP3     H1       HT       0.417000       1.00800           0
     95536 TIP3     28540    TIP3     H2       HT       0.417000       1.00800           0
     95537 TIP3     28541    TIP3     OH2      OT      -0.834000       15.9994           0
     95538 TIP3     28541    TIP3     H1       HT       0.417000       1.00800           0
     95539 TIP3     28541    TIP3     H2       HT       0.417000       1.00800           0
     95540 TIP3     28542    TIP3     OH2      OT      -0.834000       15.9994           0
     95541 TIP3     28542    TIP3     H1       HT       0.417000       1.00800           0
     95542 TIP3     28542    TIP3     H2       HT       0.417000       1.00800           0
     95543 TIP3     28543    TIP3     OH2      OT      -0.834000       15.9994           0
     95544 TIP3     28543    TIP3     H1       HT       0.417000       1.00800           0
     95545 TIP3     28543    TIP3     H2       HT       0.417000       1.00800           0
     95546 TIP3     28544    TIP3     OH2      OT      -0.834000       15.9994           0
     95547 TIP3     28544    TIP3     H1       HT       0.417000       1.00800           0
     95548 TIP3     28544    TIP3     H2       HT       0.417000       1.00800           0
     95549 TIP3     28545    TIP3     OH2      OT      -0.834000       15.9994           0
     95550 TIP3     28545    TIP3     H1       HT       0.417000       1.00800           0
     95551 TIP3     28545    TIP3     H2       HT       0.417000       1.00800           0
     95552 TIP3     28546    TIP3     OH2      OT      -0.834000       15.9994           0
     95553 TIP3     28546    TIP3     H1       HT       0.417000       1.00800           0
     95554 TIP3     28546    TIP3     H2       HT       0.417000       1.00800           0
     95555 TIP3     28547    TIP3     OH2      OT      -0.834000       15.9994           0
     95556 TIP3     28547    TIP3     H1       HT       0.417000       1.00800           0
     95557 TIP3     28547    TIP3     H2       HT       0.417000       1.00800           0
     95558 TIP3     28548    TIP3     OH2      OT      -0.834000       15.9994           0
     95559 TIP3     28548    TIP3     H1       HT       0.417000       1.00800           0
     95560 TIP3     28548    TIP3     H2       HT       0.417000       1.00800           0
     95561 TIP3     28549    TIP3     OH2      OT      -0.834000       15.9994           0
     95562 TIP3     28549    TIP3     H1       HT       0.417000       1.00800           0
     95563 TIP3     28549    TIP3     H2       HT       0.417000       1.00800           0
     95564 TIP3     28550    TIP3     OH2      OT      -0.834000       15.9994           0
     95565 TIP3     28550    TIP3     H1       HT       0.417000       1.00800           0
     95566 TIP3     28550    TIP3     H2       HT       0.417000       1.00800           0
     95567 TIP3     28551    TIP3     OH2      OT      -0.834000       15.9994           0
     95568 TIP3     28551    TIP3     H1       HT       0.417000       1.00800           0
     95569 TIP3     28551    TIP3     H2       HT       0.417000       1.00800           0
     95570 TIP3     28552    TIP3     OH2      OT      -0.834000       15.9994           0
     95571 TIP3     28552    TIP3     H1       HT       0.417000       1.00800           0
     95572 TIP3     28552    TIP3     H2       HT       0.417000       1.00800           0
     95573 TIP3     28553    TIP3     OH2      OT      -0.834000       15.9994           0
     95574 TIP3     28553    TIP3     H1       HT       0.417000       1.00800           0
     95575 TIP3     28553    TIP3     H2       HT       0.417000       1.00800           0
     95576 TIP3     28554    TIP3     OH2      OT      -0.834000       15.9994           0
     95577 TIP3     28554    TIP3     H1       HT       0.417000       1.00800           0
     95578 TIP3     28554    TIP3     H2       HT       0.417000       1.00800           0
     95579 TIP3     28555    TIP3     OH2      OT      -0.834000       15.9994           0
     95580 TIP3     28555    TIP3     H1       HT       0.417000       1.00800           0
     95581 TIP3     28555    TIP3     H2       HT       0.417000       1.00800           0
     95582 TIP3     28556    TIP3     OH2      OT      -0.834000       15.9994           0
     95583 TIP3     28556    TIP3     H1       HT       0.417000       1.00800           0
     95584 TIP3     28556    TIP3     H2       HT       0.417000       1.00800           0
     95585 TIP3     28557    TIP3     OH2      OT      -0.834000       15.9994           0
     95586 TIP3     28557    TIP3     H1       HT       0.417000       1.00800           0
     95587 TIP3     28557    TIP3     H2       HT       0.417000       1.00800           0
     95588 TIP3     28558    TIP3     OH2      OT      -0.834000       15.9994           0
     95589 TIP3     28558    TIP3     H1       HT       0.417000       1.00800           0
     95590 TIP3     28558    TIP3     H2       HT       0.417000       1.00800           0
     95591 TIP3     28559    TIP3     OH2      OT      -0.834000       15.9994           0
     95592 TIP3     28559    TIP3     H1       HT       0.417000       1.00800           0
     95593 TIP3     28559    TIP3     H2       HT       0.417000       1.00800           0
     95594 TIP3     28560    TIP3     OH2      OT      -0.834000       15.9994           0
     95595 TIP3     28560    TIP3     H1       HT       0.417000       1.00800           0
     95596 TIP3     28560    TIP3     H2       HT       0.417000       1.00800           0
     95597 TIP3     28561    TIP3     OH2      OT      -0.834000       15.9994           0
     95598 TIP3     28561    TIP3     H1       HT       0.417000       1.00800           0
     95599 TIP3     28561    TIP3     H2       HT       0.417000       1.00800           0
     95600 TIP3     28562    TIP3     OH2      OT      -0.834000       15.9994           0
     95601 TIP3     28562    TIP3     H1       HT       0.417000       1.00800           0
     95602 TIP3     28562    TIP3     H2       HT       0.417000       1.00800           0
     95603 TIP3     28563    TIP3     OH2      OT      -0.834000       15.9994           0
     95604 TIP3     28563    TIP3     H1       HT       0.417000       1.00800           0
     95605 TIP3     28563    TIP3     H2       HT       0.417000       1.00800           0
     95606 TIP3     28564    TIP3     OH2      OT      -0.834000       15.9994           0
     95607 TIP3     28564    TIP3     H1       HT       0.417000       1.00800           0
     95608 TIP3     28564    TIP3     H2       HT       0.417000       1.00800           0
     95609 TIP3     28565    TIP3     OH2      OT      -0.834000       15.9994           0
     95610 TIP3     28565    TIP3     H1       HT       0.417000       1.00800           0
     95611 TIP3     28565    TIP3     H2       HT       0.417000       1.00800           0
     95612 TIP3     28566    TIP3     OH2      OT      -0.834000       15.9994           0
     95613 TIP3     28566    TIP3     H1       HT       0.417000       1.00800           0
     95614 TIP3     28566    TIP3     H2       HT       0.417000       1.00800           0
     95615 TIP3     28567    TIP3     OH2      OT      -0.834000       15.9994           0
     95616 TIP3     28567    TIP3     H1       HT       0.417000       1.00800           0
     95617 TIP3     28567    TIP3     H2       HT       0.417000       1.00800           0
     95618 TIP3     28568    TIP3     OH2      OT      -0.834000       15.9994           0
     95619 TIP3     28568    TIP3     H1       HT       0.417000       1.00800           0
     95620 TIP3     28568    TIP3     H2       HT       0.417000       1.00800           0
     95621 TIP3     28569    TIP3     OH2      OT      -0.834000       15.9994           0
     95622 TIP3     28569    TIP3     H1       HT       0.417000       1.00800           0
     95623 TIP3     28569    TIP3     H2       HT       0.417000       1.00800           0
     95624 TIP3     28570    TIP3     OH2      OT      -0.834000       15.9994           0
     95625 TIP3     28570    TIP3     H1       HT       0.417000       1.00800           0
     95626 TIP3     28570    TIP3     H2       HT       0.417000       1.00800           0
     95627 TIP3     28571    TIP3     OH2      OT      -0.834000       15.9994           0
     95628 TIP3     28571    TIP3     H1       HT       0.417000       1.00800           0
     95629 TIP3     28571    TIP3     H2       HT       0.417000       1.00800           0
     95630 TIP3     28572    TIP3     OH2      OT      -0.834000       15.9994           0
     95631 TIP3     28572    TIP3     H1       HT       0.417000       1.00800           0
     95632 TIP3     28572    TIP3     H2       HT       0.417000       1.00800           0
     95633 TIP3     28573    TIP3     OH2      OT      -0.834000       15.9994           0
     95634 TIP3     28573    TIP3     H1       HT       0.417000       1.00800           0
     95635 TIP3     28573    TIP3     H2       HT       0.417000       1.00800           0
     95636 TIP3     28574    TIP3     OH2      OT      -0.834000       15.9994           0
     95637 TIP3     28574    TIP3     H1       HT       0.417000       1.00800           0
     95638 TIP3     28574    TIP3     H2       HT       0.417000       1.00800           0
     95639 TIP3     28575    TIP3     OH2      OT      -0.834000       15.9994           0
     95640 TIP3     28575    TIP3     H1       HT       0.417000       1.00800           0
     95641 TIP3     28575    TIP3     H2       HT       0.417000       1.00800           0
     95642 TIP3     28576    TIP3     OH2      OT      -0.834000       15.9994           0
     95643 TIP3     28576    TIP3     H1       HT       0.417000       1.00800           0
     95644 TIP3     28576    TIP3     H2       HT       0.417000       1.00800           0
     95645 TIP3     28577    TIP3     OH2      OT      -0.834000       15.9994           0
     95646 TIP3     28577    TIP3     H1       HT       0.417000       1.00800           0
     95647 TIP3     28577    TIP3     H2       HT       0.417000       1.00800           0
     95648 TIP3     28578    TIP3     OH2      OT      -0.834000       15.9994           0
     95649 TIP3     28578    TIP3     H1       HT       0.417000       1.00800           0
     95650 TIP3     28578    TIP3     H2       HT       0.417000       1.00800           0
     95651 TIP3     28579    TIP3     OH2      OT      -0.834000       15.9994           0
     95652 TIP3     28579    TIP3     H1       HT       0.417000       1.00800           0
     95653 TIP3     28579    TIP3     H2       HT       0.417000       1.00800           0
     95654 TIP3     28580    TIP3     OH2      OT      -0.834000       15.9994           0
     95655 TIP3     28580    TIP3     H1       HT       0.417000       1.00800           0
     95656 TIP3     28580    TIP3     H2       HT       0.417000       1.00800           0
     95657 TIP3     28581    TIP3     OH2      OT      -0.834000       15.9994           0
     95658 TIP3     28581    TIP3     H1       HT       0.417000       1.00800           0
     95659 TIP3     28581    TIP3     H2       HT       0.417000       1.00800           0
     95660 TIP3     28582    TIP3     OH2      OT      -0.834000       15.9994           0
     95661 TIP3     28582    TIP3     H1       HT       0.417000       1.00800           0
     95662 TIP3     28582    TIP3     H2       HT       0.417000       1.00800           0
     95663 TIP3     28583    TIP3     OH2      OT      -0.834000       15.9994           0
     95664 TIP3     28583    TIP3     H1       HT       0.417000       1.00800           0
     95665 TIP3     28583    TIP3     H2       HT       0.417000       1.00800           0
     95666 TIP3     28584    TIP3     OH2      OT      -0.834000       15.9994           0
     95667 TIP3     28584    TIP3     H1       HT       0.417000       1.00800           0
     95668 TIP3     28584    TIP3     H2       HT       0.417000       1.00800           0
     95669 TIP3     28585    TIP3     OH2      OT      -0.834000       15.9994           0
     95670 TIP3     28585    TIP3     H1       HT       0.417000       1.00800           0
     95671 TIP3     28585    TIP3     H2       HT       0.417000       1.00800           0
     95672 TIP3     28586    TIP3     OH2      OT      -0.834000       15.9994           0
     95673 TIP3     28586    TIP3     H1       HT       0.417000       1.00800           0
     95674 TIP3     28586    TIP3     H2       HT       0.417000       1.00800           0
     95675 TIP3     28587    TIP3     OH2      OT      -0.834000       15.9994           0
     95676 TIP3     28587    TIP3     H1       HT       0.417000       1.00800           0
     95677 TIP3     28587    TIP3     H2       HT       0.417000       1.00800           0
     95678 TIP3     28588    TIP3     OH2      OT      -0.834000       15.9994           0
     95679 TIP3     28588    TIP3     H1       HT       0.417000       1.00800           0
     95680 TIP3     28588    TIP3     H2       HT       0.417000       1.00800           0
     95681 TIP3     28589    TIP3     OH2      OT      -0.834000       15.9994           0
     95682 TIP3     28589    TIP3     H1       HT       0.417000       1.00800           0
     95683 TIP3     28589    TIP3     H2       HT       0.417000       1.00800           0
     95684 TIP3     28590    TIP3     OH2      OT      -0.834000       15.9994           0
     95685 TIP3     28590    TIP3     H1       HT       0.417000       1.00800           0
     95686 TIP3     28590    TIP3     H2       HT       0.417000       1.00800           0
     95687 TIP3     28591    TIP3     OH2      OT      -0.834000       15.9994           0
     95688 TIP3     28591    TIP3     H1       HT       0.417000       1.00800           0
     95689 TIP3     28591    TIP3     H2       HT       0.417000       1.00800           0
     95690 TIP3     28592    TIP3     OH2      OT      -0.834000       15.9994           0
     95691 TIP3     28592    TIP3     H1       HT       0.417000       1.00800           0
     95692 TIP3     28592    TIP3     H2       HT       0.417000       1.00800           0
     95693 TIP3     28593    TIP3     OH2      OT      -0.834000       15.9994           0
     95694 TIP3     28593    TIP3     H1       HT       0.417000       1.00800           0
     95695 TIP3     28593    TIP3     H2       HT       0.417000       1.00800           0
     95696 TIP3     28594    TIP3     OH2      OT      -0.834000       15.9994           0
     95697 TIP3     28594    TIP3     H1       HT       0.417000       1.00800           0
     95698 TIP3     28594    TIP3     H2       HT       0.417000       1.00800           0
     95699 TIP3     28595    TIP3     OH2      OT      -0.834000       15.9994           0
     95700 TIP3     28595    TIP3     H1       HT       0.417000       1.00800           0
     95701 TIP3     28595    TIP3     H2       HT       0.417000       1.00800           0
     95702 TIP3     28596    TIP3     OH2      OT      -0.834000       15.9994           0
     95703 TIP3     28596    TIP3     H1       HT       0.417000       1.00800           0
     95704 TIP3     28596    TIP3     H2       HT       0.417000       1.00800           0
     95705 TIP3     28597    TIP3     OH2      OT      -0.834000       15.9994           0
     95706 TIP3     28597    TIP3     H1       HT       0.417000       1.00800           0
     95707 TIP3     28597    TIP3     H2       HT       0.417000       1.00800           0
     95708 TIP3     28598    TIP3     OH2      OT      -0.834000       15.9994           0
     95709 TIP3     28598    TIP3     H1       HT       0.417000       1.00800           0
     95710 TIP3     28598    TIP3     H2       HT       0.417000       1.00800           0
     95711 TIP3     28599    TIP3     OH2      OT      -0.834000       15.9994           0
     95712 TIP3     28599    TIP3     H1       HT       0.417000       1.00800           0
     95713 TIP3     28599    TIP3     H2       HT       0.417000       1.00800           0
     95714 TIP3     28600    TIP3     OH2      OT      -0.834000       15.9994           0
     95715 TIP3     28600    TIP3     H1       HT       0.417000       1.00800           0
     95716 TIP3     28600    TIP3     H2       HT       0.417000       1.00800           0
     95717 TIP3     28601    TIP3     OH2      OT      -0.834000       15.9994           0
     95718 TIP3     28601    TIP3     H1       HT       0.417000       1.00800           0
     95719 TIP3     28601    TIP3     H2       HT       0.417000       1.00800           0
     95720 TIP3     28602    TIP3     OH2      OT      -0.834000       15.9994           0
     95721 TIP3     28602    TIP3     H1       HT       0.417000       1.00800           0
     95722 TIP3     28602    TIP3     H2       HT       0.417000       1.00800           0
     95723 TIP3     28603    TIP3     OH2      OT      -0.834000       15.9994           0
     95724 TIP3     28603    TIP3     H1       HT       0.417000       1.00800           0
     95725 TIP3     28603    TIP3     H2       HT       0.417000       1.00800           0
     95726 TIP3     28604    TIP3     OH2      OT      -0.834000       15.9994           0
     95727 TIP3     28604    TIP3     H1       HT       0.417000       1.00800           0
     95728 TIP3     28604    TIP3     H2       HT       0.417000       1.00800           0
     95729 TIP3     28605    TIP3     OH2      OT      -0.834000       15.9994           0
     95730 TIP3     28605    TIP3     H1       HT       0.417000       1.00800           0
     95731 TIP3     28605    TIP3     H2       HT       0.417000       1.00800           0
     95732 TIP3     28606    TIP3     OH2      OT      -0.834000       15.9994           0
     95733 TIP3     28606    TIP3     H1       HT       0.417000       1.00800           0
     95734 TIP3     28606    TIP3     H2       HT       0.417000       1.00800           0
     95735 TIP3     28607    TIP3     OH2      OT      -0.834000       15.9994           0
     95736 TIP3     28607    TIP3     H1       HT       0.417000       1.00800           0
     95737 TIP3     28607    TIP3     H2       HT       0.417000       1.00800           0
     95738 TIP3     28608    TIP3     OH2      OT      -0.834000       15.9994           0
     95739 TIP3     28608    TIP3     H1       HT       0.417000       1.00800           0
     95740 TIP3     28608    TIP3     H2       HT       0.417000       1.00800           0
     95741 TIP3     28609    TIP3     OH2      OT      -0.834000       15.9994           0
     95742 TIP3     28609    TIP3     H1       HT       0.417000       1.00800           0
     95743 TIP3     28609    TIP3     H2       HT       0.417000       1.00800           0
     95744 TIP3     28610    TIP3     OH2      OT      -0.834000       15.9994           0
     95745 TIP3     28610    TIP3     H1       HT       0.417000       1.00800           0
     95746 TIP3     28610    TIP3     H2       HT       0.417000       1.00800           0
     95747 TIP3     28611    TIP3     OH2      OT      -0.834000       15.9994           0
     95748 TIP3     28611    TIP3     H1       HT       0.417000       1.00800           0
     95749 TIP3     28611    TIP3     H2       HT       0.417000       1.00800           0
     95750 TIP3     28612    TIP3     OH2      OT      -0.834000       15.9994           0
     95751 TIP3     28612    TIP3     H1       HT       0.417000       1.00800           0
     95752 TIP3     28612    TIP3     H2       HT       0.417000       1.00800           0
     95753 TIP3     28613    TIP3     OH2      OT      -0.834000       15.9994           0
     95754 TIP3     28613    TIP3     H1       HT       0.417000       1.00800           0
     95755 TIP3     28613    TIP3     H2       HT       0.417000       1.00800           0
     95756 TIP3     28614    TIP3     OH2      OT      -0.834000       15.9994           0
     95757 TIP3     28614    TIP3     H1       HT       0.417000       1.00800           0
     95758 TIP3     28614    TIP3     H2       HT       0.417000       1.00800           0
     95759 TIP3     28615    TIP3     OH2      OT      -0.834000       15.9994           0
     95760 TIP3     28615    TIP3     H1       HT       0.417000       1.00800           0
     95761 TIP3     28615    TIP3     H2       HT       0.417000       1.00800           0
     95762 TIP3     28616    TIP3     OH2      OT      -0.834000       15.9994           0
     95763 TIP3     28616    TIP3     H1       HT       0.417000       1.00800           0
     95764 TIP3     28616    TIP3     H2       HT       0.417000       1.00800           0
     95765 TIP3     28617    TIP3     OH2      OT      -0.834000       15.9994           0
     95766 TIP3     28617    TIP3     H1       HT       0.417000       1.00800           0
     95767 TIP3     28617    TIP3     H2       HT       0.417000       1.00800           0
     95768 TIP3     28618    TIP3     OH2      OT      -0.834000       15.9994           0
     95769 TIP3     28618    TIP3     H1       HT       0.417000       1.00800           0
     95770 TIP3     28618    TIP3     H2       HT       0.417000       1.00800           0
     95771 TIP3     28619    TIP3     OH2      OT      -0.834000       15.9994           0
     95772 TIP3     28619    TIP3     H1       HT       0.417000       1.00800           0
     95773 TIP3     28619    TIP3     H2       HT       0.417000       1.00800           0
     95774 TIP3     28620    TIP3     OH2      OT      -0.834000       15.9994           0
     95775 TIP3     28620    TIP3     H1       HT       0.417000       1.00800           0
     95776 TIP3     28620    TIP3     H2       HT       0.417000       1.00800           0
     95777 TIP3     28621    TIP3     OH2      OT      -0.834000       15.9994           0
     95778 TIP3     28621    TIP3     H1       HT       0.417000       1.00800           0
     95779 TIP3     28621    TIP3     H2       HT       0.417000       1.00800           0
     95780 TIP3     28622    TIP3     OH2      OT      -0.834000       15.9994           0
     95781 TIP3     28622    TIP3     H1       HT       0.417000       1.00800           0
     95782 TIP3     28622    TIP3     H2       HT       0.417000       1.00800           0
     95783 TIP3     28623    TIP3     OH2      OT      -0.834000       15.9994           0
     95784 TIP3     28623    TIP3     H1       HT       0.417000       1.00800           0
     95785 TIP3     28623    TIP3     H2       HT       0.417000       1.00800           0
     95786 TIP3     28624    TIP3     OH2      OT      -0.834000       15.9994           0
     95787 TIP3     28624    TIP3     H1       HT       0.417000       1.00800           0
     95788 TIP3     28624    TIP3     H2       HT       0.417000       1.00800           0
     95789 TIP3     28625    TIP3     OH2      OT      -0.834000       15.9994           0
     95790 TIP3     28625    TIP3     H1       HT       0.417000       1.00800           0
     95791 TIP3     28625    TIP3     H2       HT       0.417000       1.00800           0
     95792 TIP3     28626    TIP3     OH2      OT      -0.834000       15.9994           0
     95793 TIP3     28626    TIP3     H1       HT       0.417000       1.00800           0
     95794 TIP3     28626    TIP3     H2       HT       0.417000       1.00800           0
     95795 TIP3     28627    TIP3     OH2      OT      -0.834000       15.9994           0
     95796 TIP3     28627    TIP3     H1       HT       0.417000       1.00800           0
     95797 TIP3     28627    TIP3     H2       HT       0.417000       1.00800           0
     95798 TIP3     28628    TIP3     OH2      OT      -0.834000       15.9994           0
     95799 TIP3     28628    TIP3     H1       HT       0.417000       1.00800           0
     95800 TIP3     28628    TIP3     H2       HT       0.417000       1.00800           0
     95801 TIP3     28629    TIP3     OH2      OT      -0.834000       15.9994           0
     95802 TIP3     28629    TIP3     H1       HT       0.417000       1.00800           0
     95803 TIP3     28629    TIP3     H2       HT       0.417000       1.00800           0
     95804 TIP3     28630    TIP3     OH2      OT      -0.834000       15.9994           0
     95805 TIP3     28630    TIP3     H1       HT       0.417000       1.00800           0
     95806 TIP3     28630    TIP3     H2       HT       0.417000       1.00800           0
     95807 TIP3     28631    TIP3     OH2      OT      -0.834000       15.9994           0
     95808 TIP3     28631    TIP3     H1       HT       0.417000       1.00800           0
     95809 TIP3     28631    TIP3     H2       HT       0.417000       1.00800           0
     95810 TIP3     28632    TIP3     OH2      OT      -0.834000       15.9994           0
     95811 TIP3     28632    TIP3     H1       HT       0.417000       1.00800           0
     95812 TIP3     28632    TIP3     H2       HT       0.417000       1.00800           0
     95813 TIP3     28633    TIP3     OH2      OT      -0.834000       15.9994           0
     95814 TIP3     28633    TIP3     H1       HT       0.417000       1.00800           0
     95815 TIP3     28633    TIP3     H2       HT       0.417000       1.00800           0
     95816 TIP3     28634    TIP3     OH2      OT      -0.834000       15.9994           0
     95817 TIP3     28634    TIP3     H1       HT       0.417000       1.00800           0
     95818 TIP3     28634    TIP3     H2       HT       0.417000       1.00800           0
     95819 TIP3     28635    TIP3     OH2      OT      -0.834000       15.9994           0
     95820 TIP3     28635    TIP3     H1       HT       0.417000       1.00800           0
     95821 TIP3     28635    TIP3     H2       HT       0.417000       1.00800           0
     95822 TIP3     28636    TIP3     OH2      OT      -0.834000       15.9994           0
     95823 TIP3     28636    TIP3     H1       HT       0.417000       1.00800           0
     95824 TIP3     28636    TIP3     H2       HT       0.417000       1.00800           0
     95825 TIP3     28637    TIP3     OH2      OT      -0.834000       15.9994           0
     95826 TIP3     28637    TIP3     H1       HT       0.417000       1.00800           0
     95827 TIP3     28637    TIP3     H2       HT       0.417000       1.00800           0
     95828 TIP3     28638    TIP3     OH2      OT      -0.834000       15.9994           0
     95829 TIP3     28638    TIP3     H1       HT       0.417000       1.00800           0
     95830 TIP3     28638    TIP3     H2       HT       0.417000       1.00800           0
     95831 TIP3     28639    TIP3     OH2      OT      -0.834000       15.9994           0
     95832 TIP3     28639    TIP3     H1       HT       0.417000       1.00800           0
     95833 TIP3     28639    TIP3     H2       HT       0.417000       1.00800           0
     95834 TIP3     28640    TIP3     OH2      OT      -0.834000       15.9994           0
     95835 TIP3     28640    TIP3     H1       HT       0.417000       1.00800           0
     95836 TIP3     28640    TIP3     H2       HT       0.417000       1.00800           0
     95837 TIP3     28641    TIP3     OH2      OT      -0.834000       15.9994           0
     95838 TIP3     28641    TIP3     H1       HT       0.417000       1.00800           0
     95839 TIP3     28641    TIP3     H2       HT       0.417000       1.00800           0
     95840 TIP3     28642    TIP3     OH2      OT      -0.834000       15.9994           0
     95841 TIP3     28642    TIP3     H1       HT       0.417000       1.00800           0
     95842 TIP3     28642    TIP3     H2       HT       0.417000       1.00800           0
     95843 TIP3     28643    TIP3     OH2      OT      -0.834000       15.9994           0
     95844 TIP3     28643    TIP3     H1       HT       0.417000       1.00800           0
     95845 TIP3     28643    TIP3     H2       HT       0.417000       1.00800           0
     95846 TIP3     28644    TIP3     OH2      OT      -0.834000       15.9994           0
     95847 TIP3     28644    TIP3     H1       HT       0.417000       1.00800           0
     95848 TIP3     28644    TIP3     H2       HT       0.417000       1.00800           0
     95849 TIP3     28645    TIP3     OH2      OT      -0.834000       15.9994           0
     95850 TIP3     28645    TIP3     H1       HT       0.417000       1.00800           0
     95851 TIP3     28645    TIP3     H2       HT       0.417000       1.00800           0
     95852 TIP3     28646    TIP3     OH2      OT      -0.834000       15.9994           0
     95853 TIP3     28646    TIP3     H1       HT       0.417000       1.00800           0
     95854 TIP3     28646    TIP3     H2       HT       0.417000       1.00800           0
     95855 TIP3     28647    TIP3     OH2      OT      -0.834000       15.9994           0
     95856 TIP3     28647    TIP3     H1       HT       0.417000       1.00800           0
     95857 TIP3     28647    TIP3     H2       HT       0.417000       1.00800           0
     95858 TIP3     28648    TIP3     OH2      OT      -0.834000       15.9994           0
     95859 TIP3     28648    TIP3     H1       HT       0.417000       1.00800           0
     95860 TIP3     28648    TIP3     H2       HT       0.417000       1.00800           0
     95861 TIP3     28649    TIP3     OH2      OT      -0.834000       15.9994           0
     95862 TIP3     28649    TIP3     H1       HT       0.417000       1.00800           0
     95863 TIP3     28649    TIP3     H2       HT       0.417000       1.00800           0
     95864 TIP3     28650    TIP3     OH2      OT      -0.834000       15.9994           0
     95865 TIP3     28650    TIP3     H1       HT       0.417000       1.00800           0
     95866 TIP3     28650    TIP3     H2       HT       0.417000       1.00800           0
     95867 TIP3     28651    TIP3     OH2      OT      -0.834000       15.9994           0
     95868 TIP3     28651    TIP3     H1       HT       0.417000       1.00800           0
     95869 TIP3     28651    TIP3     H2       HT       0.417000       1.00800           0
     95870 TIP3     28652    TIP3     OH2      OT      -0.834000       15.9994           0
     95871 TIP3     28652    TIP3     H1       HT       0.417000       1.00800           0
     95872 TIP3     28652    TIP3     H2       HT       0.417000       1.00800           0
     95873 TIP3     28653    TIP3     OH2      OT      -0.834000       15.9994           0
     95874 TIP3     28653    TIP3     H1       HT       0.417000       1.00800           0
     95875 TIP3     28653    TIP3     H2       HT       0.417000       1.00800           0
     95876 TIP3     28654    TIP3     OH2      OT      -0.834000       15.9994           0
     95877 TIP3     28654    TIP3     H1       HT       0.417000       1.00800           0
     95878 TIP3     28654    TIP3     H2       HT       0.417000       1.00800           0
     95879 TIP3     28655    TIP3     OH2      OT      -0.834000       15.9994           0
     95880 TIP3     28655    TIP3     H1       HT       0.417000       1.00800           0
     95881 TIP3     28655    TIP3     H2       HT       0.417000       1.00800           0
     95882 TIP3     28656    TIP3     OH2      OT      -0.834000       15.9994           0
     95883 TIP3     28656    TIP3     H1       HT       0.417000       1.00800           0
     95884 TIP3     28656    TIP3     H2       HT       0.417000       1.00800           0
     95885 TIP3     28657    TIP3     OH2      OT      -0.834000       15.9994           0
     95886 TIP3     28657    TIP3     H1       HT       0.417000       1.00800           0
     95887 TIP3     28657    TIP3     H2       HT       0.417000       1.00800           0
     95888 TIP3     28658    TIP3     OH2      OT      -0.834000       15.9994           0
     95889 TIP3     28658    TIP3     H1       HT       0.417000       1.00800           0
     95890 TIP3     28658    TIP3     H2       HT       0.417000       1.00800           0
     95891 TIP3     28659    TIP3     OH2      OT      -0.834000       15.9994           0
     95892 TIP3     28659    TIP3     H1       HT       0.417000       1.00800           0
     95893 TIP3     28659    TIP3     H2       HT       0.417000       1.00800           0
     95894 TIP3     28660    TIP3     OH2      OT      -0.834000       15.9994           0
     95895 TIP3     28660    TIP3     H1       HT       0.417000       1.00800           0
     95896 TIP3     28660    TIP3     H2       HT       0.417000       1.00800           0
     95897 TIP3     28661    TIP3     OH2      OT      -0.834000       15.9994           0
     95898 TIP3     28661    TIP3     H1       HT       0.417000       1.00800           0
     95899 TIP3     28661    TIP3     H2       HT       0.417000       1.00800           0
     95900 TIP3     28662    TIP3     OH2      OT      -0.834000       15.9994           0
     95901 TIP3     28662    TIP3     H1       HT       0.417000       1.00800           0
     95902 TIP3     28662    TIP3     H2       HT       0.417000       1.00800           0
     95903 TIP3     28663    TIP3     OH2      OT      -0.834000       15.9994           0
     95904 TIP3     28663    TIP3     H1       HT       0.417000       1.00800           0
     95905 TIP3     28663    TIP3     H2       HT       0.417000       1.00800           0
     95906 TIP3     28664    TIP3     OH2      OT      -0.834000       15.9994           0
     95907 TIP3     28664    TIP3     H1       HT       0.417000       1.00800           0
     95908 TIP3     28664    TIP3     H2       HT       0.417000       1.00800           0
     95909 TIP3     28665    TIP3     OH2      OT      -0.834000       15.9994           0
     95910 TIP3     28665    TIP3     H1       HT       0.417000       1.00800           0
     95911 TIP3     28665    TIP3     H2       HT       0.417000       1.00800           0
     95912 TIP3     28666    TIP3     OH2      OT      -0.834000       15.9994           0
     95913 TIP3     28666    TIP3     H1       HT       0.417000       1.00800           0
     95914 TIP3     28666    TIP3     H2       HT       0.417000       1.00800           0
     95915 TIP3     28667    TIP3     OH2      OT      -0.834000       15.9994           0
     95916 TIP3     28667    TIP3     H1       HT       0.417000       1.00800           0
     95917 TIP3     28667    TIP3     H2       HT       0.417000       1.00800           0
     95918 TIP3     28668    TIP3     OH2      OT      -0.834000       15.9994           0
     95919 TIP3     28668    TIP3     H1       HT       0.417000       1.00800           0
     95920 TIP3     28668    TIP3     H2       HT       0.417000       1.00800           0
     95921 TIP3     28669    TIP3     OH2      OT      -0.834000       15.9994           0
     95922 TIP3     28669    TIP3     H1       HT       0.417000       1.00800           0
     95923 TIP3     28669    TIP3     H2       HT       0.417000       1.00800           0
     95924 TIP3     28670    TIP3     OH2      OT      -0.834000       15.9994           0
     95925 TIP3     28670    TIP3     H1       HT       0.417000       1.00800           0
     95926 TIP3     28670    TIP3     H2       HT       0.417000       1.00800           0
     95927 TIP3     28671    TIP3     OH2      OT      -0.834000       15.9994           0
     95928 TIP3     28671    TIP3     H1       HT       0.417000       1.00800           0
     95929 TIP3     28671    TIP3     H2       HT       0.417000       1.00800           0
     95930 TIP3     28672    TIP3     OH2      OT      -0.834000       15.9994           0
     95931 TIP3     28672    TIP3     H1       HT       0.417000       1.00800           0
     95932 TIP3     28672    TIP3     H2       HT       0.417000       1.00800           0
     95933 TIP3     28673    TIP3     OH2      OT      -0.834000       15.9994           0
     95934 TIP3     28673    TIP3     H1       HT       0.417000       1.00800           0
     95935 TIP3     28673    TIP3     H2       HT       0.417000       1.00800           0
     95936 TIP3     28674    TIP3     OH2      OT      -0.834000       15.9994           0
     95937 TIP3     28674    TIP3     H1       HT       0.417000       1.00800           0
     95938 TIP3     28674    TIP3     H2       HT       0.417000       1.00800           0
     95939 TIP3     28675    TIP3     OH2      OT      -0.834000       15.9994           0
     95940 TIP3     28675    TIP3     H1       HT       0.417000       1.00800           0
     95941 TIP3     28675    TIP3     H2       HT       0.417000       1.00800           0
     95942 TIP3     28676    TIP3     OH2      OT      -0.834000       15.9994           0
     95943 TIP3     28676    TIP3     H1       HT       0.417000       1.00800           0
     95944 TIP3     28676    TIP3     H2       HT       0.417000       1.00800           0
     95945 TIP3     28677    TIP3     OH2      OT      -0.834000       15.9994           0
     95946 TIP3     28677    TIP3     H1       HT       0.417000       1.00800           0
     95947 TIP3     28677    TIP3     H2       HT       0.417000       1.00800           0
     95948 TIP3     28678    TIP3     OH2      OT      -0.834000       15.9994           0
     95949 TIP3     28678    TIP3     H1       HT       0.417000       1.00800           0
     95950 TIP3     28678    TIP3     H2       HT       0.417000       1.00800           0
     95951 TIP3     28679    TIP3     OH2      OT      -0.834000       15.9994           0
     95952 TIP3     28679    TIP3     H1       HT       0.417000       1.00800           0
     95953 TIP3     28679    TIP3     H2       HT       0.417000       1.00800           0
     95954 TIP3     28680    TIP3     OH2      OT      -0.834000       15.9994           0
     95955 TIP3     28680    TIP3     H1       HT       0.417000       1.00800           0
     95956 TIP3     28680    TIP3     H2       HT       0.417000       1.00800           0
     95957 TIP3     28681    TIP3     OH2      OT      -0.834000       15.9994           0
     95958 TIP3     28681    TIP3     H1       HT       0.417000       1.00800           0
     95959 TIP3     28681    TIP3     H2       HT       0.417000       1.00800           0
     95960 TIP3     28682    TIP3     OH2      OT      -0.834000       15.9994           0
     95961 TIP3     28682    TIP3     H1       HT       0.417000       1.00800           0
     95962 TIP3     28682    TIP3     H2       HT       0.417000       1.00800           0
     95963 TIP3     28683    TIP3     OH2      OT      -0.834000       15.9994           0
     95964 TIP3     28683    TIP3     H1       HT       0.417000       1.00800           0
     95965 TIP3     28683    TIP3     H2       HT       0.417000       1.00800           0
     95966 TIP3     28684    TIP3     OH2      OT      -0.834000       15.9994           0
     95967 TIP3     28684    TIP3     H1       HT       0.417000       1.00800           0
     95968 TIP3     28684    TIP3     H2       HT       0.417000       1.00800           0
     95969 TIP3     28685    TIP3     OH2      OT      -0.834000       15.9994           0
     95970 TIP3     28685    TIP3     H1       HT       0.417000       1.00800           0
     95971 TIP3     28685    TIP3     H2       HT       0.417000       1.00800           0
     95972 TIP3     28686    TIP3     OH2      OT      -0.834000       15.9994           0
     95973 TIP3     28686    TIP3     H1       HT       0.417000       1.00800           0
     95974 TIP3     28686    TIP3     H2       HT       0.417000       1.00800           0
     95975 TIP3     28687    TIP3     OH2      OT      -0.834000       15.9994           0
     95976 TIP3     28687    TIP3     H1       HT       0.417000       1.00800           0
     95977 TIP3     28687    TIP3     H2       HT       0.417000       1.00800           0
     95978 TIP3     28688    TIP3     OH2      OT      -0.834000       15.9994           0
     95979 TIP3     28688    TIP3     H1       HT       0.417000       1.00800           0
     95980 TIP3     28688    TIP3     H2       HT       0.417000       1.00800           0
     95981 TIP3     28689    TIP3     OH2      OT      -0.834000       15.9994           0
     95982 TIP3     28689    TIP3     H1       HT       0.417000       1.00800           0
     95983 TIP3     28689    TIP3     H2       HT       0.417000       1.00800           0
     95984 TIP3     28690    TIP3     OH2      OT      -0.834000       15.9994           0
     95985 TIP3     28690    TIP3     H1       HT       0.417000       1.00800           0
     95986 TIP3     28690    TIP3     H2       HT       0.417000       1.00800           0
     95987 TIP3     28691    TIP3     OH2      OT      -0.834000       15.9994           0
     95988 TIP3     28691    TIP3     H1       HT       0.417000       1.00800           0
     95989 TIP3     28691    TIP3     H2       HT       0.417000       1.00800           0
     95990 TIP3     28692    TIP3     OH2      OT      -0.834000       15.9994           0
     95991 TIP3     28692    TIP3     H1       HT       0.417000       1.00800           0
     95992 TIP3     28692    TIP3     H2       HT       0.417000       1.00800           0
     95993 TIP3     28693    TIP3     OH2      OT      -0.834000       15.9994           0
     95994 TIP3     28693    TIP3     H1       HT       0.417000       1.00800           0
     95995 TIP3     28693    TIP3     H2       HT       0.417000       1.00800           0
     95996 TIP3     28694    TIP3     OH2      OT      -0.834000       15.9994           0
     95997 TIP3     28694    TIP3     H1       HT       0.417000       1.00800           0
     95998 TIP3     28694    TIP3     H2       HT       0.417000       1.00800           0
     95999 TIP3     28695    TIP3     OH2      OT      -0.834000       15.9994           0
     96000 TIP3     28695    TIP3     H1       HT       0.417000       1.00800           0
     96001 TIP3     28695    TIP3     H2       HT       0.417000       1.00800           0
     96002 TIP3     28696    TIP3     OH2      OT      -0.834000       15.9994           0
     96003 TIP3     28696    TIP3     H1       HT       0.417000       1.00800           0
     96004 TIP3     28696    TIP3     H2       HT       0.417000       1.00800           0
     96005 TIP3     28697    TIP3     OH2      OT      -0.834000       15.9994           0
     96006 TIP3     28697    TIP3     H1       HT       0.417000       1.00800           0
     96007 TIP3     28697    TIP3     H2       HT       0.417000       1.00800           0
     96008 TIP3     28698    TIP3     OH2      OT      -0.834000       15.9994           0
     96009 TIP3     28698    TIP3     H1       HT       0.417000       1.00800           0
     96010 TIP3     28698    TIP3     H2       HT       0.417000       1.00800           0
     96011 TIP3     28699    TIP3     OH2      OT      -0.834000       15.9994           0
     96012 TIP3     28699    TIP3     H1       HT       0.417000       1.00800           0
     96013 TIP3     28699    TIP3     H2       HT       0.417000       1.00800           0
     96014 TIP3     28700    TIP3     OH2      OT      -0.834000       15.9994           0
     96015 TIP3     28700    TIP3     H1       HT       0.417000       1.00800           0
     96016 TIP3     28700    TIP3     H2       HT       0.417000       1.00800           0
     96017 TIP3     28701    TIP3     OH2      OT      -0.834000       15.9994           0
     96018 TIP3     28701    TIP3     H1       HT       0.417000       1.00800           0
     96019 TIP3     28701    TIP3     H2       HT       0.417000       1.00800           0
     96020 TIP3     28702    TIP3     OH2      OT      -0.834000       15.9994           0
     96021 TIP3     28702    TIP3     H1       HT       0.417000       1.00800           0
     96022 TIP3     28702    TIP3     H2       HT       0.417000       1.00800           0
     96023 TIP3     28703    TIP3     OH2      OT      -0.834000       15.9994           0
     96024 TIP3     28703    TIP3     H1       HT       0.417000       1.00800           0
     96025 TIP3     28703    TIP3     H2       HT       0.417000       1.00800           0
     96026 TIP3     28704    TIP3     OH2      OT      -0.834000       15.9994           0
     96027 TIP3     28704    TIP3     H1       HT       0.417000       1.00800           0
     96028 TIP3     28704    TIP3     H2       HT       0.417000       1.00800           0
     96029 TIP3     28705    TIP3     OH2      OT      -0.834000       15.9994           0
     96030 TIP3     28705    TIP3     H1       HT       0.417000       1.00800           0
     96031 TIP3     28705    TIP3     H2       HT       0.417000       1.00800           0
     96032 TIP3     28706    TIP3     OH2      OT      -0.834000       15.9994           0
     96033 TIP3     28706    TIP3     H1       HT       0.417000       1.00800           0
     96034 TIP3     28706    TIP3     H2       HT       0.417000       1.00800           0
     96035 TIP3     28707    TIP3     OH2      OT      -0.834000       15.9994           0
     96036 TIP3     28707    TIP3     H1       HT       0.417000       1.00800           0
     96037 TIP3     28707    TIP3     H2       HT       0.417000       1.00800           0
     96038 TIP3     28708    TIP3     OH2      OT      -0.834000       15.9994           0
     96039 TIP3     28708    TIP3     H1       HT       0.417000       1.00800           0
     96040 TIP3     28708    TIP3     H2       HT       0.417000       1.00800           0
     96041 TIP3     28709    TIP3     OH2      OT      -0.834000       15.9994           0
     96042 TIP3     28709    TIP3     H1       HT       0.417000       1.00800           0
     96043 TIP3     28709    TIP3     H2       HT       0.417000       1.00800           0
     96044 TIP3     28710    TIP3     OH2      OT      -0.834000       15.9994           0
     96045 TIP3     28710    TIP3     H1       HT       0.417000       1.00800           0
     96046 TIP3     28710    TIP3     H2       HT       0.417000       1.00800           0
     96047 TIP3     28711    TIP3     OH2      OT      -0.834000       15.9994           0
     96048 TIP3     28711    TIP3     H1       HT       0.417000       1.00800           0
     96049 TIP3     28711    TIP3     H2       HT       0.417000       1.00800           0
     96050 TIP3     28712    TIP3     OH2      OT      -0.834000       15.9994           0
     96051 TIP3     28712    TIP3     H1       HT       0.417000       1.00800           0
     96052 TIP3     28712    TIP3     H2       HT       0.417000       1.00800           0
     96053 TIP3     28713    TIP3     OH2      OT      -0.834000       15.9994           0
     96054 TIP3     28713    TIP3     H1       HT       0.417000       1.00800           0
     96055 TIP3     28713    TIP3     H2       HT       0.417000       1.00800           0
     96056 TIP3     28714    TIP3     OH2      OT      -0.834000       15.9994           0
     96057 TIP3     28714    TIP3     H1       HT       0.417000       1.00800           0
     96058 TIP3     28714    TIP3     H2       HT       0.417000       1.00800           0
     96059 TIP3     28715    TIP3     OH2      OT      -0.834000       15.9994           0
     96060 TIP3     28715    TIP3     H1       HT       0.417000       1.00800           0
     96061 TIP3     28715    TIP3     H2       HT       0.417000       1.00800           0
     96062 TIP3     28716    TIP3     OH2      OT      -0.834000       15.9994           0
     96063 TIP3     28716    TIP3     H1       HT       0.417000       1.00800           0
     96064 TIP3     28716    TIP3     H2       HT       0.417000       1.00800           0
     96065 TIP3     28717    TIP3     OH2      OT      -0.834000       15.9994           0
     96066 TIP3     28717    TIP3     H1       HT       0.417000       1.00800           0
     96067 TIP3     28717    TIP3     H2       HT       0.417000       1.00800           0
     96068 TIP3     28718    TIP3     OH2      OT      -0.834000       15.9994           0
     96069 TIP3     28718    TIP3     H1       HT       0.417000       1.00800           0
     96070 TIP3     28718    TIP3     H2       HT       0.417000       1.00800           0
     96071 TIP3     28719    TIP3     OH2      OT      -0.834000       15.9994           0
     96072 TIP3     28719    TIP3     H1       HT       0.417000       1.00800           0
     96073 TIP3     28719    TIP3     H2       HT       0.417000       1.00800           0
     96074 TIP3     28720    TIP3     OH2      OT      -0.834000       15.9994           0
     96075 TIP3     28720    TIP3     H1       HT       0.417000       1.00800           0
     96076 TIP3     28720    TIP3     H2       HT       0.417000       1.00800           0
     96077 TIP3     28721    TIP3     OH2      OT      -0.834000       15.9994           0
     96078 TIP3     28721    TIP3     H1       HT       0.417000       1.00800           0
     96079 TIP3     28721    TIP3     H2       HT       0.417000       1.00800           0
     96080 TIP3     28722    TIP3     OH2      OT      -0.834000       15.9994           0
     96081 TIP3     28722    TIP3     H1       HT       0.417000       1.00800           0
     96082 TIP3     28722    TIP3     H2       HT       0.417000       1.00800           0
     96083 TIP3     28723    TIP3     OH2      OT      -0.834000       15.9994           0
     96084 TIP3     28723    TIP3     H1       HT       0.417000       1.00800           0
     96085 TIP3     28723    TIP3     H2       HT       0.417000       1.00800           0
     96086 TIP3     28724    TIP3     OH2      OT      -0.834000       15.9994           0
     96087 TIP3     28724    TIP3     H1       HT       0.417000       1.00800           0
     96088 TIP3     28724    TIP3     H2       HT       0.417000       1.00800           0
     96089 TIP3     28725    TIP3     OH2      OT      -0.834000       15.9994           0
     96090 TIP3     28725    TIP3     H1       HT       0.417000       1.00800           0
     96091 TIP3     28725    TIP3     H2       HT       0.417000       1.00800           0
     96092 TIP3     28726    TIP3     OH2      OT      -0.834000       15.9994           0
     96093 TIP3     28726    TIP3     H1       HT       0.417000       1.00800           0
     96094 TIP3     28726    TIP3     H2       HT       0.417000       1.00800           0
     96095 TIP3     28727    TIP3     OH2      OT      -0.834000       15.9994           0
     96096 TIP3     28727    TIP3     H1       HT       0.417000       1.00800           0
     96097 TIP3     28727    TIP3     H2       HT       0.417000       1.00800           0
     96098 TIP3     28728    TIP3     OH2      OT      -0.834000       15.9994           0
     96099 TIP3     28728    TIP3     H1       HT       0.417000       1.00800           0
     96100 TIP3     28728    TIP3     H2       HT       0.417000       1.00800           0
     96101 TIP3     28729    TIP3     OH2      OT      -0.834000       15.9994           0
     96102 TIP3     28729    TIP3     H1       HT       0.417000       1.00800           0
     96103 TIP3     28729    TIP3     H2       HT       0.417000       1.00800           0
     96104 TIP3     28730    TIP3     OH2      OT      -0.834000       15.9994           0
     96105 TIP3     28730    TIP3     H1       HT       0.417000       1.00800           0
     96106 TIP3     28730    TIP3     H2       HT       0.417000       1.00800           0
     96107 TIP3     28731    TIP3     OH2      OT      -0.834000       15.9994           0
     96108 TIP3     28731    TIP3     H1       HT       0.417000       1.00800           0
     96109 TIP3     28731    TIP3     H2       HT       0.417000       1.00800           0
     96110 TIP3     28732    TIP3     OH2      OT      -0.834000       15.9994           0
     96111 TIP3     28732    TIP3     H1       HT       0.417000       1.00800           0
     96112 TIP3     28732    TIP3     H2       HT       0.417000       1.00800           0
     96113 TIP3     28733    TIP3     OH2      OT      -0.834000       15.9994           0
     96114 TIP3     28733    TIP3     H1       HT       0.417000       1.00800           0
     96115 TIP3     28733    TIP3     H2       HT       0.417000       1.00800           0
     96116 TIP3     28734    TIP3     OH2      OT      -0.834000       15.9994           0
     96117 TIP3     28734    TIP3     H1       HT       0.417000       1.00800           0
     96118 TIP3     28734    TIP3     H2       HT       0.417000       1.00800           0
     96119 TIP3     28735    TIP3     OH2      OT      -0.834000       15.9994           0
     96120 TIP3     28735    TIP3     H1       HT       0.417000       1.00800           0
     96121 TIP3     28735    TIP3     H2       HT       0.417000       1.00800           0
     96122 TIP3     28736    TIP3     OH2      OT      -0.834000       15.9994           0
     96123 TIP3     28736    TIP3     H1       HT       0.417000       1.00800           0
     96124 TIP3     28736    TIP3     H2       HT       0.417000       1.00800           0
     96125 TIP3     28737    TIP3     OH2      OT      -0.834000       15.9994           0
     96126 TIP3     28737    TIP3     H1       HT       0.417000       1.00800           0
     96127 TIP3     28737    TIP3     H2       HT       0.417000       1.00800           0
     96128 TIP3     28738    TIP3     OH2      OT      -0.834000       15.9994           0
     96129 TIP3     28738    TIP3     H1       HT       0.417000       1.00800           0
     96130 TIP3     28738    TIP3     H2       HT       0.417000       1.00800           0
     96131 TIP3     28739    TIP3     OH2      OT      -0.834000       15.9994           0
     96132 TIP3     28739    TIP3     H1       HT       0.417000       1.00800           0
     96133 TIP3     28739    TIP3     H2       HT       0.417000       1.00800           0
     96134 TIP3     28740    TIP3     OH2      OT      -0.834000       15.9994           0
     96135 TIP3     28740    TIP3     H1       HT       0.417000       1.00800           0
     96136 TIP3     28740    TIP3     H2       HT       0.417000       1.00800           0
     96137 TIP3     28741    TIP3     OH2      OT      -0.834000       15.9994           0
     96138 TIP3     28741    TIP3     H1       HT       0.417000       1.00800           0
     96139 TIP3     28741    TIP3     H2       HT       0.417000       1.00800           0
     96140 TIP3     28742    TIP3     OH2      OT      -0.834000       15.9994           0
     96141 TIP3     28742    TIP3     H1       HT       0.417000       1.00800           0
     96142 TIP3     28742    TIP3     H2       HT       0.417000       1.00800           0
     96143 TIP3     28743    TIP3     OH2      OT      -0.834000       15.9994           0
     96144 TIP3     28743    TIP3     H1       HT       0.417000       1.00800           0
     96145 TIP3     28743    TIP3     H2       HT       0.417000       1.00800           0
     96146 TIP3     28744    TIP3     OH2      OT      -0.834000       15.9994           0
     96147 TIP3     28744    TIP3     H1       HT       0.417000       1.00800           0
     96148 TIP3     28744    TIP3     H2       HT       0.417000       1.00800           0
     96149 TIP3     28745    TIP3     OH2      OT      -0.834000       15.9994           0
     96150 TIP3     28745    TIP3     H1       HT       0.417000       1.00800           0
     96151 TIP3     28745    TIP3     H2       HT       0.417000       1.00800           0
     96152 TIP3     28746    TIP3     OH2      OT      -0.834000       15.9994           0
     96153 TIP3     28746    TIP3     H1       HT       0.417000       1.00800           0
     96154 TIP3     28746    TIP3     H2       HT       0.417000       1.00800           0
     96155 TIP3     28747    TIP3     OH2      OT      -0.834000       15.9994           0
     96156 TIP3     28747    TIP3     H1       HT       0.417000       1.00800           0
     96157 TIP3     28747    TIP3     H2       HT       0.417000       1.00800           0
     96158 TIP3     28748    TIP3     OH2      OT      -0.834000       15.9994           0
     96159 TIP3     28748    TIP3     H1       HT       0.417000       1.00800           0
     96160 TIP3     28748    TIP3     H2       HT       0.417000       1.00800           0
     96161 TIP3     28749    TIP3     OH2      OT      -0.834000       15.9994           0
     96162 TIP3     28749    TIP3     H1       HT       0.417000       1.00800           0
     96163 TIP3     28749    TIP3     H2       HT       0.417000       1.00800           0
     96164 TIP3     28750    TIP3     OH2      OT      -0.834000       15.9994           0
     96165 TIP3     28750    TIP3     H1       HT       0.417000       1.00800           0
     96166 TIP3     28750    TIP3     H2       HT       0.417000       1.00800           0
     96167 TIP3     28751    TIP3     OH2      OT      -0.834000       15.9994           0
     96168 TIP3     28751    TIP3     H1       HT       0.417000       1.00800           0
     96169 TIP3     28751    TIP3     H2       HT       0.417000       1.00800           0
     96170 TIP3     28752    TIP3     OH2      OT      -0.834000       15.9994           0
     96171 TIP3     28752    TIP3     H1       HT       0.417000       1.00800           0
     96172 TIP3     28752    TIP3     H2       HT       0.417000       1.00800           0
     96173 TIP3     28753    TIP3     OH2      OT      -0.834000       15.9994           0
     96174 TIP3     28753    TIP3     H1       HT       0.417000       1.00800           0
     96175 TIP3     28753    TIP3     H2       HT       0.417000       1.00800           0
     96176 TIP3     28754    TIP3     OH2      OT      -0.834000       15.9994           0
     96177 TIP3     28754    TIP3     H1       HT       0.417000       1.00800           0
     96178 TIP3     28754    TIP3     H2       HT       0.417000       1.00800           0
     96179 TIP3     28755    TIP3     OH2      OT      -0.834000       15.9994           0
     96180 TIP3     28755    TIP3     H1       HT       0.417000       1.00800           0
     96181 TIP3     28755    TIP3     H2       HT       0.417000       1.00800           0
     96182 TIP3     28756    TIP3     OH2      OT      -0.834000       15.9994           0
     96183 TIP3     28756    TIP3     H1       HT       0.417000       1.00800           0
     96184 TIP3     28756    TIP3     H2       HT       0.417000       1.00800           0
     96185 TIP3     28757    TIP3     OH2      OT      -0.834000       15.9994           0
     96186 TIP3     28757    TIP3     H1       HT       0.417000       1.00800           0
     96187 TIP3     28757    TIP3     H2       HT       0.417000       1.00800           0
     96188 TIP3     28758    TIP3     OH2      OT      -0.834000       15.9994           0
     96189 TIP3     28758    TIP3     H1       HT       0.417000       1.00800           0
     96190 TIP3     28758    TIP3     H2       HT       0.417000       1.00800           0
     96191 TIP3     28759    TIP3     OH2      OT      -0.834000       15.9994           0
     96192 TIP3     28759    TIP3     H1       HT       0.417000       1.00800           0
     96193 TIP3     28759    TIP3     H2       HT       0.417000       1.00800           0
     96194 TIP3     28760    TIP3     OH2      OT      -0.834000       15.9994           0
     96195 TIP3     28760    TIP3     H1       HT       0.417000       1.00800           0
     96196 TIP3     28760    TIP3     H2       HT       0.417000       1.00800           0
     96197 TIP3     28761    TIP3     OH2      OT      -0.834000       15.9994           0
     96198 TIP3     28761    TIP3     H1       HT       0.417000       1.00800           0
     96199 TIP3     28761    TIP3     H2       HT       0.417000       1.00800           0
     96200 TIP3     28762    TIP3     OH2      OT      -0.834000       15.9994           0
     96201 TIP3     28762    TIP3     H1       HT       0.417000       1.00800           0
     96202 TIP3     28762    TIP3     H2       HT       0.417000       1.00800           0
     96203 TIP3     28763    TIP3     OH2      OT      -0.834000       15.9994           0
     96204 TIP3     28763    TIP3     H1       HT       0.417000       1.00800           0
     96205 TIP3     28763    TIP3     H2       HT       0.417000       1.00800           0
     96206 TIP3     28764    TIP3     OH2      OT      -0.834000       15.9994           0
     96207 TIP3     28764    TIP3     H1       HT       0.417000       1.00800           0
     96208 TIP3     28764    TIP3     H2       HT       0.417000       1.00800           0
     96209 TIP3     28765    TIP3     OH2      OT      -0.834000       15.9994           0
     96210 TIP3     28765    TIP3     H1       HT       0.417000       1.00800           0
     96211 TIP3     28765    TIP3     H2       HT       0.417000       1.00800           0
     96212 TIP3     28766    TIP3     OH2      OT      -0.834000       15.9994           0
     96213 TIP3     28766    TIP3     H1       HT       0.417000       1.00800           0
     96214 TIP3     28766    TIP3     H2       HT       0.417000       1.00800           0
     96215 TIP3     28767    TIP3     OH2      OT      -0.834000       15.9994           0
     96216 TIP3     28767    TIP3     H1       HT       0.417000       1.00800           0
     96217 TIP3     28767    TIP3     H2       HT       0.417000       1.00800           0
     96218 TIP3     28768    TIP3     OH2      OT      -0.834000       15.9994           0
     96219 TIP3     28768    TIP3     H1       HT       0.417000       1.00800           0
     96220 TIP3     28768    TIP3     H2       HT       0.417000       1.00800           0
     96221 TIP3     28769    TIP3     OH2      OT      -0.834000       15.9994           0
     96222 TIP3     28769    TIP3     H1       HT       0.417000       1.00800           0
     96223 TIP3     28769    TIP3     H2       HT       0.417000       1.00800           0
     96224 TIP3     28770    TIP3     OH2      OT      -0.834000       15.9994           0
     96225 TIP3     28770    TIP3     H1       HT       0.417000       1.00800           0
     96226 TIP3     28770    TIP3     H2       HT       0.417000       1.00800           0
     96227 TIP3     28771    TIP3     OH2      OT      -0.834000       15.9994           0
     96228 TIP3     28771    TIP3     H1       HT       0.417000       1.00800           0
     96229 TIP3     28771    TIP3     H2       HT       0.417000       1.00800           0
     96230 TIP3     28772    TIP3     OH2      OT      -0.834000       15.9994           0
     96231 TIP3     28772    TIP3     H1       HT       0.417000       1.00800           0
     96232 TIP3     28772    TIP3     H2       HT       0.417000       1.00800           0
     96233 TIP3     28773    TIP3     OH2      OT      -0.834000       15.9994           0
     96234 TIP3     28773    TIP3     H1       HT       0.417000       1.00800           0
     96235 TIP3     28773    TIP3     H2       HT       0.417000       1.00800           0
     96236 TIP3     28774    TIP3     OH2      OT      -0.834000       15.9994           0
     96237 TIP3     28774    TIP3     H1       HT       0.417000       1.00800           0
     96238 TIP3     28774    TIP3     H2       HT       0.417000       1.00800           0
     96239 TIP3     28775    TIP3     OH2      OT      -0.834000       15.9994           0
     96240 TIP3     28775    TIP3     H1       HT       0.417000       1.00800           0
     96241 TIP3     28775    TIP3     H2       HT       0.417000       1.00800           0
     96242 TIP3     28776    TIP3     OH2      OT      -0.834000       15.9994           0
     96243 TIP3     28776    TIP3     H1       HT       0.417000       1.00800           0
     96244 TIP3     28776    TIP3     H2       HT       0.417000       1.00800           0
     96245 TIP3     28777    TIP3     OH2      OT      -0.834000       15.9994           0
     96246 TIP3     28777    TIP3     H1       HT       0.417000       1.00800           0
     96247 TIP3     28777    TIP3     H2       HT       0.417000       1.00800           0
     96248 TIP3     28778    TIP3     OH2      OT      -0.834000       15.9994           0
     96249 TIP3     28778    TIP3     H1       HT       0.417000       1.00800           0
     96250 TIP3     28778    TIP3     H2       HT       0.417000       1.00800           0
     96251 TIP3     28779    TIP3     OH2      OT      -0.834000       15.9994           0
     96252 TIP3     28779    TIP3     H1       HT       0.417000       1.00800           0
     96253 TIP3     28779    TIP3     H2       HT       0.417000       1.00800           0
     96254 TIP3     28780    TIP3     OH2      OT      -0.834000       15.9994           0
     96255 TIP3     28780    TIP3     H1       HT       0.417000       1.00800           0
     96256 TIP3     28780    TIP3     H2       HT       0.417000       1.00800           0
     96257 TIP3     28781    TIP3     OH2      OT      -0.834000       15.9994           0
     96258 TIP3     28781    TIP3     H1       HT       0.417000       1.00800           0
     96259 TIP3     28781    TIP3     H2       HT       0.417000       1.00800           0
     96260 TIP3     28782    TIP3     OH2      OT      -0.834000       15.9994           0
     96261 TIP3     28782    TIP3     H1       HT       0.417000       1.00800           0
     96262 TIP3     28782    TIP3     H2       HT       0.417000       1.00800           0
     96263 TIP3     28783    TIP3     OH2      OT      -0.834000       15.9994           0
     96264 TIP3     28783    TIP3     H1       HT       0.417000       1.00800           0
     96265 TIP3     28783    TIP3     H2       HT       0.417000       1.00800           0
     96266 TIP3     28784    TIP3     OH2      OT      -0.834000       15.9994           0
     96267 TIP3     28784    TIP3     H1       HT       0.417000       1.00800           0
     96268 TIP3     28784    TIP3     H2       HT       0.417000       1.00800           0
     96269 TIP3     28785    TIP3     OH2      OT      -0.834000       15.9994           0
     96270 TIP3     28785    TIP3     H1       HT       0.417000       1.00800           0
     96271 TIP3     28785    TIP3     H2       HT       0.417000       1.00800           0
     96272 TIP3     28786    TIP3     OH2      OT      -0.834000       15.9994           0
     96273 TIP3     28786    TIP3     H1       HT       0.417000       1.00800           0
     96274 TIP3     28786    TIP3     H2       HT       0.417000       1.00800           0
     96275 TIP3     28787    TIP3     OH2      OT      -0.834000       15.9994           0
     96276 TIP3     28787    TIP3     H1       HT       0.417000       1.00800           0
     96277 TIP3     28787    TIP3     H2       HT       0.417000       1.00800           0
     96278 TIP3     28788    TIP3     OH2      OT      -0.834000       15.9994           0
     96279 TIP3     28788    TIP3     H1       HT       0.417000       1.00800           0
     96280 TIP3     28788    TIP3     H2       HT       0.417000       1.00800           0
     96281 TIP3     28789    TIP3     OH2      OT      -0.834000       15.9994           0
     96282 TIP3     28789    TIP3     H1       HT       0.417000       1.00800           0
     96283 TIP3     28789    TIP3     H2       HT       0.417000       1.00800           0
     96284 TIP3     28790    TIP3     OH2      OT      -0.834000       15.9994           0
     96285 TIP3     28790    TIP3     H1       HT       0.417000       1.00800           0
     96286 TIP3     28790    TIP3     H2       HT       0.417000       1.00800           0
     96287 TIP3     28791    TIP3     OH2      OT      -0.834000       15.9994           0
     96288 TIP3     28791    TIP3     H1       HT       0.417000       1.00800           0
     96289 TIP3     28791    TIP3     H2       HT       0.417000       1.00800           0
     96290 TIP3     28792    TIP3     OH2      OT      -0.834000       15.9994           0
     96291 TIP3     28792    TIP3     H1       HT       0.417000       1.00800           0
     96292 TIP3     28792    TIP3     H2       HT       0.417000       1.00800           0
     96293 TIP3     28793    TIP3     OH2      OT      -0.834000       15.9994           0
     96294 TIP3     28793    TIP3     H1       HT       0.417000       1.00800           0
     96295 TIP3     28793    TIP3     H2       HT       0.417000       1.00800           0
     96296 TIP3     28794    TIP3     OH2      OT      -0.834000       15.9994           0
     96297 TIP3     28794    TIP3     H1       HT       0.417000       1.00800           0
     96298 TIP3     28794    TIP3     H2       HT       0.417000       1.00800           0
     96299 TIP3     28795    TIP3     OH2      OT      -0.834000       15.9994           0
     96300 TIP3     28795    TIP3     H1       HT       0.417000       1.00800           0
     96301 TIP3     28795    TIP3     H2       HT       0.417000       1.00800           0
     96302 TIP3     28796    TIP3     OH2      OT      -0.834000       15.9994           0
     96303 TIP3     28796    TIP3     H1       HT       0.417000       1.00800           0
     96304 TIP3     28796    TIP3     H2       HT       0.417000       1.00800           0
     96305 TIP3     28797    TIP3     OH2      OT      -0.834000       15.9994           0
     96306 TIP3     28797    TIP3     H1       HT       0.417000       1.00800           0
     96307 TIP3     28797    TIP3     H2       HT       0.417000       1.00800           0
     96308 TIP3     28798    TIP3     OH2      OT      -0.834000       15.9994           0
     96309 TIP3     28798    TIP3     H1       HT       0.417000       1.00800           0
     96310 TIP3     28798    TIP3     H2       HT       0.417000       1.00800           0
     96311 TIP3     28799    TIP3     OH2      OT      -0.834000       15.9994           0
     96312 TIP3     28799    TIP3     H1       HT       0.417000       1.00800           0
     96313 TIP3     28799    TIP3     H2       HT       0.417000       1.00800           0
     96314 TIP3     28800    TIP3     OH2      OT      -0.834000       15.9994           0
     96315 TIP3     28800    TIP3     H1       HT       0.417000       1.00800           0
     96316 TIP3     28800    TIP3     H2       HT       0.417000       1.00800           0
     96317 TIP3     28801    TIP3     OH2      OT      -0.834000       15.9994           0
     96318 TIP3     28801    TIP3     H1       HT       0.417000       1.00800           0
     96319 TIP3     28801    TIP3     H2       HT       0.417000       1.00800           0
     96320 TIP3     28802    TIP3     OH2      OT      -0.834000       15.9994           0
     96321 TIP3     28802    TIP3     H1       HT       0.417000       1.00800           0
     96322 TIP3     28802    TIP3     H2       HT       0.417000       1.00800           0
     96323 TIP3     28803    TIP3     OH2      OT      -0.834000       15.9994           0
     96324 TIP3     28803    TIP3     H1       HT       0.417000       1.00800           0
     96325 TIP3     28803    TIP3     H2       HT       0.417000       1.00800           0
     96326 TIP3     28804    TIP3     OH2      OT      -0.834000       15.9994           0
     96327 TIP3     28804    TIP3     H1       HT       0.417000       1.00800           0
     96328 TIP3     28804    TIP3     H2       HT       0.417000       1.00800           0
     96329 TIP3     28805    TIP3     OH2      OT      -0.834000       15.9994           0
     96330 TIP3     28805    TIP3     H1       HT       0.417000       1.00800           0
     96331 TIP3     28805    TIP3     H2       HT       0.417000       1.00800           0
     96332 TIP3     28806    TIP3     OH2      OT      -0.834000       15.9994           0
     96333 TIP3     28806    TIP3     H1       HT       0.417000       1.00800           0
     96334 TIP3     28806    TIP3     H2       HT       0.417000       1.00800           0
     96335 TIP3     28807    TIP3     OH2      OT      -0.834000       15.9994           0
     96336 TIP3     28807    TIP3     H1       HT       0.417000       1.00800           0
     96337 TIP3     28807    TIP3     H2       HT       0.417000       1.00800           0
     96338 TIP3     28808    TIP3     OH2      OT      -0.834000       15.9994           0
     96339 TIP3     28808    TIP3     H1       HT       0.417000       1.00800           0
     96340 TIP3     28808    TIP3     H2       HT       0.417000       1.00800           0
     96341 TIP3     28809    TIP3     OH2      OT      -0.834000       15.9994           0
     96342 TIP3     28809    TIP3     H1       HT       0.417000       1.00800           0
     96343 TIP3     28809    TIP3     H2       HT       0.417000       1.00800           0
     96344 TIP3     28810    TIP3     OH2      OT      -0.834000       15.9994           0
     96345 TIP3     28810    TIP3     H1       HT       0.417000       1.00800           0
     96346 TIP3     28810    TIP3     H2       HT       0.417000       1.00800           0
     96347 TIP3     28811    TIP3     OH2      OT      -0.834000       15.9994           0
     96348 TIP3     28811    TIP3     H1       HT       0.417000       1.00800           0
     96349 TIP3     28811    TIP3     H2       HT       0.417000       1.00800           0
     96350 TIP3     28812    TIP3     OH2      OT      -0.834000       15.9994           0
     96351 TIP3     28812    TIP3     H1       HT       0.417000       1.00800           0
     96352 TIP3     28812    TIP3     H2       HT       0.417000       1.00800           0
     96353 TIP3     28813    TIP3     OH2      OT      -0.834000       15.9994           0
     96354 TIP3     28813    TIP3     H1       HT       0.417000       1.00800           0
     96355 TIP3     28813    TIP3     H2       HT       0.417000       1.00800           0
     96356 TIP3     28814    TIP3     OH2      OT      -0.834000       15.9994           0
     96357 TIP3     28814    TIP3     H1       HT       0.417000       1.00800           0
     96358 TIP3     28814    TIP3     H2       HT       0.417000       1.00800           0
     96359 TIP3     28815    TIP3     OH2      OT      -0.834000       15.9994           0
     96360 TIP3     28815    TIP3     H1       HT       0.417000       1.00800           0
     96361 TIP3     28815    TIP3     H2       HT       0.417000       1.00800           0
     96362 TIP3     28816    TIP3     OH2      OT      -0.834000       15.9994           0
     96363 TIP3     28816    TIP3     H1       HT       0.417000       1.00800           0
     96364 TIP3     28816    TIP3     H2       HT       0.417000       1.00800           0
     96365 TIP3     28817    TIP3     OH2      OT      -0.834000       15.9994           0
     96366 TIP3     28817    TIP3     H1       HT       0.417000       1.00800           0
     96367 TIP3     28817    TIP3     H2       HT       0.417000       1.00800           0
     96368 TIP3     28818    TIP3     OH2      OT      -0.834000       15.9994           0
     96369 TIP3     28818    TIP3     H1       HT       0.417000       1.00800           0
     96370 TIP3     28818    TIP3     H2       HT       0.417000       1.00800           0
     96371 TIP3     28819    TIP3     OH2      OT      -0.834000       15.9994           0
     96372 TIP3     28819    TIP3     H1       HT       0.417000       1.00800           0
     96373 TIP3     28819    TIP3     H2       HT       0.417000       1.00800           0
     96374 TIP3     28820    TIP3     OH2      OT      -0.834000       15.9994           0
     96375 TIP3     28820    TIP3     H1       HT       0.417000       1.00800           0
     96376 TIP3     28820    TIP3     H2       HT       0.417000       1.00800           0
     96377 TIP3     28821    TIP3     OH2      OT      -0.834000       15.9994           0
     96378 TIP3     28821    TIP3     H1       HT       0.417000       1.00800           0
     96379 TIP3     28821    TIP3     H2       HT       0.417000       1.00800           0
     96380 TIP3     28822    TIP3     OH2      OT      -0.834000       15.9994           0
     96381 TIP3     28822    TIP3     H1       HT       0.417000       1.00800           0
     96382 TIP3     28822    TIP3     H2       HT       0.417000       1.00800           0
     96383 TIP3     28823    TIP3     OH2      OT      -0.834000       15.9994           0
     96384 TIP3     28823    TIP3     H1       HT       0.417000       1.00800           0
     96385 TIP3     28823    TIP3     H2       HT       0.417000       1.00800           0
     96386 TIP3     28824    TIP3     OH2      OT      -0.834000       15.9994           0
     96387 TIP3     28824    TIP3     H1       HT       0.417000       1.00800           0
     96388 TIP3     28824    TIP3     H2       HT       0.417000       1.00800           0
     96389 TIP3     28825    TIP3     OH2      OT      -0.834000       15.9994           0
     96390 TIP3     28825    TIP3     H1       HT       0.417000       1.00800           0
     96391 TIP3     28825    TIP3     H2       HT       0.417000       1.00800           0
     96392 TIP3     28826    TIP3     OH2      OT      -0.834000       15.9994           0
     96393 TIP3     28826    TIP3     H1       HT       0.417000       1.00800           0
     96394 TIP3     28826    TIP3     H2       HT       0.417000       1.00800           0
     96395 TIP3     28827    TIP3     OH2      OT      -0.834000       15.9994           0
     96396 TIP3     28827    TIP3     H1       HT       0.417000       1.00800           0
     96397 TIP3     28827    TIP3     H2       HT       0.417000       1.00800           0
     96398 TIP3     28828    TIP3     OH2      OT      -0.834000       15.9994           0
     96399 TIP3     28828    TIP3     H1       HT       0.417000       1.00800           0
     96400 TIP3     28828    TIP3     H2       HT       0.417000       1.00800           0
     96401 TIP3     28829    TIP3     OH2      OT      -0.834000       15.9994           0
     96402 TIP3     28829    TIP3     H1       HT       0.417000       1.00800           0
     96403 TIP3     28829    TIP3     H2       HT       0.417000       1.00800           0
     96404 TIP3     28830    TIP3     OH2      OT      -0.834000       15.9994           0
     96405 TIP3     28830    TIP3     H1       HT       0.417000       1.00800           0
     96406 TIP3     28830    TIP3     H2       HT       0.417000       1.00800           0
     96407 TIP3     28831    TIP3     OH2      OT      -0.834000       15.9994           0
     96408 TIP3     28831    TIP3     H1       HT       0.417000       1.00800           0
     96409 TIP3     28831    TIP3     H2       HT       0.417000       1.00800           0
     96410 TIP3     28832    TIP3     OH2      OT      -0.834000       15.9994           0
     96411 TIP3     28832    TIP3     H1       HT       0.417000       1.00800           0
     96412 TIP3     28832    TIP3     H2       HT       0.417000       1.00800           0
     96413 TIP3     28833    TIP3     OH2      OT      -0.834000       15.9994           0
     96414 TIP3     28833    TIP3     H1       HT       0.417000       1.00800           0
     96415 TIP3     28833    TIP3     H2       HT       0.417000       1.00800           0
     96416 TIP3     28834    TIP3     OH2      OT      -0.834000       15.9994           0
     96417 TIP3     28834    TIP3     H1       HT       0.417000       1.00800           0
     96418 TIP3     28834    TIP3     H2       HT       0.417000       1.00800           0
     96419 TIP3     28835    TIP3     OH2      OT      -0.834000       15.9994           0
     96420 TIP3     28835    TIP3     H1       HT       0.417000       1.00800           0
     96421 TIP3     28835    TIP3     H2       HT       0.417000       1.00800           0
     96422 TIP3     28836    TIP3     OH2      OT      -0.834000       15.9994           0
     96423 TIP3     28836    TIP3     H1       HT       0.417000       1.00800           0
     96424 TIP3     28836    TIP3     H2       HT       0.417000       1.00800           0
     96425 TIP3     28837    TIP3     OH2      OT      -0.834000       15.9994           0
     96426 TIP3     28837    TIP3     H1       HT       0.417000       1.00800           0
     96427 TIP3     28837    TIP3     H2       HT       0.417000       1.00800           0
     96428 TIP3     28838    TIP3     OH2      OT      -0.834000       15.9994           0
     96429 TIP3     28838    TIP3     H1       HT       0.417000       1.00800           0
     96430 TIP3     28838    TIP3     H2       HT       0.417000       1.00800           0
     96431 TIP3     28839    TIP3     OH2      OT      -0.834000       15.9994           0
     96432 TIP3     28839    TIP3     H1       HT       0.417000       1.00800           0
     96433 TIP3     28839    TIP3     H2       HT       0.417000       1.00800           0
     96434 TIP3     28840    TIP3     OH2      OT      -0.834000       15.9994           0
     96435 TIP3     28840    TIP3     H1       HT       0.417000       1.00800           0
     96436 TIP3     28840    TIP3     H2       HT       0.417000       1.00800           0
     96437 TIP3     28841    TIP3     OH2      OT      -0.834000       15.9994           0
     96438 TIP3     28841    TIP3     H1       HT       0.417000       1.00800           0
     96439 TIP3     28841    TIP3     H2       HT       0.417000       1.00800           0
     96440 TIP3     28842    TIP3     OH2      OT      -0.834000       15.9994           0
     96441 TIP3     28842    TIP3     H1       HT       0.417000       1.00800           0
     96442 TIP3     28842    TIP3     H2       HT       0.417000       1.00800           0
     96443 TIP3     28843    TIP3     OH2      OT      -0.834000       15.9994           0
     96444 TIP3     28843    TIP3     H1       HT       0.417000       1.00800           0
     96445 TIP3     28843    TIP3     H2       HT       0.417000       1.00800           0
     96446 TIP3     28844    TIP3     OH2      OT      -0.834000       15.9994           0
     96447 TIP3     28844    TIP3     H1       HT       0.417000       1.00800           0
     96448 TIP3     28844    TIP3     H2       HT       0.417000       1.00800           0
     96449 TIP3     28845    TIP3     OH2      OT      -0.834000       15.9994           0
     96450 TIP3     28845    TIP3     H1       HT       0.417000       1.00800           0
     96451 TIP3     28845    TIP3     H2       HT       0.417000       1.00800           0
     96452 TIP3     28846    TIP3     OH2      OT      -0.834000       15.9994           0
     96453 TIP3     28846    TIP3     H1       HT       0.417000       1.00800           0
     96454 TIP3     28846    TIP3     H2       HT       0.417000       1.00800           0
     96455 TIP3     28847    TIP3     OH2      OT      -0.834000       15.9994           0
     96456 TIP3     28847    TIP3     H1       HT       0.417000       1.00800           0
     96457 TIP3     28847    TIP3     H2       HT       0.417000       1.00800           0
     96458 TIP3     28848    TIP3     OH2      OT      -0.834000       15.9994           0
     96459 TIP3     28848    TIP3     H1       HT       0.417000       1.00800           0
     96460 TIP3     28848    TIP3     H2       HT       0.417000       1.00800           0
     96461 TIP3     28849    TIP3     OH2      OT      -0.834000       15.9994           0
     96462 TIP3     28849    TIP3     H1       HT       0.417000       1.00800           0
     96463 TIP3     28849    TIP3     H2       HT       0.417000       1.00800           0
     96464 TIP3     28850    TIP3     OH2      OT      -0.834000       15.9994           0
     96465 TIP3     28850    TIP3     H1       HT       0.417000       1.00800           0
     96466 TIP3     28850    TIP3     H2       HT       0.417000       1.00800           0
     96467 TIP3     28851    TIP3     OH2      OT      -0.834000       15.9994           0
     96468 TIP3     28851    TIP3     H1       HT       0.417000       1.00800           0
     96469 TIP3     28851    TIP3     H2       HT       0.417000       1.00800           0
     96470 TIP3     28852    TIP3     OH2      OT      -0.834000       15.9994           0
     96471 TIP3     28852    TIP3     H1       HT       0.417000       1.00800           0
     96472 TIP3     28852    TIP3     H2       HT       0.417000       1.00800           0
     96473 TIP3     28853    TIP3     OH2      OT      -0.834000       15.9994           0
     96474 TIP3     28853    TIP3     H1       HT       0.417000       1.00800           0
     96475 TIP3     28853    TIP3     H2       HT       0.417000       1.00800           0
     96476 TIP3     28854    TIP3     OH2      OT      -0.834000       15.9994           0
     96477 TIP3     28854    TIP3     H1       HT       0.417000       1.00800           0
     96478 TIP3     28854    TIP3     H2       HT       0.417000       1.00800           0
     96479 TIP3     28855    TIP3     OH2      OT      -0.834000       15.9994           0
     96480 TIP3     28855    TIP3     H1       HT       0.417000       1.00800           0
     96481 TIP3     28855    TIP3     H2       HT       0.417000       1.00800           0
     96482 TIP3     28856    TIP3     OH2      OT      -0.834000       15.9994           0
     96483 TIP3     28856    TIP3     H1       HT       0.417000       1.00800           0
     96484 TIP3     28856    TIP3     H2       HT       0.417000       1.00800           0
     96485 TIP3     28857    TIP3     OH2      OT      -0.834000       15.9994           0
     96486 TIP3     28857    TIP3     H1       HT       0.417000       1.00800           0
     96487 TIP3     28857    TIP3     H2       HT       0.417000       1.00800           0
     96488 TIP3     28858    TIP3     OH2      OT      -0.834000       15.9994           0
     96489 TIP3     28858    TIP3     H1       HT       0.417000       1.00800           0
     96490 TIP3     28858    TIP3     H2       HT       0.417000       1.00800           0
     96491 TIP3     28859    TIP3     OH2      OT      -0.834000       15.9994           0
     96492 TIP3     28859    TIP3     H1       HT       0.417000       1.00800           0
     96493 TIP3     28859    TIP3     H2       HT       0.417000       1.00800           0
     96494 TIP3     28860    TIP3     OH2      OT      -0.834000       15.9994           0
     96495 TIP3     28860    TIP3     H1       HT       0.417000       1.00800           0
     96496 TIP3     28860    TIP3     H2       HT       0.417000       1.00800           0
     96497 TIP3     28861    TIP3     OH2      OT      -0.834000       15.9994           0
     96498 TIP3     28861    TIP3     H1       HT       0.417000       1.00800           0
     96499 TIP3     28861    TIP3     H2       HT       0.417000       1.00800           0
     96500 TIP3     28862    TIP3     OH2      OT      -0.834000       15.9994           0
     96501 TIP3     28862    TIP3     H1       HT       0.417000       1.00800           0
     96502 TIP3     28862    TIP3     H2       HT       0.417000       1.00800           0
     96503 TIP3     28863    TIP3     OH2      OT      -0.834000       15.9994           0
     96504 TIP3     28863    TIP3     H1       HT       0.417000       1.00800           0
     96505 TIP3     28863    TIP3     H2       HT       0.417000       1.00800           0
     96506 TIP3     28864    TIP3     OH2      OT      -0.834000       15.9994           0
     96507 TIP3     28864    TIP3     H1       HT       0.417000       1.00800           0
     96508 TIP3     28864    TIP3     H2       HT       0.417000       1.00800           0
     96509 TIP3     28865    TIP3     OH2      OT      -0.834000       15.9994           0
     96510 TIP3     28865    TIP3     H1       HT       0.417000       1.00800           0
     96511 TIP3     28865    TIP3     H2       HT       0.417000       1.00800           0
     96512 TIP3     28866    TIP3     OH2      OT      -0.834000       15.9994           0
     96513 TIP3     28866    TIP3     H1       HT       0.417000       1.00800           0
     96514 TIP3     28866    TIP3     H2       HT       0.417000       1.00800           0
     96515 TIP3     28867    TIP3     OH2      OT      -0.834000       15.9994           0
     96516 TIP3     28867    TIP3     H1       HT       0.417000       1.00800           0
     96517 TIP3     28867    TIP3     H2       HT       0.417000       1.00800           0
     96518 TIP3     28868    TIP3     OH2      OT      -0.834000       15.9994           0
     96519 TIP3     28868    TIP3     H1       HT       0.417000       1.00800           0
     96520 TIP3     28868    TIP3     H2       HT       0.417000       1.00800           0
     96521 TIP3     28869    TIP3     OH2      OT      -0.834000       15.9994           0
     96522 TIP3     28869    TIP3     H1       HT       0.417000       1.00800           0
     96523 TIP3     28869    TIP3     H2       HT       0.417000       1.00800           0
     96524 TIP3     28870    TIP3     OH2      OT      -0.834000       15.9994           0
     96525 TIP3     28870    TIP3     H1       HT       0.417000       1.00800           0
     96526 TIP3     28870    TIP3     H2       HT       0.417000       1.00800           0
     96527 TIP3     28871    TIP3     OH2      OT      -0.834000       15.9994           0
     96528 TIP3     28871    TIP3     H1       HT       0.417000       1.00800           0
     96529 TIP3     28871    TIP3     H2       HT       0.417000       1.00800           0
     96530 TIP3     28872    TIP3     OH2      OT      -0.834000       15.9994           0
     96531 TIP3     28872    TIP3     H1       HT       0.417000       1.00800           0
     96532 TIP3     28872    TIP3     H2       HT       0.417000       1.00800           0
     96533 TIP3     28873    TIP3     OH2      OT      -0.834000       15.9994           0
     96534 TIP3     28873    TIP3     H1       HT       0.417000       1.00800           0
     96535 TIP3     28873    TIP3     H2       HT       0.417000       1.00800           0
     96536 TIP3     28874    TIP3     OH2      OT      -0.834000       15.9994           0
     96537 TIP3     28874    TIP3     H1       HT       0.417000       1.00800           0
     96538 TIP3     28874    TIP3     H2       HT       0.417000       1.00800           0
     96539 TIP3     28875    TIP3     OH2      OT      -0.834000       15.9994           0
     96540 TIP3     28875    TIP3     H1       HT       0.417000       1.00800           0
     96541 TIP3     28875    TIP3     H2       HT       0.417000       1.00800           0
     96542 TIP3     28876    TIP3     OH2      OT      -0.834000       15.9994           0
     96543 TIP3     28876    TIP3     H1       HT       0.417000       1.00800           0
     96544 TIP3     28876    TIP3     H2       HT       0.417000       1.00800           0
     96545 TIP3     28877    TIP3     OH2      OT      -0.834000       15.9994           0
     96546 TIP3     28877    TIP3     H1       HT       0.417000       1.00800           0
     96547 TIP3     28877    TIP3     H2       HT       0.417000       1.00800           0
     96548 TIP3     28878    TIP3     OH2      OT      -0.834000       15.9994           0
     96549 TIP3     28878    TIP3     H1       HT       0.417000       1.00800           0
     96550 TIP3     28878    TIP3     H2       HT       0.417000       1.00800           0
     96551 TIP3     28879    TIP3     OH2      OT      -0.834000       15.9994           0
     96552 TIP3     28879    TIP3     H1       HT       0.417000       1.00800           0
     96553 TIP3     28879    TIP3     H2       HT       0.417000       1.00800           0
     96554 TIP3     28880    TIP3     OH2      OT      -0.834000       15.9994           0
     96555 TIP3     28880    TIP3     H1       HT       0.417000       1.00800           0
     96556 TIP3     28880    TIP3     H2       HT       0.417000       1.00800           0
     96557 TIP3     28881    TIP3     OH2      OT      -0.834000       15.9994           0
     96558 TIP3     28881    TIP3     H1       HT       0.417000       1.00800           0
     96559 TIP3     28881    TIP3     H2       HT       0.417000       1.00800           0
     96560 TIP3     28882    TIP3     OH2      OT      -0.834000       15.9994           0
     96561 TIP3     28882    TIP3     H1       HT       0.417000       1.00800           0
     96562 TIP3     28882    TIP3     H2       HT       0.417000       1.00800           0
     96563 TIP3     28883    TIP3     OH2      OT      -0.834000       15.9994           0
     96564 TIP3     28883    TIP3     H1       HT       0.417000       1.00800           0
     96565 TIP3     28883    TIP3     H2       HT       0.417000       1.00800           0
     96566 TIP3     28884    TIP3     OH2      OT      -0.834000       15.9994           0
     96567 TIP3     28884    TIP3     H1       HT       0.417000       1.00800           0
     96568 TIP3     28884    TIP3     H2       HT       0.417000       1.00800           0
     96569 TIP3     28885    TIP3     OH2      OT      -0.834000       15.9994           0
     96570 TIP3     28885    TIP3     H1       HT       0.417000       1.00800           0
     96571 TIP3     28885    TIP3     H2       HT       0.417000       1.00800           0
     96572 TIP3     28886    TIP3     OH2      OT      -0.834000       15.9994           0
     96573 TIP3     28886    TIP3     H1       HT       0.417000       1.00800           0
     96574 TIP3     28886    TIP3     H2       HT       0.417000       1.00800           0
     96575 TIP3     28887    TIP3     OH2      OT      -0.834000       15.9994           0
     96576 TIP3     28887    TIP3     H1       HT       0.417000       1.00800           0
     96577 TIP3     28887    TIP3     H2       HT       0.417000       1.00800           0
     96578 TIP3     28888    TIP3     OH2      OT      -0.834000       15.9994           0
     96579 TIP3     28888    TIP3     H1       HT       0.417000       1.00800           0
     96580 TIP3     28888    TIP3     H2       HT       0.417000       1.00800           0
     96581 TIP3     28889    TIP3     OH2      OT      -0.834000       15.9994           0
     96582 TIP3     28889    TIP3     H1       HT       0.417000       1.00800           0
     96583 TIP3     28889    TIP3     H2       HT       0.417000       1.00800           0
     96584 TIP3     28890    TIP3     OH2      OT      -0.834000       15.9994           0
     96585 TIP3     28890    TIP3     H1       HT       0.417000       1.00800           0
     96586 TIP3     28890    TIP3     H2       HT       0.417000       1.00800           0
     96587 TIP3     28891    TIP3     OH2      OT      -0.834000       15.9994           0
     96588 TIP3     28891    TIP3     H1       HT       0.417000       1.00800           0
     96589 TIP3     28891    TIP3     H2       HT       0.417000       1.00800           0
     96590 TIP3     28892    TIP3     OH2      OT      -0.834000       15.9994           0
     96591 TIP3     28892    TIP3     H1       HT       0.417000       1.00800           0
     96592 TIP3     28892    TIP3     H2       HT       0.417000       1.00800           0
     96593 TIP3     28893    TIP3     OH2      OT      -0.834000       15.9994           0
     96594 TIP3     28893    TIP3     H1       HT       0.417000       1.00800           0
     96595 TIP3     28893    TIP3     H2       HT       0.417000       1.00800           0
     96596 TIP3     28894    TIP3     OH2      OT      -0.834000       15.9994           0
     96597 TIP3     28894    TIP3     H1       HT       0.417000       1.00800           0
     96598 TIP3     28894    TIP3     H2       HT       0.417000       1.00800           0
     96599 TIP3     28895    TIP3     OH2      OT      -0.834000       15.9994           0
     96600 TIP3     28895    TIP3     H1       HT       0.417000       1.00800           0
     96601 TIP3     28895    TIP3     H2       HT       0.417000       1.00800           0
     96602 TIP3     28896    TIP3     OH2      OT      -0.834000       15.9994           0
     96603 TIP3     28896    TIP3     H1       HT       0.417000       1.00800           0
     96604 TIP3     28896    TIP3     H2       HT       0.417000       1.00800           0
     96605 TIP3     28897    TIP3     OH2      OT      -0.834000       15.9994           0
     96606 TIP3     28897    TIP3     H1       HT       0.417000       1.00800           0
     96607 TIP3     28897    TIP3     H2       HT       0.417000       1.00800           0
     96608 TIP3     28898    TIP3     OH2      OT      -0.834000       15.9994           0
     96609 TIP3     28898    TIP3     H1       HT       0.417000       1.00800           0
     96610 TIP3     28898    TIP3     H2       HT       0.417000       1.00800           0
     96611 TIP3     28899    TIP3     OH2      OT      -0.834000       15.9994           0
     96612 TIP3     28899    TIP3     H1       HT       0.417000       1.00800           0
     96613 TIP3     28899    TIP3     H2       HT       0.417000       1.00800           0
     96614 TIP3     28900    TIP3     OH2      OT      -0.834000       15.9994           0
     96615 TIP3     28900    TIP3     H1       HT       0.417000       1.00800           0
     96616 TIP3     28900    TIP3     H2       HT       0.417000       1.00800           0
     96617 TIP3     28901    TIP3     OH2      OT      -0.834000       15.9994           0
     96618 TIP3     28901    TIP3     H1       HT       0.417000       1.00800           0
     96619 TIP3     28901    TIP3     H2       HT       0.417000       1.00800           0
     96620 TIP3     28902    TIP3     OH2      OT      -0.834000       15.9994           0
     96621 TIP3     28902    TIP3     H1       HT       0.417000       1.00800           0
     96622 TIP3     28902    TIP3     H2       HT       0.417000       1.00800           0
     96623 TIP3     28903    TIP3     OH2      OT      -0.834000       15.9994           0
     96624 TIP3     28903    TIP3     H1       HT       0.417000       1.00800           0
     96625 TIP3     28903    TIP3     H2       HT       0.417000       1.00800           0
     96626 TIP3     28904    TIP3     OH2      OT      -0.834000       15.9994           0
     96627 TIP3     28904    TIP3     H1       HT       0.417000       1.00800           0
     96628 TIP3     28904    TIP3     H2       HT       0.417000       1.00800           0
     96629 TIP3     28905    TIP3     OH2      OT      -0.834000       15.9994           0
     96630 TIP3     28905    TIP3     H1       HT       0.417000       1.00800           0
     96631 TIP3     28905    TIP3     H2       HT       0.417000       1.00800           0
     96632 TIP3     28906    TIP3     OH2      OT      -0.834000       15.9994           0
     96633 TIP3     28906    TIP3     H1       HT       0.417000       1.00800           0
     96634 TIP3     28906    TIP3     H2       HT       0.417000       1.00800           0
     96635 TIP3     28907    TIP3     OH2      OT      -0.834000       15.9994           0
     96636 TIP3     28907    TIP3     H1       HT       0.417000       1.00800           0
     96637 TIP3     28907    TIP3     H2       HT       0.417000       1.00800           0
     96638 TIP3     28908    TIP3     OH2      OT      -0.834000       15.9994           0
     96639 TIP3     28908    TIP3     H1       HT       0.417000       1.00800           0
     96640 TIP3     28908    TIP3     H2       HT       0.417000       1.00800           0
     96641 TIP3     28909    TIP3     OH2      OT      -0.834000       15.9994           0
     96642 TIP3     28909    TIP3     H1       HT       0.417000       1.00800           0
     96643 TIP3     28909    TIP3     H2       HT       0.417000       1.00800           0
     96644 TIP3     28910    TIP3     OH2      OT      -0.834000       15.9994           0
     96645 TIP3     28910    TIP3     H1       HT       0.417000       1.00800           0
     96646 TIP3     28910    TIP3     H2       HT       0.417000       1.00800           0
     96647 TIP3     28911    TIP3     OH2      OT      -0.834000       15.9994           0
     96648 TIP3     28911    TIP3     H1       HT       0.417000       1.00800           0
     96649 TIP3     28911    TIP3     H2       HT       0.417000       1.00800           0
     96650 TIP3     28912    TIP3     OH2      OT      -0.834000       15.9994           0
     96651 TIP3     28912    TIP3     H1       HT       0.417000       1.00800           0
     96652 TIP3     28912    TIP3     H2       HT       0.417000       1.00800           0
     96653 TIP3     28913    TIP3     OH2      OT      -0.834000       15.9994           0
     96654 TIP3     28913    TIP3     H1       HT       0.417000       1.00800           0
     96655 TIP3     28913    TIP3     H2       HT       0.417000       1.00800           0
     96656 TIP3     28914    TIP3     OH2      OT      -0.834000       15.9994           0
     96657 TIP3     28914    TIP3     H1       HT       0.417000       1.00800           0
     96658 TIP3     28914    TIP3     H2       HT       0.417000       1.00800           0
     96659 TIP3     28915    TIP3     OH2      OT      -0.834000       15.9994           0
     96660 TIP3     28915    TIP3     H1       HT       0.417000       1.00800           0
     96661 TIP3     28915    TIP3     H2       HT       0.417000       1.00800           0
     96662 TIP3     28916    TIP3     OH2      OT      -0.834000       15.9994           0
     96663 TIP3     28916    TIP3     H1       HT       0.417000       1.00800           0
     96664 TIP3     28916    TIP3     H2       HT       0.417000       1.00800           0
     96665 TIP3     28917    TIP3     OH2      OT      -0.834000       15.9994           0
     96666 TIP3     28917    TIP3     H1       HT       0.417000       1.00800           0
     96667 TIP3     28917    TIP3     H2       HT       0.417000       1.00800           0
     96668 TIP3     28918    TIP3     OH2      OT      -0.834000       15.9994           0
     96669 TIP3     28918    TIP3     H1       HT       0.417000       1.00800           0
     96670 TIP3     28918    TIP3     H2       HT       0.417000       1.00800           0
     96671 TIP3     28919    TIP3     OH2      OT      -0.834000       15.9994           0
     96672 TIP3     28919    TIP3     H1       HT       0.417000       1.00800           0
     96673 TIP3     28919    TIP3     H2       HT       0.417000       1.00800           0
     96674 TIP3     28920    TIP3     OH2      OT      -0.834000       15.9994           0
     96675 TIP3     28920    TIP3     H1       HT       0.417000       1.00800           0
     96676 TIP3     28920    TIP3     H2       HT       0.417000       1.00800           0
     96677 TIP3     28921    TIP3     OH2      OT      -0.834000       15.9994           0
     96678 TIP3     28921    TIP3     H1       HT       0.417000       1.00800           0
     96679 TIP3     28921    TIP3     H2       HT       0.417000       1.00800           0
     96680 TIP3     28922    TIP3     OH2      OT      -0.834000       15.9994           0
     96681 TIP3     28922    TIP3     H1       HT       0.417000       1.00800           0
     96682 TIP3     28922    TIP3     H2       HT       0.417000       1.00800           0
     96683 TIP3     28923    TIP3     OH2      OT      -0.834000       15.9994           0
     96684 TIP3     28923    TIP3     H1       HT       0.417000       1.00800           0
     96685 TIP3     28923    TIP3     H2       HT       0.417000       1.00800           0
     96686 TIP3     28924    TIP3     OH2      OT      -0.834000       15.9994           0
     96687 TIP3     28924    TIP3     H1       HT       0.417000       1.00800           0
     96688 TIP3     28924    TIP3     H2       HT       0.417000       1.00800           0
     96689 TIP3     28925    TIP3     OH2      OT      -0.834000       15.9994           0
     96690 TIP3     28925    TIP3     H1       HT       0.417000       1.00800           0
     96691 TIP3     28925    TIP3     H2       HT       0.417000       1.00800           0
     96692 TIP3     28926    TIP3     OH2      OT      -0.834000       15.9994           0
     96693 TIP3     28926    TIP3     H1       HT       0.417000       1.00800           0
     96694 TIP3     28926    TIP3     H2       HT       0.417000       1.00800           0
     96695 TIP3     28927    TIP3     OH2      OT      -0.834000       15.9994           0
     96696 TIP3     28927    TIP3     H1       HT       0.417000       1.00800           0
     96697 TIP3     28927    TIP3     H2       HT       0.417000       1.00800           0
     96698 TIP3     28928    TIP3     OH2      OT      -0.834000       15.9994           0
     96699 TIP3     28928    TIP3     H1       HT       0.417000       1.00800           0
     96700 TIP3     28928    TIP3     H2       HT       0.417000       1.00800           0
     96701 TIP3     28929    TIP3     OH2      OT      -0.834000       15.9994           0
     96702 TIP3     28929    TIP3     H1       HT       0.417000       1.00800           0
     96703 TIP3     28929    TIP3     H2       HT       0.417000       1.00800           0
     96704 TIP3     28930    TIP3     OH2      OT      -0.834000       15.9994           0
     96705 TIP3     28930    TIP3     H1       HT       0.417000       1.00800           0
     96706 TIP3     28930    TIP3     H2       HT       0.417000       1.00800           0
     96707 TIP3     28931    TIP3     OH2      OT      -0.834000       15.9994           0
     96708 TIP3     28931    TIP3     H1       HT       0.417000       1.00800           0
     96709 TIP3     28931    TIP3     H2       HT       0.417000       1.00800           0
     96710 TIP3     28932    TIP3     OH2      OT      -0.834000       15.9994           0
     96711 TIP3     28932    TIP3     H1       HT       0.417000       1.00800           0
     96712 TIP3     28932    TIP3     H2       HT       0.417000       1.00800           0
     96713 TIP3     28933    TIP3     OH2      OT      -0.834000       15.9994           0
     96714 TIP3     28933    TIP3     H1       HT       0.417000       1.00800           0
     96715 TIP3     28933    TIP3     H2       HT       0.417000       1.00800           0
     96716 TIP3     28934    TIP3     OH2      OT      -0.834000       15.9994           0
     96717 TIP3     28934    TIP3     H1       HT       0.417000       1.00800           0
     96718 TIP3     28934    TIP3     H2       HT       0.417000       1.00800           0
     96719 TIP3     28935    TIP3     OH2      OT      -0.834000       15.9994           0
     96720 TIP3     28935    TIP3     H1       HT       0.417000       1.00800           0
     96721 TIP3     28935    TIP3     H2       HT       0.417000       1.00800           0
     96722 TIP3     28936    TIP3     OH2      OT      -0.834000       15.9994           0
     96723 TIP3     28936    TIP3     H1       HT       0.417000       1.00800           0
     96724 TIP3     28936    TIP3     H2       HT       0.417000       1.00800           0
     96725 TIP3     28937    TIP3     OH2      OT      -0.834000       15.9994           0
     96726 TIP3     28937    TIP3     H1       HT       0.417000       1.00800           0
     96727 TIP3     28937    TIP3     H2       HT       0.417000       1.00800           0
     96728 TIP3     28938    TIP3     OH2      OT      -0.834000       15.9994           0
     96729 TIP3     28938    TIP3     H1       HT       0.417000       1.00800           0
     96730 TIP3     28938    TIP3     H2       HT       0.417000       1.00800           0
     96731 TIP3     28939    TIP3     OH2      OT      -0.834000       15.9994           0
     96732 TIP3     28939    TIP3     H1       HT       0.417000       1.00800           0
     96733 TIP3     28939    TIP3     H2       HT       0.417000       1.00800           0
     96734 TIP3     28940    TIP3     OH2      OT      -0.834000       15.9994           0
     96735 TIP3     28940    TIP3     H1       HT       0.417000       1.00800           0
     96736 TIP3     28940    TIP3     H2       HT       0.417000       1.00800           0
     96737 TIP3     28941    TIP3     OH2      OT      -0.834000       15.9994           0
     96738 TIP3     28941    TIP3     H1       HT       0.417000       1.00800           0
     96739 TIP3     28941    TIP3     H2       HT       0.417000       1.00800           0
     96740 TIP3     28942    TIP3     OH2      OT      -0.834000       15.9994           0
     96741 TIP3     28942    TIP3     H1       HT       0.417000       1.00800           0
     96742 TIP3     28942    TIP3     H2       HT       0.417000       1.00800           0
     96743 TIP3     28943    TIP3     OH2      OT      -0.834000       15.9994           0
     96744 TIP3     28943    TIP3     H1       HT       0.417000       1.00800           0
     96745 TIP3     28943    TIP3     H2       HT       0.417000       1.00800           0
     96746 TIP3     28944    TIP3     OH2      OT      -0.834000       15.9994           0
     96747 TIP3     28944    TIP3     H1       HT       0.417000       1.00800           0
     96748 TIP3     28944    TIP3     H2       HT       0.417000       1.00800           0
     96749 TIP3     28945    TIP3     OH2      OT      -0.834000       15.9994           0
     96750 TIP3     28945    TIP3     H1       HT       0.417000       1.00800           0
     96751 TIP3     28945    TIP3     H2       HT       0.417000       1.00800           0
     96752 TIP3     28946    TIP3     OH2      OT      -0.834000       15.9994           0
     96753 TIP3     28946    TIP3     H1       HT       0.417000       1.00800           0
     96754 TIP3     28946    TIP3     H2       HT       0.417000       1.00800           0
     96755 TIP3     28947    TIP3     OH2      OT      -0.834000       15.9994           0
     96756 TIP3     28947    TIP3     H1       HT       0.417000       1.00800           0
     96757 TIP3     28947    TIP3     H2       HT       0.417000       1.00800           0
     96758 TIP3     28948    TIP3     OH2      OT      -0.834000       15.9994           0
     96759 TIP3     28948    TIP3     H1       HT       0.417000       1.00800           0
     96760 TIP3     28948    TIP3     H2       HT       0.417000       1.00800           0
     96761 TIP3     28949    TIP3     OH2      OT      -0.834000       15.9994           0
     96762 TIP3     28949    TIP3     H1       HT       0.417000       1.00800           0
     96763 TIP3     28949    TIP3     H2       HT       0.417000       1.00800           0
     96764 TIP3     28950    TIP3     OH2      OT      -0.834000       15.9994           0
     96765 TIP3     28950    TIP3     H1       HT       0.417000       1.00800           0
     96766 TIP3     28950    TIP3     H2       HT       0.417000       1.00800           0
     96767 TIP3     28951    TIP3     OH2      OT      -0.834000       15.9994           0
     96768 TIP3     28951    TIP3     H1       HT       0.417000       1.00800           0
     96769 TIP3     28951    TIP3     H2       HT       0.417000       1.00800           0
     96770 TIP3     28952    TIP3     OH2      OT      -0.834000       15.9994           0
     96771 TIP3     28952    TIP3     H1       HT       0.417000       1.00800           0
     96772 TIP3     28952    TIP3     H2       HT       0.417000       1.00800           0
     96773 TIP3     28953    TIP3     OH2      OT      -0.834000       15.9994           0
     96774 TIP3     28953    TIP3     H1       HT       0.417000       1.00800           0
     96775 TIP3     28953    TIP3     H2       HT       0.417000       1.00800           0
     96776 TIP3     28954    TIP3     OH2      OT      -0.834000       15.9994           0
     96777 TIP3     28954    TIP3     H1       HT       0.417000       1.00800           0
     96778 TIP3     28954    TIP3     H2       HT       0.417000       1.00800           0
     96779 TIP3     28955    TIP3     OH2      OT      -0.834000       15.9994           0
     96780 TIP3     28955    TIP3     H1       HT       0.417000       1.00800           0
     96781 TIP3     28955    TIP3     H2       HT       0.417000       1.00800           0
     96782 TIP3     28956    TIP3     OH2      OT      -0.834000       15.9994           0
     96783 TIP3     28956    TIP3     H1       HT       0.417000       1.00800           0
     96784 TIP3     28956    TIP3     H2       HT       0.417000       1.00800           0
     96785 TIP3     28957    TIP3     OH2      OT      -0.834000       15.9994           0
     96786 TIP3     28957    TIP3     H1       HT       0.417000       1.00800           0
     96787 TIP3     28957    TIP3     H2       HT       0.417000       1.00800           0
     96788 TIP3     28958    TIP3     OH2      OT      -0.834000       15.9994           0
     96789 TIP3     28958    TIP3     H1       HT       0.417000       1.00800           0
     96790 TIP3     28958    TIP3     H2       HT       0.417000       1.00800           0
     96791 TIP3     28959    TIP3     OH2      OT      -0.834000       15.9994           0
     96792 TIP3     28959    TIP3     H1       HT       0.417000       1.00800           0
     96793 TIP3     28959    TIP3     H2       HT       0.417000       1.00800           0
     96794 TIP3     28960    TIP3     OH2      OT      -0.834000       15.9994           0
     96795 TIP3     28960    TIP3     H1       HT       0.417000       1.00800           0
     96796 TIP3     28960    TIP3     H2       HT       0.417000       1.00800           0
     96797 TIP3     28961    TIP3     OH2      OT      -0.834000       15.9994           0
     96798 TIP3     28961    TIP3     H1       HT       0.417000       1.00800           0
     96799 TIP3     28961    TIP3     H2       HT       0.417000       1.00800           0
     96800 TIP3     28962    TIP3     OH2      OT      -0.834000       15.9994           0
     96801 TIP3     28962    TIP3     H1       HT       0.417000       1.00800           0
     96802 TIP3     28962    TIP3     H2       HT       0.417000       1.00800           0
     96803 TIP3     28963    TIP3     OH2      OT      -0.834000       15.9994           0
     96804 TIP3     28963    TIP3     H1       HT       0.417000       1.00800           0
     96805 TIP3     28963    TIP3     H2       HT       0.417000       1.00800           0
     96806 TIP3     28964    TIP3     OH2      OT      -0.834000       15.9994           0
     96807 TIP3     28964    TIP3     H1       HT       0.417000       1.00800           0
     96808 TIP3     28964    TIP3     H2       HT       0.417000       1.00800           0
     96809 TIP3     28965    TIP3     OH2      OT      -0.834000       15.9994           0
     96810 TIP3     28965    TIP3     H1       HT       0.417000       1.00800           0
     96811 TIP3     28965    TIP3     H2       HT       0.417000       1.00800           0
     96812 TIP3     28966    TIP3     OH2      OT      -0.834000       15.9994           0
     96813 TIP3     28966    TIP3     H1       HT       0.417000       1.00800           0
     96814 TIP3     28966    TIP3     H2       HT       0.417000       1.00800           0
     96815 TIP3     28967    TIP3     OH2      OT      -0.834000       15.9994           0
     96816 TIP3     28967    TIP3     H1       HT       0.417000       1.00800           0
     96817 TIP3     28967    TIP3     H2       HT       0.417000       1.00800           0
     96818 TIP3     28968    TIP3     OH2      OT      -0.834000       15.9994           0
     96819 TIP3     28968    TIP3     H1       HT       0.417000       1.00800           0
     96820 TIP3     28968    TIP3     H2       HT       0.417000       1.00800           0
     96821 TIP3     28969    TIP3     OH2      OT      -0.834000       15.9994           0
     96822 TIP3     28969    TIP3     H1       HT       0.417000       1.00800           0
     96823 TIP3     28969    TIP3     H2       HT       0.417000       1.00800           0
     96824 TIP3     28970    TIP3     OH2      OT      -0.834000       15.9994           0
     96825 TIP3     28970    TIP3     H1       HT       0.417000       1.00800           0
     96826 TIP3     28970    TIP3     H2       HT       0.417000       1.00800           0
     96827 TIP3     28971    TIP3     OH2      OT      -0.834000       15.9994           0
     96828 TIP3     28971    TIP3     H1       HT       0.417000       1.00800           0
     96829 TIP3     28971    TIP3     H2       HT       0.417000       1.00800           0
     96830 TIP3     28972    TIP3     OH2      OT      -0.834000       15.9994           0
     96831 TIP3     28972    TIP3     H1       HT       0.417000       1.00800           0
     96832 TIP3     28972    TIP3     H2       HT       0.417000       1.00800           0
     96833 TIP3     28973    TIP3     OH2      OT      -0.834000       15.9994           0
     96834 TIP3     28973    TIP3     H1       HT       0.417000       1.00800           0
     96835 TIP3     28973    TIP3     H2       HT       0.417000       1.00800           0
     96836 TIP3     28974    TIP3     OH2      OT      -0.834000       15.9994           0
     96837 TIP3     28974    TIP3     H1       HT       0.417000       1.00800           0
     96838 TIP3     28974    TIP3     H2       HT       0.417000       1.00800           0
     96839 TIP3     28975    TIP3     OH2      OT      -0.834000       15.9994           0
     96840 TIP3     28975    TIP3     H1       HT       0.417000       1.00800           0
     96841 TIP3     28975    TIP3     H2       HT       0.417000       1.00800           0
     96842 TIP3     28976    TIP3     OH2      OT      -0.834000       15.9994           0
     96843 TIP3     28976    TIP3     H1       HT       0.417000       1.00800           0
     96844 TIP3     28976    TIP3     H2       HT       0.417000       1.00800           0
     96845 TIP3     28977    TIP3     OH2      OT      -0.834000       15.9994           0
     96846 TIP3     28977    TIP3     H1       HT       0.417000       1.00800           0
     96847 TIP3     28977    TIP3     H2       HT       0.417000       1.00800           0
     96848 TIP3     28978    TIP3     OH2      OT      -0.834000       15.9994           0
     96849 TIP3     28978    TIP3     H1       HT       0.417000       1.00800           0
     96850 TIP3     28978    TIP3     H2       HT       0.417000       1.00800           0
     96851 TIP3     28979    TIP3     OH2      OT      -0.834000       15.9994           0
     96852 TIP3     28979    TIP3     H1       HT       0.417000       1.00800           0
     96853 TIP3     28979    TIP3     H2       HT       0.417000       1.00800           0
     96854 TIP3     28980    TIP3     OH2      OT      -0.834000       15.9994           0
     96855 TIP3     28980    TIP3     H1       HT       0.417000       1.00800           0
     96856 TIP3     28980    TIP3     H2       HT       0.417000       1.00800           0
     96857 TIP3     28981    TIP3     OH2      OT      -0.834000       15.9994           0
     96858 TIP3     28981    TIP3     H1       HT       0.417000       1.00800           0
     96859 TIP3     28981    TIP3     H2       HT       0.417000       1.00800           0
     96860 TIP3     28982    TIP3     OH2      OT      -0.834000       15.9994           0
     96861 TIP3     28982    TIP3     H1       HT       0.417000       1.00800           0
     96862 TIP3     28982    TIP3     H2       HT       0.417000       1.00800           0
     96863 TIP3     28983    TIP3     OH2      OT      -0.834000       15.9994           0
     96864 TIP3     28983    TIP3     H1       HT       0.417000       1.00800           0
     96865 TIP3     28983    TIP3     H2       HT       0.417000       1.00800           0
     96866 TIP3     28984    TIP3     OH2      OT      -0.834000       15.9994           0
     96867 TIP3     28984    TIP3     H1       HT       0.417000       1.00800           0
     96868 TIP3     28984    TIP3     H2       HT       0.417000       1.00800           0
     96869 TIP3     28985    TIP3     OH2      OT      -0.834000       15.9994           0
     96870 TIP3     28985    TIP3     H1       HT       0.417000       1.00800           0
     96871 TIP3     28985    TIP3     H2       HT       0.417000       1.00800           0
     96872 TIP3     28986    TIP3     OH2      OT      -0.834000       15.9994           0
     96873 TIP3     28986    TIP3     H1       HT       0.417000       1.00800           0
     96874 TIP3     28986    TIP3     H2       HT       0.417000       1.00800           0
     96875 TIP3     28987    TIP3     OH2      OT      -0.834000       15.9994           0
     96876 TIP3     28987    TIP3     H1       HT       0.417000       1.00800           0
     96877 TIP3     28987    TIP3     H2       HT       0.417000       1.00800           0
     96878 TIP3     28988    TIP3     OH2      OT      -0.834000       15.9994           0
     96879 TIP3     28988    TIP3     H1       HT       0.417000       1.00800           0
     96880 TIP3     28988    TIP3     H2       HT       0.417000       1.00800           0
     96881 TIP3     28989    TIP3     OH2      OT      -0.834000       15.9994           0
     96882 TIP3     28989    TIP3     H1       HT       0.417000       1.00800           0
     96883 TIP3     28989    TIP3     H2       HT       0.417000       1.00800           0
     96884 TIP3     28990    TIP3     OH2      OT      -0.834000       15.9994           0
     96885 TIP3     28990    TIP3     H1       HT       0.417000       1.00800           0
     96886 TIP3     28990    TIP3     H2       HT       0.417000       1.00800           0
     96887 TIP3     28991    TIP3     OH2      OT      -0.834000       15.9994           0
     96888 TIP3     28991    TIP3     H1       HT       0.417000       1.00800           0
     96889 TIP3     28991    TIP3     H2       HT       0.417000       1.00800           0
     96890 TIP3     28992    TIP3     OH2      OT      -0.834000       15.9994           0
     96891 TIP3     28992    TIP3     H1       HT       0.417000       1.00800           0
     96892 TIP3     28992    TIP3     H2       HT       0.417000       1.00800           0
     96893 TIP3     28993    TIP3     OH2      OT      -0.834000       15.9994           0
     96894 TIP3     28993    TIP3     H1       HT       0.417000       1.00800           0
     96895 TIP3     28993    TIP3     H2       HT       0.417000       1.00800           0
     96896 TIP3     28994    TIP3     OH2      OT      -0.834000       15.9994           0
     96897 TIP3     28994    TIP3     H1       HT       0.417000       1.00800           0
     96898 TIP3     28994    TIP3     H2       HT       0.417000       1.00800           0
     96899 TIP3     28995    TIP3     OH2      OT      -0.834000       15.9994           0
     96900 TIP3     28995    TIP3     H1       HT       0.417000       1.00800           0
     96901 TIP3     28995    TIP3     H2       HT       0.417000       1.00800           0
     96902 TIP3     28996    TIP3     OH2      OT      -0.834000       15.9994           0
     96903 TIP3     28996    TIP3     H1       HT       0.417000       1.00800           0
     96904 TIP3     28996    TIP3     H2       HT       0.417000       1.00800           0
     96905 TIP3     28997    TIP3     OH2      OT      -0.834000       15.9994           0
     96906 TIP3     28997    TIP3     H1       HT       0.417000       1.00800           0
     96907 TIP3     28997    TIP3     H2       HT       0.417000       1.00800           0
     96908 TIP3     28998    TIP3     OH2      OT      -0.834000       15.9994           0
     96909 TIP3     28998    TIP3     H1       HT       0.417000       1.00800           0
     96910 TIP3     28998    TIP3     H2       HT       0.417000       1.00800           0
     96911 TIP3     28999    TIP3     OH2      OT      -0.834000       15.9994           0
     96912 TIP3     28999    TIP3     H1       HT       0.417000       1.00800           0
     96913 TIP3     28999    TIP3     H2       HT       0.417000       1.00800           0
     96914 TIP3     29000    TIP3     OH2      OT      -0.834000       15.9994           0
     96915 TIP3     29000    TIP3     H1       HT       0.417000       1.00800           0
     96916 TIP3     29000    TIP3     H2       HT       0.417000       1.00800           0
     96917 TIP3     29001    TIP3     OH2      OT      -0.834000       15.9994           0
     96918 TIP3     29001    TIP3     H1       HT       0.417000       1.00800           0
     96919 TIP3     29001    TIP3     H2       HT       0.417000       1.00800           0
     96920 TIP3     29002    TIP3     OH2      OT      -0.834000       15.9994           0
     96921 TIP3     29002    TIP3     H1       HT       0.417000       1.00800           0
     96922 TIP3     29002    TIP3     H2       HT       0.417000       1.00800           0
     96923 TIP3     29003    TIP3     OH2      OT      -0.834000       15.9994           0
     96924 TIP3     29003    TIP3     H1       HT       0.417000       1.00800           0
     96925 TIP3     29003    TIP3     H2       HT       0.417000       1.00800           0
     96926 TIP3     29004    TIP3     OH2      OT      -0.834000       15.9994           0
     96927 TIP3     29004    TIP3     H1       HT       0.417000       1.00800           0
     96928 TIP3     29004    TIP3     H2       HT       0.417000       1.00800           0
     96929 TIP3     29005    TIP3     OH2      OT      -0.834000       15.9994           0
     96930 TIP3     29005    TIP3     H1       HT       0.417000       1.00800           0
     96931 TIP3     29005    TIP3     H2       HT       0.417000       1.00800           0
     96932 TIP3     29006    TIP3     OH2      OT      -0.834000       15.9994           0
     96933 TIP3     29006    TIP3     H1       HT       0.417000       1.00800           0
     96934 TIP3     29006    TIP3     H2       HT       0.417000       1.00800           0
     96935 TIP3     29007    TIP3     OH2      OT      -0.834000       15.9994           0
     96936 TIP3     29007    TIP3     H1       HT       0.417000       1.00800           0
     96937 TIP3     29007    TIP3     H2       HT       0.417000       1.00800           0
     96938 TIP3     29008    TIP3     OH2      OT      -0.834000       15.9994           0
     96939 TIP3     29008    TIP3     H1       HT       0.417000       1.00800           0
     96940 TIP3     29008    TIP3     H2       HT       0.417000       1.00800           0
     96941 TIP3     29009    TIP3     OH2      OT      -0.834000       15.9994           0
     96942 TIP3     29009    TIP3     H1       HT       0.417000       1.00800           0
     96943 TIP3     29009    TIP3     H2       HT       0.417000       1.00800           0
     96944 TIP3     29010    TIP3     OH2      OT      -0.834000       15.9994           0
     96945 TIP3     29010    TIP3     H1       HT       0.417000       1.00800           0
     96946 TIP3     29010    TIP3     H2       HT       0.417000       1.00800           0
     96947 TIP3     29011    TIP3     OH2      OT      -0.834000       15.9994           0
     96948 TIP3     29011    TIP3     H1       HT       0.417000       1.00800           0
     96949 TIP3     29011    TIP3     H2       HT       0.417000       1.00800           0
     96950 TIP3     29012    TIP3     OH2      OT      -0.834000       15.9994           0
     96951 TIP3     29012    TIP3     H1       HT       0.417000       1.00800           0
     96952 TIP3     29012    TIP3     H2       HT       0.417000       1.00800           0
     96953 TIP3     29013    TIP3     OH2      OT      -0.834000       15.9994           0
     96954 TIP3     29013    TIP3     H1       HT       0.417000       1.00800           0
     96955 TIP3     29013    TIP3     H2       HT       0.417000       1.00800           0
     96956 TIP3     29014    TIP3     OH2      OT      -0.834000       15.9994           0
     96957 TIP3     29014    TIP3     H1       HT       0.417000       1.00800           0
     96958 TIP3     29014    TIP3     H2       HT       0.417000       1.00800           0
     96959 TIP3     29015    TIP3     OH2      OT      -0.834000       15.9994           0
     96960 TIP3     29015    TIP3     H1       HT       0.417000       1.00800           0
     96961 TIP3     29015    TIP3     H2       HT       0.417000       1.00800           0
     96962 TIP3     29016    TIP3     OH2      OT      -0.834000       15.9994           0
     96963 TIP3     29016    TIP3     H1       HT       0.417000       1.00800           0
     96964 TIP3     29016    TIP3     H2       HT       0.417000       1.00800           0
     96965 TIP3     29017    TIP3     OH2      OT      -0.834000       15.9994           0
     96966 TIP3     29017    TIP3     H1       HT       0.417000       1.00800           0
     96967 TIP3     29017    TIP3     H2       HT       0.417000       1.00800           0
     96968 TIP3     29018    TIP3     OH2      OT      -0.834000       15.9994           0
     96969 TIP3     29018    TIP3     H1       HT       0.417000       1.00800           0
     96970 TIP3     29018    TIP3     H2       HT       0.417000       1.00800           0
     96971 TIP3     29019    TIP3     OH2      OT      -0.834000       15.9994           0
     96972 TIP3     29019    TIP3     H1       HT       0.417000       1.00800           0
     96973 TIP3     29019    TIP3     H2       HT       0.417000       1.00800           0
     96974 TIP3     29020    TIP3     OH2      OT      -0.834000       15.9994           0
     96975 TIP3     29020    TIP3     H1       HT       0.417000       1.00800           0
     96976 TIP3     29020    TIP3     H2       HT       0.417000       1.00800           0
     96977 TIP3     29021    TIP3     OH2      OT      -0.834000       15.9994           0
     96978 TIP3     29021    TIP3     H1       HT       0.417000       1.00800           0
     96979 TIP3     29021    TIP3     H2       HT       0.417000       1.00800           0
     96980 TIP3     29022    TIP3     OH2      OT      -0.834000       15.9994           0
     96981 TIP3     29022    TIP3     H1       HT       0.417000       1.00800           0
     96982 TIP3     29022    TIP3     H2       HT       0.417000       1.00800           0
     96983 TIP3     29023    TIP3     OH2      OT      -0.834000       15.9994           0
     96984 TIP3     29023    TIP3     H1       HT       0.417000       1.00800           0
     96985 TIP3     29023    TIP3     H2       HT       0.417000       1.00800           0
     96986 TIP3     29024    TIP3     OH2      OT      -0.834000       15.9994           0
     96987 TIP3     29024    TIP3     H1       HT       0.417000       1.00800           0
     96988 TIP3     29024    TIP3     H2       HT       0.417000       1.00800           0
     96989 TIP3     29025    TIP3     OH2      OT      -0.834000       15.9994           0
     96990 TIP3     29025    TIP3     H1       HT       0.417000       1.00800           0
     96991 TIP3     29025    TIP3     H2       HT       0.417000       1.00800           0
     96992 TIP3     29026    TIP3     OH2      OT      -0.834000       15.9994           0
     96993 TIP3     29026    TIP3     H1       HT       0.417000       1.00800           0
     96994 TIP3     29026    TIP3     H2       HT       0.417000       1.00800           0
     96995 TIP3     29027    TIP3     OH2      OT      -0.834000       15.9994           0
     96996 TIP3     29027    TIP3     H1       HT       0.417000       1.00800           0
     96997 TIP3     29027    TIP3     H2       HT       0.417000       1.00800           0
     96998 TIP3     29028    TIP3     OH2      OT      -0.834000       15.9994           0
     96999 TIP3     29028    TIP3     H1       HT       0.417000       1.00800           0
     97000 TIP3     29028    TIP3     H2       HT       0.417000       1.00800           0
     97001 TIP3     29029    TIP3     OH2      OT      -0.834000       15.9994           0
     97002 TIP3     29029    TIP3     H1       HT       0.417000       1.00800           0
     97003 TIP3     29029    TIP3     H2       HT       0.417000       1.00800           0
     97004 TIP3     29030    TIP3     OH2      OT      -0.834000       15.9994           0
     97005 TIP3     29030    TIP3     H1       HT       0.417000       1.00800           0
     97006 TIP3     29030    TIP3     H2       HT       0.417000       1.00800           0
     97007 TIP3     29031    TIP3     OH2      OT      -0.834000       15.9994           0
     97008 TIP3     29031    TIP3     H1       HT       0.417000       1.00800           0
     97009 TIP3     29031    TIP3     H2       HT       0.417000       1.00800           0
     97010 TIP3     29032    TIP3     OH2      OT      -0.834000       15.9994           0
     97011 TIP3     29032    TIP3     H1       HT       0.417000       1.00800           0
     97012 TIP3     29032    TIP3     H2       HT       0.417000       1.00800           0
     97013 TIP3     29033    TIP3     OH2      OT      -0.834000       15.9994           0
     97014 TIP3     29033    TIP3     H1       HT       0.417000       1.00800           0
     97015 TIP3     29033    TIP3     H2       HT       0.417000       1.00800           0
     97016 TIP3     29034    TIP3     OH2      OT      -0.834000       15.9994           0
     97017 TIP3     29034    TIP3     H1       HT       0.417000       1.00800           0
     97018 TIP3     29034    TIP3     H2       HT       0.417000       1.00800           0
     97019 TIP3     29035    TIP3     OH2      OT      -0.834000       15.9994           0
     97020 TIP3     29035    TIP3     H1       HT       0.417000       1.00800           0
     97021 TIP3     29035    TIP3     H2       HT       0.417000       1.00800           0
     97022 TIP3     29036    TIP3     OH2      OT      -0.834000       15.9994           0
     97023 TIP3     29036    TIP3     H1       HT       0.417000       1.00800           0
     97024 TIP3     29036    TIP3     H2       HT       0.417000       1.00800           0
     97025 TIP3     29037    TIP3     OH2      OT      -0.834000       15.9994           0
     97026 TIP3     29037    TIP3     H1       HT       0.417000       1.00800           0
     97027 TIP3     29037    TIP3     H2       HT       0.417000       1.00800           0
     97028 TIP3     29038    TIP3     OH2      OT      -0.834000       15.9994           0
     97029 TIP3     29038    TIP3     H1       HT       0.417000       1.00800           0
     97030 TIP3     29038    TIP3     H2       HT       0.417000       1.00800           0
     97031 TIP3     29039    TIP3     OH2      OT      -0.834000       15.9994           0
     97032 TIP3     29039    TIP3     H1       HT       0.417000       1.00800           0
     97033 TIP3     29039    TIP3     H2       HT       0.417000       1.00800           0
     97034 TIP3     29040    TIP3     OH2      OT      -0.834000       15.9994           0
     97035 TIP3     29040    TIP3     H1       HT       0.417000       1.00800           0
     97036 TIP3     29040    TIP3     H2       HT       0.417000       1.00800           0
     97037 TIP3     29041    TIP3     OH2      OT      -0.834000       15.9994           0
     97038 TIP3     29041    TIP3     H1       HT       0.417000       1.00800           0
     97039 TIP3     29041    TIP3     H2       HT       0.417000       1.00800           0
     97040 TIP3     29042    TIP3     OH2      OT      -0.834000       15.9994           0
     97041 TIP3     29042    TIP3     H1       HT       0.417000       1.00800           0
     97042 TIP3     29042    TIP3     H2       HT       0.417000       1.00800           0
     97043 TIP3     29043    TIP3     OH2      OT      -0.834000       15.9994           0
     97044 TIP3     29043    TIP3     H1       HT       0.417000       1.00800           0
     97045 TIP3     29043    TIP3     H2       HT       0.417000       1.00800           0
     97046 TIP3     29044    TIP3     OH2      OT      -0.834000       15.9994           0
     97047 TIP3     29044    TIP3     H1       HT       0.417000       1.00800           0
     97048 TIP3     29044    TIP3     H2       HT       0.417000       1.00800           0
     97049 TIP3     29045    TIP3     OH2      OT      -0.834000       15.9994           0
     97050 TIP3     29045    TIP3     H1       HT       0.417000       1.00800           0
     97051 TIP3     29045    TIP3     H2       HT       0.417000       1.00800           0
     97052 TIP3     29046    TIP3     OH2      OT      -0.834000       15.9994           0
     97053 TIP3     29046    TIP3     H1       HT       0.417000       1.00800           0
     97054 TIP3     29046    TIP3     H2       HT       0.417000       1.00800           0
     97055 TIP3     29047    TIP3     OH2      OT      -0.834000       15.9994           0
     97056 TIP3     29047    TIP3     H1       HT       0.417000       1.00800           0
     97057 TIP3     29047    TIP3     H2       HT       0.417000       1.00800           0
     97058 TIP3     29048    TIP3     OH2      OT      -0.834000       15.9994           0
     97059 TIP3     29048    TIP3     H1       HT       0.417000       1.00800           0
     97060 TIP3     29048    TIP3     H2       HT       0.417000       1.00800           0
     97061 TIP3     29049    TIP3     OH2      OT      -0.834000       15.9994           0
     97062 TIP3     29049    TIP3     H1       HT       0.417000       1.00800           0
     97063 TIP3     29049    TIP3     H2       HT       0.417000       1.00800           0
     97064 TIP3     29050    TIP3     OH2      OT      -0.834000       15.9994           0
     97065 TIP3     29050    TIP3     H1       HT       0.417000       1.00800           0
     97066 TIP3     29050    TIP3     H2       HT       0.417000       1.00800           0
     97067 TIP3     29051    TIP3     OH2      OT      -0.834000       15.9994           0
     97068 TIP3     29051    TIP3     H1       HT       0.417000       1.00800           0
     97069 TIP3     29051    TIP3     H2       HT       0.417000       1.00800           0
     97070 TIP3     29052    TIP3     OH2      OT      -0.834000       15.9994           0
     97071 TIP3     29052    TIP3     H1       HT       0.417000       1.00800           0
     97072 TIP3     29052    TIP3     H2       HT       0.417000       1.00800           0
     97073 TIP3     29053    TIP3     OH2      OT      -0.834000       15.9994           0
     97074 TIP3     29053    TIP3     H1       HT       0.417000       1.00800           0
     97075 TIP3     29053    TIP3     H2       HT       0.417000       1.00800           0
     97076 TIP3     29054    TIP3     OH2      OT      -0.834000       15.9994           0
     97077 TIP3     29054    TIP3     H1       HT       0.417000       1.00800           0
     97078 TIP3     29054    TIP3     H2       HT       0.417000       1.00800           0
     97079 TIP3     29055    TIP3     OH2      OT      -0.834000       15.9994           0
     97080 TIP3     29055    TIP3     H1       HT       0.417000       1.00800           0
     97081 TIP3     29055    TIP3     H2       HT       0.417000       1.00800           0
     97082 TIP3     29056    TIP3     OH2      OT      -0.834000       15.9994           0
     97083 TIP3     29056    TIP3     H1       HT       0.417000       1.00800           0
     97084 TIP3     29056    TIP3     H2       HT       0.417000       1.00800           0
     97085 TIP3     29057    TIP3     OH2      OT      -0.834000       15.9994           0
     97086 TIP3     29057    TIP3     H1       HT       0.417000       1.00800           0
     97087 TIP3     29057    TIP3     H2       HT       0.417000       1.00800           0
     97088 TIP3     29058    TIP3     OH2      OT      -0.834000       15.9994           0
     97089 TIP3     29058    TIP3     H1       HT       0.417000       1.00800           0
     97090 TIP3     29058    TIP3     H2       HT       0.417000       1.00800           0
     97091 TIP3     29059    TIP3     OH2      OT      -0.834000       15.9994           0
     97092 TIP3     29059    TIP3     H1       HT       0.417000       1.00800           0
     97093 TIP3     29059    TIP3     H2       HT       0.417000       1.00800           0
     97094 TIP3     29060    TIP3     OH2      OT      -0.834000       15.9994           0
     97095 TIP3     29060    TIP3     H1       HT       0.417000       1.00800           0
     97096 TIP3     29060    TIP3     H2       HT       0.417000       1.00800           0
     97097 TIP3     29061    TIP3     OH2      OT      -0.834000       15.9994           0
     97098 TIP3     29061    TIP3     H1       HT       0.417000       1.00800           0
     97099 TIP3     29061    TIP3     H2       HT       0.417000       1.00800           0
     97100 TIP3     29062    TIP3     OH2      OT      -0.834000       15.9994           0
     97101 TIP3     29062    TIP3     H1       HT       0.417000       1.00800           0
     97102 TIP3     29062    TIP3     H2       HT       0.417000       1.00800           0
     97103 TIP3     29063    TIP3     OH2      OT      -0.834000       15.9994           0
     97104 TIP3     29063    TIP3     H1       HT       0.417000       1.00800           0
     97105 TIP3     29063    TIP3     H2       HT       0.417000       1.00800           0
     97106 TIP3     29064    TIP3     OH2      OT      -0.834000       15.9994           0
     97107 TIP3     29064    TIP3     H1       HT       0.417000       1.00800           0
     97108 TIP3     29064    TIP3     H2       HT       0.417000       1.00800           0
     97109 TIP3     29065    TIP3     OH2      OT      -0.834000       15.9994           0
     97110 TIP3     29065    TIP3     H1       HT       0.417000       1.00800           0
     97111 TIP3     29065    TIP3     H2       HT       0.417000       1.00800           0
     97112 TIP3     29066    TIP3     OH2      OT      -0.834000       15.9994           0
     97113 TIP3     29066    TIP3     H1       HT       0.417000       1.00800           0
     97114 TIP3     29066    TIP3     H2       HT       0.417000       1.00800           0
     97115 TIP3     29067    TIP3     OH2      OT      -0.834000       15.9994           0
     97116 TIP3     29067    TIP3     H1       HT       0.417000       1.00800           0
     97117 TIP3     29067    TIP3     H2       HT       0.417000       1.00800           0
     97118 TIP3     29068    TIP3     OH2      OT      -0.834000       15.9994           0
     97119 TIP3     29068    TIP3     H1       HT       0.417000       1.00800           0
     97120 TIP3     29068    TIP3     H2       HT       0.417000       1.00800           0
     97121 TIP3     29069    TIP3     OH2      OT      -0.834000       15.9994           0
     97122 TIP3     29069    TIP3     H1       HT       0.417000       1.00800           0
     97123 TIP3     29069    TIP3     H2       HT       0.417000       1.00800           0
     97124 TIP3     29070    TIP3     OH2      OT      -0.834000       15.9994           0
     97125 TIP3     29070    TIP3     H1       HT       0.417000       1.00800           0
     97126 TIP3     29070    TIP3     H2       HT       0.417000       1.00800           0
     97127 TIP3     29071    TIP3     OH2      OT      -0.834000       15.9994           0
     97128 TIP3     29071    TIP3     H1       HT       0.417000       1.00800           0
     97129 TIP3     29071    TIP3     H2       HT       0.417000       1.00800           0
     97130 TIP3     29072    TIP3     OH2      OT      -0.834000       15.9994           0
     97131 TIP3     29072    TIP3     H1       HT       0.417000       1.00800           0
     97132 TIP3     29072    TIP3     H2       HT       0.417000       1.00800           0
     97133 TIP3     29073    TIP3     OH2      OT      -0.834000       15.9994           0
     97134 TIP3     29073    TIP3     H1       HT       0.417000       1.00800           0
     97135 TIP3     29073    TIP3     H2       HT       0.417000       1.00800           0
     97136 TIP3     29074    TIP3     OH2      OT      -0.834000       15.9994           0
     97137 TIP3     29074    TIP3     H1       HT       0.417000       1.00800           0
     97138 TIP3     29074    TIP3     H2       HT       0.417000       1.00800           0
     97139 TIP3     29075    TIP3     OH2      OT      -0.834000       15.9994           0
     97140 TIP3     29075    TIP3     H1       HT       0.417000       1.00800           0
     97141 TIP3     29075    TIP3     H2       HT       0.417000       1.00800           0
     97142 TIP3     29076    TIP3     OH2      OT      -0.834000       15.9994           0
     97143 TIP3     29076    TIP3     H1       HT       0.417000       1.00800           0
     97144 TIP3     29076    TIP3     H2       HT       0.417000       1.00800           0
     97145 TIP3     29077    TIP3     OH2      OT      -0.834000       15.9994           0
     97146 TIP3     29077    TIP3     H1       HT       0.417000       1.00800           0
     97147 TIP3     29077    TIP3     H2       HT       0.417000       1.00800           0
     97148 TIP3     29078    TIP3     OH2      OT      -0.834000       15.9994           0
     97149 TIP3     29078    TIP3     H1       HT       0.417000       1.00800           0
     97150 TIP3     29078    TIP3     H2       HT       0.417000       1.00800           0
     97151 TIP3     29079    TIP3     OH2      OT      -0.834000       15.9994           0
     97152 TIP3     29079    TIP3     H1       HT       0.417000       1.00800           0
     97153 TIP3     29079    TIP3     H2       HT       0.417000       1.00800           0
     97154 TIP3     29080    TIP3     OH2      OT      -0.834000       15.9994           0
     97155 TIP3     29080    TIP3     H1       HT       0.417000       1.00800           0
     97156 TIP3     29080    TIP3     H2       HT       0.417000       1.00800           0
     97157 TIP3     29081    TIP3     OH2      OT      -0.834000       15.9994           0
     97158 TIP3     29081    TIP3     H1       HT       0.417000       1.00800           0
     97159 TIP3     29081    TIP3     H2       HT       0.417000       1.00800           0
     97160 TIP3     29082    TIP3     OH2      OT      -0.834000       15.9994           0
     97161 TIP3     29082    TIP3     H1       HT       0.417000       1.00800           0
     97162 TIP3     29082    TIP3     H2       HT       0.417000       1.00800           0
     97163 TIP3     29083    TIP3     OH2      OT      -0.834000       15.9994           0
     97164 TIP3     29083    TIP3     H1       HT       0.417000       1.00800           0
     97165 TIP3     29083    TIP3     H2       HT       0.417000       1.00800           0
     97166 TIP3     29084    TIP3     OH2      OT      -0.834000       15.9994           0
     97167 TIP3     29084    TIP3     H1       HT       0.417000       1.00800           0
     97168 TIP3     29084    TIP3     H2       HT       0.417000       1.00800           0
     97169 TIP3     29085    TIP3     OH2      OT      -0.834000       15.9994           0
     97170 TIP3     29085    TIP3     H1       HT       0.417000       1.00800           0
     97171 TIP3     29085    TIP3     H2       HT       0.417000       1.00800           0
     97172 TIP3     29086    TIP3     OH2      OT      -0.834000       15.9994           0
     97173 TIP3     29086    TIP3     H1       HT       0.417000       1.00800           0
     97174 TIP3     29086    TIP3     H2       HT       0.417000       1.00800           0
     97175 TIP3     29087    TIP3     OH2      OT      -0.834000       15.9994           0
     97176 TIP3     29087    TIP3     H1       HT       0.417000       1.00800           0
     97177 TIP3     29087    TIP3     H2       HT       0.417000       1.00800           0
     97178 TIP3     29088    TIP3     OH2      OT      -0.834000       15.9994           0
     97179 TIP3     29088    TIP3     H1       HT       0.417000       1.00800           0
     97180 TIP3     29088    TIP3     H2       HT       0.417000       1.00800           0
     97181 TIP3     29089    TIP3     OH2      OT      -0.834000       15.9994           0
     97182 TIP3     29089    TIP3     H1       HT       0.417000       1.00800           0
     97183 TIP3     29089    TIP3     H2       HT       0.417000       1.00800           0
     97184 TIP3     29090    TIP3     OH2      OT      -0.834000       15.9994           0
     97185 TIP3     29090    TIP3     H1       HT       0.417000       1.00800           0
     97186 TIP3     29090    TIP3     H2       HT       0.417000       1.00800           0
     97187 TIP3     29091    TIP3     OH2      OT      -0.834000       15.9994           0
     97188 TIP3     29091    TIP3     H1       HT       0.417000       1.00800           0
     97189 TIP3     29091    TIP3     H2       HT       0.417000       1.00800           0
     97190 TIP3     29092    TIP3     OH2      OT      -0.834000       15.9994           0
     97191 TIP3     29092    TIP3     H1       HT       0.417000       1.00800           0
     97192 TIP3     29092    TIP3     H2       HT       0.417000       1.00800           0
     97193 TIP3     29093    TIP3     OH2      OT      -0.834000       15.9994           0
     97194 TIP3     29093    TIP3     H1       HT       0.417000       1.00800           0
     97195 TIP3     29093    TIP3     H2       HT       0.417000       1.00800           0
     97196 TIP3     29094    TIP3     OH2      OT      -0.834000       15.9994           0
     97197 TIP3     29094    TIP3     H1       HT       0.417000       1.00800           0
     97198 TIP3     29094    TIP3     H2       HT       0.417000       1.00800           0
     97199 TIP3     29095    TIP3     OH2      OT      -0.834000       15.9994           0
     97200 TIP3     29095    TIP3     H1       HT       0.417000       1.00800           0
     97201 TIP3     29095    TIP3     H2       HT       0.417000       1.00800           0
     97202 TIP3     29096    TIP3     OH2      OT      -0.834000       15.9994           0
     97203 TIP3     29096    TIP3     H1       HT       0.417000       1.00800           0
     97204 TIP3     29096    TIP3     H2       HT       0.417000       1.00800           0
     97205 TIP3     29097    TIP3     OH2      OT      -0.834000       15.9994           0
     97206 TIP3     29097    TIP3     H1       HT       0.417000       1.00800           0
     97207 TIP3     29097    TIP3     H2       HT       0.417000       1.00800           0
     97208 TIP3     29098    TIP3     OH2      OT      -0.834000       15.9994           0
     97209 TIP3     29098    TIP3     H1       HT       0.417000       1.00800           0
     97210 TIP3     29098    TIP3     H2       HT       0.417000       1.00800           0
     97211 TIP3     29099    TIP3     OH2      OT      -0.834000       15.9994           0
     97212 TIP3     29099    TIP3     H1       HT       0.417000       1.00800           0
     97213 TIP3     29099    TIP3     H2       HT       0.417000       1.00800           0
     97214 TIP3     29100    TIP3     OH2      OT      -0.834000       15.9994           0
     97215 TIP3     29100    TIP3     H1       HT       0.417000       1.00800           0
     97216 TIP3     29100    TIP3     H2       HT       0.417000       1.00800           0
     97217 TIP3     29101    TIP3     OH2      OT      -0.834000       15.9994           0
     97218 TIP3     29101    TIP3     H1       HT       0.417000       1.00800           0
     97219 TIP3     29101    TIP3     H2       HT       0.417000       1.00800           0
     97220 TIP3     29102    TIP3     OH2      OT      -0.834000       15.9994           0
     97221 TIP3     29102    TIP3     H1       HT       0.417000       1.00800           0
     97222 TIP3     29102    TIP3     H2       HT       0.417000       1.00800           0
     97223 TIP3     29103    TIP3     OH2      OT      -0.834000       15.9994           0
     97224 TIP3     29103    TIP3     H1       HT       0.417000       1.00800           0
     97225 TIP3     29103    TIP3     H2       HT       0.417000       1.00800           0
     97226 TIP3     29104    TIP3     OH2      OT      -0.834000       15.9994           0
     97227 TIP3     29104    TIP3     H1       HT       0.417000       1.00800           0
     97228 TIP3     29104    TIP3     H2       HT       0.417000       1.00800           0
     97229 TIP3     29105    TIP3     OH2      OT      -0.834000       15.9994           0
     97230 TIP3     29105    TIP3     H1       HT       0.417000       1.00800           0
     97231 TIP3     29105    TIP3     H2       HT       0.417000       1.00800           0
     97232 TIP3     29106    TIP3     OH2      OT      -0.834000       15.9994           0
     97233 TIP3     29106    TIP3     H1       HT       0.417000       1.00800           0
     97234 TIP3     29106    TIP3     H2       HT       0.417000       1.00800           0
     97235 TIP3     29107    TIP3     OH2      OT      -0.834000       15.9994           0
     97236 TIP3     29107    TIP3     H1       HT       0.417000       1.00800           0
     97237 TIP3     29107    TIP3     H2       HT       0.417000       1.00800           0
     97238 TIP3     29108    TIP3     OH2      OT      -0.834000       15.9994           0
     97239 TIP3     29108    TIP3     H1       HT       0.417000       1.00800           0
     97240 TIP3     29108    TIP3     H2       HT       0.417000       1.00800           0
     97241 TIP3     29109    TIP3     OH2      OT      -0.834000       15.9994           0
     97242 TIP3     29109    TIP3     H1       HT       0.417000       1.00800           0
     97243 TIP3     29109    TIP3     H2       HT       0.417000       1.00800           0
     97244 TIP3     29110    TIP3     OH2      OT      -0.834000       15.9994           0
     97245 TIP3     29110    TIP3     H1       HT       0.417000       1.00800           0
     97246 TIP3     29110    TIP3     H2       HT       0.417000       1.00800           0
     97247 TIP3     29111    TIP3     OH2      OT      -0.834000       15.9994           0
     97248 TIP3     29111    TIP3     H1       HT       0.417000       1.00800           0
     97249 TIP3     29111    TIP3     H2       HT       0.417000       1.00800           0
     97250 TIP3     29112    TIP3     OH2      OT      -0.834000       15.9994           0
     97251 TIP3     29112    TIP3     H1       HT       0.417000       1.00800           0
     97252 TIP3     29112    TIP3     H2       HT       0.417000       1.00800           0
     97253 TIP3     29113    TIP3     OH2      OT      -0.834000       15.9994           0
     97254 TIP3     29113    TIP3     H1       HT       0.417000       1.00800           0
     97255 TIP3     29113    TIP3     H2       HT       0.417000       1.00800           0
     97256 TIP3     29114    TIP3     OH2      OT      -0.834000       15.9994           0
     97257 TIP3     29114    TIP3     H1       HT       0.417000       1.00800           0
     97258 TIP3     29114    TIP3     H2       HT       0.417000       1.00800           0
     97259 TIP3     29115    TIP3     OH2      OT      -0.834000       15.9994           0
     97260 TIP3     29115    TIP3     H1       HT       0.417000       1.00800           0
     97261 TIP3     29115    TIP3     H2       HT       0.417000       1.00800           0
     97262 TIP3     29116    TIP3     OH2      OT      -0.834000       15.9994           0
     97263 TIP3     29116    TIP3     H1       HT       0.417000       1.00800           0
     97264 TIP3     29116    TIP3     H2       HT       0.417000       1.00800           0
     97265 TIP3     29117    TIP3     OH2      OT      -0.834000       15.9994           0
     97266 TIP3     29117    TIP3     H1       HT       0.417000       1.00800           0
     97267 TIP3     29117    TIP3     H2       HT       0.417000       1.00800           0
     97268 TIP3     29118    TIP3     OH2      OT      -0.834000       15.9994           0
     97269 TIP3     29118    TIP3     H1       HT       0.417000       1.00800           0
     97270 TIP3     29118    TIP3     H2       HT       0.417000       1.00800           0
     97271 TIP3     29119    TIP3     OH2      OT      -0.834000       15.9994           0
     97272 TIP3     29119    TIP3     H1       HT       0.417000       1.00800           0
     97273 TIP3     29119    TIP3     H2       HT       0.417000       1.00800           0
     97274 TIP3     29120    TIP3     OH2      OT      -0.834000       15.9994           0
     97275 TIP3     29120    TIP3     H1       HT       0.417000       1.00800           0
     97276 TIP3     29120    TIP3     H2       HT       0.417000       1.00800           0
     97277 TIP3     29121    TIP3     OH2      OT      -0.834000       15.9994           0
     97278 TIP3     29121    TIP3     H1       HT       0.417000       1.00800           0
     97279 TIP3     29121    TIP3     H2       HT       0.417000       1.00800           0
     97280 TIP3     29122    TIP3     OH2      OT      -0.834000       15.9994           0
     97281 TIP3     29122    TIP3     H1       HT       0.417000       1.00800           0
     97282 TIP3     29122    TIP3     H2       HT       0.417000       1.00800           0
     97283 TIP3     29123    TIP3     OH2      OT      -0.834000       15.9994           0
     97284 TIP3     29123    TIP3     H1       HT       0.417000       1.00800           0
     97285 TIP3     29123    TIP3     H2       HT       0.417000       1.00800           0
     97286 TIP3     29124    TIP3     OH2      OT      -0.834000       15.9994           0
     97287 TIP3     29124    TIP3     H1       HT       0.417000       1.00800           0
     97288 TIP3     29124    TIP3     H2       HT       0.417000       1.00800           0
     97289 TIP3     29125    TIP3     OH2      OT      -0.834000       15.9994           0
     97290 TIP3     29125    TIP3     H1       HT       0.417000       1.00800           0
     97291 TIP3     29125    TIP3     H2       HT       0.417000       1.00800           0
     97292 TIP3     29126    TIP3     OH2      OT      -0.834000       15.9994           0
     97293 TIP3     29126    TIP3     H1       HT       0.417000       1.00800           0
     97294 TIP3     29126    TIP3     H2       HT       0.417000       1.00800           0
     97295 TIP3     29127    TIP3     OH2      OT      -0.834000       15.9994           0
     97296 TIP3     29127    TIP3     H1       HT       0.417000       1.00800           0
     97297 TIP3     29127    TIP3     H2       HT       0.417000       1.00800           0
     97298 TIP3     29128    TIP3     OH2      OT      -0.834000       15.9994           0
     97299 TIP3     29128    TIP3     H1       HT       0.417000       1.00800           0
     97300 TIP3     29128    TIP3     H2       HT       0.417000       1.00800           0
     97301 TIP3     29129    TIP3     OH2      OT      -0.834000       15.9994           0
     97302 TIP3     29129    TIP3     H1       HT       0.417000       1.00800           0
     97303 TIP3     29129    TIP3     H2       HT       0.417000       1.00800           0
     97304 TIP3     29130    TIP3     OH2      OT      -0.834000       15.9994           0
     97305 TIP3     29130    TIP3     H1       HT       0.417000       1.00800           0
     97306 TIP3     29130    TIP3     H2       HT       0.417000       1.00800           0
     97307 TIP3     29131    TIP3     OH2      OT      -0.834000       15.9994           0
     97308 TIP3     29131    TIP3     H1       HT       0.417000       1.00800           0
     97309 TIP3     29131    TIP3     H2       HT       0.417000       1.00800           0
     97310 TIP3     29132    TIP3     OH2      OT      -0.834000       15.9994           0
     97311 TIP3     29132    TIP3     H1       HT       0.417000       1.00800           0
     97312 TIP3     29132    TIP3     H2       HT       0.417000       1.00800           0
     97313 TIP3     29133    TIP3     OH2      OT      -0.834000       15.9994           0
     97314 TIP3     29133    TIP3     H1       HT       0.417000       1.00800           0
     97315 TIP3     29133    TIP3     H2       HT       0.417000       1.00800           0
     97316 TIP3     29134    TIP3     OH2      OT      -0.834000       15.9994           0
     97317 TIP3     29134    TIP3     H1       HT       0.417000       1.00800           0
     97318 TIP3     29134    TIP3     H2       HT       0.417000       1.00800           0
     97319 TIP3     29135    TIP3     OH2      OT      -0.834000       15.9994           0
     97320 TIP3     29135    TIP3     H1       HT       0.417000       1.00800           0
     97321 TIP3     29135    TIP3     H2       HT       0.417000       1.00800           0
     97322 TIP3     29136    TIP3     OH2      OT      -0.834000       15.9994           0
     97323 TIP3     29136    TIP3     H1       HT       0.417000       1.00800           0
     97324 TIP3     29136    TIP3     H2       HT       0.417000       1.00800           0
     97325 TIP3     29137    TIP3     OH2      OT      -0.834000       15.9994           0
     97326 TIP3     29137    TIP3     H1       HT       0.417000       1.00800           0
     97327 TIP3     29137    TIP3     H2       HT       0.417000       1.00800           0
     97328 TIP3     29138    TIP3     OH2      OT      -0.834000       15.9994           0
     97329 TIP3     29138    TIP3     H1       HT       0.417000       1.00800           0
     97330 TIP3     29138    TIP3     H2       HT       0.417000       1.00800           0
     97331 TIP3     29139    TIP3     OH2      OT      -0.834000       15.9994           0
     97332 TIP3     29139    TIP3     H1       HT       0.417000       1.00800           0
     97333 TIP3     29139    TIP3     H2       HT       0.417000       1.00800           0
     97334 TIP3     29140    TIP3     OH2      OT      -0.834000       15.9994           0
     97335 TIP3     29140    TIP3     H1       HT       0.417000       1.00800           0
     97336 TIP3     29140    TIP3     H2       HT       0.417000       1.00800           0
     97337 TIP3     29141    TIP3     OH2      OT      -0.834000       15.9994           0
     97338 TIP3     29141    TIP3     H1       HT       0.417000       1.00800           0
     97339 TIP3     29141    TIP3     H2       HT       0.417000       1.00800           0
     97340 TIP3     29142    TIP3     OH2      OT      -0.834000       15.9994           0
     97341 TIP3     29142    TIP3     H1       HT       0.417000       1.00800           0
     97342 TIP3     29142    TIP3     H2       HT       0.417000       1.00800           0
     97343 TIP3     29143    TIP3     OH2      OT      -0.834000       15.9994           0
     97344 TIP3     29143    TIP3     H1       HT       0.417000       1.00800           0
     97345 TIP3     29143    TIP3     H2       HT       0.417000       1.00800           0
     97346 TIP3     29144    TIP3     OH2      OT      -0.834000       15.9994           0
     97347 TIP3     29144    TIP3     H1       HT       0.417000       1.00800           0
     97348 TIP3     29144    TIP3     H2       HT       0.417000       1.00800           0
     97349 TIP3     29145    TIP3     OH2      OT      -0.834000       15.9994           0
     97350 TIP3     29145    TIP3     H1       HT       0.417000       1.00800           0
     97351 TIP3     29145    TIP3     H2       HT       0.417000       1.00800           0
     97352 TIP3     29146    TIP3     OH2      OT      -0.834000       15.9994           0
     97353 TIP3     29146    TIP3     H1       HT       0.417000       1.00800           0
     97354 TIP3     29146    TIP3     H2       HT       0.417000       1.00800           0
     97355 TIP3     29147    TIP3     OH2      OT      -0.834000       15.9994           0
     97356 TIP3     29147    TIP3     H1       HT       0.417000       1.00800           0
     97357 TIP3     29147    TIP3     H2       HT       0.417000       1.00800           0
     97358 TIP3     29148    TIP3     OH2      OT      -0.834000       15.9994           0
     97359 TIP3     29148    TIP3     H1       HT       0.417000       1.00800           0
     97360 TIP3     29148    TIP3     H2       HT       0.417000       1.00800           0
     97361 TIP3     29149    TIP3     OH2      OT      -0.834000       15.9994           0
     97362 TIP3     29149    TIP3     H1       HT       0.417000       1.00800           0
     97363 TIP3     29149    TIP3     H2       HT       0.417000       1.00800           0
     97364 TIP3     29150    TIP3     OH2      OT      -0.834000       15.9994           0
     97365 TIP3     29150    TIP3     H1       HT       0.417000       1.00800           0
     97366 TIP3     29150    TIP3     H2       HT       0.417000       1.00800           0
     97367 TIP3     29151    TIP3     OH2      OT      -0.834000       15.9994           0
     97368 TIP3     29151    TIP3     H1       HT       0.417000       1.00800           0
     97369 TIP3     29151    TIP3     H2       HT       0.417000       1.00800           0
     97370 TIP3     29152    TIP3     OH2      OT      -0.834000       15.9994           0
     97371 TIP3     29152    TIP3     H1       HT       0.417000       1.00800           0
     97372 TIP3     29152    TIP3     H2       HT       0.417000       1.00800           0
     97373 TIP3     29153    TIP3     OH2      OT      -0.834000       15.9994           0
     97374 TIP3     29153    TIP3     H1       HT       0.417000       1.00800           0
     97375 TIP3     29153    TIP3     H2       HT       0.417000       1.00800           0
     97376 TIP3     29154    TIP3     OH2      OT      -0.834000       15.9994           0
     97377 TIP3     29154    TIP3     H1       HT       0.417000       1.00800           0
     97378 TIP3     29154    TIP3     H2       HT       0.417000       1.00800           0
     97379 TIP3     29155    TIP3     OH2      OT      -0.834000       15.9994           0
     97380 TIP3     29155    TIP3     H1       HT       0.417000       1.00800           0
     97381 TIP3     29155    TIP3     H2       HT       0.417000       1.00800           0
     97382 TIP3     29156    TIP3     OH2      OT      -0.834000       15.9994           0
     97383 TIP3     29156    TIP3     H1       HT       0.417000       1.00800           0
     97384 TIP3     29156    TIP3     H2       HT       0.417000       1.00800           0
     97385 TIP3     29157    TIP3     OH2      OT      -0.834000       15.9994           0
     97386 TIP3     29157    TIP3     H1       HT       0.417000       1.00800           0
     97387 TIP3     29157    TIP3     H2       HT       0.417000       1.00800           0
     97388 TIP3     29158    TIP3     OH2      OT      -0.834000       15.9994           0
     97389 TIP3     29158    TIP3     H1       HT       0.417000       1.00800           0
     97390 TIP3     29158    TIP3     H2       HT       0.417000       1.00800           0
     97391 TIP3     29159    TIP3     OH2      OT      -0.834000       15.9994           0
     97392 TIP3     29159    TIP3     H1       HT       0.417000       1.00800           0
     97393 TIP3     29159    TIP3     H2       HT       0.417000       1.00800           0
     97394 TIP3     29160    TIP3     OH2      OT      -0.834000       15.9994           0
     97395 TIP3     29160    TIP3     H1       HT       0.417000       1.00800           0
     97396 TIP3     29160    TIP3     H2       HT       0.417000       1.00800           0
     97397 TIP3     29161    TIP3     OH2      OT      -0.834000       15.9994           0
     97398 TIP3     29161    TIP3     H1       HT       0.417000       1.00800           0
     97399 TIP3     29161    TIP3     H2       HT       0.417000       1.00800           0
     97400 TIP3     29162    TIP3     OH2      OT      -0.834000       15.9994           0
     97401 TIP3     29162    TIP3     H1       HT       0.417000       1.00800           0
     97402 TIP3     29162    TIP3     H2       HT       0.417000       1.00800           0
     97403 TIP3     29163    TIP3     OH2      OT      -0.834000       15.9994           0
     97404 TIP3     29163    TIP3     H1       HT       0.417000       1.00800           0
     97405 TIP3     29163    TIP3     H2       HT       0.417000       1.00800           0
     97406 TIP3     29164    TIP3     OH2      OT      -0.834000       15.9994           0
     97407 TIP3     29164    TIP3     H1       HT       0.417000       1.00800           0
     97408 TIP3     29164    TIP3     H2       HT       0.417000       1.00800           0
     97409 TIP3     29165    TIP3     OH2      OT      -0.834000       15.9994           0
     97410 TIP3     29165    TIP3     H1       HT       0.417000       1.00800           0
     97411 TIP3     29165    TIP3     H2       HT       0.417000       1.00800           0
     97412 TIP3     29166    TIP3     OH2      OT      -0.834000       15.9994           0
     97413 TIP3     29166    TIP3     H1       HT       0.417000       1.00800           0
     97414 TIP3     29166    TIP3     H2       HT       0.417000       1.00800           0
     97415 TIP3     29167    TIP3     OH2      OT      -0.834000       15.9994           0
     97416 TIP3     29167    TIP3     H1       HT       0.417000       1.00800           0
     97417 TIP3     29167    TIP3     H2       HT       0.417000       1.00800           0
     97418 TIP3     29168    TIP3     OH2      OT      -0.834000       15.9994           0
     97419 TIP3     29168    TIP3     H1       HT       0.417000       1.00800           0
     97420 TIP3     29168    TIP3     H2       HT       0.417000       1.00800           0
     97421 TIP3     29169    TIP3     OH2      OT      -0.834000       15.9994           0
     97422 TIP3     29169    TIP3     H1       HT       0.417000       1.00800           0
     97423 TIP3     29169    TIP3     H2       HT       0.417000       1.00800           0
     97424 TIP3     29170    TIP3     OH2      OT      -0.834000       15.9994           0
     97425 TIP3     29170    TIP3     H1       HT       0.417000       1.00800           0
     97426 TIP3     29170    TIP3     H2       HT       0.417000       1.00800           0
     97427 TIP3     29171    TIP3     OH2      OT      -0.834000       15.9994           0
     97428 TIP3     29171    TIP3     H1       HT       0.417000       1.00800           0
     97429 TIP3     29171    TIP3     H2       HT       0.417000       1.00800           0
     97430 TIP3     29172    TIP3     OH2      OT      -0.834000       15.9994           0
     97431 TIP3     29172    TIP3     H1       HT       0.417000       1.00800           0
     97432 TIP3     29172    TIP3     H2       HT       0.417000       1.00800           0
     97433 TIP3     29173    TIP3     OH2      OT      -0.834000       15.9994           0
     97434 TIP3     29173    TIP3     H1       HT       0.417000       1.00800           0
     97435 TIP3     29173    TIP3     H2       HT       0.417000       1.00800           0
     97436 TIP3     29174    TIP3     OH2      OT      -0.834000       15.9994           0
     97437 TIP3     29174    TIP3     H1       HT       0.417000       1.00800           0
     97438 TIP3     29174    TIP3     H2       HT       0.417000       1.00800           0
     97439 TIP3     29175    TIP3     OH2      OT      -0.834000       15.9994           0
     97440 TIP3     29175    TIP3     H1       HT       0.417000       1.00800           0
     97441 TIP3     29175    TIP3     H2       HT       0.417000       1.00800           0
     97442 TIP3     29176    TIP3     OH2      OT      -0.834000       15.9994           0
     97443 TIP3     29176    TIP3     H1       HT       0.417000       1.00800           0
     97444 TIP3     29176    TIP3     H2       HT       0.417000       1.00800           0
     97445 TIP3     29177    TIP3     OH2      OT      -0.834000       15.9994           0
     97446 TIP3     29177    TIP3     H1       HT       0.417000       1.00800           0
     97447 TIP3     29177    TIP3     H2       HT       0.417000       1.00800           0
     97448 TIP3     29178    TIP3     OH2      OT      -0.834000       15.9994           0
     97449 TIP3     29178    TIP3     H1       HT       0.417000       1.00800           0
     97450 TIP3     29178    TIP3     H2       HT       0.417000       1.00800           0
     97451 TIP3     29179    TIP3     OH2      OT      -0.834000       15.9994           0
     97452 TIP3     29179    TIP3     H1       HT       0.417000       1.00800           0
     97453 TIP3     29179    TIP3     H2       HT       0.417000       1.00800           0
     97454 TIP3     29180    TIP3     OH2      OT      -0.834000       15.9994           0
     97455 TIP3     29180    TIP3     H1       HT       0.417000       1.00800           0
     97456 TIP3     29180    TIP3     H2       HT       0.417000       1.00800           0
     97457 TIP3     29181    TIP3     OH2      OT      -0.834000       15.9994           0
     97458 TIP3     29181    TIP3     H1       HT       0.417000       1.00800           0
     97459 TIP3     29181    TIP3     H2       HT       0.417000       1.00800           0
     97460 TIP3     29182    TIP3     OH2      OT      -0.834000       15.9994           0
     97461 TIP3     29182    TIP3     H1       HT       0.417000       1.00800           0
     97462 TIP3     29182    TIP3     H2       HT       0.417000       1.00800           0
     97463 TIP3     29183    TIP3     OH2      OT      -0.834000       15.9994           0
     97464 TIP3     29183    TIP3     H1       HT       0.417000       1.00800           0
     97465 TIP3     29183    TIP3     H2       HT       0.417000       1.00800           0
     97466 TIP3     29184    TIP3     OH2      OT      -0.834000       15.9994           0
     97467 TIP3     29184    TIP3     H1       HT       0.417000       1.00800           0
     97468 TIP3     29184    TIP3     H2       HT       0.417000       1.00800           0
     97469 TIP3     29185    TIP3     OH2      OT      -0.834000       15.9994           0
     97470 TIP3     29185    TIP3     H1       HT       0.417000       1.00800           0
     97471 TIP3     29185    TIP3     H2       HT       0.417000       1.00800           0
     97472 TIP3     29186    TIP3     OH2      OT      -0.834000       15.9994           0
     97473 TIP3     29186    TIP3     H1       HT       0.417000       1.00800           0
     97474 TIP3     29186    TIP3     H2       HT       0.417000       1.00800           0
     97475 TIP3     29187    TIP3     OH2      OT      -0.834000       15.9994           0
     97476 TIP3     29187    TIP3     H1       HT       0.417000       1.00800           0
     97477 TIP3     29187    TIP3     H2       HT       0.417000       1.00800           0
     97478 TIP3     29188    TIP3     OH2      OT      -0.834000       15.9994           0
     97479 TIP3     29188    TIP3     H1       HT       0.417000       1.00800           0
     97480 TIP3     29188    TIP3     H2       HT       0.417000       1.00800           0
     97481 TIP3     29189    TIP3     OH2      OT      -0.834000       15.9994           0
     97482 TIP3     29189    TIP3     H1       HT       0.417000       1.00800           0
     97483 TIP3     29189    TIP3     H2       HT       0.417000       1.00800           0
     97484 TIP3     29190    TIP3     OH2      OT      -0.834000       15.9994           0
     97485 TIP3     29190    TIP3     H1       HT       0.417000       1.00800           0
     97486 TIP3     29190    TIP3     H2       HT       0.417000       1.00800           0
     97487 TIP3     29191    TIP3     OH2      OT      -0.834000       15.9994           0
     97488 TIP3     29191    TIP3     H1       HT       0.417000       1.00800           0
     97489 TIP3     29191    TIP3     H2       HT       0.417000       1.00800           0
     97490 TIP3     29192    TIP3     OH2      OT      -0.834000       15.9994           0
     97491 TIP3     29192    TIP3     H1       HT       0.417000       1.00800           0
     97492 TIP3     29192    TIP3     H2       HT       0.417000       1.00800           0
     97493 TIP3     29193    TIP3     OH2      OT      -0.834000       15.9994           0
     97494 TIP3     29193    TIP3     H1       HT       0.417000       1.00800           0
     97495 TIP3     29193    TIP3     H2       HT       0.417000       1.00800           0
     97496 TIP3     29194    TIP3     OH2      OT      -0.834000       15.9994           0
     97497 TIP3     29194    TIP3     H1       HT       0.417000       1.00800           0
     97498 TIP3     29194    TIP3     H2       HT       0.417000       1.00800           0
     97499 TIP3     29195    TIP3     OH2      OT      -0.834000       15.9994           0
     97500 TIP3     29195    TIP3     H1       HT       0.417000       1.00800           0
     97501 TIP3     29195    TIP3     H2       HT       0.417000       1.00800           0
     97502 TIP3     29196    TIP3     OH2      OT      -0.834000       15.9994           0
     97503 TIP3     29196    TIP3     H1       HT       0.417000       1.00800           0
     97504 TIP3     29196    TIP3     H2       HT       0.417000       1.00800           0
     97505 TIP3     29197    TIP3     OH2      OT      -0.834000       15.9994           0
     97506 TIP3     29197    TIP3     H1       HT       0.417000       1.00800           0
     97507 TIP3     29197    TIP3     H2       HT       0.417000       1.00800           0
     97508 TIP3     29198    TIP3     OH2      OT      -0.834000       15.9994           0
     97509 TIP3     29198    TIP3     H1       HT       0.417000       1.00800           0
     97510 TIP3     29198    TIP3     H2       HT       0.417000       1.00800           0
     97511 TIP3     29199    TIP3     OH2      OT      -0.834000       15.9994           0
     97512 TIP3     29199    TIP3     H1       HT       0.417000       1.00800           0
     97513 TIP3     29199    TIP3     H2       HT       0.417000       1.00800           0
     97514 TIP3     29200    TIP3     OH2      OT      -0.834000       15.9994           0
     97515 TIP3     29200    TIP3     H1       HT       0.417000       1.00800           0
     97516 TIP3     29200    TIP3     H2       HT       0.417000       1.00800           0
     97517 TIP3     29201    TIP3     OH2      OT      -0.834000       15.9994           0
     97518 TIP3     29201    TIP3     H1       HT       0.417000       1.00800           0
     97519 TIP3     29201    TIP3     H2       HT       0.417000       1.00800           0
     97520 TIP3     29202    TIP3     OH2      OT      -0.834000       15.9994           0
     97521 TIP3     29202    TIP3     H1       HT       0.417000       1.00800           0
     97522 TIP3     29202    TIP3     H2       HT       0.417000       1.00800           0
     97523 TIP3     29203    TIP3     OH2      OT      -0.834000       15.9994           0
     97524 TIP3     29203    TIP3     H1       HT       0.417000       1.00800           0
     97525 TIP3     29203    TIP3     H2       HT       0.417000       1.00800           0
     97526 TIP3     29204    TIP3     OH2      OT      -0.834000       15.9994           0
     97527 TIP3     29204    TIP3     H1       HT       0.417000       1.00800           0
     97528 TIP3     29204    TIP3     H2       HT       0.417000       1.00800           0
     97529 TIP3     29205    TIP3     OH2      OT      -0.834000       15.9994           0
     97530 TIP3     29205    TIP3     H1       HT       0.417000       1.00800           0
     97531 TIP3     29205    TIP3     H2       HT       0.417000       1.00800           0
     97532 TIP3     29206    TIP3     OH2      OT      -0.834000       15.9994           0
     97533 TIP3     29206    TIP3     H1       HT       0.417000       1.00800           0
     97534 TIP3     29206    TIP3     H2       HT       0.417000       1.00800           0
     97535 TIP3     29207    TIP3     OH2      OT      -0.834000       15.9994           0
     97536 TIP3     29207    TIP3     H1       HT       0.417000       1.00800           0
     97537 TIP3     29207    TIP3     H2       HT       0.417000       1.00800           0
     97538 TIP3     29208    TIP3     OH2      OT      -0.834000       15.9994           0
     97539 TIP3     29208    TIP3     H1       HT       0.417000       1.00800           0
     97540 TIP3     29208    TIP3     H2       HT       0.417000       1.00800           0
     97541 TIP3     29209    TIP3     OH2      OT      -0.834000       15.9994           0
     97542 TIP3     29209    TIP3     H1       HT       0.417000       1.00800           0
     97543 TIP3     29209    TIP3     H2       HT       0.417000       1.00800           0
     97544 TIP3     29210    TIP3     OH2      OT      -0.834000       15.9994           0
     97545 TIP3     29210    TIP3     H1       HT       0.417000       1.00800           0
     97546 TIP3     29210    TIP3     H2       HT       0.417000       1.00800           0
     97547 TIP3     29211    TIP3     OH2      OT      -0.834000       15.9994           0
     97548 TIP3     29211    TIP3     H1       HT       0.417000       1.00800           0
     97549 TIP3     29211    TIP3     H2       HT       0.417000       1.00800           0
     97550 TIP3     29212    TIP3     OH2      OT      -0.834000       15.9994           0
     97551 TIP3     29212    TIP3     H1       HT       0.417000       1.00800           0
     97552 TIP3     29212    TIP3     H2       HT       0.417000       1.00800           0
     97553 TIP3     29213    TIP3     OH2      OT      -0.834000       15.9994           0
     97554 TIP3     29213    TIP3     H1       HT       0.417000       1.00800           0
     97555 TIP3     29213    TIP3     H2       HT       0.417000       1.00800           0
     97556 TIP3     29214    TIP3     OH2      OT      -0.834000       15.9994           0
     97557 TIP3     29214    TIP3     H1       HT       0.417000       1.00800           0
     97558 TIP3     29214    TIP3     H2       HT       0.417000       1.00800           0
     97559 TIP3     29215    TIP3     OH2      OT      -0.834000       15.9994           0
     97560 TIP3     29215    TIP3     H1       HT       0.417000       1.00800           0
     97561 TIP3     29215    TIP3     H2       HT       0.417000       1.00800           0
     97562 TIP3     29216    TIP3     OH2      OT      -0.834000       15.9994           0
     97563 TIP3     29216    TIP3     H1       HT       0.417000       1.00800           0
     97564 TIP3     29216    TIP3     H2       HT       0.417000       1.00800           0
     97565 TIP3     29217    TIP3     OH2      OT      -0.834000       15.9994           0
     97566 TIP3     29217    TIP3     H1       HT       0.417000       1.00800           0
     97567 TIP3     29217    TIP3     H2       HT       0.417000       1.00800           0
     97568 TIP3     29218    TIP3     OH2      OT      -0.834000       15.9994           0
     97569 TIP3     29218    TIP3     H1       HT       0.417000       1.00800           0
     97570 TIP3     29218    TIP3     H2       HT       0.417000       1.00800           0
     97571 TIP3     29219    TIP3     OH2      OT      -0.834000       15.9994           0
     97572 TIP3     29219    TIP3     H1       HT       0.417000       1.00800           0
     97573 TIP3     29219    TIP3     H2       HT       0.417000       1.00800           0
     97574 TIP3     29220    TIP3     OH2      OT      -0.834000       15.9994           0
     97575 TIP3     29220    TIP3     H1       HT       0.417000       1.00800           0
     97576 TIP3     29220    TIP3     H2       HT       0.417000       1.00800           0
     97577 TIP3     29221    TIP3     OH2      OT      -0.834000       15.9994           0
     97578 TIP3     29221    TIP3     H1       HT       0.417000       1.00800           0
     97579 TIP3     29221    TIP3     H2       HT       0.417000       1.00800           0
     97580 TIP3     29222    TIP3     OH2      OT      -0.834000       15.9994           0
     97581 TIP3     29222    TIP3     H1       HT       0.417000       1.00800           0
     97582 TIP3     29222    TIP3     H2       HT       0.417000       1.00800           0
     97583 TIP3     29223    TIP3     OH2      OT      -0.834000       15.9994           0
     97584 TIP3     29223    TIP3     H1       HT       0.417000       1.00800           0
     97585 TIP3     29223    TIP3     H2       HT       0.417000       1.00800           0
     97586 TIP3     29224    TIP3     OH2      OT      -0.834000       15.9994           0
     97587 TIP3     29224    TIP3     H1       HT       0.417000       1.00800           0
     97588 TIP3     29224    TIP3     H2       HT       0.417000       1.00800           0
     97589 TIP3     29225    TIP3     OH2      OT      -0.834000       15.9994           0
     97590 TIP3     29225    TIP3     H1       HT       0.417000       1.00800           0
     97591 TIP3     29225    TIP3     H2       HT       0.417000       1.00800           0
     97592 TIP3     29226    TIP3     OH2      OT      -0.834000       15.9994           0
     97593 TIP3     29226    TIP3     H1       HT       0.417000       1.00800           0
     97594 TIP3     29226    TIP3     H2       HT       0.417000       1.00800           0
     97595 TIP3     29227    TIP3     OH2      OT      -0.834000       15.9994           0
     97596 TIP3     29227    TIP3     H1       HT       0.417000       1.00800           0
     97597 TIP3     29227    TIP3     H2       HT       0.417000       1.00800           0
     97598 TIP3     29228    TIP3     OH2      OT      -0.834000       15.9994           0
     97599 TIP3     29228    TIP3     H1       HT       0.417000       1.00800           0
     97600 TIP3     29228    TIP3     H2       HT       0.417000       1.00800           0
     97601 TIP3     29229    TIP3     OH2      OT      -0.834000       15.9994           0
     97602 TIP3     29229    TIP3     H1       HT       0.417000       1.00800           0
     97603 TIP3     29229    TIP3     H2       HT       0.417000       1.00800           0
     97604 TIP3     29230    TIP3     OH2      OT      -0.834000       15.9994           0
     97605 TIP3     29230    TIP3     H1       HT       0.417000       1.00800           0
     97606 TIP3     29230    TIP3     H2       HT       0.417000       1.00800           0
     97607 TIP3     29231    TIP3     OH2      OT      -0.834000       15.9994           0
     97608 TIP3     29231    TIP3     H1       HT       0.417000       1.00800           0
     97609 TIP3     29231    TIP3     H2       HT       0.417000       1.00800           0
     97610 TIP3     29232    TIP3     OH2      OT      -0.834000       15.9994           0
     97611 TIP3     29232    TIP3     H1       HT       0.417000       1.00800           0
     97612 TIP3     29232    TIP3     H2       HT       0.417000       1.00800           0
     97613 TIP3     29233    TIP3     OH2      OT      -0.834000       15.9994           0
     97614 TIP3     29233    TIP3     H1       HT       0.417000       1.00800           0
     97615 TIP3     29233    TIP3     H2       HT       0.417000       1.00800           0
     97616 TIP3     29234    TIP3     OH2      OT      -0.834000       15.9994           0
     97617 TIP3     29234    TIP3     H1       HT       0.417000       1.00800           0
     97618 TIP3     29234    TIP3     H2       HT       0.417000       1.00800           0
     97619 TIP3     29235    TIP3     OH2      OT      -0.834000       15.9994           0
     97620 TIP3     29235    TIP3     H1       HT       0.417000       1.00800           0
     97621 TIP3     29235    TIP3     H2       HT       0.417000       1.00800           0
     97622 TIP3     29236    TIP3     OH2      OT      -0.834000       15.9994           0
     97623 TIP3     29236    TIP3     H1       HT       0.417000       1.00800           0
     97624 TIP3     29236    TIP3     H2       HT       0.417000       1.00800           0
     97625 TIP3     29237    TIP3     OH2      OT      -0.834000       15.9994           0
     97626 TIP3     29237    TIP3     H1       HT       0.417000       1.00800           0
     97627 TIP3     29237    TIP3     H2       HT       0.417000       1.00800           0
     97628 TIP3     29238    TIP3     OH2      OT      -0.834000       15.9994           0
     97629 TIP3     29238    TIP3     H1       HT       0.417000       1.00800           0
     97630 TIP3     29238    TIP3     H2       HT       0.417000       1.00800           0
     97631 TIP3     29239    TIP3     OH2      OT      -0.834000       15.9994           0
     97632 TIP3     29239    TIP3     H1       HT       0.417000       1.00800           0
     97633 TIP3     29239    TIP3     H2       HT       0.417000       1.00800           0
     97634 TIP3     29240    TIP3     OH2      OT      -0.834000       15.9994           0
     97635 TIP3     29240    TIP3     H1       HT       0.417000       1.00800           0
     97636 TIP3     29240    TIP3     H2       HT       0.417000       1.00800           0
     97637 TIP3     29241    TIP3     OH2      OT      -0.834000       15.9994           0
     97638 TIP3     29241    TIP3     H1       HT       0.417000       1.00800           0
     97639 TIP3     29241    TIP3     H2       HT       0.417000       1.00800           0
     97640 TIP3     29242    TIP3     OH2      OT      -0.834000       15.9994           0
     97641 TIP3     29242    TIP3     H1       HT       0.417000       1.00800           0
     97642 TIP3     29242    TIP3     H2       HT       0.417000       1.00800           0
     97643 TIP3     29243    TIP3     OH2      OT      -0.834000       15.9994           0
     97644 TIP3     29243    TIP3     H1       HT       0.417000       1.00800           0
     97645 TIP3     29243    TIP3     H2       HT       0.417000       1.00800           0
     97646 TIP3     29244    TIP3     OH2      OT      -0.834000       15.9994           0
     97647 TIP3     29244    TIP3     H1       HT       0.417000       1.00800           0
     97648 TIP3     29244    TIP3     H2       HT       0.417000       1.00800           0
     97649 TIP3     29245    TIP3     OH2      OT      -0.834000       15.9994           0
     97650 TIP3     29245    TIP3     H1       HT       0.417000       1.00800           0
     97651 TIP3     29245    TIP3     H2       HT       0.417000       1.00800           0
     97652 TIP3     29246    TIP3     OH2      OT      -0.834000       15.9994           0
     97653 TIP3     29246    TIP3     H1       HT       0.417000       1.00800           0
     97654 TIP3     29246    TIP3     H2       HT       0.417000       1.00800           0
     97655 TIP3     29247    TIP3     OH2      OT      -0.834000       15.9994           0
     97656 TIP3     29247    TIP3     H1       HT       0.417000       1.00800           0
     97657 TIP3     29247    TIP3     H2       HT       0.417000       1.00800           0
     97658 TIP3     29248    TIP3     OH2      OT      -0.834000       15.9994           0
     97659 TIP3     29248    TIP3     H1       HT       0.417000       1.00800           0
     97660 TIP3     29248    TIP3     H2       HT       0.417000       1.00800           0
     97661 TIP3     29249    TIP3     OH2      OT      -0.834000       15.9994           0
     97662 TIP3     29249    TIP3     H1       HT       0.417000       1.00800           0
     97663 TIP3     29249    TIP3     H2       HT       0.417000       1.00800           0
     97664 TIP3     29250    TIP3     OH2      OT      -0.834000       15.9994           0
     97665 TIP3     29250    TIP3     H1       HT       0.417000       1.00800           0
     97666 TIP3     29250    TIP3     H2       HT       0.417000       1.00800           0
     97667 TIP3     29251    TIP3     OH2      OT      -0.834000       15.9994           0
     97668 TIP3     29251    TIP3     H1       HT       0.417000       1.00800           0
     97669 TIP3     29251    TIP3     H2       HT       0.417000       1.00800           0
     97670 TIP3     29252    TIP3     OH2      OT      -0.834000       15.9994           0
     97671 TIP3     29252    TIP3     H1       HT       0.417000       1.00800           0
     97672 TIP3     29252    TIP3     H2       HT       0.417000       1.00800           0
     97673 TIP3     29253    TIP3     OH2      OT      -0.834000       15.9994           0
     97674 TIP3     29253    TIP3     H1       HT       0.417000       1.00800           0
     97675 TIP3     29253    TIP3     H2       HT       0.417000       1.00800           0
     97676 TIP3     29254    TIP3     OH2      OT      -0.834000       15.9994           0
     97677 TIP3     29254    TIP3     H1       HT       0.417000       1.00800           0
     97678 TIP3     29254    TIP3     H2       HT       0.417000       1.00800           0
     97679 TIP3     29255    TIP3     OH2      OT      -0.834000       15.9994           0
     97680 TIP3     29255    TIP3     H1       HT       0.417000       1.00800           0
     97681 TIP3     29255    TIP3     H2       HT       0.417000       1.00800           0
     97682 TIP3     29256    TIP3     OH2      OT      -0.834000       15.9994           0
     97683 TIP3     29256    TIP3     H1       HT       0.417000       1.00800           0
     97684 TIP3     29256    TIP3     H2       HT       0.417000       1.00800           0
     97685 TIP3     29257    TIP3     OH2      OT      -0.834000       15.9994           0
     97686 TIP3     29257    TIP3     H1       HT       0.417000       1.00800           0
     97687 TIP3     29257    TIP3     H2       HT       0.417000       1.00800           0
     97688 TIP3     29258    TIP3     OH2      OT      -0.834000       15.9994           0
     97689 TIP3     29258    TIP3     H1       HT       0.417000       1.00800           0
     97690 TIP3     29258    TIP3     H2       HT       0.417000       1.00800           0
     97691 TIP3     29259    TIP3     OH2      OT      -0.834000       15.9994           0
     97692 TIP3     29259    TIP3     H1       HT       0.417000       1.00800           0
     97693 TIP3     29259    TIP3     H2       HT       0.417000       1.00800           0
     97694 TIP3     29260    TIP3     OH2      OT      -0.834000       15.9994           0
     97695 TIP3     29260    TIP3     H1       HT       0.417000       1.00800           0
     97696 TIP3     29260    TIP3     H2       HT       0.417000       1.00800           0
     97697 TIP3     29261    TIP3     OH2      OT      -0.834000       15.9994           0
     97698 TIP3     29261    TIP3     H1       HT       0.417000       1.00800           0
     97699 TIP3     29261    TIP3     H2       HT       0.417000       1.00800           0
     97700 TIP3     29262    TIP3     OH2      OT      -0.834000       15.9994           0
     97701 TIP3     29262    TIP3     H1       HT       0.417000       1.00800           0
     97702 TIP3     29262    TIP3     H2       HT       0.417000       1.00800           0
     97703 TIP3     29263    TIP3     OH2      OT      -0.834000       15.9994           0
     97704 TIP3     29263    TIP3     H1       HT       0.417000       1.00800           0
     97705 TIP3     29263    TIP3     H2       HT       0.417000       1.00800           0
     97706 TIP3     29264    TIP3     OH2      OT      -0.834000       15.9994           0
     97707 TIP3     29264    TIP3     H1       HT       0.417000       1.00800           0
     97708 TIP3     29264    TIP3     H2       HT       0.417000       1.00800           0
     97709 TIP3     29265    TIP3     OH2      OT      -0.834000       15.9994           0
     97710 TIP3     29265    TIP3     H1       HT       0.417000       1.00800           0
     97711 TIP3     29265    TIP3     H2       HT       0.417000       1.00800           0
     97712 TIP3     29266    TIP3     OH2      OT      -0.834000       15.9994           0
     97713 TIP3     29266    TIP3     H1       HT       0.417000       1.00800           0
     97714 TIP3     29266    TIP3     H2       HT       0.417000       1.00800           0
     97715 TIP3     29267    TIP3     OH2      OT      -0.834000       15.9994           0
     97716 TIP3     29267    TIP3     H1       HT       0.417000       1.00800           0
     97717 TIP3     29267    TIP3     H2       HT       0.417000       1.00800           0
     97718 TIP3     29268    TIP3     OH2      OT      -0.834000       15.9994           0
     97719 TIP3     29268    TIP3     H1       HT       0.417000       1.00800           0
     97720 TIP3     29268    TIP3     H2       HT       0.417000       1.00800           0
     97721 TIP3     29269    TIP3     OH2      OT      -0.834000       15.9994           0
     97722 TIP3     29269    TIP3     H1       HT       0.417000       1.00800           0
     97723 TIP3     29269    TIP3     H2       HT       0.417000       1.00800           0
     97724 TIP3     29270    TIP3     OH2      OT      -0.834000       15.9994           0
     97725 TIP3     29270    TIP3     H1       HT       0.417000       1.00800           0
     97726 TIP3     29270    TIP3     H2       HT       0.417000       1.00800           0
     97727 TIP3     29271    TIP3     OH2      OT      -0.834000       15.9994           0
     97728 TIP3     29271    TIP3     H1       HT       0.417000       1.00800           0
     97729 TIP3     29271    TIP3     H2       HT       0.417000       1.00800           0
     97730 TIP3     29272    TIP3     OH2      OT      -0.834000       15.9994           0
     97731 TIP3     29272    TIP3     H1       HT       0.417000       1.00800           0
     97732 TIP3     29272    TIP3     H2       HT       0.417000       1.00800           0
     97733 TIP3     29273    TIP3     OH2      OT      -0.834000       15.9994           0
     97734 TIP3     29273    TIP3     H1       HT       0.417000       1.00800           0
     97735 TIP3     29273    TIP3     H2       HT       0.417000       1.00800           0
     97736 TIP3     29274    TIP3     OH2      OT      -0.834000       15.9994           0
     97737 TIP3     29274    TIP3     H1       HT       0.417000       1.00800           0
     97738 TIP3     29274    TIP3     H2       HT       0.417000       1.00800           0
     97739 TIP3     29275    TIP3     OH2      OT      -0.834000       15.9994           0
     97740 TIP3     29275    TIP3     H1       HT       0.417000       1.00800           0
     97741 TIP3     29275    TIP3     H2       HT       0.417000       1.00800           0
     97742 TIP3     29276    TIP3     OH2      OT      -0.834000       15.9994           0
     97743 TIP3     29276    TIP3     H1       HT       0.417000       1.00800           0
     97744 TIP3     29276    TIP3     H2       HT       0.417000       1.00800           0
     97745 TIP3     29277    TIP3     OH2      OT      -0.834000       15.9994           0
     97746 TIP3     29277    TIP3     H1       HT       0.417000       1.00800           0
     97747 TIP3     29277    TIP3     H2       HT       0.417000       1.00800           0
     97748 TIP3     29278    TIP3     OH2      OT      -0.834000       15.9994           0
     97749 TIP3     29278    TIP3     H1       HT       0.417000       1.00800           0
     97750 TIP3     29278    TIP3     H2       HT       0.417000       1.00800           0
     97751 TIP3     29279    TIP3     OH2      OT      -0.834000       15.9994           0
     97752 TIP3     29279    TIP3     H1       HT       0.417000       1.00800           0
     97753 TIP3     29279    TIP3     H2       HT       0.417000       1.00800           0
     97754 TIP3     29280    TIP3     OH2      OT      -0.834000       15.9994           0
     97755 TIP3     29280    TIP3     H1       HT       0.417000       1.00800           0
     97756 TIP3     29280    TIP3     H2       HT       0.417000       1.00800           0
     97757 TIP3     29281    TIP3     OH2      OT      -0.834000       15.9994           0
     97758 TIP3     29281    TIP3     H1       HT       0.417000       1.00800           0
     97759 TIP3     29281    TIP3     H2       HT       0.417000       1.00800           0
     97760 TIP3     29282    TIP3     OH2      OT      -0.834000       15.9994           0
     97761 TIP3     29282    TIP3     H1       HT       0.417000       1.00800           0
     97762 TIP3     29282    TIP3     H2       HT       0.417000       1.00800           0
     97763 TIP3     29283    TIP3     OH2      OT      -0.834000       15.9994           0
     97764 TIP3     29283    TIP3     H1       HT       0.417000       1.00800           0
     97765 TIP3     29283    TIP3     H2       HT       0.417000       1.00800           0
     97766 TIP3     29284    TIP3     OH2      OT      -0.834000       15.9994           0
     97767 TIP3     29284    TIP3     H1       HT       0.417000       1.00800           0
     97768 TIP3     29284    TIP3     H2       HT       0.417000       1.00800           0
     97769 TIP3     29285    TIP3     OH2      OT      -0.834000       15.9994           0
     97770 TIP3     29285    TIP3     H1       HT       0.417000       1.00800           0
     97771 TIP3     29285    TIP3     H2       HT       0.417000       1.00800           0
     97772 TIP3     29286    TIP3     OH2      OT      -0.834000       15.9994           0
     97773 TIP3     29286    TIP3     H1       HT       0.417000       1.00800           0
     97774 TIP3     29286    TIP3     H2       HT       0.417000       1.00800           0
     97775 TIP3     29287    TIP3     OH2      OT      -0.834000       15.9994           0
     97776 TIP3     29287    TIP3     H1       HT       0.417000       1.00800           0
     97777 TIP3     29287    TIP3     H2       HT       0.417000       1.00800           0
     97778 TIP3     29288    TIP3     OH2      OT      -0.834000       15.9994           0
     97779 TIP3     29288    TIP3     H1       HT       0.417000       1.00800           0
     97780 TIP3     29288    TIP3     H2       HT       0.417000       1.00800           0
     97781 TIP3     29289    TIP3     OH2      OT      -0.834000       15.9994           0
     97782 TIP3     29289    TIP3     H1       HT       0.417000       1.00800           0
     97783 TIP3     29289    TIP3     H2       HT       0.417000       1.00800           0
     97784 TIP3     29290    TIP3     OH2      OT      -0.834000       15.9994           0
     97785 TIP3     29290    TIP3     H1       HT       0.417000       1.00800           0
     97786 TIP3     29290    TIP3     H2       HT       0.417000       1.00800           0
     97787 TIP3     29291    TIP3     OH2      OT      -0.834000       15.9994           0
     97788 TIP3     29291    TIP3     H1       HT       0.417000       1.00800           0
     97789 TIP3     29291    TIP3     H2       HT       0.417000       1.00800           0
     97790 TIP3     29292    TIP3     OH2      OT      -0.834000       15.9994           0
     97791 TIP3     29292    TIP3     H1       HT       0.417000       1.00800           0
     97792 TIP3     29292    TIP3     H2       HT       0.417000       1.00800           0
     97793 TIP3     29293    TIP3     OH2      OT      -0.834000       15.9994           0
     97794 TIP3     29293    TIP3     H1       HT       0.417000       1.00800           0
     97795 TIP3     29293    TIP3     H2       HT       0.417000       1.00800           0
     97796 TIP3     29294    TIP3     OH2      OT      -0.834000       15.9994           0
     97797 TIP3     29294    TIP3     H1       HT       0.417000       1.00800           0
     97798 TIP3     29294    TIP3     H2       HT       0.417000       1.00800           0
     97799 TIP3     29295    TIP3     OH2      OT      -0.834000       15.9994           0
     97800 TIP3     29295    TIP3     H1       HT       0.417000       1.00800           0
     97801 TIP3     29295    TIP3     H2       HT       0.417000       1.00800           0
     97802 TIP3     29296    TIP3     OH2      OT      -0.834000       15.9994           0
     97803 TIP3     29296    TIP3     H1       HT       0.417000       1.00800           0
     97804 TIP3     29296    TIP3     H2       HT       0.417000       1.00800           0
     97805 TIP3     29297    TIP3     OH2      OT      -0.834000       15.9994           0
     97806 TIP3     29297    TIP3     H1       HT       0.417000       1.00800           0
     97807 TIP3     29297    TIP3     H2       HT       0.417000       1.00800           0
     97808 TIP3     29298    TIP3     OH2      OT      -0.834000       15.9994           0
     97809 TIP3     29298    TIP3     H1       HT       0.417000       1.00800           0
     97810 TIP3     29298    TIP3     H2       HT       0.417000       1.00800           0
     97811 TIP3     29299    TIP3     OH2      OT      -0.834000       15.9994           0
     97812 TIP3     29299    TIP3     H1       HT       0.417000       1.00800           0
     97813 TIP3     29299    TIP3     H2       HT       0.417000       1.00800           0
     97814 TIP3     29300    TIP3     OH2      OT      -0.834000       15.9994           0
     97815 TIP3     29300    TIP3     H1       HT       0.417000       1.00800           0
     97816 TIP3     29300    TIP3     H2       HT       0.417000       1.00800           0
     97817 TIP3     29301    TIP3     OH2      OT      -0.834000       15.9994           0
     97818 TIP3     29301    TIP3     H1       HT       0.417000       1.00800           0
     97819 TIP3     29301    TIP3     H2       HT       0.417000       1.00800           0
     97820 TIP3     29302    TIP3     OH2      OT      -0.834000       15.9994           0
     97821 TIP3     29302    TIP3     H1       HT       0.417000       1.00800           0
     97822 TIP3     29302    TIP3     H2       HT       0.417000       1.00800           0
     97823 TIP3     29303    TIP3     OH2      OT      -0.834000       15.9994           0
     97824 TIP3     29303    TIP3     H1       HT       0.417000       1.00800           0
     97825 TIP3     29303    TIP3     H2       HT       0.417000       1.00800           0
     97826 TIP3     29304    TIP3     OH2      OT      -0.834000       15.9994           0
     97827 TIP3     29304    TIP3     H1       HT       0.417000       1.00800           0
     97828 TIP3     29304    TIP3     H2       HT       0.417000       1.00800           0
     97829 TIP3     29305    TIP3     OH2      OT      -0.834000       15.9994           0
     97830 TIP3     29305    TIP3     H1       HT       0.417000       1.00800           0
     97831 TIP3     29305    TIP3     H2       HT       0.417000       1.00800           0
     97832 TIP3     29306    TIP3     OH2      OT      -0.834000       15.9994           0
     97833 TIP3     29306    TIP3     H1       HT       0.417000       1.00800           0
     97834 TIP3     29306    TIP3     H2       HT       0.417000       1.00800           0
     97835 TIP3     29307    TIP3     OH2      OT      -0.834000       15.9994           0
     97836 TIP3     29307    TIP3     H1       HT       0.417000       1.00800           0
     97837 TIP3     29307    TIP3     H2       HT       0.417000       1.00800           0
     97838 TIP3     29308    TIP3     OH2      OT      -0.834000       15.9994           0
     97839 TIP3     29308    TIP3     H1       HT       0.417000       1.00800           0
     97840 TIP3     29308    TIP3     H2       HT       0.417000       1.00800           0
     97841 TIP3     29309    TIP3     OH2      OT      -0.834000       15.9994           0
     97842 TIP3     29309    TIP3     H1       HT       0.417000       1.00800           0
     97843 TIP3     29309    TIP3     H2       HT       0.417000       1.00800           0
     97844 TIP3     29310    TIP3     OH2      OT      -0.834000       15.9994           0
     97845 TIP3     29310    TIP3     H1       HT       0.417000       1.00800           0
     97846 TIP3     29310    TIP3     H2       HT       0.417000       1.00800           0
     97847 TIP3     29311    TIP3     OH2      OT      -0.834000       15.9994           0
     97848 TIP3     29311    TIP3     H1       HT       0.417000       1.00800           0
     97849 TIP3     29311    TIP3     H2       HT       0.417000       1.00800           0
     97850 TIP3     29312    TIP3     OH2      OT      -0.834000       15.9994           0
     97851 TIP3     29312    TIP3     H1       HT       0.417000       1.00800           0
     97852 TIP3     29312    TIP3     H2       HT       0.417000       1.00800           0
     97853 TIP3     29313    TIP3     OH2      OT      -0.834000       15.9994           0
     97854 TIP3     29313    TIP3     H1       HT       0.417000       1.00800           0
     97855 TIP3     29313    TIP3     H2       HT       0.417000       1.00800           0
     97856 TIP3     29314    TIP3     OH2      OT      -0.834000       15.9994           0
     97857 TIP3     29314    TIP3     H1       HT       0.417000       1.00800           0
     97858 TIP3     29314    TIP3     H2       HT       0.417000       1.00800           0
     97859 TIP3     29315    TIP3     OH2      OT      -0.834000       15.9994           0
     97860 TIP3     29315    TIP3     H1       HT       0.417000       1.00800           0
     97861 TIP3     29315    TIP3     H2       HT       0.417000       1.00800           0
     97862 TIP3     29316    TIP3     OH2      OT      -0.834000       15.9994           0
     97863 TIP3     29316    TIP3     H1       HT       0.417000       1.00800           0
     97864 TIP3     29316    TIP3     H2       HT       0.417000       1.00800           0
     97865 TIP3     29317    TIP3     OH2      OT      -0.834000       15.9994           0
     97866 TIP3     29317    TIP3     H1       HT       0.417000       1.00800           0
     97867 TIP3     29317    TIP3     H2       HT       0.417000       1.00800           0
     97868 TIP3     29318    TIP3     OH2      OT      -0.834000       15.9994           0
     97869 TIP3     29318    TIP3     H1       HT       0.417000       1.00800           0
     97870 TIP3     29318    TIP3     H2       HT       0.417000       1.00800           0
     97871 TIP3     29319    TIP3     OH2      OT      -0.834000       15.9994           0
     97872 TIP3     29319    TIP3     H1       HT       0.417000       1.00800           0
     97873 TIP3     29319    TIP3     H2       HT       0.417000       1.00800           0
     97874 TIP3     29320    TIP3     OH2      OT      -0.834000       15.9994           0
     97875 TIP3     29320    TIP3     H1       HT       0.417000       1.00800           0
     97876 TIP3     29320    TIP3     H2       HT       0.417000       1.00800           0
     97877 TIP3     29321    TIP3     OH2      OT      -0.834000       15.9994           0
     97878 TIP3     29321    TIP3     H1       HT       0.417000       1.00800           0
     97879 TIP3     29321    TIP3     H2       HT       0.417000       1.00800           0
     97880 TIP3     29322    TIP3     OH2      OT      -0.834000       15.9994           0
     97881 TIP3     29322    TIP3     H1       HT       0.417000       1.00800           0
     97882 TIP3     29322    TIP3     H2       HT       0.417000       1.00800           0
     97883 TIP3     29323    TIP3     OH2      OT      -0.834000       15.9994           0
     97884 TIP3     29323    TIP3     H1       HT       0.417000       1.00800           0
     97885 TIP3     29323    TIP3     H2       HT       0.417000       1.00800           0
     97886 TIP3     29324    TIP3     OH2      OT      -0.834000       15.9994           0
     97887 TIP3     29324    TIP3     H1       HT       0.417000       1.00800           0
     97888 TIP3     29324    TIP3     H2       HT       0.417000       1.00800           0
     97889 TIP3     29325    TIP3     OH2      OT      -0.834000       15.9994           0
     97890 TIP3     29325    TIP3     H1       HT       0.417000       1.00800           0
     97891 TIP3     29325    TIP3     H2       HT       0.417000       1.00800           0
     97892 TIP3     29326    TIP3     OH2      OT      -0.834000       15.9994           0
     97893 TIP3     29326    TIP3     H1       HT       0.417000       1.00800           0
     97894 TIP3     29326    TIP3     H2       HT       0.417000       1.00800           0
     97895 TIP3     29327    TIP3     OH2      OT      -0.834000       15.9994           0
     97896 TIP3     29327    TIP3     H1       HT       0.417000       1.00800           0
     97897 TIP3     29327    TIP3     H2       HT       0.417000       1.00800           0
     97898 TIP3     29328    TIP3     OH2      OT      -0.834000       15.9994           0
     97899 TIP3     29328    TIP3     H1       HT       0.417000       1.00800           0
     97900 TIP3     29328    TIP3     H2       HT       0.417000       1.00800           0
     97901 TIP3     29329    TIP3     OH2      OT      -0.834000       15.9994           0
     97902 TIP3     29329    TIP3     H1       HT       0.417000       1.00800           0
     97903 TIP3     29329    TIP3     H2       HT       0.417000       1.00800           0
     97904 TIP3     29330    TIP3     OH2      OT      -0.834000       15.9994           0
     97905 TIP3     29330    TIP3     H1       HT       0.417000       1.00800           0
     97906 TIP3     29330    TIP3     H2       HT       0.417000       1.00800           0
     97907 TIP3     29331    TIP3     OH2      OT      -0.834000       15.9994           0
     97908 TIP3     29331    TIP3     H1       HT       0.417000       1.00800           0
     97909 TIP3     29331    TIP3     H2       HT       0.417000       1.00800           0
     97910 TIP3     29332    TIP3     OH2      OT      -0.834000       15.9994           0
     97911 TIP3     29332    TIP3     H1       HT       0.417000       1.00800           0
     97912 TIP3     29332    TIP3     H2       HT       0.417000       1.00800           0
     97913 TIP3     29333    TIP3     OH2      OT      -0.834000       15.9994           0
     97914 TIP3     29333    TIP3     H1       HT       0.417000       1.00800           0
     97915 TIP3     29333    TIP3     H2       HT       0.417000       1.00800           0
     97916 TIP3     29334    TIP3     OH2      OT      -0.834000       15.9994           0
     97917 TIP3     29334    TIP3     H1       HT       0.417000       1.00800           0
     97918 TIP3     29334    TIP3     H2       HT       0.417000       1.00800           0
     97919 TIP3     29335    TIP3     OH2      OT      -0.834000       15.9994           0
     97920 TIP3     29335    TIP3     H1       HT       0.417000       1.00800           0
     97921 TIP3     29335    TIP3     H2       HT       0.417000       1.00800           0
     97922 TIP3     29336    TIP3     OH2      OT      -0.834000       15.9994           0
     97923 TIP3     29336    TIP3     H1       HT       0.417000       1.00800           0
     97924 TIP3     29336    TIP3     H2       HT       0.417000       1.00800           0
     97925 TIP3     29337    TIP3     OH2      OT      -0.834000       15.9994           0
     97926 TIP3     29337    TIP3     H1       HT       0.417000       1.00800           0
     97927 TIP3     29337    TIP3     H2       HT       0.417000       1.00800           0
     97928 TIP3     29338    TIP3     OH2      OT      -0.834000       15.9994           0
     97929 TIP3     29338    TIP3     H1       HT       0.417000       1.00800           0
     97930 TIP3     29338    TIP3     H2       HT       0.417000       1.00800           0
     97931 TIP3     29339    TIP3     OH2      OT      -0.834000       15.9994           0
     97932 TIP3     29339    TIP3     H1       HT       0.417000       1.00800           0
     97933 TIP3     29339    TIP3     H2       HT       0.417000       1.00800           0
     97934 TIP3     29340    TIP3     OH2      OT      -0.834000       15.9994           0
     97935 TIP3     29340    TIP3     H1       HT       0.417000       1.00800           0
     97936 TIP3     29340    TIP3     H2       HT       0.417000       1.00800           0
     97937 TIP3     29341    TIP3     OH2      OT      -0.834000       15.9994           0
     97938 TIP3     29341    TIP3     H1       HT       0.417000       1.00800           0
     97939 TIP3     29341    TIP3     H2       HT       0.417000       1.00800           0
     97940 TIP3     29342    TIP3     OH2      OT      -0.834000       15.9994           0
     97941 TIP3     29342    TIP3     H1       HT       0.417000       1.00800           0
     97942 TIP3     29342    TIP3     H2       HT       0.417000       1.00800           0
     97943 TIP3     29343    TIP3     OH2      OT      -0.834000       15.9994           0
     97944 TIP3     29343    TIP3     H1       HT       0.417000       1.00800           0
     97945 TIP3     29343    TIP3     H2       HT       0.417000       1.00800           0
     97946 TIP3     29344    TIP3     OH2      OT      -0.834000       15.9994           0
     97947 TIP3     29344    TIP3     H1       HT       0.417000       1.00800           0
     97948 TIP3     29344    TIP3     H2       HT       0.417000       1.00800           0
     97949 TIP3     29345    TIP3     OH2      OT      -0.834000       15.9994           0
     97950 TIP3     29345    TIP3     H1       HT       0.417000       1.00800           0
     97951 TIP3     29345    TIP3     H2       HT       0.417000       1.00800           0
     97952 TIP3     29346    TIP3     OH2      OT      -0.834000       15.9994           0
     97953 TIP3     29346    TIP3     H1       HT       0.417000       1.00800           0
     97954 TIP3     29346    TIP3     H2       HT       0.417000       1.00800           0
     97955 TIP3     29347    TIP3     OH2      OT      -0.834000       15.9994           0
     97956 TIP3     29347    TIP3     H1       HT       0.417000       1.00800           0
     97957 TIP3     29347    TIP3     H2       HT       0.417000       1.00800           0
     97958 TIP3     29348    TIP3     OH2      OT      -0.834000       15.9994           0
     97959 TIP3     29348    TIP3     H1       HT       0.417000       1.00800           0
     97960 TIP3     29348    TIP3     H2       HT       0.417000       1.00800           0
     97961 TIP3     29349    TIP3     OH2      OT      -0.834000       15.9994           0
     97962 TIP3     29349    TIP3     H1       HT       0.417000       1.00800           0
     97963 TIP3     29349    TIP3     H2       HT       0.417000       1.00800           0
     97964 TIP3     29350    TIP3     OH2      OT      -0.834000       15.9994           0
     97965 TIP3     29350    TIP3     H1       HT       0.417000       1.00800           0
     97966 TIP3     29350    TIP3     H2       HT       0.417000       1.00800           0
     97967 TIP3     29351    TIP3     OH2      OT      -0.834000       15.9994           0
     97968 TIP3     29351    TIP3     H1       HT       0.417000       1.00800           0
     97969 TIP3     29351    TIP3     H2       HT       0.417000       1.00800           0
     97970 TIP3     29352    TIP3     OH2      OT      -0.834000       15.9994           0
     97971 TIP3     29352    TIP3     H1       HT       0.417000       1.00800           0
     97972 TIP3     29352    TIP3     H2       HT       0.417000       1.00800           0
     97973 TIP3     29353    TIP3     OH2      OT      -0.834000       15.9994           0
     97974 TIP3     29353    TIP3     H1       HT       0.417000       1.00800           0
     97975 TIP3     29353    TIP3     H2       HT       0.417000       1.00800           0
     97976 TIP3     29354    TIP3     OH2      OT      -0.834000       15.9994           0
     97977 TIP3     29354    TIP3     H1       HT       0.417000       1.00800           0
     97978 TIP3     29354    TIP3     H2       HT       0.417000       1.00800           0
     97979 TIP3     29355    TIP3     OH2      OT      -0.834000       15.9994           0
     97980 TIP3     29355    TIP3     H1       HT       0.417000       1.00800           0
     97981 TIP3     29355    TIP3     H2       HT       0.417000       1.00800           0
     97982 TIP3     29356    TIP3     OH2      OT      -0.834000       15.9994           0
     97983 TIP3     29356    TIP3     H1       HT       0.417000       1.00800           0
     97984 TIP3     29356    TIP3     H2       HT       0.417000       1.00800           0
     97985 TIP3     29357    TIP3     OH2      OT      -0.834000       15.9994           0
     97986 TIP3     29357    TIP3     H1       HT       0.417000       1.00800           0
     97987 TIP3     29357    TIP3     H2       HT       0.417000       1.00800           0
     97988 TIP3     29358    TIP3     OH2      OT      -0.834000       15.9994           0
     97989 TIP3     29358    TIP3     H1       HT       0.417000       1.00800           0
     97990 TIP3     29358    TIP3     H2       HT       0.417000       1.00800           0
     97991 TIP3     29359    TIP3     OH2      OT      -0.834000       15.9994           0
     97992 TIP3     29359    TIP3     H1       HT       0.417000       1.00800           0
     97993 TIP3     29359    TIP3     H2       HT       0.417000       1.00800           0
     97994 TIP3     29360    TIP3     OH2      OT      -0.834000       15.9994           0
     97995 TIP3     29360    TIP3     H1       HT       0.417000       1.00800           0
     97996 TIP3     29360    TIP3     H2       HT       0.417000       1.00800           0
     97997 TIP3     29361    TIP3     OH2      OT      -0.834000       15.9994           0
     97998 TIP3     29361    TIP3     H1       HT       0.417000       1.00800           0
     97999 TIP3     29361    TIP3     H2       HT       0.417000       1.00800           0
     98000 TIP3     29362    TIP3     OH2      OT      -0.834000       15.9994           0
     98001 TIP3     29362    TIP3     H1       HT       0.417000       1.00800           0
     98002 TIP3     29362    TIP3     H2       HT       0.417000       1.00800           0
     98003 TIP3     29363    TIP3     OH2      OT      -0.834000       15.9994           0
     98004 TIP3     29363    TIP3     H1       HT       0.417000       1.00800           0
     98005 TIP3     29363    TIP3     H2       HT       0.417000       1.00800           0
     98006 TIP3     29364    TIP3     OH2      OT      -0.834000       15.9994           0
     98007 TIP3     29364    TIP3     H1       HT       0.417000       1.00800           0
     98008 TIP3     29364    TIP3     H2       HT       0.417000       1.00800           0
     98009 TIP3     29365    TIP3     OH2      OT      -0.834000       15.9994           0
     98010 TIP3     29365    TIP3     H1       HT       0.417000       1.00800           0
     98011 TIP3     29365    TIP3     H2       HT       0.417000       1.00800           0
     98012 TIP3     29366    TIP3     OH2      OT      -0.834000       15.9994           0
     98013 TIP3     29366    TIP3     H1       HT       0.417000       1.00800           0
     98014 TIP3     29366    TIP3     H2       HT       0.417000       1.00800           0
     98015 TIP3     29367    TIP3     OH2      OT      -0.834000       15.9994           0
     98016 TIP3     29367    TIP3     H1       HT       0.417000       1.00800           0
     98017 TIP3     29367    TIP3     H2       HT       0.417000       1.00800           0
     98018 TIP3     29368    TIP3     OH2      OT      -0.834000       15.9994           0
     98019 TIP3     29368    TIP3     H1       HT       0.417000       1.00800           0
     98020 TIP3     29368    TIP3     H2       HT       0.417000       1.00800           0
     98021 TIP3     29369    TIP3     OH2      OT      -0.834000       15.9994           0
     98022 TIP3     29369    TIP3     H1       HT       0.417000       1.00800           0
     98023 TIP3     29369    TIP3     H2       HT       0.417000       1.00800           0
     98024 TIP3     29370    TIP3     OH2      OT      -0.834000       15.9994           0
     98025 TIP3     29370    TIP3     H1       HT       0.417000       1.00800           0
     98026 TIP3     29370    TIP3     H2       HT       0.417000       1.00800           0
     98027 TIP3     29371    TIP3     OH2      OT      -0.834000       15.9994           0
     98028 TIP3     29371    TIP3     H1       HT       0.417000       1.00800           0
     98029 TIP3     29371    TIP3     H2       HT       0.417000       1.00800           0
     98030 TIP3     29372    TIP3     OH2      OT      -0.834000       15.9994           0
     98031 TIP3     29372    TIP3     H1       HT       0.417000       1.00800           0
     98032 TIP3     29372    TIP3     H2       HT       0.417000       1.00800           0
     98033 TIP3     29373    TIP3     OH2      OT      -0.834000       15.9994           0
     98034 TIP3     29373    TIP3     H1       HT       0.417000       1.00800           0
     98035 TIP3     29373    TIP3     H2       HT       0.417000       1.00800           0
     98036 TIP3     29374    TIP3     OH2      OT      -0.834000       15.9994           0
     98037 TIP3     29374    TIP3     H1       HT       0.417000       1.00800           0
     98038 TIP3     29374    TIP3     H2       HT       0.417000       1.00800           0
     98039 TIP3     29375    TIP3     OH2      OT      -0.834000       15.9994           0
     98040 TIP3     29375    TIP3     H1       HT       0.417000       1.00800           0
     98041 TIP3     29375    TIP3     H2       HT       0.417000       1.00800           0
     98042 TIP3     29376    TIP3     OH2      OT      -0.834000       15.9994           0
     98043 TIP3     29376    TIP3     H1       HT       0.417000       1.00800           0
     98044 TIP3     29376    TIP3     H2       HT       0.417000       1.00800           0
     98045 TIP3     29377    TIP3     OH2      OT      -0.834000       15.9994           0
     98046 TIP3     29377    TIP3     H1       HT       0.417000       1.00800           0
     98047 TIP3     29377    TIP3     H2       HT       0.417000       1.00800           0
     98048 TIP3     29378    TIP3     OH2      OT      -0.834000       15.9994           0
     98049 TIP3     29378    TIP3     H1       HT       0.417000       1.00800           0
     98050 TIP3     29378    TIP3     H2       HT       0.417000       1.00800           0
     98051 TIP3     29379    TIP3     OH2      OT      -0.834000       15.9994           0
     98052 TIP3     29379    TIP3     H1       HT       0.417000       1.00800           0
     98053 TIP3     29379    TIP3     H2       HT       0.417000       1.00800           0
     98054 TIP3     29380    TIP3     OH2      OT      -0.834000       15.9994           0
     98055 TIP3     29380    TIP3     H1       HT       0.417000       1.00800           0
     98056 TIP3     29380    TIP3     H2       HT       0.417000       1.00800           0
     98057 TIP3     29381    TIP3     OH2      OT      -0.834000       15.9994           0
     98058 TIP3     29381    TIP3     H1       HT       0.417000       1.00800           0
     98059 TIP3     29381    TIP3     H2       HT       0.417000       1.00800           0
     98060 TIP3     29382    TIP3     OH2      OT      -0.834000       15.9994           0
     98061 TIP3     29382    TIP3     H1       HT       0.417000       1.00800           0
     98062 TIP3     29382    TIP3     H2       HT       0.417000       1.00800           0
     98063 TIP3     29383    TIP3     OH2      OT      -0.834000       15.9994           0
     98064 TIP3     29383    TIP3     H1       HT       0.417000       1.00800           0
     98065 TIP3     29383    TIP3     H2       HT       0.417000       1.00800           0
     98066 TIP3     29384    TIP3     OH2      OT      -0.834000       15.9994           0
     98067 TIP3     29384    TIP3     H1       HT       0.417000       1.00800           0
     98068 TIP3     29384    TIP3     H2       HT       0.417000       1.00800           0
     98069 TIP3     29385    TIP3     OH2      OT      -0.834000       15.9994           0
     98070 TIP3     29385    TIP3     H1       HT       0.417000       1.00800           0
     98071 TIP3     29385    TIP3     H2       HT       0.417000       1.00800           0
     98072 TIP3     29386    TIP3     OH2      OT      -0.834000       15.9994           0
     98073 TIP3     29386    TIP3     H1       HT       0.417000       1.00800           0
     98074 TIP3     29386    TIP3     H2       HT       0.417000       1.00800           0
     98075 TIP3     29387    TIP3     OH2      OT      -0.834000       15.9994           0
     98076 TIP3     29387    TIP3     H1       HT       0.417000       1.00800           0
     98077 TIP3     29387    TIP3     H2       HT       0.417000       1.00800           0
     98078 TIP3     29388    TIP3     OH2      OT      -0.834000       15.9994           0
     98079 TIP3     29388    TIP3     H1       HT       0.417000       1.00800           0
     98080 TIP3     29388    TIP3     H2       HT       0.417000       1.00800           0
     98081 TIP3     29389    TIP3     OH2      OT      -0.834000       15.9994           0
     98082 TIP3     29389    TIP3     H1       HT       0.417000       1.00800           0
     98083 TIP3     29389    TIP3     H2       HT       0.417000       1.00800           0
     98084 TIP3     29390    TIP3     OH2      OT      -0.834000       15.9994           0
     98085 TIP3     29390    TIP3     H1       HT       0.417000       1.00800           0
     98086 TIP3     29390    TIP3     H2       HT       0.417000       1.00800           0
     98087 TIP3     29391    TIP3     OH2      OT      -0.834000       15.9994           0
     98088 TIP3     29391    TIP3     H1       HT       0.417000       1.00800           0
     98089 TIP3     29391    TIP3     H2       HT       0.417000       1.00800           0
     98090 TIP3     29392    TIP3     OH2      OT      -0.834000       15.9994           0
     98091 TIP3     29392    TIP3     H1       HT       0.417000       1.00800           0
     98092 TIP3     29392    TIP3     H2       HT       0.417000       1.00800           0
     98093 TIP3     29393    TIP3     OH2      OT      -0.834000       15.9994           0
     98094 TIP3     29393    TIP3     H1       HT       0.417000       1.00800           0
     98095 TIP3     29393    TIP3     H2       HT       0.417000       1.00800           0
     98096 TIP3     29394    TIP3     OH2      OT      -0.834000       15.9994           0
     98097 TIP3     29394    TIP3     H1       HT       0.417000       1.00800           0
     98098 TIP3     29394    TIP3     H2       HT       0.417000       1.00800           0
     98099 TIP3     29395    TIP3     OH2      OT      -0.834000       15.9994           0
     98100 TIP3     29395    TIP3     H1       HT       0.417000       1.00800           0
     98101 TIP3     29395    TIP3     H2       HT       0.417000       1.00800           0
     98102 TIP3     29396    TIP3     OH2      OT      -0.834000       15.9994           0
     98103 TIP3     29396    TIP3     H1       HT       0.417000       1.00800           0
     98104 TIP3     29396    TIP3     H2       HT       0.417000       1.00800           0
     98105 TIP3     29397    TIP3     OH2      OT      -0.834000       15.9994           0
     98106 TIP3     29397    TIP3     H1       HT       0.417000       1.00800           0
     98107 TIP3     29397    TIP3     H2       HT       0.417000       1.00800           0
     98108 TIP3     29398    TIP3     OH2      OT      -0.834000       15.9994           0
     98109 TIP3     29398    TIP3     H1       HT       0.417000       1.00800           0
     98110 TIP3     29398    TIP3     H2       HT       0.417000       1.00800           0
     98111 TIP3     29399    TIP3     OH2      OT      -0.834000       15.9994           0
     98112 TIP3     29399    TIP3     H1       HT       0.417000       1.00800           0
     98113 TIP3     29399    TIP3     H2       HT       0.417000       1.00800           0
     98114 TIP3     29400    TIP3     OH2      OT      -0.834000       15.9994           0
     98115 TIP3     29400    TIP3     H1       HT       0.417000       1.00800           0
     98116 TIP3     29400    TIP3     H2       HT       0.417000       1.00800           0
     98117 TIP3     29401    TIP3     OH2      OT      -0.834000       15.9994           0
     98118 TIP3     29401    TIP3     H1       HT       0.417000       1.00800           0
     98119 TIP3     29401    TIP3     H2       HT       0.417000       1.00800           0
     98120 TIP3     29402    TIP3     OH2      OT      -0.834000       15.9994           0
     98121 TIP3     29402    TIP3     H1       HT       0.417000       1.00800           0
     98122 TIP3     29402    TIP3     H2       HT       0.417000       1.00800           0
     98123 TIP3     29403    TIP3     OH2      OT      -0.834000       15.9994           0
     98124 TIP3     29403    TIP3     H1       HT       0.417000       1.00800           0
     98125 TIP3     29403    TIP3     H2       HT       0.417000       1.00800           0
     98126 TIP3     29404    TIP3     OH2      OT      -0.834000       15.9994           0
     98127 TIP3     29404    TIP3     H1       HT       0.417000       1.00800           0
     98128 TIP3     29404    TIP3     H2       HT       0.417000       1.00800           0
     98129 TIP3     29405    TIP3     OH2      OT      -0.834000       15.9994           0
     98130 TIP3     29405    TIP3     H1       HT       0.417000       1.00800           0
     98131 TIP3     29405    TIP3     H2       HT       0.417000       1.00800           0
     98132 TIP3     29406    TIP3     OH2      OT      -0.834000       15.9994           0
     98133 TIP3     29406    TIP3     H1       HT       0.417000       1.00800           0
     98134 TIP3     29406    TIP3     H2       HT       0.417000       1.00800           0
     98135 TIP3     29407    TIP3     OH2      OT      -0.834000       15.9994           0
     98136 TIP3     29407    TIP3     H1       HT       0.417000       1.00800           0
     98137 TIP3     29407    TIP3     H2       HT       0.417000       1.00800           0
     98138 TIP3     29408    TIP3     OH2      OT      -0.834000       15.9994           0
     98139 TIP3     29408    TIP3     H1       HT       0.417000       1.00800           0
     98140 TIP3     29408    TIP3     H2       HT       0.417000       1.00800           0
     98141 TIP3     29409    TIP3     OH2      OT      -0.834000       15.9994           0
     98142 TIP3     29409    TIP3     H1       HT       0.417000       1.00800           0
     98143 TIP3     29409    TIP3     H2       HT       0.417000       1.00800           0
     98144 TIP3     29410    TIP3     OH2      OT      -0.834000       15.9994           0
     98145 TIP3     29410    TIP3     H1       HT       0.417000       1.00800           0
     98146 TIP3     29410    TIP3     H2       HT       0.417000       1.00800           0
     98147 TIP3     29411    TIP3     OH2      OT      -0.834000       15.9994           0
     98148 TIP3     29411    TIP3     H1       HT       0.417000       1.00800           0
     98149 TIP3     29411    TIP3     H2       HT       0.417000       1.00800           0
     98150 TIP3     29412    TIP3     OH2      OT      -0.834000       15.9994           0
     98151 TIP3     29412    TIP3     H1       HT       0.417000       1.00800           0
     98152 TIP3     29412    TIP3     H2       HT       0.417000       1.00800           0
     98153 TIP3     29413    TIP3     OH2      OT      -0.834000       15.9994           0
     98154 TIP3     29413    TIP3     H1       HT       0.417000       1.00800           0
     98155 TIP3     29413    TIP3     H2       HT       0.417000       1.00800           0
     98156 TIP3     29414    TIP3     OH2      OT      -0.834000       15.9994           0
     98157 TIP3     29414    TIP3     H1       HT       0.417000       1.00800           0
     98158 TIP3     29414    TIP3     H2       HT       0.417000       1.00800           0
     98159 TIP3     29415    TIP3     OH2      OT      -0.834000       15.9994           0
     98160 TIP3     29415    TIP3     H1       HT       0.417000       1.00800           0
     98161 TIP3     29415    TIP3     H2       HT       0.417000       1.00800           0
     98162 TIP3     29416    TIP3     OH2      OT      -0.834000       15.9994           0
     98163 TIP3     29416    TIP3     H1       HT       0.417000       1.00800           0
     98164 TIP3     29416    TIP3     H2       HT       0.417000       1.00800           0
     98165 TIP3     29417    TIP3     OH2      OT      -0.834000       15.9994           0
     98166 TIP3     29417    TIP3     H1       HT       0.417000       1.00800           0
     98167 TIP3     29417    TIP3     H2       HT       0.417000       1.00800           0
     98168 TIP3     29418    TIP3     OH2      OT      -0.834000       15.9994           0
     98169 TIP3     29418    TIP3     H1       HT       0.417000       1.00800           0
     98170 TIP3     29418    TIP3     H2       HT       0.417000       1.00800           0
     98171 TIP3     29419    TIP3     OH2      OT      -0.834000       15.9994           0
     98172 TIP3     29419    TIP3     H1       HT       0.417000       1.00800           0
     98173 TIP3     29419    TIP3     H2       HT       0.417000       1.00800           0
     98174 TIP3     29420    TIP3     OH2      OT      -0.834000       15.9994           0
     98175 TIP3     29420    TIP3     H1       HT       0.417000       1.00800           0
     98176 TIP3     29420    TIP3     H2       HT       0.417000       1.00800           0
     98177 TIP3     29421    TIP3     OH2      OT      -0.834000       15.9994           0
     98178 TIP3     29421    TIP3     H1       HT       0.417000       1.00800           0
     98179 TIP3     29421    TIP3     H2       HT       0.417000       1.00800           0
     98180 TIP3     29422    TIP3     OH2      OT      -0.834000       15.9994           0
     98181 TIP3     29422    TIP3     H1       HT       0.417000       1.00800           0
     98182 TIP3     29422    TIP3     H2       HT       0.417000       1.00800           0
     98183 TIP3     29423    TIP3     OH2      OT      -0.834000       15.9994           0
     98184 TIP3     29423    TIP3     H1       HT       0.417000       1.00800           0
     98185 TIP3     29423    TIP3     H2       HT       0.417000       1.00800           0
     98186 TIP3     29424    TIP3     OH2      OT      -0.834000       15.9994           0
     98187 TIP3     29424    TIP3     H1       HT       0.417000       1.00800           0
     98188 TIP3     29424    TIP3     H2       HT       0.417000       1.00800           0
     98189 TIP3     29425    TIP3     OH2      OT      -0.834000       15.9994           0
     98190 TIP3     29425    TIP3     H1       HT       0.417000       1.00800           0
     98191 TIP3     29425    TIP3     H2       HT       0.417000       1.00800           0
     98192 TIP3     29426    TIP3     OH2      OT      -0.834000       15.9994           0
     98193 TIP3     29426    TIP3     H1       HT       0.417000       1.00800           0
     98194 TIP3     29426    TIP3     H2       HT       0.417000       1.00800           0
     98195 TIP3     29427    TIP3     OH2      OT      -0.834000       15.9994           0
     98196 TIP3     29427    TIP3     H1       HT       0.417000       1.00800           0
     98197 TIP3     29427    TIP3     H2       HT       0.417000       1.00800           0
     98198 TIP3     29428    TIP3     OH2      OT      -0.834000       15.9994           0
     98199 TIP3     29428    TIP3     H1       HT       0.417000       1.00800           0
     98200 TIP3     29428    TIP3     H2       HT       0.417000       1.00800           0
     98201 TIP3     29429    TIP3     OH2      OT      -0.834000       15.9994           0
     98202 TIP3     29429    TIP3     H1       HT       0.417000       1.00800           0
     98203 TIP3     29429    TIP3     H2       HT       0.417000       1.00800           0
     98204 TIP3     29430    TIP3     OH2      OT      -0.834000       15.9994           0
     98205 TIP3     29430    TIP3     H1       HT       0.417000       1.00800           0
     98206 TIP3     29430    TIP3     H2       HT       0.417000       1.00800           0
     98207 TIP3     29431    TIP3     OH2      OT      -0.834000       15.9994           0
     98208 TIP3     29431    TIP3     H1       HT       0.417000       1.00800           0
     98209 TIP3     29431    TIP3     H2       HT       0.417000       1.00800           0
     98210 TIP3     29432    TIP3     OH2      OT      -0.834000       15.9994           0
     98211 TIP3     29432    TIP3     H1       HT       0.417000       1.00800           0
     98212 TIP3     29432    TIP3     H2       HT       0.417000       1.00800           0
     98213 TIP3     29433    TIP3     OH2      OT      -0.834000       15.9994           0
     98214 TIP3     29433    TIP3     H1       HT       0.417000       1.00800           0
     98215 TIP3     29433    TIP3     H2       HT       0.417000       1.00800           0
     98216 TIP3     29434    TIP3     OH2      OT      -0.834000       15.9994           0
     98217 TIP3     29434    TIP3     H1       HT       0.417000       1.00800           0
     98218 TIP3     29434    TIP3     H2       HT       0.417000       1.00800           0
     98219 TIP3     29435    TIP3     OH2      OT      -0.834000       15.9994           0
     98220 TIP3     29435    TIP3     H1       HT       0.417000       1.00800           0
     98221 TIP3     29435    TIP3     H2       HT       0.417000       1.00800           0
     98222 TIP3     29436    TIP3     OH2      OT      -0.834000       15.9994           0
     98223 TIP3     29436    TIP3     H1       HT       0.417000       1.00800           0
     98224 TIP3     29436    TIP3     H2       HT       0.417000       1.00800           0
     98225 TIP3     29437    TIP3     OH2      OT      -0.834000       15.9994           0
     98226 TIP3     29437    TIP3     H1       HT       0.417000       1.00800           0
     98227 TIP3     29437    TIP3     H2       HT       0.417000       1.00800           0
     98228 TIP3     29438    TIP3     OH2      OT      -0.834000       15.9994           0
     98229 TIP3     29438    TIP3     H1       HT       0.417000       1.00800           0
     98230 TIP3     29438    TIP3     H2       HT       0.417000       1.00800           0
     98231 TIP3     29439    TIP3     OH2      OT      -0.834000       15.9994           0
     98232 TIP3     29439    TIP3     H1       HT       0.417000       1.00800           0
     98233 TIP3     29439    TIP3     H2       HT       0.417000       1.00800           0
     98234 TIP3     29440    TIP3     OH2      OT      -0.834000       15.9994           0
     98235 TIP3     29440    TIP3     H1       HT       0.417000       1.00800           0
     98236 TIP3     29440    TIP3     H2       HT       0.417000       1.00800           0
     98237 TIP3     29441    TIP3     OH2      OT      -0.834000       15.9994           0
     98238 TIP3     29441    TIP3     H1       HT       0.417000       1.00800           0
     98239 TIP3     29441    TIP3     H2       HT       0.417000       1.00800           0
     98240 TIP3     29442    TIP3     OH2      OT      -0.834000       15.9994           0
     98241 TIP3     29442    TIP3     H1       HT       0.417000       1.00800           0
     98242 TIP3     29442    TIP3     H2       HT       0.417000       1.00800           0
     98243 TIP3     29443    TIP3     OH2      OT      -0.834000       15.9994           0
     98244 TIP3     29443    TIP3     H1       HT       0.417000       1.00800           0
     98245 TIP3     29443    TIP3     H2       HT       0.417000       1.00800           0
     98246 TIP3     29444    TIP3     OH2      OT      -0.834000       15.9994           0
     98247 TIP3     29444    TIP3     H1       HT       0.417000       1.00800           0
     98248 TIP3     29444    TIP3     H2       HT       0.417000       1.00800           0
     98249 TIP3     29445    TIP3     OH2      OT      -0.834000       15.9994           0
     98250 TIP3     29445    TIP3     H1       HT       0.417000       1.00800           0
     98251 TIP3     29445    TIP3     H2       HT       0.417000       1.00800           0
     98252 TIP3     29446    TIP3     OH2      OT      -0.834000       15.9994           0
     98253 TIP3     29446    TIP3     H1       HT       0.417000       1.00800           0
     98254 TIP3     29446    TIP3     H2       HT       0.417000       1.00800           0
     98255 TIP3     29447    TIP3     OH2      OT      -0.834000       15.9994           0
     98256 TIP3     29447    TIP3     H1       HT       0.417000       1.00800           0
     98257 TIP3     29447    TIP3     H2       HT       0.417000       1.00800           0
     98258 TIP3     29448    TIP3     OH2      OT      -0.834000       15.9994           0
     98259 TIP3     29448    TIP3     H1       HT       0.417000       1.00800           0
     98260 TIP3     29448    TIP3     H2       HT       0.417000       1.00800           0
     98261 TIP3     29449    TIP3     OH2      OT      -0.834000       15.9994           0
     98262 TIP3     29449    TIP3     H1       HT       0.417000       1.00800           0
     98263 TIP3     29449    TIP3     H2       HT       0.417000       1.00800           0
     98264 TIP3     29450    TIP3     OH2      OT      -0.834000       15.9994           0
     98265 TIP3     29450    TIP3     H1       HT       0.417000       1.00800           0
     98266 TIP3     29450    TIP3     H2       HT       0.417000       1.00800           0
     98267 TIP3     29451    TIP3     OH2      OT      -0.834000       15.9994           0
     98268 TIP3     29451    TIP3     H1       HT       0.417000       1.00800           0
     98269 TIP3     29451    TIP3     H2       HT       0.417000       1.00800           0
     98270 TIP3     29452    TIP3     OH2      OT      -0.834000       15.9994           0
     98271 TIP3     29452    TIP3     H1       HT       0.417000       1.00800           0
     98272 TIP3     29452    TIP3     H2       HT       0.417000       1.00800           0
     98273 TIP3     29453    TIP3     OH2      OT      -0.834000       15.9994           0
     98274 TIP3     29453    TIP3     H1       HT       0.417000       1.00800           0
     98275 TIP3     29453    TIP3     H2       HT       0.417000       1.00800           0
     98276 TIP3     29454    TIP3     OH2      OT      -0.834000       15.9994           0
     98277 TIP3     29454    TIP3     H1       HT       0.417000       1.00800           0
     98278 TIP3     29454    TIP3     H2       HT       0.417000       1.00800           0
     98279 TIP3     29455    TIP3     OH2      OT      -0.834000       15.9994           0
     98280 TIP3     29455    TIP3     H1       HT       0.417000       1.00800           0
     98281 TIP3     29455    TIP3     H2       HT       0.417000       1.00800           0
     98282 TIP3     29456    TIP3     OH2      OT      -0.834000       15.9994           0
     98283 TIP3     29456    TIP3     H1       HT       0.417000       1.00800           0
     98284 TIP3     29456    TIP3     H2       HT       0.417000       1.00800           0
     98285 TIP3     29457    TIP3     OH2      OT      -0.834000       15.9994           0
     98286 TIP3     29457    TIP3     H1       HT       0.417000       1.00800           0
     98287 TIP3     29457    TIP3     H2       HT       0.417000       1.00800           0
     98288 TIP3     29458    TIP3     OH2      OT      -0.834000       15.9994           0
     98289 TIP3     29458    TIP3     H1       HT       0.417000       1.00800           0
     98290 TIP3     29458    TIP3     H2       HT       0.417000       1.00800           0
     98291 TIP3     29459    TIP3     OH2      OT      -0.834000       15.9994           0
     98292 TIP3     29459    TIP3     H1       HT       0.417000       1.00800           0
     98293 TIP3     29459    TIP3     H2       HT       0.417000       1.00800           0
     98294 TIP3     29460    TIP3     OH2      OT      -0.834000       15.9994           0
     98295 TIP3     29460    TIP3     H1       HT       0.417000       1.00800           0
     98296 TIP3     29460    TIP3     H2       HT       0.417000       1.00800           0
     98297 TIP3     29461    TIP3     OH2      OT      -0.834000       15.9994           0
     98298 TIP3     29461    TIP3     H1       HT       0.417000       1.00800           0
     98299 TIP3     29461    TIP3     H2       HT       0.417000       1.00800           0
     98300 TIP3     29462    TIP3     OH2      OT      -0.834000       15.9994           0
     98301 TIP3     29462    TIP3     H1       HT       0.417000       1.00800           0
     98302 TIP3     29462    TIP3     H2       HT       0.417000       1.00800           0
     98303 TIP3     29463    TIP3     OH2      OT      -0.834000       15.9994           0
     98304 TIP3     29463    TIP3     H1       HT       0.417000       1.00800           0
     98305 TIP3     29463    TIP3     H2       HT       0.417000       1.00800           0
     98306 TIP3     29464    TIP3     OH2      OT      -0.834000       15.9994           0
     98307 TIP3     29464    TIP3     H1       HT       0.417000       1.00800           0
     98308 TIP3     29464    TIP3     H2       HT       0.417000       1.00800           0
     98309 TIP3     29465    TIP3     OH2      OT      -0.834000       15.9994           0
     98310 TIP3     29465    TIP3     H1       HT       0.417000       1.00800           0
     98311 TIP3     29465    TIP3     H2       HT       0.417000       1.00800           0
     98312 TIP3     29466    TIP3     OH2      OT      -0.834000       15.9994           0
     98313 TIP3     29466    TIP3     H1       HT       0.417000       1.00800           0
     98314 TIP3     29466    TIP3     H2       HT       0.417000       1.00800           0
     98315 TIP3     29467    TIP3     OH2      OT      -0.834000       15.9994           0
     98316 TIP3     29467    TIP3     H1       HT       0.417000       1.00800           0
     98317 TIP3     29467    TIP3     H2       HT       0.417000       1.00800           0
     98318 TIP3     29468    TIP3     OH2      OT      -0.834000       15.9994           0
     98319 TIP3     29468    TIP3     H1       HT       0.417000       1.00800           0
     98320 TIP3     29468    TIP3     H2       HT       0.417000       1.00800           0
     98321 TIP3     29469    TIP3     OH2      OT      -0.834000       15.9994           0
     98322 TIP3     29469    TIP3     H1       HT       0.417000       1.00800           0
     98323 TIP3     29469    TIP3     H2       HT       0.417000       1.00800           0
     98324 TIP3     29470    TIP3     OH2      OT      -0.834000       15.9994           0
     98325 TIP3     29470    TIP3     H1       HT       0.417000       1.00800           0
     98326 TIP3     29470    TIP3     H2       HT       0.417000       1.00800           0
     98327 TIP3     29471    TIP3     OH2      OT      -0.834000       15.9994           0
     98328 TIP3     29471    TIP3     H1       HT       0.417000       1.00800           0
     98329 TIP3     29471    TIP3     H2       HT       0.417000       1.00800           0
     98330 TIP3     29472    TIP3     OH2      OT      -0.834000       15.9994           0
     98331 TIP3     29472    TIP3     H1       HT       0.417000       1.00800           0
     98332 TIP3     29472    TIP3     H2       HT       0.417000       1.00800           0
     98333 TIP3     29473    TIP3     OH2      OT      -0.834000       15.9994           0
     98334 TIP3     29473    TIP3     H1       HT       0.417000       1.00800           0
     98335 TIP3     29473    TIP3     H2       HT       0.417000       1.00800           0
     98336 TIP3     29474    TIP3     OH2      OT      -0.834000       15.9994           0
     98337 TIP3     29474    TIP3     H1       HT       0.417000       1.00800           0
     98338 TIP3     29474    TIP3     H2       HT       0.417000       1.00800           0
     98339 TIP3     29475    TIP3     OH2      OT      -0.834000       15.9994           0
     98340 TIP3     29475    TIP3     H1       HT       0.417000       1.00800           0
     98341 TIP3     29475    TIP3     H2       HT       0.417000       1.00800           0
     98342 TIP3     29476    TIP3     OH2      OT      -0.834000       15.9994           0
     98343 TIP3     29476    TIP3     H1       HT       0.417000       1.00800           0
     98344 TIP3     29476    TIP3     H2       HT       0.417000       1.00800           0
     98345 TIP3     29477    TIP3     OH2      OT      -0.834000       15.9994           0
     98346 TIP3     29477    TIP3     H1       HT       0.417000       1.00800           0
     98347 TIP3     29477    TIP3     H2       HT       0.417000       1.00800           0
     98348 TIP3     29478    TIP3     OH2      OT      -0.834000       15.9994           0
     98349 TIP3     29478    TIP3     H1       HT       0.417000       1.00800           0
     98350 TIP3     29478    TIP3     H2       HT       0.417000       1.00800           0
     98351 TIP3     29479    TIP3     OH2      OT      -0.834000       15.9994           0
     98352 TIP3     29479    TIP3     H1       HT       0.417000       1.00800           0
     98353 TIP3     29479    TIP3     H2       HT       0.417000       1.00800           0
     98354 TIP3     29480    TIP3     OH2      OT      -0.834000       15.9994           0
     98355 TIP3     29480    TIP3     H1       HT       0.417000       1.00800           0
     98356 TIP3     29480    TIP3     H2       HT       0.417000       1.00800           0
     98357 TIP3     29481    TIP3     OH2      OT      -0.834000       15.9994           0
     98358 TIP3     29481    TIP3     H1       HT       0.417000       1.00800           0
     98359 TIP3     29481    TIP3     H2       HT       0.417000       1.00800           0
     98360 TIP3     29482    TIP3     OH2      OT      -0.834000       15.9994           0
     98361 TIP3     29482    TIP3     H1       HT       0.417000       1.00800           0
     98362 TIP3     29482    TIP3     H2       HT       0.417000       1.00800           0
     98363 TIP3     29483    TIP3     OH2      OT      -0.834000       15.9994           0
     98364 TIP3     29483    TIP3     H1       HT       0.417000       1.00800           0
     98365 TIP3     29483    TIP3     H2       HT       0.417000       1.00800           0
     98366 TIP3     29484    TIP3     OH2      OT      -0.834000       15.9994           0
     98367 TIP3     29484    TIP3     H1       HT       0.417000       1.00800           0
     98368 TIP3     29484    TIP3     H2       HT       0.417000       1.00800           0
     98369 TIP3     29485    TIP3     OH2      OT      -0.834000       15.9994           0
     98370 TIP3     29485    TIP3     H1       HT       0.417000       1.00800           0
     98371 TIP3     29485    TIP3     H2       HT       0.417000       1.00800           0
     98372 TIP3     29486    TIP3     OH2      OT      -0.834000       15.9994           0
     98373 TIP3     29486    TIP3     H1       HT       0.417000       1.00800           0
     98374 TIP3     29486    TIP3     H2       HT       0.417000       1.00800           0
     98375 TIP3     29487    TIP3     OH2      OT      -0.834000       15.9994           0
     98376 TIP3     29487    TIP3     H1       HT       0.417000       1.00800           0
     98377 TIP3     29487    TIP3     H2       HT       0.417000       1.00800           0
     98378 TIP3     29488    TIP3     OH2      OT      -0.834000       15.9994           0
     98379 TIP3     29488    TIP3     H1       HT       0.417000       1.00800           0
     98380 TIP3     29488    TIP3     H2       HT       0.417000       1.00800           0
     98381 TIP3     29489    TIP3     OH2      OT      -0.834000       15.9994           0
     98382 TIP3     29489    TIP3     H1       HT       0.417000       1.00800           0
     98383 TIP3     29489    TIP3     H2       HT       0.417000       1.00800           0
     98384 TIP3     29490    TIP3     OH2      OT      -0.834000       15.9994           0
     98385 TIP3     29490    TIP3     H1       HT       0.417000       1.00800           0
     98386 TIP3     29490    TIP3     H2       HT       0.417000       1.00800           0
     98387 TIP3     29491    TIP3     OH2      OT      -0.834000       15.9994           0
     98388 TIP3     29491    TIP3     H1       HT       0.417000       1.00800           0
     98389 TIP3     29491    TIP3     H2       HT       0.417000       1.00800           0
     98390 TIP3     29492    TIP3     OH2      OT      -0.834000       15.9994           0
     98391 TIP3     29492    TIP3     H1       HT       0.417000       1.00800           0
     98392 TIP3     29492    TIP3     H2       HT       0.417000       1.00800           0
     98393 TIP3     29493    TIP3     OH2      OT      -0.834000       15.9994           0
     98394 TIP3     29493    TIP3     H1       HT       0.417000       1.00800           0
     98395 TIP3     29493    TIP3     H2       HT       0.417000       1.00800           0
     98396 TIP3     29494    TIP3     OH2      OT      -0.834000       15.9994           0
     98397 TIP3     29494    TIP3     H1       HT       0.417000       1.00800           0
     98398 TIP3     29494    TIP3     H2       HT       0.417000       1.00800           0
     98399 TIP3     29495    TIP3     OH2      OT      -0.834000       15.9994           0
     98400 TIP3     29495    TIP3     H1       HT       0.417000       1.00800           0
     98401 TIP3     29495    TIP3     H2       HT       0.417000       1.00800           0
     98402 TIP3     29496    TIP3     OH2      OT      -0.834000       15.9994           0
     98403 TIP3     29496    TIP3     H1       HT       0.417000       1.00800           0
     98404 TIP3     29496    TIP3     H2       HT       0.417000       1.00800           0
     98405 TIP3     29497    TIP3     OH2      OT      -0.834000       15.9994           0
     98406 TIP3     29497    TIP3     H1       HT       0.417000       1.00800           0
     98407 TIP3     29497    TIP3     H2       HT       0.417000       1.00800           0
     98408 TIP3     29498    TIP3     OH2      OT      -0.834000       15.9994           0
     98409 TIP3     29498    TIP3     H1       HT       0.417000       1.00800           0
     98410 TIP3     29498    TIP3     H2       HT       0.417000       1.00800           0
     98411 TIP3     29499    TIP3     OH2      OT      -0.834000       15.9994           0
     98412 TIP3     29499    TIP3     H1       HT       0.417000       1.00800           0
     98413 TIP3     29499    TIP3     H2       HT       0.417000       1.00800           0
     98414 TIP3     29500    TIP3     OH2      OT      -0.834000       15.9994           0
     98415 TIP3     29500    TIP3     H1       HT       0.417000       1.00800           0
     98416 TIP3     29500    TIP3     H2       HT       0.417000       1.00800           0
     98417 TIP3     29501    TIP3     OH2      OT      -0.834000       15.9994           0
     98418 TIP3     29501    TIP3     H1       HT       0.417000       1.00800           0
     98419 TIP3     29501    TIP3     H2       HT       0.417000       1.00800           0
     98420 TIP3     29502    TIP3     OH2      OT      -0.834000       15.9994           0
     98421 TIP3     29502    TIP3     H1       HT       0.417000       1.00800           0
     98422 TIP3     29502    TIP3     H2       HT       0.417000       1.00800           0
     98423 TIP3     29503    TIP3     OH2      OT      -0.834000       15.9994           0
     98424 TIP3     29503    TIP3     H1       HT       0.417000       1.00800           0
     98425 TIP3     29503    TIP3     H2       HT       0.417000       1.00800           0
     98426 TIP3     29504    TIP3     OH2      OT      -0.834000       15.9994           0
     98427 TIP3     29504    TIP3     H1       HT       0.417000       1.00800           0
     98428 TIP3     29504    TIP3     H2       HT       0.417000       1.00800           0
     98429 TIP3     29505    TIP3     OH2      OT      -0.834000       15.9994           0
     98430 TIP3     29505    TIP3     H1       HT       0.417000       1.00800           0
     98431 TIP3     29505    TIP3     H2       HT       0.417000       1.00800           0
     98432 TIP3     29506    TIP3     OH2      OT      -0.834000       15.9994           0
     98433 TIP3     29506    TIP3     H1       HT       0.417000       1.00800           0
     98434 TIP3     29506    TIP3     H2       HT       0.417000       1.00800           0
     98435 TIP3     29507    TIP3     OH2      OT      -0.834000       15.9994           0
     98436 TIP3     29507    TIP3     H1       HT       0.417000       1.00800           0
     98437 TIP3     29507    TIP3     H2       HT       0.417000       1.00800           0
     98438 TIP3     29508    TIP3     OH2      OT      -0.834000       15.9994           0
     98439 TIP3     29508    TIP3     H1       HT       0.417000       1.00800           0
     98440 TIP3     29508    TIP3     H2       HT       0.417000       1.00800           0
     98441 TIP3     29509    TIP3     OH2      OT      -0.834000       15.9994           0
     98442 TIP3     29509    TIP3     H1       HT       0.417000       1.00800           0
     98443 TIP3     29509    TIP3     H2       HT       0.417000       1.00800           0
     98444 TIP3     29510    TIP3     OH2      OT      -0.834000       15.9994           0
     98445 TIP3     29510    TIP3     H1       HT       0.417000       1.00800           0
     98446 TIP3     29510    TIP3     H2       HT       0.417000       1.00800           0
     98447 TIP3     29511    TIP3     OH2      OT      -0.834000       15.9994           0
     98448 TIP3     29511    TIP3     H1       HT       0.417000       1.00800           0
     98449 TIP3     29511    TIP3     H2       HT       0.417000       1.00800           0
     98450 TIP3     29512    TIP3     OH2      OT      -0.834000       15.9994           0
     98451 TIP3     29512    TIP3     H1       HT       0.417000       1.00800           0
     98452 TIP3     29512    TIP3     H2       HT       0.417000       1.00800           0
     98453 TIP3     29513    TIP3     OH2      OT      -0.834000       15.9994           0
     98454 TIP3     29513    TIP3     H1       HT       0.417000       1.00800           0
     98455 TIP3     29513    TIP3     H2       HT       0.417000       1.00800           0
     98456 TIP3     29514    TIP3     OH2      OT      -0.834000       15.9994           0
     98457 TIP3     29514    TIP3     H1       HT       0.417000       1.00800           0
     98458 TIP3     29514    TIP3     H2       HT       0.417000       1.00800           0
     98459 TIP3     29515    TIP3     OH2      OT      -0.834000       15.9994           0
     98460 TIP3     29515    TIP3     H1       HT       0.417000       1.00800           0
     98461 TIP3     29515    TIP3     H2       HT       0.417000       1.00800           0
     98462 TIP3     29516    TIP3     OH2      OT      -0.834000       15.9994           0
     98463 TIP3     29516    TIP3     H1       HT       0.417000       1.00800           0
     98464 TIP3     29516    TIP3     H2       HT       0.417000       1.00800           0
     98465 TIP3     29517    TIP3     OH2      OT      -0.834000       15.9994           0
     98466 TIP3     29517    TIP3     H1       HT       0.417000       1.00800           0
     98467 TIP3     29517    TIP3     H2       HT       0.417000       1.00800           0
     98468 TIP3     29518    TIP3     OH2      OT      -0.834000       15.9994           0
     98469 TIP3     29518    TIP3     H1       HT       0.417000       1.00800           0
     98470 TIP3     29518    TIP3     H2       HT       0.417000       1.00800           0
     98471 TIP3     29519    TIP3     OH2      OT      -0.834000       15.9994           0
     98472 TIP3     29519    TIP3     H1       HT       0.417000       1.00800           0
     98473 TIP3     29519    TIP3     H2       HT       0.417000       1.00800           0
     98474 TIP3     29520    TIP3     OH2      OT      -0.834000       15.9994           0
     98475 TIP3     29520    TIP3     H1       HT       0.417000       1.00800           0
     98476 TIP3     29520    TIP3     H2       HT       0.417000       1.00800           0
     98477 TIP3     29521    TIP3     OH2      OT      -0.834000       15.9994           0
     98478 TIP3     29521    TIP3     H1       HT       0.417000       1.00800           0
     98479 TIP3     29521    TIP3     H2       HT       0.417000       1.00800           0
     98480 TIP3     29522    TIP3     OH2      OT      -0.834000       15.9994           0
     98481 TIP3     29522    TIP3     H1       HT       0.417000       1.00800           0
     98482 TIP3     29522    TIP3     H2       HT       0.417000       1.00800           0
     98483 TIP3     29523    TIP3     OH2      OT      -0.834000       15.9994           0
     98484 TIP3     29523    TIP3     H1       HT       0.417000       1.00800           0
     98485 TIP3     29523    TIP3     H2       HT       0.417000       1.00800           0
     98486 TIP3     29524    TIP3     OH2      OT      -0.834000       15.9994           0
     98487 TIP3     29524    TIP3     H1       HT       0.417000       1.00800           0
     98488 TIP3     29524    TIP3     H2       HT       0.417000       1.00800           0
     98489 TIP3     29525    TIP3     OH2      OT      -0.834000       15.9994           0
     98490 TIP3     29525    TIP3     H1       HT       0.417000       1.00800           0
     98491 TIP3     29525    TIP3     H2       HT       0.417000       1.00800           0
     98492 TIP3     29526    TIP3     OH2      OT      -0.834000       15.9994           0
     98493 TIP3     29526    TIP3     H1       HT       0.417000       1.00800           0
     98494 TIP3     29526    TIP3     H2       HT       0.417000       1.00800           0
     98495 TIP3     29527    TIP3     OH2      OT      -0.834000       15.9994           0
     98496 TIP3     29527    TIP3     H1       HT       0.417000       1.00800           0
     98497 TIP3     29527    TIP3     H2       HT       0.417000       1.00800           0
     98498 TIP3     29528    TIP3     OH2      OT      -0.834000       15.9994           0
     98499 TIP3     29528    TIP3     H1       HT       0.417000       1.00800           0
     98500 TIP3     29528    TIP3     H2       HT       0.417000       1.00800           0
     98501 TIP3     29529    TIP3     OH2      OT      -0.834000       15.9994           0
     98502 TIP3     29529    TIP3     H1       HT       0.417000       1.00800           0
     98503 TIP3     29529    TIP3     H2       HT       0.417000       1.00800           0
     98504 TIP3     29530    TIP3     OH2      OT      -0.834000       15.9994           0
     98505 TIP3     29530    TIP3     H1       HT       0.417000       1.00800           0
     98506 TIP3     29530    TIP3     H2       HT       0.417000       1.00800           0
     98507 TIP3     29531    TIP3     OH2      OT      -0.834000       15.9994           0
     98508 TIP3     29531    TIP3     H1       HT       0.417000       1.00800           0
     98509 TIP3     29531    TIP3     H2       HT       0.417000       1.00800           0
     98510 TIP3     29532    TIP3     OH2      OT      -0.834000       15.9994           0
     98511 TIP3     29532    TIP3     H1       HT       0.417000       1.00800           0
     98512 TIP3     29532    TIP3     H2       HT       0.417000       1.00800           0
     98513 TIP3     29533    TIP3     OH2      OT      -0.834000       15.9994           0
     98514 TIP3     29533    TIP3     H1       HT       0.417000       1.00800           0
     98515 TIP3     29533    TIP3     H2       HT       0.417000       1.00800           0
     98516 TIP3     29534    TIP3     OH2      OT      -0.834000       15.9994           0
     98517 TIP3     29534    TIP3     H1       HT       0.417000       1.00800           0
     98518 TIP3     29534    TIP3     H2       HT       0.417000       1.00800           0
     98519 TIP3     29535    TIP3     OH2      OT      -0.834000       15.9994           0
     98520 TIP3     29535    TIP3     H1       HT       0.417000       1.00800           0
     98521 TIP3     29535    TIP3     H2       HT       0.417000       1.00800           0
     98522 TIP3     29536    TIP3     OH2      OT      -0.834000       15.9994           0
     98523 TIP3     29536    TIP3     H1       HT       0.417000       1.00800           0
     98524 TIP3     29536    TIP3     H2       HT       0.417000       1.00800           0
     98525 TIP3     29537    TIP3     OH2      OT      -0.834000       15.9994           0
     98526 TIP3     29537    TIP3     H1       HT       0.417000       1.00800           0
     98527 TIP3     29537    TIP3     H2       HT       0.417000       1.00800           0
     98528 TIP3     29538    TIP3     OH2      OT      -0.834000       15.9994           0
     98529 TIP3     29538    TIP3     H1       HT       0.417000       1.00800           0
     98530 TIP3     29538    TIP3     H2       HT       0.417000       1.00800           0
     98531 TIP3     29539    TIP3     OH2      OT      -0.834000       15.9994           0
     98532 TIP3     29539    TIP3     H1       HT       0.417000       1.00800           0
     98533 TIP3     29539    TIP3     H2       HT       0.417000       1.00800           0
     98534 TIP3     29540    TIP3     OH2      OT      -0.834000       15.9994           0
     98535 TIP3     29540    TIP3     H1       HT       0.417000       1.00800           0
     98536 TIP3     29540    TIP3     H2       HT       0.417000       1.00800           0
     98537 TIP3     29541    TIP3     OH2      OT      -0.834000       15.9994           0
     98538 TIP3     29541    TIP3     H1       HT       0.417000       1.00800           0
     98539 TIP3     29541    TIP3     H2       HT       0.417000       1.00800           0
     98540 TIP3     29542    TIP3     OH2      OT      -0.834000       15.9994           0
     98541 TIP3     29542    TIP3     H1       HT       0.417000       1.00800           0
     98542 TIP3     29542    TIP3     H2       HT       0.417000       1.00800           0
     98543 TIP3     29543    TIP3     OH2      OT      -0.834000       15.9994           0
     98544 TIP3     29543    TIP3     H1       HT       0.417000       1.00800           0
     98545 TIP3     29543    TIP3     H2       HT       0.417000       1.00800           0
     98546 TIP3     29544    TIP3     OH2      OT      -0.834000       15.9994           0
     98547 TIP3     29544    TIP3     H1       HT       0.417000       1.00800           0
     98548 TIP3     29544    TIP3     H2       HT       0.417000       1.00800           0
     98549 TIP3     29545    TIP3     OH2      OT      -0.834000       15.9994           0
     98550 TIP3     29545    TIP3     H1       HT       0.417000       1.00800           0
     98551 TIP3     29545    TIP3     H2       HT       0.417000       1.00800           0
     98552 TIP3     29546    TIP3     OH2      OT      -0.834000       15.9994           0
     98553 TIP3     29546    TIP3     H1       HT       0.417000       1.00800           0
     98554 TIP3     29546    TIP3     H2       HT       0.417000       1.00800           0
     98555 TIP3     29547    TIP3     OH2      OT      -0.834000       15.9994           0
     98556 TIP3     29547    TIP3     H1       HT       0.417000       1.00800           0
     98557 TIP3     29547    TIP3     H2       HT       0.417000       1.00800           0
     98558 TIP3     29548    TIP3     OH2      OT      -0.834000       15.9994           0
     98559 TIP3     29548    TIP3     H1       HT       0.417000       1.00800           0
     98560 TIP3     29548    TIP3     H2       HT       0.417000       1.00800           0
     98561 TIP3     29549    TIP3     OH2      OT      -0.834000       15.9994           0
     98562 TIP3     29549    TIP3     H1       HT       0.417000       1.00800           0
     98563 TIP3     29549    TIP3     H2       HT       0.417000       1.00800           0
     98564 TIP3     29550    TIP3     OH2      OT      -0.834000       15.9994           0
     98565 TIP3     29550    TIP3     H1       HT       0.417000       1.00800           0
     98566 TIP3     29550    TIP3     H2       HT       0.417000       1.00800           0
     98567 TIP3     29551    TIP3     OH2      OT      -0.834000       15.9994           0
     98568 TIP3     29551    TIP3     H1       HT       0.417000       1.00800           0
     98569 TIP3     29551    TIP3     H2       HT       0.417000       1.00800           0
     98570 TIP3     29552    TIP3     OH2      OT      -0.834000       15.9994           0
     98571 TIP3     29552    TIP3     H1       HT       0.417000       1.00800           0
     98572 TIP3     29552    TIP3     H2       HT       0.417000       1.00800           0
     98573 TIP3     29553    TIP3     OH2      OT      -0.834000       15.9994           0
     98574 TIP3     29553    TIP3     H1       HT       0.417000       1.00800           0
     98575 TIP3     29553    TIP3     H2       HT       0.417000       1.00800           0
     98576 TIP3     29554    TIP3     OH2      OT      -0.834000       15.9994           0
     98577 TIP3     29554    TIP3     H1       HT       0.417000       1.00800           0
     98578 TIP3     29554    TIP3     H2       HT       0.417000       1.00800           0
     98579 TIP3     29555    TIP3     OH2      OT      -0.834000       15.9994           0
     98580 TIP3     29555    TIP3     H1       HT       0.417000       1.00800           0
     98581 TIP3     29555    TIP3     H2       HT       0.417000       1.00800           0
     98582 TIP3     29556    TIP3     OH2      OT      -0.834000       15.9994           0
     98583 TIP3     29556    TIP3     H1       HT       0.417000       1.00800           0
     98584 TIP3     29556    TIP3     H2       HT       0.417000       1.00800           0
     98585 TIP3     29557    TIP3     OH2      OT      -0.834000       15.9994           0
     98586 TIP3     29557    TIP3     H1       HT       0.417000       1.00800           0
     98587 TIP3     29557    TIP3     H2       HT       0.417000       1.00800           0
     98588 TIP3     29558    TIP3     OH2      OT      -0.834000       15.9994           0
     98589 TIP3     29558    TIP3     H1       HT       0.417000       1.00800           0
     98590 TIP3     29558    TIP3     H2       HT       0.417000       1.00800           0
     98591 TIP3     29559    TIP3     OH2      OT      -0.834000       15.9994           0
     98592 TIP3     29559    TIP3     H1       HT       0.417000       1.00800           0
     98593 TIP3     29559    TIP3     H2       HT       0.417000       1.00800           0
     98594 TIP3     29560    TIP3     OH2      OT      -0.834000       15.9994           0
     98595 TIP3     29560    TIP3     H1       HT       0.417000       1.00800           0
     98596 TIP3     29560    TIP3     H2       HT       0.417000       1.00800           0
     98597 TIP3     29561    TIP3     OH2      OT      -0.834000       15.9994           0
     98598 TIP3     29561    TIP3     H1       HT       0.417000       1.00800           0
     98599 TIP3     29561    TIP3     H2       HT       0.417000       1.00800           0
     98600 TIP3     29562    TIP3     OH2      OT      -0.834000       15.9994           0
     98601 TIP3     29562    TIP3     H1       HT       0.417000       1.00800           0
     98602 TIP3     29562    TIP3     H2       HT       0.417000       1.00800           0
     98603 TIP3     29563    TIP3     OH2      OT      -0.834000       15.9994           0
     98604 TIP3     29563    TIP3     H1       HT       0.417000       1.00800           0
     98605 TIP3     29563    TIP3     H2       HT       0.417000       1.00800           0
     98606 TIP3     29564    TIP3     OH2      OT      -0.834000       15.9994           0
     98607 TIP3     29564    TIP3     H1       HT       0.417000       1.00800           0
     98608 TIP3     29564    TIP3     H2       HT       0.417000       1.00800           0
     98609 TIP3     29565    TIP3     OH2      OT      -0.834000       15.9994           0
     98610 TIP3     29565    TIP3     H1       HT       0.417000       1.00800           0
     98611 TIP3     29565    TIP3     H2       HT       0.417000       1.00800           0
     98612 TIP3     29566    TIP3     OH2      OT      -0.834000       15.9994           0
     98613 TIP3     29566    TIP3     H1       HT       0.417000       1.00800           0
     98614 TIP3     29566    TIP3     H2       HT       0.417000       1.00800           0
     98615 TIP3     29567    TIP3     OH2      OT      -0.834000       15.9994           0
     98616 TIP3     29567    TIP3     H1       HT       0.417000       1.00800           0
     98617 TIP3     29567    TIP3     H2       HT       0.417000       1.00800           0
     98618 TIP3     29568    TIP3     OH2      OT      -0.834000       15.9994           0
     98619 TIP3     29568    TIP3     H1       HT       0.417000       1.00800           0
     98620 TIP3     29568    TIP3     H2       HT       0.417000       1.00800           0
     98621 TIP3     29569    TIP3     OH2      OT      -0.834000       15.9994           0
     98622 TIP3     29569    TIP3     H1       HT       0.417000       1.00800           0
     98623 TIP3     29569    TIP3     H2       HT       0.417000       1.00800           0
     98624 TIP3     29570    TIP3     OH2      OT      -0.834000       15.9994           0
     98625 TIP3     29570    TIP3     H1       HT       0.417000       1.00800           0
     98626 TIP3     29570    TIP3     H2       HT       0.417000       1.00800           0
     98627 TIP3     29571    TIP3     OH2      OT      -0.834000       15.9994           0
     98628 TIP3     29571    TIP3     H1       HT       0.417000       1.00800           0
     98629 TIP3     29571    TIP3     H2       HT       0.417000       1.00800           0
     98630 TIP3     29572    TIP3     OH2      OT      -0.834000       15.9994           0
     98631 TIP3     29572    TIP3     H1       HT       0.417000       1.00800           0
     98632 TIP3     29572    TIP3     H2       HT       0.417000       1.00800           0
     98633 TIP3     29573    TIP3     OH2      OT      -0.834000       15.9994           0
     98634 TIP3     29573    TIP3     H1       HT       0.417000       1.00800           0
     98635 TIP3     29573    TIP3     H2       HT       0.417000       1.00800           0
     98636 TIP3     29574    TIP3     OH2      OT      -0.834000       15.9994           0
     98637 TIP3     29574    TIP3     H1       HT       0.417000       1.00800           0
     98638 TIP3     29574    TIP3     H2       HT       0.417000       1.00800           0
     98639 TIP3     29575    TIP3     OH2      OT      -0.834000       15.9994           0
     98640 TIP3     29575    TIP3     H1       HT       0.417000       1.00800           0
     98641 TIP3     29575    TIP3     H2       HT       0.417000       1.00800           0
     98642 TIP3     29576    TIP3     OH2      OT      -0.834000       15.9994           0
     98643 TIP3     29576    TIP3     H1       HT       0.417000       1.00800           0
     98644 TIP3     29576    TIP3     H2       HT       0.417000       1.00800           0
     98645 TIP3     29577    TIP3     OH2      OT      -0.834000       15.9994           0
     98646 TIP3     29577    TIP3     H1       HT       0.417000       1.00800           0
     98647 TIP3     29577    TIP3     H2       HT       0.417000       1.00800           0
     98648 TIP3     29578    TIP3     OH2      OT      -0.834000       15.9994           0
     98649 TIP3     29578    TIP3     H1       HT       0.417000       1.00800           0
     98650 TIP3     29578    TIP3     H2       HT       0.417000       1.00800           0
     98651 TIP3     29579    TIP3     OH2      OT      -0.834000       15.9994           0
     98652 TIP3     29579    TIP3     H1       HT       0.417000       1.00800           0
     98653 TIP3     29579    TIP3     H2       HT       0.417000       1.00800           0
     98654 TIP3     29580    TIP3     OH2      OT      -0.834000       15.9994           0
     98655 TIP3     29580    TIP3     H1       HT       0.417000       1.00800           0
     98656 TIP3     29580    TIP3     H2       HT       0.417000       1.00800           0
     98657 TIP3     29581    TIP3     OH2      OT      -0.834000       15.9994           0
     98658 TIP3     29581    TIP3     H1       HT       0.417000       1.00800           0
     98659 TIP3     29581    TIP3     H2       HT       0.417000       1.00800           0
     98660 TIP3     29582    TIP3     OH2      OT      -0.834000       15.9994           0
     98661 TIP3     29582    TIP3     H1       HT       0.417000       1.00800           0
     98662 TIP3     29582    TIP3     H2       HT       0.417000       1.00800           0
     98663 TIP3     29583    TIP3     OH2      OT      -0.834000       15.9994           0
     98664 TIP3     29583    TIP3     H1       HT       0.417000       1.00800           0
     98665 TIP3     29583    TIP3     H2       HT       0.417000       1.00800           0
     98666 TIP3     29584    TIP3     OH2      OT      -0.834000       15.9994           0
     98667 TIP3     29584    TIP3     H1       HT       0.417000       1.00800           0
     98668 TIP3     29584    TIP3     H2       HT       0.417000       1.00800           0
     98669 TIP3     29585    TIP3     OH2      OT      -0.834000       15.9994           0
     98670 TIP3     29585    TIP3     H1       HT       0.417000       1.00800           0
     98671 TIP3     29585    TIP3     H2       HT       0.417000       1.00800           0
     98672 TIP3     29586    TIP3     OH2      OT      -0.834000       15.9994           0
     98673 TIP3     29586    TIP3     H1       HT       0.417000       1.00800           0
     98674 TIP3     29586    TIP3     H2       HT       0.417000       1.00800           0
     98675 TIP3     29587    TIP3     OH2      OT      -0.834000       15.9994           0
     98676 TIP3     29587    TIP3     H1       HT       0.417000       1.00800           0
     98677 TIP3     29587    TIP3     H2       HT       0.417000       1.00800           0
     98678 TIP3     29588    TIP3     OH2      OT      -0.834000       15.9994           0
     98679 TIP3     29588    TIP3     H1       HT       0.417000       1.00800           0
     98680 TIP3     29588    TIP3     H2       HT       0.417000       1.00800           0
     98681 TIP3     29589    TIP3     OH2      OT      -0.834000       15.9994           0
     98682 TIP3     29589    TIP3     H1       HT       0.417000       1.00800           0
     98683 TIP3     29589    TIP3     H2       HT       0.417000       1.00800           0
     98684 TIP3     29590    TIP3     OH2      OT      -0.834000       15.9994           0
     98685 TIP3     29590    TIP3     H1       HT       0.417000       1.00800           0
     98686 TIP3     29590    TIP3     H2       HT       0.417000       1.00800           0
     98687 TIP3     29591    TIP3     OH2      OT      -0.834000       15.9994           0
     98688 TIP3     29591    TIP3     H1       HT       0.417000       1.00800           0
     98689 TIP3     29591    TIP3     H2       HT       0.417000       1.00800           0
     98690 TIP3     29592    TIP3     OH2      OT      -0.834000       15.9994           0
     98691 TIP3     29592    TIP3     H1       HT       0.417000       1.00800           0
     98692 TIP3     29592    TIP3     H2       HT       0.417000       1.00800           0
     98693 TIP3     29593    TIP3     OH2      OT      -0.834000       15.9994           0
     98694 TIP3     29593    TIP3     H1       HT       0.417000       1.00800           0
     98695 TIP3     29593    TIP3     H2       HT       0.417000       1.00800           0
     98696 TIP3     29594    TIP3     OH2      OT      -0.834000       15.9994           0
     98697 TIP3     29594    TIP3     H1       HT       0.417000       1.00800           0
     98698 TIP3     29594    TIP3     H2       HT       0.417000       1.00800           0
     98699 TIP3     29595    TIP3     OH2      OT      -0.834000       15.9994           0
     98700 TIP3     29595    TIP3     H1       HT       0.417000       1.00800           0
     98701 TIP3     29595    TIP3     H2       HT       0.417000       1.00800           0
     98702 TIP3     29596    TIP3     OH2      OT      -0.834000       15.9994           0
     98703 TIP3     29596    TIP3     H1       HT       0.417000       1.00800           0
     98704 TIP3     29596    TIP3     H2       HT       0.417000       1.00800           0
     98705 TIP3     29597    TIP3     OH2      OT      -0.834000       15.9994           0
     98706 TIP3     29597    TIP3     H1       HT       0.417000       1.00800           0
     98707 TIP3     29597    TIP3     H2       HT       0.417000       1.00800           0
     98708 TIP3     29598    TIP3     OH2      OT      -0.834000       15.9994           0
     98709 TIP3     29598    TIP3     H1       HT       0.417000       1.00800           0
     98710 TIP3     29598    TIP3     H2       HT       0.417000       1.00800           0
     98711 TIP3     29599    TIP3     OH2      OT      -0.834000       15.9994           0
     98712 TIP3     29599    TIP3     H1       HT       0.417000       1.00800           0
     98713 TIP3     29599    TIP3     H2       HT       0.417000       1.00800           0
     98714 TIP3     29600    TIP3     OH2      OT      -0.834000       15.9994           0
     98715 TIP3     29600    TIP3     H1       HT       0.417000       1.00800           0
     98716 TIP3     29600    TIP3     H2       HT       0.417000       1.00800           0
     98717 TIP3     29601    TIP3     OH2      OT      -0.834000       15.9994           0
     98718 TIP3     29601    TIP3     H1       HT       0.417000       1.00800           0
     98719 TIP3     29601    TIP3     H2       HT       0.417000       1.00800           0
     98720 TIP3     29602    TIP3     OH2      OT      -0.834000       15.9994           0
     98721 TIP3     29602    TIP3     H1       HT       0.417000       1.00800           0
     98722 TIP3     29602    TIP3     H2       HT       0.417000       1.00800           0
     98723 TIP3     29603    TIP3     OH2      OT      -0.834000       15.9994           0
     98724 TIP3     29603    TIP3     H1       HT       0.417000       1.00800           0
     98725 TIP3     29603    TIP3     H2       HT       0.417000       1.00800           0
     98726 TIP3     29604    TIP3     OH2      OT      -0.834000       15.9994           0
     98727 TIP3     29604    TIP3     H1       HT       0.417000       1.00800           0
     98728 TIP3     29604    TIP3     H2       HT       0.417000       1.00800           0
     98729 TIP3     29605    TIP3     OH2      OT      -0.834000       15.9994           0
     98730 TIP3     29605    TIP3     H1       HT       0.417000       1.00800           0
     98731 TIP3     29605    TIP3     H2       HT       0.417000       1.00800           0
     98732 TIP3     29606    TIP3     OH2      OT      -0.834000       15.9994           0
     98733 TIP3     29606    TIP3     H1       HT       0.417000       1.00800           0
     98734 TIP3     29606    TIP3     H2       HT       0.417000       1.00800           0
     98735 TIP3     29607    TIP3     OH2      OT      -0.834000       15.9994           0
     98736 TIP3     29607    TIP3     H1       HT       0.417000       1.00800           0
     98737 TIP3     29607    TIP3     H2       HT       0.417000       1.00800           0
     98738 TIP3     29608    TIP3     OH2      OT      -0.834000       15.9994           0
     98739 TIP3     29608    TIP3     H1       HT       0.417000       1.00800           0
     98740 TIP3     29608    TIP3     H2       HT       0.417000       1.00800           0
     98741 TIP3     29609    TIP3     OH2      OT      -0.834000       15.9994           0
     98742 TIP3     29609    TIP3     H1       HT       0.417000       1.00800           0
     98743 TIP3     29609    TIP3     H2       HT       0.417000       1.00800           0
     98744 TIP3     29610    TIP3     OH2      OT      -0.834000       15.9994           0
     98745 TIP3     29610    TIP3     H1       HT       0.417000       1.00800           0
     98746 TIP3     29610    TIP3     H2       HT       0.417000       1.00800           0
     98747 TIP3     29611    TIP3     OH2      OT      -0.834000       15.9994           0
     98748 TIP3     29611    TIP3     H1       HT       0.417000       1.00800           0
     98749 TIP3     29611    TIP3     H2       HT       0.417000       1.00800           0
     98750 TIP3     29612    TIP3     OH2      OT      -0.834000       15.9994           0
     98751 TIP3     29612    TIP3     H1       HT       0.417000       1.00800           0
     98752 TIP3     29612    TIP3     H2       HT       0.417000       1.00800           0
     98753 TIP3     29613    TIP3     OH2      OT      -0.834000       15.9994           0
     98754 TIP3     29613    TIP3     H1       HT       0.417000       1.00800           0
     98755 TIP3     29613    TIP3     H2       HT       0.417000       1.00800           0
     98756 TIP3     29614    TIP3     OH2      OT      -0.834000       15.9994           0
     98757 TIP3     29614    TIP3     H1       HT       0.417000       1.00800           0
     98758 TIP3     29614    TIP3     H2       HT       0.417000       1.00800           0
     98759 TIP3     29615    TIP3     OH2      OT      -0.834000       15.9994           0
     98760 TIP3     29615    TIP3     H1       HT       0.417000       1.00800           0
     98761 TIP3     29615    TIP3     H2       HT       0.417000       1.00800           0
     98762 TIP3     29616    TIP3     OH2      OT      -0.834000       15.9994           0
     98763 TIP3     29616    TIP3     H1       HT       0.417000       1.00800           0
     98764 TIP3     29616    TIP3     H2       HT       0.417000       1.00800           0
     98765 TIP3     29617    TIP3     OH2      OT      -0.834000       15.9994           0
     98766 TIP3     29617    TIP3     H1       HT       0.417000       1.00800           0
     98767 TIP3     29617    TIP3     H2       HT       0.417000       1.00800           0
     98768 TIP3     29618    TIP3     OH2      OT      -0.834000       15.9994           0
     98769 TIP3     29618    TIP3     H1       HT       0.417000       1.00800           0
     98770 TIP3     29618    TIP3     H2       HT       0.417000       1.00800           0
     98771 TIP3     29619    TIP3     OH2      OT      -0.834000       15.9994           0
     98772 TIP3     29619    TIP3     H1       HT       0.417000       1.00800           0
     98773 TIP3     29619    TIP3     H2       HT       0.417000       1.00800           0
     98774 TIP3     29620    TIP3     OH2      OT      -0.834000       15.9994           0
     98775 TIP3     29620    TIP3     H1       HT       0.417000       1.00800           0
     98776 TIP3     29620    TIP3     H2       HT       0.417000       1.00800           0
     98777 TIP3     29621    TIP3     OH2      OT      -0.834000       15.9994           0
     98778 TIP3     29621    TIP3     H1       HT       0.417000       1.00800           0
     98779 TIP3     29621    TIP3     H2       HT       0.417000       1.00800           0
     98780 TIP3     29622    TIP3     OH2      OT      -0.834000       15.9994           0
     98781 TIP3     29622    TIP3     H1       HT       0.417000       1.00800           0
     98782 TIP3     29622    TIP3     H2       HT       0.417000       1.00800           0
     98783 TIP3     29623    TIP3     OH2      OT      -0.834000       15.9994           0
     98784 TIP3     29623    TIP3     H1       HT       0.417000       1.00800           0
     98785 TIP3     29623    TIP3     H2       HT       0.417000       1.00800           0
     98786 TIP3     29624    TIP3     OH2      OT      -0.834000       15.9994           0
     98787 TIP3     29624    TIP3     H1       HT       0.417000       1.00800           0
     98788 TIP3     29624    TIP3     H2       HT       0.417000       1.00800           0
     98789 TIP3     29625    TIP3     OH2      OT      -0.834000       15.9994           0
     98790 TIP3     29625    TIP3     H1       HT       0.417000       1.00800           0
     98791 TIP3     29625    TIP3     H2       HT       0.417000       1.00800           0
     98792 TIP3     29626    TIP3     OH2      OT      -0.834000       15.9994           0
     98793 TIP3     29626    TIP3     H1       HT       0.417000       1.00800           0
     98794 TIP3     29626    TIP3     H2       HT       0.417000       1.00800           0
     98795 TIP3     29627    TIP3     OH2      OT      -0.834000       15.9994           0
     98796 TIP3     29627    TIP3     H1       HT       0.417000       1.00800           0
     98797 TIP3     29627    TIP3     H2       HT       0.417000       1.00800           0
     98798 TIP3     29628    TIP3     OH2      OT      -0.834000       15.9994           0
     98799 TIP3     29628    TIP3     H1       HT       0.417000       1.00800           0
     98800 TIP3     29628    TIP3     H2       HT       0.417000       1.00800           0
     98801 TIP3     29629    TIP3     OH2      OT      -0.834000       15.9994           0
     98802 TIP3     29629    TIP3     H1       HT       0.417000       1.00800           0
     98803 TIP3     29629    TIP3     H2       HT       0.417000       1.00800           0
     98804 TIP3     29630    TIP3     OH2      OT      -0.834000       15.9994           0
     98805 TIP3     29630    TIP3     H1       HT       0.417000       1.00800           0
     98806 TIP3     29630    TIP3     H2       HT       0.417000       1.00800           0
     98807 TIP3     29631    TIP3     OH2      OT      -0.834000       15.9994           0
     98808 TIP3     29631    TIP3     H1       HT       0.417000       1.00800           0
     98809 TIP3     29631    TIP3     H2       HT       0.417000       1.00800           0
     98810 TIP3     29632    TIP3     OH2      OT      -0.834000       15.9994           0
     98811 TIP3     29632    TIP3     H1       HT       0.417000       1.00800           0
     98812 TIP3     29632    TIP3     H2       HT       0.417000       1.00800           0
     98813 TIP3     29633    TIP3     OH2      OT      -0.834000       15.9994           0
     98814 TIP3     29633    TIP3     H1       HT       0.417000       1.00800           0
     98815 TIP3     29633    TIP3     H2       HT       0.417000       1.00800           0
     98816 TIP3     29634    TIP3     OH2      OT      -0.834000       15.9994           0
     98817 TIP3     29634    TIP3     H1       HT       0.417000       1.00800           0
     98818 TIP3     29634    TIP3     H2       HT       0.417000       1.00800           0
     98819 TIP3     29635    TIP3     OH2      OT      -0.834000       15.9994           0
     98820 TIP3     29635    TIP3     H1       HT       0.417000       1.00800           0
     98821 TIP3     29635    TIP3     H2       HT       0.417000       1.00800           0
     98822 TIP3     29636    TIP3     OH2      OT      -0.834000       15.9994           0
     98823 TIP3     29636    TIP3     H1       HT       0.417000       1.00800           0
     98824 TIP3     29636    TIP3     H2       HT       0.417000       1.00800           0
     98825 TIP3     29637    TIP3     OH2      OT      -0.834000       15.9994           0
     98826 TIP3     29637    TIP3     H1       HT       0.417000       1.00800           0
     98827 TIP3     29637    TIP3     H2       HT       0.417000       1.00800           0
     98828 TIP3     29638    TIP3     OH2      OT      -0.834000       15.9994           0
     98829 TIP3     29638    TIP3     H1       HT       0.417000       1.00800           0
     98830 TIP3     29638    TIP3     H2       HT       0.417000       1.00800           0
     98831 TIP3     29639    TIP3     OH2      OT      -0.834000       15.9994           0
     98832 TIP3     29639    TIP3     H1       HT       0.417000       1.00800           0
     98833 TIP3     29639    TIP3     H2       HT       0.417000       1.00800           0
     98834 TIP3     29640    TIP3     OH2      OT      -0.834000       15.9994           0
     98835 TIP3     29640    TIP3     H1       HT       0.417000       1.00800           0
     98836 TIP3     29640    TIP3     H2       HT       0.417000       1.00800           0
     98837 TIP3     29641    TIP3     OH2      OT      -0.834000       15.9994           0
     98838 TIP3     29641    TIP3     H1       HT       0.417000       1.00800           0
     98839 TIP3     29641    TIP3     H2       HT       0.417000       1.00800           0
     98840 TIP3     29642    TIP3     OH2      OT      -0.834000       15.9994           0
     98841 TIP3     29642    TIP3     H1       HT       0.417000       1.00800           0
     98842 TIP3     29642    TIP3     H2       HT       0.417000       1.00800           0
     98843 TIP3     29643    TIP3     OH2      OT      -0.834000       15.9994           0
     98844 TIP3     29643    TIP3     H1       HT       0.417000       1.00800           0
     98845 TIP3     29643    TIP3     H2       HT       0.417000       1.00800           0
     98846 TIP3     29644    TIP3     OH2      OT      -0.834000       15.9994           0
     98847 TIP3     29644    TIP3     H1       HT       0.417000       1.00800           0
     98848 TIP3     29644    TIP3     H2       HT       0.417000       1.00800           0
     98849 TIP3     29645    TIP3     OH2      OT      -0.834000       15.9994           0
     98850 TIP3     29645    TIP3     H1       HT       0.417000       1.00800           0
     98851 TIP3     29645    TIP3     H2       HT       0.417000       1.00800           0
     98852 TIP3     29646    TIP3     OH2      OT      -0.834000       15.9994           0
     98853 TIP3     29646    TIP3     H1       HT       0.417000       1.00800           0
     98854 TIP3     29646    TIP3     H2       HT       0.417000       1.00800           0
     98855 TIP3     29647    TIP3     OH2      OT      -0.834000       15.9994           0
     98856 TIP3     29647    TIP3     H1       HT       0.417000       1.00800           0
     98857 TIP3     29647    TIP3     H2       HT       0.417000       1.00800           0
     98858 TIP3     29648    TIP3     OH2      OT      -0.834000       15.9994           0
     98859 TIP3     29648    TIP3     H1       HT       0.417000       1.00800           0
     98860 TIP3     29648    TIP3     H2       HT       0.417000       1.00800           0
     98861 TIP3     29649    TIP3     OH2      OT      -0.834000       15.9994           0
     98862 TIP3     29649    TIP3     H1       HT       0.417000       1.00800           0
     98863 TIP3     29649    TIP3     H2       HT       0.417000       1.00800           0
     98864 TIP3     29650    TIP3     OH2      OT      -0.834000       15.9994           0
     98865 TIP3     29650    TIP3     H1       HT       0.417000       1.00800           0
     98866 TIP3     29650    TIP3     H2       HT       0.417000       1.00800           0
     98867 TIP3     29651    TIP3     OH2      OT      -0.834000       15.9994           0
     98868 TIP3     29651    TIP3     H1       HT       0.417000       1.00800           0
     98869 TIP3     29651    TIP3     H2       HT       0.417000       1.00800           0
     98870 TIP3     29652    TIP3     OH2      OT      -0.834000       15.9994           0
     98871 TIP3     29652    TIP3     H1       HT       0.417000       1.00800           0
     98872 TIP3     29652    TIP3     H2       HT       0.417000       1.00800           0
     98873 TIP3     29653    TIP3     OH2      OT      -0.834000       15.9994           0
     98874 TIP3     29653    TIP3     H1       HT       0.417000       1.00800           0
     98875 TIP3     29653    TIP3     H2       HT       0.417000       1.00800           0
     98876 TIP3     29654    TIP3     OH2      OT      -0.834000       15.9994           0
     98877 TIP3     29654    TIP3     H1       HT       0.417000       1.00800           0
     98878 TIP3     29654    TIP3     H2       HT       0.417000       1.00800           0
     98879 TIP3     29655    TIP3     OH2      OT      -0.834000       15.9994           0
     98880 TIP3     29655    TIP3     H1       HT       0.417000       1.00800           0
     98881 TIP3     29655    TIP3     H2       HT       0.417000       1.00800           0
     98882 TIP3     29656    TIP3     OH2      OT      -0.834000       15.9994           0
     98883 TIP3     29656    TIP3     H1       HT       0.417000       1.00800           0
     98884 TIP3     29656    TIP3     H2       HT       0.417000       1.00800           0
     98885 TIP3     29657    TIP3     OH2      OT      -0.834000       15.9994           0
     98886 TIP3     29657    TIP3     H1       HT       0.417000       1.00800           0
     98887 TIP3     29657    TIP3     H2       HT       0.417000       1.00800           0
     98888 TIP3     29658    TIP3     OH2      OT      -0.834000       15.9994           0
     98889 TIP3     29658    TIP3     H1       HT       0.417000       1.00800           0
     98890 TIP3     29658    TIP3     H2       HT       0.417000       1.00800           0
     98891 TIP3     29659    TIP3     OH2      OT      -0.834000       15.9994           0
     98892 TIP3     29659    TIP3     H1       HT       0.417000       1.00800           0
     98893 TIP3     29659    TIP3     H2       HT       0.417000       1.00800           0
     98894 TIP3     29660    TIP3     OH2      OT      -0.834000       15.9994           0
     98895 TIP3     29660    TIP3     H1       HT       0.417000       1.00800           0
     98896 TIP3     29660    TIP3     H2       HT       0.417000       1.00800           0
     98897 TIP3     29661    TIP3     OH2      OT      -0.834000       15.9994           0
     98898 TIP3     29661    TIP3     H1       HT       0.417000       1.00800           0
     98899 TIP3     29661    TIP3     H2       HT       0.417000       1.00800           0
     98900 TIP3     29662    TIP3     OH2      OT      -0.834000       15.9994           0
     98901 TIP3     29662    TIP3     H1       HT       0.417000       1.00800           0
     98902 TIP3     29662    TIP3     H2       HT       0.417000       1.00800           0
     98903 TIP3     29663    TIP3     OH2      OT      -0.834000       15.9994           0
     98904 TIP3     29663    TIP3     H1       HT       0.417000       1.00800           0
     98905 TIP3     29663    TIP3     H2       HT       0.417000       1.00800           0
     98906 TIP3     29664    TIP3     OH2      OT      -0.834000       15.9994           0
     98907 TIP3     29664    TIP3     H1       HT       0.417000       1.00800           0
     98908 TIP3     29664    TIP3     H2       HT       0.417000       1.00800           0
     98909 TIP3     29665    TIP3     OH2      OT      -0.834000       15.9994           0
     98910 TIP3     29665    TIP3     H1       HT       0.417000       1.00800           0
     98911 TIP3     29665    TIP3     H2       HT       0.417000       1.00800           0
     98912 TIP3     29666    TIP3     OH2      OT      -0.834000       15.9994           0
     98913 TIP3     29666    TIP3     H1       HT       0.417000       1.00800           0
     98914 TIP3     29666    TIP3     H2       HT       0.417000       1.00800           0
     98915 TIP3     29667    TIP3     OH2      OT      -0.834000       15.9994           0
     98916 TIP3     29667    TIP3     H1       HT       0.417000       1.00800           0
     98917 TIP3     29667    TIP3     H2       HT       0.417000       1.00800           0
     98918 TIP3     29668    TIP3     OH2      OT      -0.834000       15.9994           0
     98919 TIP3     29668    TIP3     H1       HT       0.417000       1.00800           0
     98920 TIP3     29668    TIP3     H2       HT       0.417000       1.00800           0
     98921 TIP3     29669    TIP3     OH2      OT      -0.834000       15.9994           0
     98922 TIP3     29669    TIP3     H1       HT       0.417000       1.00800           0
     98923 TIP3     29669    TIP3     H2       HT       0.417000       1.00800           0
     98924 TIP3     29670    TIP3     OH2      OT      -0.834000       15.9994           0
     98925 TIP3     29670    TIP3     H1       HT       0.417000       1.00800           0
     98926 TIP3     29670    TIP3     H2       HT       0.417000       1.00800           0
     98927 TIP3     29671    TIP3     OH2      OT      -0.834000       15.9994           0
     98928 TIP3     29671    TIP3     H1       HT       0.417000       1.00800           0
     98929 TIP3     29671    TIP3     H2       HT       0.417000       1.00800           0
     98930 TIP3     29672    TIP3     OH2      OT      -0.834000       15.9994           0
     98931 TIP3     29672    TIP3     H1       HT       0.417000       1.00800           0
     98932 TIP3     29672    TIP3     H2       HT       0.417000       1.00800           0
     98933 TIP3     29673    TIP3     OH2      OT      -0.834000       15.9994           0
     98934 TIP3     29673    TIP3     H1       HT       0.417000       1.00800           0
     98935 TIP3     29673    TIP3     H2       HT       0.417000       1.00800           0
     98936 TIP3     29674    TIP3     OH2      OT      -0.834000       15.9994           0
     98937 TIP3     29674    TIP3     H1       HT       0.417000       1.00800           0
     98938 TIP3     29674    TIP3     H2       HT       0.417000       1.00800           0
     98939 TIP3     29675    TIP3     OH2      OT      -0.834000       15.9994           0
     98940 TIP3     29675    TIP3     H1       HT       0.417000       1.00800           0
     98941 TIP3     29675    TIP3     H2       HT       0.417000       1.00800           0
     98942 TIP3     29676    TIP3     OH2      OT      -0.834000       15.9994           0
     98943 TIP3     29676    TIP3     H1       HT       0.417000       1.00800           0
     98944 TIP3     29676    TIP3     H2       HT       0.417000       1.00800           0
     98945 TIP3     29677    TIP3     OH2      OT      -0.834000       15.9994           0
     98946 TIP3     29677    TIP3     H1       HT       0.417000       1.00800           0
     98947 TIP3     29677    TIP3     H2       HT       0.417000       1.00800           0
     98948 TIP3     29678    TIP3     OH2      OT      -0.834000       15.9994           0
     98949 TIP3     29678    TIP3     H1       HT       0.417000       1.00800           0
     98950 TIP3     29678    TIP3     H2       HT       0.417000       1.00800           0
     98951 TIP3     29679    TIP3     OH2      OT      -0.834000       15.9994           0
     98952 TIP3     29679    TIP3     H1       HT       0.417000       1.00800           0
     98953 TIP3     29679    TIP3     H2       HT       0.417000       1.00800           0
     98954 TIP3     29680    TIP3     OH2      OT      -0.834000       15.9994           0
     98955 TIP3     29680    TIP3     H1       HT       0.417000       1.00800           0
     98956 TIP3     29680    TIP3     H2       HT       0.417000       1.00800           0
     98957 TIP3     29681    TIP3     OH2      OT      -0.834000       15.9994           0
     98958 TIP3     29681    TIP3     H1       HT       0.417000       1.00800           0
     98959 TIP3     29681    TIP3     H2       HT       0.417000       1.00800           0
     98960 TIP3     29682    TIP3     OH2      OT      -0.834000       15.9994           0
     98961 TIP3     29682    TIP3     H1       HT       0.417000       1.00800           0
     98962 TIP3     29682    TIP3     H2       HT       0.417000       1.00800           0
     98963 TIP3     29683    TIP3     OH2      OT      -0.834000       15.9994           0
     98964 TIP3     29683    TIP3     H1       HT       0.417000       1.00800           0
     98965 TIP3     29683    TIP3     H2       HT       0.417000       1.00800           0
     98966 TIP3     29684    TIP3     OH2      OT      -0.834000       15.9994           0
     98967 TIP3     29684    TIP3     H1       HT       0.417000       1.00800           0
     98968 TIP3     29684    TIP3     H2       HT       0.417000       1.00800           0
     98969 TIP3     29685    TIP3     OH2      OT      -0.834000       15.9994           0
     98970 TIP3     29685    TIP3     H1       HT       0.417000       1.00800           0
     98971 TIP3     29685    TIP3     H2       HT       0.417000       1.00800           0
     98972 TIP3     29686    TIP3     OH2      OT      -0.834000       15.9994           0
     98973 TIP3     29686    TIP3     H1       HT       0.417000       1.00800           0
     98974 TIP3     29686    TIP3     H2       HT       0.417000       1.00800           0
     98975 TIP3     29687    TIP3     OH2      OT      -0.834000       15.9994           0
     98976 TIP3     29687    TIP3     H1       HT       0.417000       1.00800           0
     98977 TIP3     29687    TIP3     H2       HT       0.417000       1.00800           0
     98978 TIP3     29688    TIP3     OH2      OT      -0.834000       15.9994           0
     98979 TIP3     29688    TIP3     H1       HT       0.417000       1.00800           0
     98980 TIP3     29688    TIP3     H2       HT       0.417000       1.00800           0
     98981 TIP3     29689    TIP3     OH2      OT      -0.834000       15.9994           0
     98982 TIP3     29689    TIP3     H1       HT       0.417000       1.00800           0
     98983 TIP3     29689    TIP3     H2       HT       0.417000       1.00800           0
     98984 TIP3     29690    TIP3     OH2      OT      -0.834000       15.9994           0
     98985 TIP3     29690    TIP3     H1       HT       0.417000       1.00800           0
     98986 TIP3     29690    TIP3     H2       HT       0.417000       1.00800           0
     98987 TIP3     29691    TIP3     OH2      OT      -0.834000       15.9994           0
     98988 TIP3     29691    TIP3     H1       HT       0.417000       1.00800           0
     98989 TIP3     29691    TIP3     H2       HT       0.417000       1.00800           0
     98990 TIP3     29692    TIP3     OH2      OT      -0.834000       15.9994           0
     98991 TIP3     29692    TIP3     H1       HT       0.417000       1.00800           0
     98992 TIP3     29692    TIP3     H2       HT       0.417000       1.00800           0
     98993 TIP3     29693    TIP3     OH2      OT      -0.834000       15.9994           0
     98994 TIP3     29693    TIP3     H1       HT       0.417000       1.00800           0
     98995 TIP3     29693    TIP3     H2       HT       0.417000       1.00800           0
     98996 TIP3     29694    TIP3     OH2      OT      -0.834000       15.9994           0
     98997 TIP3     29694    TIP3     H1       HT       0.417000       1.00800           0
     98998 TIP3     29694    TIP3     H2       HT       0.417000       1.00800           0
     98999 TIP3     29695    TIP3     OH2      OT      -0.834000       15.9994           0
     99000 TIP3     29695    TIP3     H1       HT       0.417000       1.00800           0
     99001 TIP3     29695    TIP3     H2       HT       0.417000       1.00800           0
     99002 TIP3     29696    TIP3     OH2      OT      -0.834000       15.9994           0
     99003 TIP3     29696    TIP3     H1       HT       0.417000       1.00800           0
     99004 TIP3     29696    TIP3     H2       HT       0.417000       1.00800           0
     99005 TIP3     29697    TIP3     OH2      OT      -0.834000       15.9994           0
     99006 TIP3     29697    TIP3     H1       HT       0.417000       1.00800           0
     99007 TIP3     29697    TIP3     H2       HT       0.417000       1.00800           0
     99008 TIP3     29698    TIP3     OH2      OT      -0.834000       15.9994           0
     99009 TIP3     29698    TIP3     H1       HT       0.417000       1.00800           0
     99010 TIP3     29698    TIP3     H2       HT       0.417000       1.00800           0
     99011 TIP3     29699    TIP3     OH2      OT      -0.834000       15.9994           0
     99012 TIP3     29699    TIP3     H1       HT       0.417000       1.00800           0
     99013 TIP3     29699    TIP3     H2       HT       0.417000       1.00800           0
     99014 TIP3     29700    TIP3     OH2      OT      -0.834000       15.9994           0
     99015 TIP3     29700    TIP3     H1       HT       0.417000       1.00800           0
     99016 TIP3     29700    TIP3     H2       HT       0.417000       1.00800           0
     99017 TIP3     29701    TIP3     OH2      OT      -0.834000       15.9994           0
     99018 TIP3     29701    TIP3     H1       HT       0.417000       1.00800           0
     99019 TIP3     29701    TIP3     H2       HT       0.417000       1.00800           0
     99020 TIP3     29702    TIP3     OH2      OT      -0.834000       15.9994           0
     99021 TIP3     29702    TIP3     H1       HT       0.417000       1.00800           0
     99022 TIP3     29702    TIP3     H2       HT       0.417000       1.00800           0
     99023 TIP3     29703    TIP3     OH2      OT      -0.834000       15.9994           0
     99024 TIP3     29703    TIP3     H1       HT       0.417000       1.00800           0
     99025 TIP3     29703    TIP3     H2       HT       0.417000       1.00800           0
     99026 TIP3     29704    TIP3     OH2      OT      -0.834000       15.9994           0
     99027 TIP3     29704    TIP3     H1       HT       0.417000       1.00800           0
     99028 TIP3     29704    TIP3     H2       HT       0.417000       1.00800           0
     99029 TIP3     29705    TIP3     OH2      OT      -0.834000       15.9994           0
     99030 TIP3     29705    TIP3     H1       HT       0.417000       1.00800           0
     99031 TIP3     29705    TIP3     H2       HT       0.417000       1.00800           0
     99032 TIP3     29706    TIP3     OH2      OT      -0.834000       15.9994           0
     99033 TIP3     29706    TIP3     H1       HT       0.417000       1.00800           0
     99034 TIP3     29706    TIP3     H2       HT       0.417000       1.00800           0
     99035 TIP3     29707    TIP3     OH2      OT      -0.834000       15.9994           0
     99036 TIP3     29707    TIP3     H1       HT       0.417000       1.00800           0
     99037 TIP3     29707    TIP3     H2       HT       0.417000       1.00800           0
     99038 TIP3     29708    TIP3     OH2      OT      -0.834000       15.9994           0
     99039 TIP3     29708    TIP3     H1       HT       0.417000       1.00800           0
     99040 TIP3     29708    TIP3     H2       HT       0.417000       1.00800           0
     99041 TIP3     29709    TIP3     OH2      OT      -0.834000       15.9994           0
     99042 TIP3     29709    TIP3     H1       HT       0.417000       1.00800           0
     99043 TIP3     29709    TIP3     H2       HT       0.417000       1.00800           0
     99044 TIP3     29710    TIP3     OH2      OT      -0.834000       15.9994           0
     99045 TIP3     29710    TIP3     H1       HT       0.417000       1.00800           0
     99046 TIP3     29710    TIP3     H2       HT       0.417000       1.00800           0
     99047 TIP3     29711    TIP3     OH2      OT      -0.834000       15.9994           0
     99048 TIP3     29711    TIP3     H1       HT       0.417000       1.00800           0
     99049 TIP3     29711    TIP3     H2       HT       0.417000       1.00800           0
     99050 TIP3     29712    TIP3     OH2      OT      -0.834000       15.9994           0
     99051 TIP3     29712    TIP3     H1       HT       0.417000       1.00800           0
     99052 TIP3     29712    TIP3     H2       HT       0.417000       1.00800           0
     99053 TIP3     29713    TIP3     OH2      OT      -0.834000       15.9994           0
     99054 TIP3     29713    TIP3     H1       HT       0.417000       1.00800           0
     99055 TIP3     29713    TIP3     H2       HT       0.417000       1.00800           0
     99056 TIP3     29714    TIP3     OH2      OT      -0.834000       15.9994           0
     99057 TIP3     29714    TIP3     H1       HT       0.417000       1.00800           0
     99058 TIP3     29714    TIP3     H2       HT       0.417000       1.00800           0
     99059 TIP3     29715    TIP3     OH2      OT      -0.834000       15.9994           0
     99060 TIP3     29715    TIP3     H1       HT       0.417000       1.00800           0
     99061 TIP3     29715    TIP3     H2       HT       0.417000       1.00800           0
     99062 TIP3     29716    TIP3     OH2      OT      -0.834000       15.9994           0
     99063 TIP3     29716    TIP3     H1       HT       0.417000       1.00800           0
     99064 TIP3     29716    TIP3     H2       HT       0.417000       1.00800           0
     99065 TIP3     29717    TIP3     OH2      OT      -0.834000       15.9994           0
     99066 TIP3     29717    TIP3     H1       HT       0.417000       1.00800           0
     99067 TIP3     29717    TIP3     H2       HT       0.417000       1.00800           0
     99068 TIP3     29718    TIP3     OH2      OT      -0.834000       15.9994           0
     99069 TIP3     29718    TIP3     H1       HT       0.417000       1.00800           0
     99070 TIP3     29718    TIP3     H2       HT       0.417000       1.00800           0
     99071 TIP3     29719    TIP3     OH2      OT      -0.834000       15.9994           0
     99072 TIP3     29719    TIP3     H1       HT       0.417000       1.00800           0
     99073 TIP3     29719    TIP3     H2       HT       0.417000       1.00800           0
     99074 TIP3     29720    TIP3     OH2      OT      -0.834000       15.9994           0
     99075 TIP3     29720    TIP3     H1       HT       0.417000       1.00800           0
     99076 TIP3     29720    TIP3     H2       HT       0.417000       1.00800           0
     99077 TIP3     29721    TIP3     OH2      OT      -0.834000       15.9994           0
     99078 TIP3     29721    TIP3     H1       HT       0.417000       1.00800           0
     99079 TIP3     29721    TIP3     H2       HT       0.417000       1.00800           0
     99080 TIP3     29722    TIP3     OH2      OT      -0.834000       15.9994           0
     99081 TIP3     29722    TIP3     H1       HT       0.417000       1.00800           0
     99082 TIP3     29722    TIP3     H2       HT       0.417000       1.00800           0
     99083 TIP3     29723    TIP3     OH2      OT      -0.834000       15.9994           0
     99084 TIP3     29723    TIP3     H1       HT       0.417000       1.00800           0
     99085 TIP3     29723    TIP3     H2       HT       0.417000       1.00800           0
     99086 TIP3     29724    TIP3     OH2      OT      -0.834000       15.9994           0
     99087 TIP3     29724    TIP3     H1       HT       0.417000       1.00800           0
     99088 TIP3     29724    TIP3     H2       HT       0.417000       1.00800           0
     99089 TIP3     29725    TIP3     OH2      OT      -0.834000       15.9994           0
     99090 TIP3     29725    TIP3     H1       HT       0.417000       1.00800           0
     99091 TIP3     29725    TIP3     H2       HT       0.417000       1.00800           0
     99092 TIP3     29726    TIP3     OH2      OT      -0.834000       15.9994           0
     99093 TIP3     29726    TIP3     H1       HT       0.417000       1.00800           0
     99094 TIP3     29726    TIP3     H2       HT       0.417000       1.00800           0
     99095 TIP3     29727    TIP3     OH2      OT      -0.834000       15.9994           0
     99096 TIP3     29727    TIP3     H1       HT       0.417000       1.00800           0
     99097 TIP3     29727    TIP3     H2       HT       0.417000       1.00800           0
     99098 TIP3     29728    TIP3     OH2      OT      -0.834000       15.9994           0
     99099 TIP3     29728    TIP3     H1       HT       0.417000       1.00800           0
     99100 TIP3     29728    TIP3     H2       HT       0.417000       1.00800           0
     99101 TIP3     29729    TIP3     OH2      OT      -0.834000       15.9994           0
     99102 TIP3     29729    TIP3     H1       HT       0.417000       1.00800           0
     99103 TIP3     29729    TIP3     H2       HT       0.417000       1.00800           0
     99104 TIP3     29730    TIP3     OH2      OT      -0.834000       15.9994           0
     99105 TIP3     29730    TIP3     H1       HT       0.417000       1.00800           0
     99106 TIP3     29730    TIP3     H2       HT       0.417000       1.00800           0
     99107 TIP3     29731    TIP3     OH2      OT      -0.834000       15.9994           0
     99108 TIP3     29731    TIP3     H1       HT       0.417000       1.00800           0
     99109 TIP3     29731    TIP3     H2       HT       0.417000       1.00800           0
     99110 TIP3     29732    TIP3     OH2      OT      -0.834000       15.9994           0
     99111 TIP3     29732    TIP3     H1       HT       0.417000       1.00800           0
     99112 TIP3     29732    TIP3     H2       HT       0.417000       1.00800           0
     99113 TIP3     29733    TIP3     OH2      OT      -0.834000       15.9994           0
     99114 TIP3     29733    TIP3     H1       HT       0.417000       1.00800           0
     99115 TIP3     29733    TIP3     H2       HT       0.417000       1.00800           0
     99116 TIP3     29734    TIP3     OH2      OT      -0.834000       15.9994           0
     99117 TIP3     29734    TIP3     H1       HT       0.417000       1.00800           0
     99118 TIP3     29734    TIP3     H2       HT       0.417000       1.00800           0
     99119 TIP3     29735    TIP3     OH2      OT      -0.834000       15.9994           0
     99120 TIP3     29735    TIP3     H1       HT       0.417000       1.00800           0
     99121 TIP3     29735    TIP3     H2       HT       0.417000       1.00800           0
     99122 TIP3     29736    TIP3     OH2      OT      -0.834000       15.9994           0
     99123 TIP3     29736    TIP3     H1       HT       0.417000       1.00800           0
     99124 TIP3     29736    TIP3     H2       HT       0.417000       1.00800           0
     99125 TIP3     29737    TIP3     OH2      OT      -0.834000       15.9994           0
     99126 TIP3     29737    TIP3     H1       HT       0.417000       1.00800           0
     99127 TIP3     29737    TIP3     H2       HT       0.417000       1.00800           0
     99128 TIP3     29738    TIP3     OH2      OT      -0.834000       15.9994           0
     99129 TIP3     29738    TIP3     H1       HT       0.417000       1.00800           0
     99130 TIP3     29738    TIP3     H2       HT       0.417000       1.00800           0
     99131 TIP3     29739    TIP3     OH2      OT      -0.834000       15.9994           0
     99132 TIP3     29739    TIP3     H1       HT       0.417000       1.00800           0
     99133 TIP3     29739    TIP3     H2       HT       0.417000       1.00800           0
     99134 TIP3     29740    TIP3     OH2      OT      -0.834000       15.9994           0
     99135 TIP3     29740    TIP3     H1       HT       0.417000       1.00800           0
     99136 TIP3     29740    TIP3     H2       HT       0.417000       1.00800           0
     99137 TIP3     29741    TIP3     OH2      OT      -0.834000       15.9994           0
     99138 TIP3     29741    TIP3     H1       HT       0.417000       1.00800           0
     99139 TIP3     29741    TIP3     H2       HT       0.417000       1.00800           0
     99140 TIP3     29742    TIP3     OH2      OT      -0.834000       15.9994           0
     99141 TIP3     29742    TIP3     H1       HT       0.417000       1.00800           0
     99142 TIP3     29742    TIP3     H2       HT       0.417000       1.00800           0
     99143 TIP3     29743    TIP3     OH2      OT      -0.834000       15.9994           0
     99144 TIP3     29743    TIP3     H1       HT       0.417000       1.00800           0
     99145 TIP3     29743    TIP3     H2       HT       0.417000       1.00800           0
     99146 TIP3     29744    TIP3     OH2      OT      -0.834000       15.9994           0
     99147 TIP3     29744    TIP3     H1       HT       0.417000       1.00800           0
     99148 TIP3     29744    TIP3     H2       HT       0.417000       1.00800           0
     99149 TIP3     29745    TIP3     OH2      OT      -0.834000       15.9994           0
     99150 TIP3     29745    TIP3     H1       HT       0.417000       1.00800           0
     99151 TIP3     29745    TIP3     H2       HT       0.417000       1.00800           0
     99152 TIP3     29746    TIP3     OH2      OT      -0.834000       15.9994           0
     99153 TIP3     29746    TIP3     H1       HT       0.417000       1.00800           0
     99154 TIP3     29746    TIP3     H2       HT       0.417000       1.00800           0
     99155 TIP3     29747    TIP3     OH2      OT      -0.834000       15.9994           0
     99156 TIP3     29747    TIP3     H1       HT       0.417000       1.00800           0
     99157 TIP3     29747    TIP3     H2       HT       0.417000       1.00800           0
     99158 TIP3     29748    TIP3     OH2      OT      -0.834000       15.9994           0
     99159 TIP3     29748    TIP3     H1       HT       0.417000       1.00800           0
     99160 TIP3     29748    TIP3     H2       HT       0.417000       1.00800           0
     99161 TIP3     29749    TIP3     OH2      OT      -0.834000       15.9994           0
     99162 TIP3     29749    TIP3     H1       HT       0.417000       1.00800           0
     99163 TIP3     29749    TIP3     H2       HT       0.417000       1.00800           0
     99164 TIP3     29750    TIP3     OH2      OT      -0.834000       15.9994           0
     99165 TIP3     29750    TIP3     H1       HT       0.417000       1.00800           0
     99166 TIP3     29750    TIP3     H2       HT       0.417000       1.00800           0
     99167 TIP3     29751    TIP3     OH2      OT      -0.834000       15.9994           0
     99168 TIP3     29751    TIP3     H1       HT       0.417000       1.00800           0
     99169 TIP3     29751    TIP3     H2       HT       0.417000       1.00800           0
     99170 TIP3     29752    TIP3     OH2      OT      -0.834000       15.9994           0
     99171 TIP3     29752    TIP3     H1       HT       0.417000       1.00800           0
     99172 TIP3     29752    TIP3     H2       HT       0.417000       1.00800           0
     99173 TIP3     29753    TIP3     OH2      OT      -0.834000       15.9994           0
     99174 TIP3     29753    TIP3     H1       HT       0.417000       1.00800           0
     99175 TIP3     29753    TIP3     H2       HT       0.417000       1.00800           0
     99176 TIP3     29754    TIP3     OH2      OT      -0.834000       15.9994           0
     99177 TIP3     29754    TIP3     H1       HT       0.417000       1.00800           0
     99178 TIP3     29754    TIP3     H2       HT       0.417000       1.00800           0
     99179 TIP3     29755    TIP3     OH2      OT      -0.834000       15.9994           0
     99180 TIP3     29755    TIP3     H1       HT       0.417000       1.00800           0
     99181 TIP3     29755    TIP3     H2       HT       0.417000       1.00800           0
     99182 TIP3     29756    TIP3     OH2      OT      -0.834000       15.9994           0
     99183 TIP3     29756    TIP3     H1       HT       0.417000       1.00800           0
     99184 TIP3     29756    TIP3     H2       HT       0.417000       1.00800           0
     99185 TIP3     29757    TIP3     OH2      OT      -0.834000       15.9994           0
     99186 TIP3     29757    TIP3     H1       HT       0.417000       1.00800           0
     99187 TIP3     29757    TIP3     H2       HT       0.417000       1.00800           0
     99188 TIP3     29758    TIP3     OH2      OT      -0.834000       15.9994           0
     99189 TIP3     29758    TIP3     H1       HT       0.417000       1.00800           0
     99190 TIP3     29758    TIP3     H2       HT       0.417000       1.00800           0
     99191 TIP3     29759    TIP3     OH2      OT      -0.834000       15.9994           0
     99192 TIP3     29759    TIP3     H1       HT       0.417000       1.00800           0
     99193 TIP3     29759    TIP3     H2       HT       0.417000       1.00800           0
     99194 TIP3     29760    TIP3     OH2      OT      -0.834000       15.9994           0
     99195 TIP3     29760    TIP3     H1       HT       0.417000       1.00800           0
     99196 TIP3     29760    TIP3     H2       HT       0.417000       1.00800           0
     99197 TIP3     29761    TIP3     OH2      OT      -0.834000       15.9994           0
     99198 TIP3     29761    TIP3     H1       HT       0.417000       1.00800           0
     99199 TIP3     29761    TIP3     H2       HT       0.417000       1.00800           0
     99200 TIP3     29762    TIP3     OH2      OT      -0.834000       15.9994           0
     99201 TIP3     29762    TIP3     H1       HT       0.417000       1.00800           0
     99202 TIP3     29762    TIP3     H2       HT       0.417000       1.00800           0
     99203 TIP3     29763    TIP3     OH2      OT      -0.834000       15.9994           0
     99204 TIP3     29763    TIP3     H1       HT       0.417000       1.00800           0
     99205 TIP3     29763    TIP3     H2       HT       0.417000       1.00800           0
     99206 TIP3     29764    TIP3     OH2      OT      -0.834000       15.9994           0
     99207 TIP3     29764    TIP3     H1       HT       0.417000       1.00800           0
     99208 TIP3     29764    TIP3     H2       HT       0.417000       1.00800           0
     99209 TIP3     29765    TIP3     OH2      OT      -0.834000       15.9994           0
     99210 TIP3     29765    TIP3     H1       HT       0.417000       1.00800           0
     99211 TIP3     29765    TIP3     H2       HT       0.417000       1.00800           0
     99212 TIP3     29766    TIP3     OH2      OT      -0.834000       15.9994           0
     99213 TIP3     29766    TIP3     H1       HT       0.417000       1.00800           0
     99214 TIP3     29766    TIP3     H2       HT       0.417000       1.00800           0
     99215 TIP3     29767    TIP3     OH2      OT      -0.834000       15.9994           0
     99216 TIP3     29767    TIP3     H1       HT       0.417000       1.00800           0
     99217 TIP3     29767    TIP3     H2       HT       0.417000       1.00800           0
     99218 TIP3     29768    TIP3     OH2      OT      -0.834000       15.9994           0
     99219 TIP3     29768    TIP3     H1       HT       0.417000       1.00800           0
     99220 TIP3     29768    TIP3     H2       HT       0.417000       1.00800           0
     99221 TIP3     29769    TIP3     OH2      OT      -0.834000       15.9994           0
     99222 TIP3     29769    TIP3     H1       HT       0.417000       1.00800           0
     99223 TIP3     29769    TIP3     H2       HT       0.417000       1.00800           0
     99224 TIP3     29770    TIP3     OH2      OT      -0.834000       15.9994           0
     99225 TIP3     29770    TIP3     H1       HT       0.417000       1.00800           0
     99226 TIP3     29770    TIP3     H2       HT       0.417000       1.00800           0
     99227 TIP3     29771    TIP3     OH2      OT      -0.834000       15.9994           0
     99228 TIP3     29771    TIP3     H1       HT       0.417000       1.00800           0
     99229 TIP3     29771    TIP3     H2       HT       0.417000       1.00800           0
     99230 TIP3     29772    TIP3     OH2      OT      -0.834000       15.9994           0
     99231 TIP3     29772    TIP3     H1       HT       0.417000       1.00800           0
     99232 TIP3     29772    TIP3     H2       HT       0.417000       1.00800           0
     99233 TIP3     29773    TIP3     OH2      OT      -0.834000       15.9994           0
     99234 TIP3     29773    TIP3     H1       HT       0.417000       1.00800           0
     99235 TIP3     29773    TIP3     H2       HT       0.417000       1.00800           0
     99236 TIP3     29774    TIP3     OH2      OT      -0.834000       15.9994           0
     99237 TIP3     29774    TIP3     H1       HT       0.417000       1.00800           0
     99238 TIP3     29774    TIP3     H2       HT       0.417000       1.00800           0
     99239 TIP3     29775    TIP3     OH2      OT      -0.834000       15.9994           0
     99240 TIP3     29775    TIP3     H1       HT       0.417000       1.00800           0
     99241 TIP3     29775    TIP3     H2       HT       0.417000       1.00800           0
     99242 TIP3     29776    TIP3     OH2      OT      -0.834000       15.9994           0
     99243 TIP3     29776    TIP3     H1       HT       0.417000       1.00800           0
     99244 TIP3     29776    TIP3     H2       HT       0.417000       1.00800           0
     99245 TIP3     29777    TIP3     OH2      OT      -0.834000       15.9994           0
     99246 TIP3     29777    TIP3     H1       HT       0.417000       1.00800           0
     99247 TIP3     29777    TIP3     H2       HT       0.417000       1.00800           0
     99248 TIP3     29778    TIP3     OH2      OT      -0.834000       15.9994           0
     99249 TIP3     29778    TIP3     H1       HT       0.417000       1.00800           0
     99250 TIP3     29778    TIP3     H2       HT       0.417000       1.00800           0
     99251 TIP3     29779    TIP3     OH2      OT      -0.834000       15.9994           0
     99252 TIP3     29779    TIP3     H1       HT       0.417000       1.00800           0
     99253 TIP3     29779    TIP3     H2       HT       0.417000       1.00800           0
     99254 TIP3     29780    TIP3     OH2      OT      -0.834000       15.9994           0
     99255 TIP3     29780    TIP3     H1       HT       0.417000       1.00800           0
     99256 TIP3     29780    TIP3     H2       HT       0.417000       1.00800           0
     99257 TIP3     29781    TIP3     OH2      OT      -0.834000       15.9994           0
     99258 TIP3     29781    TIP3     H1       HT       0.417000       1.00800           0
     99259 TIP3     29781    TIP3     H2       HT       0.417000       1.00800           0
     99260 TIP3     29782    TIP3     OH2      OT      -0.834000       15.9994           0
     99261 TIP3     29782    TIP3     H1       HT       0.417000       1.00800           0
     99262 TIP3     29782    TIP3     H2       HT       0.417000       1.00800           0
     99263 TIP3     29783    TIP3     OH2      OT      -0.834000       15.9994           0
     99264 TIP3     29783    TIP3     H1       HT       0.417000       1.00800           0
     99265 TIP3     29783    TIP3     H2       HT       0.417000       1.00800           0
     99266 TIP3     29784    TIP3     OH2      OT      -0.834000       15.9994           0
     99267 TIP3     29784    TIP3     H1       HT       0.417000       1.00800           0
     99268 TIP3     29784    TIP3     H2       HT       0.417000       1.00800           0
     99269 TIP3     29785    TIP3     OH2      OT      -0.834000       15.9994           0
     99270 TIP3     29785    TIP3     H1       HT       0.417000       1.00800           0
     99271 TIP3     29785    TIP3     H2       HT       0.417000       1.00800           0
     99272 TIP3     29786    TIP3     OH2      OT      -0.834000       15.9994           0
     99273 TIP3     29786    TIP3     H1       HT       0.417000       1.00800           0
     99274 TIP3     29786    TIP3     H2       HT       0.417000       1.00800           0
     99275 TIP3     29787    TIP3     OH2      OT      -0.834000       15.9994           0
     99276 TIP3     29787    TIP3     H1       HT       0.417000       1.00800           0
     99277 TIP3     29787    TIP3     H2       HT       0.417000       1.00800           0
     99278 TIP3     29788    TIP3     OH2      OT      -0.834000       15.9994           0
     99279 TIP3     29788    TIP3     H1       HT       0.417000       1.00800           0
     99280 TIP3     29788    TIP3     H2       HT       0.417000       1.00800           0
     99281 TIP3     29789    TIP3     OH2      OT      -0.834000       15.9994           0
     99282 TIP3     29789    TIP3     H1       HT       0.417000       1.00800           0
     99283 TIP3     29789    TIP3     H2       HT       0.417000       1.00800           0
     99284 TIP3     29790    TIP3     OH2      OT      -0.834000       15.9994           0
     99285 TIP3     29790    TIP3     H1       HT       0.417000       1.00800           0
     99286 TIP3     29790    TIP3     H2       HT       0.417000       1.00800           0
     99287 TIP3     29791    TIP3     OH2      OT      -0.834000       15.9994           0
     99288 TIP3     29791    TIP3     H1       HT       0.417000       1.00800           0
     99289 TIP3     29791    TIP3     H2       HT       0.417000       1.00800           0
     99290 TIP3     29792    TIP3     OH2      OT      -0.834000       15.9994           0
     99291 TIP3     29792    TIP3     H1       HT       0.417000       1.00800           0
     99292 TIP3     29792    TIP3     H2       HT       0.417000       1.00800           0
     99293 TIP3     29793    TIP3     OH2      OT      -0.834000       15.9994           0
     99294 TIP3     29793    TIP3     H1       HT       0.417000       1.00800           0
     99295 TIP3     29793    TIP3     H2       HT       0.417000       1.00800           0
     99296 TIP3     29794    TIP3     OH2      OT      -0.834000       15.9994           0
     99297 TIP3     29794    TIP3     H1       HT       0.417000       1.00800           0
     99298 TIP3     29794    TIP3     H2       HT       0.417000       1.00800           0
     99299 TIP3     29795    TIP3     OH2      OT      -0.834000       15.9994           0
     99300 TIP3     29795    TIP3     H1       HT       0.417000       1.00800           0
     99301 TIP3     29795    TIP3     H2       HT       0.417000       1.00800           0
     99302 TIP3     29796    TIP3     OH2      OT      -0.834000       15.9994           0
     99303 TIP3     29796    TIP3     H1       HT       0.417000       1.00800           0
     99304 TIP3     29796    TIP3     H2       HT       0.417000       1.00800           0
     99305 TIP3     29797    TIP3     OH2      OT      -0.834000       15.9994           0
     99306 TIP3     29797    TIP3     H1       HT       0.417000       1.00800           0
     99307 TIP3     29797    TIP3     H2       HT       0.417000       1.00800           0
     99308 TIP3     29798    TIP3     OH2      OT      -0.834000       15.9994           0
     99309 TIP3     29798    TIP3     H1       HT       0.417000       1.00800           0
     99310 TIP3     29798    TIP3     H2       HT       0.417000       1.00800           0
     99311 TIP3     29799    TIP3     OH2      OT      -0.834000       15.9994           0
     99312 TIP3     29799    TIP3     H1       HT       0.417000       1.00800           0
     99313 TIP3     29799    TIP3     H2       HT       0.417000       1.00800           0
     99314 TIP3     29800    TIP3     OH2      OT      -0.834000       15.9994           0
     99315 TIP3     29800    TIP3     H1       HT       0.417000       1.00800           0
     99316 TIP3     29800    TIP3     H2       HT       0.417000       1.00800           0
     99317 TIP3     29801    TIP3     OH2      OT      -0.834000       15.9994           0
     99318 TIP3     29801    TIP3     H1       HT       0.417000       1.00800           0
     99319 TIP3     29801    TIP3     H2       HT       0.417000       1.00800           0
     99320 TIP3     29802    TIP3     OH2      OT      -0.834000       15.9994           0
     99321 TIP3     29802    TIP3     H1       HT       0.417000       1.00800           0
     99322 TIP3     29802    TIP3     H2       HT       0.417000       1.00800           0
     99323 TIP3     29803    TIP3     OH2      OT      -0.834000       15.9994           0
     99324 TIP3     29803    TIP3     H1       HT       0.417000       1.00800           0
     99325 TIP3     29803    TIP3     H2       HT       0.417000       1.00800           0
     99326 TIP3     29804    TIP3     OH2      OT      -0.834000       15.9994           0
     99327 TIP3     29804    TIP3     H1       HT       0.417000       1.00800           0
     99328 TIP3     29804    TIP3     H2       HT       0.417000       1.00800           0
     99329 TIP3     29805    TIP3     OH2      OT      -0.834000       15.9994           0
     99330 TIP3     29805    TIP3     H1       HT       0.417000       1.00800           0
     99331 TIP3     29805    TIP3     H2       HT       0.417000       1.00800           0
     99332 TIP3     29806    TIP3     OH2      OT      -0.834000       15.9994           0
     99333 TIP3     29806    TIP3     H1       HT       0.417000       1.00800           0
     99334 TIP3     29806    TIP3     H2       HT       0.417000       1.00800           0
     99335 TIP3     29807    TIP3     OH2      OT      -0.834000       15.9994           0
     99336 TIP3     29807    TIP3     H1       HT       0.417000       1.00800           0
     99337 TIP3     29807    TIP3     H2       HT       0.417000       1.00800           0
     99338 TIP3     29808    TIP3     OH2      OT      -0.834000       15.9994           0
     99339 TIP3     29808    TIP3     H1       HT       0.417000       1.00800           0
     99340 TIP3     29808    TIP3     H2       HT       0.417000       1.00800           0
     99341 TIP3     29809    TIP3     OH2      OT      -0.834000       15.9994           0
     99342 TIP3     29809    TIP3     H1       HT       0.417000       1.00800           0
     99343 TIP3     29809    TIP3     H2       HT       0.417000       1.00800           0
     99344 TIP3     29810    TIP3     OH2      OT      -0.834000       15.9994           0
     99345 TIP3     29810    TIP3     H1       HT       0.417000       1.00800           0
     99346 TIP3     29810    TIP3     H2       HT       0.417000       1.00800           0
     99347 TIP3     29811    TIP3     OH2      OT      -0.834000       15.9994           0
     99348 TIP3     29811    TIP3     H1       HT       0.417000       1.00800           0
     99349 TIP3     29811    TIP3     H2       HT       0.417000       1.00800           0
     99350 TIP3     29812    TIP3     OH2      OT      -0.834000       15.9994           0
     99351 TIP3     29812    TIP3     H1       HT       0.417000       1.00800           0
     99352 TIP3     29812    TIP3     H2       HT       0.417000       1.00800           0
     99353 TIP3     29813    TIP3     OH2      OT      -0.834000       15.9994           0
     99354 TIP3     29813    TIP3     H1       HT       0.417000       1.00800           0
     99355 TIP3     29813    TIP3     H2       HT       0.417000       1.00800           0
     99356 TIP3     29814    TIP3     OH2      OT      -0.834000       15.9994           0
     99357 TIP3     29814    TIP3     H1       HT       0.417000       1.00800           0
     99358 TIP3     29814    TIP3     H2       HT       0.417000       1.00800           0
     99359 TIP3     29815    TIP3     OH2      OT      -0.834000       15.9994           0
     99360 TIP3     29815    TIP3     H1       HT       0.417000       1.00800           0
     99361 TIP3     29815    TIP3     H2       HT       0.417000       1.00800           0
     99362 TIP3     29816    TIP3     OH2      OT      -0.834000       15.9994           0
     99363 TIP3     29816    TIP3     H1       HT       0.417000       1.00800           0
     99364 TIP3     29816    TIP3     H2       HT       0.417000       1.00800           0
     99365 TIP3     29817    TIP3     OH2      OT      -0.834000       15.9994           0
     99366 TIP3     29817    TIP3     H1       HT       0.417000       1.00800           0
     99367 TIP3     29817    TIP3     H2       HT       0.417000       1.00800           0
     99368 TIP3     29818    TIP3     OH2      OT      -0.834000       15.9994           0
     99369 TIP3     29818    TIP3     H1       HT       0.417000       1.00800           0
     99370 TIP3     29818    TIP3     H2       HT       0.417000       1.00800           0
     99371 TIP3     29819    TIP3     OH2      OT      -0.834000       15.9994           0
     99372 TIP3     29819    TIP3     H1       HT       0.417000       1.00800           0
     99373 TIP3     29819    TIP3     H2       HT       0.417000       1.00800           0
     99374 TIP3     29820    TIP3     OH2      OT      -0.834000       15.9994           0
     99375 TIP3     29820    TIP3     H1       HT       0.417000       1.00800           0
     99376 TIP3     29820    TIP3     H2       HT       0.417000       1.00800           0
     99377 TIP3     29821    TIP3     OH2      OT      -0.834000       15.9994           0
     99378 TIP3     29821    TIP3     H1       HT       0.417000       1.00800           0
     99379 TIP3     29821    TIP3     H2       HT       0.417000       1.00800           0
     99380 TIP3     29822    TIP3     OH2      OT      -0.834000       15.9994           0
     99381 TIP3     29822    TIP3     H1       HT       0.417000       1.00800           0
     99382 TIP3     29822    TIP3     H2       HT       0.417000       1.00800           0
     99383 TIP3     29823    TIP3     OH2      OT      -0.834000       15.9994           0
     99384 TIP3     29823    TIP3     H1       HT       0.417000       1.00800           0
     99385 TIP3     29823    TIP3     H2       HT       0.417000       1.00800           0
     99386 TIP3     29824    TIP3     OH2      OT      -0.834000       15.9994           0
     99387 TIP3     29824    TIP3     H1       HT       0.417000       1.00800           0
     99388 TIP3     29824    TIP3     H2       HT       0.417000       1.00800           0
     99389 TIP3     29825    TIP3     OH2      OT      -0.834000       15.9994           0
     99390 TIP3     29825    TIP3     H1       HT       0.417000       1.00800           0
     99391 TIP3     29825    TIP3     H2       HT       0.417000       1.00800           0
     99392 TIP3     29826    TIP3     OH2      OT      -0.834000       15.9994           0
     99393 TIP3     29826    TIP3     H1       HT       0.417000       1.00800           0
     99394 TIP3     29826    TIP3     H2       HT       0.417000       1.00800           0
     99395 TIP3     29827    TIP3     OH2      OT      -0.834000       15.9994           0
     99396 TIP3     29827    TIP3     H1       HT       0.417000       1.00800           0
     99397 TIP3     29827    TIP3     H2       HT       0.417000       1.00800           0
     99398 TIP3     29828    TIP3     OH2      OT      -0.834000       15.9994           0
     99399 TIP3     29828    TIP3     H1       HT       0.417000       1.00800           0
     99400 TIP3     29828    TIP3     H2       HT       0.417000       1.00800           0
     99401 TIP3     29829    TIP3     OH2      OT      -0.834000       15.9994           0
     99402 TIP3     29829    TIP3     H1       HT       0.417000       1.00800           0
     99403 TIP3     29829    TIP3     H2       HT       0.417000       1.00800           0
     99404 TIP3     29830    TIP3     OH2      OT      -0.834000       15.9994           0
     99405 TIP3     29830    TIP3     H1       HT       0.417000       1.00800           0
     99406 TIP3     29830    TIP3     H2       HT       0.417000       1.00800           0
     99407 TIP3     29831    TIP3     OH2      OT      -0.834000       15.9994           0
     99408 TIP3     29831    TIP3     H1       HT       0.417000       1.00800           0
     99409 TIP3     29831    TIP3     H2       HT       0.417000       1.00800           0
     99410 TIP3     29832    TIP3     OH2      OT      -0.834000       15.9994           0
     99411 TIP3     29832    TIP3     H1       HT       0.417000       1.00800           0
     99412 TIP3     29832    TIP3     H2       HT       0.417000       1.00800           0
     99413 TIP3     29833    TIP3     OH2      OT      -0.834000       15.9994           0
     99414 TIP3     29833    TIP3     H1       HT       0.417000       1.00800           0
     99415 TIP3     29833    TIP3     H2       HT       0.417000       1.00800           0
     99416 TIP3     29834    TIP3     OH2      OT      -0.834000       15.9994           0
     99417 TIP3     29834    TIP3     H1       HT       0.417000       1.00800           0
     99418 TIP3     29834    TIP3     H2       HT       0.417000       1.00800           0
     99419 TIP3     29835    TIP3     OH2      OT      -0.834000       15.9994           0
     99420 TIP3     29835    TIP3     H1       HT       0.417000       1.00800           0
     99421 TIP3     29835    TIP3     H2       HT       0.417000       1.00800           0
     99422 TIP3     29836    TIP3     OH2      OT      -0.834000       15.9994           0
     99423 TIP3     29836    TIP3     H1       HT       0.417000       1.00800           0
     99424 TIP3     29836    TIP3     H2       HT       0.417000       1.00800           0
     99425 TIP3     29837    TIP3     OH2      OT      -0.834000       15.9994           0
     99426 TIP3     29837    TIP3     H1       HT       0.417000       1.00800           0
     99427 TIP3     29837    TIP3     H2       HT       0.417000       1.00800           0
     99428 TIP3     29838    TIP3     OH2      OT      -0.834000       15.9994           0
     99429 TIP3     29838    TIP3     H1       HT       0.417000       1.00800           0
     99430 TIP3     29838    TIP3     H2       HT       0.417000       1.00800           0
     99431 TIP3     29839    TIP3     OH2      OT      -0.834000       15.9994           0
     99432 TIP3     29839    TIP3     H1       HT       0.417000       1.00800           0
     99433 TIP3     29839    TIP3     H2       HT       0.417000       1.00800           0
     99434 TIP3     29840    TIP3     OH2      OT      -0.834000       15.9994           0
     99435 TIP3     29840    TIP3     H1       HT       0.417000       1.00800           0
     99436 TIP3     29840    TIP3     H2       HT       0.417000       1.00800           0
     99437 TIP3     29841    TIP3     OH2      OT      -0.834000       15.9994           0
     99438 TIP3     29841    TIP3     H1       HT       0.417000       1.00800           0
     99439 TIP3     29841    TIP3     H2       HT       0.417000       1.00800           0
     99440 TIP3     29842    TIP3     OH2      OT      -0.834000       15.9994           0
     99441 TIP3     29842    TIP3     H1       HT       0.417000       1.00800           0
     99442 TIP3     29842    TIP3     H2       HT       0.417000       1.00800           0
     99443 TIP3     29843    TIP3     OH2      OT      -0.834000       15.9994           0
     99444 TIP3     29843    TIP3     H1       HT       0.417000       1.00800           0
     99445 TIP3     29843    TIP3     H2       HT       0.417000       1.00800           0
     99446 TIP3     29844    TIP3     OH2      OT      -0.834000       15.9994           0
     99447 TIP3     29844    TIP3     H1       HT       0.417000       1.00800           0
     99448 TIP3     29844    TIP3     H2       HT       0.417000       1.00800           0
     99449 TIP3     29845    TIP3     OH2      OT      -0.834000       15.9994           0
     99450 TIP3     29845    TIP3     H1       HT       0.417000       1.00800           0
     99451 TIP3     29845    TIP3     H2       HT       0.417000       1.00800           0
     99452 TIP3     29846    TIP3     OH2      OT      -0.834000       15.9994           0
     99453 TIP3     29846    TIP3     H1       HT       0.417000       1.00800           0
     99454 TIP3     29846    TIP3     H2       HT       0.417000       1.00800           0
     99455 TIP3     29847    TIP3     OH2      OT      -0.834000       15.9994           0
     99456 TIP3     29847    TIP3     H1       HT       0.417000       1.00800           0
     99457 TIP3     29847    TIP3     H2       HT       0.417000       1.00800           0
     99458 TIP3     29848    TIP3     OH2      OT      -0.834000       15.9994           0
     99459 TIP3     29848    TIP3     H1       HT       0.417000       1.00800           0
     99460 TIP3     29848    TIP3     H2       HT       0.417000       1.00800           0
     99461 TIP3     29849    TIP3     OH2      OT      -0.834000       15.9994           0
     99462 TIP3     29849    TIP3     H1       HT       0.417000       1.00800           0
     99463 TIP3     29849    TIP3     H2       HT       0.417000       1.00800           0
     99464 TIP3     29850    TIP3     OH2      OT      -0.834000       15.9994           0
     99465 TIP3     29850    TIP3     H1       HT       0.417000       1.00800           0
     99466 TIP3     29850    TIP3     H2       HT       0.417000       1.00800           0
     99467 TIP3     29851    TIP3     OH2      OT      -0.834000       15.9994           0
     99468 TIP3     29851    TIP3     H1       HT       0.417000       1.00800           0
     99469 TIP3     29851    TIP3     H2       HT       0.417000       1.00800           0
     99470 TIP3     29852    TIP3     OH2      OT      -0.834000       15.9994           0
     99471 TIP3     29852    TIP3     H1       HT       0.417000       1.00800           0
     99472 TIP3     29852    TIP3     H2       HT       0.417000       1.00800           0
     99473 TIP3     29853    TIP3     OH2      OT      -0.834000       15.9994           0
     99474 TIP3     29853    TIP3     H1       HT       0.417000       1.00800           0
     99475 TIP3     29853    TIP3     H2       HT       0.417000       1.00800           0
     99476 TIP3     29854    TIP3     OH2      OT      -0.834000       15.9994           0
     99477 TIP3     29854    TIP3     H1       HT       0.417000       1.00800           0
     99478 TIP3     29854    TIP3     H2       HT       0.417000       1.00800           0
     99479 TIP3     29855    TIP3     OH2      OT      -0.834000       15.9994           0
     99480 TIP3     29855    TIP3     H1       HT       0.417000       1.00800           0
     99481 TIP3     29855    TIP3     H2       HT       0.417000       1.00800           0
     99482 TIP3     29856    TIP3     OH2      OT      -0.834000       15.9994           0
     99483 TIP3     29856    TIP3     H1       HT       0.417000       1.00800           0
     99484 TIP3     29856    TIP3     H2       HT       0.417000       1.00800           0
     99485 TIP3     29857    TIP3     OH2      OT      -0.834000       15.9994           0
     99486 TIP3     29857    TIP3     H1       HT       0.417000       1.00800           0
     99487 TIP3     29857    TIP3     H2       HT       0.417000       1.00800           0
     99488 TIP3     29858    TIP3     OH2      OT      -0.834000       15.9994           0
     99489 TIP3     29858    TIP3     H1       HT       0.417000       1.00800           0
     99490 TIP3     29858    TIP3     H2       HT       0.417000       1.00800           0
     99491 TIP3     29859    TIP3     OH2      OT      -0.834000       15.9994           0
     99492 TIP3     29859    TIP3     H1       HT       0.417000       1.00800           0
     99493 TIP3     29859    TIP3     H2       HT       0.417000       1.00800           0
     99494 TIP3     29860    TIP3     OH2      OT      -0.834000       15.9994           0
     99495 TIP3     29860    TIP3     H1       HT       0.417000       1.00800           0
     99496 TIP3     29860    TIP3     H2       HT       0.417000       1.00800           0
     99497 TIP3     29861    TIP3     OH2      OT      -0.834000       15.9994           0
     99498 TIP3     29861    TIP3     H1       HT       0.417000       1.00800           0
     99499 TIP3     29861    TIP3     H2       HT       0.417000       1.00800           0
     99500 TIP3     29862    TIP3     OH2      OT      -0.834000       15.9994           0
     99501 TIP3     29862    TIP3     H1       HT       0.417000       1.00800           0
     99502 TIP3     29862    TIP3     H2       HT       0.417000       1.00800           0
     99503 TIP3     29863    TIP3     OH2      OT      -0.834000       15.9994           0
     99504 TIP3     29863    TIP3     H1       HT       0.417000       1.00800           0
     99505 TIP3     29863    TIP3     H2       HT       0.417000       1.00800           0
     99506 TIP3     29864    TIP3     OH2      OT      -0.834000       15.9994           0
     99507 TIP3     29864    TIP3     H1       HT       0.417000       1.00800           0
     99508 TIP3     29864    TIP3     H2       HT       0.417000       1.00800           0
     99509 TIP3     29865    TIP3     OH2      OT      -0.834000       15.9994           0
     99510 TIP3     29865    TIP3     H1       HT       0.417000       1.00800           0
     99511 TIP3     29865    TIP3     H2       HT       0.417000       1.00800           0
     99512 TIP3     29866    TIP3     OH2      OT      -0.834000       15.9994           0
     99513 TIP3     29866    TIP3     H1       HT       0.417000       1.00800           0
     99514 TIP3     29866    TIP3     H2       HT       0.417000       1.00800           0
     99515 TIP3     29867    TIP3     OH2      OT      -0.834000       15.9994           0
     99516 TIP3     29867    TIP3     H1       HT       0.417000       1.00800           0
     99517 TIP3     29867    TIP3     H2       HT       0.417000       1.00800           0
     99518 TIP3     29868    TIP3     OH2      OT      -0.834000       15.9994           0
     99519 TIP3     29868    TIP3     H1       HT       0.417000       1.00800           0
     99520 TIP3     29868    TIP3     H2       HT       0.417000       1.00800           0
     99521 TIP3     29869    TIP3     OH2      OT      -0.834000       15.9994           0
     99522 TIP3     29869    TIP3     H1       HT       0.417000       1.00800           0
     99523 TIP3     29869    TIP3     H2       HT       0.417000       1.00800           0
     99524 TIP3     29870    TIP3     OH2      OT      -0.834000       15.9994           0
     99525 TIP3     29870    TIP3     H1       HT       0.417000       1.00800           0
     99526 TIP3     29870    TIP3     H2       HT       0.417000       1.00800           0
     99527 TIP3     29871    TIP3     OH2      OT      -0.834000       15.9994           0
     99528 TIP3     29871    TIP3     H1       HT       0.417000       1.00800           0
     99529 TIP3     29871    TIP3     H2       HT       0.417000       1.00800           0
     99530 TIP3     29872    TIP3     OH2      OT      -0.834000       15.9994           0
     99531 TIP3     29872    TIP3     H1       HT       0.417000       1.00800           0
     99532 TIP3     29872    TIP3     H2       HT       0.417000       1.00800           0
     99533 TIP3     29873    TIP3     OH2      OT      -0.834000       15.9994           0
     99534 TIP3     29873    TIP3     H1       HT       0.417000       1.00800           0
     99535 TIP3     29873    TIP3     H2       HT       0.417000       1.00800           0
     99536 TIP3     29874    TIP3     OH2      OT      -0.834000       15.9994           0
     99537 TIP3     29874    TIP3     H1       HT       0.417000       1.00800           0
     99538 TIP3     29874    TIP3     H2       HT       0.417000       1.00800           0
     99539 TIP3     29875    TIP3     OH2      OT      -0.834000       15.9994           0
     99540 TIP3     29875    TIP3     H1       HT       0.417000       1.00800           0
     99541 TIP3     29875    TIP3     H2       HT       0.417000       1.00800           0
     99542 TIP3     29876    TIP3     OH2      OT      -0.834000       15.9994           0
     99543 TIP3     29876    TIP3     H1       HT       0.417000       1.00800           0
     99544 TIP3     29876    TIP3     H2       HT       0.417000       1.00800           0
     99545 TIP3     29877    TIP3     OH2      OT      -0.834000       15.9994           0
     99546 TIP3     29877    TIP3     H1       HT       0.417000       1.00800           0
     99547 TIP3     29877    TIP3     H2       HT       0.417000       1.00800           0
     99548 TIP3     29878    TIP3     OH2      OT      -0.834000       15.9994           0
     99549 TIP3     29878    TIP3     H1       HT       0.417000       1.00800           0
     99550 TIP3     29878    TIP3     H2       HT       0.417000       1.00800           0
     99551 TIP3     29879    TIP3     OH2      OT      -0.834000       15.9994           0
     99552 TIP3     29879    TIP3     H1       HT       0.417000       1.00800           0
     99553 TIP3     29879    TIP3     H2       HT       0.417000       1.00800           0
     99554 TIP3     29880    TIP3     OH2      OT      -0.834000       15.9994           0
     99555 TIP3     29880    TIP3     H1       HT       0.417000       1.00800           0
     99556 TIP3     29880    TIP3     H2       HT       0.417000       1.00800           0
     99557 TIP3     29881    TIP3     OH2      OT      -0.834000       15.9994           0
     99558 TIP3     29881    TIP3     H1       HT       0.417000       1.00800           0
     99559 TIP3     29881    TIP3     H2       HT       0.417000       1.00800           0
     99560 TIP3     29882    TIP3     OH2      OT      -0.834000       15.9994           0
     99561 TIP3     29882    TIP3     H1       HT       0.417000       1.00800           0
     99562 TIP3     29882    TIP3     H2       HT       0.417000       1.00800           0
     99563 TIP3     29883    TIP3     OH2      OT      -0.834000       15.9994           0
     99564 TIP3     29883    TIP3     H1       HT       0.417000       1.00800           0
     99565 TIP3     29883    TIP3     H2       HT       0.417000       1.00800           0
     99566 TIP3     29884    TIP3     OH2      OT      -0.834000       15.9994           0
     99567 TIP3     29884    TIP3     H1       HT       0.417000       1.00800           0
     99568 TIP3     29884    TIP3     H2       HT       0.417000       1.00800           0
     99569 TIP3     29885    TIP3     OH2      OT      -0.834000       15.9994           0
     99570 TIP3     29885    TIP3     H1       HT       0.417000       1.00800           0
     99571 TIP3     29885    TIP3     H2       HT       0.417000       1.00800           0
     99572 TIP3     29886    TIP3     OH2      OT      -0.834000       15.9994           0
     99573 TIP3     29886    TIP3     H1       HT       0.417000       1.00800           0
     99574 TIP3     29886    TIP3     H2       HT       0.417000       1.00800           0
     99575 TIP3     29887    TIP3     OH2      OT      -0.834000       15.9994           0
     99576 TIP3     29887    TIP3     H1       HT       0.417000       1.00800           0
     99577 TIP3     29887    TIP3     H2       HT       0.417000       1.00800           0
     99578 TIP3     29888    TIP3     OH2      OT      -0.834000       15.9994           0
     99579 TIP3     29888    TIP3     H1       HT       0.417000       1.00800           0
     99580 TIP3     29888    TIP3     H2       HT       0.417000       1.00800           0
     99581 TIP3     29889    TIP3     OH2      OT      -0.834000       15.9994           0
     99582 TIP3     29889    TIP3     H1       HT       0.417000       1.00800           0
     99583 TIP3     29889    TIP3     H2       HT       0.417000       1.00800           0
     99584 TIP3     29890    TIP3     OH2      OT      -0.834000       15.9994           0
     99585 TIP3     29890    TIP3     H1       HT       0.417000       1.00800           0
     99586 TIP3     29890    TIP3     H2       HT       0.417000       1.00800           0
     99587 TIP3     29891    TIP3     OH2      OT      -0.834000       15.9994           0
     99588 TIP3     29891    TIP3     H1       HT       0.417000       1.00800           0
     99589 TIP3     29891    TIP3     H2       HT       0.417000       1.00800           0
     99590 TIP3     29892    TIP3     OH2      OT      -0.834000       15.9994           0
     99591 TIP3     29892    TIP3     H1       HT       0.417000       1.00800           0
     99592 TIP3     29892    TIP3     H2       HT       0.417000       1.00800           0
     99593 TIP3     29893    TIP3     OH2      OT      -0.834000       15.9994           0
     99594 TIP3     29893    TIP3     H1       HT       0.417000       1.00800           0
     99595 TIP3     29893    TIP3     H2       HT       0.417000       1.00800           0
     99596 TIP3     29894    TIP3     OH2      OT      -0.834000       15.9994           0
     99597 TIP3     29894    TIP3     H1       HT       0.417000       1.00800           0
     99598 TIP3     29894    TIP3     H2       HT       0.417000       1.00800           0
     99599 TIP3     29895    TIP3     OH2      OT      -0.834000       15.9994           0
     99600 TIP3     29895    TIP3     H1       HT       0.417000       1.00800           0
     99601 TIP3     29895    TIP3     H2       HT       0.417000       1.00800           0
     99602 TIP3     29896    TIP3     OH2      OT      -0.834000       15.9994           0
     99603 TIP3     29896    TIP3     H1       HT       0.417000       1.00800           0
     99604 TIP3     29896    TIP3     H2       HT       0.417000       1.00800           0
     99605 TIP3     29897    TIP3     OH2      OT      -0.834000       15.9994           0
     99606 TIP3     29897    TIP3     H1       HT       0.417000       1.00800           0
     99607 TIP3     29897    TIP3     H2       HT       0.417000       1.00800           0
     99608 TIP3     29898    TIP3     OH2      OT      -0.834000       15.9994           0
     99609 TIP3     29898    TIP3     H1       HT       0.417000       1.00800           0
     99610 TIP3     29898    TIP3     H2       HT       0.417000       1.00800           0
     99611 TIP3     29899    TIP3     OH2      OT      -0.834000       15.9994           0
     99612 TIP3     29899    TIP3     H1       HT       0.417000       1.00800           0
     99613 TIP3     29899    TIP3     H2       HT       0.417000       1.00800           0
     99614 TIP3     29900    TIP3     OH2      OT      -0.834000       15.9994           0
     99615 TIP3     29900    TIP3     H1       HT       0.417000       1.00800           0
     99616 TIP3     29900    TIP3     H2       HT       0.417000       1.00800           0
     99617 TIP3     29901    TIP3     OH2      OT      -0.834000       15.9994           0
     99618 TIP3     29901    TIP3     H1       HT       0.417000       1.00800           0
     99619 TIP3     29901    TIP3     H2       HT       0.417000       1.00800           0
     99620 TIP3     29902    TIP3     OH2      OT      -0.834000       15.9994           0
     99621 TIP3     29902    TIP3     H1       HT       0.417000       1.00800           0
     99622 TIP3     29902    TIP3     H2       HT       0.417000       1.00800           0
     99623 TIP3     29903    TIP3     OH2      OT      -0.834000       15.9994           0
     99624 TIP3     29903    TIP3     H1       HT       0.417000       1.00800           0
     99625 TIP3     29903    TIP3     H2       HT       0.417000       1.00800           0
     99626 TIP3     29904    TIP3     OH2      OT      -0.834000       15.9994           0
     99627 TIP3     29904    TIP3     H1       HT       0.417000       1.00800           0
     99628 TIP3     29904    TIP3     H2       HT       0.417000       1.00800           0
     99629 TIP3     29905    TIP3     OH2      OT      -0.834000       15.9994           0
     99630 TIP3     29905    TIP3     H1       HT       0.417000       1.00800           0
     99631 TIP3     29905    TIP3     H2       HT       0.417000       1.00800           0
     99632 TIP3     29906    TIP3     OH2      OT      -0.834000       15.9994           0
     99633 TIP3     29906    TIP3     H1       HT       0.417000       1.00800           0
     99634 TIP3     29906    TIP3     H2       HT       0.417000       1.00800           0
     99635 TIP3     29907    TIP3     OH2      OT      -0.834000       15.9994           0
     99636 TIP3     29907    TIP3     H1       HT       0.417000       1.00800           0
     99637 TIP3     29907    TIP3     H2       HT       0.417000       1.00800           0
     99638 TIP3     29908    TIP3     OH2      OT      -0.834000       15.9994           0
     99639 TIP3     29908    TIP3     H1       HT       0.417000       1.00800           0
     99640 TIP3     29908    TIP3     H2       HT       0.417000       1.00800           0
     99641 TIP3     29909    TIP3     OH2      OT      -0.834000       15.9994           0
     99642 TIP3     29909    TIP3     H1       HT       0.417000       1.00800           0
     99643 TIP3     29909    TIP3     H2       HT       0.417000       1.00800           0
     99644 TIP3     29910    TIP3     OH2      OT      -0.834000       15.9994           0
     99645 TIP3     29910    TIP3     H1       HT       0.417000       1.00800           0
     99646 TIP3     29910    TIP3     H2       HT       0.417000       1.00800           0
     99647 TIP3     29911    TIP3     OH2      OT      -0.834000       15.9994           0
     99648 TIP3     29911    TIP3     H1       HT       0.417000       1.00800           0
     99649 TIP3     29911    TIP3     H2       HT       0.417000       1.00800           0
     99650 TIP3     29912    TIP3     OH2      OT      -0.834000       15.9994           0
     99651 TIP3     29912    TIP3     H1       HT       0.417000       1.00800           0
     99652 TIP3     29912    TIP3     H2       HT       0.417000       1.00800           0
     99653 TIP3     29913    TIP3     OH2      OT      -0.834000       15.9994           0
     99654 TIP3     29913    TIP3     H1       HT       0.417000       1.00800           0
     99655 TIP3     29913    TIP3     H2       HT       0.417000       1.00800           0
     99656 TIP3     29914    TIP3     OH2      OT      -0.834000       15.9994           0
     99657 TIP3     29914    TIP3     H1       HT       0.417000       1.00800           0
     99658 TIP3     29914    TIP3     H2       HT       0.417000       1.00800           0
     99659 TIP3     29915    TIP3     OH2      OT      -0.834000       15.9994           0
     99660 TIP3     29915    TIP3     H1       HT       0.417000       1.00800           0
     99661 TIP3     29915    TIP3     H2       HT       0.417000       1.00800           0
     99662 TIP3     29916    TIP3     OH2      OT      -0.834000       15.9994           0
     99663 TIP3     29916    TIP3     H1       HT       0.417000       1.00800           0
     99664 TIP3     29916    TIP3     H2       HT       0.417000       1.00800           0
     99665 TIP3     29917    TIP3     OH2      OT      -0.834000       15.9994           0
     99666 TIP3     29917    TIP3     H1       HT       0.417000       1.00800           0
     99667 TIP3     29917    TIP3     H2       HT       0.417000       1.00800           0
     99668 TIP3     29918    TIP3     OH2      OT      -0.834000       15.9994           0
     99669 TIP3     29918    TIP3     H1       HT       0.417000       1.00800           0
     99670 TIP3     29918    TIP3     H2       HT       0.417000       1.00800           0
     99671 TIP3     29919    TIP3     OH2      OT      -0.834000       15.9994           0
     99672 TIP3     29919    TIP3     H1       HT       0.417000       1.00800           0
     99673 TIP3     29919    TIP3     H2       HT       0.417000       1.00800           0
     99674 TIP3     29920    TIP3     OH2      OT      -0.834000       15.9994           0
     99675 TIP3     29920    TIP3     H1       HT       0.417000       1.00800           0
     99676 TIP3     29920    TIP3     H2       HT       0.417000       1.00800           0
     99677 TIP3     29921    TIP3     OH2      OT      -0.834000       15.9994           0
     99678 TIP3     29921    TIP3     H1       HT       0.417000       1.00800           0
     99679 TIP3     29921    TIP3     H2       HT       0.417000       1.00800           0
     99680 TIP3     29922    TIP3     OH2      OT      -0.834000       15.9994           0
     99681 TIP3     29922    TIP3     H1       HT       0.417000       1.00800           0
     99682 TIP3     29922    TIP3     H2       HT       0.417000       1.00800           0
     99683 TIP3     29923    TIP3     OH2      OT      -0.834000       15.9994           0
     99684 TIP3     29923    TIP3     H1       HT       0.417000       1.00800           0
     99685 TIP3     29923    TIP3     H2       HT       0.417000       1.00800           0
     99686 TIP3     29924    TIP3     OH2      OT      -0.834000       15.9994           0
     99687 TIP3     29924    TIP3     H1       HT       0.417000       1.00800           0
     99688 TIP3     29924    TIP3     H2       HT       0.417000       1.00800           0
     99689 TIP3     29925    TIP3     OH2      OT      -0.834000       15.9994           0
     99690 TIP3     29925    TIP3     H1       HT       0.417000       1.00800           0
     99691 TIP3     29925    TIP3     H2       HT       0.417000       1.00800           0
     99692 TIP3     29926    TIP3     OH2      OT      -0.834000       15.9994           0
     99693 TIP3     29926    TIP3     H1       HT       0.417000       1.00800           0
     99694 TIP3     29926    TIP3     H2       HT       0.417000       1.00800           0
     99695 TIP3     29927    TIP3     OH2      OT      -0.834000       15.9994           0
     99696 TIP3     29927    TIP3     H1       HT       0.417000       1.00800           0
     99697 TIP3     29927    TIP3     H2       HT       0.417000       1.00800           0
     99698 TIP3     29928    TIP3     OH2      OT      -0.834000       15.9994           0
     99699 TIP3     29928    TIP3     H1       HT       0.417000       1.00800           0
     99700 TIP3     29928    TIP3     H2       HT       0.417000       1.00800           0
     99701 TIP3     29929    TIP3     OH2      OT      -0.834000       15.9994           0
     99702 TIP3     29929    TIP3     H1       HT       0.417000       1.00800           0
     99703 TIP3     29929    TIP3     H2       HT       0.417000       1.00800           0
     99704 TIP3     29930    TIP3     OH2      OT      -0.834000       15.9994           0
     99705 TIP3     29930    TIP3     H1       HT       0.417000       1.00800           0
     99706 TIP3     29930    TIP3     H2       HT       0.417000       1.00800           0
     99707 TIP3     29931    TIP3     OH2      OT      -0.834000       15.9994           0
     99708 TIP3     29931    TIP3     H1       HT       0.417000       1.00800           0
     99709 TIP3     29931    TIP3     H2       HT       0.417000       1.00800           0
     99710 TIP3     29932    TIP3     OH2      OT      -0.834000       15.9994           0
     99711 TIP3     29932    TIP3     H1       HT       0.417000       1.00800           0
     99712 TIP3     29932    TIP3     H2       HT       0.417000       1.00800           0
     99713 TIP3     29933    TIP3     OH2      OT      -0.834000       15.9994           0
     99714 TIP3     29933    TIP3     H1       HT       0.417000       1.00800           0
     99715 TIP3     29933    TIP3     H2       HT       0.417000       1.00800           0
     99716 TIP3     29934    TIP3     OH2      OT      -0.834000       15.9994           0
     99717 TIP3     29934    TIP3     H1       HT       0.417000       1.00800           0
     99718 TIP3     29934    TIP3     H2       HT       0.417000       1.00800           0
     99719 TIP3     29935    TIP3     OH2      OT      -0.834000       15.9994           0
     99720 TIP3     29935    TIP3     H1       HT       0.417000       1.00800           0
     99721 TIP3     29935    TIP3     H2       HT       0.417000       1.00800           0
     99722 TIP3     29936    TIP3     OH2      OT      -0.834000       15.9994           0
     99723 TIP3     29936    TIP3     H1       HT       0.417000       1.00800           0
     99724 TIP3     29936    TIP3     H2       HT       0.417000       1.00800           0
     99725 TIP3     29937    TIP3     OH2      OT      -0.834000       15.9994           0
     99726 TIP3     29937    TIP3     H1       HT       0.417000       1.00800           0
     99727 TIP3     29937    TIP3     H2       HT       0.417000       1.00800           0
     99728 TIP3     29938    TIP3     OH2      OT      -0.834000       15.9994           0
     99729 TIP3     29938    TIP3     H1       HT       0.417000       1.00800           0
     99730 TIP3     29938    TIP3     H2       HT       0.417000       1.00800           0
     99731 TIP3     29939    TIP3     OH2      OT      -0.834000       15.9994           0
     99732 TIP3     29939    TIP3     H1       HT       0.417000       1.00800           0
     99733 TIP3     29939    TIP3     H2       HT       0.417000       1.00800           0
     99734 TIP3     29940    TIP3     OH2      OT      -0.834000       15.9994           0
     99735 TIP3     29940    TIP3     H1       HT       0.417000       1.00800           0
     99736 TIP3     29940    TIP3     H2       HT       0.417000       1.00800           0
     99737 TIP3     29941    TIP3     OH2      OT      -0.834000       15.9994           0
     99738 TIP3     29941    TIP3     H1       HT       0.417000       1.00800           0
     99739 TIP3     29941    TIP3     H2       HT       0.417000       1.00800           0
     99740 TIP3     29942    TIP3     OH2      OT      -0.834000       15.9994           0
     99741 TIP3     29942    TIP3     H1       HT       0.417000       1.00800           0
     99742 TIP3     29942    TIP3     H2       HT       0.417000       1.00800           0
     99743 TIP3     29943    TIP3     OH2      OT      -0.834000       15.9994           0
     99744 TIP3     29943    TIP3     H1       HT       0.417000       1.00800           0
     99745 TIP3     29943    TIP3     H2       HT       0.417000       1.00800           0
     99746 TIP3     29944    TIP3     OH2      OT      -0.834000       15.9994           0
     99747 TIP3     29944    TIP3     H1       HT       0.417000       1.00800           0
     99748 TIP3     29944    TIP3     H2       HT       0.417000       1.00800           0
     99749 TIP3     29945    TIP3     OH2      OT      -0.834000       15.9994           0
     99750 TIP3     29945    TIP3     H1       HT       0.417000       1.00800           0
     99751 TIP3     29945    TIP3     H2       HT       0.417000       1.00800           0
     99752 TIP3     29946    TIP3     OH2      OT      -0.834000       15.9994           0
     99753 TIP3     29946    TIP3     H1       HT       0.417000       1.00800           0
     99754 TIP3     29946    TIP3     H2       HT       0.417000       1.00800           0
     99755 TIP3     29947    TIP3     OH2      OT      -0.834000       15.9994           0
     99756 TIP3     29947    TIP3     H1       HT       0.417000       1.00800           0
     99757 TIP3     29947    TIP3     H2       HT       0.417000       1.00800           0
     99758 TIP3     29948    TIP3     OH2      OT      -0.834000       15.9994           0
     99759 TIP3     29948    TIP3     H1       HT       0.417000       1.00800           0
     99760 TIP3     29948    TIP3     H2       HT       0.417000       1.00800           0
     99761 TIP3     29949    TIP3     OH2      OT      -0.834000       15.9994           0
     99762 TIP3     29949    TIP3     H1       HT       0.417000       1.00800           0
     99763 TIP3     29949    TIP3     H2       HT       0.417000       1.00800           0
     99764 TIP3     29950    TIP3     OH2      OT      -0.834000       15.9994           0
     99765 TIP3     29950    TIP3     H1       HT       0.417000       1.00800           0
     99766 TIP3     29950    TIP3     H2       HT       0.417000       1.00800           0
     99767 TIP3     29951    TIP3     OH2      OT      -0.834000       15.9994           0
     99768 TIP3     29951    TIP3     H1       HT       0.417000       1.00800           0
     99769 TIP3     29951    TIP3     H2       HT       0.417000       1.00800           0
     99770 TIP3     29952    TIP3     OH2      OT      -0.834000       15.9994           0
     99771 TIP3     29952    TIP3     H1       HT       0.417000       1.00800           0
     99772 TIP3     29952    TIP3     H2       HT       0.417000       1.00800           0
     99773 TIP3     29953    TIP3     OH2      OT      -0.834000       15.9994           0
     99774 TIP3     29953    TIP3     H1       HT       0.417000       1.00800           0
     99775 TIP3     29953    TIP3     H2       HT       0.417000       1.00800           0
     99776 TIP3     29954    TIP3     OH2      OT      -0.834000       15.9994           0
     99777 TIP3     29954    TIP3     H1       HT       0.417000       1.00800           0
     99778 TIP3     29954    TIP3     H2       HT       0.417000       1.00800           0
     99779 TIP3     29955    TIP3     OH2      OT      -0.834000       15.9994           0
     99780 TIP3     29955    TIP3     H1       HT       0.417000       1.00800           0
     99781 TIP3     29955    TIP3     H2       HT       0.417000       1.00800           0
     99782 TIP3     29956    TIP3     OH2      OT      -0.834000       15.9994           0
     99783 TIP3     29956    TIP3     H1       HT       0.417000       1.00800           0
     99784 TIP3     29956    TIP3     H2       HT       0.417000       1.00800           0
     99785 TIP3     29957    TIP3     OH2      OT      -0.834000       15.9994           0
     99786 TIP3     29957    TIP3     H1       HT       0.417000       1.00800           0
     99787 TIP3     29957    TIP3     H2       HT       0.417000       1.00800           0
     99788 TIP3     29958    TIP3     OH2      OT      -0.834000       15.9994           0
     99789 TIP3     29958    TIP3     H1       HT       0.417000       1.00800           0
     99790 TIP3     29958    TIP3     H2       HT       0.417000       1.00800           0
     99791 TIP3     29959    TIP3     OH2      OT      -0.834000       15.9994           0
     99792 TIP3     29959    TIP3     H1       HT       0.417000       1.00800           0
     99793 TIP3     29959    TIP3     H2       HT       0.417000       1.00800           0
     99794 TIP3     29960    TIP3     OH2      OT      -0.834000       15.9994           0
     99795 TIP3     29960    TIP3     H1       HT       0.417000       1.00800           0
     99796 TIP3     29960    TIP3     H2       HT       0.417000       1.00800           0
     99797 TIP3     29961    TIP3     OH2      OT      -0.834000       15.9994           0
     99798 TIP3     29961    TIP3     H1       HT       0.417000       1.00800           0
     99799 TIP3     29961    TIP3     H2       HT       0.417000       1.00800           0
     99800 TIP3     29962    TIP3     OH2      OT      -0.834000       15.9994           0
     99801 TIP3     29962    TIP3     H1       HT       0.417000       1.00800           0
     99802 TIP3     29962    TIP3     H2       HT       0.417000       1.00800           0
     99803 TIP3     29963    TIP3     OH2      OT      -0.834000       15.9994           0
     99804 TIP3     29963    TIP3     H1       HT       0.417000       1.00800           0
     99805 TIP3     29963    TIP3     H2       HT       0.417000       1.00800           0
     99806 TIP3     29964    TIP3     OH2      OT      -0.834000       15.9994           0
     99807 TIP3     29964    TIP3     H1       HT       0.417000       1.00800           0
     99808 TIP3     29964    TIP3     H2       HT       0.417000       1.00800           0
     99809 TIP3     29965    TIP3     OH2      OT      -0.834000       15.9994           0
     99810 TIP3     29965    TIP3     H1       HT       0.417000       1.00800           0
     99811 TIP3     29965    TIP3     H2       HT       0.417000       1.00800           0
     99812 TIP3     29966    TIP3     OH2      OT      -0.834000       15.9994           0
     99813 TIP3     29966    TIP3     H1       HT       0.417000       1.00800           0
     99814 TIP3     29966    TIP3     H2       HT       0.417000       1.00800           0
     99815 TIP3     29967    TIP3     OH2      OT      -0.834000       15.9994           0
     99816 TIP3     29967    TIP3     H1       HT       0.417000       1.00800           0
     99817 TIP3     29967    TIP3     H2       HT       0.417000       1.00800           0
     99818 TIP3     29968    TIP3     OH2      OT      -0.834000       15.9994           0
     99819 TIP3     29968    TIP3     H1       HT       0.417000       1.00800           0
     99820 TIP3     29968    TIP3     H2       HT       0.417000       1.00800           0
     99821 TIP3     29969    TIP3     OH2      OT      -0.834000       15.9994           0
     99822 TIP3     29969    TIP3     H1       HT       0.417000       1.00800           0
     99823 TIP3     29969    TIP3     H2       HT       0.417000       1.00800           0
     99824 TIP3     29970    TIP3     OH2      OT      -0.834000       15.9994           0
     99825 TIP3     29970    TIP3     H1       HT       0.417000       1.00800           0
     99826 TIP3     29970    TIP3     H2       HT       0.417000       1.00800           0
     99827 TIP3     29971    TIP3     OH2      OT      -0.834000       15.9994           0
     99828 TIP3     29971    TIP3     H1       HT       0.417000       1.00800           0
     99829 TIP3     29971    TIP3     H2       HT       0.417000       1.00800           0
     99830 TIP3     29972    TIP3     OH2      OT      -0.834000       15.9994           0
     99831 TIP3     29972    TIP3     H1       HT       0.417000       1.00800           0
     99832 TIP3     29972    TIP3     H2       HT       0.417000       1.00800           0
     99833 TIP3     29973    TIP3     OH2      OT      -0.834000       15.9994           0
     99834 TIP3     29973    TIP3     H1       HT       0.417000       1.00800           0
     99835 TIP3     29973    TIP3     H2       HT       0.417000       1.00800           0
     99836 TIP3     29974    TIP3     OH2      OT      -0.834000       15.9994           0
     99837 TIP3     29974    TIP3     H1       HT       0.417000       1.00800           0
     99838 TIP3     29974    TIP3     H2       HT       0.417000       1.00800           0
     99839 TIP3     29975    TIP3     OH2      OT      -0.834000       15.9994           0
     99840 TIP3     29975    TIP3     H1       HT       0.417000       1.00800           0
     99841 TIP3     29975    TIP3     H2       HT       0.417000       1.00800           0
     99842 TIP3     29976    TIP3     OH2      OT      -0.834000       15.9994           0
     99843 TIP3     29976    TIP3     H1       HT       0.417000       1.00800           0
     99844 TIP3     29976    TIP3     H2       HT       0.417000       1.00800           0
     99845 TIP3     29977    TIP3     OH2      OT      -0.834000       15.9994           0
     99846 TIP3     29977    TIP3     H1       HT       0.417000       1.00800           0
     99847 TIP3     29977    TIP3     H2       HT       0.417000       1.00800           0
     99848 TIP3     29978    TIP3     OH2      OT      -0.834000       15.9994           0
     99849 TIP3     29978    TIP3     H1       HT       0.417000       1.00800           0
     99850 TIP3     29978    TIP3     H2       HT       0.417000       1.00800           0
     99851 TIP3     29979    TIP3     OH2      OT      -0.834000       15.9994           0
     99852 TIP3     29979    TIP3     H1       HT       0.417000       1.00800           0
     99853 TIP3     29979    TIP3     H2       HT       0.417000       1.00800           0
     99854 TIP3     29980    TIP3     OH2      OT      -0.834000       15.9994           0
     99855 TIP3     29980    TIP3     H1       HT       0.417000       1.00800           0
     99856 TIP3     29980    TIP3     H2       HT       0.417000       1.00800           0
     99857 TIP3     29981    TIP3     OH2      OT      -0.834000       15.9994           0
     99858 TIP3     29981    TIP3     H1       HT       0.417000       1.00800           0
     99859 TIP3     29981    TIP3     H2       HT       0.417000       1.00800           0
     99860 TIP3     29982    TIP3     OH2      OT      -0.834000       15.9994           0
     99861 TIP3     29982    TIP3     H1       HT       0.417000       1.00800           0
     99862 TIP3     29982    TIP3     H2       HT       0.417000       1.00800           0
     99863 TIP3     29983    TIP3     OH2      OT      -0.834000       15.9994           0
     99864 TIP3     29983    TIP3     H1       HT       0.417000       1.00800           0
     99865 TIP3     29983    TIP3     H2       HT       0.417000       1.00800           0
     99866 TIP3     29984    TIP3     OH2      OT      -0.834000       15.9994           0
     99867 TIP3     29984    TIP3     H1       HT       0.417000       1.00800           0
     99868 TIP3     29984    TIP3     H2       HT       0.417000       1.00800           0
     99869 TIP3     29985    TIP3     OH2      OT      -0.834000       15.9994           0
     99870 TIP3     29985    TIP3     H1       HT       0.417000       1.00800           0
     99871 TIP3     29985    TIP3     H2       HT       0.417000       1.00800           0
     99872 TIP3     29986    TIP3     OH2      OT      -0.834000       15.9994           0
     99873 TIP3     29986    TIP3     H1       HT       0.417000       1.00800           0
     99874 TIP3     29986    TIP3     H2       HT       0.417000       1.00800           0
     99875 TIP3     29987    TIP3     OH2      OT      -0.834000       15.9994           0
     99876 TIP3     29987    TIP3     H1       HT       0.417000       1.00800           0
     99877 TIP3     29987    TIP3     H2       HT       0.417000       1.00800           0
     99878 TIP3     29988    TIP3     OH2      OT      -0.834000       15.9994           0
     99879 TIP3     29988    TIP3     H1       HT       0.417000       1.00800           0
     99880 TIP3     29988    TIP3     H2       HT       0.417000       1.00800           0
     99881 TIP3     29989    TIP3     OH2      OT      -0.834000       15.9994           0
     99882 TIP3     29989    TIP3     H1       HT       0.417000       1.00800           0
     99883 TIP3     29989    TIP3     H2       HT       0.417000       1.00800           0
     99884 TIP3     29990    TIP3     OH2      OT      -0.834000       15.9994           0
     99885 TIP3     29990    TIP3     H1       HT       0.417000       1.00800           0
     99886 TIP3     29990    TIP3     H2       HT       0.417000       1.00800           0
     99887 TIP3     29991    TIP3     OH2      OT      -0.834000       15.9994           0
     99888 TIP3     29991    TIP3     H1       HT       0.417000       1.00800           0
     99889 TIP3     29991    TIP3     H2       HT       0.417000       1.00800           0
     99890 TIP3     29992    TIP3     OH2      OT      -0.834000       15.9994           0
     99891 TIP3     29992    TIP3     H1       HT       0.417000       1.00800           0
     99892 TIP3     29992    TIP3     H2       HT       0.417000       1.00800           0
     99893 TIP3     29993    TIP3     OH2      OT      -0.834000       15.9994           0
     99894 TIP3     29993    TIP3     H1       HT       0.417000       1.00800           0
     99895 TIP3     29993    TIP3     H2       HT       0.417000       1.00800           0
     99896 TIP3     29994    TIP3     OH2      OT      -0.834000       15.9994           0
     99897 TIP3     29994    TIP3     H1       HT       0.417000       1.00800           0
     99898 TIP3     29994    TIP3     H2       HT       0.417000       1.00800           0
     99899 TIP3     29995    TIP3     OH2      OT      -0.834000       15.9994           0
     99900 TIP3     29995    TIP3     H1       HT       0.417000       1.00800           0
     99901 TIP3     29995    TIP3     H2       HT       0.417000       1.00800           0
     99902 TIP3     29996    TIP3     OH2      OT      -0.834000       15.9994           0
     99903 TIP3     29996    TIP3     H1       HT       0.417000       1.00800           0
     99904 TIP3     29996    TIP3     H2       HT       0.417000       1.00800           0
     99905 TIP3     29997    TIP3     OH2      OT      -0.834000       15.9994           0
     99906 TIP3     29997    TIP3     H1       HT       0.417000       1.00800           0
     99907 TIP3     29997    TIP3     H2       HT       0.417000       1.00800           0
     99908 TIP3     29998    TIP3     OH2      OT      -0.834000       15.9994           0
     99909 TIP3     29998    TIP3     H1       HT       0.417000       1.00800           0
     99910 TIP3     29998    TIP3     H2       HT       0.417000       1.00800           0
     99911 TIP3     29999    TIP3     OH2      OT      -0.834000       15.9994           0
     99912 TIP3     29999    TIP3     H1       HT       0.417000       1.00800           0
     99913 TIP3     29999    TIP3     H2       HT       0.417000       1.00800           0
     99914 TIP3     30000    TIP3     OH2      OT      -0.834000       15.9994           0
     99915 TIP3     30000    TIP3     H1       HT       0.417000       1.00800           0
     99916 TIP3     30000    TIP3     H2       HT       0.417000       1.00800           0
     99917 TIP3     30001    TIP3     OH2      OT      -0.834000       15.9994           0
     99918 TIP3     30001    TIP3     H1       HT       0.417000       1.00800           0
     99919 TIP3     30001    TIP3     H2       HT       0.417000       1.00800           0
     99920 TIP3     30002    TIP3     OH2      OT      -0.834000       15.9994           0
     99921 TIP3     30002    TIP3     H1       HT       0.417000       1.00800           0
     99922 TIP3     30002    TIP3     H2       HT       0.417000       1.00800           0
     99923 TIP3     30003    TIP3     OH2      OT      -0.834000       15.9994           0
     99924 TIP3     30003    TIP3     H1       HT       0.417000       1.00800           0
     99925 TIP3     30003    TIP3     H2       HT       0.417000       1.00800           0
     99926 TIP3     30004    TIP3     OH2      OT      -0.834000       15.9994           0
     99927 TIP3     30004    TIP3     H1       HT       0.417000       1.00800           0
     99928 TIP3     30004    TIP3     H2       HT       0.417000       1.00800           0
     99929 TIP3     30005    TIP3     OH2      OT      -0.834000       15.9994           0
     99930 TIP3     30005    TIP3     H1       HT       0.417000       1.00800           0
     99931 TIP3     30005    TIP3     H2       HT       0.417000       1.00800           0
     99932 TIP3     30006    TIP3     OH2      OT      -0.834000       15.9994           0
     99933 TIP3     30006    TIP3     H1       HT       0.417000       1.00800           0
     99934 TIP3     30006    TIP3     H2       HT       0.417000       1.00800           0
     99935 TIP3     30007    TIP3     OH2      OT      -0.834000       15.9994           0
     99936 TIP3     30007    TIP3     H1       HT       0.417000       1.00800           0
     99937 TIP3     30007    TIP3     H2       HT       0.417000       1.00800           0
     99938 TIP3     30008    TIP3     OH2      OT      -0.834000       15.9994           0
     99939 TIP3     30008    TIP3     H1       HT       0.417000       1.00800           0
     99940 TIP3     30008    TIP3     H2       HT       0.417000       1.00800           0
     99941 TIP3     30009    TIP3     OH2      OT      -0.834000       15.9994           0
     99942 TIP3     30009    TIP3     H1       HT       0.417000       1.00800           0
     99943 TIP3     30009    TIP3     H2       HT       0.417000       1.00800           0
     99944 TIP3     30010    TIP3     OH2      OT      -0.834000       15.9994           0
     99945 TIP3     30010    TIP3     H1       HT       0.417000       1.00800           0
     99946 TIP3     30010    TIP3     H2       HT       0.417000       1.00800           0
     99947 TIP3     30011    TIP3     OH2      OT      -0.834000       15.9994           0
     99948 TIP3     30011    TIP3     H1       HT       0.417000       1.00800           0
     99949 TIP3     30011    TIP3     H2       HT       0.417000       1.00800           0
     99950 TIP3     30012    TIP3     OH2      OT      -0.834000       15.9994           0
     99951 TIP3     30012    TIP3     H1       HT       0.417000       1.00800           0
     99952 TIP3     30012    TIP3     H2       HT       0.417000       1.00800           0
     99953 TIP3     30013    TIP3     OH2      OT      -0.834000       15.9994           0
     99954 TIP3     30013    TIP3     H1       HT       0.417000       1.00800           0
     99955 TIP3     30013    TIP3     H2       HT       0.417000       1.00800           0
     99956 TIP3     30014    TIP3     OH2      OT      -0.834000       15.9994           0
     99957 TIP3     30014    TIP3     H1       HT       0.417000       1.00800           0
     99958 TIP3     30014    TIP3     H2       HT       0.417000       1.00800           0
     99959 TIP3     30015    TIP3     OH2      OT      -0.834000       15.9994           0
     99960 TIP3     30015    TIP3     H1       HT       0.417000       1.00800           0
     99961 TIP3     30015    TIP3     H2       HT       0.417000       1.00800           0
     99962 TIP3     30016    TIP3     OH2      OT      -0.834000       15.9994           0
     99963 TIP3     30016    TIP3     H1       HT       0.417000       1.00800           0
     99964 TIP3     30016    TIP3     H2       HT       0.417000       1.00800           0
     99965 TIP3     30017    TIP3     OH2      OT      -0.834000       15.9994           0
     99966 TIP3     30017    TIP3     H1       HT       0.417000       1.00800           0
     99967 TIP3     30017    TIP3     H2       HT       0.417000       1.00800           0
     99968 TIP3     30018    TIP3     OH2      OT      -0.834000       15.9994           0
     99969 TIP3     30018    TIP3     H1       HT       0.417000       1.00800           0
     99970 TIP3     30018    TIP3     H2       HT       0.417000       1.00800           0
     99971 TIP3     30019    TIP3     OH2      OT      -0.834000       15.9994           0
     99972 TIP3     30019    TIP3     H1       HT       0.417000       1.00800           0
     99973 TIP3     30019    TIP3     H2       HT       0.417000       1.00800           0
     99974 TIP3     30020    TIP3     OH2      OT      -0.834000       15.9994           0
     99975 TIP3     30020    TIP3     H1       HT       0.417000       1.00800           0
     99976 TIP3     30020    TIP3     H2       HT       0.417000       1.00800           0
     99977 TIP3     30021    TIP3     OH2      OT      -0.834000       15.9994           0
     99978 TIP3     30021    TIP3     H1       HT       0.417000       1.00800           0
     99979 TIP3     30021    TIP3     H2       HT       0.417000       1.00800           0
     99980 TIP3     30022    TIP3     OH2      OT      -0.834000       15.9994           0
     99981 TIP3     30022    TIP3     H1       HT       0.417000       1.00800           0
     99982 TIP3     30022    TIP3     H2       HT       0.417000       1.00800           0
     99983 TIP3     30023    TIP3     OH2      OT      -0.834000       15.9994           0
     99984 TIP3     30023    TIP3     H1       HT       0.417000       1.00800           0
     99985 TIP3     30023    TIP3     H2       HT       0.417000       1.00800           0
     99986 TIP3     30024    TIP3     OH2      OT      -0.834000       15.9994           0
     99987 TIP3     30024    TIP3     H1       HT       0.417000       1.00800           0
     99988 TIP3     30024    TIP3     H2       HT       0.417000       1.00800           0
     99989 TIP3     30025    TIP3     OH2      OT      -0.834000       15.9994           0
     99990 TIP3     30025    TIP3     H1       HT       0.417000       1.00800           0
     99991 TIP3     30025    TIP3     H2       HT       0.417000       1.00800           0
     99992 TIP3     30026    TIP3     OH2      OT      -0.834000       15.9994           0
     99993 TIP3     30026    TIP3     H1       HT       0.417000       1.00800           0
     99994 TIP3     30026    TIP3     H2       HT       0.417000       1.00800           0
     99995 TIP3     30027    TIP3     OH2      OT      -0.834000       15.9994           0
     99996 TIP3     30027    TIP3     H1       HT       0.417000       1.00800           0
     99997 TIP3     30027    TIP3     H2       HT       0.417000       1.00800           0
     99998 TIP3     30028    TIP3     OH2      OT      -0.834000       15.9994           0
     99999 TIP3     30028    TIP3     H1       HT       0.417000       1.00800           0
    100000 TIP3     30028    TIP3     H2       HT       0.417000       1.00800           0
    100001 TIP3     30029    TIP3     OH2      OT      -0.834000       15.9994           0
    100002 TIP3     30029    TIP3     H1       HT       0.417000       1.00800           0
    100003 TIP3     30029    TIP3     H2       HT       0.417000       1.00800           0
    100004 TIP3     30030    TIP3     OH2      OT      -0.834000       15.9994           0
    100005 TIP3     30030    TIP3     H1       HT       0.417000       1.00800           0
    100006 TIP3     30030    TIP3     H2       HT       0.417000       1.00800           0
    100007 TIP3     30031    TIP3     OH2      OT      -0.834000       15.9994           0
    100008 TIP3     30031    TIP3     H1       HT       0.417000       1.00800           0
    100009 TIP3     30031    TIP3     H2       HT       0.417000       1.00800           0
    100010 TIP3     30032    TIP3     OH2      OT      -0.834000       15.9994           0
    100011 TIP3     30032    TIP3     H1       HT       0.417000       1.00800           0
    100012 TIP3     30032    TIP3     H2       HT       0.417000       1.00800           0
    100013 TIP3     30033    TIP3     OH2      OT      -0.834000       15.9994           0
    100014 TIP3     30033    TIP3     H1       HT       0.417000       1.00800           0
    100015 TIP3     30033    TIP3     H2       HT       0.417000       1.00800           0
    100016 TIP3     30034    TIP3     OH2      OT      -0.834000       15.9994           0
    100017 TIP3     30034    TIP3     H1       HT       0.417000       1.00800           0
    100018 TIP3     30034    TIP3     H2       HT       0.417000       1.00800           0
    100019 TIP3     30035    TIP3     OH2      OT      -0.834000       15.9994           0
    100020 TIP3     30035    TIP3     H1       HT       0.417000       1.00800           0
    100021 TIP3     30035    TIP3     H2       HT       0.417000       1.00800           0
    100022 TIP3     30036    TIP3     OH2      OT      -0.834000       15.9994           0
    100023 TIP3     30036    TIP3     H1       HT       0.417000       1.00800           0
    100024 TIP3     30036    TIP3     H2       HT       0.417000       1.00800           0
    100025 TIP3     30037    TIP3     OH2      OT      -0.834000       15.9994           0
    100026 TIP3     30037    TIP3     H1       HT       0.417000       1.00800           0
    100027 TIP3     30037    TIP3     H2       HT       0.417000       1.00800           0
    100028 TIP3     30038    TIP3     OH2      OT      -0.834000       15.9994           0
    100029 TIP3     30038    TIP3     H1       HT       0.417000       1.00800           0
    100030 TIP3     30038    TIP3     H2       HT       0.417000       1.00800           0
    100031 TIP3     30039    TIP3     OH2      OT      -0.834000       15.9994           0
    100032 TIP3     30039    TIP3     H1       HT       0.417000       1.00800           0
    100033 TIP3     30039    TIP3     H2       HT       0.417000       1.00800           0
    100034 TIP3     30040    TIP3     OH2      OT      -0.834000       15.9994           0
    100035 TIP3     30040    TIP3     H1       HT       0.417000       1.00800           0
    100036 TIP3     30040    TIP3     H2       HT       0.417000       1.00800           0
    100037 TIP3     30041    TIP3     OH2      OT      -0.834000       15.9994           0
    100038 TIP3     30041    TIP3     H1       HT       0.417000       1.00800           0
    100039 TIP3     30041    TIP3     H2       HT       0.417000       1.00800           0
    100040 TIP3     30042    TIP3     OH2      OT      -0.834000       15.9994           0
    100041 TIP3     30042    TIP3     H1       HT       0.417000       1.00800           0
    100042 TIP3     30042    TIP3     H2       HT       0.417000       1.00800           0
    100043 TIP3     30043    TIP3     OH2      OT      -0.834000       15.9994           0
    100044 TIP3     30043    TIP3     H1       HT       0.417000       1.00800           0
    100045 TIP3     30043    TIP3     H2       HT       0.417000       1.00800           0
    100046 TIP3     30044    TIP3     OH2      OT      -0.834000       15.9994           0
    100047 TIP3     30044    TIP3     H1       HT       0.417000       1.00800           0
    100048 TIP3     30044    TIP3     H2       HT       0.417000       1.00800           0
    100049 TIP3     30045    TIP3     OH2      OT      -0.834000       15.9994           0
    100050 TIP3     30045    TIP3     H1       HT       0.417000       1.00800           0
    100051 TIP3     30045    TIP3     H2       HT       0.417000       1.00800           0
    100052 TIP3     30046    TIP3     OH2      OT      -0.834000       15.9994           0
    100053 TIP3     30046    TIP3     H1       HT       0.417000       1.00800           0
    100054 TIP3     30046    TIP3     H2       HT       0.417000       1.00800           0
    100055 TIP3     30047    TIP3     OH2      OT      -0.834000       15.9994           0
    100056 TIP3     30047    TIP3     H1       HT       0.417000       1.00800           0
    100057 TIP3     30047    TIP3     H2       HT       0.417000       1.00800           0
    100058 TIP3     30048    TIP3     OH2      OT      -0.834000       15.9994           0
    100059 TIP3     30048    TIP3     H1       HT       0.417000       1.00800           0
    100060 TIP3     30048    TIP3     H2       HT       0.417000       1.00800           0
    100061 TIP3     30049    TIP3     OH2      OT      -0.834000       15.9994           0
    100062 TIP3     30049    TIP3     H1       HT       0.417000       1.00800           0
    100063 TIP3     30049    TIP3     H2       HT       0.417000       1.00800           0
    100064 TIP3     30050    TIP3     OH2      OT      -0.834000       15.9994           0
    100065 TIP3     30050    TIP3     H1       HT       0.417000       1.00800           0
    100066 TIP3     30050    TIP3     H2       HT       0.417000       1.00800           0
    100067 TIP3     30051    TIP3     OH2      OT      -0.834000       15.9994           0
    100068 TIP3     30051    TIP3     H1       HT       0.417000       1.00800           0
    100069 TIP3     30051    TIP3     H2       HT       0.417000       1.00800           0
    100070 TIP3     30052    TIP3     OH2      OT      -0.834000       15.9994           0
    100071 TIP3     30052    TIP3     H1       HT       0.417000       1.00800           0
    100072 TIP3     30052    TIP3     H2       HT       0.417000       1.00800           0
    100073 TIP3     30053    TIP3     OH2      OT      -0.834000       15.9994           0
    100074 TIP3     30053    TIP3     H1       HT       0.417000       1.00800           0
    100075 TIP3     30053    TIP3     H2       HT       0.417000       1.00800           0
    100076 TIP3     30054    TIP3     OH2      OT      -0.834000       15.9994           0
    100077 TIP3     30054    TIP3     H1       HT       0.417000       1.00800           0
    100078 TIP3     30054    TIP3     H2       HT       0.417000       1.00800           0
    100079 TIP3     30055    TIP3     OH2      OT      -0.834000       15.9994           0
    100080 TIP3     30055    TIP3     H1       HT       0.417000       1.00800           0
    100081 TIP3     30055    TIP3     H2       HT       0.417000       1.00800           0
    100082 TIP3     30056    TIP3     OH2      OT      -0.834000       15.9994           0
    100083 TIP3     30056    TIP3     H1       HT       0.417000       1.00800           0
    100084 TIP3     30056    TIP3     H2       HT       0.417000       1.00800           0
    100085 TIP3     30057    TIP3     OH2      OT      -0.834000       15.9994           0
    100086 TIP3     30057    TIP3     H1       HT       0.417000       1.00800           0
    100087 TIP3     30057    TIP3     H2       HT       0.417000       1.00800           0
    100088 TIP3     30058    TIP3     OH2      OT      -0.834000       15.9994           0
    100089 TIP3     30058    TIP3     H1       HT       0.417000       1.00800           0
    100090 TIP3     30058    TIP3     H2       HT       0.417000       1.00800           0
    100091 TIP3     30059    TIP3     OH2      OT      -0.834000       15.9994           0
    100092 TIP3     30059    TIP3     H1       HT       0.417000       1.00800           0
    100093 TIP3     30059    TIP3     H2       HT       0.417000       1.00800           0
    100094 TIP3     30060    TIP3     OH2      OT      -0.834000       15.9994           0
    100095 TIP3     30060    TIP3     H1       HT       0.417000       1.00800           0
    100096 TIP3     30060    TIP3     H2       HT       0.417000       1.00800           0
    100097 TIP3     30061    TIP3     OH2      OT      -0.834000       15.9994           0
    100098 TIP3     30061    TIP3     H1       HT       0.417000       1.00800           0
    100099 TIP3     30061    TIP3     H2       HT       0.417000       1.00800           0
    100100 TIP3     30062    TIP3     OH2      OT      -0.834000       15.9994           0
    100101 TIP3     30062    TIP3     H1       HT       0.417000       1.00800           0
    100102 TIP3     30062    TIP3     H2       HT       0.417000       1.00800           0
    100103 TIP3     30063    TIP3     OH2      OT      -0.834000       15.9994           0
    100104 TIP3     30063    TIP3     H1       HT       0.417000       1.00800           0
    100105 TIP3     30063    TIP3     H2       HT       0.417000       1.00800           0
    100106 TIP3     30064    TIP3     OH2      OT      -0.834000       15.9994           0
    100107 TIP3     30064    TIP3     H1       HT       0.417000       1.00800           0
    100108 TIP3     30064    TIP3     H2       HT       0.417000       1.00800           0
    100109 TIP3     30065    TIP3     OH2      OT      -0.834000       15.9994           0
    100110 TIP3     30065    TIP3     H1       HT       0.417000       1.00800           0
    100111 TIP3     30065    TIP3     H2       HT       0.417000       1.00800           0
    100112 TIP3     30066    TIP3     OH2      OT      -0.834000       15.9994           0
    100113 TIP3     30066    TIP3     H1       HT       0.417000       1.00800           0
    100114 TIP3     30066    TIP3     H2       HT       0.417000       1.00800           0
    100115 TIP3     30067    TIP3     OH2      OT      -0.834000       15.9994           0
    100116 TIP3     30067    TIP3     H1       HT       0.417000       1.00800           0
    100117 TIP3     30067    TIP3     H2       HT       0.417000       1.00800           0
    100118 TIP3     30068    TIP3     OH2      OT      -0.834000       15.9994           0
    100119 TIP3     30068    TIP3     H1       HT       0.417000       1.00800           0
    100120 TIP3     30068    TIP3     H2       HT       0.417000       1.00800           0
    100121 TIP3     30069    TIP3     OH2      OT      -0.834000       15.9994           0
    100122 TIP3     30069    TIP3     H1       HT       0.417000       1.00800           0
    100123 TIP3     30069    TIP3     H2       HT       0.417000       1.00800           0
    100124 TIP3     30070    TIP3     OH2      OT      -0.834000       15.9994           0
    100125 TIP3     30070    TIP3     H1       HT       0.417000       1.00800           0
    100126 TIP3     30070    TIP3     H2       HT       0.417000       1.00800           0
    100127 TIP3     30071    TIP3     OH2      OT      -0.834000       15.9994           0
    100128 TIP3     30071    TIP3     H1       HT       0.417000       1.00800           0
    100129 TIP3     30071    TIP3     H2       HT       0.417000       1.00800           0
    100130 TIP3     30072    TIP3     OH2      OT      -0.834000       15.9994           0
    100131 TIP3     30072    TIP3     H1       HT       0.417000       1.00800           0
    100132 TIP3     30072    TIP3     H2       HT       0.417000       1.00800           0
    100133 TIP3     30073    TIP3     OH2      OT      -0.834000       15.9994           0
    100134 TIP3     30073    TIP3     H1       HT       0.417000       1.00800           0
    100135 TIP3     30073    TIP3     H2       HT       0.417000       1.00800           0
    100136 TIP3     30074    TIP3     OH2      OT      -0.834000       15.9994           0
    100137 TIP3     30074    TIP3     H1       HT       0.417000       1.00800           0
    100138 TIP3     30074    TIP3     H2       HT       0.417000       1.00800           0
    100139 TIP3     30075    TIP3     OH2      OT      -0.834000       15.9994           0
    100140 TIP3     30075    TIP3     H1       HT       0.417000       1.00800           0
    100141 TIP3     30075    TIP3     H2       HT       0.417000       1.00800           0
    100142 TIP3     30076    TIP3     OH2      OT      -0.834000       15.9994           0
    100143 TIP3     30076    TIP3     H1       HT       0.417000       1.00800           0
    100144 TIP3     30076    TIP3     H2       HT       0.417000       1.00800           0
    100145 TIP3     30077    TIP3     OH2      OT      -0.834000       15.9994           0
    100146 TIP3     30077    TIP3     H1       HT       0.417000       1.00800           0
    100147 TIP3     30077    TIP3     H2       HT       0.417000       1.00800           0
    100148 TIP3     30078    TIP3     OH2      OT      -0.834000       15.9994           0
    100149 TIP3     30078    TIP3     H1       HT       0.417000       1.00800           0
    100150 TIP3     30078    TIP3     H2       HT       0.417000       1.00800           0
    100151 TIP3     30079    TIP3     OH2      OT      -0.834000       15.9994           0
    100152 TIP3     30079    TIP3     H1       HT       0.417000       1.00800           0
    100153 TIP3     30079    TIP3     H2       HT       0.417000       1.00800           0
    100154 TIP3     30080    TIP3     OH2      OT      -0.834000       15.9994           0
    100155 TIP3     30080    TIP3     H1       HT       0.417000       1.00800           0
    100156 TIP3     30080    TIP3     H2       HT       0.417000       1.00800           0
    100157 TIP3     30081    TIP3     OH2      OT      -0.834000       15.9994           0
    100158 TIP3     30081    TIP3     H1       HT       0.417000       1.00800           0
    100159 TIP3     30081    TIP3     H2       HT       0.417000       1.00800           0
    100160 TIP3     30082    TIP3     OH2      OT      -0.834000       15.9994           0
    100161 TIP3     30082    TIP3     H1       HT       0.417000       1.00800           0
    100162 TIP3     30082    TIP3     H2       HT       0.417000       1.00800           0
    100163 TIP3     30083    TIP3     OH2      OT      -0.834000       15.9994           0
    100164 TIP3     30083    TIP3     H1       HT       0.417000       1.00800           0
    100165 TIP3     30083    TIP3     H2       HT       0.417000       1.00800           0
    100166 TIP3     30084    TIP3     OH2      OT      -0.834000       15.9994           0
    100167 TIP3     30084    TIP3     H1       HT       0.417000       1.00800           0
    100168 TIP3     30084    TIP3     H2       HT       0.417000       1.00800           0
    100169 TIP3     30085    TIP3     OH2      OT      -0.834000       15.9994           0
    100170 TIP3     30085    TIP3     H1       HT       0.417000       1.00800           0
    100171 TIP3     30085    TIP3     H2       HT       0.417000       1.00800           0
    100172 TIP3     30086    TIP3     OH2      OT      -0.834000       15.9994           0
    100173 TIP3     30086    TIP3     H1       HT       0.417000       1.00800           0
    100174 TIP3     30086    TIP3     H2       HT       0.417000       1.00800           0
    100175 TIP3     30087    TIP3     OH2      OT      -0.834000       15.9994           0
    100176 TIP3     30087    TIP3     H1       HT       0.417000       1.00800           0
    100177 TIP3     30087    TIP3     H2       HT       0.417000       1.00800           0
    100178 TIP3     30088    TIP3     OH2      OT      -0.834000       15.9994           0
    100179 TIP3     30088    TIP3     H1       HT       0.417000       1.00800           0
    100180 TIP3     30088    TIP3     H2       HT       0.417000       1.00800           0
    100181 TIP3     30089    TIP3     OH2      OT      -0.834000       15.9994           0
    100182 TIP3     30089    TIP3     H1       HT       0.417000       1.00800           0
    100183 TIP3     30089    TIP3     H2       HT       0.417000       1.00800           0
    100184 TIP3     30090    TIP3     OH2      OT      -0.834000       15.9994           0
    100185 TIP3     30090    TIP3     H1       HT       0.417000       1.00800           0
    100186 TIP3     30090    TIP3     H2       HT       0.417000       1.00800           0
    100187 TIP3     30091    TIP3     OH2      OT      -0.834000       15.9994           0
    100188 TIP3     30091    TIP3     H1       HT       0.417000       1.00800           0
    100189 TIP3     30091    TIP3     H2       HT       0.417000       1.00800           0
    100190 TIP3     30092    TIP3     OH2      OT      -0.834000       15.9994           0
    100191 TIP3     30092    TIP3     H1       HT       0.417000       1.00800           0
    100192 TIP3     30092    TIP3     H2       HT       0.417000       1.00800           0
    100193 TIP3     30093    TIP3     OH2      OT      -0.834000       15.9994           0
    100194 TIP3     30093    TIP3     H1       HT       0.417000       1.00800           0
    100195 TIP3     30093    TIP3     H2       HT       0.417000       1.00800           0
    100196 TIP3     30094    TIP3     OH2      OT      -0.834000       15.9994           0
    100197 TIP3     30094    TIP3     H1       HT       0.417000       1.00800           0
    100198 TIP3     30094    TIP3     H2       HT       0.417000       1.00800           0
    100199 TIP3     30095    TIP3     OH2      OT      -0.834000       15.9994           0
    100200 TIP3     30095    TIP3     H1       HT       0.417000       1.00800           0
    100201 TIP3     30095    TIP3     H2       HT       0.417000       1.00800           0
    100202 TIP3     30096    TIP3     OH2      OT      -0.834000       15.9994           0
    100203 TIP3     30096    TIP3     H1       HT       0.417000       1.00800           0
    100204 TIP3     30096    TIP3     H2       HT       0.417000       1.00800           0
    100205 TIP3     30097    TIP3     OH2      OT      -0.834000       15.9994           0
    100206 TIP3     30097    TIP3     H1       HT       0.417000       1.00800           0
    100207 TIP3     30097    TIP3     H2       HT       0.417000       1.00800           0
    100208 TIP3     30098    TIP3     OH2      OT      -0.834000       15.9994           0
    100209 TIP3     30098    TIP3     H1       HT       0.417000       1.00800           0
    100210 TIP3     30098    TIP3     H2       HT       0.417000       1.00800           0
    100211 TIP3     30099    TIP3     OH2      OT      -0.834000       15.9994           0
    100212 TIP3     30099    TIP3     H1       HT       0.417000       1.00800           0
    100213 TIP3     30099    TIP3     H2       HT       0.417000       1.00800           0
    100214 TIP3     30100    TIP3     OH2      OT      -0.834000       15.9994           0
    100215 TIP3     30100    TIP3     H1       HT       0.417000       1.00800           0
    100216 TIP3     30100    TIP3     H2       HT       0.417000       1.00800           0
    100217 TIP3     30101    TIP3     OH2      OT      -0.834000       15.9994           0
    100218 TIP3     30101    TIP3     H1       HT       0.417000       1.00800           0
    100219 TIP3     30101    TIP3     H2       HT       0.417000       1.00800           0
    100220 TIP3     30102    TIP3     OH2      OT      -0.834000       15.9994           0
    100221 TIP3     30102    TIP3     H1       HT       0.417000       1.00800           0
    100222 TIP3     30102    TIP3     H2       HT       0.417000       1.00800           0
    100223 TIP3     30103    TIP3     OH2      OT      -0.834000       15.9994           0
    100224 TIP3     30103    TIP3     H1       HT       0.417000       1.00800           0
    100225 TIP3     30103    TIP3     H2       HT       0.417000       1.00800           0
    100226 TIP3     30104    TIP3     OH2      OT      -0.834000       15.9994           0
    100227 TIP3     30104    TIP3     H1       HT       0.417000       1.00800           0
    100228 TIP3     30104    TIP3     H2       HT       0.417000       1.00800           0
    100229 TIP3     30105    TIP3     OH2      OT      -0.834000       15.9994           0
    100230 TIP3     30105    TIP3     H1       HT       0.417000       1.00800           0
    100231 TIP3     30105    TIP3     H2       HT       0.417000       1.00800           0
    100232 TIP3     30106    TIP3     OH2      OT      -0.834000       15.9994           0
    100233 TIP3     30106    TIP3     H1       HT       0.417000       1.00800           0
    100234 TIP3     30106    TIP3     H2       HT       0.417000       1.00800           0
    100235 TIP3     30107    TIP3     OH2      OT      -0.834000       15.9994           0
    100236 TIP3     30107    TIP3     H1       HT       0.417000       1.00800           0
    100237 TIP3     30107    TIP3     H2       HT       0.417000       1.00800           0
    100238 TIP3     30108    TIP3     OH2      OT      -0.834000       15.9994           0
    100239 TIP3     30108    TIP3     H1       HT       0.417000       1.00800           0
    100240 TIP3     30108    TIP3     H2       HT       0.417000       1.00800           0
    100241 TIP3     30109    TIP3     OH2      OT      -0.834000       15.9994           0
    100242 TIP3     30109    TIP3     H1       HT       0.417000       1.00800           0
    100243 TIP3     30109    TIP3     H2       HT       0.417000       1.00800           0
    100244 TIP3     30110    TIP3     OH2      OT      -0.834000       15.9994           0
    100245 TIP3     30110    TIP3     H1       HT       0.417000       1.00800           0
    100246 TIP3     30110    TIP3     H2       HT       0.417000       1.00800           0
    100247 TIP3     30111    TIP3     OH2      OT      -0.834000       15.9994           0
    100248 TIP3     30111    TIP3     H1       HT       0.417000       1.00800           0
    100249 TIP3     30111    TIP3     H2       HT       0.417000       1.00800           0
    100250 TIP3     30112    TIP3     OH2      OT      -0.834000       15.9994           0
    100251 TIP3     30112    TIP3     H1       HT       0.417000       1.00800           0
    100252 TIP3     30112    TIP3     H2       HT       0.417000       1.00800           0
    100253 TIP3     30113    TIP3     OH2      OT      -0.834000       15.9994           0
    100254 TIP3     30113    TIP3     H1       HT       0.417000       1.00800           0
    100255 TIP3     30113    TIP3     H2       HT       0.417000       1.00800           0
    100256 TIP3     30114    TIP3     OH2      OT      -0.834000       15.9994           0
    100257 TIP3     30114    TIP3     H1       HT       0.417000       1.00800           0
    100258 TIP3     30114    TIP3     H2       HT       0.417000       1.00800           0
    100259 TIP3     30115    TIP3     OH2      OT      -0.834000       15.9994           0
    100260 TIP3     30115    TIP3     H1       HT       0.417000       1.00800           0
    100261 TIP3     30115    TIP3     H2       HT       0.417000       1.00800           0
    100262 TIP3     30116    TIP3     OH2      OT      -0.834000       15.9994           0
    100263 TIP3     30116    TIP3     H1       HT       0.417000       1.00800           0
    100264 TIP3     30116    TIP3     H2       HT       0.417000       1.00800           0
    100265 TIP3     30117    TIP3     OH2      OT      -0.834000       15.9994           0
    100266 TIP3     30117    TIP3     H1       HT       0.417000       1.00800           0
    100267 TIP3     30117    TIP3     H2       HT       0.417000       1.00800           0
    100268 TIP3     30118    TIP3     OH2      OT      -0.834000       15.9994           0
    100269 TIP3     30118    TIP3     H1       HT       0.417000       1.00800           0
    100270 TIP3     30118    TIP3     H2       HT       0.417000       1.00800           0
    100271 TIP3     30119    TIP3     OH2      OT      -0.834000       15.9994           0
    100272 TIP3     30119    TIP3     H1       HT       0.417000       1.00800           0
    100273 TIP3     30119    TIP3     H2       HT       0.417000       1.00800           0
    100274 TIP3     30120    TIP3     OH2      OT      -0.834000       15.9994           0
    100275 TIP3     30120    TIP3     H1       HT       0.417000       1.00800           0
    100276 TIP3     30120    TIP3     H2       HT       0.417000       1.00800           0
    100277 TIP3     30121    TIP3     OH2      OT      -0.834000       15.9994           0
    100278 TIP3     30121    TIP3     H1       HT       0.417000       1.00800           0
    100279 TIP3     30121    TIP3     H2       HT       0.417000       1.00800           0
    100280 TIP3     30122    TIP3     OH2      OT      -0.834000       15.9994           0
    100281 TIP3     30122    TIP3     H1       HT       0.417000       1.00800           0
    100282 TIP3     30122    TIP3     H2       HT       0.417000       1.00800           0
    100283 TIP3     30123    TIP3     OH2      OT      -0.834000       15.9994           0
    100284 TIP3     30123    TIP3     H1       HT       0.417000       1.00800           0
    100285 TIP3     30123    TIP3     H2       HT       0.417000       1.00800           0
    100286 TIP3     30124    TIP3     OH2      OT      -0.834000       15.9994           0
    100287 TIP3     30124    TIP3     H1       HT       0.417000       1.00800           0
    100288 TIP3     30124    TIP3     H2       HT       0.417000       1.00800           0
    100289 TIP3     30125    TIP3     OH2      OT      -0.834000       15.9994           0
    100290 TIP3     30125    TIP3     H1       HT       0.417000       1.00800           0
    100291 TIP3     30125    TIP3     H2       HT       0.417000       1.00800           0
    100292 TIP3     30126    TIP3     OH2      OT      -0.834000       15.9994           0
    100293 TIP3     30126    TIP3     H1       HT       0.417000       1.00800           0
    100294 TIP3     30126    TIP3     H2       HT       0.417000       1.00800           0
    100295 TIP3     30127    TIP3     OH2      OT      -0.834000       15.9994           0
    100296 TIP3     30127    TIP3     H1       HT       0.417000       1.00800           0
    100297 TIP3     30127    TIP3     H2       HT       0.417000       1.00800           0
    100298 TIP3     30128    TIP3     OH2      OT      -0.834000       15.9994           0
    100299 TIP3     30128    TIP3     H1       HT       0.417000       1.00800           0
    100300 TIP3     30128    TIP3     H2       HT       0.417000       1.00800           0
    100301 TIP3     30129    TIP3     OH2      OT      -0.834000       15.9994           0
    100302 TIP3     30129    TIP3     H1       HT       0.417000       1.00800           0
    100303 TIP3     30129    TIP3     H2       HT       0.417000       1.00800           0
    100304 TIP3     30130    TIP3     OH2      OT      -0.834000       15.9994           0
    100305 TIP3     30130    TIP3     H1       HT       0.417000       1.00800           0
    100306 TIP3     30130    TIP3     H2       HT       0.417000       1.00800           0
    100307 TIP3     30131    TIP3     OH2      OT      -0.834000       15.9994           0
    100308 TIP3     30131    TIP3     H1       HT       0.417000       1.00800           0
    100309 TIP3     30131    TIP3     H2       HT       0.417000       1.00800           0
    100310 TIP3     30132    TIP3     OH2      OT      -0.834000       15.9994           0
    100311 TIP3     30132    TIP3     H1       HT       0.417000       1.00800           0
    100312 TIP3     30132    TIP3     H2       HT       0.417000       1.00800           0
    100313 TIP3     30133    TIP3     OH2      OT      -0.834000       15.9994           0
    100314 TIP3     30133    TIP3     H1       HT       0.417000       1.00800           0
    100315 TIP3     30133    TIP3     H2       HT       0.417000       1.00800           0
    100316 TIP3     30134    TIP3     OH2      OT      -0.834000       15.9994           0
    100317 TIP3     30134    TIP3     H1       HT       0.417000       1.00800           0
    100318 TIP3     30134    TIP3     H2       HT       0.417000       1.00800           0
    100319 TIP3     30135    TIP3     OH2      OT      -0.834000       15.9994           0
    100320 TIP3     30135    TIP3     H1       HT       0.417000       1.00800           0
    100321 TIP3     30135    TIP3     H2       HT       0.417000       1.00800           0
    100322 TIP3     30136    TIP3     OH2      OT      -0.834000       15.9994           0
    100323 TIP3     30136    TIP3     H1       HT       0.417000       1.00800           0
    100324 TIP3     30136    TIP3     H2       HT       0.417000       1.00800           0
    100325 TIP3     30137    TIP3     OH2      OT      -0.834000       15.9994           0
    100326 TIP3     30137    TIP3     H1       HT       0.417000       1.00800           0
    100327 TIP3     30137    TIP3     H2       HT       0.417000       1.00800           0
    100328 TIP3     30138    TIP3     OH2      OT      -0.834000       15.9994           0
    100329 TIP3     30138    TIP3     H1       HT       0.417000       1.00800           0
    100330 TIP3     30138    TIP3     H2       HT       0.417000       1.00800           0
    100331 TIP3     30139    TIP3     OH2      OT      -0.834000       15.9994           0
    100332 TIP3     30139    TIP3     H1       HT       0.417000       1.00800           0
    100333 TIP3     30139    TIP3     H2       HT       0.417000       1.00800           0
    100334 TIP3     30140    TIP3     OH2      OT      -0.834000       15.9994           0
    100335 TIP3     30140    TIP3     H1       HT       0.417000       1.00800           0
    100336 TIP3     30140    TIP3     H2       HT       0.417000       1.00800           0
    100337 TIP3     30141    TIP3     OH2      OT      -0.834000       15.9994           0
    100338 TIP3     30141    TIP3     H1       HT       0.417000       1.00800           0
    100339 TIP3     30141    TIP3     H2       HT       0.417000       1.00800           0
    100340 TIP3     30142    TIP3     OH2      OT      -0.834000       15.9994           0
    100341 TIP3     30142    TIP3     H1       HT       0.417000       1.00800           0
    100342 TIP3     30142    TIP3     H2       HT       0.417000       1.00800           0
    100343 TIP3     30143    TIP3     OH2      OT      -0.834000       15.9994           0
    100344 TIP3     30143    TIP3     H1       HT       0.417000       1.00800           0
    100345 TIP3     30143    TIP3     H2       HT       0.417000       1.00800           0
    100346 TIP3     30144    TIP3     OH2      OT      -0.834000       15.9994           0
    100347 TIP3     30144    TIP3     H1       HT       0.417000       1.00800           0
    100348 TIP3     30144    TIP3     H2       HT       0.417000       1.00800           0
    100349 TIP3     30145    TIP3     OH2      OT      -0.834000       15.9994           0
    100350 TIP3     30145    TIP3     H1       HT       0.417000       1.00800           0
    100351 TIP3     30145    TIP3     H2       HT       0.417000       1.00800           0
    100352 TIP3     30146    TIP3     OH2      OT      -0.834000       15.9994           0
    100353 TIP3     30146    TIP3     H1       HT       0.417000       1.00800           0
    100354 TIP3     30146    TIP3     H2       HT       0.417000       1.00800           0
    100355 TIP3     30147    TIP3     OH2      OT      -0.834000       15.9994           0
    100356 TIP3     30147    TIP3     H1       HT       0.417000       1.00800           0
    100357 TIP3     30147    TIP3     H2       HT       0.417000       1.00800           0
    100358 TIP3     30148    TIP3     OH2      OT      -0.834000       15.9994           0
    100359 TIP3     30148    TIP3     H1       HT       0.417000       1.00800           0
    100360 TIP3     30148    TIP3     H2       HT       0.417000       1.00800           0
    100361 TIP3     30149    TIP3     OH2      OT      -0.834000       15.9994           0
    100362 TIP3     30149    TIP3     H1       HT       0.417000       1.00800           0
    100363 TIP3     30149    TIP3     H2       HT       0.417000       1.00800           0
    100364 TIP3     30150    TIP3     OH2      OT      -0.834000       15.9994           0
    100365 TIP3     30150    TIP3     H1       HT       0.417000       1.00800           0
    100366 TIP3     30150    TIP3     H2       HT       0.417000       1.00800           0
    100367 TIP3     30151    TIP3     OH2      OT      -0.834000       15.9994           0
    100368 TIP3     30151    TIP3     H1       HT       0.417000       1.00800           0
    100369 TIP3     30151    TIP3     H2       HT       0.417000       1.00800           0
    100370 TIP3     30152    TIP3     OH2      OT      -0.834000       15.9994           0
    100371 TIP3     30152    TIP3     H1       HT       0.417000       1.00800           0
    100372 TIP3     30152    TIP3     H2       HT       0.417000       1.00800           0
    100373 TIP3     30153    TIP3     OH2      OT      -0.834000       15.9994           0
    100374 TIP3     30153    TIP3     H1       HT       0.417000       1.00800           0
    100375 TIP3     30153    TIP3     H2       HT       0.417000       1.00800           0
    100376 TIP3     30154    TIP3     OH2      OT      -0.834000       15.9994           0
    100377 TIP3     30154    TIP3     H1       HT       0.417000       1.00800           0
    100378 TIP3     30154    TIP3     H2       HT       0.417000       1.00800           0
    100379 TIP3     30155    TIP3     OH2      OT      -0.834000       15.9994           0
    100380 TIP3     30155    TIP3     H1       HT       0.417000       1.00800           0
    100381 TIP3     30155    TIP3     H2       HT       0.417000       1.00800           0
    100382 TIP3     30156    TIP3     OH2      OT      -0.834000       15.9994           0
    100383 TIP3     30156    TIP3     H1       HT       0.417000       1.00800           0
    100384 TIP3     30156    TIP3     H2       HT       0.417000       1.00800           0
    100385 TIP3     30157    TIP3     OH2      OT      -0.834000       15.9994           0
    100386 TIP3     30157    TIP3     H1       HT       0.417000       1.00800           0
    100387 TIP3     30157    TIP3     H2       HT       0.417000       1.00800           0
    100388 TIP3     30158    TIP3     OH2      OT      -0.834000       15.9994           0
    100389 TIP3     30158    TIP3     H1       HT       0.417000       1.00800           0
    100390 TIP3     30158    TIP3     H2       HT       0.417000       1.00800           0
    100391 TIP3     30159    TIP3     OH2      OT      -0.834000       15.9994           0
    100392 TIP3     30159    TIP3     H1       HT       0.417000       1.00800           0
    100393 TIP3     30159    TIP3     H2       HT       0.417000       1.00800           0
    100394 TIP3     30160    TIP3     OH2      OT      -0.834000       15.9994           0
    100395 TIP3     30160    TIP3     H1       HT       0.417000       1.00800           0
    100396 TIP3     30160    TIP3     H2       HT       0.417000       1.00800           0
    100397 TIP3     30161    TIP3     OH2      OT      -0.834000       15.9994           0
    100398 TIP3     30161    TIP3     H1       HT       0.417000       1.00800           0
    100399 TIP3     30161    TIP3     H2       HT       0.417000       1.00800           0
    100400 TIP3     30162    TIP3     OH2      OT      -0.834000       15.9994           0
    100401 TIP3     30162    TIP3     H1       HT       0.417000       1.00800           0
    100402 TIP3     30162    TIP3     H2       HT       0.417000       1.00800           0
    100403 TIP3     30163    TIP3     OH2      OT      -0.834000       15.9994           0
    100404 TIP3     30163    TIP3     H1       HT       0.417000       1.00800           0
    100405 TIP3     30163    TIP3     H2       HT       0.417000       1.00800           0
    100406 TIP3     30164    TIP3     OH2      OT      -0.834000       15.9994           0
    100407 TIP3     30164    TIP3     H1       HT       0.417000       1.00800           0
    100408 TIP3     30164    TIP3     H2       HT       0.417000       1.00800           0
    100409 TIP3     30165    TIP3     OH2      OT      -0.834000       15.9994           0
    100410 TIP3     30165    TIP3     H1       HT       0.417000       1.00800           0
    100411 TIP3     30165    TIP3     H2       HT       0.417000       1.00800           0
    100412 TIP3     30166    TIP3     OH2      OT      -0.834000       15.9994           0
    100413 TIP3     30166    TIP3     H1       HT       0.417000       1.00800           0
    100414 TIP3     30166    TIP3     H2       HT       0.417000       1.00800           0
    100415 TIP3     30167    TIP3     OH2      OT      -0.834000       15.9994           0
    100416 TIP3     30167    TIP3     H1       HT       0.417000       1.00800           0
    100417 TIP3     30167    TIP3     H2       HT       0.417000       1.00800           0
    100418 TIP3     30168    TIP3     OH2      OT      -0.834000       15.9994           0
    100419 TIP3     30168    TIP3     H1       HT       0.417000       1.00800           0
    100420 TIP3     30168    TIP3     H2       HT       0.417000       1.00800           0
    100421 TIP3     30169    TIP3     OH2      OT      -0.834000       15.9994           0
    100422 TIP3     30169    TIP3     H1       HT       0.417000       1.00800           0
    100423 TIP3     30169    TIP3     H2       HT       0.417000       1.00800           0
    100424 TIP3     30170    TIP3     OH2      OT      -0.834000       15.9994           0
    100425 TIP3     30170    TIP3     H1       HT       0.417000       1.00800           0
    100426 TIP3     30170    TIP3     H2       HT       0.417000       1.00800           0
    100427 TIP3     30171    TIP3     OH2      OT      -0.834000       15.9994           0
    100428 TIP3     30171    TIP3     H1       HT       0.417000       1.00800           0
    100429 TIP3     30171    TIP3     H2       HT       0.417000       1.00800           0
    100430 TIP3     30172    TIP3     OH2      OT      -0.834000       15.9994           0
    100431 TIP3     30172    TIP3     H1       HT       0.417000       1.00800           0
    100432 TIP3     30172    TIP3     H2       HT       0.417000       1.00800           0
    100433 TIP3     30173    TIP3     OH2      OT      -0.834000       15.9994           0
    100434 TIP3     30173    TIP3     H1       HT       0.417000       1.00800           0
    100435 TIP3     30173    TIP3     H2       HT       0.417000       1.00800           0
    100436 TIP3     30174    TIP3     OH2      OT      -0.834000       15.9994           0
    100437 TIP3     30174    TIP3     H1       HT       0.417000       1.00800           0
    100438 TIP3     30174    TIP3     H2       HT       0.417000       1.00800           0
    100439 TIP3     30175    TIP3     OH2      OT      -0.834000       15.9994           0
    100440 TIP3     30175    TIP3     H1       HT       0.417000       1.00800           0
    100441 TIP3     30175    TIP3     H2       HT       0.417000       1.00800           0
    100442 TIP3     30176    TIP3     OH2      OT      -0.834000       15.9994           0
    100443 TIP3     30176    TIP3     H1       HT       0.417000       1.00800           0
    100444 TIP3     30176    TIP3     H2       HT       0.417000       1.00800           0
    100445 TIP3     30177    TIP3     OH2      OT      -0.834000       15.9994           0
    100446 TIP3     30177    TIP3     H1       HT       0.417000       1.00800           0
    100447 TIP3     30177    TIP3     H2       HT       0.417000       1.00800           0
    100448 TIP3     30178    TIP3     OH2      OT      -0.834000       15.9994           0
    100449 TIP3     30178    TIP3     H1       HT       0.417000       1.00800           0
    100450 TIP3     30178    TIP3     H2       HT       0.417000       1.00800           0
    100451 TIP3     30179    TIP3     OH2      OT      -0.834000       15.9994           0
    100452 TIP3     30179    TIP3     H1       HT       0.417000       1.00800           0
    100453 TIP3     30179    TIP3     H2       HT       0.417000       1.00800           0
    100454 TIP3     30180    TIP3     OH2      OT      -0.834000       15.9994           0
    100455 TIP3     30180    TIP3     H1       HT       0.417000       1.00800           0
    100456 TIP3     30180    TIP3     H2       HT       0.417000       1.00800           0
    100457 TIP3     30181    TIP3     OH2      OT      -0.834000       15.9994           0
    100458 TIP3     30181    TIP3     H1       HT       0.417000       1.00800           0
    100459 TIP3     30181    TIP3     H2       HT       0.417000       1.00800           0
    100460 TIP3     30182    TIP3     OH2      OT      -0.834000       15.9994           0
    100461 TIP3     30182    TIP3     H1       HT       0.417000       1.00800           0
    100462 TIP3     30182    TIP3     H2       HT       0.417000       1.00800           0
    100463 TIP3     30183    TIP3     OH2      OT      -0.834000       15.9994           0
    100464 TIP3     30183    TIP3     H1       HT       0.417000       1.00800           0
    100465 TIP3     30183    TIP3     H2       HT       0.417000       1.00800           0
    100466 TIP3     30184    TIP3     OH2      OT      -0.834000       15.9994           0
    100467 TIP3     30184    TIP3     H1       HT       0.417000       1.00800           0
    100468 TIP3     30184    TIP3     H2       HT       0.417000       1.00800           0
    100469 TIP3     30185    TIP3     OH2      OT      -0.834000       15.9994           0
    100470 TIP3     30185    TIP3     H1       HT       0.417000       1.00800           0
    100471 TIP3     30185    TIP3     H2       HT       0.417000       1.00800           0
    100472 TIP3     30186    TIP3     OH2      OT      -0.834000       15.9994           0
    100473 TIP3     30186    TIP3     H1       HT       0.417000       1.00800           0
    100474 TIP3     30186    TIP3     H2       HT       0.417000       1.00800           0
    100475 TIP3     30187    TIP3     OH2      OT      -0.834000       15.9994           0
    100476 TIP3     30187    TIP3     H1       HT       0.417000       1.00800           0
    100477 TIP3     30187    TIP3     H2       HT       0.417000       1.00800           0
    100478 TIP3     30188    TIP3     OH2      OT      -0.834000       15.9994           0
    100479 TIP3     30188    TIP3     H1       HT       0.417000       1.00800           0
    100480 TIP3     30188    TIP3     H2       HT       0.417000       1.00800           0
    100481 TIP3     30189    TIP3     OH2      OT      -0.834000       15.9994           0
    100482 TIP3     30189    TIP3     H1       HT       0.417000       1.00800           0
    100483 TIP3     30189    TIP3     H2       HT       0.417000       1.00800           0
    100484 TIP3     30190    TIP3     OH2      OT      -0.834000       15.9994           0
    100485 TIP3     30190    TIP3     H1       HT       0.417000       1.00800           0
    100486 TIP3     30190    TIP3     H2       HT       0.417000       1.00800           0
    100487 TIP3     30191    TIP3     OH2      OT      -0.834000       15.9994           0
    100488 TIP3     30191    TIP3     H1       HT       0.417000       1.00800           0
    100489 TIP3     30191    TIP3     H2       HT       0.417000       1.00800           0
    100490 TIP3     30192    TIP3     OH2      OT      -0.834000       15.9994           0
    100491 TIP3     30192    TIP3     H1       HT       0.417000       1.00800           0
    100492 TIP3     30192    TIP3     H2       HT       0.417000       1.00800           0
    100493 TIP3     30193    TIP3     OH2      OT      -0.834000       15.9994           0
    100494 TIP3     30193    TIP3     H1       HT       0.417000       1.00800           0
    100495 TIP3     30193    TIP3     H2       HT       0.417000       1.00800           0
    100496 TIP3     30194    TIP3     OH2      OT      -0.834000       15.9994           0
    100497 TIP3     30194    TIP3     H1       HT       0.417000       1.00800           0
    100498 TIP3     30194    TIP3     H2       HT       0.417000       1.00800           0
    100499 TIP3     30195    TIP3     OH2      OT      -0.834000       15.9994           0
    100500 TIP3     30195    TIP3     H1       HT       0.417000       1.00800           0
    100501 TIP3     30195    TIP3     H2       HT       0.417000       1.00800           0
    100502 TIP3     30196    TIP3     OH2      OT      -0.834000       15.9994           0
    100503 TIP3     30196    TIP3     H1       HT       0.417000       1.00800           0
    100504 TIP3     30196    TIP3     H2       HT       0.417000       1.00800           0
    100505 TIP3     30197    TIP3     OH2      OT      -0.834000       15.9994           0
    100506 TIP3     30197    TIP3     H1       HT       0.417000       1.00800           0
    100507 TIP3     30197    TIP3     H2       HT       0.417000       1.00800           0
    100508 TIP3     30198    TIP3     OH2      OT      -0.834000       15.9994           0
    100509 TIP3     30198    TIP3     H1       HT       0.417000       1.00800           0
    100510 TIP3     30198    TIP3     H2       HT       0.417000       1.00800           0
    100511 TIP3     30199    TIP3     OH2      OT      -0.834000       15.9994           0
    100512 TIP3     30199    TIP3     H1       HT       0.417000       1.00800           0
    100513 TIP3     30199    TIP3     H2       HT       0.417000       1.00800           0
    100514 TIP3     30200    TIP3     OH2      OT      -0.834000       15.9994           0
    100515 TIP3     30200    TIP3     H1       HT       0.417000       1.00800           0
    100516 TIP3     30200    TIP3     H2       HT       0.417000       1.00800           0
    100517 TIP3     30201    TIP3     OH2      OT      -0.834000       15.9994           0
    100518 TIP3     30201    TIP3     H1       HT       0.417000       1.00800           0
    100519 TIP3     30201    TIP3     H2       HT       0.417000       1.00800           0
    100520 TIP3     30202    TIP3     OH2      OT      -0.834000       15.9994           0
    100521 TIP3     30202    TIP3     H1       HT       0.417000       1.00800           0
    100522 TIP3     30202    TIP3     H2       HT       0.417000       1.00800           0
    100523 TIP3     30203    TIP3     OH2      OT      -0.834000       15.9994           0
    100524 TIP3     30203    TIP3     H1       HT       0.417000       1.00800           0
    100525 TIP3     30203    TIP3     H2       HT       0.417000       1.00800           0
    100526 TIP3     30204    TIP3     OH2      OT      -0.834000       15.9994           0
    100527 TIP3     30204    TIP3     H1       HT       0.417000       1.00800           0
    100528 TIP3     30204    TIP3     H2       HT       0.417000       1.00800           0
    100529 TIP3     30205    TIP3     OH2      OT      -0.834000       15.9994           0
    100530 TIP3     30205    TIP3     H1       HT       0.417000       1.00800           0
    100531 TIP3     30205    TIP3     H2       HT       0.417000       1.00800           0
    100532 TIP3     30206    TIP3     OH2      OT      -0.834000       15.9994           0
    100533 TIP3     30206    TIP3     H1       HT       0.417000       1.00800           0
    100534 TIP3     30206    TIP3     H2       HT       0.417000       1.00800           0
    100535 TIP3     30207    TIP3     OH2      OT      -0.834000       15.9994           0
    100536 TIP3     30207    TIP3     H1       HT       0.417000       1.00800           0
    100537 TIP3     30207    TIP3     H2       HT       0.417000       1.00800           0
    100538 TIP3     30208    TIP3     OH2      OT      -0.834000       15.9994           0
    100539 TIP3     30208    TIP3     H1       HT       0.417000       1.00800           0
    100540 TIP3     30208    TIP3     H2       HT       0.417000       1.00800           0
    100541 TIP3     30209    TIP3     OH2      OT      -0.834000       15.9994           0
    100542 TIP3     30209    TIP3     H1       HT       0.417000       1.00800           0
    100543 TIP3     30209    TIP3     H2       HT       0.417000       1.00800           0
    100544 TIP3     30210    TIP3     OH2      OT      -0.834000       15.9994           0
    100545 TIP3     30210    TIP3     H1       HT       0.417000       1.00800           0
    100546 TIP3     30210    TIP3     H2       HT       0.417000       1.00800           0
    100547 TIP3     30211    TIP3     OH2      OT      -0.834000       15.9994           0
    100548 TIP3     30211    TIP3     H1       HT       0.417000       1.00800           0
    100549 TIP3     30211    TIP3     H2       HT       0.417000       1.00800           0
    100550 TIP3     30212    TIP3     OH2      OT      -0.834000       15.9994           0
    100551 TIP3     30212    TIP3     H1       HT       0.417000       1.00800           0
    100552 TIP3     30212    TIP3     H2       HT       0.417000       1.00800           0
    100553 TIP3     30213    TIP3     OH2      OT      -0.834000       15.9994           0
    100554 TIP3     30213    TIP3     H1       HT       0.417000       1.00800           0
    100555 TIP3     30213    TIP3     H2       HT       0.417000       1.00800           0
    100556 TIP3     30214    TIP3     OH2      OT      -0.834000       15.9994           0
    100557 TIP3     30214    TIP3     H1       HT       0.417000       1.00800           0
    100558 TIP3     30214    TIP3     H2       HT       0.417000       1.00800           0
    100559 TIP3     30215    TIP3     OH2      OT      -0.834000       15.9994           0
    100560 TIP3     30215    TIP3     H1       HT       0.417000       1.00800           0
    100561 TIP3     30215    TIP3     H2       HT       0.417000       1.00800           0
    100562 TIP3     30216    TIP3     OH2      OT      -0.834000       15.9994           0
    100563 TIP3     30216    TIP3     H1       HT       0.417000       1.00800           0
    100564 TIP3     30216    TIP3     H2       HT       0.417000       1.00800           0
    100565 TIP3     30217    TIP3     OH2      OT      -0.834000       15.9994           0
    100566 TIP3     30217    TIP3     H1       HT       0.417000       1.00800           0
    100567 TIP3     30217    TIP3     H2       HT       0.417000       1.00800           0
    100568 TIP3     30218    TIP3     OH2      OT      -0.834000       15.9994           0
    100569 TIP3     30218    TIP3     H1       HT       0.417000       1.00800           0
    100570 TIP3     30218    TIP3     H2       HT       0.417000       1.00800           0
    100571 TIP3     30219    TIP3     OH2      OT      -0.834000       15.9994           0
    100572 TIP3     30219    TIP3     H1       HT       0.417000       1.00800           0
    100573 TIP3     30219    TIP3     H2       HT       0.417000       1.00800           0
    100574 TIP3     30220    TIP3     OH2      OT      -0.834000       15.9994           0
    100575 TIP3     30220    TIP3     H1       HT       0.417000       1.00800           0
    100576 TIP3     30220    TIP3     H2       HT       0.417000       1.00800           0
    100577 TIP3     30221    TIP3     OH2      OT      -0.834000       15.9994           0
    100578 TIP3     30221    TIP3     H1       HT       0.417000       1.00800           0
    100579 TIP3     30221    TIP3     H2       HT       0.417000       1.00800           0
    100580 TIP3     30222    TIP3     OH2      OT      -0.834000       15.9994           0
    100581 TIP3     30222    TIP3     H1       HT       0.417000       1.00800           0
    100582 TIP3     30222    TIP3     H2       HT       0.417000       1.00800           0
    100583 TIP3     30223    TIP3     OH2      OT      -0.834000       15.9994           0
    100584 TIP3     30223    TIP3     H1       HT       0.417000       1.00800           0
    100585 TIP3     30223    TIP3     H2       HT       0.417000       1.00800           0
    100586 TIP3     30224    TIP3     OH2      OT      -0.834000       15.9994           0
    100587 TIP3     30224    TIP3     H1       HT       0.417000       1.00800           0
    100588 TIP3     30224    TIP3     H2       HT       0.417000       1.00800           0
    100589 TIP3     30225    TIP3     OH2      OT      -0.834000       15.9994           0
    100590 TIP3     30225    TIP3     H1       HT       0.417000       1.00800           0
    100591 TIP3     30225    TIP3     H2       HT       0.417000       1.00800           0
    100592 TIP3     30226    TIP3     OH2      OT      -0.834000       15.9994           0
    100593 TIP3     30226    TIP3     H1       HT       0.417000       1.00800           0
    100594 TIP3     30226    TIP3     H2       HT       0.417000       1.00800           0
    100595 TIP3     30227    TIP3     OH2      OT      -0.834000       15.9994           0
    100596 TIP3     30227    TIP3     H1       HT       0.417000       1.00800           0
    100597 TIP3     30227    TIP3     H2       HT       0.417000       1.00800           0
    100598 TIP3     30228    TIP3     OH2      OT      -0.834000       15.9994           0
    100599 TIP3     30228    TIP3     H1       HT       0.417000       1.00800           0
    100600 TIP3     30228    TIP3     H2       HT       0.417000       1.00800           0
    100601 TIP3     30229    TIP3     OH2      OT      -0.834000       15.9994           0
    100602 TIP3     30229    TIP3     H1       HT       0.417000       1.00800           0
    100603 TIP3     30229    TIP3     H2       HT       0.417000       1.00800           0
    100604 TIP3     30230    TIP3     OH2      OT      -0.834000       15.9994           0
    100605 TIP3     30230    TIP3     H1       HT       0.417000       1.00800           0
    100606 TIP3     30230    TIP3     H2       HT       0.417000       1.00800           0
    100607 TIP3     30231    TIP3     OH2      OT      -0.834000       15.9994           0
    100608 TIP3     30231    TIP3     H1       HT       0.417000       1.00800           0
    100609 TIP3     30231    TIP3     H2       HT       0.417000       1.00800           0
    100610 TIP3     30232    TIP3     OH2      OT      -0.834000       15.9994           0
    100611 TIP3     30232    TIP3     H1       HT       0.417000       1.00800           0
    100612 TIP3     30232    TIP3     H2       HT       0.417000       1.00800           0
    100613 TIP3     30233    TIP3     OH2      OT      -0.834000       15.9994           0
    100614 TIP3     30233    TIP3     H1       HT       0.417000       1.00800           0
    100615 TIP3     30233    TIP3     H2       HT       0.417000       1.00800           0
    100616 TIP3     30234    TIP3     OH2      OT      -0.834000       15.9994           0
    100617 TIP3     30234    TIP3     H1       HT       0.417000       1.00800           0
    100618 TIP3     30234    TIP3     H2       HT       0.417000       1.00800           0
    100619 TIP3     30235    TIP3     OH2      OT      -0.834000       15.9994           0
    100620 TIP3     30235    TIP3     H1       HT       0.417000       1.00800           0
    100621 TIP3     30235    TIP3     H2       HT       0.417000       1.00800           0
    100622 TIP3     30236    TIP3     OH2      OT      -0.834000       15.9994           0
    100623 TIP3     30236    TIP3     H1       HT       0.417000       1.00800           0
    100624 TIP3     30236    TIP3     H2       HT       0.417000       1.00800           0
    100625 TIP3     30237    TIP3     OH2      OT      -0.834000       15.9994           0
    100626 TIP3     30237    TIP3     H1       HT       0.417000       1.00800           0
    100627 TIP3     30237    TIP3     H2       HT       0.417000       1.00800           0
    100628 TIP3     30238    TIP3     OH2      OT      -0.834000       15.9994           0
    100629 TIP3     30238    TIP3     H1       HT       0.417000       1.00800           0
    100630 TIP3     30238    TIP3     H2       HT       0.417000       1.00800           0
    100631 TIP3     30239    TIP3     OH2      OT      -0.834000       15.9994           0
    100632 TIP3     30239    TIP3     H1       HT       0.417000       1.00800           0
    100633 TIP3     30239    TIP3     H2       HT       0.417000       1.00800           0
    100634 TIP3     30240    TIP3     OH2      OT      -0.834000       15.9994           0
    100635 TIP3     30240    TIP3     H1       HT       0.417000       1.00800           0
    100636 TIP3     30240    TIP3     H2       HT       0.417000       1.00800           0
    100637 TIP3     30241    TIP3     OH2      OT      -0.834000       15.9994           0
    100638 TIP3     30241    TIP3     H1       HT       0.417000       1.00800           0
    100639 TIP3     30241    TIP3     H2       HT       0.417000       1.00800           0
    100640 TIP3     30242    TIP3     OH2      OT      -0.834000       15.9994           0
    100641 TIP3     30242    TIP3     H1       HT       0.417000       1.00800           0
    100642 TIP3     30242    TIP3     H2       HT       0.417000       1.00800           0
    100643 TIP3     30243    TIP3     OH2      OT      -0.834000       15.9994           0
    100644 TIP3     30243    TIP3     H1       HT       0.417000       1.00800           0
    100645 TIP3     30243    TIP3     H2       HT       0.417000       1.00800           0
    100646 TIP3     30244    TIP3     OH2      OT      -0.834000       15.9994           0
    100647 TIP3     30244    TIP3     H1       HT       0.417000       1.00800           0
    100648 TIP3     30244    TIP3     H2       HT       0.417000       1.00800           0
    100649 TIP3     30245    TIP3     OH2      OT      -0.834000       15.9994           0
    100650 TIP3     30245    TIP3     H1       HT       0.417000       1.00800           0
    100651 TIP3     30245    TIP3     H2       HT       0.417000       1.00800           0
    100652 TIP3     30246    TIP3     OH2      OT      -0.834000       15.9994           0
    100653 TIP3     30246    TIP3     H1       HT       0.417000       1.00800           0
    100654 TIP3     30246    TIP3     H2       HT       0.417000       1.00800           0
    100655 TIP3     30247    TIP3     OH2      OT      -0.834000       15.9994           0
    100656 TIP3     30247    TIP3     H1       HT       0.417000       1.00800           0
    100657 TIP3     30247    TIP3     H2       HT       0.417000       1.00800           0
    100658 TIP3     30248    TIP3     OH2      OT      -0.834000       15.9994           0
    100659 TIP3     30248    TIP3     H1       HT       0.417000       1.00800           0
    100660 TIP3     30248    TIP3     H2       HT       0.417000       1.00800           0
    100661 TIP3     30249    TIP3     OH2      OT      -0.834000       15.9994           0
    100662 TIP3     30249    TIP3     H1       HT       0.417000       1.00800           0
    100663 TIP3     30249    TIP3     H2       HT       0.417000       1.00800           0
    100664 TIP3     30250    TIP3     OH2      OT      -0.834000       15.9994           0
    100665 TIP3     30250    TIP3     H1       HT       0.417000       1.00800           0
    100666 TIP3     30250    TIP3     H2       HT       0.417000       1.00800           0
    100667 TIP3     30251    TIP3     OH2      OT      -0.834000       15.9994           0
    100668 TIP3     30251    TIP3     H1       HT       0.417000       1.00800           0
    100669 TIP3     30251    TIP3     H2       HT       0.417000       1.00800           0
    100670 TIP3     30252    TIP3     OH2      OT      -0.834000       15.9994           0
    100671 TIP3     30252    TIP3     H1       HT       0.417000       1.00800           0
    100672 TIP3     30252    TIP3     H2       HT       0.417000       1.00800           0
    100673 TIP3     30253    TIP3     OH2      OT      -0.834000       15.9994           0
    100674 TIP3     30253    TIP3     H1       HT       0.417000       1.00800           0
    100675 TIP3     30253    TIP3     H2       HT       0.417000       1.00800           0
    100676 TIP3     30254    TIP3     OH2      OT      -0.834000       15.9994           0
    100677 TIP3     30254    TIP3     H1       HT       0.417000       1.00800           0
    100678 TIP3     30254    TIP3     H2       HT       0.417000       1.00800           0
    100679 TIP3     30255    TIP3     OH2      OT      -0.834000       15.9994           0
    100680 TIP3     30255    TIP3     H1       HT       0.417000       1.00800           0
    100681 TIP3     30255    TIP3     H2       HT       0.417000       1.00800           0
    100682 TIP3     30256    TIP3     OH2      OT      -0.834000       15.9994           0
    100683 TIP3     30256    TIP3     H1       HT       0.417000       1.00800           0
    100684 TIP3     30256    TIP3     H2       HT       0.417000       1.00800           0
    100685 TIP3     30257    TIP3     OH2      OT      -0.834000       15.9994           0
    100686 TIP3     30257    TIP3     H1       HT       0.417000       1.00800           0
    100687 TIP3     30257    TIP3     H2       HT       0.417000       1.00800           0
    100688 TIP3     30258    TIP3     OH2      OT      -0.834000       15.9994           0
    100689 TIP3     30258    TIP3     H1       HT       0.417000       1.00800           0
    100690 TIP3     30258    TIP3     H2       HT       0.417000       1.00800           0
    100691 TIP3     30259    TIP3     OH2      OT      -0.834000       15.9994           0
    100692 TIP3     30259    TIP3     H1       HT       0.417000       1.00800           0
    100693 TIP3     30259    TIP3     H2       HT       0.417000       1.00800           0
    100694 TIP3     30260    TIP3     OH2      OT      -0.834000       15.9994           0
    100695 TIP3     30260    TIP3     H1       HT       0.417000       1.00800           0
    100696 TIP3     30260    TIP3     H2       HT       0.417000       1.00800           0
    100697 TIP3     30261    TIP3     OH2      OT      -0.834000       15.9994           0
    100698 TIP3     30261    TIP3     H1       HT       0.417000       1.00800           0
    100699 TIP3     30261    TIP3     H2       HT       0.417000       1.00800           0
    100700 TIP3     30262    TIP3     OH2      OT      -0.834000       15.9994           0
    100701 TIP3     30262    TIP3     H1       HT       0.417000       1.00800           0
    100702 TIP3     30262    TIP3     H2       HT       0.417000       1.00800           0
    100703 TIP3     30263    TIP3     OH2      OT      -0.834000       15.9994           0
    100704 TIP3     30263    TIP3     H1       HT       0.417000       1.00800           0
    100705 TIP3     30263    TIP3     H2       HT       0.417000       1.00800           0
    100706 TIP3     30264    TIP3     OH2      OT      -0.834000       15.9994           0
    100707 TIP3     30264    TIP3     H1       HT       0.417000       1.00800           0
    100708 TIP3     30264    TIP3     H2       HT       0.417000       1.00800           0
    100709 TIP3     30265    TIP3     OH2      OT      -0.834000       15.9994           0
    100710 TIP3     30265    TIP3     H1       HT       0.417000       1.00800           0
    100711 TIP3     30265    TIP3     H2       HT       0.417000       1.00800           0
    100712 TIP3     30266    TIP3     OH2      OT      -0.834000       15.9994           0
    100713 TIP3     30266    TIP3     H1       HT       0.417000       1.00800           0
    100714 TIP3     30266    TIP3     H2       HT       0.417000       1.00800           0
    100715 TIP3     30267    TIP3     OH2      OT      -0.834000       15.9994           0
    100716 TIP3     30267    TIP3     H1       HT       0.417000       1.00800           0
    100717 TIP3     30267    TIP3     H2       HT       0.417000       1.00800           0
    100718 TIP3     30268    TIP3     OH2      OT      -0.834000       15.9994           0
    100719 TIP3     30268    TIP3     H1       HT       0.417000       1.00800           0
    100720 TIP3     30268    TIP3     H2       HT       0.417000       1.00800           0
    100721 TIP3     30269    TIP3     OH2      OT      -0.834000       15.9994           0
    100722 TIP3     30269    TIP3     H1       HT       0.417000       1.00800           0
    100723 TIP3     30269    TIP3     H2       HT       0.417000       1.00800           0
    100724 TIP3     30270    TIP3     OH2      OT      -0.834000       15.9994           0
    100725 TIP3     30270    TIP3     H1       HT       0.417000       1.00800           0
    100726 TIP3     30270    TIP3     H2       HT       0.417000       1.00800           0
    100727 TIP3     30271    TIP3     OH2      OT      -0.834000       15.9994           0
    100728 TIP3     30271    TIP3     H1       HT       0.417000       1.00800           0
    100729 TIP3     30271    TIP3     H2       HT       0.417000       1.00800           0
    100730 TIP3     30272    TIP3     OH2      OT      -0.834000       15.9994           0
    100731 TIP3     30272    TIP3     H1       HT       0.417000       1.00800           0
    100732 TIP3     30272    TIP3     H2       HT       0.417000       1.00800           0
    100733 TIP3     30273    TIP3     OH2      OT      -0.834000       15.9994           0
    100734 TIP3     30273    TIP3     H1       HT       0.417000       1.00800           0
    100735 TIP3     30273    TIP3     H2       HT       0.417000       1.00800           0
    100736 TIP3     30274    TIP3     OH2      OT      -0.834000       15.9994           0
    100737 TIP3     30274    TIP3     H1       HT       0.417000       1.00800           0
    100738 TIP3     30274    TIP3     H2       HT       0.417000       1.00800           0
    100739 TIP3     30275    TIP3     OH2      OT      -0.834000       15.9994           0
    100740 TIP3     30275    TIP3     H1       HT       0.417000       1.00800           0
    100741 TIP3     30275    TIP3     H2       HT       0.417000       1.00800           0
    100742 TIP3     30276    TIP3     OH2      OT      -0.834000       15.9994           0
    100743 TIP3     30276    TIP3     H1       HT       0.417000       1.00800           0
    100744 TIP3     30276    TIP3     H2       HT       0.417000       1.00800           0
    100745 TIP3     30277    TIP3     OH2      OT      -0.834000       15.9994           0
    100746 TIP3     30277    TIP3     H1       HT       0.417000       1.00800           0
    100747 TIP3     30277    TIP3     H2       HT       0.417000       1.00800           0
    100748 TIP3     30278    TIP3     OH2      OT      -0.834000       15.9994           0
    100749 TIP3     30278    TIP3     H1       HT       0.417000       1.00800           0
    100750 TIP3     30278    TIP3     H2       HT       0.417000       1.00800           0
    100751 TIP3     30279    TIP3     OH2      OT      -0.834000       15.9994           0
    100752 TIP3     30279    TIP3     H1       HT       0.417000       1.00800           0
    100753 TIP3     30279    TIP3     H2       HT       0.417000       1.00800           0
    100754 TIP3     30280    TIP3     OH2      OT      -0.834000       15.9994           0
    100755 TIP3     30280    TIP3     H1       HT       0.417000       1.00800           0
    100756 TIP3     30280    TIP3     H2       HT       0.417000       1.00800           0
    100757 TIP3     30281    TIP3     OH2      OT      -0.834000       15.9994           0
    100758 TIP3     30281    TIP3     H1       HT       0.417000       1.00800           0
    100759 TIP3     30281    TIP3     H2       HT       0.417000       1.00800           0
    100760 TIP3     30282    TIP3     OH2      OT      -0.834000       15.9994           0
    100761 TIP3     30282    TIP3     H1       HT       0.417000       1.00800           0
    100762 TIP3     30282    TIP3     H2       HT       0.417000       1.00800           0
    100763 TIP3     30283    TIP3     OH2      OT      -0.834000       15.9994           0
    100764 TIP3     30283    TIP3     H1       HT       0.417000       1.00800           0
    100765 TIP3     30283    TIP3     H2       HT       0.417000       1.00800           0
    100766 TIP3     30284    TIP3     OH2      OT      -0.834000       15.9994           0
    100767 TIP3     30284    TIP3     H1       HT       0.417000       1.00800           0
    100768 TIP3     30284    TIP3     H2       HT       0.417000       1.00800           0
    100769 TIP3     30285    TIP3     OH2      OT      -0.834000       15.9994           0
    100770 TIP3     30285    TIP3     H1       HT       0.417000       1.00800           0
    100771 TIP3     30285    TIP3     H2       HT       0.417000       1.00800           0
    100772 TIP3     30286    TIP3     OH2      OT      -0.834000       15.9994           0
    100773 TIP3     30286    TIP3     H1       HT       0.417000       1.00800           0
    100774 TIP3     30286    TIP3     H2       HT       0.417000       1.00800           0
    100775 TIP3     30287    TIP3     OH2      OT      -0.834000       15.9994           0
    100776 TIP3     30287    TIP3     H1       HT       0.417000       1.00800           0
    100777 TIP3     30287    TIP3     H2       HT       0.417000       1.00800           0
    100778 TIP3     30288    TIP3     OH2      OT      -0.834000       15.9994           0
    100779 TIP3     30288    TIP3     H1       HT       0.417000       1.00800           0
    100780 TIP3     30288    TIP3     H2       HT       0.417000       1.00800           0
    100781 TIP3     30289    TIP3     OH2      OT      -0.834000       15.9994           0
    100782 TIP3     30289    TIP3     H1       HT       0.417000       1.00800           0
    100783 TIP3     30289    TIP3     H2       HT       0.417000       1.00800           0
    100784 TIP3     30290    TIP3     OH2      OT      -0.834000       15.9994           0
    100785 TIP3     30290    TIP3     H1       HT       0.417000       1.00800           0
    100786 TIP3     30290    TIP3     H2       HT       0.417000       1.00800           0
    100787 TIP3     30291    TIP3     OH2      OT      -0.834000       15.9994           0
    100788 TIP3     30291    TIP3     H1       HT       0.417000       1.00800           0
    100789 TIP3     30291    TIP3     H2       HT       0.417000       1.00800           0
    100790 TIP3     30292    TIP3     OH2      OT      -0.834000       15.9994           0
    100791 TIP3     30292    TIP3     H1       HT       0.417000       1.00800           0
    100792 TIP3     30292    TIP3     H2       HT       0.417000       1.00800           0
    100793 TIP3     30293    TIP3     OH2      OT      -0.834000       15.9994           0
    100794 TIP3     30293    TIP3     H1       HT       0.417000       1.00800           0
    100795 TIP3     30293    TIP3     H2       HT       0.417000       1.00800           0
    100796 TIP3     30294    TIP3     OH2      OT      -0.834000       15.9994           0
    100797 TIP3     30294    TIP3     H1       HT       0.417000       1.00800           0
    100798 TIP3     30294    TIP3     H2       HT       0.417000       1.00800           0
    100799 TIP3     30295    TIP3     OH2      OT      -0.834000       15.9994           0
    100800 TIP3     30295    TIP3     H1       HT       0.417000       1.00800           0
    100801 TIP3     30295    TIP3     H2       HT       0.417000       1.00800           0
    100802 TIP3     30296    TIP3     OH2      OT      -0.834000       15.9994           0
    100803 TIP3     30296    TIP3     H1       HT       0.417000       1.00800           0
    100804 TIP3     30296    TIP3     H2       HT       0.417000       1.00800           0
    100805 TIP3     30297    TIP3     OH2      OT      -0.834000       15.9994           0
    100806 TIP3     30297    TIP3     H1       HT       0.417000       1.00800           0
    100807 TIP3     30297    TIP3     H2       HT       0.417000       1.00800           0
    100808 TIP3     30298    TIP3     OH2      OT      -0.834000       15.9994           0
    100809 TIP3     30298    TIP3     H1       HT       0.417000       1.00800           0
    100810 TIP3     30298    TIP3     H2       HT       0.417000       1.00800           0
    100811 TIP3     30299    TIP3     OH2      OT      -0.834000       15.9994           0
    100812 TIP3     30299    TIP3     H1       HT       0.417000       1.00800           0
    100813 TIP3     30299    TIP3     H2       HT       0.417000       1.00800           0
    100814 TIP3     30300    TIP3     OH2      OT      -0.834000       15.9994           0
    100815 TIP3     30300    TIP3     H1       HT       0.417000       1.00800           0
    100816 TIP3     30300    TIP3     H2       HT       0.417000       1.00800           0
    100817 TIP3     30301    TIP3     OH2      OT      -0.834000       15.9994           0
    100818 TIP3     30301    TIP3     H1       HT       0.417000       1.00800           0
    100819 TIP3     30301    TIP3     H2       HT       0.417000       1.00800           0
    100820 TIP3     30302    TIP3     OH2      OT      -0.834000       15.9994           0
    100821 TIP3     30302    TIP3     H1       HT       0.417000       1.00800           0
    100822 TIP3     30302    TIP3     H2       HT       0.417000       1.00800           0
    100823 TIP3     30303    TIP3     OH2      OT      -0.834000       15.9994           0
    100824 TIP3     30303    TIP3     H1       HT       0.417000       1.00800           0
    100825 TIP3     30303    TIP3     H2       HT       0.417000       1.00800           0
    100826 TIP3     30304    TIP3     OH2      OT      -0.834000       15.9994           0
    100827 TIP3     30304    TIP3     H1       HT       0.417000       1.00800           0
    100828 TIP3     30304    TIP3     H2       HT       0.417000       1.00800           0
    100829 TIP3     30305    TIP3     OH2      OT      -0.834000       15.9994           0
    100830 TIP3     30305    TIP3     H1       HT       0.417000       1.00800           0
    100831 TIP3     30305    TIP3     H2       HT       0.417000       1.00800           0
    100832 TIP3     30306    TIP3     OH2      OT      -0.834000       15.9994           0
    100833 TIP3     30306    TIP3     H1       HT       0.417000       1.00800           0
    100834 TIP3     30306    TIP3     H2       HT       0.417000       1.00800           0
    100835 TIP3     30307    TIP3     OH2      OT      -0.834000       15.9994           0
    100836 TIP3     30307    TIP3     H1       HT       0.417000       1.00800           0
    100837 TIP3     30307    TIP3     H2       HT       0.417000       1.00800           0
    100838 TIP3     30308    TIP3     OH2      OT      -0.834000       15.9994           0
    100839 TIP3     30308    TIP3     H1       HT       0.417000       1.00800           0
    100840 TIP3     30308    TIP3     H2       HT       0.417000       1.00800           0
    100841 TIP3     30309    TIP3     OH2      OT      -0.834000       15.9994           0
    100842 TIP3     30309    TIP3     H1       HT       0.417000       1.00800           0
    100843 TIP3     30309    TIP3     H2       HT       0.417000       1.00800           0
    100844 TIP3     30310    TIP3     OH2      OT      -0.834000       15.9994           0
    100845 TIP3     30310    TIP3     H1       HT       0.417000       1.00800           0
    100846 TIP3     30310    TIP3     H2       HT       0.417000       1.00800           0
    100847 TIP3     30311    TIP3     OH2      OT      -0.834000       15.9994           0
    100848 TIP3     30311    TIP3     H1       HT       0.417000       1.00800           0
    100849 TIP3     30311    TIP3     H2       HT       0.417000       1.00800           0
    100850 TIP3     30312    TIP3     OH2      OT      -0.834000       15.9994           0
    100851 TIP3     30312    TIP3     H1       HT       0.417000       1.00800           0
    100852 TIP3     30312    TIP3     H2       HT       0.417000       1.00800           0
    100853 TIP3     30313    TIP3     OH2      OT      -0.834000       15.9994           0
    100854 TIP3     30313    TIP3     H1       HT       0.417000       1.00800           0
    100855 TIP3     30313    TIP3     H2       HT       0.417000       1.00800           0
    100856 TIP3     30314    TIP3     OH2      OT      -0.834000       15.9994           0
    100857 TIP3     30314    TIP3     H1       HT       0.417000       1.00800           0
    100858 TIP3     30314    TIP3     H2       HT       0.417000       1.00800           0
    100859 TIP3     30315    TIP3     OH2      OT      -0.834000       15.9994           0
    100860 TIP3     30315    TIP3     H1       HT       0.417000       1.00800           0
    100861 TIP3     30315    TIP3     H2       HT       0.417000       1.00800           0
    100862 TIP3     30316    TIP3     OH2      OT      -0.834000       15.9994           0
    100863 TIP3     30316    TIP3     H1       HT       0.417000       1.00800           0
    100864 TIP3     30316    TIP3     H2       HT       0.417000       1.00800           0
    100865 TIP3     30317    TIP3     OH2      OT      -0.834000       15.9994           0
    100866 TIP3     30317    TIP3     H1       HT       0.417000       1.00800           0
    100867 TIP3     30317    TIP3     H2       HT       0.417000       1.00800           0
    100868 TIP3     30318    TIP3     OH2      OT      -0.834000       15.9994           0
    100869 TIP3     30318    TIP3     H1       HT       0.417000       1.00800           0
    100870 TIP3     30318    TIP3     H2       HT       0.417000       1.00800           0
    100871 TIP3     30319    TIP3     OH2      OT      -0.834000       15.9994           0
    100872 TIP3     30319    TIP3     H1       HT       0.417000       1.00800           0
    100873 TIP3     30319    TIP3     H2       HT       0.417000       1.00800           0
    100874 TIP3     30320    TIP3     OH2      OT      -0.834000       15.9994           0
    100875 TIP3     30320    TIP3     H1       HT       0.417000       1.00800           0
    100876 TIP3     30320    TIP3     H2       HT       0.417000       1.00800           0
    100877 TIP3     30321    TIP3     OH2      OT      -0.834000       15.9994           0
    100878 TIP3     30321    TIP3     H1       HT       0.417000       1.00800           0
    100879 TIP3     30321    TIP3     H2       HT       0.417000       1.00800           0
    100880 TIP3     30322    TIP3     OH2      OT      -0.834000       15.9994           0
    100881 TIP3     30322    TIP3     H1       HT       0.417000       1.00800           0
    100882 TIP3     30322    TIP3     H2       HT       0.417000       1.00800           0
    100883 TIP3     30323    TIP3     OH2      OT      -0.834000       15.9994           0
    100884 TIP3     30323    TIP3     H1       HT       0.417000       1.00800           0
    100885 TIP3     30323    TIP3     H2       HT       0.417000       1.00800           0
    100886 TIP3     30324    TIP3     OH2      OT      -0.834000       15.9994           0
    100887 TIP3     30324    TIP3     H1       HT       0.417000       1.00800           0
    100888 TIP3     30324    TIP3     H2       HT       0.417000       1.00800           0
    100889 TIP3     30325    TIP3     OH2      OT      -0.834000       15.9994           0
    100890 TIP3     30325    TIP3     H1       HT       0.417000       1.00800           0
    100891 TIP3     30325    TIP3     H2       HT       0.417000       1.00800           0
    100892 TIP3     30326    TIP3     OH2      OT      -0.834000       15.9994           0
    100893 TIP3     30326    TIP3     H1       HT       0.417000       1.00800           0
    100894 TIP3     30326    TIP3     H2       HT       0.417000       1.00800           0
    100895 TIP3     30327    TIP3     OH2      OT      -0.834000       15.9994           0
    100896 TIP3     30327    TIP3     H1       HT       0.417000       1.00800           0
    100897 TIP3     30327    TIP3     H2       HT       0.417000       1.00800           0
    100898 TIP3     30328    TIP3     OH2      OT      -0.834000       15.9994           0
    100899 TIP3     30328    TIP3     H1       HT       0.417000       1.00800           0
    100900 TIP3     30328    TIP3     H2       HT       0.417000       1.00800           0
    100901 TIP3     30329    TIP3     OH2      OT      -0.834000       15.9994           0
    100902 TIP3     30329    TIP3     H1       HT       0.417000       1.00800           0
    100903 TIP3     30329    TIP3     H2       HT       0.417000       1.00800           0
    100904 TIP3     30330    TIP3     OH2      OT      -0.834000       15.9994           0
    100905 TIP3     30330    TIP3     H1       HT       0.417000       1.00800           0
    100906 TIP3     30330    TIP3     H2       HT       0.417000       1.00800           0
    100907 TIP3     30331    TIP3     OH2      OT      -0.834000       15.9994           0
    100908 TIP3     30331    TIP3     H1       HT       0.417000       1.00800           0
    100909 TIP3     30331    TIP3     H2       HT       0.417000       1.00800           0
    100910 TIP3     30332    TIP3     OH2      OT      -0.834000       15.9994           0
    100911 TIP3     30332    TIP3     H1       HT       0.417000       1.00800           0
    100912 TIP3     30332    TIP3     H2       HT       0.417000       1.00800           0
    100913 TIP3     30333    TIP3     OH2      OT      -0.834000       15.9994           0
    100914 TIP3     30333    TIP3     H1       HT       0.417000       1.00800           0
    100915 TIP3     30333    TIP3     H2       HT       0.417000       1.00800           0
    100916 TIP3     30334    TIP3     OH2      OT      -0.834000       15.9994           0
    100917 TIP3     30334    TIP3     H1       HT       0.417000       1.00800           0
    100918 TIP3     30334    TIP3     H2       HT       0.417000       1.00800           0
    100919 TIP3     30335    TIP3     OH2      OT      -0.834000       15.9994           0
    100920 TIP3     30335    TIP3     H1       HT       0.417000       1.00800           0
    100921 TIP3     30335    TIP3     H2       HT       0.417000       1.00800           0
    100922 TIP3     30336    TIP3     OH2      OT      -0.834000       15.9994           0
    100923 TIP3     30336    TIP3     H1       HT       0.417000       1.00800           0
    100924 TIP3     30336    TIP3     H2       HT       0.417000       1.00800           0
    100925 TIP3     30337    TIP3     OH2      OT      -0.834000       15.9994           0
    100926 TIP3     30337    TIP3     H1       HT       0.417000       1.00800           0
    100927 TIP3     30337    TIP3     H2       HT       0.417000       1.00800           0
    100928 TIP3     30338    TIP3     OH2      OT      -0.834000       15.9994           0
    100929 TIP3     30338    TIP3     H1       HT       0.417000       1.00800           0
    100930 TIP3     30338    TIP3     H2       HT       0.417000       1.00800           0
    100931 TIP3     30339    TIP3     OH2      OT      -0.834000       15.9994           0
    100932 TIP3     30339    TIP3     H1       HT       0.417000       1.00800           0
    100933 TIP3     30339    TIP3     H2       HT       0.417000       1.00800           0
    100934 TIP3     30340    TIP3     OH2      OT      -0.834000       15.9994           0
    100935 TIP3     30340    TIP3     H1       HT       0.417000       1.00800           0
    100936 TIP3     30340    TIP3     H2       HT       0.417000       1.00800           0
    100937 TIP3     30341    TIP3     OH2      OT      -0.834000       15.9994           0
    100938 TIP3     30341    TIP3     H1       HT       0.417000       1.00800           0
    100939 TIP3     30341    TIP3     H2       HT       0.417000       1.00800           0
    100940 TIP3     30342    TIP3     OH2      OT      -0.834000       15.9994           0
    100941 TIP3     30342    TIP3     H1       HT       0.417000       1.00800           0
    100942 TIP3     30342    TIP3     H2       HT       0.417000       1.00800           0
    100943 TIP3     30343    TIP3     OH2      OT      -0.834000       15.9994           0
    100944 TIP3     30343    TIP3     H1       HT       0.417000       1.00800           0
    100945 TIP3     30343    TIP3     H2       HT       0.417000       1.00800           0
    100946 TIP3     30344    TIP3     OH2      OT      -0.834000       15.9994           0
    100947 TIP3     30344    TIP3     H1       HT       0.417000       1.00800           0
    100948 TIP3     30344    TIP3     H2       HT       0.417000       1.00800           0
    100949 TIP3     30345    TIP3     OH2      OT      -0.834000       15.9994           0
    100950 TIP3     30345    TIP3     H1       HT       0.417000       1.00800           0
    100951 TIP3     30345    TIP3     H2       HT       0.417000       1.00800           0
    100952 TIP3     30346    TIP3     OH2      OT      -0.834000       15.9994           0
    100953 TIP3     30346    TIP3     H1       HT       0.417000       1.00800           0
    100954 TIP3     30346    TIP3     H2       HT       0.417000       1.00800           0
    100955 TIP3     30347    TIP3     OH2      OT      -0.834000       15.9994           0
    100956 TIP3     30347    TIP3     H1       HT       0.417000       1.00800           0
    100957 TIP3     30347    TIP3     H2       HT       0.417000       1.00800           0
    100958 TIP3     30348    TIP3     OH2      OT      -0.834000       15.9994           0
    100959 TIP3     30348    TIP3     H1       HT       0.417000       1.00800           0
    100960 TIP3     30348    TIP3     H2       HT       0.417000       1.00800           0
    100961 TIP3     30349    TIP3     OH2      OT      -0.834000       15.9994           0
    100962 TIP3     30349    TIP3     H1       HT       0.417000       1.00800           0
    100963 TIP3     30349    TIP3     H2       HT       0.417000       1.00800           0
    100964 TIP3     30350    TIP3     OH2      OT      -0.834000       15.9994           0
    100965 TIP3     30350    TIP3     H1       HT       0.417000       1.00800           0
    100966 TIP3     30350    TIP3     H2       HT       0.417000       1.00800           0
    100967 TIP3     30351    TIP3     OH2      OT      -0.834000       15.9994           0
    100968 TIP3     30351    TIP3     H1       HT       0.417000       1.00800           0
    100969 TIP3     30351    TIP3     H2       HT       0.417000       1.00800           0
    100970 TIP3     30352    TIP3     OH2      OT      -0.834000       15.9994           0
    100971 TIP3     30352    TIP3     H1       HT       0.417000       1.00800           0
    100972 TIP3     30352    TIP3     H2       HT       0.417000       1.00800           0
    100973 TIP3     30353    TIP3     OH2      OT      -0.834000       15.9994           0
    100974 TIP3     30353    TIP3     H1       HT       0.417000       1.00800           0
    100975 TIP3     30353    TIP3     H2       HT       0.417000       1.00800           0
    100976 TIP3     30354    TIP3     OH2      OT      -0.834000       15.9994           0
    100977 TIP3     30354    TIP3     H1       HT       0.417000       1.00800           0
    100978 TIP3     30354    TIP3     H2       HT       0.417000       1.00800           0
    100979 TIP3     30355    TIP3     OH2      OT      -0.834000       15.9994           0
    100980 TIP3     30355    TIP3     H1       HT       0.417000       1.00800           0
    100981 TIP3     30355    TIP3     H2       HT       0.417000       1.00800           0
    100982 TIP3     30356    TIP3     OH2      OT      -0.834000       15.9994           0
    100983 TIP3     30356    TIP3     H1       HT       0.417000       1.00800           0
    100984 TIP3     30356    TIP3     H2       HT       0.417000       1.00800           0
    100985 TIP3     30357    TIP3     OH2      OT      -0.834000       15.9994           0
    100986 TIP3     30357    TIP3     H1       HT       0.417000       1.00800           0
    100987 TIP3     30357    TIP3     H2       HT       0.417000       1.00800           0
    100988 TIP3     30358    TIP3     OH2      OT      -0.834000       15.9994           0
    100989 TIP3     30358    TIP3     H1       HT       0.417000       1.00800           0
    100990 TIP3     30358    TIP3     H2       HT       0.417000       1.00800           0
    100991 TIP3     30359    TIP3     OH2      OT      -0.834000       15.9994           0
    100992 TIP3     30359    TIP3     H1       HT       0.417000       1.00800           0
    100993 TIP3     30359    TIP3     H2       HT       0.417000       1.00800           0
    100994 TIP3     30360    TIP3     OH2      OT      -0.834000       15.9994           0
    100995 TIP3     30360    TIP3     H1       HT       0.417000       1.00800           0
    100996 TIP3     30360    TIP3     H2       HT       0.417000       1.00800           0
    100997 TIP3     30361    TIP3     OH2      OT      -0.834000       15.9994           0
    100998 TIP3     30361    TIP3     H1       HT       0.417000       1.00800           0
    100999 TIP3     30361    TIP3     H2       HT       0.417000       1.00800           0
    101000 TIP3     30362    TIP3     OH2      OT      -0.834000       15.9994           0
    101001 TIP3     30362    TIP3     H1       HT       0.417000       1.00800           0
    101002 TIP3     30362    TIP3     H2       HT       0.417000       1.00800           0
    101003 TIP3     30363    TIP3     OH2      OT      -0.834000       15.9994           0
    101004 TIP3     30363    TIP3     H1       HT       0.417000       1.00800           0
    101005 TIP3     30363    TIP3     H2       HT       0.417000       1.00800           0
    101006 TIP3     30364    TIP3     OH2      OT      -0.834000       15.9994           0
    101007 TIP3     30364    TIP3     H1       HT       0.417000       1.00800           0
    101008 TIP3     30364    TIP3     H2       HT       0.417000       1.00800           0
    101009 TIP3     30365    TIP3     OH2      OT      -0.834000       15.9994           0
    101010 TIP3     30365    TIP3     H1       HT       0.417000       1.00800           0
    101011 TIP3     30365    TIP3     H2       HT       0.417000       1.00800           0
    101012 TIP3     30366    TIP3     OH2      OT      -0.834000       15.9994           0
    101013 TIP3     30366    TIP3     H1       HT       0.417000       1.00800           0
    101014 TIP3     30366    TIP3     H2       HT       0.417000       1.00800           0
    101015 TIP3     30367    TIP3     OH2      OT      -0.834000       15.9994           0
    101016 TIP3     30367    TIP3     H1       HT       0.417000       1.00800           0
    101017 TIP3     30367    TIP3     H2       HT       0.417000       1.00800           0
    101018 TIP3     30368    TIP3     OH2      OT      -0.834000       15.9994           0
    101019 TIP3     30368    TIP3     H1       HT       0.417000       1.00800           0
    101020 TIP3     30368    TIP3     H2       HT       0.417000       1.00800           0
    101021 TIP3     30369    TIP3     OH2      OT      -0.834000       15.9994           0
    101022 TIP3     30369    TIP3     H1       HT       0.417000       1.00800           0
    101023 TIP3     30369    TIP3     H2       HT       0.417000       1.00800           0
    101024 TIP3     30370    TIP3     OH2      OT      -0.834000       15.9994           0
    101025 TIP3     30370    TIP3     H1       HT       0.417000       1.00800           0
    101026 TIP3     30370    TIP3     H2       HT       0.417000       1.00800           0
    101027 TIP3     30371    TIP3     OH2      OT      -0.834000       15.9994           0
    101028 TIP3     30371    TIP3     H1       HT       0.417000       1.00800           0
    101029 TIP3     30371    TIP3     H2       HT       0.417000       1.00800           0
    101030 TIP3     30372    TIP3     OH2      OT      -0.834000       15.9994           0
    101031 TIP3     30372    TIP3     H1       HT       0.417000       1.00800           0
    101032 TIP3     30372    TIP3     H2       HT       0.417000       1.00800           0
    101033 TIP3     30373    TIP3     OH2      OT      -0.834000       15.9994           0
    101034 TIP3     30373    TIP3     H1       HT       0.417000       1.00800           0
    101035 TIP3     30373    TIP3     H2       HT       0.417000       1.00800           0
    101036 TIP3     30374    TIP3     OH2      OT      -0.834000       15.9994           0
    101037 TIP3     30374    TIP3     H1       HT       0.417000       1.00800           0
    101038 TIP3     30374    TIP3     H2       HT       0.417000       1.00800           0
    101039 TIP3     30375    TIP3     OH2      OT      -0.834000       15.9994           0
    101040 TIP3     30375    TIP3     H1       HT       0.417000       1.00800           0
    101041 TIP3     30375    TIP3     H2       HT       0.417000       1.00800           0
    101042 TIP3     30376    TIP3     OH2      OT      -0.834000       15.9994           0
    101043 TIP3     30376    TIP3     H1       HT       0.417000       1.00800           0
    101044 TIP3     30376    TIP3     H2       HT       0.417000       1.00800           0
    101045 TIP3     30377    TIP3     OH2      OT      -0.834000       15.9994           0
    101046 TIP3     30377    TIP3     H1       HT       0.417000       1.00800           0
    101047 TIP3     30377    TIP3     H2       HT       0.417000       1.00800           0
    101048 TIP3     30378    TIP3     OH2      OT      -0.834000       15.9994           0
    101049 TIP3     30378    TIP3     H1       HT       0.417000       1.00800           0
    101050 TIP3     30378    TIP3     H2       HT       0.417000       1.00800           0
    101051 TIP3     30379    TIP3     OH2      OT      -0.834000       15.9994           0
    101052 TIP3     30379    TIP3     H1       HT       0.417000       1.00800           0
    101053 TIP3     30379    TIP3     H2       HT       0.417000       1.00800           0
    101054 TIP3     30380    TIP3     OH2      OT      -0.834000       15.9994           0
    101055 TIP3     30380    TIP3     H1       HT       0.417000       1.00800           0
    101056 TIP3     30380    TIP3     H2       HT       0.417000       1.00800           0
    101057 TIP3     30381    TIP3     OH2      OT      -0.834000       15.9994           0
    101058 TIP3     30381    TIP3     H1       HT       0.417000       1.00800           0
    101059 TIP3     30381    TIP3     H2       HT       0.417000       1.00800           0
    101060 TIP3     30382    TIP3     OH2      OT      -0.834000       15.9994           0
    101061 TIP3     30382    TIP3     H1       HT       0.417000       1.00800           0
    101062 TIP3     30382    TIP3     H2       HT       0.417000       1.00800           0
    101063 TIP3     30383    TIP3     OH2      OT      -0.834000       15.9994           0
    101064 TIP3     30383    TIP3     H1       HT       0.417000       1.00800           0
    101065 TIP3     30383    TIP3     H2       HT       0.417000       1.00800           0
    101066 TIP3     30384    TIP3     OH2      OT      -0.834000       15.9994           0
    101067 TIP3     30384    TIP3     H1       HT       0.417000       1.00800           0
    101068 TIP3     30384    TIP3     H2       HT       0.417000       1.00800           0
    101069 TIP3     30385    TIP3     OH2      OT      -0.834000       15.9994           0
    101070 TIP3     30385    TIP3     H1       HT       0.417000       1.00800           0
    101071 TIP3     30385    TIP3     H2       HT       0.417000       1.00800           0
    101072 TIP3     30386    TIP3     OH2      OT      -0.834000       15.9994           0
    101073 TIP3     30386    TIP3     H1       HT       0.417000       1.00800           0
    101074 TIP3     30386    TIP3     H2       HT       0.417000       1.00800           0
    101075 TIP3     30387    TIP3     OH2      OT      -0.834000       15.9994           0
    101076 TIP3     30387    TIP3     H1       HT       0.417000       1.00800           0
    101077 TIP3     30387    TIP3     H2       HT       0.417000       1.00800           0
    101078 TIP3     30388    TIP3     OH2      OT      -0.834000       15.9994           0
    101079 TIP3     30388    TIP3     H1       HT       0.417000       1.00800           0
    101080 TIP3     30388    TIP3     H2       HT       0.417000       1.00800           0
    101081 TIP3     30389    TIP3     OH2      OT      -0.834000       15.9994           0
    101082 TIP3     30389    TIP3     H1       HT       0.417000       1.00800           0
    101083 TIP3     30389    TIP3     H2       HT       0.417000       1.00800           0
    101084 TIP3     30390    TIP3     OH2      OT      -0.834000       15.9994           0
    101085 TIP3     30390    TIP3     H1       HT       0.417000       1.00800           0
    101086 TIP3     30390    TIP3     H2       HT       0.417000       1.00800           0
    101087 TIP3     30391    TIP3     OH2      OT      -0.834000       15.9994           0
    101088 TIP3     30391    TIP3     H1       HT       0.417000       1.00800           0
    101089 TIP3     30391    TIP3     H2       HT       0.417000       1.00800           0
    101090 TIP3     30392    TIP3     OH2      OT      -0.834000       15.9994           0
    101091 TIP3     30392    TIP3     H1       HT       0.417000       1.00800           0
    101092 TIP3     30392    TIP3     H2       HT       0.417000       1.00800           0
    101093 TIP3     30393    TIP3     OH2      OT      -0.834000       15.9994           0
    101094 TIP3     30393    TIP3     H1       HT       0.417000       1.00800           0
    101095 TIP3     30393    TIP3     H2       HT       0.417000       1.00800           0
    101096 TIP3     30394    TIP3     OH2      OT      -0.834000       15.9994           0
    101097 TIP3     30394    TIP3     H1       HT       0.417000       1.00800           0
    101098 TIP3     30394    TIP3     H2       HT       0.417000       1.00800           0
    101099 TIP3     30395    TIP3     OH2      OT      -0.834000       15.9994           0
    101100 TIP3     30395    TIP3     H1       HT       0.417000       1.00800           0
    101101 TIP3     30395    TIP3     H2       HT       0.417000       1.00800           0
    101102 TIP3     30396    TIP3     OH2      OT      -0.834000       15.9994           0
    101103 TIP3     30396    TIP3     H1       HT       0.417000       1.00800           0
    101104 TIP3     30396    TIP3     H2       HT       0.417000       1.00800           0
    101105 TIP3     30397    TIP3     OH2      OT      -0.834000       15.9994           0
    101106 TIP3     30397    TIP3     H1       HT       0.417000       1.00800           0
    101107 TIP3     30397    TIP3     H2       HT       0.417000       1.00800           0
    101108 TIP3     30398    TIP3     OH2      OT      -0.834000       15.9994           0
    101109 TIP3     30398    TIP3     H1       HT       0.417000       1.00800           0
    101110 TIP3     30398    TIP3     H2       HT       0.417000       1.00800           0
    101111 TIP3     30399    TIP3     OH2      OT      -0.834000       15.9994           0
    101112 TIP3     30399    TIP3     H1       HT       0.417000       1.00800           0
    101113 TIP3     30399    TIP3     H2       HT       0.417000       1.00800           0
    101114 TIP3     30400    TIP3     OH2      OT      -0.834000       15.9994           0
    101115 TIP3     30400    TIP3     H1       HT       0.417000       1.00800           0
    101116 TIP3     30400    TIP3     H2       HT       0.417000       1.00800           0
    101117 TIP3     30401    TIP3     OH2      OT      -0.834000       15.9994           0
    101118 TIP3     30401    TIP3     H1       HT       0.417000       1.00800           0
    101119 TIP3     30401    TIP3     H2       HT       0.417000       1.00800           0
    101120 TIP3     30402    TIP3     OH2      OT      -0.834000       15.9994           0
    101121 TIP3     30402    TIP3     H1       HT       0.417000       1.00800           0
    101122 TIP3     30402    TIP3     H2       HT       0.417000       1.00800           0
    101123 TIP3     30403    TIP3     OH2      OT      -0.834000       15.9994           0
    101124 TIP3     30403    TIP3     H1       HT       0.417000       1.00800           0
    101125 TIP3     30403    TIP3     H2       HT       0.417000       1.00800           0
    101126 TIP3     30404    TIP3     OH2      OT      -0.834000       15.9994           0
    101127 TIP3     30404    TIP3     H1       HT       0.417000       1.00800           0
    101128 TIP3     30404    TIP3     H2       HT       0.417000       1.00800           0
    101129 TIP3     30405    TIP3     OH2      OT      -0.834000       15.9994           0
    101130 TIP3     30405    TIP3     H1       HT       0.417000       1.00800           0
    101131 TIP3     30405    TIP3     H2       HT       0.417000       1.00800           0
    101132 TIP3     30406    TIP3     OH2      OT      -0.834000       15.9994           0
    101133 TIP3     30406    TIP3     H1       HT       0.417000       1.00800           0
    101134 TIP3     30406    TIP3     H2       HT       0.417000       1.00800           0
    101135 TIP3     30407    TIP3     OH2      OT      -0.834000       15.9994           0
    101136 TIP3     30407    TIP3     H1       HT       0.417000       1.00800           0
    101137 TIP3     30407    TIP3     H2       HT       0.417000       1.00800           0
    101138 TIP3     30408    TIP3     OH2      OT      -0.834000       15.9994           0
    101139 TIP3     30408    TIP3     H1       HT       0.417000       1.00800           0
    101140 TIP3     30408    TIP3     H2       HT       0.417000       1.00800           0
    101141 TIP3     30409    TIP3     OH2      OT      -0.834000       15.9994           0
    101142 TIP3     30409    TIP3     H1       HT       0.417000       1.00800           0
    101143 TIP3     30409    TIP3     H2       HT       0.417000       1.00800           0
    101144 TIP3     30410    TIP3     OH2      OT      -0.834000       15.9994           0
    101145 TIP3     30410    TIP3     H1       HT       0.417000       1.00800           0
    101146 TIP3     30410    TIP3     H2       HT       0.417000       1.00800           0
    101147 TIP3     30411    TIP3     OH2      OT      -0.834000       15.9994           0
    101148 TIP3     30411    TIP3     H1       HT       0.417000       1.00800           0
    101149 TIP3     30411    TIP3     H2       HT       0.417000       1.00800           0
    101150 TIP3     30412    TIP3     OH2      OT      -0.834000       15.9994           0
    101151 TIP3     30412    TIP3     H1       HT       0.417000       1.00800           0
    101152 TIP3     30412    TIP3     H2       HT       0.417000       1.00800           0
    101153 TIP3     30413    TIP3     OH2      OT      -0.834000       15.9994           0
    101154 TIP3     30413    TIP3     H1       HT       0.417000       1.00800           0
    101155 TIP3     30413    TIP3     H2       HT       0.417000       1.00800           0
    101156 TIP3     30414    TIP3     OH2      OT      -0.834000       15.9994           0
    101157 TIP3     30414    TIP3     H1       HT       0.417000       1.00800           0
    101158 TIP3     30414    TIP3     H2       HT       0.417000       1.00800           0
    101159 TIP3     30415    TIP3     OH2      OT      -0.834000       15.9994           0
    101160 TIP3     30415    TIP3     H1       HT       0.417000       1.00800           0
    101161 TIP3     30415    TIP3     H2       HT       0.417000       1.00800           0
    101162 TIP3     30416    TIP3     OH2      OT      -0.834000       15.9994           0
    101163 TIP3     30416    TIP3     H1       HT       0.417000       1.00800           0
    101164 TIP3     30416    TIP3     H2       HT       0.417000       1.00800           0
    101165 TIP3     30417    TIP3     OH2      OT      -0.834000       15.9994           0
    101166 TIP3     30417    TIP3     H1       HT       0.417000       1.00800           0
    101167 TIP3     30417    TIP3     H2       HT       0.417000       1.00800           0
    101168 TIP3     30418    TIP3     OH2      OT      -0.834000       15.9994           0
    101169 TIP3     30418    TIP3     H1       HT       0.417000       1.00800           0
    101170 TIP3     30418    TIP3     H2       HT       0.417000       1.00800           0
    101171 TIP3     30419    TIP3     OH2      OT      -0.834000       15.9994           0
    101172 TIP3     30419    TIP3     H1       HT       0.417000       1.00800           0
    101173 TIP3     30419    TIP3     H2       HT       0.417000       1.00800           0
    101174 TIP3     30420    TIP3     OH2      OT      -0.834000       15.9994           0
    101175 TIP3     30420    TIP3     H1       HT       0.417000       1.00800           0
    101176 TIP3     30420    TIP3     H2       HT       0.417000       1.00800           0
    101177 TIP3     30421    TIP3     OH2      OT      -0.834000       15.9994           0
    101178 TIP3     30421    TIP3     H1       HT       0.417000       1.00800           0
    101179 TIP3     30421    TIP3     H2       HT       0.417000       1.00800           0
    101180 TIP3     30422    TIP3     OH2      OT      -0.834000       15.9994           0
    101181 TIP3     30422    TIP3     H1       HT       0.417000       1.00800           0
    101182 TIP3     30422    TIP3     H2       HT       0.417000       1.00800           0
    101183 TIP3     30423    TIP3     OH2      OT      -0.834000       15.9994           0
    101184 TIP3     30423    TIP3     H1       HT       0.417000       1.00800           0
    101185 TIP3     30423    TIP3     H2       HT       0.417000       1.00800           0
    101186 TIP3     30424    TIP3     OH2      OT      -0.834000       15.9994           0
    101187 TIP3     30424    TIP3     H1       HT       0.417000       1.00800           0
    101188 TIP3     30424    TIP3     H2       HT       0.417000       1.00800           0
    101189 TIP3     30425    TIP3     OH2      OT      -0.834000       15.9994           0
    101190 TIP3     30425    TIP3     H1       HT       0.417000       1.00800           0
    101191 TIP3     30425    TIP3     H2       HT       0.417000       1.00800           0
    101192 TIP3     30426    TIP3     OH2      OT      -0.834000       15.9994           0
    101193 TIP3     30426    TIP3     H1       HT       0.417000       1.00800           0
    101194 TIP3     30426    TIP3     H2       HT       0.417000       1.00800           0
    101195 TIP3     30427    TIP3     OH2      OT      -0.834000       15.9994           0
    101196 TIP3     30427    TIP3     H1       HT       0.417000       1.00800           0
    101197 TIP3     30427    TIP3     H2       HT       0.417000       1.00800           0
    101198 TIP3     30428    TIP3     OH2      OT      -0.834000       15.9994           0
    101199 TIP3     30428    TIP3     H1       HT       0.417000       1.00800           0
    101200 TIP3     30428    TIP3     H2       HT       0.417000       1.00800           0
    101201 TIP3     30429    TIP3     OH2      OT      -0.834000       15.9994           0
    101202 TIP3     30429    TIP3     H1       HT       0.417000       1.00800           0
    101203 TIP3     30429    TIP3     H2       HT       0.417000       1.00800           0
    101204 TIP3     30430    TIP3     OH2      OT      -0.834000       15.9994           0
    101205 TIP3     30430    TIP3     H1       HT       0.417000       1.00800           0
    101206 TIP3     30430    TIP3     H2       HT       0.417000       1.00800           0
    101207 TIP3     30431    TIP3     OH2      OT      -0.834000       15.9994           0
    101208 TIP3     30431    TIP3     H1       HT       0.417000       1.00800           0
    101209 TIP3     30431    TIP3     H2       HT       0.417000       1.00800           0
    101210 TIP3     30432    TIP3     OH2      OT      -0.834000       15.9994           0
    101211 TIP3     30432    TIP3     H1       HT       0.417000       1.00800           0
    101212 TIP3     30432    TIP3     H2       HT       0.417000       1.00800           0
    101213 TIP3     30433    TIP3     OH2      OT      -0.834000       15.9994           0
    101214 TIP3     30433    TIP3     H1       HT       0.417000       1.00800           0
    101215 TIP3     30433    TIP3     H2       HT       0.417000       1.00800           0
    101216 TIP3     30434    TIP3     OH2      OT      -0.834000       15.9994           0
    101217 TIP3     30434    TIP3     H1       HT       0.417000       1.00800           0
    101218 TIP3     30434    TIP3     H2       HT       0.417000       1.00800           0
    101219 TIP3     30435    TIP3     OH2      OT      -0.834000       15.9994           0
    101220 TIP3     30435    TIP3     H1       HT       0.417000       1.00800           0
    101221 TIP3     30435    TIP3     H2       HT       0.417000       1.00800           0
    101222 TIP3     30436    TIP3     OH2      OT      -0.834000       15.9994           0
    101223 TIP3     30436    TIP3     H1       HT       0.417000       1.00800           0
    101224 TIP3     30436    TIP3     H2       HT       0.417000       1.00800           0
    101225 TIP3     30437    TIP3     OH2      OT      -0.834000       15.9994           0
    101226 TIP3     30437    TIP3     H1       HT       0.417000       1.00800           0
    101227 TIP3     30437    TIP3     H2       HT       0.417000       1.00800           0
    101228 TIP3     30438    TIP3     OH2      OT      -0.834000       15.9994           0
    101229 TIP3     30438    TIP3     H1       HT       0.417000       1.00800           0
    101230 TIP3     30438    TIP3     H2       HT       0.417000       1.00800           0
    101231 TIP3     30439    TIP3     OH2      OT      -0.834000       15.9994           0
    101232 TIP3     30439    TIP3     H1       HT       0.417000       1.00800           0
    101233 TIP3     30439    TIP3     H2       HT       0.417000       1.00800           0
    101234 TIP3     30440    TIP3     OH2      OT      -0.834000       15.9994           0
    101235 TIP3     30440    TIP3     H1       HT       0.417000       1.00800           0
    101236 TIP3     30440    TIP3     H2       HT       0.417000       1.00800           0
    101237 TIP3     30441    TIP3     OH2      OT      -0.834000       15.9994           0
    101238 TIP3     30441    TIP3     H1       HT       0.417000       1.00800           0
    101239 TIP3     30441    TIP3     H2       HT       0.417000       1.00800           0
    101240 TIP3     30442    TIP3     OH2      OT      -0.834000       15.9994           0
    101241 TIP3     30442    TIP3     H1       HT       0.417000       1.00800           0
    101242 TIP3     30442    TIP3     H2       HT       0.417000       1.00800           0
    101243 TIP3     30443    TIP3     OH2      OT      -0.834000       15.9994           0
    101244 TIP3     30443    TIP3     H1       HT       0.417000       1.00800           0
    101245 TIP3     30443    TIP3     H2       HT       0.417000       1.00800           0
    101246 TIP3     30444    TIP3     OH2      OT      -0.834000       15.9994           0
    101247 TIP3     30444    TIP3     H1       HT       0.417000       1.00800           0
    101248 TIP3     30444    TIP3     H2       HT       0.417000       1.00800           0
    101249 TIP3     30445    TIP3     OH2      OT      -0.834000       15.9994           0
    101250 TIP3     30445    TIP3     H1       HT       0.417000       1.00800           0
    101251 TIP3     30445    TIP3     H2       HT       0.417000       1.00800           0
    101252 TIP3     30446    TIP3     OH2      OT      -0.834000       15.9994           0
    101253 TIP3     30446    TIP3     H1       HT       0.417000       1.00800           0
    101254 TIP3     30446    TIP3     H2       HT       0.417000       1.00800           0
    101255 TIP3     30447    TIP3     OH2      OT      -0.834000       15.9994           0
    101256 TIP3     30447    TIP3     H1       HT       0.417000       1.00800           0
    101257 TIP3     30447    TIP3     H2       HT       0.417000       1.00800           0
    101258 TIP3     30448    TIP3     OH2      OT      -0.834000       15.9994           0
    101259 TIP3     30448    TIP3     H1       HT       0.417000       1.00800           0
    101260 TIP3     30448    TIP3     H2       HT       0.417000       1.00800           0
    101261 TIP3     30449    TIP3     OH2      OT      -0.834000       15.9994           0
    101262 TIP3     30449    TIP3     H1       HT       0.417000       1.00800           0
    101263 TIP3     30449    TIP3     H2       HT       0.417000       1.00800           0
    101264 TIP3     30450    TIP3     OH2      OT      -0.834000       15.9994           0
    101265 TIP3     30450    TIP3     H1       HT       0.417000       1.00800           0
    101266 TIP3     30450    TIP3     H2       HT       0.417000       1.00800           0
    101267 TIP3     30451    TIP3     OH2      OT      -0.834000       15.9994           0
    101268 TIP3     30451    TIP3     H1       HT       0.417000       1.00800           0
    101269 TIP3     30451    TIP3     H2       HT       0.417000       1.00800           0
    101270 TIP3     30452    TIP3     OH2      OT      -0.834000       15.9994           0
    101271 TIP3     30452    TIP3     H1       HT       0.417000       1.00800           0
    101272 TIP3     30452    TIP3     H2       HT       0.417000       1.00800           0
    101273 TIP3     30453    TIP3     OH2      OT      -0.834000       15.9994           0
    101274 TIP3     30453    TIP3     H1       HT       0.417000       1.00800           0
    101275 TIP3     30453    TIP3     H2       HT       0.417000       1.00800           0
    101276 TIP3     30454    TIP3     OH2      OT      -0.834000       15.9994           0
    101277 TIP3     30454    TIP3     H1       HT       0.417000       1.00800           0
    101278 TIP3     30454    TIP3     H2       HT       0.417000       1.00800           0
    101279 TIP3     30455    TIP3     OH2      OT      -0.834000       15.9994           0
    101280 TIP3     30455    TIP3     H1       HT       0.417000       1.00800           0
    101281 TIP3     30455    TIP3     H2       HT       0.417000       1.00800           0
    101282 TIP3     30456    TIP3     OH2      OT      -0.834000       15.9994           0
    101283 TIP3     30456    TIP3     H1       HT       0.417000       1.00800           0
    101284 TIP3     30456    TIP3     H2       HT       0.417000       1.00800           0
    101285 TIP3     30457    TIP3     OH2      OT      -0.834000       15.9994           0
    101286 TIP3     30457    TIP3     H1       HT       0.417000       1.00800           0
    101287 TIP3     30457    TIP3     H2       HT       0.417000       1.00800           0
    101288 TIP3     30458    TIP3     OH2      OT      -0.834000       15.9994           0
    101289 TIP3     30458    TIP3     H1       HT       0.417000       1.00800           0
    101290 TIP3     30458    TIP3     H2       HT       0.417000       1.00800           0
    101291 TIP3     30459    TIP3     OH2      OT      -0.834000       15.9994           0
    101292 TIP3     30459    TIP3     H1       HT       0.417000       1.00800           0
    101293 TIP3     30459    TIP3     H2       HT       0.417000       1.00800           0
    101294 TIP3     30460    TIP3     OH2      OT      -0.834000       15.9994           0
    101295 TIP3     30460    TIP3     H1       HT       0.417000       1.00800           0
    101296 TIP3     30460    TIP3     H2       HT       0.417000       1.00800           0
    101297 TIP3     30461    TIP3     OH2      OT      -0.834000       15.9994           0
    101298 TIP3     30461    TIP3     H1       HT       0.417000       1.00800           0
    101299 TIP3     30461    TIP3     H2       HT       0.417000       1.00800           0
    101300 TIP3     30462    TIP3     OH2      OT      -0.834000       15.9994           0
    101301 TIP3     30462    TIP3     H1       HT       0.417000       1.00800           0
    101302 TIP3     30462    TIP3     H2       HT       0.417000       1.00800           0
    101303 TIP3     30463    TIP3     OH2      OT      -0.834000       15.9994           0
    101304 TIP3     30463    TIP3     H1       HT       0.417000       1.00800           0
    101305 TIP3     30463    TIP3     H2       HT       0.417000       1.00800           0
    101306 TIP3     30464    TIP3     OH2      OT      -0.834000       15.9994           0
    101307 TIP3     30464    TIP3     H1       HT       0.417000       1.00800           0
    101308 TIP3     30464    TIP3     H2       HT       0.417000       1.00800           0
    101309 TIP3     30465    TIP3     OH2      OT      -0.834000       15.9994           0
    101310 TIP3     30465    TIP3     H1       HT       0.417000       1.00800           0
    101311 TIP3     30465    TIP3     H2       HT       0.417000       1.00800           0
    101312 TIP3     30466    TIP3     OH2      OT      -0.834000       15.9994           0
    101313 TIP3     30466    TIP3     H1       HT       0.417000       1.00800           0
    101314 TIP3     30466    TIP3     H2       HT       0.417000       1.00800           0
    101315 TIP3     30467    TIP3     OH2      OT      -0.834000       15.9994           0
    101316 TIP3     30467    TIP3     H1       HT       0.417000       1.00800           0
    101317 TIP3     30467    TIP3     H2       HT       0.417000       1.00800           0
    101318 TIP3     30468    TIP3     OH2      OT      -0.834000       15.9994           0
    101319 TIP3     30468    TIP3     H1       HT       0.417000       1.00800           0
    101320 TIP3     30468    TIP3     H2       HT       0.417000       1.00800           0
    101321 TIP3     30469    TIP3     OH2      OT      -0.834000       15.9994           0
    101322 TIP3     30469    TIP3     H1       HT       0.417000       1.00800           0
    101323 TIP3     30469    TIP3     H2       HT       0.417000       1.00800           0
    101324 TIP3     30470    TIP3     OH2      OT      -0.834000       15.9994           0
    101325 TIP3     30470    TIP3     H1       HT       0.417000       1.00800           0
    101326 TIP3     30470    TIP3     H2       HT       0.417000       1.00800           0
    101327 TIP3     30471    TIP3     OH2      OT      -0.834000       15.9994           0
    101328 TIP3     30471    TIP3     H1       HT       0.417000       1.00800           0
    101329 TIP3     30471    TIP3     H2       HT       0.417000       1.00800           0
    101330 TIP3     30472    TIP3     OH2      OT      -0.834000       15.9994           0
    101331 TIP3     30472    TIP3     H1       HT       0.417000       1.00800           0
    101332 TIP3     30472    TIP3     H2       HT       0.417000       1.00800           0
    101333 TIP3     30473    TIP3     OH2      OT      -0.834000       15.9994           0
    101334 TIP3     30473    TIP3     H1       HT       0.417000       1.00800           0
    101335 TIP3     30473    TIP3     H2       HT       0.417000       1.00800           0
    101336 TIP3     30474    TIP3     OH2      OT      -0.834000       15.9994           0
    101337 TIP3     30474    TIP3     H1       HT       0.417000       1.00800           0
    101338 TIP3     30474    TIP3     H2       HT       0.417000       1.00800           0
    101339 TIP3     30475    TIP3     OH2      OT      -0.834000       15.9994           0
    101340 TIP3     30475    TIP3     H1       HT       0.417000       1.00800           0
    101341 TIP3     30475    TIP3     H2       HT       0.417000       1.00800           0
    101342 TIP3     30476    TIP3     OH2      OT      -0.834000       15.9994           0
    101343 TIP3     30476    TIP3     H1       HT       0.417000       1.00800           0
    101344 TIP3     30476    TIP3     H2       HT       0.417000       1.00800           0
    101345 TIP3     30477    TIP3     OH2      OT      -0.834000       15.9994           0
    101346 TIP3     30477    TIP3     H1       HT       0.417000       1.00800           0
    101347 TIP3     30477    TIP3     H2       HT       0.417000       1.00800           0
    101348 TIP3     30478    TIP3     OH2      OT      -0.834000       15.9994           0
    101349 TIP3     30478    TIP3     H1       HT       0.417000       1.00800           0
    101350 TIP3     30478    TIP3     H2       HT       0.417000       1.00800           0
    101351 TIP3     30479    TIP3     OH2      OT      -0.834000       15.9994           0
    101352 TIP3     30479    TIP3     H1       HT       0.417000       1.00800           0
    101353 TIP3     30479    TIP3     H2       HT       0.417000       1.00800           0
    101354 TIP3     30480    TIP3     OH2      OT      -0.834000       15.9994           0
    101355 TIP3     30480    TIP3     H1       HT       0.417000       1.00800           0
    101356 TIP3     30480    TIP3     H2       HT       0.417000       1.00800           0
    101357 TIP3     30481    TIP3     OH2      OT      -0.834000       15.9994           0
    101358 TIP3     30481    TIP3     H1       HT       0.417000       1.00800           0
    101359 TIP3     30481    TIP3     H2       HT       0.417000       1.00800           0
    101360 TIP3     30482    TIP3     OH2      OT      -0.834000       15.9994           0
    101361 TIP3     30482    TIP3     H1       HT       0.417000       1.00800           0
    101362 TIP3     30482    TIP3     H2       HT       0.417000       1.00800           0
    101363 TIP3     30483    TIP3     OH2      OT      -0.834000       15.9994           0
    101364 TIP3     30483    TIP3     H1       HT       0.417000       1.00800           0
    101365 TIP3     30483    TIP3     H2       HT       0.417000       1.00800           0
    101366 TIP3     30484    TIP3     OH2      OT      -0.834000       15.9994           0
    101367 TIP3     30484    TIP3     H1       HT       0.417000       1.00800           0
    101368 TIP3     30484    TIP3     H2       HT       0.417000       1.00800           0
    101369 TIP3     30485    TIP3     OH2      OT      -0.834000       15.9994           0
    101370 TIP3     30485    TIP3     H1       HT       0.417000       1.00800           0
    101371 TIP3     30485    TIP3     H2       HT       0.417000       1.00800           0
    101372 TIP3     30486    TIP3     OH2      OT      -0.834000       15.9994           0
    101373 TIP3     30486    TIP3     H1       HT       0.417000       1.00800           0
    101374 TIP3     30486    TIP3     H2       HT       0.417000       1.00800           0
    101375 TIP3     30487    TIP3     OH2      OT      -0.834000       15.9994           0
    101376 TIP3     30487    TIP3     H1       HT       0.417000       1.00800           0
    101377 TIP3     30487    TIP3     H2       HT       0.417000       1.00800           0
    101378 TIP3     30488    TIP3     OH2      OT      -0.834000       15.9994           0
    101379 TIP3     30488    TIP3     H1       HT       0.417000       1.00800           0
    101380 TIP3     30488    TIP3     H2       HT       0.417000       1.00800           0
    101381 TIP3     30489    TIP3     OH2      OT      -0.834000       15.9994           0
    101382 TIP3     30489    TIP3     H1       HT       0.417000       1.00800           0
    101383 TIP3     30489    TIP3     H2       HT       0.417000       1.00800           0
    101384 TIP3     30490    TIP3     OH2      OT      -0.834000       15.9994           0
    101385 TIP3     30490    TIP3     H1       HT       0.417000       1.00800           0
    101386 TIP3     30490    TIP3     H2       HT       0.417000       1.00800           0
    101387 TIP3     30491    TIP3     OH2      OT      -0.834000       15.9994           0
    101388 TIP3     30491    TIP3     H1       HT       0.417000       1.00800           0
    101389 TIP3     30491    TIP3     H2       HT       0.417000       1.00800           0
    101390 TIP3     30492    TIP3     OH2      OT      -0.834000       15.9994           0
    101391 TIP3     30492    TIP3     H1       HT       0.417000       1.00800           0
    101392 TIP3     30492    TIP3     H2       HT       0.417000       1.00800           0
    101393 TIP3     30493    TIP3     OH2      OT      -0.834000       15.9994           0
    101394 TIP3     30493    TIP3     H1       HT       0.417000       1.00800           0
    101395 TIP3     30493    TIP3     H2       HT       0.417000       1.00800           0
    101396 TIP3     30494    TIP3     OH2      OT      -0.834000       15.9994           0
    101397 TIP3     30494    TIP3     H1       HT       0.417000       1.00800           0
    101398 TIP3     30494    TIP3     H2       HT       0.417000       1.00800           0
    101399 TIP3     30495    TIP3     OH2      OT      -0.834000       15.9994           0
    101400 TIP3     30495    TIP3     H1       HT       0.417000       1.00800           0
    101401 TIP3     30495    TIP3     H2       HT       0.417000       1.00800           0
    101402 TIP3     30496    TIP3     OH2      OT      -0.834000       15.9994           0
    101403 TIP3     30496    TIP3     H1       HT       0.417000       1.00800           0
    101404 TIP3     30496    TIP3     H2       HT       0.417000       1.00800           0
    101405 TIP3     30497    TIP3     OH2      OT      -0.834000       15.9994           0
    101406 TIP3     30497    TIP3     H1       HT       0.417000       1.00800           0
    101407 TIP3     30497    TIP3     H2       HT       0.417000       1.00800           0
    101408 TIP3     30498    TIP3     OH2      OT      -0.834000       15.9994           0
    101409 TIP3     30498    TIP3     H1       HT       0.417000       1.00800           0
    101410 TIP3     30498    TIP3     H2       HT       0.417000       1.00800           0
    101411 TIP3     30499    TIP3     OH2      OT      -0.834000       15.9994           0
    101412 TIP3     30499    TIP3     H1       HT       0.417000       1.00800           0
    101413 TIP3     30499    TIP3     H2       HT       0.417000       1.00800           0
    101414 TIP3     30500    TIP3     OH2      OT      -0.834000       15.9994           0
    101415 TIP3     30500    TIP3     H1       HT       0.417000       1.00800           0
    101416 TIP3     30500    TIP3     H2       HT       0.417000       1.00800           0
    101417 TIP3     30501    TIP3     OH2      OT      -0.834000       15.9994           0
    101418 TIP3     30501    TIP3     H1       HT       0.417000       1.00800           0
    101419 TIP3     30501    TIP3     H2       HT       0.417000       1.00800           0
    101420 TIP3     30502    TIP3     OH2      OT      -0.834000       15.9994           0
    101421 TIP3     30502    TIP3     H1       HT       0.417000       1.00800           0
    101422 TIP3     30502    TIP3     H2       HT       0.417000       1.00800           0
    101423 TIP3     30503    TIP3     OH2      OT      -0.834000       15.9994           0
    101424 TIP3     30503    TIP3     H1       HT       0.417000       1.00800           0
    101425 TIP3     30503    TIP3     H2       HT       0.417000       1.00800           0
    101426 TIP3     30504    TIP3     OH2      OT      -0.834000       15.9994           0
    101427 TIP3     30504    TIP3     H1       HT       0.417000       1.00800           0
    101428 TIP3     30504    TIP3     H2       HT       0.417000       1.00800           0
    101429 TIP3     30505    TIP3     OH2      OT      -0.834000       15.9994           0
    101430 TIP3     30505    TIP3     H1       HT       0.417000       1.00800           0
    101431 TIP3     30505    TIP3     H2       HT       0.417000       1.00800           0
    101432 TIP3     30506    TIP3     OH2      OT      -0.834000       15.9994           0
    101433 TIP3     30506    TIP3     H1       HT       0.417000       1.00800           0
    101434 TIP3     30506    TIP3     H2       HT       0.417000       1.00800           0
    101435 TIP3     30507    TIP3     OH2      OT      -0.834000       15.9994           0
    101436 TIP3     30507    TIP3     H1       HT       0.417000       1.00800           0
    101437 TIP3     30507    TIP3     H2       HT       0.417000       1.00800           0
    101438 TIP3     30508    TIP3     OH2      OT      -0.834000       15.9994           0
    101439 TIP3     30508    TIP3     H1       HT       0.417000       1.00800           0
    101440 TIP3     30508    TIP3     H2       HT       0.417000       1.00800           0
    101441 TIP3     30509    TIP3     OH2      OT      -0.834000       15.9994           0
    101442 TIP3     30509    TIP3     H1       HT       0.417000       1.00800           0
    101443 TIP3     30509    TIP3     H2       HT       0.417000       1.00800           0
    101444 TIP3     30510    TIP3     OH2      OT      -0.834000       15.9994           0
    101445 TIP3     30510    TIP3     H1       HT       0.417000       1.00800           0
    101446 TIP3     30510    TIP3     H2       HT       0.417000       1.00800           0
    101447 TIP3     30511    TIP3     OH2      OT      -0.834000       15.9994           0
    101448 TIP3     30511    TIP3     H1       HT       0.417000       1.00800           0
    101449 TIP3     30511    TIP3     H2       HT       0.417000       1.00800           0
    101450 TIP3     30512    TIP3     OH2      OT      -0.834000       15.9994           0
    101451 TIP3     30512    TIP3     H1       HT       0.417000       1.00800           0
    101452 TIP3     30512    TIP3     H2       HT       0.417000       1.00800           0
    101453 TIP3     30513    TIP3     OH2      OT      -0.834000       15.9994           0
    101454 TIP3     30513    TIP3     H1       HT       0.417000       1.00800           0
    101455 TIP3     30513    TIP3     H2       HT       0.417000       1.00800           0
    101456 TIP3     30514    TIP3     OH2      OT      -0.834000       15.9994           0
    101457 TIP3     30514    TIP3     H1       HT       0.417000       1.00800           0
    101458 TIP3     30514    TIP3     H2       HT       0.417000       1.00800           0
    101459 TIP3     30515    TIP3     OH2      OT      -0.834000       15.9994           0
    101460 TIP3     30515    TIP3     H1       HT       0.417000       1.00800           0
    101461 TIP3     30515    TIP3     H2       HT       0.417000       1.00800           0
    101462 TIP3     30516    TIP3     OH2      OT      -0.834000       15.9994           0
    101463 TIP3     30516    TIP3     H1       HT       0.417000       1.00800           0
    101464 TIP3     30516    TIP3     H2       HT       0.417000       1.00800           0
    101465 TIP3     30517    TIP3     OH2      OT      -0.834000       15.9994           0
    101466 TIP3     30517    TIP3     H1       HT       0.417000       1.00800           0
    101467 TIP3     30517    TIP3     H2       HT       0.417000       1.00800           0
    101468 TIP3     30518    TIP3     OH2      OT      -0.834000       15.9994           0
    101469 TIP3     30518    TIP3     H1       HT       0.417000       1.00800           0
    101470 TIP3     30518    TIP3     H2       HT       0.417000       1.00800           0
    101471 TIP3     30519    TIP3     OH2      OT      -0.834000       15.9994           0
    101472 TIP3     30519    TIP3     H1       HT       0.417000       1.00800           0
    101473 TIP3     30519    TIP3     H2       HT       0.417000       1.00800           0
    101474 TIP3     30520    TIP3     OH2      OT      -0.834000       15.9994           0
    101475 TIP3     30520    TIP3     H1       HT       0.417000       1.00800           0
    101476 TIP3     30520    TIP3     H2       HT       0.417000       1.00800           0
    101477 TIP3     30521    TIP3     OH2      OT      -0.834000       15.9994           0
    101478 TIP3     30521    TIP3     H1       HT       0.417000       1.00800           0
    101479 TIP3     30521    TIP3     H2       HT       0.417000       1.00800           0
    101480 TIP3     30522    TIP3     OH2      OT      -0.834000       15.9994           0
    101481 TIP3     30522    TIP3     H1       HT       0.417000       1.00800           0
    101482 TIP3     30522    TIP3     H2       HT       0.417000       1.00800           0
    101483 TIP3     30523    TIP3     OH2      OT      -0.834000       15.9994           0
    101484 TIP3     30523    TIP3     H1       HT       0.417000       1.00800           0
    101485 TIP3     30523    TIP3     H2       HT       0.417000       1.00800           0
    101486 TIP3     30524    TIP3     OH2      OT      -0.834000       15.9994           0
    101487 TIP3     30524    TIP3     H1       HT       0.417000       1.00800           0
    101488 TIP3     30524    TIP3     H2       HT       0.417000       1.00800           0
    101489 TIP3     30525    TIP3     OH2      OT      -0.834000       15.9994           0
    101490 TIP3     30525    TIP3     H1       HT       0.417000       1.00800           0
    101491 TIP3     30525    TIP3     H2       HT       0.417000       1.00800           0
    101492 TIP3     30526    TIP3     OH2      OT      -0.834000       15.9994           0
    101493 TIP3     30526    TIP3     H1       HT       0.417000       1.00800           0
    101494 TIP3     30526    TIP3     H2       HT       0.417000       1.00800           0
    101495 TIP3     30527    TIP3     OH2      OT      -0.834000       15.9994           0
    101496 TIP3     30527    TIP3     H1       HT       0.417000       1.00800           0
    101497 TIP3     30527    TIP3     H2       HT       0.417000       1.00800           0
    101498 TIP3     30528    TIP3     OH2      OT      -0.834000       15.9994           0
    101499 TIP3     30528    TIP3     H1       HT       0.417000       1.00800           0
    101500 TIP3     30528    TIP3     H2       HT       0.417000       1.00800           0
    101501 TIP3     30529    TIP3     OH2      OT      -0.834000       15.9994           0
    101502 TIP3     30529    TIP3     H1       HT       0.417000       1.00800           0
    101503 TIP3     30529    TIP3     H2       HT       0.417000       1.00800           0
    101504 TIP3     30530    TIP3     OH2      OT      -0.834000       15.9994           0
    101505 TIP3     30530    TIP3     H1       HT       0.417000       1.00800           0
    101506 TIP3     30530    TIP3     H2       HT       0.417000       1.00800           0
    101507 TIP3     30531    TIP3     OH2      OT      -0.834000       15.9994           0
    101508 TIP3     30531    TIP3     H1       HT       0.417000       1.00800           0
    101509 TIP3     30531    TIP3     H2       HT       0.417000       1.00800           0
    101510 TIP3     30532    TIP3     OH2      OT      -0.834000       15.9994           0
    101511 TIP3     30532    TIP3     H1       HT       0.417000       1.00800           0
    101512 TIP3     30532    TIP3     H2       HT       0.417000       1.00800           0
    101513 TIP3     30533    TIP3     OH2      OT      -0.834000       15.9994           0
    101514 TIP3     30533    TIP3     H1       HT       0.417000       1.00800           0
    101515 TIP3     30533    TIP3     H2       HT       0.417000       1.00800           0
    101516 TIP3     30534    TIP3     OH2      OT      -0.834000       15.9994           0
    101517 TIP3     30534    TIP3     H1       HT       0.417000       1.00800           0
    101518 TIP3     30534    TIP3     H2       HT       0.417000       1.00800           0
    101519 TIP3     30535    TIP3     OH2      OT      -0.834000       15.9994           0
    101520 TIP3     30535    TIP3     H1       HT       0.417000       1.00800           0
    101521 TIP3     30535    TIP3     H2       HT       0.417000       1.00800           0
    101522 TIP3     30536    TIP3     OH2      OT      -0.834000       15.9994           0
    101523 TIP3     30536    TIP3     H1       HT       0.417000       1.00800           0
    101524 TIP3     30536    TIP3     H2       HT       0.417000       1.00800           0
    101525 TIP3     30537    TIP3     OH2      OT      -0.834000       15.9994           0
    101526 TIP3     30537    TIP3     H1       HT       0.417000       1.00800           0
    101527 TIP3     30537    TIP3     H2       HT       0.417000       1.00800           0
    101528 TIP3     30538    TIP3     OH2      OT      -0.834000       15.9994           0
    101529 TIP3     30538    TIP3     H1       HT       0.417000       1.00800           0
    101530 TIP3     30538    TIP3     H2       HT       0.417000       1.00800           0
    101531 TIP3     30539    TIP3     OH2      OT      -0.834000       15.9994           0
    101532 TIP3     30539    TIP3     H1       HT       0.417000       1.00800           0
    101533 TIP3     30539    TIP3     H2       HT       0.417000       1.00800           0
    101534 TIP3     30540    TIP3     OH2      OT      -0.834000       15.9994           0
    101535 TIP3     30540    TIP3     H1       HT       0.417000       1.00800           0
    101536 TIP3     30540    TIP3     H2       HT       0.417000       1.00800           0
    101537 TIP3     30541    TIP3     OH2      OT      -0.834000       15.9994           0
    101538 TIP3     30541    TIP3     H1       HT       0.417000       1.00800           0
    101539 TIP3     30541    TIP3     H2       HT       0.417000       1.00800           0
    101540 TIP3     30542    TIP3     OH2      OT      -0.834000       15.9994           0
    101541 TIP3     30542    TIP3     H1       HT       0.417000       1.00800           0
    101542 TIP3     30542    TIP3     H2       HT       0.417000       1.00800           0
    101543 TIP3     30543    TIP3     OH2      OT      -0.834000       15.9994           0
    101544 TIP3     30543    TIP3     H1       HT       0.417000       1.00800           0
    101545 TIP3     30543    TIP3     H2       HT       0.417000       1.00800           0
    101546 TIP3     30544    TIP3     OH2      OT      -0.834000       15.9994           0
    101547 TIP3     30544    TIP3     H1       HT       0.417000       1.00800           0
    101548 TIP3     30544    TIP3     H2       HT       0.417000       1.00800           0
    101549 TIP3     30545    TIP3     OH2      OT      -0.834000       15.9994           0
    101550 TIP3     30545    TIP3     H1       HT       0.417000       1.00800           0
    101551 TIP3     30545    TIP3     H2       HT       0.417000       1.00800           0
    101552 TIP3     30546    TIP3     OH2      OT      -0.834000       15.9994           0
    101553 TIP3     30546    TIP3     H1       HT       0.417000       1.00800           0
    101554 TIP3     30546    TIP3     H2       HT       0.417000       1.00800           0
    101555 TIP3     30547    TIP3     OH2      OT      -0.834000       15.9994           0
    101556 TIP3     30547    TIP3     H1       HT       0.417000       1.00800           0
    101557 TIP3     30547    TIP3     H2       HT       0.417000       1.00800           0
    101558 TIP3     30548    TIP3     OH2      OT      -0.834000       15.9994           0
    101559 TIP3     30548    TIP3     H1       HT       0.417000       1.00800           0
    101560 TIP3     30548    TIP3     H2       HT       0.417000       1.00800           0
    101561 TIP3     30549    TIP3     OH2      OT      -0.834000       15.9994           0
    101562 TIP3     30549    TIP3     H1       HT       0.417000       1.00800           0
    101563 TIP3     30549    TIP3     H2       HT       0.417000       1.00800           0
    101564 TIP3     30550    TIP3     OH2      OT      -0.834000       15.9994           0
    101565 TIP3     30550    TIP3     H1       HT       0.417000       1.00800           0
    101566 TIP3     30550    TIP3     H2       HT       0.417000       1.00800           0
    101567 TIP3     30551    TIP3     OH2      OT      -0.834000       15.9994           0
    101568 TIP3     30551    TIP3     H1       HT       0.417000       1.00800           0
    101569 TIP3     30551    TIP3     H2       HT       0.417000       1.00800           0
    101570 TIP3     30552    TIP3     OH2      OT      -0.834000       15.9994           0
    101571 TIP3     30552    TIP3     H1       HT       0.417000       1.00800           0
    101572 TIP3     30552    TIP3     H2       HT       0.417000       1.00800           0
    101573 TIP3     30553    TIP3     OH2      OT      -0.834000       15.9994           0
    101574 TIP3     30553    TIP3     H1       HT       0.417000       1.00800           0
    101575 TIP3     30553    TIP3     H2       HT       0.417000       1.00800           0
    101576 TIP3     30554    TIP3     OH2      OT      -0.834000       15.9994           0
    101577 TIP3     30554    TIP3     H1       HT       0.417000       1.00800           0
    101578 TIP3     30554    TIP3     H2       HT       0.417000       1.00800           0
    101579 TIP3     30555    TIP3     OH2      OT      -0.834000       15.9994           0
    101580 TIP3     30555    TIP3     H1       HT       0.417000       1.00800           0
    101581 TIP3     30555    TIP3     H2       HT       0.417000       1.00800           0
    101582 TIP3     30556    TIP3     OH2      OT      -0.834000       15.9994           0
    101583 TIP3     30556    TIP3     H1       HT       0.417000       1.00800           0
    101584 TIP3     30556    TIP3     H2       HT       0.417000       1.00800           0
    101585 TIP3     30557    TIP3     OH2      OT      -0.834000       15.9994           0
    101586 TIP3     30557    TIP3     H1       HT       0.417000       1.00800           0
    101587 TIP3     30557    TIP3     H2       HT       0.417000       1.00800           0
    101588 TIP3     30558    TIP3     OH2      OT      -0.834000       15.9994           0
    101589 TIP3     30558    TIP3     H1       HT       0.417000       1.00800           0
    101590 TIP3     30558    TIP3     H2       HT       0.417000       1.00800           0
    101591 TIP3     30559    TIP3     OH2      OT      -0.834000       15.9994           0
    101592 TIP3     30559    TIP3     H1       HT       0.417000       1.00800           0
    101593 TIP3     30559    TIP3     H2       HT       0.417000       1.00800           0
    101594 TIP3     30560    TIP3     OH2      OT      -0.834000       15.9994           0
    101595 TIP3     30560    TIP3     H1       HT       0.417000       1.00800           0
    101596 TIP3     30560    TIP3     H2       HT       0.417000       1.00800           0
    101597 TIP3     30561    TIP3     OH2      OT      -0.834000       15.9994           0
    101598 TIP3     30561    TIP3     H1       HT       0.417000       1.00800           0
    101599 TIP3     30561    TIP3     H2       HT       0.417000       1.00800           0
    101600 TIP3     30562    TIP3     OH2      OT      -0.834000       15.9994           0
    101601 TIP3     30562    TIP3     H1       HT       0.417000       1.00800           0
    101602 TIP3     30562    TIP3     H2       HT       0.417000       1.00800           0
    101603 TIP3     30563    TIP3     OH2      OT      -0.834000       15.9994           0
    101604 TIP3     30563    TIP3     H1       HT       0.417000       1.00800           0
    101605 TIP3     30563    TIP3     H2       HT       0.417000       1.00800           0
    101606 TIP3     30564    TIP3     OH2      OT      -0.834000       15.9994           0
    101607 TIP3     30564    TIP3     H1       HT       0.417000       1.00800           0
    101608 TIP3     30564    TIP3     H2       HT       0.417000       1.00800           0
    101609 TIP3     30565    TIP3     OH2      OT      -0.834000       15.9994           0
    101610 TIP3     30565    TIP3     H1       HT       0.417000       1.00800           0
    101611 TIP3     30565    TIP3     H2       HT       0.417000       1.00800           0
    101612 TIP3     30566    TIP3     OH2      OT      -0.834000       15.9994           0
    101613 TIP3     30566    TIP3     H1       HT       0.417000       1.00800           0
    101614 TIP3     30566    TIP3     H2       HT       0.417000       1.00800           0
    101615 TIP3     30567    TIP3     OH2      OT      -0.834000       15.9994           0
    101616 TIP3     30567    TIP3     H1       HT       0.417000       1.00800           0
    101617 TIP3     30567    TIP3     H2       HT       0.417000       1.00800           0
    101618 TIP3     30568    TIP3     OH2      OT      -0.834000       15.9994           0
    101619 TIP3     30568    TIP3     H1       HT       0.417000       1.00800           0
    101620 TIP3     30568    TIP3     H2       HT       0.417000       1.00800           0
    101621 TIP3     30569    TIP3     OH2      OT      -0.834000       15.9994           0
    101622 TIP3     30569    TIP3     H1       HT       0.417000       1.00800           0
    101623 TIP3     30569    TIP3     H2       HT       0.417000       1.00800           0
    101624 TIP3     30570    TIP3     OH2      OT      -0.834000       15.9994           0
    101625 TIP3     30570    TIP3     H1       HT       0.417000       1.00800           0
    101626 TIP3     30570    TIP3     H2       HT       0.417000       1.00800           0
    101627 TIP3     30571    TIP3     OH2      OT      -0.834000       15.9994           0
    101628 TIP3     30571    TIP3     H1       HT       0.417000       1.00800           0
    101629 TIP3     30571    TIP3     H2       HT       0.417000       1.00800           0
    101630 TIP3     30572    TIP3     OH2      OT      -0.834000       15.9994           0
    101631 TIP3     30572    TIP3     H1       HT       0.417000       1.00800           0
    101632 TIP3     30572    TIP3     H2       HT       0.417000       1.00800           0
    101633 TIP3     30573    TIP3     OH2      OT      -0.834000       15.9994           0
    101634 TIP3     30573    TIP3     H1       HT       0.417000       1.00800           0
    101635 TIP3     30573    TIP3     H2       HT       0.417000       1.00800           0
    101636 TIP3     30574    TIP3     OH2      OT      -0.834000       15.9994           0
    101637 TIP3     30574    TIP3     H1       HT       0.417000       1.00800           0
    101638 TIP3     30574    TIP3     H2       HT       0.417000       1.00800           0
    101639 TIP3     30575    TIP3     OH2      OT      -0.834000       15.9994           0
    101640 TIP3     30575    TIP3     H1       HT       0.417000       1.00800           0
    101641 TIP3     30575    TIP3     H2       HT       0.417000       1.00800           0
    101642 TIP3     30576    TIP3     OH2      OT      -0.834000       15.9994           0
    101643 TIP3     30576    TIP3     H1       HT       0.417000       1.00800           0
    101644 TIP3     30576    TIP3     H2       HT       0.417000       1.00800           0
    101645 TIP3     30577    TIP3     OH2      OT      -0.834000       15.9994           0
    101646 TIP3     30577    TIP3     H1       HT       0.417000       1.00800           0
    101647 TIP3     30577    TIP3     H2       HT       0.417000       1.00800           0
    101648 TIP3     30578    TIP3     OH2      OT      -0.834000       15.9994           0
    101649 TIP3     30578    TIP3     H1       HT       0.417000       1.00800           0
    101650 TIP3     30578    TIP3     H2       HT       0.417000       1.00800           0
    101651 TIP3     30579    TIP3     OH2      OT      -0.834000       15.9994           0
    101652 TIP3     30579    TIP3     H1       HT       0.417000       1.00800           0
    101653 TIP3     30579    TIP3     H2       HT       0.417000       1.00800           0
    101654 TIP3     30580    TIP3     OH2      OT      -0.834000       15.9994           0
    101655 TIP3     30580    TIP3     H1       HT       0.417000       1.00800           0
    101656 TIP3     30580    TIP3     H2       HT       0.417000       1.00800           0
    101657 TIP3     30581    TIP3     OH2      OT      -0.834000       15.9994           0
    101658 TIP3     30581    TIP3     H1       HT       0.417000       1.00800           0
    101659 TIP3     30581    TIP3     H2       HT       0.417000       1.00800           0
    101660 TIP3     30582    TIP3     OH2      OT      -0.834000       15.9994           0
    101661 TIP3     30582    TIP3     H1       HT       0.417000       1.00800           0
    101662 TIP3     30582    TIP3     H2       HT       0.417000       1.00800           0
    101663 TIP3     30583    TIP3     OH2      OT      -0.834000       15.9994           0
    101664 TIP3     30583    TIP3     H1       HT       0.417000       1.00800           0
    101665 TIP3     30583    TIP3     H2       HT       0.417000       1.00800           0
    101666 TIP3     30584    TIP3     OH2      OT      -0.834000       15.9994           0
    101667 TIP3     30584    TIP3     H1       HT       0.417000       1.00800           0
    101668 TIP3     30584    TIP3     H2       HT       0.417000       1.00800           0
    101669 TIP3     30585    TIP3     OH2      OT      -0.834000       15.9994           0
    101670 TIP3     30585    TIP3     H1       HT       0.417000       1.00800           0
    101671 TIP3     30585    TIP3     H2       HT       0.417000       1.00800           0
    101672 TIP3     30586    TIP3     OH2      OT      -0.834000       15.9994           0
    101673 TIP3     30586    TIP3     H1       HT       0.417000       1.00800           0
    101674 TIP3     30586    TIP3     H2       HT       0.417000       1.00800           0
    101675 TIP3     30587    TIP3     OH2      OT      -0.834000       15.9994           0
    101676 TIP3     30587    TIP3     H1       HT       0.417000       1.00800           0
    101677 TIP3     30587    TIP3     H2       HT       0.417000       1.00800           0
    101678 TIP3     30588    TIP3     OH2      OT      -0.834000       15.9994           0
    101679 TIP3     30588    TIP3     H1       HT       0.417000       1.00800           0
    101680 TIP3     30588    TIP3     H2       HT       0.417000       1.00800           0
    101681 TIP3     30589    TIP3     OH2      OT      -0.834000       15.9994           0
    101682 TIP3     30589    TIP3     H1       HT       0.417000       1.00800           0
    101683 TIP3     30589    TIP3     H2       HT       0.417000       1.00800           0
    101684 TIP3     30590    TIP3     OH2      OT      -0.834000       15.9994           0
    101685 TIP3     30590    TIP3     H1       HT       0.417000       1.00800           0
    101686 TIP3     30590    TIP3     H2       HT       0.417000       1.00800           0
    101687 TIP3     30591    TIP3     OH2      OT      -0.834000       15.9994           0
    101688 TIP3     30591    TIP3     H1       HT       0.417000       1.00800           0
    101689 TIP3     30591    TIP3     H2       HT       0.417000       1.00800           0
    101690 TIP3     30592    TIP3     OH2      OT      -0.834000       15.9994           0
    101691 TIP3     30592    TIP3     H1       HT       0.417000       1.00800           0
    101692 TIP3     30592    TIP3     H2       HT       0.417000       1.00800           0
    101693 TIP3     30593    TIP3     OH2      OT      -0.834000       15.9994           0
    101694 TIP3     30593    TIP3     H1       HT       0.417000       1.00800           0
    101695 TIP3     30593    TIP3     H2       HT       0.417000       1.00800           0
    101696 TIP3     30594    TIP3     OH2      OT      -0.834000       15.9994           0
    101697 TIP3     30594    TIP3     H1       HT       0.417000       1.00800           0
    101698 TIP3     30594    TIP3     H2       HT       0.417000       1.00800           0
    101699 TIP3     30595    TIP3     OH2      OT      -0.834000       15.9994           0
    101700 TIP3     30595    TIP3     H1       HT       0.417000       1.00800           0
    101701 TIP3     30595    TIP3     H2       HT       0.417000       1.00800           0
    101702 TIP3     30596    TIP3     OH2      OT      -0.834000       15.9994           0
    101703 TIP3     30596    TIP3     H1       HT       0.417000       1.00800           0
    101704 TIP3     30596    TIP3     H2       HT       0.417000       1.00800           0
    101705 TIP3     30597    TIP3     OH2      OT      -0.834000       15.9994           0
    101706 TIP3     30597    TIP3     H1       HT       0.417000       1.00800           0
    101707 TIP3     30597    TIP3     H2       HT       0.417000       1.00800           0
    101708 TIP3     30598    TIP3     OH2      OT      -0.834000       15.9994           0
    101709 TIP3     30598    TIP3     H1       HT       0.417000       1.00800           0
    101710 TIP3     30598    TIP3     H2       HT       0.417000       1.00800           0
    101711 TIP3     30599    TIP3     OH2      OT      -0.834000       15.9994           0
    101712 TIP3     30599    TIP3     H1       HT       0.417000       1.00800           0
    101713 TIP3     30599    TIP3     H2       HT       0.417000       1.00800           0
    101714 TIP3     30600    TIP3     OH2      OT      -0.834000       15.9994           0
    101715 TIP3     30600    TIP3     H1       HT       0.417000       1.00800           0
    101716 TIP3     30600    TIP3     H2       HT       0.417000       1.00800           0
    101717 TIP3     30601    TIP3     OH2      OT      -0.834000       15.9994           0
    101718 TIP3     30601    TIP3     H1       HT       0.417000       1.00800           0
    101719 TIP3     30601    TIP3     H2       HT       0.417000       1.00800           0
    101720 TIP3     30602    TIP3     OH2      OT      -0.834000       15.9994           0
    101721 TIP3     30602    TIP3     H1       HT       0.417000       1.00800           0
    101722 TIP3     30602    TIP3     H2       HT       0.417000       1.00800           0
    101723 TIP3     30603    TIP3     OH2      OT      -0.834000       15.9994           0
    101724 TIP3     30603    TIP3     H1       HT       0.417000       1.00800           0
    101725 TIP3     30603    TIP3     H2       HT       0.417000       1.00800           0
    101726 TIP3     30604    TIP3     OH2      OT      -0.834000       15.9994           0
    101727 TIP3     30604    TIP3     H1       HT       0.417000       1.00800           0
    101728 TIP3     30604    TIP3     H2       HT       0.417000       1.00800           0
    101729 TIP3     30605    TIP3     OH2      OT      -0.834000       15.9994           0
    101730 TIP3     30605    TIP3     H1       HT       0.417000       1.00800           0
    101731 TIP3     30605    TIP3     H2       HT       0.417000       1.00800           0
    101732 TIP3     30606    TIP3     OH2      OT      -0.834000       15.9994           0
    101733 TIP3     30606    TIP3     H1       HT       0.417000       1.00800           0
    101734 TIP3     30606    TIP3     H2       HT       0.417000       1.00800           0
    101735 TIP3     30607    TIP3     OH2      OT      -0.834000       15.9994           0
    101736 TIP3     30607    TIP3     H1       HT       0.417000       1.00800           0
    101737 TIP3     30607    TIP3     H2       HT       0.417000       1.00800           0
    101738 TIP3     30608    TIP3     OH2      OT      -0.834000       15.9994           0
    101739 TIP3     30608    TIP3     H1       HT       0.417000       1.00800           0
    101740 TIP3     30608    TIP3     H2       HT       0.417000       1.00800           0
    101741 TIP3     30609    TIP3     OH2      OT      -0.834000       15.9994           0
    101742 TIP3     30609    TIP3     H1       HT       0.417000       1.00800           0
    101743 TIP3     30609    TIP3     H2       HT       0.417000       1.00800           0
    101744 TIP3     30610    TIP3     OH2      OT      -0.834000       15.9994           0
    101745 TIP3     30610    TIP3     H1       HT       0.417000       1.00800           0
    101746 TIP3     30610    TIP3     H2       HT       0.417000       1.00800           0
    101747 TIP3     30611    TIP3     OH2      OT      -0.834000       15.9994           0
    101748 TIP3     30611    TIP3     H1       HT       0.417000       1.00800           0
    101749 TIP3     30611    TIP3     H2       HT       0.417000       1.00800           0
    101750 TIP3     30612    TIP3     OH2      OT      -0.834000       15.9994           0
    101751 TIP3     30612    TIP3     H1       HT       0.417000       1.00800           0
    101752 TIP3     30612    TIP3     H2       HT       0.417000       1.00800           0
    101753 TIP3     30613    TIP3     OH2      OT      -0.834000       15.9994           0
    101754 TIP3     30613    TIP3     H1       HT       0.417000       1.00800           0
    101755 TIP3     30613    TIP3     H2       HT       0.417000       1.00800           0
    101756 TIP3     30614    TIP3     OH2      OT      -0.834000       15.9994           0
    101757 TIP3     30614    TIP3     H1       HT       0.417000       1.00800           0
    101758 TIP3     30614    TIP3     H2       HT       0.417000       1.00800           0
    101759 TIP3     30615    TIP3     OH2      OT      -0.834000       15.9994           0
    101760 TIP3     30615    TIP3     H1       HT       0.417000       1.00800           0
    101761 TIP3     30615    TIP3     H2       HT       0.417000       1.00800           0
    101762 TIP3     30616    TIP3     OH2      OT      -0.834000       15.9994           0
    101763 TIP3     30616    TIP3     H1       HT       0.417000       1.00800           0
    101764 TIP3     30616    TIP3     H2       HT       0.417000       1.00800           0
    101765 TIP3     30617    TIP3     OH2      OT      -0.834000       15.9994           0
    101766 TIP3     30617    TIP3     H1       HT       0.417000       1.00800           0
    101767 TIP3     30617    TIP3     H2       HT       0.417000       1.00800           0
    101768 TIP3     30618    TIP3     OH2      OT      -0.834000       15.9994           0
    101769 TIP3     30618    TIP3     H1       HT       0.417000       1.00800           0
    101770 TIP3     30618    TIP3     H2       HT       0.417000       1.00800           0
    101771 TIP3     30619    TIP3     OH2      OT      -0.834000       15.9994           0
    101772 TIP3     30619    TIP3     H1       HT       0.417000       1.00800           0
    101773 TIP3     30619    TIP3     H2       HT       0.417000       1.00800           0
    101774 TIP3     30620    TIP3     OH2      OT      -0.834000       15.9994           0
    101775 TIP3     30620    TIP3     H1       HT       0.417000       1.00800           0
    101776 TIP3     30620    TIP3     H2       HT       0.417000       1.00800           0
    101777 TIP3     30621    TIP3     OH2      OT      -0.834000       15.9994           0
    101778 TIP3     30621    TIP3     H1       HT       0.417000       1.00800           0
    101779 TIP3     30621    TIP3     H2       HT       0.417000       1.00800           0
    101780 TIP3     30622    TIP3     OH2      OT      -0.834000       15.9994           0
    101781 TIP3     30622    TIP3     H1       HT       0.417000       1.00800           0
    101782 TIP3     30622    TIP3     H2       HT       0.417000       1.00800           0
    101783 TIP3     30623    TIP3     OH2      OT      -0.834000       15.9994           0
    101784 TIP3     30623    TIP3     H1       HT       0.417000       1.00800           0
    101785 TIP3     30623    TIP3     H2       HT       0.417000       1.00800           0
    101786 TIP3     30624    TIP3     OH2      OT      -0.834000       15.9994           0
    101787 TIP3     30624    TIP3     H1       HT       0.417000       1.00800           0
    101788 TIP3     30624    TIP3     H2       HT       0.417000       1.00800           0
    101789 TIP3     30625    TIP3     OH2      OT      -0.834000       15.9994           0
    101790 TIP3     30625    TIP3     H1       HT       0.417000       1.00800           0
    101791 TIP3     30625    TIP3     H2       HT       0.417000       1.00800           0
    101792 TIP3     30626    TIP3     OH2      OT      -0.834000       15.9994           0
    101793 TIP3     30626    TIP3     H1       HT       0.417000       1.00800           0
    101794 TIP3     30626    TIP3     H2       HT       0.417000       1.00800           0
    101795 TIP3     30627    TIP3     OH2      OT      -0.834000       15.9994           0
    101796 TIP3     30627    TIP3     H1       HT       0.417000       1.00800           0
    101797 TIP3     30627    TIP3     H2       HT       0.417000       1.00800           0
    101798 TIP3     30628    TIP3     OH2      OT      -0.834000       15.9994           0
    101799 TIP3     30628    TIP3     H1       HT       0.417000       1.00800           0
    101800 TIP3     30628    TIP3     H2       HT       0.417000       1.00800           0
    101801 TIP3     30629    TIP3     OH2      OT      -0.834000       15.9994           0
    101802 TIP3     30629    TIP3     H1       HT       0.417000       1.00800           0
    101803 TIP3     30629    TIP3     H2       HT       0.417000       1.00800           0
    101804 TIP3     30630    TIP3     OH2      OT      -0.834000       15.9994           0
    101805 TIP3     30630    TIP3     H1       HT       0.417000       1.00800           0
    101806 TIP3     30630    TIP3     H2       HT       0.417000       1.00800           0
    101807 TIP3     30631    TIP3     OH2      OT      -0.834000       15.9994           0
    101808 TIP3     30631    TIP3     H1       HT       0.417000       1.00800           0
    101809 TIP3     30631    TIP3     H2       HT       0.417000       1.00800           0
    101810 TIP3     30632    TIP3     OH2      OT      -0.834000       15.9994           0
    101811 TIP3     30632    TIP3     H1       HT       0.417000       1.00800           0
    101812 TIP3     30632    TIP3     H2       HT       0.417000       1.00800           0
    101813 TIP3     30633    TIP3     OH2      OT      -0.834000       15.9994           0
    101814 TIP3     30633    TIP3     H1       HT       0.417000       1.00800           0
    101815 TIP3     30633    TIP3     H2       HT       0.417000       1.00800           0
    101816 TIP3     30634    TIP3     OH2      OT      -0.834000       15.9994           0
    101817 TIP3     30634    TIP3     H1       HT       0.417000       1.00800           0
    101818 TIP3     30634    TIP3     H2       HT       0.417000       1.00800           0
    101819 TIP3     30635    TIP3     OH2      OT      -0.834000       15.9994           0
    101820 TIP3     30635    TIP3     H1       HT       0.417000       1.00800           0
    101821 TIP3     30635    TIP3     H2       HT       0.417000       1.00800           0
    101822 TIP3     30636    TIP3     OH2      OT      -0.834000       15.9994           0
    101823 TIP3     30636    TIP3     H1       HT       0.417000       1.00800           0
    101824 TIP3     30636    TIP3     H2       HT       0.417000       1.00800           0
    101825 TIP3     30637    TIP3     OH2      OT      -0.834000       15.9994           0
    101826 TIP3     30637    TIP3     H1       HT       0.417000       1.00800           0
    101827 TIP3     30637    TIP3     H2       HT       0.417000       1.00800           0
    101828 TIP3     30638    TIP3     OH2      OT      -0.834000       15.9994           0
    101829 TIP3     30638    TIP3     H1       HT       0.417000       1.00800           0
    101830 TIP3     30638    TIP3     H2       HT       0.417000       1.00800           0
    101831 TIP3     30639    TIP3     OH2      OT      -0.834000       15.9994           0
    101832 TIP3     30639    TIP3     H1       HT       0.417000       1.00800           0
    101833 TIP3     30639    TIP3     H2       HT       0.417000       1.00800           0
    101834 TIP3     30640    TIP3     OH2      OT      -0.834000       15.9994           0
    101835 TIP3     30640    TIP3     H1       HT       0.417000       1.00800           0
    101836 TIP3     30640    TIP3     H2       HT       0.417000       1.00800           0
    101837 TIP3     30641    TIP3     OH2      OT      -0.834000       15.9994           0
    101838 TIP3     30641    TIP3     H1       HT       0.417000       1.00800           0
    101839 TIP3     30641    TIP3     H2       HT       0.417000       1.00800           0
    101840 TIP3     30642    TIP3     OH2      OT      -0.834000       15.9994           0
    101841 TIP3     30642    TIP3     H1       HT       0.417000       1.00800           0
    101842 TIP3     30642    TIP3     H2       HT       0.417000       1.00800           0
    101843 TIP3     30643    TIP3     OH2      OT      -0.834000       15.9994           0
    101844 TIP3     30643    TIP3     H1       HT       0.417000       1.00800           0
    101845 TIP3     30643    TIP3     H2       HT       0.417000       1.00800           0
    101846 TIP3     30644    TIP3     OH2      OT      -0.834000       15.9994           0
    101847 TIP3     30644    TIP3     H1       HT       0.417000       1.00800           0
    101848 TIP3     30644    TIP3     H2       HT       0.417000       1.00800           0
    101849 TIP3     30645    TIP3     OH2      OT      -0.834000       15.9994           0
    101850 TIP3     30645    TIP3     H1       HT       0.417000       1.00800           0
    101851 TIP3     30645    TIP3     H2       HT       0.417000       1.00800           0
    101852 TIP3     30646    TIP3     OH2      OT      -0.834000       15.9994           0
    101853 TIP3     30646    TIP3     H1       HT       0.417000       1.00800           0
    101854 TIP3     30646    TIP3     H2       HT       0.417000       1.00800           0
    101855 TIP3     30647    TIP3     OH2      OT      -0.834000       15.9994           0
    101856 TIP3     30647    TIP3     H1       HT       0.417000       1.00800           0
    101857 TIP3     30647    TIP3     H2       HT       0.417000       1.00800           0
    101858 TIP3     30648    TIP3     OH2      OT      -0.834000       15.9994           0
    101859 TIP3     30648    TIP3     H1       HT       0.417000       1.00800           0
    101860 TIP3     30648    TIP3     H2       HT       0.417000       1.00800           0
    101861 TIP3     30649    TIP3     OH2      OT      -0.834000       15.9994           0
    101862 TIP3     30649    TIP3     H1       HT       0.417000       1.00800           0
    101863 TIP3     30649    TIP3     H2       HT       0.417000       1.00800           0
    101864 TIP3     30650    TIP3     OH2      OT      -0.834000       15.9994           0
    101865 TIP3     30650    TIP3     H1       HT       0.417000       1.00800           0
    101866 TIP3     30650    TIP3     H2       HT       0.417000       1.00800           0
    101867 TIP3     30651    TIP3     OH2      OT      -0.834000       15.9994           0
    101868 TIP3     30651    TIP3     H1       HT       0.417000       1.00800           0
    101869 TIP3     30651    TIP3     H2       HT       0.417000       1.00800           0
    101870 TIP3     30652    TIP3     OH2      OT      -0.834000       15.9994           0
    101871 TIP3     30652    TIP3     H1       HT       0.417000       1.00800           0
    101872 TIP3     30652    TIP3     H2       HT       0.417000       1.00800           0
    101873 TIP3     30653    TIP3     OH2      OT      -0.834000       15.9994           0
    101874 TIP3     30653    TIP3     H1       HT       0.417000       1.00800           0
    101875 TIP3     30653    TIP3     H2       HT       0.417000       1.00800           0
    101876 TIP3     30654    TIP3     OH2      OT      -0.834000       15.9994           0
    101877 TIP3     30654    TIP3     H1       HT       0.417000       1.00800           0
    101878 TIP3     30654    TIP3     H2       HT       0.417000       1.00800           0
    101879 TIP3     30655    TIP3     OH2      OT      -0.834000       15.9994           0
    101880 TIP3     30655    TIP3     H1       HT       0.417000       1.00800           0
    101881 TIP3     30655    TIP3     H2       HT       0.417000       1.00800           0
    101882 TIP3     30656    TIP3     OH2      OT      -0.834000       15.9994           0
    101883 TIP3     30656    TIP3     H1       HT       0.417000       1.00800           0
    101884 TIP3     30656    TIP3     H2       HT       0.417000       1.00800           0
    101885 TIP3     30657    TIP3     OH2      OT      -0.834000       15.9994           0
    101886 TIP3     30657    TIP3     H1       HT       0.417000       1.00800           0
    101887 TIP3     30657    TIP3     H2       HT       0.417000       1.00800           0
    101888 TIP3     30658    TIP3     OH2      OT      -0.834000       15.9994           0
    101889 TIP3     30658    TIP3     H1       HT       0.417000       1.00800           0
    101890 TIP3     30658    TIP3     H2       HT       0.417000       1.00800           0
    101891 TIP3     30659    TIP3     OH2      OT      -0.834000       15.9994           0
    101892 TIP3     30659    TIP3     H1       HT       0.417000       1.00800           0
    101893 TIP3     30659    TIP3     H2       HT       0.417000       1.00800           0
    101894 TIP3     30660    TIP3     OH2      OT      -0.834000       15.9994           0
    101895 TIP3     30660    TIP3     H1       HT       0.417000       1.00800           0
    101896 TIP3     30660    TIP3     H2       HT       0.417000       1.00800           0
    101897 TIP3     30661    TIP3     OH2      OT      -0.834000       15.9994           0
    101898 TIP3     30661    TIP3     H1       HT       0.417000       1.00800           0
    101899 TIP3     30661    TIP3     H2       HT       0.417000       1.00800           0
    101900 TIP3     30662    TIP3     OH2      OT      -0.834000       15.9994           0
    101901 TIP3     30662    TIP3     H1       HT       0.417000       1.00800           0
    101902 TIP3     30662    TIP3     H2       HT       0.417000       1.00800           0
    101903 TIP3     30663    TIP3     OH2      OT      -0.834000       15.9994           0
    101904 TIP3     30663    TIP3     H1       HT       0.417000       1.00800           0
    101905 TIP3     30663    TIP3     H2       HT       0.417000       1.00800           0
    101906 TIP3     30664    TIP3     OH2      OT      -0.834000       15.9994           0
    101907 TIP3     30664    TIP3     H1       HT       0.417000       1.00800           0
    101908 TIP3     30664    TIP3     H2       HT       0.417000       1.00800           0
    101909 TIP3     30665    TIP3     OH2      OT      -0.834000       15.9994           0
    101910 TIP3     30665    TIP3     H1       HT       0.417000       1.00800           0
    101911 TIP3     30665    TIP3     H2       HT       0.417000       1.00800           0
    101912 TIP3     30666    TIP3     OH2      OT      -0.834000       15.9994           0
    101913 TIP3     30666    TIP3     H1       HT       0.417000       1.00800           0
    101914 TIP3     30666    TIP3     H2       HT       0.417000       1.00800           0
    101915 TIP3     30667    TIP3     OH2      OT      -0.834000       15.9994           0
    101916 TIP3     30667    TIP3     H1       HT       0.417000       1.00800           0
    101917 TIP3     30667    TIP3     H2       HT       0.417000       1.00800           0
    101918 TIP3     30668    TIP3     OH2      OT      -0.834000       15.9994           0
    101919 TIP3     30668    TIP3     H1       HT       0.417000       1.00800           0
    101920 TIP3     30668    TIP3     H2       HT       0.417000       1.00800           0
    101921 TIP3     30669    TIP3     OH2      OT      -0.834000       15.9994           0
    101922 TIP3     30669    TIP3     H1       HT       0.417000       1.00800           0
    101923 TIP3     30669    TIP3     H2       HT       0.417000       1.00800           0
    101924 TIP3     30670    TIP3     OH2      OT      -0.834000       15.9994           0
    101925 TIP3     30670    TIP3     H1       HT       0.417000       1.00800           0
    101926 TIP3     30670    TIP3     H2       HT       0.417000       1.00800           0
    101927 TIP3     30671    TIP3     OH2      OT      -0.834000       15.9994           0
    101928 TIP3     30671    TIP3     H1       HT       0.417000       1.00800           0
    101929 TIP3     30671    TIP3     H2       HT       0.417000       1.00800           0
    101930 TIP3     30672    TIP3     OH2      OT      -0.834000       15.9994           0
    101931 TIP3     30672    TIP3     H1       HT       0.417000       1.00800           0
    101932 TIP3     30672    TIP3     H2       HT       0.417000       1.00800           0
    101933 TIP3     30673    TIP3     OH2      OT      -0.834000       15.9994           0
    101934 TIP3     30673    TIP3     H1       HT       0.417000       1.00800           0
    101935 TIP3     30673    TIP3     H2       HT       0.417000       1.00800           0
    101936 TIP3     30674    TIP3     OH2      OT      -0.834000       15.9994           0
    101937 TIP3     30674    TIP3     H1       HT       0.417000       1.00800           0
    101938 TIP3     30674    TIP3     H2       HT       0.417000       1.00800           0
    101939 TIP3     30675    TIP3     OH2      OT      -0.834000       15.9994           0
    101940 TIP3     30675    TIP3     H1       HT       0.417000       1.00800           0
    101941 TIP3     30675    TIP3     H2       HT       0.417000       1.00800           0
    101942 TIP3     30676    TIP3     OH2      OT      -0.834000       15.9994           0
    101943 TIP3     30676    TIP3     H1       HT       0.417000       1.00800           0
    101944 TIP3     30676    TIP3     H2       HT       0.417000       1.00800           0
    101945 TIP3     30677    TIP3     OH2      OT      -0.834000       15.9994           0
    101946 TIP3     30677    TIP3     H1       HT       0.417000       1.00800           0
    101947 TIP3     30677    TIP3     H2       HT       0.417000       1.00800           0
    101948 TIP3     30678    TIP3     OH2      OT      -0.834000       15.9994           0
    101949 TIP3     30678    TIP3     H1       HT       0.417000       1.00800           0
    101950 TIP3     30678    TIP3     H2       HT       0.417000       1.00800           0
    101951 TIP3     30679    TIP3     OH2      OT      -0.834000       15.9994           0
    101952 TIP3     30679    TIP3     H1       HT       0.417000       1.00800           0
    101953 TIP3     30679    TIP3     H2       HT       0.417000       1.00800           0
    101954 TIP3     30680    TIP3     OH2      OT      -0.834000       15.9994           0
    101955 TIP3     30680    TIP3     H1       HT       0.417000       1.00800           0
    101956 TIP3     30680    TIP3     H2       HT       0.417000       1.00800           0
    101957 TIP3     30681    TIP3     OH2      OT      -0.834000       15.9994           0
    101958 TIP3     30681    TIP3     H1       HT       0.417000       1.00800           0
    101959 TIP3     30681    TIP3     H2       HT       0.417000       1.00800           0
    101960 TIP3     30682    TIP3     OH2      OT      -0.834000       15.9994           0
    101961 TIP3     30682    TIP3     H1       HT       0.417000       1.00800           0
    101962 TIP3     30682    TIP3     H2       HT       0.417000       1.00800           0
    101963 TIP3     30683    TIP3     OH2      OT      -0.834000       15.9994           0
    101964 TIP3     30683    TIP3     H1       HT       0.417000       1.00800           0
    101965 TIP3     30683    TIP3     H2       HT       0.417000       1.00800           0
    101966 TIP3     30684    TIP3     OH2      OT      -0.834000       15.9994           0
    101967 TIP3     30684    TIP3     H1       HT       0.417000       1.00800           0
    101968 TIP3     30684    TIP3     H2       HT       0.417000       1.00800           0
    101969 TIP3     30685    TIP3     OH2      OT      -0.834000       15.9994           0
    101970 TIP3     30685    TIP3     H1       HT       0.417000       1.00800           0
    101971 TIP3     30685    TIP3     H2       HT       0.417000       1.00800           0
    101972 TIP3     30686    TIP3     OH2      OT      -0.834000       15.9994           0
    101973 TIP3     30686    TIP3     H1       HT       0.417000       1.00800           0
    101974 TIP3     30686    TIP3     H2       HT       0.417000       1.00800           0
    101975 TIP3     30687    TIP3     OH2      OT      -0.834000       15.9994           0
    101976 TIP3     30687    TIP3     H1       HT       0.417000       1.00800           0
    101977 TIP3     30687    TIP3     H2       HT       0.417000       1.00800           0
    101978 TIP3     30688    TIP3     OH2      OT      -0.834000       15.9994           0
    101979 TIP3     30688    TIP3     H1       HT       0.417000       1.00800           0
    101980 TIP3     30688    TIP3     H2       HT       0.417000       1.00800           0
    101981 TIP3     30689    TIP3     OH2      OT      -0.834000       15.9994           0
    101982 TIP3     30689    TIP3     H1       HT       0.417000       1.00800           0
    101983 TIP3     30689    TIP3     H2       HT       0.417000       1.00800           0
    101984 TIP3     30690    TIP3     OH2      OT      -0.834000       15.9994           0
    101985 TIP3     30690    TIP3     H1       HT       0.417000       1.00800           0
    101986 TIP3     30690    TIP3     H2       HT       0.417000       1.00800           0
    101987 TIP3     30691    TIP3     OH2      OT      -0.834000       15.9994           0
    101988 TIP3     30691    TIP3     H1       HT       0.417000       1.00800           0
    101989 TIP3     30691    TIP3     H2       HT       0.417000       1.00800           0
    101990 TIP3     30692    TIP3     OH2      OT      -0.834000       15.9994           0
    101991 TIP3     30692    TIP3     H1       HT       0.417000       1.00800           0
    101992 TIP3     30692    TIP3     H2       HT       0.417000       1.00800           0
    101993 TIP3     30693    TIP3     OH2      OT      -0.834000       15.9994           0
    101994 TIP3     30693    TIP3     H1       HT       0.417000       1.00800           0
    101995 TIP3     30693    TIP3     H2       HT       0.417000       1.00800           0
    101996 TIP3     30694    TIP3     OH2      OT      -0.834000       15.9994           0
    101997 TIP3     30694    TIP3     H1       HT       0.417000       1.00800           0
    101998 TIP3     30694    TIP3     H2       HT       0.417000       1.00800           0
    101999 TIP3     30695    TIP3     OH2      OT      -0.834000       15.9994           0
    102000 TIP3     30695    TIP3     H1       HT       0.417000       1.00800           0
    102001 TIP3     30695    TIP3     H2       HT       0.417000       1.00800           0
    102002 TIP3     30696    TIP3     OH2      OT      -0.834000       15.9994           0
    102003 TIP3     30696    TIP3     H1       HT       0.417000       1.00800           0
    102004 TIP3     30696    TIP3     H2       HT       0.417000       1.00800           0
    102005 TIP3     30697    TIP3     OH2      OT      -0.834000       15.9994           0
    102006 TIP3     30697    TIP3     H1       HT       0.417000       1.00800           0
    102007 TIP3     30697    TIP3     H2       HT       0.417000       1.00800           0
    102008 TIP3     30698    TIP3     OH2      OT      -0.834000       15.9994           0
    102009 TIP3     30698    TIP3     H1       HT       0.417000       1.00800           0
    102010 TIP3     30698    TIP3     H2       HT       0.417000       1.00800           0
    102011 TIP3     30699    TIP3     OH2      OT      -0.834000       15.9994           0
    102012 TIP3     30699    TIP3     H1       HT       0.417000       1.00800           0
    102013 TIP3     30699    TIP3     H2       HT       0.417000       1.00800           0
    102014 TIP3     30700    TIP3     OH2      OT      -0.834000       15.9994           0
    102015 TIP3     30700    TIP3     H1       HT       0.417000       1.00800           0
    102016 TIP3     30700    TIP3     H2       HT       0.417000       1.00800           0
    102017 TIP3     30701    TIP3     OH2      OT      -0.834000       15.9994           0
    102018 TIP3     30701    TIP3     H1       HT       0.417000       1.00800           0
    102019 TIP3     30701    TIP3     H2       HT       0.417000       1.00800           0
    102020 TIP3     30702    TIP3     OH2      OT      -0.834000       15.9994           0
    102021 TIP3     30702    TIP3     H1       HT       0.417000       1.00800           0
    102022 TIP3     30702    TIP3     H2       HT       0.417000       1.00800           0
    102023 TIP3     30703    TIP3     OH2      OT      -0.834000       15.9994           0
    102024 TIP3     30703    TIP3     H1       HT       0.417000       1.00800           0
    102025 TIP3     30703    TIP3     H2       HT       0.417000       1.00800           0
    102026 TIP3     30704    TIP3     OH2      OT      -0.834000       15.9994           0
    102027 TIP3     30704    TIP3     H1       HT       0.417000       1.00800           0
    102028 TIP3     30704    TIP3     H2       HT       0.417000       1.00800           0
    102029 TIP3     30705    TIP3     OH2      OT      -0.834000       15.9994           0
    102030 TIP3     30705    TIP3     H1       HT       0.417000       1.00800           0
    102031 TIP3     30705    TIP3     H2       HT       0.417000       1.00800           0
    102032 TIP3     30706    TIP3     OH2      OT      -0.834000       15.9994           0
    102033 TIP3     30706    TIP3     H1       HT       0.417000       1.00800           0
    102034 TIP3     30706    TIP3     H2       HT       0.417000       1.00800           0
    102035 TIP3     30707    TIP3     OH2      OT      -0.834000       15.9994           0
    102036 TIP3     30707    TIP3     H1       HT       0.417000       1.00800           0
    102037 TIP3     30707    TIP3     H2       HT       0.417000       1.00800           0
    102038 TIP3     30708    TIP3     OH2      OT      -0.834000       15.9994           0
    102039 TIP3     30708    TIP3     H1       HT       0.417000       1.00800           0
    102040 TIP3     30708    TIP3     H2       HT       0.417000       1.00800           0
    102041 TIP3     30709    TIP3     OH2      OT      -0.834000       15.9994           0
    102042 TIP3     30709    TIP3     H1       HT       0.417000       1.00800           0
    102043 TIP3     30709    TIP3     H2       HT       0.417000       1.00800           0
    102044 TIP3     30710    TIP3     OH2      OT      -0.834000       15.9994           0
    102045 TIP3     30710    TIP3     H1       HT       0.417000       1.00800           0
    102046 TIP3     30710    TIP3     H2       HT       0.417000       1.00800           0
    102047 TIP3     30711    TIP3     OH2      OT      -0.834000       15.9994           0
    102048 TIP3     30711    TIP3     H1       HT       0.417000       1.00800           0
    102049 TIP3     30711    TIP3     H2       HT       0.417000       1.00800           0
    102050 TIP3     30712    TIP3     OH2      OT      -0.834000       15.9994           0
    102051 TIP3     30712    TIP3     H1       HT       0.417000       1.00800           0
    102052 TIP3     30712    TIP3     H2       HT       0.417000       1.00800           0
    102053 TIP3     30713    TIP3     OH2      OT      -0.834000       15.9994           0
    102054 TIP3     30713    TIP3     H1       HT       0.417000       1.00800           0
    102055 TIP3     30713    TIP3     H2       HT       0.417000       1.00800           0
    102056 TIP3     30714    TIP3     OH2      OT      -0.834000       15.9994           0
    102057 TIP3     30714    TIP3     H1       HT       0.417000       1.00800           0
    102058 TIP3     30714    TIP3     H2       HT       0.417000       1.00800           0
    102059 TIP3     30715    TIP3     OH2      OT      -0.834000       15.9994           0
    102060 TIP3     30715    TIP3     H1       HT       0.417000       1.00800           0
    102061 TIP3     30715    TIP3     H2       HT       0.417000       1.00800           0
    102062 TIP3     30716    TIP3     OH2      OT      -0.834000       15.9994           0
    102063 TIP3     30716    TIP3     H1       HT       0.417000       1.00800           0
    102064 TIP3     30716    TIP3     H2       HT       0.417000       1.00800           0
    102065 TIP3     30717    TIP3     OH2      OT      -0.834000       15.9994           0
    102066 TIP3     30717    TIP3     H1       HT       0.417000       1.00800           0
    102067 TIP3     30717    TIP3     H2       HT       0.417000       1.00800           0
    102068 TIP3     30718    TIP3     OH2      OT      -0.834000       15.9994           0
    102069 TIP3     30718    TIP3     H1       HT       0.417000       1.00800           0
    102070 TIP3     30718    TIP3     H2       HT       0.417000       1.00800           0
    102071 TIP3     30719    TIP3     OH2      OT      -0.834000       15.9994           0
    102072 TIP3     30719    TIP3     H1       HT       0.417000       1.00800           0
    102073 TIP3     30719    TIP3     H2       HT       0.417000       1.00800           0
    102074 TIP3     30720    TIP3     OH2      OT      -0.834000       15.9994           0
    102075 TIP3     30720    TIP3     H1       HT       0.417000       1.00800           0
    102076 TIP3     30720    TIP3     H2       HT       0.417000       1.00800           0
    102077 TIP3     30721    TIP3     OH2      OT      -0.834000       15.9994           0
    102078 TIP3     30721    TIP3     H1       HT       0.417000       1.00800           0
    102079 TIP3     30721    TIP3     H2       HT       0.417000       1.00800           0
    102080 TIP3     30722    TIP3     OH2      OT      -0.834000       15.9994           0
    102081 TIP3     30722    TIP3     H1       HT       0.417000       1.00800           0
    102082 TIP3     30722    TIP3     H2       HT       0.417000       1.00800           0
    102083 TIP3     30723    TIP3     OH2      OT      -0.834000       15.9994           0
    102084 TIP3     30723    TIP3     H1       HT       0.417000       1.00800           0
    102085 TIP3     30723    TIP3     H2       HT       0.417000       1.00800           0
    102086 TIP3     30724    TIP3     OH2      OT      -0.834000       15.9994           0
    102087 TIP3     30724    TIP3     H1       HT       0.417000       1.00800           0
    102088 TIP3     30724    TIP3     H2       HT       0.417000       1.00800           0
    102089 TIP3     30725    TIP3     OH2      OT      -0.834000       15.9994           0
    102090 TIP3     30725    TIP3     H1       HT       0.417000       1.00800           0
    102091 TIP3     30725    TIP3     H2       HT       0.417000       1.00800           0
    102092 TIP3     30726    TIP3     OH2      OT      -0.834000       15.9994           0
    102093 TIP3     30726    TIP3     H1       HT       0.417000       1.00800           0
    102094 TIP3     30726    TIP3     H2       HT       0.417000       1.00800           0
    102095 TIP3     30727    TIP3     OH2      OT      -0.834000       15.9994           0
    102096 TIP3     30727    TIP3     H1       HT       0.417000       1.00800           0
    102097 TIP3     30727    TIP3     H2       HT       0.417000       1.00800           0
    102098 TIP3     30728    TIP3     OH2      OT      -0.834000       15.9994           0
    102099 TIP3     30728    TIP3     H1       HT       0.417000       1.00800           0
    102100 TIP3     30728    TIP3     H2       HT       0.417000       1.00800           0
    102101 TIP3     30729    TIP3     OH2      OT      -0.834000       15.9994           0
    102102 TIP3     30729    TIP3     H1       HT       0.417000       1.00800           0
    102103 TIP3     30729    TIP3     H2       HT       0.417000       1.00800           0
    102104 TIP3     30730    TIP3     OH2      OT      -0.834000       15.9994           0
    102105 TIP3     30730    TIP3     H1       HT       0.417000       1.00800           0
    102106 TIP3     30730    TIP3     H2       HT       0.417000       1.00800           0
    102107 TIP3     30731    TIP3     OH2      OT      -0.834000       15.9994           0
    102108 TIP3     30731    TIP3     H1       HT       0.417000       1.00800           0
    102109 TIP3     30731    TIP3     H2       HT       0.417000       1.00800           0
    102110 TIP3     30732    TIP3     OH2      OT      -0.834000       15.9994           0
    102111 TIP3     30732    TIP3     H1       HT       0.417000       1.00800           0
    102112 TIP3     30732    TIP3     H2       HT       0.417000       1.00800           0
    102113 TIP3     30733    TIP3     OH2      OT      -0.834000       15.9994           0
    102114 TIP3     30733    TIP3     H1       HT       0.417000       1.00800           0
    102115 TIP3     30733    TIP3     H2       HT       0.417000       1.00800           0
    102116 TIP3     30734    TIP3     OH2      OT      -0.834000       15.9994           0
    102117 TIP3     30734    TIP3     H1       HT       0.417000       1.00800           0
    102118 TIP3     30734    TIP3     H2       HT       0.417000       1.00800           0
    102119 TIP3     30735    TIP3     OH2      OT      -0.834000       15.9994           0
    102120 TIP3     30735    TIP3     H1       HT       0.417000       1.00800           0
    102121 TIP3     30735    TIP3     H2       HT       0.417000       1.00800           0
    102122 TIP3     30736    TIP3     OH2      OT      -0.834000       15.9994           0
    102123 TIP3     30736    TIP3     H1       HT       0.417000       1.00800           0
    102124 TIP3     30736    TIP3     H2       HT       0.417000       1.00800           0
    102125 TIP3     30737    TIP3     OH2      OT      -0.834000       15.9994           0
    102126 TIP3     30737    TIP3     H1       HT       0.417000       1.00800           0
    102127 TIP3     30737    TIP3     H2       HT       0.417000       1.00800           0
    102128 TIP3     30738    TIP3     OH2      OT      -0.834000       15.9994           0
    102129 TIP3     30738    TIP3     H1       HT       0.417000       1.00800           0
    102130 TIP3     30738    TIP3     H2       HT       0.417000       1.00800           0
    102131 TIP3     30739    TIP3     OH2      OT      -0.834000       15.9994           0
    102132 TIP3     30739    TIP3     H1       HT       0.417000       1.00800           0
    102133 TIP3     30739    TIP3     H2       HT       0.417000       1.00800           0
    102134 TIP3     30740    TIP3     OH2      OT      -0.834000       15.9994           0
    102135 TIP3     30740    TIP3     H1       HT       0.417000       1.00800           0
    102136 TIP3     30740    TIP3     H2       HT       0.417000       1.00800           0
    102137 TIP3     30741    TIP3     OH2      OT      -0.834000       15.9994           0
    102138 TIP3     30741    TIP3     H1       HT       0.417000       1.00800           0
    102139 TIP3     30741    TIP3     H2       HT       0.417000       1.00800           0
    102140 TIP3     30742    TIP3     OH2      OT      -0.834000       15.9994           0
    102141 TIP3     30742    TIP3     H1       HT       0.417000       1.00800           0
    102142 TIP3     30742    TIP3     H2       HT       0.417000       1.00800           0
    102143 TIP3     30743    TIP3     OH2      OT      -0.834000       15.9994           0
    102144 TIP3     30743    TIP3     H1       HT       0.417000       1.00800           0
    102145 TIP3     30743    TIP3     H2       HT       0.417000       1.00800           0
    102146 TIP3     30744    TIP3     OH2      OT      -0.834000       15.9994           0
    102147 TIP3     30744    TIP3     H1       HT       0.417000       1.00800           0
    102148 TIP3     30744    TIP3     H2       HT       0.417000       1.00800           0
    102149 TIP3     30745    TIP3     OH2      OT      -0.834000       15.9994           0
    102150 TIP3     30745    TIP3     H1       HT       0.417000       1.00800           0
    102151 TIP3     30745    TIP3     H2       HT       0.417000       1.00800           0
    102152 TIP3     30746    TIP3     OH2      OT      -0.834000       15.9994           0
    102153 TIP3     30746    TIP3     H1       HT       0.417000       1.00800           0
    102154 TIP3     30746    TIP3     H2       HT       0.417000       1.00800           0
    102155 TIP3     30747    TIP3     OH2      OT      -0.834000       15.9994           0
    102156 TIP3     30747    TIP3     H1       HT       0.417000       1.00800           0
    102157 TIP3     30747    TIP3     H2       HT       0.417000       1.00800           0
    102158 TIP3     30748    TIP3     OH2      OT      -0.834000       15.9994           0
    102159 TIP3     30748    TIP3     H1       HT       0.417000       1.00800           0
    102160 TIP3     30748    TIP3     H2       HT       0.417000       1.00800           0
    102161 TIP3     30749    TIP3     OH2      OT      -0.834000       15.9994           0
    102162 TIP3     30749    TIP3     H1       HT       0.417000       1.00800           0
    102163 TIP3     30749    TIP3     H2       HT       0.417000       1.00800           0
    102164 TIP3     30750    TIP3     OH2      OT      -0.834000       15.9994           0
    102165 TIP3     30750    TIP3     H1       HT       0.417000       1.00800           0
    102166 TIP3     30750    TIP3     H2       HT       0.417000       1.00800           0
    102167 TIP3     30751    TIP3     OH2      OT      -0.834000       15.9994           0
    102168 TIP3     30751    TIP3     H1       HT       0.417000       1.00800           0
    102169 TIP3     30751    TIP3     H2       HT       0.417000       1.00800           0
    102170 TIP3     30752    TIP3     OH2      OT      -0.834000       15.9994           0
    102171 TIP3     30752    TIP3     H1       HT       0.417000       1.00800           0
    102172 TIP3     30752    TIP3     H2       HT       0.417000       1.00800           0
    102173 TIP3     30753    TIP3     OH2      OT      -0.834000       15.9994           0
    102174 TIP3     30753    TIP3     H1       HT       0.417000       1.00800           0
    102175 TIP3     30753    TIP3     H2       HT       0.417000       1.00800           0
    102176 TIP3     30754    TIP3     OH2      OT      -0.834000       15.9994           0
    102177 TIP3     30754    TIP3     H1       HT       0.417000       1.00800           0
    102178 TIP3     30754    TIP3     H2       HT       0.417000       1.00800           0
    102179 TIP3     30755    TIP3     OH2      OT      -0.834000       15.9994           0
    102180 TIP3     30755    TIP3     H1       HT       0.417000       1.00800           0
    102181 TIP3     30755    TIP3     H2       HT       0.417000       1.00800           0
    102182 TIP3     30756    TIP3     OH2      OT      -0.834000       15.9994           0
    102183 TIP3     30756    TIP3     H1       HT       0.417000       1.00800           0
    102184 TIP3     30756    TIP3     H2       HT       0.417000       1.00800           0
    102185 TIP3     30757    TIP3     OH2      OT      -0.834000       15.9994           0
    102186 TIP3     30757    TIP3     H1       HT       0.417000       1.00800           0
    102187 TIP3     30757    TIP3     H2       HT       0.417000       1.00800           0
    102188 TIP3     30758    TIP3     OH2      OT      -0.834000       15.9994           0
    102189 TIP3     30758    TIP3     H1       HT       0.417000       1.00800           0
    102190 TIP3     30758    TIP3     H2       HT       0.417000       1.00800           0
    102191 TIP3     30759    TIP3     OH2      OT      -0.834000       15.9994           0
    102192 TIP3     30759    TIP3     H1       HT       0.417000       1.00800           0
    102193 TIP3     30759    TIP3     H2       HT       0.417000       1.00800           0
    102194 TIP3     30760    TIP3     OH2      OT      -0.834000       15.9994           0
    102195 TIP3     30760    TIP3     H1       HT       0.417000       1.00800           0
    102196 TIP3     30760    TIP3     H2       HT       0.417000       1.00800           0
    102197 TIP3     30761    TIP3     OH2      OT      -0.834000       15.9994           0
    102198 TIP3     30761    TIP3     H1       HT       0.417000       1.00800           0
    102199 TIP3     30761    TIP3     H2       HT       0.417000       1.00800           0
    102200 TIP3     30762    TIP3     OH2      OT      -0.834000       15.9994           0
    102201 TIP3     30762    TIP3     H1       HT       0.417000       1.00800           0
    102202 TIP3     30762    TIP3     H2       HT       0.417000       1.00800           0
    102203 TIP3     30763    TIP3     OH2      OT      -0.834000       15.9994           0
    102204 TIP3     30763    TIP3     H1       HT       0.417000       1.00800           0
    102205 TIP3     30763    TIP3     H2       HT       0.417000       1.00800           0
    102206 TIP3     30764    TIP3     OH2      OT      -0.834000       15.9994           0
    102207 TIP3     30764    TIP3     H1       HT       0.417000       1.00800           0
    102208 TIP3     30764    TIP3     H2       HT       0.417000       1.00800           0
    102209 TIP3     30765    TIP3     OH2      OT      -0.834000       15.9994           0
    102210 TIP3     30765    TIP3     H1       HT       0.417000       1.00800           0
    102211 TIP3     30765    TIP3     H2       HT       0.417000       1.00800           0
    102212 TIP3     30766    TIP3     OH2      OT      -0.834000       15.9994           0
    102213 TIP3     30766    TIP3     H1       HT       0.417000       1.00800           0
    102214 TIP3     30766    TIP3     H2       HT       0.417000       1.00800           0
    102215 TIP3     30767    TIP3     OH2      OT      -0.834000       15.9994           0
    102216 TIP3     30767    TIP3     H1       HT       0.417000       1.00800           0
    102217 TIP3     30767    TIP3     H2       HT       0.417000       1.00800           0
    102218 TIP3     30768    TIP3     OH2      OT      -0.834000       15.9994           0
    102219 TIP3     30768    TIP3     H1       HT       0.417000       1.00800           0
    102220 TIP3     30768    TIP3     H2       HT       0.417000       1.00800           0
    102221 TIP3     30769    TIP3     OH2      OT      -0.834000       15.9994           0
    102222 TIP3     30769    TIP3     H1       HT       0.417000       1.00800           0
    102223 TIP3     30769    TIP3     H2       HT       0.417000       1.00800           0
    102224 TIP3     30770    TIP3     OH2      OT      -0.834000       15.9994           0
    102225 TIP3     30770    TIP3     H1       HT       0.417000       1.00800           0
    102226 TIP3     30770    TIP3     H2       HT       0.417000       1.00800           0
    102227 TIP3     30771    TIP3     OH2      OT      -0.834000       15.9994           0
    102228 TIP3     30771    TIP3     H1       HT       0.417000       1.00800           0
    102229 TIP3     30771    TIP3     H2       HT       0.417000       1.00800           0
    102230 TIP3     30772    TIP3     OH2      OT      -0.834000       15.9994           0
    102231 TIP3     30772    TIP3     H1       HT       0.417000       1.00800           0
    102232 TIP3     30772    TIP3     H2       HT       0.417000       1.00800           0
    102233 TIP3     30773    TIP3     OH2      OT      -0.834000       15.9994           0
    102234 TIP3     30773    TIP3     H1       HT       0.417000       1.00800           0
    102235 TIP3     30773    TIP3     H2       HT       0.417000       1.00800           0
    102236 TIP3     30774    TIP3     OH2      OT      -0.834000       15.9994           0
    102237 TIP3     30774    TIP3     H1       HT       0.417000       1.00800           0
    102238 TIP3     30774    TIP3     H2       HT       0.417000       1.00800           0
    102239 TIP3     30775    TIP3     OH2      OT      -0.834000       15.9994           0
    102240 TIP3     30775    TIP3     H1       HT       0.417000       1.00800           0
    102241 TIP3     30775    TIP3     H2       HT       0.417000       1.00800           0
    102242 TIP3     30776    TIP3     OH2      OT      -0.834000       15.9994           0
    102243 TIP3     30776    TIP3     H1       HT       0.417000       1.00800           0
    102244 TIP3     30776    TIP3     H2       HT       0.417000       1.00800           0
    102245 TIP3     30777    TIP3     OH2      OT      -0.834000       15.9994           0
    102246 TIP3     30777    TIP3     H1       HT       0.417000       1.00800           0
    102247 TIP3     30777    TIP3     H2       HT       0.417000       1.00800           0
    102248 TIP3     30778    TIP3     OH2      OT      -0.834000       15.9994           0
    102249 TIP3     30778    TIP3     H1       HT       0.417000       1.00800           0
    102250 TIP3     30778    TIP3     H2       HT       0.417000       1.00800           0
    102251 TIP3     30779    TIP3     OH2      OT      -0.834000       15.9994           0
    102252 TIP3     30779    TIP3     H1       HT       0.417000       1.00800           0
    102253 TIP3     30779    TIP3     H2       HT       0.417000       1.00800           0
    102254 TIP3     30780    TIP3     OH2      OT      -0.834000       15.9994           0
    102255 TIP3     30780    TIP3     H1       HT       0.417000       1.00800           0
    102256 TIP3     30780    TIP3     H2       HT       0.417000       1.00800           0
    102257 TIP3     30781    TIP3     OH2      OT      -0.834000       15.9994           0
    102258 TIP3     30781    TIP3     H1       HT       0.417000       1.00800           0
    102259 TIP3     30781    TIP3     H2       HT       0.417000       1.00800           0
    102260 TIP3     30782    TIP3     OH2      OT      -0.834000       15.9994           0
    102261 TIP3     30782    TIP3     H1       HT       0.417000       1.00800           0
    102262 TIP3     30782    TIP3     H2       HT       0.417000       1.00800           0
    102263 TIP3     30783    TIP3     OH2      OT      -0.834000       15.9994           0
    102264 TIP3     30783    TIP3     H1       HT       0.417000       1.00800           0
    102265 TIP3     30783    TIP3     H2       HT       0.417000       1.00800           0
    102266 TIP3     30784    TIP3     OH2      OT      -0.834000       15.9994           0
    102267 TIP3     30784    TIP3     H1       HT       0.417000       1.00800           0
    102268 TIP3     30784    TIP3     H2       HT       0.417000       1.00800           0
    102269 TIP3     30785    TIP3     OH2      OT      -0.834000       15.9994           0
    102270 TIP3     30785    TIP3     H1       HT       0.417000       1.00800           0
    102271 TIP3     30785    TIP3     H2       HT       0.417000       1.00800           0
    102272 TIP3     30786    TIP3     OH2      OT      -0.834000       15.9994           0
    102273 TIP3     30786    TIP3     H1       HT       0.417000       1.00800           0
    102274 TIP3     30786    TIP3     H2       HT       0.417000       1.00800           0
    102275 TIP3     30787    TIP3     OH2      OT      -0.834000       15.9994           0
    102276 TIP3     30787    TIP3     H1       HT       0.417000       1.00800           0
    102277 TIP3     30787    TIP3     H2       HT       0.417000       1.00800           0
    102278 TIP3     30788    TIP3     OH2      OT      -0.834000       15.9994           0
    102279 TIP3     30788    TIP3     H1       HT       0.417000       1.00800           0
    102280 TIP3     30788    TIP3     H2       HT       0.417000       1.00800           0
    102281 TIP3     30789    TIP3     OH2      OT      -0.834000       15.9994           0
    102282 TIP3     30789    TIP3     H1       HT       0.417000       1.00800           0
    102283 TIP3     30789    TIP3     H2       HT       0.417000       1.00800           0
    102284 TIP3     30790    TIP3     OH2      OT      -0.834000       15.9994           0
    102285 TIP3     30790    TIP3     H1       HT       0.417000       1.00800           0
    102286 TIP3     30790    TIP3     H2       HT       0.417000       1.00800           0
    102287 TIP3     30791    TIP3     OH2      OT      -0.834000       15.9994           0
    102288 TIP3     30791    TIP3     H1       HT       0.417000       1.00800           0
    102289 TIP3     30791    TIP3     H2       HT       0.417000       1.00800           0
    102290 TIP3     30792    TIP3     OH2      OT      -0.834000       15.9994           0
    102291 TIP3     30792    TIP3     H1       HT       0.417000       1.00800           0
    102292 TIP3     30792    TIP3     H2       HT       0.417000       1.00800           0
    102293 TIP3     30793    TIP3     OH2      OT      -0.834000       15.9994           0
    102294 TIP3     30793    TIP3     H1       HT       0.417000       1.00800           0
    102295 TIP3     30793    TIP3     H2       HT       0.417000       1.00800           0
    102296 TIP3     30794    TIP3     OH2      OT      -0.834000       15.9994           0
    102297 TIP3     30794    TIP3     H1       HT       0.417000       1.00800           0
    102298 TIP3     30794    TIP3     H2       HT       0.417000       1.00800           0
    102299 TIP3     30795    TIP3     OH2      OT      -0.834000       15.9994           0
    102300 TIP3     30795    TIP3     H1       HT       0.417000       1.00800           0
    102301 TIP3     30795    TIP3     H2       HT       0.417000       1.00800           0
    102302 TIP3     30796    TIP3     OH2      OT      -0.834000       15.9994           0
    102303 TIP3     30796    TIP3     H1       HT       0.417000       1.00800           0
    102304 TIP3     30796    TIP3     H2       HT       0.417000       1.00800           0
    102305 TIP3     30797    TIP3     OH2      OT      -0.834000       15.9994           0
    102306 TIP3     30797    TIP3     H1       HT       0.417000       1.00800           0
    102307 TIP3     30797    TIP3     H2       HT       0.417000       1.00800           0
    102308 TIP3     30798    TIP3     OH2      OT      -0.834000       15.9994           0
    102309 TIP3     30798    TIP3     H1       HT       0.417000       1.00800           0
    102310 TIP3     30798    TIP3     H2       HT       0.417000       1.00800           0
    102311 TIP3     30799    TIP3     OH2      OT      -0.834000       15.9994           0
    102312 TIP3     30799    TIP3     H1       HT       0.417000       1.00800           0
    102313 TIP3     30799    TIP3     H2       HT       0.417000       1.00800           0
    102314 TIP3     30800    TIP3     OH2      OT      -0.834000       15.9994           0
    102315 TIP3     30800    TIP3     H1       HT       0.417000       1.00800           0
    102316 TIP3     30800    TIP3     H2       HT       0.417000       1.00800           0
    102317 TIP3     30801    TIP3     OH2      OT      -0.834000       15.9994           0
    102318 TIP3     30801    TIP3     H1       HT       0.417000       1.00800           0
    102319 TIP3     30801    TIP3     H2       HT       0.417000       1.00800           0
    102320 TIP3     30802    TIP3     OH2      OT      -0.834000       15.9994           0
    102321 TIP3     30802    TIP3     H1       HT       0.417000       1.00800           0
    102322 TIP3     30802    TIP3     H2       HT       0.417000       1.00800           0
    102323 TIP3     30803    TIP3     OH2      OT      -0.834000       15.9994           0
    102324 TIP3     30803    TIP3     H1       HT       0.417000       1.00800           0
    102325 TIP3     30803    TIP3     H2       HT       0.417000       1.00800           0
    102326 TIP3     30804    TIP3     OH2      OT      -0.834000       15.9994           0
    102327 TIP3     30804    TIP3     H1       HT       0.417000       1.00800           0
    102328 TIP3     30804    TIP3     H2       HT       0.417000       1.00800           0
    102329 TIP3     30805    TIP3     OH2      OT      -0.834000       15.9994           0
    102330 TIP3     30805    TIP3     H1       HT       0.417000       1.00800           0
    102331 TIP3     30805    TIP3     H2       HT       0.417000       1.00800           0
    102332 TIP3     30806    TIP3     OH2      OT      -0.834000       15.9994           0
    102333 TIP3     30806    TIP3     H1       HT       0.417000       1.00800           0
    102334 TIP3     30806    TIP3     H2       HT       0.417000       1.00800           0
    102335 TIP3     30807    TIP3     OH2      OT      -0.834000       15.9994           0
    102336 TIP3     30807    TIP3     H1       HT       0.417000       1.00800           0
    102337 TIP3     30807    TIP3     H2       HT       0.417000       1.00800           0
    102338 TIP3     30808    TIP3     OH2      OT      -0.834000       15.9994           0
    102339 TIP3     30808    TIP3     H1       HT       0.417000       1.00800           0
    102340 TIP3     30808    TIP3     H2       HT       0.417000       1.00800           0
    102341 TIP3     30809    TIP3     OH2      OT      -0.834000       15.9994           0
    102342 TIP3     30809    TIP3     H1       HT       0.417000       1.00800           0
    102343 TIP3     30809    TIP3     H2       HT       0.417000       1.00800           0
    102344 TIP3     30810    TIP3     OH2      OT      -0.834000       15.9994           0
    102345 TIP3     30810    TIP3     H1       HT       0.417000       1.00800           0
    102346 TIP3     30810    TIP3     H2       HT       0.417000       1.00800           0
    102347 TIP3     30811    TIP3     OH2      OT      -0.834000       15.9994           0
    102348 TIP3     30811    TIP3     H1       HT       0.417000       1.00800           0
    102349 TIP3     30811    TIP3     H2       HT       0.417000       1.00800           0
    102350 TIP3     30812    TIP3     OH2      OT      -0.834000       15.9994           0
    102351 TIP3     30812    TIP3     H1       HT       0.417000       1.00800           0
    102352 TIP3     30812    TIP3     H2       HT       0.417000       1.00800           0
    102353 TIP3     30813    TIP3     OH2      OT      -0.834000       15.9994           0
    102354 TIP3     30813    TIP3     H1       HT       0.417000       1.00800           0
    102355 TIP3     30813    TIP3     H2       HT       0.417000       1.00800           0
    102356 TIP3     30814    TIP3     OH2      OT      -0.834000       15.9994           0
    102357 TIP3     30814    TIP3     H1       HT       0.417000       1.00800           0
    102358 TIP3     30814    TIP3     H2       HT       0.417000       1.00800           0
    102359 TIP3     30815    TIP3     OH2      OT      -0.834000       15.9994           0
    102360 TIP3     30815    TIP3     H1       HT       0.417000       1.00800           0
    102361 TIP3     30815    TIP3     H2       HT       0.417000       1.00800           0
    102362 TIP3     30816    TIP3     OH2      OT      -0.834000       15.9994           0
    102363 TIP3     30816    TIP3     H1       HT       0.417000       1.00800           0
    102364 TIP3     30816    TIP3     H2       HT       0.417000       1.00800           0
    102365 TIP3     30817    TIP3     OH2      OT      -0.834000       15.9994           0
    102366 TIP3     30817    TIP3     H1       HT       0.417000       1.00800           0
    102367 TIP3     30817    TIP3     H2       HT       0.417000       1.00800           0
    102368 TIP3     30818    TIP3     OH2      OT      -0.834000       15.9994           0
    102369 TIP3     30818    TIP3     H1       HT       0.417000       1.00800           0
    102370 TIP3     30818    TIP3     H2       HT       0.417000       1.00800           0
    102371 TIP3     30819    TIP3     OH2      OT      -0.834000       15.9994           0
    102372 TIP3     30819    TIP3     H1       HT       0.417000       1.00800           0
    102373 TIP3     30819    TIP3     H2       HT       0.417000       1.00800           0
    102374 TIP3     30820    TIP3     OH2      OT      -0.834000       15.9994           0
    102375 TIP3     30820    TIP3     H1       HT       0.417000       1.00800           0
    102376 TIP3     30820    TIP3     H2       HT       0.417000       1.00800           0
    102377 TIP3     30821    TIP3     OH2      OT      -0.834000       15.9994           0
    102378 TIP3     30821    TIP3     H1       HT       0.417000       1.00800           0
    102379 TIP3     30821    TIP3     H2       HT       0.417000       1.00800           0
    102380 TIP3     30822    TIP3     OH2      OT      -0.834000       15.9994           0
    102381 TIP3     30822    TIP3     H1       HT       0.417000       1.00800           0
    102382 TIP3     30822    TIP3     H2       HT       0.417000       1.00800           0
    102383 TIP3     30823    TIP3     OH2      OT      -0.834000       15.9994           0
    102384 TIP3     30823    TIP3     H1       HT       0.417000       1.00800           0
    102385 TIP3     30823    TIP3     H2       HT       0.417000       1.00800           0
    102386 TIP3     30824    TIP3     OH2      OT      -0.834000       15.9994           0
    102387 TIP3     30824    TIP3     H1       HT       0.417000       1.00800           0
    102388 TIP3     30824    TIP3     H2       HT       0.417000       1.00800           0
    102389 TIP3     30825    TIP3     OH2      OT      -0.834000       15.9994           0
    102390 TIP3     30825    TIP3     H1       HT       0.417000       1.00800           0
    102391 TIP3     30825    TIP3     H2       HT       0.417000       1.00800           0
    102392 TIP3     30826    TIP3     OH2      OT      -0.834000       15.9994           0
    102393 TIP3     30826    TIP3     H1       HT       0.417000       1.00800           0
    102394 TIP3     30826    TIP3     H2       HT       0.417000       1.00800           0
    102395 TIP3     30827    TIP3     OH2      OT      -0.834000       15.9994           0
    102396 TIP3     30827    TIP3     H1       HT       0.417000       1.00800           0
    102397 TIP3     30827    TIP3     H2       HT       0.417000       1.00800           0
    102398 TIP3     30828    TIP3     OH2      OT      -0.834000       15.9994           0
    102399 TIP3     30828    TIP3     H1       HT       0.417000       1.00800           0
    102400 TIP3     30828    TIP3     H2       HT       0.417000       1.00800           0
    102401 TIP3     30829    TIP3     OH2      OT      -0.834000       15.9994           0
    102402 TIP3     30829    TIP3     H1       HT       0.417000       1.00800           0
    102403 TIP3     30829    TIP3     H2       HT       0.417000       1.00800           0
    102404 TIP3     30830    TIP3     OH2      OT      -0.834000       15.9994           0
    102405 TIP3     30830    TIP3     H1       HT       0.417000       1.00800           0
    102406 TIP3     30830    TIP3     H2       HT       0.417000       1.00800           0
    102407 TIP3     30831    TIP3     OH2      OT      -0.834000       15.9994           0
    102408 TIP3     30831    TIP3     H1       HT       0.417000       1.00800           0
    102409 TIP3     30831    TIP3     H2       HT       0.417000       1.00800           0
    102410 TIP3     30832    TIP3     OH2      OT      -0.834000       15.9994           0
    102411 TIP3     30832    TIP3     H1       HT       0.417000       1.00800           0
    102412 TIP3     30832    TIP3     H2       HT       0.417000       1.00800           0
    102413 TIP3     30833    TIP3     OH2      OT      -0.834000       15.9994           0
    102414 TIP3     30833    TIP3     H1       HT       0.417000       1.00800           0
    102415 TIP3     30833    TIP3     H2       HT       0.417000       1.00800           0
    102416 TIP3     30834    TIP3     OH2      OT      -0.834000       15.9994           0
    102417 TIP3     30834    TIP3     H1       HT       0.417000       1.00800           0
    102418 TIP3     30834    TIP3     H2       HT       0.417000       1.00800           0
    102419 TIP3     30835    TIP3     OH2      OT      -0.834000       15.9994           0
    102420 TIP3     30835    TIP3     H1       HT       0.417000       1.00800           0
    102421 TIP3     30835    TIP3     H2       HT       0.417000       1.00800           0
    102422 TIP3     30836    TIP3     OH2      OT      -0.834000       15.9994           0
    102423 TIP3     30836    TIP3     H1       HT       0.417000       1.00800           0
    102424 TIP3     30836    TIP3     H2       HT       0.417000       1.00800           0
    102425 TIP3     30837    TIP3     OH2      OT      -0.834000       15.9994           0
    102426 TIP3     30837    TIP3     H1       HT       0.417000       1.00800           0
    102427 TIP3     30837    TIP3     H2       HT       0.417000       1.00800           0
    102428 TIP3     30838    TIP3     OH2      OT      -0.834000       15.9994           0
    102429 TIP3     30838    TIP3     H1       HT       0.417000       1.00800           0
    102430 TIP3     30838    TIP3     H2       HT       0.417000       1.00800           0
    102431 TIP3     30839    TIP3     OH2      OT      -0.834000       15.9994           0
    102432 TIP3     30839    TIP3     H1       HT       0.417000       1.00800           0
    102433 TIP3     30839    TIP3     H2       HT       0.417000       1.00800           0
    102434 TIP3     30840    TIP3     OH2      OT      -0.834000       15.9994           0
    102435 TIP3     30840    TIP3     H1       HT       0.417000       1.00800           0
    102436 TIP3     30840    TIP3     H2       HT       0.417000       1.00800           0
    102437 TIP3     30841    TIP3     OH2      OT      -0.834000       15.9994           0
    102438 TIP3     30841    TIP3     H1       HT       0.417000       1.00800           0
    102439 TIP3     30841    TIP3     H2       HT       0.417000       1.00800           0
    102440 TIP3     30842    TIP3     OH2      OT      -0.834000       15.9994           0
    102441 TIP3     30842    TIP3     H1       HT       0.417000       1.00800           0
    102442 TIP3     30842    TIP3     H2       HT       0.417000       1.00800           0
    102443 TIP3     30843    TIP3     OH2      OT      -0.834000       15.9994           0
    102444 TIP3     30843    TIP3     H1       HT       0.417000       1.00800           0
    102445 TIP3     30843    TIP3     H2       HT       0.417000       1.00800           0
    102446 TIP3     30844    TIP3     OH2      OT      -0.834000       15.9994           0
    102447 TIP3     30844    TIP3     H1       HT       0.417000       1.00800           0
    102448 TIP3     30844    TIP3     H2       HT       0.417000       1.00800           0
    102449 TIP3     30845    TIP3     OH2      OT      -0.834000       15.9994           0
    102450 TIP3     30845    TIP3     H1       HT       0.417000       1.00800           0
    102451 TIP3     30845    TIP3     H2       HT       0.417000       1.00800           0
    102452 TIP3     30846    TIP3     OH2      OT      -0.834000       15.9994           0
    102453 TIP3     30846    TIP3     H1       HT       0.417000       1.00800           0
    102454 TIP3     30846    TIP3     H2       HT       0.417000       1.00800           0
    102455 TIP3     30847    TIP3     OH2      OT      -0.834000       15.9994           0
    102456 TIP3     30847    TIP3     H1       HT       0.417000       1.00800           0
    102457 TIP3     30847    TIP3     H2       HT       0.417000       1.00800           0
    102458 TIP3     30848    TIP3     OH2      OT      -0.834000       15.9994           0
    102459 TIP3     30848    TIP3     H1       HT       0.417000       1.00800           0
    102460 TIP3     30848    TIP3     H2       HT       0.417000       1.00800           0
    102461 TIP3     30849    TIP3     OH2      OT      -0.834000       15.9994           0
    102462 TIP3     30849    TIP3     H1       HT       0.417000       1.00800           0
    102463 TIP3     30849    TIP3     H2       HT       0.417000       1.00800           0
    102464 TIP3     30850    TIP3     OH2      OT      -0.834000       15.9994           0
    102465 TIP3     30850    TIP3     H1       HT       0.417000       1.00800           0
    102466 TIP3     30850    TIP3     H2       HT       0.417000       1.00800           0
    102467 TIP3     30851    TIP3     OH2      OT      -0.834000       15.9994           0
    102468 TIP3     30851    TIP3     H1       HT       0.417000       1.00800           0
    102469 TIP3     30851    TIP3     H2       HT       0.417000       1.00800           0
    102470 TIP3     30852    TIP3     OH2      OT      -0.834000       15.9994           0
    102471 TIP3     30852    TIP3     H1       HT       0.417000       1.00800           0
    102472 TIP3     30852    TIP3     H2       HT       0.417000       1.00800           0
    102473 TIP3     30853    TIP3     OH2      OT      -0.834000       15.9994           0
    102474 TIP3     30853    TIP3     H1       HT       0.417000       1.00800           0
    102475 TIP3     30853    TIP3     H2       HT       0.417000       1.00800           0
    102476 TIP3     30854    TIP3     OH2      OT      -0.834000       15.9994           0
    102477 TIP3     30854    TIP3     H1       HT       0.417000       1.00800           0
    102478 TIP3     30854    TIP3     H2       HT       0.417000       1.00800           0
    102479 TIP3     30855    TIP3     OH2      OT      -0.834000       15.9994           0
    102480 TIP3     30855    TIP3     H1       HT       0.417000       1.00800           0
    102481 TIP3     30855    TIP3     H2       HT       0.417000       1.00800           0
    102482 TIP3     30856    TIP3     OH2      OT      -0.834000       15.9994           0
    102483 TIP3     30856    TIP3     H1       HT       0.417000       1.00800           0
    102484 TIP3     30856    TIP3     H2       HT       0.417000       1.00800           0
    102485 TIP3     30857    TIP3     OH2      OT      -0.834000       15.9994           0
    102486 TIP3     30857    TIP3     H1       HT       0.417000       1.00800           0
    102487 TIP3     30857    TIP3     H2       HT       0.417000       1.00800           0
    102488 TIP3     30858    TIP3     OH2      OT      -0.834000       15.9994           0
    102489 TIP3     30858    TIP3     H1       HT       0.417000       1.00800           0
    102490 TIP3     30858    TIP3     H2       HT       0.417000       1.00800           0
    102491 TIP3     30859    TIP3     OH2      OT      -0.834000       15.9994           0
    102492 TIP3     30859    TIP3     H1       HT       0.417000       1.00800           0
    102493 TIP3     30859    TIP3     H2       HT       0.417000       1.00800           0
    102494 TIP3     30860    TIP3     OH2      OT      -0.834000       15.9994           0
    102495 TIP3     30860    TIP3     H1       HT       0.417000       1.00800           0
    102496 TIP3     30860    TIP3     H2       HT       0.417000       1.00800           0
    102497 TIP3     30861    TIP3     OH2      OT      -0.834000       15.9994           0
    102498 TIP3     30861    TIP3     H1       HT       0.417000       1.00800           0
    102499 TIP3     30861    TIP3     H2       HT       0.417000       1.00800           0
    102500 TIP3     30862    TIP3     OH2      OT      -0.834000       15.9994           0
    102501 TIP3     30862    TIP3     H1       HT       0.417000       1.00800           0
    102502 TIP3     30862    TIP3     H2       HT       0.417000       1.00800           0
    102503 TIP3     30863    TIP3     OH2      OT      -0.834000       15.9994           0
    102504 TIP3     30863    TIP3     H1       HT       0.417000       1.00800           0
    102505 TIP3     30863    TIP3     H2       HT       0.417000       1.00800           0
    102506 TIP3     30864    TIP3     OH2      OT      -0.834000       15.9994           0
    102507 TIP3     30864    TIP3     H1       HT       0.417000       1.00800           0
    102508 TIP3     30864    TIP3     H2       HT       0.417000       1.00800           0
    102509 TIP3     30865    TIP3     OH2      OT      -0.834000       15.9994           0
    102510 TIP3     30865    TIP3     H1       HT       0.417000       1.00800           0
    102511 TIP3     30865    TIP3     H2       HT       0.417000       1.00800           0
    102512 TIP3     30866    TIP3     OH2      OT      -0.834000       15.9994           0
    102513 TIP3     30866    TIP3     H1       HT       0.417000       1.00800           0
    102514 TIP3     30866    TIP3     H2       HT       0.417000       1.00800           0
    102515 TIP3     30867    TIP3     OH2      OT      -0.834000       15.9994           0
    102516 TIP3     30867    TIP3     H1       HT       0.417000       1.00800           0
    102517 TIP3     30867    TIP3     H2       HT       0.417000       1.00800           0
    102518 TIP3     30868    TIP3     OH2      OT      -0.834000       15.9994           0
    102519 TIP3     30868    TIP3     H1       HT       0.417000       1.00800           0
    102520 TIP3     30868    TIP3     H2       HT       0.417000       1.00800           0
    102521 TIP3     30869    TIP3     OH2      OT      -0.834000       15.9994           0
    102522 TIP3     30869    TIP3     H1       HT       0.417000       1.00800           0
    102523 TIP3     30869    TIP3     H2       HT       0.417000       1.00800           0
    102524 TIP3     30870    TIP3     OH2      OT      -0.834000       15.9994           0
    102525 TIP3     30870    TIP3     H1       HT       0.417000       1.00800           0
    102526 TIP3     30870    TIP3     H2       HT       0.417000       1.00800           0
    102527 TIP3     30871    TIP3     OH2      OT      -0.834000       15.9994           0
    102528 TIP3     30871    TIP3     H1       HT       0.417000       1.00800           0
    102529 TIP3     30871    TIP3     H2       HT       0.417000       1.00800           0
    102530 TIP3     30872    TIP3     OH2      OT      -0.834000       15.9994           0
    102531 TIP3     30872    TIP3     H1       HT       0.417000       1.00800           0
    102532 TIP3     30872    TIP3     H2       HT       0.417000       1.00800           0
    102533 TIP3     30873    TIP3     OH2      OT      -0.834000       15.9994           0
    102534 TIP3     30873    TIP3     H1       HT       0.417000       1.00800           0
    102535 TIP3     30873    TIP3     H2       HT       0.417000       1.00800           0
    102536 TIP3     30874    TIP3     OH2      OT      -0.834000       15.9994           0
    102537 TIP3     30874    TIP3     H1       HT       0.417000       1.00800           0
    102538 TIP3     30874    TIP3     H2       HT       0.417000       1.00800           0
    102539 TIP3     30875    TIP3     OH2      OT      -0.834000       15.9994           0
    102540 TIP3     30875    TIP3     H1       HT       0.417000       1.00800           0
    102541 TIP3     30875    TIP3     H2       HT       0.417000       1.00800           0
    102542 TIP3     30876    TIP3     OH2      OT      -0.834000       15.9994           0
    102543 TIP3     30876    TIP3     H1       HT       0.417000       1.00800           0
    102544 TIP3     30876    TIP3     H2       HT       0.417000       1.00800           0
    102545 TIP3     30877    TIP3     OH2      OT      -0.834000       15.9994           0
    102546 TIP3     30877    TIP3     H1       HT       0.417000       1.00800           0
    102547 TIP3     30877    TIP3     H2       HT       0.417000       1.00800           0
    102548 TIP3     30878    TIP3     OH2      OT      -0.834000       15.9994           0
    102549 TIP3     30878    TIP3     H1       HT       0.417000       1.00800           0
    102550 TIP3     30878    TIP3     H2       HT       0.417000       1.00800           0
    102551 TIP3     30879    TIP3     OH2      OT      -0.834000       15.9994           0
    102552 TIP3     30879    TIP3     H1       HT       0.417000       1.00800           0
    102553 TIP3     30879    TIP3     H2       HT       0.417000       1.00800           0
    102554 TIP3     30880    TIP3     OH2      OT      -0.834000       15.9994           0
    102555 TIP3     30880    TIP3     H1       HT       0.417000       1.00800           0
    102556 TIP3     30880    TIP3     H2       HT       0.417000       1.00800           0
    102557 TIP3     30881    TIP3     OH2      OT      -0.834000       15.9994           0
    102558 TIP3     30881    TIP3     H1       HT       0.417000       1.00800           0
    102559 TIP3     30881    TIP3     H2       HT       0.417000       1.00800           0
    102560 TIP3     30882    TIP3     OH2      OT      -0.834000       15.9994           0
    102561 TIP3     30882    TIP3     H1       HT       0.417000       1.00800           0
    102562 TIP3     30882    TIP3     H2       HT       0.417000       1.00800           0
    102563 TIP3     30883    TIP3     OH2      OT      -0.834000       15.9994           0
    102564 TIP3     30883    TIP3     H1       HT       0.417000       1.00800           0
    102565 TIP3     30883    TIP3     H2       HT       0.417000       1.00800           0
    102566 TIP3     30884    TIP3     OH2      OT      -0.834000       15.9994           0
    102567 TIP3     30884    TIP3     H1       HT       0.417000       1.00800           0
    102568 TIP3     30884    TIP3     H2       HT       0.417000       1.00800           0
    102569 TIP3     30885    TIP3     OH2      OT      -0.834000       15.9994           0
    102570 TIP3     30885    TIP3     H1       HT       0.417000       1.00800           0
    102571 TIP3     30885    TIP3     H2       HT       0.417000       1.00800           0
    102572 TIP3     30886    TIP3     OH2      OT      -0.834000       15.9994           0
    102573 TIP3     30886    TIP3     H1       HT       0.417000       1.00800           0
    102574 TIP3     30886    TIP3     H2       HT       0.417000       1.00800           0
    102575 TIP3     30887    TIP3     OH2      OT      -0.834000       15.9994           0
    102576 TIP3     30887    TIP3     H1       HT       0.417000       1.00800           0
    102577 TIP3     30887    TIP3     H2       HT       0.417000       1.00800           0
    102578 TIP3     30888    TIP3     OH2      OT      -0.834000       15.9994           0
    102579 TIP3     30888    TIP3     H1       HT       0.417000       1.00800           0
    102580 TIP3     30888    TIP3     H2       HT       0.417000       1.00800           0
    102581 TIP3     30889    TIP3     OH2      OT      -0.834000       15.9994           0
    102582 TIP3     30889    TIP3     H1       HT       0.417000       1.00800           0
    102583 TIP3     30889    TIP3     H2       HT       0.417000       1.00800           0
    102584 TIP3     30890    TIP3     OH2      OT      -0.834000       15.9994           0
    102585 TIP3     30890    TIP3     H1       HT       0.417000       1.00800           0
    102586 TIP3     30890    TIP3     H2       HT       0.417000       1.00800           0
    102587 TIP3     30891    TIP3     OH2      OT      -0.834000       15.9994           0
    102588 TIP3     30891    TIP3     H1       HT       0.417000       1.00800           0
    102589 TIP3     30891    TIP3     H2       HT       0.417000       1.00800           0
    102590 TIP3     30892    TIP3     OH2      OT      -0.834000       15.9994           0
    102591 TIP3     30892    TIP3     H1       HT       0.417000       1.00800           0
    102592 TIP3     30892    TIP3     H2       HT       0.417000       1.00800           0
    102593 TIP3     30893    TIP3     OH2      OT      -0.834000       15.9994           0
    102594 TIP3     30893    TIP3     H1       HT       0.417000       1.00800           0
    102595 TIP3     30893    TIP3     H2       HT       0.417000       1.00800           0
    102596 TIP3     30894    TIP3     OH2      OT      -0.834000       15.9994           0
    102597 TIP3     30894    TIP3     H1       HT       0.417000       1.00800           0
    102598 TIP3     30894    TIP3     H2       HT       0.417000       1.00800           0
    102599 TIP3     30895    TIP3     OH2      OT      -0.834000       15.9994           0
    102600 TIP3     30895    TIP3     H1       HT       0.417000       1.00800           0
    102601 TIP3     30895    TIP3     H2       HT       0.417000       1.00800           0
    102602 TIP3     30896    TIP3     OH2      OT      -0.834000       15.9994           0
    102603 TIP3     30896    TIP3     H1       HT       0.417000       1.00800           0
    102604 TIP3     30896    TIP3     H2       HT       0.417000       1.00800           0
    102605 TIP3     30897    TIP3     OH2      OT      -0.834000       15.9994           0
    102606 TIP3     30897    TIP3     H1       HT       0.417000       1.00800           0
    102607 TIP3     30897    TIP3     H2       HT       0.417000       1.00800           0
    102608 TIP3     30898    TIP3     OH2      OT      -0.834000       15.9994           0
    102609 TIP3     30898    TIP3     H1       HT       0.417000       1.00800           0
    102610 TIP3     30898    TIP3     H2       HT       0.417000       1.00800           0
    102611 TIP3     30899    TIP3     OH2      OT      -0.834000       15.9994           0
    102612 TIP3     30899    TIP3     H1       HT       0.417000       1.00800           0
    102613 TIP3     30899    TIP3     H2       HT       0.417000       1.00800           0
    102614 TIP3     30900    TIP3     OH2      OT      -0.834000       15.9994           0
    102615 TIP3     30900    TIP3     H1       HT       0.417000       1.00800           0
    102616 TIP3     30900    TIP3     H2       HT       0.417000       1.00800           0
    102617 TIP3     30901    TIP3     OH2      OT      -0.834000       15.9994           0
    102618 TIP3     30901    TIP3     H1       HT       0.417000       1.00800           0
    102619 TIP3     30901    TIP3     H2       HT       0.417000       1.00800           0
    102620 TIP3     30902    TIP3     OH2      OT      -0.834000       15.9994           0
    102621 TIP3     30902    TIP3     H1       HT       0.417000       1.00800           0
    102622 TIP3     30902    TIP3     H2       HT       0.417000       1.00800           0
    102623 TIP3     30903    TIP3     OH2      OT      -0.834000       15.9994           0
    102624 TIP3     30903    TIP3     H1       HT       0.417000       1.00800           0
    102625 TIP3     30903    TIP3     H2       HT       0.417000       1.00800           0
    102626 TIP3     30904    TIP3     OH2      OT      -0.834000       15.9994           0
    102627 TIP3     30904    TIP3     H1       HT       0.417000       1.00800           0
    102628 TIP3     30904    TIP3     H2       HT       0.417000       1.00800           0
    102629 TIP3     30905    TIP3     OH2      OT      -0.834000       15.9994           0
    102630 TIP3     30905    TIP3     H1       HT       0.417000       1.00800           0
    102631 TIP3     30905    TIP3     H2       HT       0.417000       1.00800           0
    102632 TIP3     30906    TIP3     OH2      OT      -0.834000       15.9994           0
    102633 TIP3     30906    TIP3     H1       HT       0.417000       1.00800           0
    102634 TIP3     30906    TIP3     H2       HT       0.417000       1.00800           0
    102635 TIP3     30907    TIP3     OH2      OT      -0.834000       15.9994           0
    102636 TIP3     30907    TIP3     H1       HT       0.417000       1.00800           0
    102637 TIP3     30907    TIP3     H2       HT       0.417000       1.00800           0
    102638 TIP3     30908    TIP3     OH2      OT      -0.834000       15.9994           0
    102639 TIP3     30908    TIP3     H1       HT       0.417000       1.00800           0
    102640 TIP3     30908    TIP3     H2       HT       0.417000       1.00800           0
    102641 TIP3     30909    TIP3     OH2      OT      -0.834000       15.9994           0
    102642 TIP3     30909    TIP3     H1       HT       0.417000       1.00800           0
    102643 TIP3     30909    TIP3     H2       HT       0.417000       1.00800           0
    102644 TIP3     30910    TIP3     OH2      OT      -0.834000       15.9994           0
    102645 TIP3     30910    TIP3     H1       HT       0.417000       1.00800           0
    102646 TIP3     30910    TIP3     H2       HT       0.417000       1.00800           0
    102647 TIP3     30911    TIP3     OH2      OT      -0.834000       15.9994           0
    102648 TIP3     30911    TIP3     H1       HT       0.417000       1.00800           0
    102649 TIP3     30911    TIP3     H2       HT       0.417000       1.00800           0
    102650 TIP3     30912    TIP3     OH2      OT      -0.834000       15.9994           0
    102651 TIP3     30912    TIP3     H1       HT       0.417000       1.00800           0
    102652 TIP3     30912    TIP3     H2       HT       0.417000       1.00800           0
    102653 TIP3     30913    TIP3     OH2      OT      -0.834000       15.9994           0
    102654 TIP3     30913    TIP3     H1       HT       0.417000       1.00800           0
    102655 TIP3     30913    TIP3     H2       HT       0.417000       1.00800           0
    102656 TIP3     30914    TIP3     OH2      OT      -0.834000       15.9994           0
    102657 TIP3     30914    TIP3     H1       HT       0.417000       1.00800           0
    102658 TIP3     30914    TIP3     H2       HT       0.417000       1.00800           0
    102659 TIP3     30915    TIP3     OH2      OT      -0.834000       15.9994           0
    102660 TIP3     30915    TIP3     H1       HT       0.417000       1.00800           0
    102661 TIP3     30915    TIP3     H2       HT       0.417000       1.00800           0
    102662 TIP3     30916    TIP3     OH2      OT      -0.834000       15.9994           0
    102663 TIP3     30916    TIP3     H1       HT       0.417000       1.00800           0
    102664 TIP3     30916    TIP3     H2       HT       0.417000       1.00800           0
    102665 TIP3     30917    TIP3     OH2      OT      -0.834000       15.9994           0
    102666 TIP3     30917    TIP3     H1       HT       0.417000       1.00800           0
    102667 TIP3     30917    TIP3     H2       HT       0.417000       1.00800           0
    102668 TIP3     30918    TIP3     OH2      OT      -0.834000       15.9994           0
    102669 TIP3     30918    TIP3     H1       HT       0.417000       1.00800           0
    102670 TIP3     30918    TIP3     H2       HT       0.417000       1.00800           0
    102671 TIP3     30919    TIP3     OH2      OT      -0.834000       15.9994           0
    102672 TIP3     30919    TIP3     H1       HT       0.417000       1.00800           0
    102673 TIP3     30919    TIP3     H2       HT       0.417000       1.00800           0
    102674 TIP3     30920    TIP3     OH2      OT      -0.834000       15.9994           0
    102675 TIP3     30920    TIP3     H1       HT       0.417000       1.00800           0
    102676 TIP3     30920    TIP3     H2       HT       0.417000       1.00800           0
    102677 TIP3     30921    TIP3     OH2      OT      -0.834000       15.9994           0
    102678 TIP3     30921    TIP3     H1       HT       0.417000       1.00800           0
    102679 TIP3     30921    TIP3     H2       HT       0.417000       1.00800           0
    102680 TIP3     30922    TIP3     OH2      OT      -0.834000       15.9994           0
    102681 TIP3     30922    TIP3     H1       HT       0.417000       1.00800           0
    102682 TIP3     30922    TIP3     H2       HT       0.417000       1.00800           0
    102683 TIP3     30923    TIP3     OH2      OT      -0.834000       15.9994           0
    102684 TIP3     30923    TIP3     H1       HT       0.417000       1.00800           0
    102685 TIP3     30923    TIP3     H2       HT       0.417000       1.00800           0
    102686 TIP3     30924    TIP3     OH2      OT      -0.834000       15.9994           0
    102687 TIP3     30924    TIP3     H1       HT       0.417000       1.00800           0
    102688 TIP3     30924    TIP3     H2       HT       0.417000       1.00800           0
    102689 TIP3     30925    TIP3     OH2      OT      -0.834000       15.9994           0
    102690 TIP3     30925    TIP3     H1       HT       0.417000       1.00800           0
    102691 TIP3     30925    TIP3     H2       HT       0.417000       1.00800           0
    102692 TIP3     30926    TIP3     OH2      OT      -0.834000       15.9994           0
    102693 TIP3     30926    TIP3     H1       HT       0.417000       1.00800           0
    102694 TIP3     30926    TIP3     H2       HT       0.417000       1.00800           0
    102695 TIP3     30927    TIP3     OH2      OT      -0.834000       15.9994           0
    102696 TIP3     30927    TIP3     H1       HT       0.417000       1.00800           0
    102697 TIP3     30927    TIP3     H2       HT       0.417000       1.00800           0
    102698 TIP3     30928    TIP3     OH2      OT      -0.834000       15.9994           0
    102699 TIP3     30928    TIP3     H1       HT       0.417000       1.00800           0
    102700 TIP3     30928    TIP3     H2       HT       0.417000       1.00800           0
    102701 TIP3     30929    TIP3     OH2      OT      -0.834000       15.9994           0
    102702 TIP3     30929    TIP3     H1       HT       0.417000       1.00800           0
    102703 TIP3     30929    TIP3     H2       HT       0.417000       1.00800           0
    102704 TIP3     30930    TIP3     OH2      OT      -0.834000       15.9994           0
    102705 TIP3     30930    TIP3     H1       HT       0.417000       1.00800           0
    102706 TIP3     30930    TIP3     H2       HT       0.417000       1.00800           0
    102707 TIP3     30931    TIP3     OH2      OT      -0.834000       15.9994           0
    102708 TIP3     30931    TIP3     H1       HT       0.417000       1.00800           0
    102709 TIP3     30931    TIP3     H2       HT       0.417000       1.00800           0
    102710 TIP3     30932    TIP3     OH2      OT      -0.834000       15.9994           0
    102711 TIP3     30932    TIP3     H1       HT       0.417000       1.00800           0
    102712 TIP3     30932    TIP3     H2       HT       0.417000       1.00800           0
    102713 TIP3     30933    TIP3     OH2      OT      -0.834000       15.9994           0
    102714 TIP3     30933    TIP3     H1       HT       0.417000       1.00800           0
    102715 TIP3     30933    TIP3     H2       HT       0.417000       1.00800           0
    102716 TIP3     30934    TIP3     OH2      OT      -0.834000       15.9994           0
    102717 TIP3     30934    TIP3     H1       HT       0.417000       1.00800           0
    102718 TIP3     30934    TIP3     H2       HT       0.417000       1.00800           0
    102719 TIP3     30935    TIP3     OH2      OT      -0.834000       15.9994           0
    102720 TIP3     30935    TIP3     H1       HT       0.417000       1.00800           0
    102721 TIP3     30935    TIP3     H2       HT       0.417000       1.00800           0
    102722 TIP3     30936    TIP3     OH2      OT      -0.834000       15.9994           0
    102723 TIP3     30936    TIP3     H1       HT       0.417000       1.00800           0
    102724 TIP3     30936    TIP3     H2       HT       0.417000       1.00800           0
    102725 TIP3     30937    TIP3     OH2      OT      -0.834000       15.9994           0
    102726 TIP3     30937    TIP3     H1       HT       0.417000       1.00800           0
    102727 TIP3     30937    TIP3     H2       HT       0.417000       1.00800           0
    102728 TIP3     30938    TIP3     OH2      OT      -0.834000       15.9994           0
    102729 TIP3     30938    TIP3     H1       HT       0.417000       1.00800           0
    102730 TIP3     30938    TIP3     H2       HT       0.417000       1.00800           0
    102731 TIP3     30939    TIP3     OH2      OT      -0.834000       15.9994           0
    102732 TIP3     30939    TIP3     H1       HT       0.417000       1.00800           0
    102733 TIP3     30939    TIP3     H2       HT       0.417000       1.00800           0
    102734 TIP3     30940    TIP3     OH2      OT      -0.834000       15.9994           0
    102735 TIP3     30940    TIP3     H1       HT       0.417000       1.00800           0
    102736 TIP3     30940    TIP3     H2       HT       0.417000       1.00800           0
    102737 TIP3     30941    TIP3     OH2      OT      -0.834000       15.9994           0
    102738 TIP3     30941    TIP3     H1       HT       0.417000       1.00800           0
    102739 TIP3     30941    TIP3     H2       HT       0.417000       1.00800           0
    102740 TIP3     30942    TIP3     OH2      OT      -0.834000       15.9994           0
    102741 TIP3     30942    TIP3     H1       HT       0.417000       1.00800           0
    102742 TIP3     30942    TIP3     H2       HT       0.417000       1.00800           0
    102743 TIP3     30943    TIP3     OH2      OT      -0.834000       15.9994           0
    102744 TIP3     30943    TIP3     H1       HT       0.417000       1.00800           0
    102745 TIP3     30943    TIP3     H2       HT       0.417000       1.00800           0
    102746 TIP3     30944    TIP3     OH2      OT      -0.834000       15.9994           0
    102747 TIP3     30944    TIP3     H1       HT       0.417000       1.00800           0
    102748 TIP3     30944    TIP3     H2       HT       0.417000       1.00800           0
    102749 TIP3     30945    TIP3     OH2      OT      -0.834000       15.9994           0
    102750 TIP3     30945    TIP3     H1       HT       0.417000       1.00800           0
    102751 TIP3     30945    TIP3     H2       HT       0.417000       1.00800           0
    102752 TIP3     30946    TIP3     OH2      OT      -0.834000       15.9994           0
    102753 TIP3     30946    TIP3     H1       HT       0.417000       1.00800           0
    102754 TIP3     30946    TIP3     H2       HT       0.417000       1.00800           0
    102755 TIP3     30947    TIP3     OH2      OT      -0.834000       15.9994           0
    102756 TIP3     30947    TIP3     H1       HT       0.417000       1.00800           0
    102757 TIP3     30947    TIP3     H2       HT       0.417000       1.00800           0
    102758 TIP3     30948    TIP3     OH2      OT      -0.834000       15.9994           0
    102759 TIP3     30948    TIP3     H1       HT       0.417000       1.00800           0
    102760 TIP3     30948    TIP3     H2       HT       0.417000       1.00800           0
    102761 TIP3     30949    TIP3     OH2      OT      -0.834000       15.9994           0
    102762 TIP3     30949    TIP3     H1       HT       0.417000       1.00800           0
    102763 TIP3     30949    TIP3     H2       HT       0.417000       1.00800           0
    102764 TIP3     30950    TIP3     OH2      OT      -0.834000       15.9994           0
    102765 TIP3     30950    TIP3     H1       HT       0.417000       1.00800           0
    102766 TIP3     30950    TIP3     H2       HT       0.417000       1.00800           0
    102767 TIP3     30951    TIP3     OH2      OT      -0.834000       15.9994           0
    102768 TIP3     30951    TIP3     H1       HT       0.417000       1.00800           0
    102769 TIP3     30951    TIP3     H2       HT       0.417000       1.00800           0
    102770 TIP3     30952    TIP3     OH2      OT      -0.834000       15.9994           0
    102771 TIP3     30952    TIP3     H1       HT       0.417000       1.00800           0
    102772 TIP3     30952    TIP3     H2       HT       0.417000       1.00800           0
    102773 TIP3     30953    TIP3     OH2      OT      -0.834000       15.9994           0
    102774 TIP3     30953    TIP3     H1       HT       0.417000       1.00800           0
    102775 TIP3     30953    TIP3     H2       HT       0.417000       1.00800           0
    102776 TIP3     30954    TIP3     OH2      OT      -0.834000       15.9994           0
    102777 TIP3     30954    TIP3     H1       HT       0.417000       1.00800           0
    102778 TIP3     30954    TIP3     H2       HT       0.417000       1.00800           0
    102779 TIP3     30955    TIP3     OH2      OT      -0.834000       15.9994           0
    102780 TIP3     30955    TIP3     H1       HT       0.417000       1.00800           0
    102781 TIP3     30955    TIP3     H2       HT       0.417000       1.00800           0
    102782 TIP3     30956    TIP3     OH2      OT      -0.834000       15.9994           0
    102783 TIP3     30956    TIP3     H1       HT       0.417000       1.00800           0
    102784 TIP3     30956    TIP3     H2       HT       0.417000       1.00800           0
    102785 TIP3     30957    TIP3     OH2      OT      -0.834000       15.9994           0
    102786 TIP3     30957    TIP3     H1       HT       0.417000       1.00800           0
    102787 TIP3     30957    TIP3     H2       HT       0.417000       1.00800           0
    102788 TIP3     30958    TIP3     OH2      OT      -0.834000       15.9994           0
    102789 TIP3     30958    TIP3     H1       HT       0.417000       1.00800           0
    102790 TIP3     30958    TIP3     H2       HT       0.417000       1.00800           0
    102791 TIP3     30959    TIP3     OH2      OT      -0.834000       15.9994           0
    102792 TIP3     30959    TIP3     H1       HT       0.417000       1.00800           0
    102793 TIP3     30959    TIP3     H2       HT       0.417000       1.00800           0
    102794 TIP3     30960    TIP3     OH2      OT      -0.834000       15.9994           0
    102795 TIP3     30960    TIP3     H1       HT       0.417000       1.00800           0
    102796 TIP3     30960    TIP3     H2       HT       0.417000       1.00800           0
    102797 TIP3     30961    TIP3     OH2      OT      -0.834000       15.9994           0
    102798 TIP3     30961    TIP3     H1       HT       0.417000       1.00800           0
    102799 TIP3     30961    TIP3     H2       HT       0.417000       1.00800           0
    102800 TIP3     30962    TIP3     OH2      OT      -0.834000       15.9994           0
    102801 TIP3     30962    TIP3     H1       HT       0.417000       1.00800           0
    102802 TIP3     30962    TIP3     H2       HT       0.417000       1.00800           0
    102803 TIP3     30963    TIP3     OH2      OT      -0.834000       15.9994           0
    102804 TIP3     30963    TIP3     H1       HT       0.417000       1.00800           0
    102805 TIP3     30963    TIP3     H2       HT       0.417000       1.00800           0
    102806 TIP3     30964    TIP3     OH2      OT      -0.834000       15.9994           0
    102807 TIP3     30964    TIP3     H1       HT       0.417000       1.00800           0
    102808 TIP3     30964    TIP3     H2       HT       0.417000       1.00800           0
    102809 TIP3     30965    TIP3     OH2      OT      -0.834000       15.9994           0
    102810 TIP3     30965    TIP3     H1       HT       0.417000       1.00800           0
    102811 TIP3     30965    TIP3     H2       HT       0.417000       1.00800           0
    102812 TIP3     30966    TIP3     OH2      OT      -0.834000       15.9994           0
    102813 TIP3     30966    TIP3     H1       HT       0.417000       1.00800           0
    102814 TIP3     30966    TIP3     H2       HT       0.417000       1.00800           0
    102815 TIP3     30967    TIP3     OH2      OT      -0.834000       15.9994           0
    102816 TIP3     30967    TIP3     H1       HT       0.417000       1.00800           0
    102817 TIP3     30967    TIP3     H2       HT       0.417000       1.00800           0
    102818 TIP3     30968    TIP3     OH2      OT      -0.834000       15.9994           0
    102819 TIP3     30968    TIP3     H1       HT       0.417000       1.00800           0
    102820 TIP3     30968    TIP3     H2       HT       0.417000       1.00800           0
    102821 TIP3     30969    TIP3     OH2      OT      -0.834000       15.9994           0
    102822 TIP3     30969    TIP3     H1       HT       0.417000       1.00800           0
    102823 TIP3     30969    TIP3     H2       HT       0.417000       1.00800           0
    102824 TIP3     30970    TIP3     OH2      OT      -0.834000       15.9994           0
    102825 TIP3     30970    TIP3     H1       HT       0.417000       1.00800           0
    102826 TIP3     30970    TIP3     H2       HT       0.417000       1.00800           0
    102827 TIP3     30971    TIP3     OH2      OT      -0.834000       15.9994           0
    102828 TIP3     30971    TIP3     H1       HT       0.417000       1.00800           0
    102829 TIP3     30971    TIP3     H2       HT       0.417000       1.00800           0
    102830 TIP3     30972    TIP3     OH2      OT      -0.834000       15.9994           0
    102831 TIP3     30972    TIP3     H1       HT       0.417000       1.00800           0
    102832 TIP3     30972    TIP3     H2       HT       0.417000       1.00800           0
    102833 TIP3     30973    TIP3     OH2      OT      -0.834000       15.9994           0
    102834 TIP3     30973    TIP3     H1       HT       0.417000       1.00800           0
    102835 TIP3     30973    TIP3     H2       HT       0.417000       1.00800           0
    102836 TIP3     30974    TIP3     OH2      OT      -0.834000       15.9994           0
    102837 TIP3     30974    TIP3     H1       HT       0.417000       1.00800           0
    102838 TIP3     30974    TIP3     H2       HT       0.417000       1.00800           0
    102839 TIP3     30975    TIP3     OH2      OT      -0.834000       15.9994           0
    102840 TIP3     30975    TIP3     H1       HT       0.417000       1.00800           0
    102841 TIP3     30975    TIP3     H2       HT       0.417000       1.00800           0
    102842 TIP3     30976    TIP3     OH2      OT      -0.834000       15.9994           0
    102843 TIP3     30976    TIP3     H1       HT       0.417000       1.00800           0
    102844 TIP3     30976    TIP3     H2       HT       0.417000       1.00800           0
    102845 TIP3     30977    TIP3     OH2      OT      -0.834000       15.9994           0
    102846 TIP3     30977    TIP3     H1       HT       0.417000       1.00800           0
    102847 TIP3     30977    TIP3     H2       HT       0.417000       1.00800           0
    102848 TIP3     30978    TIP3     OH2      OT      -0.834000       15.9994           0
    102849 TIP3     30978    TIP3     H1       HT       0.417000       1.00800           0
    102850 TIP3     30978    TIP3     H2       HT       0.417000       1.00800           0
    102851 TIP3     30979    TIP3     OH2      OT      -0.834000       15.9994           0
    102852 TIP3     30979    TIP3     H1       HT       0.417000       1.00800           0
    102853 TIP3     30979    TIP3     H2       HT       0.417000       1.00800           0
    102854 TIP3     30980    TIP3     OH2      OT      -0.834000       15.9994           0
    102855 TIP3     30980    TIP3     H1       HT       0.417000       1.00800           0
    102856 TIP3     30980    TIP3     H2       HT       0.417000       1.00800           0
    102857 TIP3     30981    TIP3     OH2      OT      -0.834000       15.9994           0
    102858 TIP3     30981    TIP3     H1       HT       0.417000       1.00800           0
    102859 TIP3     30981    TIP3     H2       HT       0.417000       1.00800           0
    102860 TIP3     30982    TIP3     OH2      OT      -0.834000       15.9994           0
    102861 TIP3     30982    TIP3     H1       HT       0.417000       1.00800           0
    102862 TIP3     30982    TIP3     H2       HT       0.417000       1.00800           0
    102863 TIP3     30983    TIP3     OH2      OT      -0.834000       15.9994           0
    102864 TIP3     30983    TIP3     H1       HT       0.417000       1.00800           0
    102865 TIP3     30983    TIP3     H2       HT       0.417000       1.00800           0
    102866 TIP3     30984    TIP3     OH2      OT      -0.834000       15.9994           0
    102867 TIP3     30984    TIP3     H1       HT       0.417000       1.00800           0
    102868 TIP3     30984    TIP3     H2       HT       0.417000       1.00800           0
    102869 TIP3     30985    TIP3     OH2      OT      -0.834000       15.9994           0
    102870 TIP3     30985    TIP3     H1       HT       0.417000       1.00800           0
    102871 TIP3     30985    TIP3     H2       HT       0.417000       1.00800           0
    102872 TIP3     30986    TIP3     OH2      OT      -0.834000       15.9994           0
    102873 TIP3     30986    TIP3     H1       HT       0.417000       1.00800           0
    102874 TIP3     30986    TIP3     H2       HT       0.417000       1.00800           0
    102875 TIP3     30987    TIP3     OH2      OT      -0.834000       15.9994           0
    102876 TIP3     30987    TIP3     H1       HT       0.417000       1.00800           0
    102877 TIP3     30987    TIP3     H2       HT       0.417000       1.00800           0
    102878 TIP3     30988    TIP3     OH2      OT      -0.834000       15.9994           0
    102879 TIP3     30988    TIP3     H1       HT       0.417000       1.00800           0
    102880 TIP3     30988    TIP3     H2       HT       0.417000       1.00800           0
    102881 TIP3     30989    TIP3     OH2      OT      -0.834000       15.9994           0
    102882 TIP3     30989    TIP3     H1       HT       0.417000       1.00800           0
    102883 TIP3     30989    TIP3     H2       HT       0.417000       1.00800           0
    102884 TIP3     30990    TIP3     OH2      OT      -0.834000       15.9994           0
    102885 TIP3     30990    TIP3     H1       HT       0.417000       1.00800           0
    102886 TIP3     30990    TIP3     H2       HT       0.417000       1.00800           0
    102887 TIP3     30991    TIP3     OH2      OT      -0.834000       15.9994           0
    102888 TIP3     30991    TIP3     H1       HT       0.417000       1.00800           0
    102889 TIP3     30991    TIP3     H2       HT       0.417000       1.00800           0
    102890 TIP3     30992    TIP3     OH2      OT      -0.834000       15.9994           0
    102891 TIP3     30992    TIP3     H1       HT       0.417000       1.00800           0
    102892 TIP3     30992    TIP3     H2       HT       0.417000       1.00800           0
    102893 TIP3     30993    TIP3     OH2      OT      -0.834000       15.9994           0
    102894 TIP3     30993    TIP3     H1       HT       0.417000       1.00800           0
    102895 TIP3     30993    TIP3     H2       HT       0.417000       1.00800           0
    102896 TIP3     30994    TIP3     OH2      OT      -0.834000       15.9994           0
    102897 TIP3     30994    TIP3     H1       HT       0.417000       1.00800           0
    102898 TIP3     30994    TIP3     H2       HT       0.417000       1.00800           0
    102899 TIP3     30995    TIP3     OH2      OT      -0.834000       15.9994           0
    102900 TIP3     30995    TIP3     H1       HT       0.417000       1.00800           0
    102901 TIP3     30995    TIP3     H2       HT       0.417000       1.00800           0
    102902 TIP3     30996    TIP3     OH2      OT      -0.834000       15.9994           0
    102903 TIP3     30996    TIP3     H1       HT       0.417000       1.00800           0
    102904 TIP3     30996    TIP3     H2       HT       0.417000       1.00800           0
    102905 TIP3     30997    TIP3     OH2      OT      -0.834000       15.9994           0
    102906 TIP3     30997    TIP3     H1       HT       0.417000       1.00800           0
    102907 TIP3     30997    TIP3     H2       HT       0.417000       1.00800           0
    102908 TIP3     30998    TIP3     OH2      OT      -0.834000       15.9994           0
    102909 TIP3     30998    TIP3     H1       HT       0.417000       1.00800           0
    102910 TIP3     30998    TIP3     H2       HT       0.417000       1.00800           0
    102911 TIP3     30999    TIP3     OH2      OT      -0.834000       15.9994           0
    102912 TIP3     30999    TIP3     H1       HT       0.417000       1.00800           0
    102913 TIP3     30999    TIP3     H2       HT       0.417000       1.00800           0
    102914 TIP3     31000    TIP3     OH2      OT      -0.834000       15.9994           0
    102915 TIP3     31000    TIP3     H1       HT       0.417000       1.00800           0
    102916 TIP3     31000    TIP3     H2       HT       0.417000       1.00800           0
    102917 TIP3     31001    TIP3     OH2      OT      -0.834000       15.9994           0
    102918 TIP3     31001    TIP3     H1       HT       0.417000       1.00800           0
    102919 TIP3     31001    TIP3     H2       HT       0.417000       1.00800           0
    102920 TIP3     31002    TIP3     OH2      OT      -0.834000       15.9994           0
    102921 TIP3     31002    TIP3     H1       HT       0.417000       1.00800           0
    102922 TIP3     31002    TIP3     H2       HT       0.417000       1.00800           0
    102923 TIP3     31003    TIP3     OH2      OT      -0.834000       15.9994           0
    102924 TIP3     31003    TIP3     H1       HT       0.417000       1.00800           0
    102925 TIP3     31003    TIP3     H2       HT       0.417000       1.00800           0
    102926 TIP3     31004    TIP3     OH2      OT      -0.834000       15.9994           0
    102927 TIP3     31004    TIP3     H1       HT       0.417000       1.00800           0
    102928 TIP3     31004    TIP3     H2       HT       0.417000       1.00800           0
    102929 TIP3     31005    TIP3     OH2      OT      -0.834000       15.9994           0
    102930 TIP3     31005    TIP3     H1       HT       0.417000       1.00800           0
    102931 TIP3     31005    TIP3     H2       HT       0.417000       1.00800           0
    102932 TIP3     31006    TIP3     OH2      OT      -0.834000       15.9994           0
    102933 TIP3     31006    TIP3     H1       HT       0.417000       1.00800           0
    102934 TIP3     31006    TIP3     H2       HT       0.417000       1.00800           0
    102935 TIP3     31007    TIP3     OH2      OT      -0.834000       15.9994           0
    102936 TIP3     31007    TIP3     H1       HT       0.417000       1.00800           0
    102937 TIP3     31007    TIP3     H2       HT       0.417000       1.00800           0
    102938 TIP3     31008    TIP3     OH2      OT      -0.834000       15.9994           0
    102939 TIP3     31008    TIP3     H1       HT       0.417000       1.00800           0
    102940 TIP3     31008    TIP3     H2       HT       0.417000       1.00800           0
    102941 TIP3     31009    TIP3     OH2      OT      -0.834000       15.9994           0
    102942 TIP3     31009    TIP3     H1       HT       0.417000       1.00800           0
    102943 TIP3     31009    TIP3     H2       HT       0.417000       1.00800           0
    102944 TIP3     31010    TIP3     OH2      OT      -0.834000       15.9994           0
    102945 TIP3     31010    TIP3     H1       HT       0.417000       1.00800           0
    102946 TIP3     31010    TIP3     H2       HT       0.417000       1.00800           0
    102947 TIP3     31011    TIP3     OH2      OT      -0.834000       15.9994           0
    102948 TIP3     31011    TIP3     H1       HT       0.417000       1.00800           0
    102949 TIP3     31011    TIP3     H2       HT       0.417000       1.00800           0
    102950 TIP3     31012    TIP3     OH2      OT      -0.834000       15.9994           0
    102951 TIP3     31012    TIP3     H1       HT       0.417000       1.00800           0
    102952 TIP3     31012    TIP3     H2       HT       0.417000       1.00800           0
    102953 TIP3     31013    TIP3     OH2      OT      -0.834000       15.9994           0
    102954 TIP3     31013    TIP3     H1       HT       0.417000       1.00800           0
    102955 TIP3     31013    TIP3     H2       HT       0.417000       1.00800           0
    102956 TIP3     31014    TIP3     OH2      OT      -0.834000       15.9994           0
    102957 TIP3     31014    TIP3     H1       HT       0.417000       1.00800           0
    102958 TIP3     31014    TIP3     H2       HT       0.417000       1.00800           0
    102959 TIP3     31015    TIP3     OH2      OT      -0.834000       15.9994           0
    102960 TIP3     31015    TIP3     H1       HT       0.417000       1.00800           0
    102961 TIP3     31015    TIP3     H2       HT       0.417000       1.00800           0
    102962 TIP3     31016    TIP3     OH2      OT      -0.834000       15.9994           0
    102963 TIP3     31016    TIP3     H1       HT       0.417000       1.00800           0
    102964 TIP3     31016    TIP3     H2       HT       0.417000       1.00800           0
    102965 TIP3     31017    TIP3     OH2      OT      -0.834000       15.9994           0
    102966 TIP3     31017    TIP3     H1       HT       0.417000       1.00800           0
    102967 TIP3     31017    TIP3     H2       HT       0.417000       1.00800           0
    102968 TIP3     31018    TIP3     OH2      OT      -0.834000       15.9994           0
    102969 TIP3     31018    TIP3     H1       HT       0.417000       1.00800           0
    102970 TIP3     31018    TIP3     H2       HT       0.417000       1.00800           0
    102971 TIP3     31019    TIP3     OH2      OT      -0.834000       15.9994           0
    102972 TIP3     31019    TIP3     H1       HT       0.417000       1.00800           0
    102973 TIP3     31019    TIP3     H2       HT       0.417000       1.00800           0
    102974 TIP3     31020    TIP3     OH2      OT      -0.834000       15.9994           0
    102975 TIP3     31020    TIP3     H1       HT       0.417000       1.00800           0
    102976 TIP3     31020    TIP3     H2       HT       0.417000       1.00800           0
    102977 TIP3     31021    TIP3     OH2      OT      -0.834000       15.9994           0
    102978 TIP3     31021    TIP3     H1       HT       0.417000       1.00800           0
    102979 TIP3     31021    TIP3     H2       HT       0.417000       1.00800           0
    102980 TIP3     31022    TIP3     OH2      OT      -0.834000       15.9994           0
    102981 TIP3     31022    TIP3     H1       HT       0.417000       1.00800           0
    102982 TIP3     31022    TIP3     H2       HT       0.417000       1.00800           0
    102983 TIP3     31023    TIP3     OH2      OT      -0.834000       15.9994           0
    102984 TIP3     31023    TIP3     H1       HT       0.417000       1.00800           0
    102985 TIP3     31023    TIP3     H2       HT       0.417000       1.00800           0
    102986 TIP3     31024    TIP3     OH2      OT      -0.834000       15.9994           0
    102987 TIP3     31024    TIP3     H1       HT       0.417000       1.00800           0
    102988 TIP3     31024    TIP3     H2       HT       0.417000       1.00800           0
    102989 TIP3     31025    TIP3     OH2      OT      -0.834000       15.9994           0
    102990 TIP3     31025    TIP3     H1       HT       0.417000       1.00800           0
    102991 TIP3     31025    TIP3     H2       HT       0.417000       1.00800           0
    102992 TIP3     31026    TIP3     OH2      OT      -0.834000       15.9994           0
    102993 TIP3     31026    TIP3     H1       HT       0.417000       1.00800           0
    102994 TIP3     31026    TIP3     H2       HT       0.417000       1.00800           0
    102995 TIP3     31027    TIP3     OH2      OT      -0.834000       15.9994           0
    102996 TIP3     31027    TIP3     H1       HT       0.417000       1.00800           0
    102997 TIP3     31027    TIP3     H2       HT       0.417000       1.00800           0
    102998 TIP3     31028    TIP3     OH2      OT      -0.834000       15.9994           0
    102999 TIP3     31028    TIP3     H1       HT       0.417000       1.00800           0
    103000 TIP3     31028    TIP3     H2       HT       0.417000       1.00800           0
    103001 TIP3     31029    TIP3     OH2      OT      -0.834000       15.9994           0
    103002 TIP3     31029    TIP3     H1       HT       0.417000       1.00800           0
    103003 TIP3     31029    TIP3     H2       HT       0.417000       1.00800           0
    103004 TIP3     31030    TIP3     OH2      OT      -0.834000       15.9994           0
    103005 TIP3     31030    TIP3     H1       HT       0.417000       1.00800           0
    103006 TIP3     31030    TIP3     H2       HT       0.417000       1.00800           0
    103007 TIP3     31031    TIP3     OH2      OT      -0.834000       15.9994           0
    103008 TIP3     31031    TIP3     H1       HT       0.417000       1.00800           0
    103009 TIP3     31031    TIP3     H2       HT       0.417000       1.00800           0
    103010 TIP3     31032    TIP3     OH2      OT      -0.834000       15.9994           0
    103011 TIP3     31032    TIP3     H1       HT       0.417000       1.00800           0
    103012 TIP3     31032    TIP3     H2       HT       0.417000       1.00800           0
    103013 TIP3     31033    TIP3     OH2      OT      -0.834000       15.9994           0
    103014 TIP3     31033    TIP3     H1       HT       0.417000       1.00800           0
    103015 TIP3     31033    TIP3     H2       HT       0.417000       1.00800           0
    103016 TIP3     31034    TIP3     OH2      OT      -0.834000       15.9994           0
    103017 TIP3     31034    TIP3     H1       HT       0.417000       1.00800           0
    103018 TIP3     31034    TIP3     H2       HT       0.417000       1.00800           0
    103019 TIP3     31035    TIP3     OH2      OT      -0.834000       15.9994           0
    103020 TIP3     31035    TIP3     H1       HT       0.417000       1.00800           0
    103021 TIP3     31035    TIP3     H2       HT       0.417000       1.00800           0
    103022 TIP3     31036    TIP3     OH2      OT      -0.834000       15.9994           0
    103023 TIP3     31036    TIP3     H1       HT       0.417000       1.00800           0
    103024 TIP3     31036    TIP3     H2       HT       0.417000       1.00800           0
    103025 TIP3     31037    TIP3     OH2      OT      -0.834000       15.9994           0
    103026 TIP3     31037    TIP3     H1       HT       0.417000       1.00800           0
    103027 TIP3     31037    TIP3     H2       HT       0.417000       1.00800           0
    103028 TIP3     31038    TIP3     OH2      OT      -0.834000       15.9994           0
    103029 TIP3     31038    TIP3     H1       HT       0.417000       1.00800           0
    103030 TIP3     31038    TIP3     H2       HT       0.417000       1.00800           0
    103031 TIP3     31039    TIP3     OH2      OT      -0.834000       15.9994           0
    103032 TIP3     31039    TIP3     H1       HT       0.417000       1.00800           0
    103033 TIP3     31039    TIP3     H2       HT       0.417000       1.00800           0
    103034 TIP3     31040    TIP3     OH2      OT      -0.834000       15.9994           0
    103035 TIP3     31040    TIP3     H1       HT       0.417000       1.00800           0
    103036 TIP3     31040    TIP3     H2       HT       0.417000       1.00800           0
    103037 TIP3     31041    TIP3     OH2      OT      -0.834000       15.9994           0
    103038 TIP3     31041    TIP3     H1       HT       0.417000       1.00800           0
    103039 TIP3     31041    TIP3     H2       HT       0.417000       1.00800           0
    103040 TIP3     31042    TIP3     OH2      OT      -0.834000       15.9994           0
    103041 TIP3     31042    TIP3     H1       HT       0.417000       1.00800           0
    103042 TIP3     31042    TIP3     H2       HT       0.417000       1.00800           0
    103043 TIP3     31043    TIP3     OH2      OT      -0.834000       15.9994           0
    103044 TIP3     31043    TIP3     H1       HT       0.417000       1.00800           0
    103045 TIP3     31043    TIP3     H2       HT       0.417000       1.00800           0
    103046 TIP3     31044    TIP3     OH2      OT      -0.834000       15.9994           0
    103047 TIP3     31044    TIP3     H1       HT       0.417000       1.00800           0
    103048 TIP3     31044    TIP3     H2       HT       0.417000       1.00800           0
    103049 TIP3     31045    TIP3     OH2      OT      -0.834000       15.9994           0
    103050 TIP3     31045    TIP3     H1       HT       0.417000       1.00800           0
    103051 TIP3     31045    TIP3     H2       HT       0.417000       1.00800           0
    103052 TIP3     31046    TIP3     OH2      OT      -0.834000       15.9994           0
    103053 TIP3     31046    TIP3     H1       HT       0.417000       1.00800           0
    103054 TIP3     31046    TIP3     H2       HT       0.417000       1.00800           0
    103055 TIP3     31047    TIP3     OH2      OT      -0.834000       15.9994           0
    103056 TIP3     31047    TIP3     H1       HT       0.417000       1.00800           0
    103057 TIP3     31047    TIP3     H2       HT       0.417000       1.00800           0
    103058 TIP3     31048    TIP3     OH2      OT      -0.834000       15.9994           0
    103059 TIP3     31048    TIP3     H1       HT       0.417000       1.00800           0
    103060 TIP3     31048    TIP3     H2       HT       0.417000       1.00800           0
    103061 TIP3     31049    TIP3     OH2      OT      -0.834000       15.9994           0
    103062 TIP3     31049    TIP3     H1       HT       0.417000       1.00800           0
    103063 TIP3     31049    TIP3     H2       HT       0.417000       1.00800           0
    103064 TIP3     31050    TIP3     OH2      OT      -0.834000       15.9994           0
    103065 TIP3     31050    TIP3     H1       HT       0.417000       1.00800           0
    103066 TIP3     31050    TIP3     H2       HT       0.417000       1.00800           0
    103067 TIP3     31051    TIP3     OH2      OT      -0.834000       15.9994           0
    103068 TIP3     31051    TIP3     H1       HT       0.417000       1.00800           0
    103069 TIP3     31051    TIP3     H2       HT       0.417000       1.00800           0
    103070 TIP3     31052    TIP3     OH2      OT      -0.834000       15.9994           0
    103071 TIP3     31052    TIP3     H1       HT       0.417000       1.00800           0
    103072 TIP3     31052    TIP3     H2       HT       0.417000       1.00800           0
    103073 TIP3     31053    TIP3     OH2      OT      -0.834000       15.9994           0
    103074 TIP3     31053    TIP3     H1       HT       0.417000       1.00800           0
    103075 TIP3     31053    TIP3     H2       HT       0.417000       1.00800           0
    103076 TIP3     31054    TIP3     OH2      OT      -0.834000       15.9994           0
    103077 TIP3     31054    TIP3     H1       HT       0.417000       1.00800           0
    103078 TIP3     31054    TIP3     H2       HT       0.417000       1.00800           0
    103079 TIP3     31055    TIP3     OH2      OT      -0.834000       15.9994           0
    103080 TIP3     31055    TIP3     H1       HT       0.417000       1.00800           0
    103081 TIP3     31055    TIP3     H2       HT       0.417000       1.00800           0
    103082 TIP3     31056    TIP3     OH2      OT      -0.834000       15.9994           0
    103083 TIP3     31056    TIP3     H1       HT       0.417000       1.00800           0
    103084 TIP3     31056    TIP3     H2       HT       0.417000       1.00800           0
    103085 TIP3     31057    TIP3     OH2      OT      -0.834000       15.9994           0
    103086 TIP3     31057    TIP3     H1       HT       0.417000       1.00800           0
    103087 TIP3     31057    TIP3     H2       HT       0.417000       1.00800           0
    103088 TIP3     31058    TIP3     OH2      OT      -0.834000       15.9994           0
    103089 TIP3     31058    TIP3     H1       HT       0.417000       1.00800           0
    103090 TIP3     31058    TIP3     H2       HT       0.417000       1.00800           0
    103091 TIP3     31059    TIP3     OH2      OT      -0.834000       15.9994           0
    103092 TIP3     31059    TIP3     H1       HT       0.417000       1.00800           0
    103093 TIP3     31059    TIP3     H2       HT       0.417000       1.00800           0
    103094 TIP3     31060    TIP3     OH2      OT      -0.834000       15.9994           0
    103095 TIP3     31060    TIP3     H1       HT       0.417000       1.00800           0
    103096 TIP3     31060    TIP3     H2       HT       0.417000       1.00800           0
    103097 TIP3     31061    TIP3     OH2      OT      -0.834000       15.9994           0
    103098 TIP3     31061    TIP3     H1       HT       0.417000       1.00800           0
    103099 TIP3     31061    TIP3     H2       HT       0.417000       1.00800           0
    103100 TIP3     31062    TIP3     OH2      OT      -0.834000       15.9994           0
    103101 TIP3     31062    TIP3     H1       HT       0.417000       1.00800           0
    103102 TIP3     31062    TIP3     H2       HT       0.417000       1.00800           0
    103103 TIP3     31063    TIP3     OH2      OT      -0.834000       15.9994           0
    103104 TIP3     31063    TIP3     H1       HT       0.417000       1.00800           0
    103105 TIP3     31063    TIP3     H2       HT       0.417000       1.00800           0
    103106 TIP3     31064    TIP3     OH2      OT      -0.834000       15.9994           0
    103107 TIP3     31064    TIP3     H1       HT       0.417000       1.00800           0
    103108 TIP3     31064    TIP3     H2       HT       0.417000       1.00800           0
    103109 TIP3     31065    TIP3     OH2      OT      -0.834000       15.9994           0
    103110 TIP3     31065    TIP3     H1       HT       0.417000       1.00800           0
    103111 TIP3     31065    TIP3     H2       HT       0.417000       1.00800           0
    103112 TIP3     31066    TIP3     OH2      OT      -0.834000       15.9994           0
    103113 TIP3     31066    TIP3     H1       HT       0.417000       1.00800           0
    103114 TIP3     31066    TIP3     H2       HT       0.417000       1.00800           0
    103115 TIP3     31067    TIP3     OH2      OT      -0.834000       15.9994           0
    103116 TIP3     31067    TIP3     H1       HT       0.417000       1.00800           0
    103117 TIP3     31067    TIP3     H2       HT       0.417000       1.00800           0
    103118 TIP3     31068    TIP3     OH2      OT      -0.834000       15.9994           0
    103119 TIP3     31068    TIP3     H1       HT       0.417000       1.00800           0
    103120 TIP3     31068    TIP3     H2       HT       0.417000       1.00800           0
    103121 TIP3     31069    TIP3     OH2      OT      -0.834000       15.9994           0
    103122 TIP3     31069    TIP3     H1       HT       0.417000       1.00800           0
    103123 TIP3     31069    TIP3     H2       HT       0.417000       1.00800           0
    103124 TIP3     31070    TIP3     OH2      OT      -0.834000       15.9994           0
    103125 TIP3     31070    TIP3     H1       HT       0.417000       1.00800           0
    103126 TIP3     31070    TIP3     H2       HT       0.417000       1.00800           0
    103127 TIP3     31071    TIP3     OH2      OT      -0.834000       15.9994           0
    103128 TIP3     31071    TIP3     H1       HT       0.417000       1.00800           0
    103129 TIP3     31071    TIP3     H2       HT       0.417000       1.00800           0
    103130 TIP3     31072    TIP3     OH2      OT      -0.834000       15.9994           0
    103131 TIP3     31072    TIP3     H1       HT       0.417000       1.00800           0
    103132 TIP3     31072    TIP3     H2       HT       0.417000       1.00800           0
    103133 TIP3     31073    TIP3     OH2      OT      -0.834000       15.9994           0
    103134 TIP3     31073    TIP3     H1       HT       0.417000       1.00800           0
    103135 TIP3     31073    TIP3     H2       HT       0.417000       1.00800           0
    103136 TIP3     31074    TIP3     OH2      OT      -0.834000       15.9994           0
    103137 TIP3     31074    TIP3     H1       HT       0.417000       1.00800           0
    103138 TIP3     31074    TIP3     H2       HT       0.417000       1.00800           0
    103139 TIP3     31075    TIP3     OH2      OT      -0.834000       15.9994           0
    103140 TIP3     31075    TIP3     H1       HT       0.417000       1.00800           0
    103141 TIP3     31075    TIP3     H2       HT       0.417000       1.00800           0
    103142 TIP3     31076    TIP3     OH2      OT      -0.834000       15.9994           0
    103143 TIP3     31076    TIP3     H1       HT       0.417000       1.00800           0
    103144 TIP3     31076    TIP3     H2       HT       0.417000       1.00800           0
    103145 TIP3     31077    TIP3     OH2      OT      -0.834000       15.9994           0
    103146 TIP3     31077    TIP3     H1       HT       0.417000       1.00800           0
    103147 TIP3     31077    TIP3     H2       HT       0.417000       1.00800           0
    103148 TIP3     31078    TIP3     OH2      OT      -0.834000       15.9994           0
    103149 TIP3     31078    TIP3     H1       HT       0.417000       1.00800           0
    103150 TIP3     31078    TIP3     H2       HT       0.417000       1.00800           0
    103151 TIP3     31079    TIP3     OH2      OT      -0.834000       15.9994           0
    103152 TIP3     31079    TIP3     H1       HT       0.417000       1.00800           0
    103153 TIP3     31079    TIP3     H2       HT       0.417000       1.00800           0
    103154 TIP3     31080    TIP3     OH2      OT      -0.834000       15.9994           0
    103155 TIP3     31080    TIP3     H1       HT       0.417000       1.00800           0
    103156 TIP3     31080    TIP3     H2       HT       0.417000       1.00800           0
    103157 TIP3     31081    TIP3     OH2      OT      -0.834000       15.9994           0
    103158 TIP3     31081    TIP3     H1       HT       0.417000       1.00800           0
    103159 TIP3     31081    TIP3     H2       HT       0.417000       1.00800           0
    103160 TIP3     31082    TIP3     OH2      OT      -0.834000       15.9994           0
    103161 TIP3     31082    TIP3     H1       HT       0.417000       1.00800           0
    103162 TIP3     31082    TIP3     H2       HT       0.417000       1.00800           0
    103163 TIP3     31083    TIP3     OH2      OT      -0.834000       15.9994           0
    103164 TIP3     31083    TIP3     H1       HT       0.417000       1.00800           0
    103165 TIP3     31083    TIP3     H2       HT       0.417000       1.00800           0
    103166 TIP3     31084    TIP3     OH2      OT      -0.834000       15.9994           0
    103167 TIP3     31084    TIP3     H1       HT       0.417000       1.00800           0
    103168 TIP3     31084    TIP3     H2       HT       0.417000       1.00800           0
    103169 TIP3     31085    TIP3     OH2      OT      -0.834000       15.9994           0
    103170 TIP3     31085    TIP3     H1       HT       0.417000       1.00800           0
    103171 TIP3     31085    TIP3     H2       HT       0.417000       1.00800           0
    103172 TIP3     31086    TIP3     OH2      OT      -0.834000       15.9994           0
    103173 TIP3     31086    TIP3     H1       HT       0.417000       1.00800           0
    103174 TIP3     31086    TIP3     H2       HT       0.417000       1.00800           0
    103175 TIP3     31087    TIP3     OH2      OT      -0.834000       15.9994           0
    103176 TIP3     31087    TIP3     H1       HT       0.417000       1.00800           0
    103177 TIP3     31087    TIP3     H2       HT       0.417000       1.00800           0
    103178 TIP3     31088    TIP3     OH2      OT      -0.834000       15.9994           0
    103179 TIP3     31088    TIP3     H1       HT       0.417000       1.00800           0
    103180 TIP3     31088    TIP3     H2       HT       0.417000       1.00800           0
    103181 TIP3     31089    TIP3     OH2      OT      -0.834000       15.9994           0
    103182 TIP3     31089    TIP3     H1       HT       0.417000       1.00800           0
    103183 TIP3     31089    TIP3     H2       HT       0.417000       1.00800           0
    103184 TIP3     31090    TIP3     OH2      OT      -0.834000       15.9994           0
    103185 TIP3     31090    TIP3     H1       HT       0.417000       1.00800           0
    103186 TIP3     31090    TIP3     H2       HT       0.417000       1.00800           0
    103187 TIP3     31091    TIP3     OH2      OT      -0.834000       15.9994           0
    103188 TIP3     31091    TIP3     H1       HT       0.417000       1.00800           0
    103189 TIP3     31091    TIP3     H2       HT       0.417000       1.00800           0
    103190 TIP3     31092    TIP3     OH2      OT      -0.834000       15.9994           0
    103191 TIP3     31092    TIP3     H1       HT       0.417000       1.00800           0
    103192 TIP3     31092    TIP3     H2       HT       0.417000       1.00800           0
    103193 TIP3     31093    TIP3     OH2      OT      -0.834000       15.9994           0
    103194 TIP3     31093    TIP3     H1       HT       0.417000       1.00800           0
    103195 TIP3     31093    TIP3     H2       HT       0.417000       1.00800           0
    103196 TIP3     31094    TIP3     OH2      OT      -0.834000       15.9994           0
    103197 TIP3     31094    TIP3     H1       HT       0.417000       1.00800           0
    103198 TIP3     31094    TIP3     H2       HT       0.417000       1.00800           0
    103199 TIP3     31095    TIP3     OH2      OT      -0.834000       15.9994           0
    103200 TIP3     31095    TIP3     H1       HT       0.417000       1.00800           0
    103201 TIP3     31095    TIP3     H2       HT       0.417000       1.00800           0
    103202 TIP3     31096    TIP3     OH2      OT      -0.834000       15.9994           0
    103203 TIP3     31096    TIP3     H1       HT       0.417000       1.00800           0
    103204 TIP3     31096    TIP3     H2       HT       0.417000       1.00800           0
    103205 TIP3     31097    TIP3     OH2      OT      -0.834000       15.9994           0
    103206 TIP3     31097    TIP3     H1       HT       0.417000       1.00800           0
    103207 TIP3     31097    TIP3     H2       HT       0.417000       1.00800           0
    103208 TIP3     31098    TIP3     OH2      OT      -0.834000       15.9994           0
    103209 TIP3     31098    TIP3     H1       HT       0.417000       1.00800           0
    103210 TIP3     31098    TIP3     H2       HT       0.417000       1.00800           0
    103211 TIP3     31099    TIP3     OH2      OT      -0.834000       15.9994           0
    103212 TIP3     31099    TIP3     H1       HT       0.417000       1.00800           0
    103213 TIP3     31099    TIP3     H2       HT       0.417000       1.00800           0
    103214 TIP3     31100    TIP3     OH2      OT      -0.834000       15.9994           0
    103215 TIP3     31100    TIP3     H1       HT       0.417000       1.00800           0
    103216 TIP3     31100    TIP3     H2       HT       0.417000       1.00800           0
    103217 TIP3     31101    TIP3     OH2      OT      -0.834000       15.9994           0
    103218 TIP3     31101    TIP3     H1       HT       0.417000       1.00800           0
    103219 TIP3     31101    TIP3     H2       HT       0.417000       1.00800           0
    103220 TIP3     31102    TIP3     OH2      OT      -0.834000       15.9994           0
    103221 TIP3     31102    TIP3     H1       HT       0.417000       1.00800           0
    103222 TIP3     31102    TIP3     H2       HT       0.417000       1.00800           0
    103223 TIP3     31103    TIP3     OH2      OT      -0.834000       15.9994           0
    103224 TIP3     31103    TIP3     H1       HT       0.417000       1.00800           0
    103225 TIP3     31103    TIP3     H2       HT       0.417000       1.00800           0
    103226 TIP3     31104    TIP3     OH2      OT      -0.834000       15.9994           0
    103227 TIP3     31104    TIP3     H1       HT       0.417000       1.00800           0
    103228 TIP3     31104    TIP3     H2       HT       0.417000       1.00800           0
    103229 TIP3     31105    TIP3     OH2      OT      -0.834000       15.9994           0
    103230 TIP3     31105    TIP3     H1       HT       0.417000       1.00800           0
    103231 TIP3     31105    TIP3     H2       HT       0.417000       1.00800           0
    103232 TIP3     31106    TIP3     OH2      OT      -0.834000       15.9994           0
    103233 TIP3     31106    TIP3     H1       HT       0.417000       1.00800           0
    103234 TIP3     31106    TIP3     H2       HT       0.417000       1.00800           0
    103235 TIP3     31107    TIP3     OH2      OT      -0.834000       15.9994           0
    103236 TIP3     31107    TIP3     H1       HT       0.417000       1.00800           0
    103237 TIP3     31107    TIP3     H2       HT       0.417000       1.00800           0
    103238 TIP3     31108    TIP3     OH2      OT      -0.834000       15.9994           0
    103239 TIP3     31108    TIP3     H1       HT       0.417000       1.00800           0
    103240 TIP3     31108    TIP3     H2       HT       0.417000       1.00800           0
    103241 TIP3     31109    TIP3     OH2      OT      -0.834000       15.9994           0
    103242 TIP3     31109    TIP3     H1       HT       0.417000       1.00800           0
    103243 TIP3     31109    TIP3     H2       HT       0.417000       1.00800           0
    103244 TIP3     31110    TIP3     OH2      OT      -0.834000       15.9994           0
    103245 TIP3     31110    TIP3     H1       HT       0.417000       1.00800           0
    103246 TIP3     31110    TIP3     H2       HT       0.417000       1.00800           0
    103247 TIP3     31111    TIP3     OH2      OT      -0.834000       15.9994           0
    103248 TIP3     31111    TIP3     H1       HT       0.417000       1.00800           0
    103249 TIP3     31111    TIP3     H2       HT       0.417000       1.00800           0
    103250 TIP3     31112    TIP3     OH2      OT      -0.834000       15.9994           0
    103251 TIP3     31112    TIP3     H1       HT       0.417000       1.00800           0
    103252 TIP3     31112    TIP3     H2       HT       0.417000       1.00800           0
    103253 TIP3     31113    TIP3     OH2      OT      -0.834000       15.9994           0
    103254 TIP3     31113    TIP3     H1       HT       0.417000       1.00800           0
    103255 TIP3     31113    TIP3     H2       HT       0.417000       1.00800           0
    103256 TIP3     31114    TIP3     OH2      OT      -0.834000       15.9994           0
    103257 TIP3     31114    TIP3     H1       HT       0.417000       1.00800           0
    103258 TIP3     31114    TIP3     H2       HT       0.417000       1.00800           0
    103259 TIP3     31115    TIP3     OH2      OT      -0.834000       15.9994           0
    103260 TIP3     31115    TIP3     H1       HT       0.417000       1.00800           0
    103261 TIP3     31115    TIP3     H2       HT       0.417000       1.00800           0
    103262 TIP3     31116    TIP3     OH2      OT      -0.834000       15.9994           0
    103263 TIP3     31116    TIP3     H1       HT       0.417000       1.00800           0
    103264 TIP3     31116    TIP3     H2       HT       0.417000       1.00800           0
    103265 TIP3     31117    TIP3     OH2      OT      -0.834000       15.9994           0
    103266 TIP3     31117    TIP3     H1       HT       0.417000       1.00800           0
    103267 TIP3     31117    TIP3     H2       HT       0.417000       1.00800           0
    103268 TIP3     31118    TIP3     OH2      OT      -0.834000       15.9994           0
    103269 TIP3     31118    TIP3     H1       HT       0.417000       1.00800           0
    103270 TIP3     31118    TIP3     H2       HT       0.417000       1.00800           0
    103271 TIP3     31119    TIP3     OH2      OT      -0.834000       15.9994           0
    103272 TIP3     31119    TIP3     H1       HT       0.417000       1.00800           0
    103273 TIP3     31119    TIP3     H2       HT       0.417000       1.00800           0
    103274 TIP3     31120    TIP3     OH2      OT      -0.834000       15.9994           0
    103275 TIP3     31120    TIP3     H1       HT       0.417000       1.00800           0
    103276 TIP3     31120    TIP3     H2       HT       0.417000       1.00800           0
    103277 TIP3     31121    TIP3     OH2      OT      -0.834000       15.9994           0
    103278 TIP3     31121    TIP3     H1       HT       0.417000       1.00800           0
    103279 TIP3     31121    TIP3     H2       HT       0.417000       1.00800           0
    103280 TIP3     31122    TIP3     OH2      OT      -0.834000       15.9994           0
    103281 TIP3     31122    TIP3     H1       HT       0.417000       1.00800           0
    103282 TIP3     31122    TIP3     H2       HT       0.417000       1.00800           0
    103283 TIP3     31123    TIP3     OH2      OT      -0.834000       15.9994           0
    103284 TIP3     31123    TIP3     H1       HT       0.417000       1.00800           0
    103285 TIP3     31123    TIP3     H2       HT       0.417000       1.00800           0
    103286 TIP3     31124    TIP3     OH2      OT      -0.834000       15.9994           0
    103287 TIP3     31124    TIP3     H1       HT       0.417000       1.00800           0
    103288 TIP3     31124    TIP3     H2       HT       0.417000       1.00800           0
    103289 TIP3     31125    TIP3     OH2      OT      -0.834000       15.9994           0
    103290 TIP3     31125    TIP3     H1       HT       0.417000       1.00800           0
    103291 TIP3     31125    TIP3     H2       HT       0.417000       1.00800           0
    103292 TIP3     31126    TIP3     OH2      OT      -0.834000       15.9994           0
    103293 TIP3     31126    TIP3     H1       HT       0.417000       1.00800           0
    103294 TIP3     31126    TIP3     H2       HT       0.417000       1.00800           0
    103295 TIP3     31127    TIP3     OH2      OT      -0.834000       15.9994           0
    103296 TIP3     31127    TIP3     H1       HT       0.417000       1.00800           0
    103297 TIP3     31127    TIP3     H2       HT       0.417000       1.00800           0
    103298 TIP3     31128    TIP3     OH2      OT      -0.834000       15.9994           0
    103299 TIP3     31128    TIP3     H1       HT       0.417000       1.00800           0
    103300 TIP3     31128    TIP3     H2       HT       0.417000       1.00800           0
    103301 TIP3     31129    TIP3     OH2      OT      -0.834000       15.9994           0
    103302 TIP3     31129    TIP3     H1       HT       0.417000       1.00800           0
    103303 TIP3     31129    TIP3     H2       HT       0.417000       1.00800           0
    103304 TIP3     31130    TIP3     OH2      OT      -0.834000       15.9994           0
    103305 TIP3     31130    TIP3     H1       HT       0.417000       1.00800           0
    103306 TIP3     31130    TIP3     H2       HT       0.417000       1.00800           0
    103307 TIP3     31131    TIP3     OH2      OT      -0.834000       15.9994           0
    103308 TIP3     31131    TIP3     H1       HT       0.417000       1.00800           0
    103309 TIP3     31131    TIP3     H2       HT       0.417000       1.00800           0
    103310 TIP3     31132    TIP3     OH2      OT      -0.834000       15.9994           0
    103311 TIP3     31132    TIP3     H1       HT       0.417000       1.00800           0
    103312 TIP3     31132    TIP3     H2       HT       0.417000       1.00800           0
    103313 TIP3     31133    TIP3     OH2      OT      -0.834000       15.9994           0
    103314 TIP3     31133    TIP3     H1       HT       0.417000       1.00800           0
    103315 TIP3     31133    TIP3     H2       HT       0.417000       1.00800           0
    103316 TIP3     31134    TIP3     OH2      OT      -0.834000       15.9994           0
    103317 TIP3     31134    TIP3     H1       HT       0.417000       1.00800           0
    103318 TIP3     31134    TIP3     H2       HT       0.417000       1.00800           0
    103319 TIP3     31135    TIP3     OH2      OT      -0.834000       15.9994           0
    103320 TIP3     31135    TIP3     H1       HT       0.417000       1.00800           0
    103321 TIP3     31135    TIP3     H2       HT       0.417000       1.00800           0
    103322 TIP3     31136    TIP3     OH2      OT      -0.834000       15.9994           0
    103323 TIP3     31136    TIP3     H1       HT       0.417000       1.00800           0
    103324 TIP3     31136    TIP3     H2       HT       0.417000       1.00800           0
    103325 TIP3     31137    TIP3     OH2      OT      -0.834000       15.9994           0
    103326 TIP3     31137    TIP3     H1       HT       0.417000       1.00800           0
    103327 TIP3     31137    TIP3     H2       HT       0.417000       1.00800           0
    103328 TIP3     31138    TIP3     OH2      OT      -0.834000       15.9994           0
    103329 TIP3     31138    TIP3     H1       HT       0.417000       1.00800           0
    103330 TIP3     31138    TIP3     H2       HT       0.417000       1.00800           0
    103331 TIP3     31139    TIP3     OH2      OT      -0.834000       15.9994           0
    103332 TIP3     31139    TIP3     H1       HT       0.417000       1.00800           0
    103333 TIP3     31139    TIP3     H2       HT       0.417000       1.00800           0
    103334 TIP3     31140    TIP3     OH2      OT      -0.834000       15.9994           0
    103335 TIP3     31140    TIP3     H1       HT       0.417000       1.00800           0
    103336 TIP3     31140    TIP3     H2       HT       0.417000       1.00800           0
    103337 TIP3     31141    TIP3     OH2      OT      -0.834000       15.9994           0
    103338 TIP3     31141    TIP3     H1       HT       0.417000       1.00800           0
    103339 TIP3     31141    TIP3     H2       HT       0.417000       1.00800           0
    103340 TIP3     31142    TIP3     OH2      OT      -0.834000       15.9994           0
    103341 TIP3     31142    TIP3     H1       HT       0.417000       1.00800           0
    103342 TIP3     31142    TIP3     H2       HT       0.417000       1.00800           0
    103343 TIP3     31143    TIP3     OH2      OT      -0.834000       15.9994           0
    103344 TIP3     31143    TIP3     H1       HT       0.417000       1.00800           0
    103345 TIP3     31143    TIP3     H2       HT       0.417000       1.00800           0
    103346 TIP3     31144    TIP3     OH2      OT      -0.834000       15.9994           0
    103347 TIP3     31144    TIP3     H1       HT       0.417000       1.00800           0
    103348 TIP3     31144    TIP3     H2       HT       0.417000       1.00800           0
    103349 TIP3     31145    TIP3     OH2      OT      -0.834000       15.9994           0
    103350 TIP3     31145    TIP3     H1       HT       0.417000       1.00800           0
    103351 TIP3     31145    TIP3     H2       HT       0.417000       1.00800           0
    103352 TIP3     31146    TIP3     OH2      OT      -0.834000       15.9994           0
    103353 TIP3     31146    TIP3     H1       HT       0.417000       1.00800           0
    103354 TIP3     31146    TIP3     H2       HT       0.417000       1.00800           0
    103355 TIP3     31147    TIP3     OH2      OT      -0.834000       15.9994           0
    103356 TIP3     31147    TIP3     H1       HT       0.417000       1.00800           0
    103357 TIP3     31147    TIP3     H2       HT       0.417000       1.00800           0
    103358 TIP3     31148    TIP3     OH2      OT      -0.834000       15.9994           0
    103359 TIP3     31148    TIP3     H1       HT       0.417000       1.00800           0
    103360 TIP3     31148    TIP3     H2       HT       0.417000       1.00800           0
    103361 TIP3     31149    TIP3     OH2      OT      -0.834000       15.9994           0
    103362 TIP3     31149    TIP3     H1       HT       0.417000       1.00800           0
    103363 TIP3     31149    TIP3     H2       HT       0.417000       1.00800           0
    103364 TIP3     31150    TIP3     OH2      OT      -0.834000       15.9994           0
    103365 TIP3     31150    TIP3     H1       HT       0.417000       1.00800           0
    103366 TIP3     31150    TIP3     H2       HT       0.417000       1.00800           0
    103367 TIP3     31151    TIP3     OH2      OT      -0.834000       15.9994           0
    103368 TIP3     31151    TIP3     H1       HT       0.417000       1.00800           0
    103369 TIP3     31151    TIP3     H2       HT       0.417000       1.00800           0
    103370 TIP3     31152    TIP3     OH2      OT      -0.834000       15.9994           0
    103371 TIP3     31152    TIP3     H1       HT       0.417000       1.00800           0
    103372 TIP3     31152    TIP3     H2       HT       0.417000       1.00800           0
    103373 TIP3     31153    TIP3     OH2      OT      -0.834000       15.9994           0
    103374 TIP3     31153    TIP3     H1       HT       0.417000       1.00800           0
    103375 TIP3     31153    TIP3     H2       HT       0.417000       1.00800           0
    103376 TIP3     31154    TIP3     OH2      OT      -0.834000       15.9994           0
    103377 TIP3     31154    TIP3     H1       HT       0.417000       1.00800           0
    103378 TIP3     31154    TIP3     H2       HT       0.417000       1.00800           0
    103379 TIP3     31155    TIP3     OH2      OT      -0.834000       15.9994           0
    103380 TIP3     31155    TIP3     H1       HT       0.417000       1.00800           0
    103381 TIP3     31155    TIP3     H2       HT       0.417000       1.00800           0
    103382 TIP3     31156    TIP3     OH2      OT      -0.834000       15.9994           0
    103383 TIP3     31156    TIP3     H1       HT       0.417000       1.00800           0
    103384 TIP3     31156    TIP3     H2       HT       0.417000       1.00800           0
    103385 TIP3     31157    TIP3     OH2      OT      -0.834000       15.9994           0
    103386 TIP3     31157    TIP3     H1       HT       0.417000       1.00800           0
    103387 TIP3     31157    TIP3     H2       HT       0.417000       1.00800           0
    103388 TIP3     31158    TIP3     OH2      OT      -0.834000       15.9994           0
    103389 TIP3     31158    TIP3     H1       HT       0.417000       1.00800           0
    103390 TIP3     31158    TIP3     H2       HT       0.417000       1.00800           0
    103391 TIP3     31159    TIP3     OH2      OT      -0.834000       15.9994           0
    103392 TIP3     31159    TIP3     H1       HT       0.417000       1.00800           0
    103393 TIP3     31159    TIP3     H2       HT       0.417000       1.00800           0
    103394 TIP3     31160    TIP3     OH2      OT      -0.834000       15.9994           0
    103395 TIP3     31160    TIP3     H1       HT       0.417000       1.00800           0
    103396 TIP3     31160    TIP3     H2       HT       0.417000       1.00800           0
    103397 TIP3     31161    TIP3     OH2      OT      -0.834000       15.9994           0
    103398 TIP3     31161    TIP3     H1       HT       0.417000       1.00800           0
    103399 TIP3     31161    TIP3     H2       HT       0.417000       1.00800           0
    103400 TIP3     31162    TIP3     OH2      OT      -0.834000       15.9994           0
    103401 TIP3     31162    TIP3     H1       HT       0.417000       1.00800           0
    103402 TIP3     31162    TIP3     H2       HT       0.417000       1.00800           0
    103403 TIP3     31163    TIP3     OH2      OT      -0.834000       15.9994           0
    103404 TIP3     31163    TIP3     H1       HT       0.417000       1.00800           0
    103405 TIP3     31163    TIP3     H2       HT       0.417000       1.00800           0
    103406 TIP3     31164    TIP3     OH2      OT      -0.834000       15.9994           0
    103407 TIP3     31164    TIP3     H1       HT       0.417000       1.00800           0
    103408 TIP3     31164    TIP3     H2       HT       0.417000       1.00800           0
    103409 TIP3     31165    TIP3     OH2      OT      -0.834000       15.9994           0
    103410 TIP3     31165    TIP3     H1       HT       0.417000       1.00800           0
    103411 TIP3     31165    TIP3     H2       HT       0.417000       1.00800           0
    103412 TIP3     31166    TIP3     OH2      OT      -0.834000       15.9994           0
    103413 TIP3     31166    TIP3     H1       HT       0.417000       1.00800           0
    103414 TIP3     31166    TIP3     H2       HT       0.417000       1.00800           0
    103415 TIP3     31167    TIP3     OH2      OT      -0.834000       15.9994           0
    103416 TIP3     31167    TIP3     H1       HT       0.417000       1.00800           0
    103417 TIP3     31167    TIP3     H2       HT       0.417000       1.00800           0
    103418 TIP3     31168    TIP3     OH2      OT      -0.834000       15.9994           0
    103419 TIP3     31168    TIP3     H1       HT       0.417000       1.00800           0
    103420 TIP3     31168    TIP3     H2       HT       0.417000       1.00800           0
    103421 TIP3     31169    TIP3     OH2      OT      -0.834000       15.9994           0
    103422 TIP3     31169    TIP3     H1       HT       0.417000       1.00800           0
    103423 TIP3     31169    TIP3     H2       HT       0.417000       1.00800           0
    103424 TIP3     31170    TIP3     OH2      OT      -0.834000       15.9994           0
    103425 TIP3     31170    TIP3     H1       HT       0.417000       1.00800           0
    103426 TIP3     31170    TIP3     H2       HT       0.417000       1.00800           0
    103427 TIP3     31171    TIP3     OH2      OT      -0.834000       15.9994           0
    103428 TIP3     31171    TIP3     H1       HT       0.417000       1.00800           0
    103429 TIP3     31171    TIP3     H2       HT       0.417000       1.00800           0
    103430 TIP3     31172    TIP3     OH2      OT      -0.834000       15.9994           0
    103431 TIP3     31172    TIP3     H1       HT       0.417000       1.00800           0
    103432 TIP3     31172    TIP3     H2       HT       0.417000       1.00800           0
    103433 TIP3     31173    TIP3     OH2      OT      -0.834000       15.9994           0
    103434 TIP3     31173    TIP3     H1       HT       0.417000       1.00800           0
    103435 TIP3     31173    TIP3     H2       HT       0.417000       1.00800           0
    103436 TIP3     31174    TIP3     OH2      OT      -0.834000       15.9994           0
    103437 TIP3     31174    TIP3     H1       HT       0.417000       1.00800           0
    103438 TIP3     31174    TIP3     H2       HT       0.417000       1.00800           0
    103439 TIP3     31175    TIP3     OH2      OT      -0.834000       15.9994           0
    103440 TIP3     31175    TIP3     H1       HT       0.417000       1.00800           0
    103441 TIP3     31175    TIP3     H2       HT       0.417000       1.00800           0
    103442 TIP3     31176    TIP3     OH2      OT      -0.834000       15.9994           0
    103443 TIP3     31176    TIP3     H1       HT       0.417000       1.00800           0
    103444 TIP3     31176    TIP3     H2       HT       0.417000       1.00800           0
    103445 TIP3     31177    TIP3     OH2      OT      -0.834000       15.9994           0
    103446 TIP3     31177    TIP3     H1       HT       0.417000       1.00800           0
    103447 TIP3     31177    TIP3     H2       HT       0.417000       1.00800           0
    103448 TIP3     31178    TIP3     OH2      OT      -0.834000       15.9994           0
    103449 TIP3     31178    TIP3     H1       HT       0.417000       1.00800           0
    103450 TIP3     31178    TIP3     H2       HT       0.417000       1.00800           0
    103451 TIP3     31179    TIP3     OH2      OT      -0.834000       15.9994           0
    103452 TIP3     31179    TIP3     H1       HT       0.417000       1.00800           0
    103453 TIP3     31179    TIP3     H2       HT       0.417000       1.00800           0
    103454 TIP3     31180    TIP3     OH2      OT      -0.834000       15.9994           0
    103455 TIP3     31180    TIP3     H1       HT       0.417000       1.00800           0
    103456 TIP3     31180    TIP3     H2       HT       0.417000       1.00800           0
    103457 TIP3     31181    TIP3     OH2      OT      -0.834000       15.9994           0
    103458 TIP3     31181    TIP3     H1       HT       0.417000       1.00800           0
    103459 TIP3     31181    TIP3     H2       HT       0.417000       1.00800           0
    103460 TIP3     31182    TIP3     OH2      OT      -0.834000       15.9994           0
    103461 TIP3     31182    TIP3     H1       HT       0.417000       1.00800           0
    103462 TIP3     31182    TIP3     H2       HT       0.417000       1.00800           0
    103463 TIP3     31183    TIP3     OH2      OT      -0.834000       15.9994           0
    103464 TIP3     31183    TIP3     H1       HT       0.417000       1.00800           0
    103465 TIP3     31183    TIP3     H2       HT       0.417000       1.00800           0
    103466 TIP3     31184    TIP3     OH2      OT      -0.834000       15.9994           0
    103467 TIP3     31184    TIP3     H1       HT       0.417000       1.00800           0
    103468 TIP3     31184    TIP3     H2       HT       0.417000       1.00800           0
    103469 TIP3     31185    TIP3     OH2      OT      -0.834000       15.9994           0
    103470 TIP3     31185    TIP3     H1       HT       0.417000       1.00800           0
    103471 TIP3     31185    TIP3     H2       HT       0.417000       1.00800           0
    103472 TIP3     31186    TIP3     OH2      OT      -0.834000       15.9994           0
    103473 TIP3     31186    TIP3     H1       HT       0.417000       1.00800           0
    103474 TIP3     31186    TIP3     H2       HT       0.417000       1.00800           0
    103475 TIP3     31187    TIP3     OH2      OT      -0.834000       15.9994           0
    103476 TIP3     31187    TIP3     H1       HT       0.417000       1.00800           0
    103477 TIP3     31187    TIP3     H2       HT       0.417000       1.00800           0
    103478 TIP3     31188    TIP3     OH2      OT      -0.834000       15.9994           0
    103479 TIP3     31188    TIP3     H1       HT       0.417000       1.00800           0
    103480 TIP3     31188    TIP3     H2       HT       0.417000       1.00800           0
    103481 TIP3     31189    TIP3     OH2      OT      -0.834000       15.9994           0
    103482 TIP3     31189    TIP3     H1       HT       0.417000       1.00800           0
    103483 TIP3     31189    TIP3     H2       HT       0.417000       1.00800           0
    103484 TIP3     31190    TIP3     OH2      OT      -0.834000       15.9994           0
    103485 TIP3     31190    TIP3     H1       HT       0.417000       1.00800           0
    103486 TIP3     31190    TIP3     H2       HT       0.417000       1.00800           0
    103487 TIP3     31191    TIP3     OH2      OT      -0.834000       15.9994           0
    103488 TIP3     31191    TIP3     H1       HT       0.417000       1.00800           0
    103489 TIP3     31191    TIP3     H2       HT       0.417000       1.00800           0
    103490 TIP3     31192    TIP3     OH2      OT      -0.834000       15.9994           0
    103491 TIP3     31192    TIP3     H1       HT       0.417000       1.00800           0
    103492 TIP3     31192    TIP3     H2       HT       0.417000       1.00800           0
    103493 TIP3     31193    TIP3     OH2      OT      -0.834000       15.9994           0
    103494 TIP3     31193    TIP3     H1       HT       0.417000       1.00800           0
    103495 TIP3     31193    TIP3     H2       HT       0.417000       1.00800           0
    103496 TIP3     31194    TIP3     OH2      OT      -0.834000       15.9994           0
    103497 TIP3     31194    TIP3     H1       HT       0.417000       1.00800           0
    103498 TIP3     31194    TIP3     H2       HT       0.417000       1.00800           0
    103499 TIP3     31195    TIP3     OH2      OT      -0.834000       15.9994           0
    103500 TIP3     31195    TIP3     H1       HT       0.417000       1.00800           0
    103501 TIP3     31195    TIP3     H2       HT       0.417000       1.00800           0
    103502 TIP3     31196    TIP3     OH2      OT      -0.834000       15.9994           0
    103503 TIP3     31196    TIP3     H1       HT       0.417000       1.00800           0
    103504 TIP3     31196    TIP3     H2       HT       0.417000       1.00800           0
    103505 TIP3     31197    TIP3     OH2      OT      -0.834000       15.9994           0
    103506 TIP3     31197    TIP3     H1       HT       0.417000       1.00800           0
    103507 TIP3     31197    TIP3     H2       HT       0.417000       1.00800           0
    103508 TIP3     31198    TIP3     OH2      OT      -0.834000       15.9994           0
    103509 TIP3     31198    TIP3     H1       HT       0.417000       1.00800           0
    103510 TIP3     31198    TIP3     H2       HT       0.417000       1.00800           0
    103511 TIP3     31199    TIP3     OH2      OT      -0.834000       15.9994           0
    103512 TIP3     31199    TIP3     H1       HT       0.417000       1.00800           0
    103513 TIP3     31199    TIP3     H2       HT       0.417000       1.00800           0
    103514 TIP3     31200    TIP3     OH2      OT      -0.834000       15.9994           0
    103515 TIP3     31200    TIP3     H1       HT       0.417000       1.00800           0
    103516 TIP3     31200    TIP3     H2       HT       0.417000       1.00800           0
    103517 TIP3     31201    TIP3     OH2      OT      -0.834000       15.9994           0
    103518 TIP3     31201    TIP3     H1       HT       0.417000       1.00800           0
    103519 TIP3     31201    TIP3     H2       HT       0.417000       1.00800           0
    103520 TIP3     31202    TIP3     OH2      OT      -0.834000       15.9994           0
    103521 TIP3     31202    TIP3     H1       HT       0.417000       1.00800           0
    103522 TIP3     31202    TIP3     H2       HT       0.417000       1.00800           0
    103523 TIP3     31203    TIP3     OH2      OT      -0.834000       15.9994           0
    103524 TIP3     31203    TIP3     H1       HT       0.417000       1.00800           0
    103525 TIP3     31203    TIP3     H2       HT       0.417000       1.00800           0
    103526 TIP3     31204    TIP3     OH2      OT      -0.834000       15.9994           0
    103527 TIP3     31204    TIP3     H1       HT       0.417000       1.00800           0
    103528 TIP3     31204    TIP3     H2       HT       0.417000       1.00800           0
    103529 TIP3     31205    TIP3     OH2      OT      -0.834000       15.9994           0
    103530 TIP3     31205    TIP3     H1       HT       0.417000       1.00800           0
    103531 TIP3     31205    TIP3     H2       HT       0.417000       1.00800           0
    103532 TIP3     31206    TIP3     OH2      OT      -0.834000       15.9994           0
    103533 TIP3     31206    TIP3     H1       HT       0.417000       1.00800           0
    103534 TIP3     31206    TIP3     H2       HT       0.417000       1.00800           0
    103535 TIP3     31207    TIP3     OH2      OT      -0.834000       15.9994           0
    103536 TIP3     31207    TIP3     H1       HT       0.417000       1.00800           0
    103537 TIP3     31207    TIP3     H2       HT       0.417000       1.00800           0
    103538 TIP3     31208    TIP3     OH2      OT      -0.834000       15.9994           0
    103539 TIP3     31208    TIP3     H1       HT       0.417000       1.00800           0
    103540 TIP3     31208    TIP3     H2       HT       0.417000       1.00800           0
    103541 TIP3     31209    TIP3     OH2      OT      -0.834000       15.9994           0
    103542 TIP3     31209    TIP3     H1       HT       0.417000       1.00800           0
    103543 TIP3     31209    TIP3     H2       HT       0.417000       1.00800           0
    103544 TIP3     31210    TIP3     OH2      OT      -0.834000       15.9994           0
    103545 TIP3     31210    TIP3     H1       HT       0.417000       1.00800           0
    103546 TIP3     31210    TIP3     H2       HT       0.417000       1.00800           0
    103547 TIP3     31211    TIP3     OH2      OT      -0.834000       15.9994           0
    103548 TIP3     31211    TIP3     H1       HT       0.417000       1.00800           0
    103549 TIP3     31211    TIP3     H2       HT       0.417000       1.00800           0
    103550 TIP3     31212    TIP3     OH2      OT      -0.834000       15.9994           0
    103551 TIP3     31212    TIP3     H1       HT       0.417000       1.00800           0
    103552 TIP3     31212    TIP3     H2       HT       0.417000       1.00800           0
    103553 TIP3     31213    TIP3     OH2      OT      -0.834000       15.9994           0
    103554 TIP3     31213    TIP3     H1       HT       0.417000       1.00800           0
    103555 TIP3     31213    TIP3     H2       HT       0.417000       1.00800           0
    103556 TIP3     31214    TIP3     OH2      OT      -0.834000       15.9994           0
    103557 TIP3     31214    TIP3     H1       HT       0.417000       1.00800           0
    103558 TIP3     31214    TIP3     H2       HT       0.417000       1.00800           0
    103559 TIP3     31215    TIP3     OH2      OT      -0.834000       15.9994           0
    103560 TIP3     31215    TIP3     H1       HT       0.417000       1.00800           0
    103561 TIP3     31215    TIP3     H2       HT       0.417000       1.00800           0
    103562 TIP3     31216    TIP3     OH2      OT      -0.834000       15.9994           0
    103563 TIP3     31216    TIP3     H1       HT       0.417000       1.00800           0
    103564 TIP3     31216    TIP3     H2       HT       0.417000       1.00800           0
    103565 TIP3     31217    TIP3     OH2      OT      -0.834000       15.9994           0
    103566 TIP3     31217    TIP3     H1       HT       0.417000       1.00800           0
    103567 TIP3     31217    TIP3     H2       HT       0.417000       1.00800           0
    103568 TIP3     31218    TIP3     OH2      OT      -0.834000       15.9994           0
    103569 TIP3     31218    TIP3     H1       HT       0.417000       1.00800           0
    103570 TIP3     31218    TIP3     H2       HT       0.417000       1.00800           0
    103571 TIP3     31219    TIP3     OH2      OT      -0.834000       15.9994           0
    103572 TIP3     31219    TIP3     H1       HT       0.417000       1.00800           0
    103573 TIP3     31219    TIP3     H2       HT       0.417000       1.00800           0
    103574 TIP3     31220    TIP3     OH2      OT      -0.834000       15.9994           0
    103575 TIP3     31220    TIP3     H1       HT       0.417000       1.00800           0
    103576 TIP3     31220    TIP3     H2       HT       0.417000       1.00800           0
    103577 TIP3     31221    TIP3     OH2      OT      -0.834000       15.9994           0
    103578 TIP3     31221    TIP3     H1       HT       0.417000       1.00800           0
    103579 TIP3     31221    TIP3     H2       HT       0.417000       1.00800           0
    103580 TIP3     31222    TIP3     OH2      OT      -0.834000       15.9994           0
    103581 TIP3     31222    TIP3     H1       HT       0.417000       1.00800           0
    103582 TIP3     31222    TIP3     H2       HT       0.417000       1.00800           0
    103583 TIP3     31223    TIP3     OH2      OT      -0.834000       15.9994           0
    103584 TIP3     31223    TIP3     H1       HT       0.417000       1.00800           0
    103585 TIP3     31223    TIP3     H2       HT       0.417000       1.00800           0
    103586 TIP3     31224    TIP3     OH2      OT      -0.834000       15.9994           0
    103587 TIP3     31224    TIP3     H1       HT       0.417000       1.00800           0
    103588 TIP3     31224    TIP3     H2       HT       0.417000       1.00800           0
    103589 TIP3     31225    TIP3     OH2      OT      -0.834000       15.9994           0
    103590 TIP3     31225    TIP3     H1       HT       0.417000       1.00800           0
    103591 TIP3     31225    TIP3     H2       HT       0.417000       1.00800           0
    103592 TIP3     31226    TIP3     OH2      OT      -0.834000       15.9994           0
    103593 TIP3     31226    TIP3     H1       HT       0.417000       1.00800           0
    103594 TIP3     31226    TIP3     H2       HT       0.417000       1.00800           0
    103595 TIP3     31227    TIP3     OH2      OT      -0.834000       15.9994           0
    103596 TIP3     31227    TIP3     H1       HT       0.417000       1.00800           0
    103597 TIP3     31227    TIP3     H2       HT       0.417000       1.00800           0
    103598 TIP3     31228    TIP3     OH2      OT      -0.834000       15.9994           0
    103599 TIP3     31228    TIP3     H1       HT       0.417000       1.00800           0
    103600 TIP3     31228    TIP3     H2       HT       0.417000       1.00800           0
    103601 TIP3     31229    TIP3     OH2      OT      -0.834000       15.9994           0
    103602 TIP3     31229    TIP3     H1       HT       0.417000       1.00800           0
    103603 TIP3     31229    TIP3     H2       HT       0.417000       1.00800           0
    103604 TIP3     31230    TIP3     OH2      OT      -0.834000       15.9994           0
    103605 TIP3     31230    TIP3     H1       HT       0.417000       1.00800           0
    103606 TIP3     31230    TIP3     H2       HT       0.417000       1.00800           0
    103607 TIP3     31231    TIP3     OH2      OT      -0.834000       15.9994           0
    103608 TIP3     31231    TIP3     H1       HT       0.417000       1.00800           0
    103609 TIP3     31231    TIP3     H2       HT       0.417000       1.00800           0
    103610 TIP3     31232    TIP3     OH2      OT      -0.834000       15.9994           0
    103611 TIP3     31232    TIP3     H1       HT       0.417000       1.00800           0
    103612 TIP3     31232    TIP3     H2       HT       0.417000       1.00800           0
    103613 TIP3     31233    TIP3     OH2      OT      -0.834000       15.9994           0
    103614 TIP3     31233    TIP3     H1       HT       0.417000       1.00800           0
    103615 TIP3     31233    TIP3     H2       HT       0.417000       1.00800           0
    103616 TIP3     31234    TIP3     OH2      OT      -0.834000       15.9994           0
    103617 TIP3     31234    TIP3     H1       HT       0.417000       1.00800           0
    103618 TIP3     31234    TIP3     H2       HT       0.417000       1.00800           0
    103619 TIP3     31235    TIP3     OH2      OT      -0.834000       15.9994           0
    103620 TIP3     31235    TIP3     H1       HT       0.417000       1.00800           0
    103621 TIP3     31235    TIP3     H2       HT       0.417000       1.00800           0
    103622 TIP3     31236    TIP3     OH2      OT      -0.834000       15.9994           0
    103623 TIP3     31236    TIP3     H1       HT       0.417000       1.00800           0
    103624 TIP3     31236    TIP3     H2       HT       0.417000       1.00800           0
    103625 TIP3     31237    TIP3     OH2      OT      -0.834000       15.9994           0
    103626 TIP3     31237    TIP3     H1       HT       0.417000       1.00800           0
    103627 TIP3     31237    TIP3     H2       HT       0.417000       1.00800           0
    103628 TIP3     31238    TIP3     OH2      OT      -0.834000       15.9994           0
    103629 TIP3     31238    TIP3     H1       HT       0.417000       1.00800           0
    103630 TIP3     31238    TIP3     H2       HT       0.417000       1.00800           0
    103631 TIP3     31239    TIP3     OH2      OT      -0.834000       15.9994           0
    103632 TIP3     31239    TIP3     H1       HT       0.417000       1.00800           0
    103633 TIP3     31239    TIP3     H2       HT       0.417000       1.00800           0
    103634 TIP3     31240    TIP3     OH2      OT      -0.834000       15.9994           0
    103635 TIP3     31240    TIP3     H1       HT       0.417000       1.00800           0
    103636 TIP3     31240    TIP3     H2       HT       0.417000       1.00800           0
    103637 TIP3     31241    TIP3     OH2      OT      -0.834000       15.9994           0
    103638 TIP3     31241    TIP3     H1       HT       0.417000       1.00800           0
    103639 TIP3     31241    TIP3     H2       HT       0.417000       1.00800           0
    103640 TIP3     31242    TIP3     OH2      OT      -0.834000       15.9994           0
    103641 TIP3     31242    TIP3     H1       HT       0.417000       1.00800           0
    103642 TIP3     31242    TIP3     H2       HT       0.417000       1.00800           0
    103643 TIP3     31243    TIP3     OH2      OT      -0.834000       15.9994           0
    103644 TIP3     31243    TIP3     H1       HT       0.417000       1.00800           0
    103645 TIP3     31243    TIP3     H2       HT       0.417000       1.00800           0
    103646 TIP3     31244    TIP3     OH2      OT      -0.834000       15.9994           0
    103647 TIP3     31244    TIP3     H1       HT       0.417000       1.00800           0
    103648 TIP3     31244    TIP3     H2       HT       0.417000       1.00800           0
    103649 TIP3     31245    TIP3     OH2      OT      -0.834000       15.9994           0
    103650 TIP3     31245    TIP3     H1       HT       0.417000       1.00800           0
    103651 TIP3     31245    TIP3     H2       HT       0.417000       1.00800           0
    103652 TIP3     31246    TIP3     OH2      OT      -0.834000       15.9994           0
    103653 TIP3     31246    TIP3     H1       HT       0.417000       1.00800           0
    103654 TIP3     31246    TIP3     H2       HT       0.417000       1.00800           0
    103655 TIP3     31247    TIP3     OH2      OT      -0.834000       15.9994           0
    103656 TIP3     31247    TIP3     H1       HT       0.417000       1.00800           0
    103657 TIP3     31247    TIP3     H2       HT       0.417000       1.00800           0
    103658 TIP3     31248    TIP3     OH2      OT      -0.834000       15.9994           0
    103659 TIP3     31248    TIP3     H1       HT       0.417000       1.00800           0
    103660 TIP3     31248    TIP3     H2       HT       0.417000       1.00800           0
    103661 TIP3     31249    TIP3     OH2      OT      -0.834000       15.9994           0
    103662 TIP3     31249    TIP3     H1       HT       0.417000       1.00800           0
    103663 TIP3     31249    TIP3     H2       HT       0.417000       1.00800           0
    103664 TIP3     31250    TIP3     OH2      OT      -0.834000       15.9994           0
    103665 TIP3     31250    TIP3     H1       HT       0.417000       1.00800           0
    103666 TIP3     31250    TIP3     H2       HT       0.417000       1.00800           0
    103667 TIP3     31251    TIP3     OH2      OT      -0.834000       15.9994           0
    103668 TIP3     31251    TIP3     H1       HT       0.417000       1.00800           0
    103669 TIP3     31251    TIP3     H2       HT       0.417000       1.00800           0
    103670 TIP3     31252    TIP3     OH2      OT      -0.834000       15.9994           0
    103671 TIP3     31252    TIP3     H1       HT       0.417000       1.00800           0
    103672 TIP3     31252    TIP3     H2       HT       0.417000       1.00800           0
    103673 TIP3     31253    TIP3     OH2      OT      -0.834000       15.9994           0
    103674 TIP3     31253    TIP3     H1       HT       0.417000       1.00800           0
    103675 TIP3     31253    TIP3     H2       HT       0.417000       1.00800           0
    103676 TIP3     31254    TIP3     OH2      OT      -0.834000       15.9994           0
    103677 TIP3     31254    TIP3     H1       HT       0.417000       1.00800           0
    103678 TIP3     31254    TIP3     H2       HT       0.417000       1.00800           0
    103679 TIP3     31255    TIP3     OH2      OT      -0.834000       15.9994           0
    103680 TIP3     31255    TIP3     H1       HT       0.417000       1.00800           0
    103681 TIP3     31255    TIP3     H2       HT       0.417000       1.00800           0
    103682 TIP3     31256    TIP3     OH2      OT      -0.834000       15.9994           0
    103683 TIP3     31256    TIP3     H1       HT       0.417000       1.00800           0
    103684 TIP3     31256    TIP3     H2       HT       0.417000       1.00800           0
    103685 TIP3     31257    TIP3     OH2      OT      -0.834000       15.9994           0
    103686 TIP3     31257    TIP3     H1       HT       0.417000       1.00800           0
    103687 TIP3     31257    TIP3     H2       HT       0.417000       1.00800           0
    103688 TIP3     31258    TIP3     OH2      OT      -0.834000       15.9994           0
    103689 TIP3     31258    TIP3     H1       HT       0.417000       1.00800           0
    103690 TIP3     31258    TIP3     H2       HT       0.417000       1.00800           0
    103691 TIP3     31259    TIP3     OH2      OT      -0.834000       15.9994           0
    103692 TIP3     31259    TIP3     H1       HT       0.417000       1.00800           0
    103693 TIP3     31259    TIP3     H2       HT       0.417000       1.00800           0
    103694 TIP3     31260    TIP3     OH2      OT      -0.834000       15.9994           0
    103695 TIP3     31260    TIP3     H1       HT       0.417000       1.00800           0
    103696 TIP3     31260    TIP3     H2       HT       0.417000       1.00800           0
    103697 TIP3     31261    TIP3     OH2      OT      -0.834000       15.9994           0
    103698 TIP3     31261    TIP3     H1       HT       0.417000       1.00800           0
    103699 TIP3     31261    TIP3     H2       HT       0.417000       1.00800           0
    103700 TIP3     31262    TIP3     OH2      OT      -0.834000       15.9994           0
    103701 TIP3     31262    TIP3     H1       HT       0.417000       1.00800           0
    103702 TIP3     31262    TIP3     H2       HT       0.417000       1.00800           0
    103703 TIP3     31263    TIP3     OH2      OT      -0.834000       15.9994           0
    103704 TIP3     31263    TIP3     H1       HT       0.417000       1.00800           0
    103705 TIP3     31263    TIP3     H2       HT       0.417000       1.00800           0
    103706 TIP3     31264    TIP3     OH2      OT      -0.834000       15.9994           0
    103707 TIP3     31264    TIP3     H1       HT       0.417000       1.00800           0
    103708 TIP3     31264    TIP3     H2       HT       0.417000       1.00800           0
    103709 TIP3     31265    TIP3     OH2      OT      -0.834000       15.9994           0
    103710 TIP3     31265    TIP3     H1       HT       0.417000       1.00800           0
    103711 TIP3     31265    TIP3     H2       HT       0.417000       1.00800           0
    103712 TIP3     31266    TIP3     OH2      OT      -0.834000       15.9994           0
    103713 TIP3     31266    TIP3     H1       HT       0.417000       1.00800           0
    103714 TIP3     31266    TIP3     H2       HT       0.417000       1.00800           0
    103715 TIP3     31267    TIP3     OH2      OT      -0.834000       15.9994           0
    103716 TIP3     31267    TIP3     H1       HT       0.417000       1.00800           0
    103717 TIP3     31267    TIP3     H2       HT       0.417000       1.00800           0
    103718 TIP3     31268    TIP3     OH2      OT      -0.834000       15.9994           0
    103719 TIP3     31268    TIP3     H1       HT       0.417000       1.00800           0
    103720 TIP3     31268    TIP3     H2       HT       0.417000       1.00800           0
    103721 TIP3     31269    TIP3     OH2      OT      -0.834000       15.9994           0
    103722 TIP3     31269    TIP3     H1       HT       0.417000       1.00800           0
    103723 TIP3     31269    TIP3     H2       HT       0.417000       1.00800           0
    103724 TIP3     31270    TIP3     OH2      OT      -0.834000       15.9994           0
    103725 TIP3     31270    TIP3     H1       HT       0.417000       1.00800           0
    103726 TIP3     31270    TIP3     H2       HT       0.417000       1.00800           0
    103727 TIP3     31271    TIP3     OH2      OT      -0.834000       15.9994           0
    103728 TIP3     31271    TIP3     H1       HT       0.417000       1.00800           0
    103729 TIP3     31271    TIP3     H2       HT       0.417000       1.00800           0
    103730 TIP3     31272    TIP3     OH2      OT      -0.834000       15.9994           0
    103731 TIP3     31272    TIP3     H1       HT       0.417000       1.00800           0
    103732 TIP3     31272    TIP3     H2       HT       0.417000       1.00800           0
    103733 TIP3     31273    TIP3     OH2      OT      -0.834000       15.9994           0
    103734 TIP3     31273    TIP3     H1       HT       0.417000       1.00800           0
    103735 TIP3     31273    TIP3     H2       HT       0.417000       1.00800           0
    103736 TIP3     31274    TIP3     OH2      OT      -0.834000       15.9994           0
    103737 TIP3     31274    TIP3     H1       HT       0.417000       1.00800           0
    103738 TIP3     31274    TIP3     H2       HT       0.417000       1.00800           0
    103739 TIP3     31275    TIP3     OH2      OT      -0.834000       15.9994           0
    103740 TIP3     31275    TIP3     H1       HT       0.417000       1.00800           0
    103741 TIP3     31275    TIP3     H2       HT       0.417000       1.00800           0
    103742 TIP3     31276    TIP3     OH2      OT      -0.834000       15.9994           0
    103743 TIP3     31276    TIP3     H1       HT       0.417000       1.00800           0
    103744 TIP3     31276    TIP3     H2       HT       0.417000       1.00800           0
    103745 TIP3     31277    TIP3     OH2      OT      -0.834000       15.9994           0
    103746 TIP3     31277    TIP3     H1       HT       0.417000       1.00800           0
    103747 TIP3     31277    TIP3     H2       HT       0.417000       1.00800           0
    103748 TIP3     31278    TIP3     OH2      OT      -0.834000       15.9994           0
    103749 TIP3     31278    TIP3     H1       HT       0.417000       1.00800           0
    103750 TIP3     31278    TIP3     H2       HT       0.417000       1.00800           0
    103751 TIP3     31279    TIP3     OH2      OT      -0.834000       15.9994           0
    103752 TIP3     31279    TIP3     H1       HT       0.417000       1.00800           0
    103753 TIP3     31279    TIP3     H2       HT       0.417000       1.00800           0
    103754 TIP3     31280    TIP3     OH2      OT      -0.834000       15.9994           0
    103755 TIP3     31280    TIP3     H1       HT       0.417000       1.00800           0
    103756 TIP3     31280    TIP3     H2       HT       0.417000       1.00800           0
    103757 TIP3     31281    TIP3     OH2      OT      -0.834000       15.9994           0
    103758 TIP3     31281    TIP3     H1       HT       0.417000       1.00800           0
    103759 TIP3     31281    TIP3     H2       HT       0.417000       1.00800           0
    103760 TIP3     31282    TIP3     OH2      OT      -0.834000       15.9994           0
    103761 TIP3     31282    TIP3     H1       HT       0.417000       1.00800           0
    103762 TIP3     31282    TIP3     H2       HT       0.417000       1.00800           0
    103763 TIP3     31283    TIP3     OH2      OT      -0.834000       15.9994           0
    103764 TIP3     31283    TIP3     H1       HT       0.417000       1.00800           0
    103765 TIP3     31283    TIP3     H2       HT       0.417000       1.00800           0
    103766 TIP3     31284    TIP3     OH2      OT      -0.834000       15.9994           0
    103767 TIP3     31284    TIP3     H1       HT       0.417000       1.00800           0
    103768 TIP3     31284    TIP3     H2       HT       0.417000       1.00800           0
    103769 TIP3     31285    TIP3     OH2      OT      -0.834000       15.9994           0
    103770 TIP3     31285    TIP3     H1       HT       0.417000       1.00800           0
    103771 TIP3     31285    TIP3     H2       HT       0.417000       1.00800           0
    103772 TIP3     31286    TIP3     OH2      OT      -0.834000       15.9994           0
    103773 TIP3     31286    TIP3     H1       HT       0.417000       1.00800           0
    103774 TIP3     31286    TIP3     H2       HT       0.417000       1.00800           0
    103775 TIP3     31287    TIP3     OH2      OT      -0.834000       15.9994           0
    103776 TIP3     31287    TIP3     H1       HT       0.417000       1.00800           0
    103777 TIP3     31287    TIP3     H2       HT       0.417000       1.00800           0
    103778 TIP3     31288    TIP3     OH2      OT      -0.834000       15.9994           0
    103779 TIP3     31288    TIP3     H1       HT       0.417000       1.00800           0
    103780 TIP3     31288    TIP3     H2       HT       0.417000       1.00800           0
    103781 TIP3     31289    TIP3     OH2      OT      -0.834000       15.9994           0
    103782 TIP3     31289    TIP3     H1       HT       0.417000       1.00800           0
    103783 TIP3     31289    TIP3     H2       HT       0.417000       1.00800           0
    103784 TIP3     31290    TIP3     OH2      OT      -0.834000       15.9994           0
    103785 TIP3     31290    TIP3     H1       HT       0.417000       1.00800           0
    103786 TIP3     31290    TIP3     H2       HT       0.417000       1.00800           0
    103787 TIP3     31291    TIP3     OH2      OT      -0.834000       15.9994           0
    103788 TIP3     31291    TIP3     H1       HT       0.417000       1.00800           0
    103789 TIP3     31291    TIP3     H2       HT       0.417000       1.00800           0
    103790 TIP3     31292    TIP3     OH2      OT      -0.834000       15.9994           0
    103791 TIP3     31292    TIP3     H1       HT       0.417000       1.00800           0
    103792 TIP3     31292    TIP3     H2       HT       0.417000       1.00800           0
    103793 TIP3     31293    TIP3     OH2      OT      -0.834000       15.9994           0
    103794 TIP3     31293    TIP3     H1       HT       0.417000       1.00800           0
    103795 TIP3     31293    TIP3     H2       HT       0.417000       1.00800           0
    103796 TIP3     31294    TIP3     OH2      OT      -0.834000       15.9994           0
    103797 TIP3     31294    TIP3     H1       HT       0.417000       1.00800           0
    103798 TIP3     31294    TIP3     H2       HT       0.417000       1.00800           0
    103799 TIP3     31295    TIP3     OH2      OT      -0.834000       15.9994           0
    103800 TIP3     31295    TIP3     H1       HT       0.417000       1.00800           0
    103801 TIP3     31295    TIP3     H2       HT       0.417000       1.00800           0
    103802 TIP3     31296    TIP3     OH2      OT      -0.834000       15.9994           0
    103803 TIP3     31296    TIP3     H1       HT       0.417000       1.00800           0
    103804 TIP3     31296    TIP3     H2       HT       0.417000       1.00800           0
    103805 TIP3     31297    TIP3     OH2      OT      -0.834000       15.9994           0
    103806 TIP3     31297    TIP3     H1       HT       0.417000       1.00800           0
    103807 TIP3     31297    TIP3     H2       HT       0.417000       1.00800           0
    103808 TIP3     31298    TIP3     OH2      OT      -0.834000       15.9994           0
    103809 TIP3     31298    TIP3     H1       HT       0.417000       1.00800           0
    103810 TIP3     31298    TIP3     H2       HT       0.417000       1.00800           0
    103811 TIP3     31299    TIP3     OH2      OT      -0.834000       15.9994           0
    103812 TIP3     31299    TIP3     H1       HT       0.417000       1.00800           0
    103813 TIP3     31299    TIP3     H2       HT       0.417000       1.00800           0
    103814 TIP3     31300    TIP3     OH2      OT      -0.834000       15.9994           0
    103815 TIP3     31300    TIP3     H1       HT       0.417000       1.00800           0
    103816 TIP3     31300    TIP3     H2       HT       0.417000       1.00800           0
    103817 TIP3     31301    TIP3     OH2      OT      -0.834000       15.9994           0
    103818 TIP3     31301    TIP3     H1       HT       0.417000       1.00800           0
    103819 TIP3     31301    TIP3     H2       HT       0.417000       1.00800           0
    103820 TIP3     31302    TIP3     OH2      OT      -0.834000       15.9994           0
    103821 TIP3     31302    TIP3     H1       HT       0.417000       1.00800           0
    103822 TIP3     31302    TIP3     H2       HT       0.417000       1.00800           0
    103823 TIP3     31303    TIP3     OH2      OT      -0.834000       15.9994           0
    103824 TIP3     31303    TIP3     H1       HT       0.417000       1.00800           0
    103825 TIP3     31303    TIP3     H2       HT       0.417000       1.00800           0
    103826 TIP3     31304    TIP3     OH2      OT      -0.834000       15.9994           0
    103827 TIP3     31304    TIP3     H1       HT       0.417000       1.00800           0
    103828 TIP3     31304    TIP3     H2       HT       0.417000       1.00800           0
    103829 TIP3     31305    TIP3     OH2      OT      -0.834000       15.9994           0
    103830 TIP3     31305    TIP3     H1       HT       0.417000       1.00800           0
    103831 TIP3     31305    TIP3     H2       HT       0.417000       1.00800           0
    103832 TIP3     31306    TIP3     OH2      OT      -0.834000       15.9994           0
    103833 TIP3     31306    TIP3     H1       HT       0.417000       1.00800           0
    103834 TIP3     31306    TIP3     H2       HT       0.417000       1.00800           0
    103835 TIP3     31307    TIP3     OH2      OT      -0.834000       15.9994           0
    103836 TIP3     31307    TIP3     H1       HT       0.417000       1.00800           0
    103837 TIP3     31307    TIP3     H2       HT       0.417000       1.00800           0
    103838 TIP3     31308    TIP3     OH2      OT      -0.834000       15.9994           0
    103839 TIP3     31308    TIP3     H1       HT       0.417000       1.00800           0
    103840 TIP3     31308    TIP3     H2       HT       0.417000       1.00800           0
    103841 TIP3     31309    TIP3     OH2      OT      -0.834000       15.9994           0
    103842 TIP3     31309    TIP3     H1       HT       0.417000       1.00800           0
    103843 TIP3     31309    TIP3     H2       HT       0.417000       1.00800           0
    103844 TIP3     31310    TIP3     OH2      OT      -0.834000       15.9994           0
    103845 TIP3     31310    TIP3     H1       HT       0.417000       1.00800           0
    103846 TIP3     31310    TIP3     H2       HT       0.417000       1.00800           0
    103847 TIP3     31311    TIP3     OH2      OT      -0.834000       15.9994           0
    103848 TIP3     31311    TIP3     H1       HT       0.417000       1.00800           0
    103849 TIP3     31311    TIP3     H2       HT       0.417000       1.00800           0
    103850 TIP3     31312    TIP3     OH2      OT      -0.834000       15.9994           0
    103851 TIP3     31312    TIP3     H1       HT       0.417000       1.00800           0
    103852 TIP3     31312    TIP3     H2       HT       0.417000       1.00800           0
    103853 TIP3     31313    TIP3     OH2      OT      -0.834000       15.9994           0
    103854 TIP3     31313    TIP3     H1       HT       0.417000       1.00800           0
    103855 TIP3     31313    TIP3     H2       HT       0.417000       1.00800           0
    103856 TIP3     31314    TIP3     OH2      OT      -0.834000       15.9994           0
    103857 TIP3     31314    TIP3     H1       HT       0.417000       1.00800           0
    103858 TIP3     31314    TIP3     H2       HT       0.417000       1.00800           0
    103859 TIP3     31315    TIP3     OH2      OT      -0.834000       15.9994           0
    103860 TIP3     31315    TIP3     H1       HT       0.417000       1.00800           0
    103861 TIP3     31315    TIP3     H2       HT       0.417000       1.00800           0
    103862 TIP3     31316    TIP3     OH2      OT      -0.834000       15.9994           0
    103863 TIP3     31316    TIP3     H1       HT       0.417000       1.00800           0
    103864 TIP3     31316    TIP3     H2       HT       0.417000       1.00800           0
    103865 TIP3     31317    TIP3     OH2      OT      -0.834000       15.9994           0
    103866 TIP3     31317    TIP3     H1       HT       0.417000       1.00800           0
    103867 TIP3     31317    TIP3     H2       HT       0.417000       1.00800           0
    103868 TIP3     31318    TIP3     OH2      OT      -0.834000       15.9994           0
    103869 TIP3     31318    TIP3     H1       HT       0.417000       1.00800           0
    103870 TIP3     31318    TIP3     H2       HT       0.417000       1.00800           0
    103871 TIP3     31319    TIP3     OH2      OT      -0.834000       15.9994           0
    103872 TIP3     31319    TIP3     H1       HT       0.417000       1.00800           0
    103873 TIP3     31319    TIP3     H2       HT       0.417000       1.00800           0
    103874 TIP3     31320    TIP3     OH2      OT      -0.834000       15.9994           0
    103875 TIP3     31320    TIP3     H1       HT       0.417000       1.00800           0
    103876 TIP3     31320    TIP3     H2       HT       0.417000       1.00800           0
    103877 TIP3     31321    TIP3     OH2      OT      -0.834000       15.9994           0
    103878 TIP3     31321    TIP3     H1       HT       0.417000       1.00800           0
    103879 TIP3     31321    TIP3     H2       HT       0.417000       1.00800           0
    103880 TIP3     31322    TIP3     OH2      OT      -0.834000       15.9994           0
    103881 TIP3     31322    TIP3     H1       HT       0.417000       1.00800           0
    103882 TIP3     31322    TIP3     H2       HT       0.417000       1.00800           0
    103883 TIP3     31323    TIP3     OH2      OT      -0.834000       15.9994           0
    103884 TIP3     31323    TIP3     H1       HT       0.417000       1.00800           0
    103885 TIP3     31323    TIP3     H2       HT       0.417000       1.00800           0
    103886 TIP3     31324    TIP3     OH2      OT      -0.834000       15.9994           0
    103887 TIP3     31324    TIP3     H1       HT       0.417000       1.00800           0
    103888 TIP3     31324    TIP3     H2       HT       0.417000       1.00800           0
    103889 TIP3     31325    TIP3     OH2      OT      -0.834000       15.9994           0
    103890 TIP3     31325    TIP3     H1       HT       0.417000       1.00800           0
    103891 TIP3     31325    TIP3     H2       HT       0.417000       1.00800           0
    103892 TIP3     31326    TIP3     OH2      OT      -0.834000       15.9994           0
    103893 TIP3     31326    TIP3     H1       HT       0.417000       1.00800           0
    103894 TIP3     31326    TIP3     H2       HT       0.417000       1.00800           0
    103895 TIP3     31327    TIP3     OH2      OT      -0.834000       15.9994           0
    103896 TIP3     31327    TIP3     H1       HT       0.417000       1.00800           0
    103897 TIP3     31327    TIP3     H2       HT       0.417000       1.00800           0
    103898 TIP3     31328    TIP3     OH2      OT      -0.834000       15.9994           0
    103899 TIP3     31328    TIP3     H1       HT       0.417000       1.00800           0
    103900 TIP3     31328    TIP3     H2       HT       0.417000       1.00800           0
    103901 TIP3     31329    TIP3     OH2      OT      -0.834000       15.9994           0
    103902 TIP3     31329    TIP3     H1       HT       0.417000       1.00800           0
    103903 TIP3     31329    TIP3     H2       HT       0.417000       1.00800           0
    103904 TIP3     31330    TIP3     OH2      OT      -0.834000       15.9994           0
    103905 TIP3     31330    TIP3     H1       HT       0.417000       1.00800           0
    103906 TIP3     31330    TIP3     H2       HT       0.417000       1.00800           0
    103907 TIP3     31331    TIP3     OH2      OT      -0.834000       15.9994           0
    103908 TIP3     31331    TIP3     H1       HT       0.417000       1.00800           0
    103909 TIP3     31331    TIP3     H2       HT       0.417000       1.00800           0
    103910 TIP3     31332    TIP3     OH2      OT      -0.834000       15.9994           0
    103911 TIP3     31332    TIP3     H1       HT       0.417000       1.00800           0
    103912 TIP3     31332    TIP3     H2       HT       0.417000       1.00800           0
    103913 TIP3     31333    TIP3     OH2      OT      -0.834000       15.9994           0
    103914 TIP3     31333    TIP3     H1       HT       0.417000       1.00800           0
    103915 TIP3     31333    TIP3     H2       HT       0.417000       1.00800           0
    103916 TIP3     31334    TIP3     OH2      OT      -0.834000       15.9994           0
    103917 TIP3     31334    TIP3     H1       HT       0.417000       1.00800           0
    103918 TIP3     31334    TIP3     H2       HT       0.417000       1.00800           0
    103919 TIP3     31335    TIP3     OH2      OT      -0.834000       15.9994           0
    103920 TIP3     31335    TIP3     H1       HT       0.417000       1.00800           0
    103921 TIP3     31335    TIP3     H2       HT       0.417000       1.00800           0
    103922 TIP3     31336    TIP3     OH2      OT      -0.834000       15.9994           0
    103923 TIP3     31336    TIP3     H1       HT       0.417000       1.00800           0
    103924 TIP3     31336    TIP3     H2       HT       0.417000       1.00800           0
    103925 TIP3     31337    TIP3     OH2      OT      -0.834000       15.9994           0
    103926 TIP3     31337    TIP3     H1       HT       0.417000       1.00800           0
    103927 TIP3     31337    TIP3     H2       HT       0.417000       1.00800           0
    103928 TIP3     31338    TIP3     OH2      OT      -0.834000       15.9994           0
    103929 TIP3     31338    TIP3     H1       HT       0.417000       1.00800           0
    103930 TIP3     31338    TIP3     H2       HT       0.417000       1.00800           0
    103931 TIP3     31339    TIP3     OH2      OT      -0.834000       15.9994           0
    103932 TIP3     31339    TIP3     H1       HT       0.417000       1.00800           0
    103933 TIP3     31339    TIP3     H2       HT       0.417000       1.00800           0
    103934 TIP3     31340    TIP3     OH2      OT      -0.834000       15.9994           0
    103935 TIP3     31340    TIP3     H1       HT       0.417000       1.00800           0
    103936 TIP3     31340    TIP3     H2       HT       0.417000       1.00800           0
    103937 TIP3     31341    TIP3     OH2      OT      -0.834000       15.9994           0
    103938 TIP3     31341    TIP3     H1       HT       0.417000       1.00800           0
    103939 TIP3     31341    TIP3     H2       HT       0.417000       1.00800           0
    103940 TIP3     31342    TIP3     OH2      OT      -0.834000       15.9994           0
    103941 TIP3     31342    TIP3     H1       HT       0.417000       1.00800           0
    103942 TIP3     31342    TIP3     H2       HT       0.417000       1.00800           0
    103943 TIP3     31343    TIP3     OH2      OT      -0.834000       15.9994           0
    103944 TIP3     31343    TIP3     H1       HT       0.417000       1.00800           0
    103945 TIP3     31343    TIP3     H2       HT       0.417000       1.00800           0
    103946 TIP3     31344    TIP3     OH2      OT      -0.834000       15.9994           0
    103947 TIP3     31344    TIP3     H1       HT       0.417000       1.00800           0
    103948 TIP3     31344    TIP3     H2       HT       0.417000       1.00800           0
    103949 TIP3     31345    TIP3     OH2      OT      -0.834000       15.9994           0
    103950 TIP3     31345    TIP3     H1       HT       0.417000       1.00800           0
    103951 TIP3     31345    TIP3     H2       HT       0.417000       1.00800           0
    103952 TIP3     31346    TIP3     OH2      OT      -0.834000       15.9994           0
    103953 TIP3     31346    TIP3     H1       HT       0.417000       1.00800           0
    103954 TIP3     31346    TIP3     H2       HT       0.417000       1.00800           0
    103955 TIP3     31347    TIP3     OH2      OT      -0.834000       15.9994           0
    103956 TIP3     31347    TIP3     H1       HT       0.417000       1.00800           0
    103957 TIP3     31347    TIP3     H2       HT       0.417000       1.00800           0
    103958 TIP3     31348    TIP3     OH2      OT      -0.834000       15.9994           0
    103959 TIP3     31348    TIP3     H1       HT       0.417000       1.00800           0
    103960 TIP3     31348    TIP3     H2       HT       0.417000       1.00800           0
    103961 TIP3     31349    TIP3     OH2      OT      -0.834000       15.9994           0
    103962 TIP3     31349    TIP3     H1       HT       0.417000       1.00800           0
    103963 TIP3     31349    TIP3     H2       HT       0.417000       1.00800           0
    103964 TIP3     31350    TIP3     OH2      OT      -0.834000       15.9994           0
    103965 TIP3     31350    TIP3     H1       HT       0.417000       1.00800           0
    103966 TIP3     31350    TIP3     H2       HT       0.417000       1.00800           0
    103967 TIP3     31351    TIP3     OH2      OT      -0.834000       15.9994           0
    103968 TIP3     31351    TIP3     H1       HT       0.417000       1.00800           0
    103969 TIP3     31351    TIP3     H2       HT       0.417000       1.00800           0
    103970 TIP3     31352    TIP3     OH2      OT      -0.834000       15.9994           0
    103971 TIP3     31352    TIP3     H1       HT       0.417000       1.00800           0
    103972 TIP3     31352    TIP3     H2       HT       0.417000       1.00800           0
    103973 TIP3     31353    TIP3     OH2      OT      -0.834000       15.9994           0
    103974 TIP3     31353    TIP3     H1       HT       0.417000       1.00800           0
    103975 TIP3     31353    TIP3     H2       HT       0.417000       1.00800           0
    103976 TIP3     31354    TIP3     OH2      OT      -0.834000       15.9994           0
    103977 TIP3     31354    TIP3     H1       HT       0.417000       1.00800           0
    103978 TIP3     31354    TIP3     H2       HT       0.417000       1.00800           0
    103979 TIP3     31355    TIP3     OH2      OT      -0.834000       15.9994           0
    103980 TIP3     31355    TIP3     H1       HT       0.417000       1.00800           0
    103981 TIP3     31355    TIP3     H2       HT       0.417000       1.00800           0
    103982 TIP3     31356    TIP3     OH2      OT      -0.834000       15.9994           0
    103983 TIP3     31356    TIP3     H1       HT       0.417000       1.00800           0
    103984 TIP3     31356    TIP3     H2       HT       0.417000       1.00800           0
    103985 TIP3     31357    TIP3     OH2      OT      -0.834000       15.9994           0
    103986 TIP3     31357    TIP3     H1       HT       0.417000       1.00800           0
    103987 TIP3     31357    TIP3     H2       HT       0.417000       1.00800           0
    103988 TIP3     31358    TIP3     OH2      OT      -0.834000       15.9994           0
    103989 TIP3     31358    TIP3     H1       HT       0.417000       1.00800           0
    103990 TIP3     31358    TIP3     H2       HT       0.417000       1.00800           0
    103991 TIP3     31359    TIP3     OH2      OT      -0.834000       15.9994           0
    103992 TIP3     31359    TIP3     H1       HT       0.417000       1.00800           0
    103993 TIP3     31359    TIP3     H2       HT       0.417000       1.00800           0
    103994 TIP3     31360    TIP3     OH2      OT      -0.834000       15.9994           0
    103995 TIP3     31360    TIP3     H1       HT       0.417000       1.00800           0
    103996 TIP3     31360    TIP3     H2       HT       0.417000       1.00800           0
    103997 TIP3     31361    TIP3     OH2      OT      -0.834000       15.9994           0
    103998 TIP3     31361    TIP3     H1       HT       0.417000       1.00800           0
    103999 TIP3     31361    TIP3     H2       HT       0.417000       1.00800           0
    104000 TIP3     31362    TIP3     OH2      OT      -0.834000       15.9994           0
    104001 TIP3     31362    TIP3     H1       HT       0.417000       1.00800           0
    104002 TIP3     31362    TIP3     H2       HT       0.417000       1.00800           0
    104003 TIP3     31363    TIP3     OH2      OT      -0.834000       15.9994           0
    104004 TIP3     31363    TIP3     H1       HT       0.417000       1.00800           0
    104005 TIP3     31363    TIP3     H2       HT       0.417000       1.00800           0
    104006 TIP3     31364    TIP3     OH2      OT      -0.834000       15.9994           0
    104007 TIP3     31364    TIP3     H1       HT       0.417000       1.00800           0
    104008 TIP3     31364    TIP3     H2       HT       0.417000       1.00800           0
    104009 TIP3     31365    TIP3     OH2      OT      -0.834000       15.9994           0
    104010 TIP3     31365    TIP3     H1       HT       0.417000       1.00800           0
    104011 TIP3     31365    TIP3     H2       HT       0.417000       1.00800           0
    104012 TIP3     31366    TIP3     OH2      OT      -0.834000       15.9994           0
    104013 TIP3     31366    TIP3     H1       HT       0.417000       1.00800           0
    104014 TIP3     31366    TIP3     H2       HT       0.417000       1.00800           0
    104015 TIP3     31367    TIP3     OH2      OT      -0.834000       15.9994           0
    104016 TIP3     31367    TIP3     H1       HT       0.417000       1.00800           0
    104017 TIP3     31367    TIP3     H2       HT       0.417000       1.00800           0
    104018 TIP3     31368    TIP3     OH2      OT      -0.834000       15.9994           0
    104019 TIP3     31368    TIP3     H1       HT       0.417000       1.00800           0
    104020 TIP3     31368    TIP3     H2       HT       0.417000       1.00800           0
    104021 TIP3     31369    TIP3     OH2      OT      -0.834000       15.9994           0
    104022 TIP3     31369    TIP3     H1       HT       0.417000       1.00800           0
    104023 TIP3     31369    TIP3     H2       HT       0.417000       1.00800           0
    104024 TIP3     31370    TIP3     OH2      OT      -0.834000       15.9994           0
    104025 TIP3     31370    TIP3     H1       HT       0.417000       1.00800           0
    104026 TIP3     31370    TIP3     H2       HT       0.417000       1.00800           0
    104027 TIP3     31371    TIP3     OH2      OT      -0.834000       15.9994           0
    104028 TIP3     31371    TIP3     H1       HT       0.417000       1.00800           0
    104029 TIP3     31371    TIP3     H2       HT       0.417000       1.00800           0
    104030 TIP3     31372    TIP3     OH2      OT      -0.834000       15.9994           0
    104031 TIP3     31372    TIP3     H1       HT       0.417000       1.00800           0
    104032 TIP3     31372    TIP3     H2       HT       0.417000       1.00800           0
    104033 TIP3     31373    TIP3     OH2      OT      -0.834000       15.9994           0
    104034 TIP3     31373    TIP3     H1       HT       0.417000       1.00800           0
    104035 TIP3     31373    TIP3     H2       HT       0.417000       1.00800           0
    104036 TIP3     31374    TIP3     OH2      OT      -0.834000       15.9994           0
    104037 TIP3     31374    TIP3     H1       HT       0.417000       1.00800           0
    104038 TIP3     31374    TIP3     H2       HT       0.417000       1.00800           0
    104039 TIP3     31375    TIP3     OH2      OT      -0.834000       15.9994           0
    104040 TIP3     31375    TIP3     H1       HT       0.417000       1.00800           0
    104041 TIP3     31375    TIP3     H2       HT       0.417000       1.00800           0
    104042 TIP3     31376    TIP3     OH2      OT      -0.834000       15.9994           0
    104043 TIP3     31376    TIP3     H1       HT       0.417000       1.00800           0
    104044 TIP3     31376    TIP3     H2       HT       0.417000       1.00800           0
    104045 TIP3     31377    TIP3     OH2      OT      -0.834000       15.9994           0
    104046 TIP3     31377    TIP3     H1       HT       0.417000       1.00800           0
    104047 TIP3     31377    TIP3     H2       HT       0.417000       1.00800           0
    104048 TIP3     31378    TIP3     OH2      OT      -0.834000       15.9994           0
    104049 TIP3     31378    TIP3     H1       HT       0.417000       1.00800           0
    104050 TIP3     31378    TIP3     H2       HT       0.417000       1.00800           0
    104051 TIP3     31379    TIP3     OH2      OT      -0.834000       15.9994           0
    104052 TIP3     31379    TIP3     H1       HT       0.417000       1.00800           0
    104053 TIP3     31379    TIP3     H2       HT       0.417000       1.00800           0
    104054 TIP3     31380    TIP3     OH2      OT      -0.834000       15.9994           0
    104055 TIP3     31380    TIP3     H1       HT       0.417000       1.00800           0
    104056 TIP3     31380    TIP3     H2       HT       0.417000       1.00800           0
    104057 TIP3     31381    TIP3     OH2      OT      -0.834000       15.9994           0
    104058 TIP3     31381    TIP3     H1       HT       0.417000       1.00800           0
    104059 TIP3     31381    TIP3     H2       HT       0.417000       1.00800           0
    104060 TIP3     31382    TIP3     OH2      OT      -0.834000       15.9994           0
    104061 TIP3     31382    TIP3     H1       HT       0.417000       1.00800           0
    104062 TIP3     31382    TIP3     H2       HT       0.417000       1.00800           0
    104063 TIP3     31383    TIP3     OH2      OT      -0.834000       15.9994           0
    104064 TIP3     31383    TIP3     H1       HT       0.417000       1.00800           0
    104065 TIP3     31383    TIP3     H2       HT       0.417000       1.00800           0
    104066 TIP3     31384    TIP3     OH2      OT      -0.834000       15.9994           0
    104067 TIP3     31384    TIP3     H1       HT       0.417000       1.00800           0
    104068 TIP3     31384    TIP3     H2       HT       0.417000       1.00800           0
    104069 TIP3     31385    TIP3     OH2      OT      -0.834000       15.9994           0
    104070 TIP3     31385    TIP3     H1       HT       0.417000       1.00800           0
    104071 TIP3     31385    TIP3     H2       HT       0.417000       1.00800           0
    104072 TIP3     31386    TIP3     OH2      OT      -0.834000       15.9994           0
    104073 TIP3     31386    TIP3     H1       HT       0.417000       1.00800           0
    104074 TIP3     31386    TIP3     H2       HT       0.417000       1.00800           0
    104075 TIP3     31387    TIP3     OH2      OT      -0.834000       15.9994           0
    104076 TIP3     31387    TIP3     H1       HT       0.417000       1.00800           0
    104077 TIP3     31387    TIP3     H2       HT       0.417000       1.00800           0
    104078 TIP3     31388    TIP3     OH2      OT      -0.834000       15.9994           0
    104079 TIP3     31388    TIP3     H1       HT       0.417000       1.00800           0
    104080 TIP3     31388    TIP3     H2       HT       0.417000       1.00800           0
    104081 TIP3     31389    TIP3     OH2      OT      -0.834000       15.9994           0
    104082 TIP3     31389    TIP3     H1       HT       0.417000       1.00800           0
    104083 TIP3     31389    TIP3     H2       HT       0.417000       1.00800           0
    104084 TIP3     31390    TIP3     OH2      OT      -0.834000       15.9994           0
    104085 TIP3     31390    TIP3     H1       HT       0.417000       1.00800           0
    104086 TIP3     31390    TIP3     H2       HT       0.417000       1.00800           0
    104087 TIP3     31391    TIP3     OH2      OT      -0.834000       15.9994           0
    104088 TIP3     31391    TIP3     H1       HT       0.417000       1.00800           0
    104089 TIP3     31391    TIP3     H2       HT       0.417000       1.00800           0
    104090 TIP3     31392    TIP3     OH2      OT      -0.834000       15.9994           0
    104091 TIP3     31392    TIP3     H1       HT       0.417000       1.00800           0
    104092 TIP3     31392    TIP3     H2       HT       0.417000       1.00800           0
    104093 TIP3     31393    TIP3     OH2      OT      -0.834000       15.9994           0
    104094 TIP3     31393    TIP3     H1       HT       0.417000       1.00800           0
    104095 TIP3     31393    TIP3     H2       HT       0.417000       1.00800           0
    104096 TIP3     31394    TIP3     OH2      OT      -0.834000       15.9994           0
    104097 TIP3     31394    TIP3     H1       HT       0.417000       1.00800           0
    104098 TIP3     31394    TIP3     H2       HT       0.417000       1.00800           0
    104099 TIP3     31395    TIP3     OH2      OT      -0.834000       15.9994           0
    104100 TIP3     31395    TIP3     H1       HT       0.417000       1.00800           0
    104101 TIP3     31395    TIP3     H2       HT       0.417000       1.00800           0
    104102 TIP3     31396    TIP3     OH2      OT      -0.834000       15.9994           0
    104103 TIP3     31396    TIP3     H1       HT       0.417000       1.00800           0
    104104 TIP3     31396    TIP3     H2       HT       0.417000       1.00800           0
    104105 TIP3     31397    TIP3     OH2      OT      -0.834000       15.9994           0
    104106 TIP3     31397    TIP3     H1       HT       0.417000       1.00800           0
    104107 TIP3     31397    TIP3     H2       HT       0.417000       1.00800           0
    104108 TIP3     31398    TIP3     OH2      OT      -0.834000       15.9994           0
    104109 TIP3     31398    TIP3     H1       HT       0.417000       1.00800           0
    104110 TIP3     31398    TIP3     H2       HT       0.417000       1.00800           0
    104111 TIP3     31399    TIP3     OH2      OT      -0.834000       15.9994           0
    104112 TIP3     31399    TIP3     H1       HT       0.417000       1.00800           0
    104113 TIP3     31399    TIP3     H2       HT       0.417000       1.00800           0
    104114 TIP3     31400    TIP3     OH2      OT      -0.834000       15.9994           0
    104115 TIP3     31400    TIP3     H1       HT       0.417000       1.00800           0
    104116 TIP3     31400    TIP3     H2       HT       0.417000       1.00800           0
    104117 TIP3     31401    TIP3     OH2      OT      -0.834000       15.9994           0
    104118 TIP3     31401    TIP3     H1       HT       0.417000       1.00800           0
    104119 TIP3     31401    TIP3     H2       HT       0.417000       1.00800           0
    104120 TIP3     31402    TIP3     OH2      OT      -0.834000       15.9994           0
    104121 TIP3     31402    TIP3     H1       HT       0.417000       1.00800           0
    104122 TIP3     31402    TIP3     H2       HT       0.417000       1.00800           0
    104123 TIP3     31403    TIP3     OH2      OT      -0.834000       15.9994           0
    104124 TIP3     31403    TIP3     H1       HT       0.417000       1.00800           0
    104125 TIP3     31403    TIP3     H2       HT       0.417000       1.00800           0
    104126 TIP3     31404    TIP3     OH2      OT      -0.834000       15.9994           0
    104127 TIP3     31404    TIP3     H1       HT       0.417000       1.00800           0
    104128 TIP3     31404    TIP3     H2       HT       0.417000       1.00800           0
    104129 TIP3     31405    TIP3     OH2      OT      -0.834000       15.9994           0
    104130 TIP3     31405    TIP3     H1       HT       0.417000       1.00800           0
    104131 TIP3     31405    TIP3     H2       HT       0.417000       1.00800           0
    104132 TIP3     31406    TIP3     OH2      OT      -0.834000       15.9994           0
    104133 TIP3     31406    TIP3     H1       HT       0.417000       1.00800           0
    104134 TIP3     31406    TIP3     H2       HT       0.417000       1.00800           0
    104135 TIP3     31407    TIP3     OH2      OT      -0.834000       15.9994           0
    104136 TIP3     31407    TIP3     H1       HT       0.417000       1.00800           0
    104137 TIP3     31407    TIP3     H2       HT       0.417000       1.00800           0
    104138 TIP3     31408    TIP3     OH2      OT      -0.834000       15.9994           0
    104139 TIP3     31408    TIP3     H1       HT       0.417000       1.00800           0
    104140 TIP3     31408    TIP3     H2       HT       0.417000       1.00800           0
    104141 TIP3     31409    TIP3     OH2      OT      -0.834000       15.9994           0
    104142 TIP3     31409    TIP3     H1       HT       0.417000       1.00800           0
    104143 TIP3     31409    TIP3     H2       HT       0.417000       1.00800           0
    104144 TIP3     31410    TIP3     OH2      OT      -0.834000       15.9994           0
    104145 TIP3     31410    TIP3     H1       HT       0.417000       1.00800           0
    104146 TIP3     31410    TIP3     H2       HT       0.417000       1.00800           0
    104147 TIP3     31411    TIP3     OH2      OT      -0.834000       15.9994           0
    104148 TIP3     31411    TIP3     H1       HT       0.417000       1.00800           0
    104149 TIP3     31411    TIP3     H2       HT       0.417000       1.00800           0
    104150 TIP3     31412    TIP3     OH2      OT      -0.834000       15.9994           0
    104151 TIP3     31412    TIP3     H1       HT       0.417000       1.00800           0
    104152 TIP3     31412    TIP3     H2       HT       0.417000       1.00800           0
    104153 TIP3     31413    TIP3     OH2      OT      -0.834000       15.9994           0
    104154 TIP3     31413    TIP3     H1       HT       0.417000       1.00800           0
    104155 TIP3     31413    TIP3     H2       HT       0.417000       1.00800           0
    104156 TIP3     31414    TIP3     OH2      OT      -0.834000       15.9994           0
    104157 TIP3     31414    TIP3     H1       HT       0.417000       1.00800           0
    104158 TIP3     31414    TIP3     H2       HT       0.417000       1.00800           0
    104159 TIP3     31415    TIP3     OH2      OT      -0.834000       15.9994           0
    104160 TIP3     31415    TIP3     H1       HT       0.417000       1.00800           0
    104161 TIP3     31415    TIP3     H2       HT       0.417000       1.00800           0
    104162 TIP3     31416    TIP3     OH2      OT      -0.834000       15.9994           0
    104163 TIP3     31416    TIP3     H1       HT       0.417000       1.00800           0
    104164 TIP3     31416    TIP3     H2       HT       0.417000       1.00800           0
    104165 TIP3     31417    TIP3     OH2      OT      -0.834000       15.9994           0
    104166 TIP3     31417    TIP3     H1       HT       0.417000       1.00800           0
    104167 TIP3     31417    TIP3     H2       HT       0.417000       1.00800           0
    104168 TIP3     31418    TIP3     OH2      OT      -0.834000       15.9994           0
    104169 TIP3     31418    TIP3     H1       HT       0.417000       1.00800           0
    104170 TIP3     31418    TIP3     H2       HT       0.417000       1.00800           0
    104171 TIP3     31419    TIP3     OH2      OT      -0.834000       15.9994           0
    104172 TIP3     31419    TIP3     H1       HT       0.417000       1.00800           0
    104173 TIP3     31419    TIP3     H2       HT       0.417000       1.00800           0
    104174 TIP3     31420    TIP3     OH2      OT      -0.834000       15.9994           0
    104175 TIP3     31420    TIP3     H1       HT       0.417000       1.00800           0
    104176 TIP3     31420    TIP3     H2       HT       0.417000       1.00800           0
    104177 TIP3     31421    TIP3     OH2      OT      -0.834000       15.9994           0
    104178 TIP3     31421    TIP3     H1       HT       0.417000       1.00800           0
    104179 TIP3     31421    TIP3     H2       HT       0.417000       1.00800           0
    104180 TIP3     31422    TIP3     OH2      OT      -0.834000       15.9994           0
    104181 TIP3     31422    TIP3     H1       HT       0.417000       1.00800           0
    104182 TIP3     31422    TIP3     H2       HT       0.417000       1.00800           0
    104183 TIP3     31423    TIP3     OH2      OT      -0.834000       15.9994           0
    104184 TIP3     31423    TIP3     H1       HT       0.417000       1.00800           0
    104185 TIP3     31423    TIP3     H2       HT       0.417000       1.00800           0
    104186 TIP3     31424    TIP3     OH2      OT      -0.834000       15.9994           0
    104187 TIP3     31424    TIP3     H1       HT       0.417000       1.00800           0
    104188 TIP3     31424    TIP3     H2       HT       0.417000       1.00800           0
    104189 TIP3     31425    TIP3     OH2      OT      -0.834000       15.9994           0
    104190 TIP3     31425    TIP3     H1       HT       0.417000       1.00800           0
    104191 TIP3     31425    TIP3     H2       HT       0.417000       1.00800           0
    104192 TIP3     31426    TIP3     OH2      OT      -0.834000       15.9994           0
    104193 TIP3     31426    TIP3     H1       HT       0.417000       1.00800           0
    104194 TIP3     31426    TIP3     H2       HT       0.417000       1.00800           0
    104195 TIP3     31427    TIP3     OH2      OT      -0.834000       15.9994           0
    104196 TIP3     31427    TIP3     H1       HT       0.417000       1.00800           0
    104197 TIP3     31427    TIP3     H2       HT       0.417000       1.00800           0
    104198 TIP3     31428    TIP3     OH2      OT      -0.834000       15.9994           0
    104199 TIP3     31428    TIP3     H1       HT       0.417000       1.00800           0
    104200 TIP3     31428    TIP3     H2       HT       0.417000       1.00800           0
    104201 TIP3     31429    TIP3     OH2      OT      -0.834000       15.9994           0
    104202 TIP3     31429    TIP3     H1       HT       0.417000       1.00800           0
    104203 TIP3     31429    TIP3     H2       HT       0.417000       1.00800           0
    104204 TIP3     31430    TIP3     OH2      OT      -0.834000       15.9994           0
    104205 TIP3     31430    TIP3     H1       HT       0.417000       1.00800           0
    104206 TIP3     31430    TIP3     H2       HT       0.417000       1.00800           0
    104207 TIP3     31431    TIP3     OH2      OT      -0.834000       15.9994           0
    104208 TIP3     31431    TIP3     H1       HT       0.417000       1.00800           0
    104209 TIP3     31431    TIP3     H2       HT       0.417000       1.00800           0
    104210 TIP3     31432    TIP3     OH2      OT      -0.834000       15.9994           0
    104211 TIP3     31432    TIP3     H1       HT       0.417000       1.00800           0
    104212 TIP3     31432    TIP3     H2       HT       0.417000       1.00800           0
    104213 TIP3     31433    TIP3     OH2      OT      -0.834000       15.9994           0
    104214 TIP3     31433    TIP3     H1       HT       0.417000       1.00800           0
    104215 TIP3     31433    TIP3     H2       HT       0.417000       1.00800           0
    104216 TIP3     31434    TIP3     OH2      OT      -0.834000       15.9994           0
    104217 TIP3     31434    TIP3     H1       HT       0.417000       1.00800           0
    104218 TIP3     31434    TIP3     H2       HT       0.417000       1.00800           0
    104219 TIP3     31435    TIP3     OH2      OT      -0.834000       15.9994           0
    104220 TIP3     31435    TIP3     H1       HT       0.417000       1.00800           0
    104221 TIP3     31435    TIP3     H2       HT       0.417000       1.00800           0
    104222 TIP3     31436    TIP3     OH2      OT      -0.834000       15.9994           0
    104223 TIP3     31436    TIP3     H1       HT       0.417000       1.00800           0
    104224 TIP3     31436    TIP3     H2       HT       0.417000       1.00800           0
    104225 TIP3     31437    TIP3     OH2      OT      -0.834000       15.9994           0
    104226 TIP3     31437    TIP3     H1       HT       0.417000       1.00800           0
    104227 TIP3     31437    TIP3     H2       HT       0.417000       1.00800           0
    104228 TIP3     31438    TIP3     OH2      OT      -0.834000       15.9994           0
    104229 TIP3     31438    TIP3     H1       HT       0.417000       1.00800           0
    104230 TIP3     31438    TIP3     H2       HT       0.417000       1.00800           0
    104231 TIP3     31439    TIP3     OH2      OT      -0.834000       15.9994           0
    104232 TIP3     31439    TIP3     H1       HT       0.417000       1.00800           0
    104233 TIP3     31439    TIP3     H2       HT       0.417000       1.00800           0
    104234 TIP3     31440    TIP3     OH2      OT      -0.834000       15.9994           0
    104235 TIP3     31440    TIP3     H1       HT       0.417000       1.00800           0
    104236 TIP3     31440    TIP3     H2       HT       0.417000       1.00800           0
    104237 TIP3     31441    TIP3     OH2      OT      -0.834000       15.9994           0
    104238 TIP3     31441    TIP3     H1       HT       0.417000       1.00800           0
    104239 TIP3     31441    TIP3     H2       HT       0.417000       1.00800           0
    104240 TIP3     31442    TIP3     OH2      OT      -0.834000       15.9994           0
    104241 TIP3     31442    TIP3     H1       HT       0.417000       1.00800           0
    104242 TIP3     31442    TIP3     H2       HT       0.417000       1.00800           0
    104243 TIP3     31443    TIP3     OH2      OT      -0.834000       15.9994           0
    104244 TIP3     31443    TIP3     H1       HT       0.417000       1.00800           0
    104245 TIP3     31443    TIP3     H2       HT       0.417000       1.00800           0
    104246 TIP3     31444    TIP3     OH2      OT      -0.834000       15.9994           0
    104247 TIP3     31444    TIP3     H1       HT       0.417000       1.00800           0
    104248 TIP3     31444    TIP3     H2       HT       0.417000       1.00800           0
    104249 TIP3     31445    TIP3     OH2      OT      -0.834000       15.9994           0
    104250 TIP3     31445    TIP3     H1       HT       0.417000       1.00800           0
    104251 TIP3     31445    TIP3     H2       HT       0.417000       1.00800           0
    104252 TIP3     31446    TIP3     OH2      OT      -0.834000       15.9994           0
    104253 TIP3     31446    TIP3     H1       HT       0.417000       1.00800           0
    104254 TIP3     31446    TIP3     H2       HT       0.417000       1.00800           0
    104255 TIP3     31447    TIP3     OH2      OT      -0.834000       15.9994           0
    104256 TIP3     31447    TIP3     H1       HT       0.417000       1.00800           0
    104257 TIP3     31447    TIP3     H2       HT       0.417000       1.00800           0
    104258 TIP3     31448    TIP3     OH2      OT      -0.834000       15.9994           0
    104259 TIP3     31448    TIP3     H1       HT       0.417000       1.00800           0
    104260 TIP3     31448    TIP3     H2       HT       0.417000       1.00800           0
    104261 TIP3     31449    TIP3     OH2      OT      -0.834000       15.9994           0
    104262 TIP3     31449    TIP3     H1       HT       0.417000       1.00800           0
    104263 TIP3     31449    TIP3     H2       HT       0.417000       1.00800           0
    104264 TIP3     31450    TIP3     OH2      OT      -0.834000       15.9994           0
    104265 TIP3     31450    TIP3     H1       HT       0.417000       1.00800           0
    104266 TIP3     31450    TIP3     H2       HT       0.417000       1.00800           0
    104267 TIP3     31451    TIP3     OH2      OT      -0.834000       15.9994           0
    104268 TIP3     31451    TIP3     H1       HT       0.417000       1.00800           0
    104269 TIP3     31451    TIP3     H2       HT       0.417000       1.00800           0
    104270 TIP3     31452    TIP3     OH2      OT      -0.834000       15.9994           0
    104271 TIP3     31452    TIP3     H1       HT       0.417000       1.00800           0
    104272 TIP3     31452    TIP3     H2       HT       0.417000       1.00800           0
    104273 TIP3     31453    TIP3     OH2      OT      -0.834000       15.9994           0
    104274 TIP3     31453    TIP3     H1       HT       0.417000       1.00800           0
    104275 TIP3     31453    TIP3     H2       HT       0.417000       1.00800           0
    104276 TIP3     31454    TIP3     OH2      OT      -0.834000       15.9994           0
    104277 TIP3     31454    TIP3     H1       HT       0.417000       1.00800           0
    104278 TIP3     31454    TIP3     H2       HT       0.417000       1.00800           0
    104279 TIP3     31455    TIP3     OH2      OT      -0.834000       15.9994           0
    104280 TIP3     31455    TIP3     H1       HT       0.417000       1.00800           0
    104281 TIP3     31455    TIP3     H2       HT       0.417000       1.00800           0
    104282 TIP3     31456    TIP3     OH2      OT      -0.834000       15.9994           0
    104283 TIP3     31456    TIP3     H1       HT       0.417000       1.00800           0
    104284 TIP3     31456    TIP3     H2       HT       0.417000       1.00800           0
    104285 TIP3     31457    TIP3     OH2      OT      -0.834000       15.9994           0
    104286 TIP3     31457    TIP3     H1       HT       0.417000       1.00800           0
    104287 TIP3     31457    TIP3     H2       HT       0.417000       1.00800           0
    104288 TIP3     31458    TIP3     OH2      OT      -0.834000       15.9994           0
    104289 TIP3     31458    TIP3     H1       HT       0.417000       1.00800           0
    104290 TIP3     31458    TIP3     H2       HT       0.417000       1.00800           0
    104291 TIP3     31459    TIP3     OH2      OT      -0.834000       15.9994           0
    104292 TIP3     31459    TIP3     H1       HT       0.417000       1.00800           0
    104293 TIP3     31459    TIP3     H2       HT       0.417000       1.00800           0
    104294 TIP3     31460    TIP3     OH2      OT      -0.834000       15.9994           0
    104295 TIP3     31460    TIP3     H1       HT       0.417000       1.00800           0
    104296 TIP3     31460    TIP3     H2       HT       0.417000       1.00800           0
    104297 TIP3     31461    TIP3     OH2      OT      -0.834000       15.9994           0
    104298 TIP3     31461    TIP3     H1       HT       0.417000       1.00800           0
    104299 TIP3     31461    TIP3     H2       HT       0.417000       1.00800           0
    104300 TIP3     31462    TIP3     OH2      OT      -0.834000       15.9994           0
    104301 TIP3     31462    TIP3     H1       HT       0.417000       1.00800           0
    104302 TIP3     31462    TIP3     H2       HT       0.417000       1.00800           0
    104303 TIP3     31463    TIP3     OH2      OT      -0.834000       15.9994           0
    104304 TIP3     31463    TIP3     H1       HT       0.417000       1.00800           0
    104305 TIP3     31463    TIP3     H2       HT       0.417000       1.00800           0
    104306 TIP3     31464    TIP3     OH2      OT      -0.834000       15.9994           0
    104307 TIP3     31464    TIP3     H1       HT       0.417000       1.00800           0
    104308 TIP3     31464    TIP3     H2       HT       0.417000       1.00800           0
    104309 TIP3     31465    TIP3     OH2      OT      -0.834000       15.9994           0
    104310 TIP3     31465    TIP3     H1       HT       0.417000       1.00800           0
    104311 TIP3     31465    TIP3     H2       HT       0.417000       1.00800           0
    104312 TIP3     31466    TIP3     OH2      OT      -0.834000       15.9994           0
    104313 TIP3     31466    TIP3     H1       HT       0.417000       1.00800           0
    104314 TIP3     31466    TIP3     H2       HT       0.417000       1.00800           0
    104315 TIP3     31467    TIP3     OH2      OT      -0.834000       15.9994           0
    104316 TIP3     31467    TIP3     H1       HT       0.417000       1.00800           0
    104317 TIP3     31467    TIP3     H2       HT       0.417000       1.00800           0
    104318 TIP3     31468    TIP3     OH2      OT      -0.834000       15.9994           0
    104319 TIP3     31468    TIP3     H1       HT       0.417000       1.00800           0
    104320 TIP3     31468    TIP3     H2       HT       0.417000       1.00800           0
    104321 TIP3     31469    TIP3     OH2      OT      -0.834000       15.9994           0
    104322 TIP3     31469    TIP3     H1       HT       0.417000       1.00800           0
    104323 TIP3     31469    TIP3     H2       HT       0.417000       1.00800           0
    104324 TIP3     31470    TIP3     OH2      OT      -0.834000       15.9994           0
    104325 TIP3     31470    TIP3     H1       HT       0.417000       1.00800           0
    104326 TIP3     31470    TIP3     H2       HT       0.417000       1.00800           0
    104327 TIP3     31471    TIP3     OH2      OT      -0.834000       15.9994           0
    104328 TIP3     31471    TIP3     H1       HT       0.417000       1.00800           0
    104329 TIP3     31471    TIP3     H2       HT       0.417000       1.00800           0
    104330 TIP3     31472    TIP3     OH2      OT      -0.834000       15.9994           0
    104331 TIP3     31472    TIP3     H1       HT       0.417000       1.00800           0
    104332 TIP3     31472    TIP3     H2       HT       0.417000       1.00800           0
    104333 TIP3     31473    TIP3     OH2      OT      -0.834000       15.9994           0
    104334 TIP3     31473    TIP3     H1       HT       0.417000       1.00800           0
    104335 TIP3     31473    TIP3     H2       HT       0.417000       1.00800           0
    104336 TIP3     31474    TIP3     OH2      OT      -0.834000       15.9994           0
    104337 TIP3     31474    TIP3     H1       HT       0.417000       1.00800           0
    104338 TIP3     31474    TIP3     H2       HT       0.417000       1.00800           0
    104339 TIP3     31475    TIP3     OH2      OT      -0.834000       15.9994           0
    104340 TIP3     31475    TIP3     H1       HT       0.417000       1.00800           0
    104341 TIP3     31475    TIP3     H2       HT       0.417000       1.00800           0
    104342 TIP3     31476    TIP3     OH2      OT      -0.834000       15.9994           0
    104343 TIP3     31476    TIP3     H1       HT       0.417000       1.00800           0
    104344 TIP3     31476    TIP3     H2       HT       0.417000       1.00800           0
    104345 TIP3     31477    TIP3     OH2      OT      -0.834000       15.9994           0
    104346 TIP3     31477    TIP3     H1       HT       0.417000       1.00800           0
    104347 TIP3     31477    TIP3     H2       HT       0.417000       1.00800           0
    104348 TIP3     31478    TIP3     OH2      OT      -0.834000       15.9994           0
    104349 TIP3     31478    TIP3     H1       HT       0.417000       1.00800           0
    104350 TIP3     31478    TIP3     H2       HT       0.417000       1.00800           0
    104351 TIP3     31479    TIP3     OH2      OT      -0.834000       15.9994           0
    104352 TIP3     31479    TIP3     H1       HT       0.417000       1.00800           0
    104353 TIP3     31479    TIP3     H2       HT       0.417000       1.00800           0
    104354 TIP3     31480    TIP3     OH2      OT      -0.834000       15.9994           0
    104355 TIP3     31480    TIP3     H1       HT       0.417000       1.00800           0
    104356 TIP3     31480    TIP3     H2       HT       0.417000       1.00800           0
    104357 TIP3     31481    TIP3     OH2      OT      -0.834000       15.9994           0
    104358 TIP3     31481    TIP3     H1       HT       0.417000       1.00800           0
    104359 TIP3     31481    TIP3     H2       HT       0.417000       1.00800           0
    104360 TIP3     31482    TIP3     OH2      OT      -0.834000       15.9994           0
    104361 TIP3     31482    TIP3     H1       HT       0.417000       1.00800           0
    104362 TIP3     31482    TIP3     H2       HT       0.417000       1.00800           0
    104363 TIP3     31483    TIP3     OH2      OT      -0.834000       15.9994           0
    104364 TIP3     31483    TIP3     H1       HT       0.417000       1.00800           0
    104365 TIP3     31483    TIP3     H2       HT       0.417000       1.00800           0
    104366 TIP3     31484    TIP3     OH2      OT      -0.834000       15.9994           0
    104367 TIP3     31484    TIP3     H1       HT       0.417000       1.00800           0
    104368 TIP3     31484    TIP3     H2       HT       0.417000       1.00800           0
    104369 TIP3     31485    TIP3     OH2      OT      -0.834000       15.9994           0
    104370 TIP3     31485    TIP3     H1       HT       0.417000       1.00800           0
    104371 TIP3     31485    TIP3     H2       HT       0.417000       1.00800           0
    104372 TIP3     31486    TIP3     OH2      OT      -0.834000       15.9994           0
    104373 TIP3     31486    TIP3     H1       HT       0.417000       1.00800           0
    104374 TIP3     31486    TIP3     H2       HT       0.417000       1.00800           0
    104375 TIP3     31487    TIP3     OH2      OT      -0.834000       15.9994           0
    104376 TIP3     31487    TIP3     H1       HT       0.417000       1.00800           0
    104377 TIP3     31487    TIP3     H2       HT       0.417000       1.00800           0
    104378 TIP3     31488    TIP3     OH2      OT      -0.834000       15.9994           0
    104379 TIP3     31488    TIP3     H1       HT       0.417000       1.00800           0
    104380 TIP3     31488    TIP3     H2       HT       0.417000       1.00800           0
    104381 TIP3     31489    TIP3     OH2      OT      -0.834000       15.9994           0
    104382 TIP3     31489    TIP3     H1       HT       0.417000       1.00800           0
    104383 TIP3     31489    TIP3     H2       HT       0.417000       1.00800           0
    104384 TIP3     31490    TIP3     OH2      OT      -0.834000       15.9994           0
    104385 TIP3     31490    TIP3     H1       HT       0.417000       1.00800           0
    104386 TIP3     31490    TIP3     H2       HT       0.417000       1.00800           0
    104387 TIP3     31491    TIP3     OH2      OT      -0.834000       15.9994           0
    104388 TIP3     31491    TIP3     H1       HT       0.417000       1.00800           0
    104389 TIP3     31491    TIP3     H2       HT       0.417000       1.00800           0
    104390 TIP3     31492    TIP3     OH2      OT      -0.834000       15.9994           0
    104391 TIP3     31492    TIP3     H1       HT       0.417000       1.00800           0
    104392 TIP3     31492    TIP3     H2       HT       0.417000       1.00800           0
    104393 TIP3     31493    TIP3     OH2      OT      -0.834000       15.9994           0
    104394 TIP3     31493    TIP3     H1       HT       0.417000       1.00800           0
    104395 TIP3     31493    TIP3     H2       HT       0.417000       1.00800           0
    104396 TIP3     31494    TIP3     OH2      OT      -0.834000       15.9994           0
    104397 TIP3     31494    TIP3     H1       HT       0.417000       1.00800           0
    104398 TIP3     31494    TIP3     H2       HT       0.417000       1.00800           0
    104399 TIP3     31495    TIP3     OH2      OT      -0.834000       15.9994           0
    104400 TIP3     31495    TIP3     H1       HT       0.417000       1.00800           0
    104401 TIP3     31495    TIP3     H2       HT       0.417000       1.00800           0
    104402 TIP3     31496    TIP3     OH2      OT      -0.834000       15.9994           0
    104403 TIP3     31496    TIP3     H1       HT       0.417000       1.00800           0
    104404 TIP3     31496    TIP3     H2       HT       0.417000       1.00800           0
    104405 TIP3     31497    TIP3     OH2      OT      -0.834000       15.9994           0
    104406 TIP3     31497    TIP3     H1       HT       0.417000       1.00800           0
    104407 TIP3     31497    TIP3     H2       HT       0.417000       1.00800           0
    104408 TIP3     31498    TIP3     OH2      OT      -0.834000       15.9994           0
    104409 TIP3     31498    TIP3     H1       HT       0.417000       1.00800           0
    104410 TIP3     31498    TIP3     H2       HT       0.417000       1.00800           0
    104411 TIP3     31499    TIP3     OH2      OT      -0.834000       15.9994           0
    104412 TIP3     31499    TIP3     H1       HT       0.417000       1.00800           0
    104413 TIP3     31499    TIP3     H2       HT       0.417000       1.00800           0
    104414 TIP3     31500    TIP3     OH2      OT      -0.834000       15.9994           0
    104415 TIP3     31500    TIP3     H1       HT       0.417000       1.00800           0
    104416 TIP3     31500    TIP3     H2       HT       0.417000       1.00800           0
    104417 TIP3     31501    TIP3     OH2      OT      -0.834000       15.9994           0
    104418 TIP3     31501    TIP3     H1       HT       0.417000       1.00800           0
    104419 TIP3     31501    TIP3     H2       HT       0.417000       1.00800           0
    104420 TIP3     31502    TIP3     OH2      OT      -0.834000       15.9994           0
    104421 TIP3     31502    TIP3     H1       HT       0.417000       1.00800           0
    104422 TIP3     31502    TIP3     H2       HT       0.417000       1.00800           0
    104423 TIP3     31503    TIP3     OH2      OT      -0.834000       15.9994           0
    104424 TIP3     31503    TIP3     H1       HT       0.417000       1.00800           0
    104425 TIP3     31503    TIP3     H2       HT       0.417000       1.00800           0
    104426 TIP3     31504    TIP3     OH2      OT      -0.834000       15.9994           0
    104427 TIP3     31504    TIP3     H1       HT       0.417000       1.00800           0
    104428 TIP3     31504    TIP3     H2       HT       0.417000       1.00800           0
    104429 TIP3     31505    TIP3     OH2      OT      -0.834000       15.9994           0
    104430 TIP3     31505    TIP3     H1       HT       0.417000       1.00800           0
    104431 TIP3     31505    TIP3     H2       HT       0.417000       1.00800           0
    104432 TIP3     31506    TIP3     OH2      OT      -0.834000       15.9994           0
    104433 TIP3     31506    TIP3     H1       HT       0.417000       1.00800           0
    104434 TIP3     31506    TIP3     H2       HT       0.417000       1.00800           0
    104435 TIP3     31507    TIP3     OH2      OT      -0.834000       15.9994           0
    104436 TIP3     31507    TIP3     H1       HT       0.417000       1.00800           0
    104437 TIP3     31507    TIP3     H2       HT       0.417000       1.00800           0
    104438 TIP3     31508    TIP3     OH2      OT      -0.834000       15.9994           0
    104439 TIP3     31508    TIP3     H1       HT       0.417000       1.00800           0
    104440 TIP3     31508    TIP3     H2       HT       0.417000       1.00800           0
    104441 TIP3     31509    TIP3     OH2      OT      -0.834000       15.9994           0
    104442 TIP3     31509    TIP3     H1       HT       0.417000       1.00800           0
    104443 TIP3     31509    TIP3     H2       HT       0.417000       1.00800           0
    104444 TIP3     31510    TIP3     OH2      OT      -0.834000       15.9994           0
    104445 TIP3     31510    TIP3     H1       HT       0.417000       1.00800           0
    104446 TIP3     31510    TIP3     H2       HT       0.417000       1.00800           0
    104447 TIP3     31511    TIP3     OH2      OT      -0.834000       15.9994           0
    104448 TIP3     31511    TIP3     H1       HT       0.417000       1.00800           0
    104449 TIP3     31511    TIP3     H2       HT       0.417000       1.00800           0
    104450 TIP3     31512    TIP3     OH2      OT      -0.834000       15.9994           0
    104451 TIP3     31512    TIP3     H1       HT       0.417000       1.00800           0
    104452 TIP3     31512    TIP3     H2       HT       0.417000       1.00800           0
    104453 TIP3     31513    TIP3     OH2      OT      -0.834000       15.9994           0
    104454 TIP3     31513    TIP3     H1       HT       0.417000       1.00800           0
    104455 TIP3     31513    TIP3     H2       HT       0.417000       1.00800           0
    104456 TIP3     31514    TIP3     OH2      OT      -0.834000       15.9994           0
    104457 TIP3     31514    TIP3     H1       HT       0.417000       1.00800           0
    104458 TIP3     31514    TIP3     H2       HT       0.417000       1.00800           0
    104459 TIP3     31515    TIP3     OH2      OT      -0.834000       15.9994           0
    104460 TIP3     31515    TIP3     H1       HT       0.417000       1.00800           0
    104461 TIP3     31515    TIP3     H2       HT       0.417000       1.00800           0
    104462 TIP3     31516    TIP3     OH2      OT      -0.834000       15.9994           0
    104463 TIP3     31516    TIP3     H1       HT       0.417000       1.00800           0
    104464 TIP3     31516    TIP3     H2       HT       0.417000       1.00800           0
    104465 TIP3     31517    TIP3     OH2      OT      -0.834000       15.9994           0
    104466 TIP3     31517    TIP3     H1       HT       0.417000       1.00800           0
    104467 TIP3     31517    TIP3     H2       HT       0.417000       1.00800           0
    104468 TIP3     31518    TIP3     OH2      OT      -0.834000       15.9994           0
    104469 TIP3     31518    TIP3     H1       HT       0.417000       1.00800           0
    104470 TIP3     31518    TIP3     H2       HT       0.417000       1.00800           0
    104471 TIP3     31519    TIP3     OH2      OT      -0.834000       15.9994           0
    104472 TIP3     31519    TIP3     H1       HT       0.417000       1.00800           0
    104473 TIP3     31519    TIP3     H2       HT       0.417000       1.00800           0
    104474 TIP3     31520    TIP3     OH2      OT      -0.834000       15.9994           0
    104475 TIP3     31520    TIP3     H1       HT       0.417000       1.00800           0
    104476 TIP3     31520    TIP3     H2       HT       0.417000       1.00800           0
    104477 TIP3     31521    TIP3     OH2      OT      -0.834000       15.9994           0
    104478 TIP3     31521    TIP3     H1       HT       0.417000       1.00800           0
    104479 TIP3     31521    TIP3     H2       HT       0.417000       1.00800           0
    104480 TIP3     31522    TIP3     OH2      OT      -0.834000       15.9994           0
    104481 TIP3     31522    TIP3     H1       HT       0.417000       1.00800           0
    104482 TIP3     31522    TIP3     H2       HT       0.417000       1.00800           0
    104483 TIP3     31523    TIP3     OH2      OT      -0.834000       15.9994           0
    104484 TIP3     31523    TIP3     H1       HT       0.417000       1.00800           0
    104485 TIP3     31523    TIP3     H2       HT       0.417000       1.00800           0
    104486 TIP3     31524    TIP3     OH2      OT      -0.834000       15.9994           0
    104487 TIP3     31524    TIP3     H1       HT       0.417000       1.00800           0
    104488 TIP3     31524    TIP3     H2       HT       0.417000       1.00800           0
    104489 TIP3     31525    TIP3     OH2      OT      -0.834000       15.9994           0
    104490 TIP3     31525    TIP3     H1       HT       0.417000       1.00800           0
    104491 TIP3     31525    TIP3     H2       HT       0.417000       1.00800           0
    104492 TIP3     31526    TIP3     OH2      OT      -0.834000       15.9994           0
    104493 TIP3     31526    TIP3     H1       HT       0.417000       1.00800           0
    104494 TIP3     31526    TIP3     H2       HT       0.417000       1.00800           0
    104495 TIP3     31527    TIP3     OH2      OT      -0.834000       15.9994           0
    104496 TIP3     31527    TIP3     H1       HT       0.417000       1.00800           0
    104497 TIP3     31527    TIP3     H2       HT       0.417000       1.00800           0
    104498 TIP3     31528    TIP3     OH2      OT      -0.834000       15.9994           0
    104499 TIP3     31528    TIP3     H1       HT       0.417000       1.00800           0
    104500 TIP3     31528    TIP3     H2       HT       0.417000       1.00800           0
    104501 TIP3     31529    TIP3     OH2      OT      -0.834000       15.9994           0
    104502 TIP3     31529    TIP3     H1       HT       0.417000       1.00800           0
    104503 TIP3     31529    TIP3     H2       HT       0.417000       1.00800           0
    104504 TIP3     31530    TIP3     OH2      OT      -0.834000       15.9994           0
    104505 TIP3     31530    TIP3     H1       HT       0.417000       1.00800           0
    104506 TIP3     31530    TIP3     H2       HT       0.417000       1.00800           0
    104507 TIP3     31531    TIP3     OH2      OT      -0.834000       15.9994           0
    104508 TIP3     31531    TIP3     H1       HT       0.417000       1.00800           0
    104509 TIP3     31531    TIP3     H2       HT       0.417000       1.00800           0
    104510 TIP3     31532    TIP3     OH2      OT      -0.834000       15.9994           0
    104511 TIP3     31532    TIP3     H1       HT       0.417000       1.00800           0
    104512 TIP3     31532    TIP3     H2       HT       0.417000       1.00800           0
    104513 TIP3     31533    TIP3     OH2      OT      -0.834000       15.9994           0
    104514 TIP3     31533    TIP3     H1       HT       0.417000       1.00800           0
    104515 TIP3     31533    TIP3     H2       HT       0.417000       1.00800           0
    104516 TIP3     31534    TIP3     OH2      OT      -0.834000       15.9994           0
    104517 TIP3     31534    TIP3     H1       HT       0.417000       1.00800           0
    104518 TIP3     31534    TIP3     H2       HT       0.417000       1.00800           0
    104519 TIP3     31535    TIP3     OH2      OT      -0.834000       15.9994           0
    104520 TIP3     31535    TIP3     H1       HT       0.417000       1.00800           0
    104521 TIP3     31535    TIP3     H2       HT       0.417000       1.00800           0
    104522 TIP3     31536    TIP3     OH2      OT      -0.834000       15.9994           0
    104523 TIP3     31536    TIP3     H1       HT       0.417000       1.00800           0
    104524 TIP3     31536    TIP3     H2       HT       0.417000       1.00800           0
    104525 TIP3     31537    TIP3     OH2      OT      -0.834000       15.9994           0
    104526 TIP3     31537    TIP3     H1       HT       0.417000       1.00800           0
    104527 TIP3     31537    TIP3     H2       HT       0.417000       1.00800           0
    104528 TIP3     31538    TIP3     OH2      OT      -0.834000       15.9994           0
    104529 TIP3     31538    TIP3     H1       HT       0.417000       1.00800           0
    104530 TIP3     31538    TIP3     H2       HT       0.417000       1.00800           0
    104531 TIP3     31539    TIP3     OH2      OT      -0.834000       15.9994           0
    104532 TIP3     31539    TIP3     H1       HT       0.417000       1.00800           0
    104533 TIP3     31539    TIP3     H2       HT       0.417000       1.00800           0
    104534 TIP3     31540    TIP3     OH2      OT      -0.834000       15.9994           0
    104535 TIP3     31540    TIP3     H1       HT       0.417000       1.00800           0
    104536 TIP3     31540    TIP3     H2       HT       0.417000       1.00800           0
    104537 TIP3     31541    TIP3     OH2      OT      -0.834000       15.9994           0
    104538 TIP3     31541    TIP3     H1       HT       0.417000       1.00800           0
    104539 TIP3     31541    TIP3     H2       HT       0.417000       1.00800           0
    104540 TIP3     31542    TIP3     OH2      OT      -0.834000       15.9994           0
    104541 TIP3     31542    TIP3     H1       HT       0.417000       1.00800           0
    104542 TIP3     31542    TIP3     H2       HT       0.417000       1.00800           0
    104543 TIP3     31543    TIP3     OH2      OT      -0.834000       15.9994           0
    104544 TIP3     31543    TIP3     H1       HT       0.417000       1.00800           0
    104545 TIP3     31543    TIP3     H2       HT       0.417000       1.00800           0
    104546 TIP3     31544    TIP3     OH2      OT      -0.834000       15.9994           0
    104547 TIP3     31544    TIP3     H1       HT       0.417000       1.00800           0
    104548 TIP3     31544    TIP3     H2       HT       0.417000       1.00800           0
    104549 TIP3     31545    TIP3     OH2      OT      -0.834000       15.9994           0
    104550 TIP3     31545    TIP3     H1       HT       0.417000       1.00800           0
    104551 TIP3     31545    TIP3     H2       HT       0.417000       1.00800           0
    104552 TIP3     31546    TIP3     OH2      OT      -0.834000       15.9994           0
    104553 TIP3     31546    TIP3     H1       HT       0.417000       1.00800           0
    104554 TIP3     31546    TIP3     H2       HT       0.417000       1.00800           0
    104555 TIP3     31547    TIP3     OH2      OT      -0.834000       15.9994           0
    104556 TIP3     31547    TIP3     H1       HT       0.417000       1.00800           0
    104557 TIP3     31547    TIP3     H2       HT       0.417000       1.00800           0
    104558 TIP3     31548    TIP3     OH2      OT      -0.834000       15.9994           0
    104559 TIP3     31548    TIP3     H1       HT       0.417000       1.00800           0
    104560 TIP3     31548    TIP3     H2       HT       0.417000       1.00800           0
    104561 TIP3     31549    TIP3     OH2      OT      -0.834000       15.9994           0
    104562 TIP3     31549    TIP3     H1       HT       0.417000       1.00800           0
    104563 TIP3     31549    TIP3     H2       HT       0.417000       1.00800           0
    104564 TIP3     31550    TIP3     OH2      OT      -0.834000       15.9994           0
    104565 TIP3     31550    TIP3     H1       HT       0.417000       1.00800           0
    104566 TIP3     31550    TIP3     H2       HT       0.417000       1.00800           0
    104567 TIP3     31551    TIP3     OH2      OT      -0.834000       15.9994           0
    104568 TIP3     31551    TIP3     H1       HT       0.417000       1.00800           0
    104569 TIP3     31551    TIP3     H2       HT       0.417000       1.00800           0
    104570 TIP3     31552    TIP3     OH2      OT      -0.834000       15.9994           0
    104571 TIP3     31552    TIP3     H1       HT       0.417000       1.00800           0
    104572 TIP3     31552    TIP3     H2       HT       0.417000       1.00800           0
    104573 TIP3     31553    TIP3     OH2      OT      -0.834000       15.9994           0
    104574 TIP3     31553    TIP3     H1       HT       0.417000       1.00800           0
    104575 TIP3     31553    TIP3     H2       HT       0.417000       1.00800           0
    104576 TIP3     31554    TIP3     OH2      OT      -0.834000       15.9994           0
    104577 TIP3     31554    TIP3     H1       HT       0.417000       1.00800           0
    104578 TIP3     31554    TIP3     H2       HT       0.417000       1.00800           0
    104579 TIP3     31555    TIP3     OH2      OT      -0.834000       15.9994           0
    104580 TIP3     31555    TIP3     H1       HT       0.417000       1.00800           0
    104581 TIP3     31555    TIP3     H2       HT       0.417000       1.00800           0
    104582 TIP3     31556    TIP3     OH2      OT      -0.834000       15.9994           0
    104583 TIP3     31556    TIP3     H1       HT       0.417000       1.00800           0
    104584 TIP3     31556    TIP3     H2       HT       0.417000       1.00800           0
    104585 TIP3     31557    TIP3     OH2      OT      -0.834000       15.9994           0
    104586 TIP3     31557    TIP3     H1       HT       0.417000       1.00800           0
    104587 TIP3     31557    TIP3     H2       HT       0.417000       1.00800           0
    104588 TIP3     31558    TIP3     OH2      OT      -0.834000       15.9994           0
    104589 TIP3     31558    TIP3     H1       HT       0.417000       1.00800           0
    104590 TIP3     31558    TIP3     H2       HT       0.417000       1.00800           0
    104591 TIP3     31559    TIP3     OH2      OT      -0.834000       15.9994           0
    104592 TIP3     31559    TIP3     H1       HT       0.417000       1.00800           0
    104593 TIP3     31559    TIP3     H2       HT       0.417000       1.00800           0
    104594 TIP3     31560    TIP3     OH2      OT      -0.834000       15.9994           0
    104595 TIP3     31560    TIP3     H1       HT       0.417000       1.00800           0
    104596 TIP3     31560    TIP3     H2       HT       0.417000       1.00800           0
    104597 TIP3     31561    TIP3     OH2      OT      -0.834000       15.9994           0
    104598 TIP3     31561    TIP3     H1       HT       0.417000       1.00800           0
    104599 TIP3     31561    TIP3     H2       HT       0.417000       1.00800           0
    104600 TIP3     31562    TIP3     OH2      OT      -0.834000       15.9994           0
    104601 TIP3     31562    TIP3     H1       HT       0.417000       1.00800           0
    104602 TIP3     31562    TIP3     H2       HT       0.417000       1.00800           0
    104603 TIP3     31563    TIP3     OH2      OT      -0.834000       15.9994           0
    104604 TIP3     31563    TIP3     H1       HT       0.417000       1.00800           0
    104605 TIP3     31563    TIP3     H2       HT       0.417000       1.00800           0
    104606 TIP3     31564    TIP3     OH2      OT      -0.834000       15.9994           0
    104607 TIP3     31564    TIP3     H1       HT       0.417000       1.00800           0
    104608 TIP3     31564    TIP3     H2       HT       0.417000       1.00800           0
    104609 TIP3     31565    TIP3     OH2      OT      -0.834000       15.9994           0
    104610 TIP3     31565    TIP3     H1       HT       0.417000       1.00800           0
    104611 TIP3     31565    TIP3     H2       HT       0.417000       1.00800           0
    104612 TIP3     31566    TIP3     OH2      OT      -0.834000       15.9994           0
    104613 TIP3     31566    TIP3     H1       HT       0.417000       1.00800           0
    104614 TIP3     31566    TIP3     H2       HT       0.417000       1.00800           0
    104615 TIP3     31567    TIP3     OH2      OT      -0.834000       15.9994           0
    104616 TIP3     31567    TIP3     H1       HT       0.417000       1.00800           0
    104617 TIP3     31567    TIP3     H2       HT       0.417000       1.00800           0
    104618 TIP3     31568    TIP3     OH2      OT      -0.834000       15.9994           0
    104619 TIP3     31568    TIP3     H1       HT       0.417000       1.00800           0
    104620 TIP3     31568    TIP3     H2       HT       0.417000       1.00800           0
    104621 TIP3     31569    TIP3     OH2      OT      -0.834000       15.9994           0
    104622 TIP3     31569    TIP3     H1       HT       0.417000       1.00800           0
    104623 TIP3     31569    TIP3     H2       HT       0.417000       1.00800           0
    104624 TIP3     31570    TIP3     OH2      OT      -0.834000       15.9994           0
    104625 TIP3     31570    TIP3     H1       HT       0.417000       1.00800           0
    104626 TIP3     31570    TIP3     H2       HT       0.417000       1.00800           0
    104627 TIP3     31571    TIP3     OH2      OT      -0.834000       15.9994           0
    104628 TIP3     31571    TIP3     H1       HT       0.417000       1.00800           0
    104629 TIP3     31571    TIP3     H2       HT       0.417000       1.00800           0
    104630 TIP3     31572    TIP3     OH2      OT      -0.834000       15.9994           0
    104631 TIP3     31572    TIP3     H1       HT       0.417000       1.00800           0
    104632 TIP3     31572    TIP3     H2       HT       0.417000       1.00800           0
    104633 TIP3     31573    TIP3     OH2      OT      -0.834000       15.9994           0
    104634 TIP3     31573    TIP3     H1       HT       0.417000       1.00800           0
    104635 TIP3     31573    TIP3     H2       HT       0.417000       1.00800           0
    104636 TIP3     31574    TIP3     OH2      OT      -0.834000       15.9994           0
    104637 TIP3     31574    TIP3     H1       HT       0.417000       1.00800           0
    104638 TIP3     31574    TIP3     H2       HT       0.417000       1.00800           0
    104639 TIP3     31575    TIP3     OH2      OT      -0.834000       15.9994           0
    104640 TIP3     31575    TIP3     H1       HT       0.417000       1.00800           0
    104641 TIP3     31575    TIP3     H2       HT       0.417000       1.00800           0
    104642 TIP3     31576    TIP3     OH2      OT      -0.834000       15.9994           0
    104643 TIP3     31576    TIP3     H1       HT       0.417000       1.00800           0
    104644 TIP3     31576    TIP3     H2       HT       0.417000       1.00800           0
    104645 TIP3     31577    TIP3     OH2      OT      -0.834000       15.9994           0
    104646 TIP3     31577    TIP3     H1       HT       0.417000       1.00800           0
    104647 TIP3     31577    TIP3     H2       HT       0.417000       1.00800           0
    104648 TIP3     31578    TIP3     OH2      OT      -0.834000       15.9994           0
    104649 TIP3     31578    TIP3     H1       HT       0.417000       1.00800           0
    104650 TIP3     31578    TIP3     H2       HT       0.417000       1.00800           0
    104651 TIP3     31579    TIP3     OH2      OT      -0.834000       15.9994           0
    104652 TIP3     31579    TIP3     H1       HT       0.417000       1.00800           0
    104653 TIP3     31579    TIP3     H2       HT       0.417000       1.00800           0
    104654 TIP3     31580    TIP3     OH2      OT      -0.834000       15.9994           0
    104655 TIP3     31580    TIP3     H1       HT       0.417000       1.00800           0
    104656 TIP3     31580    TIP3     H2       HT       0.417000       1.00800           0
    104657 TIP3     31581    TIP3     OH2      OT      -0.834000       15.9994           0
    104658 TIP3     31581    TIP3     H1       HT       0.417000       1.00800           0
    104659 TIP3     31581    TIP3     H2       HT       0.417000       1.00800           0
    104660 TIP3     31582    TIP3     OH2      OT      -0.834000       15.9994           0
    104661 TIP3     31582    TIP3     H1       HT       0.417000       1.00800           0
    104662 TIP3     31582    TIP3     H2       HT       0.417000       1.00800           0
    104663 TIP3     31583    TIP3     OH2      OT      -0.834000       15.9994           0
    104664 TIP3     31583    TIP3     H1       HT       0.417000       1.00800           0
    104665 TIP3     31583    TIP3     H2       HT       0.417000       1.00800           0
    104666 TIP3     31584    TIP3     OH2      OT      -0.834000       15.9994           0
    104667 TIP3     31584    TIP3     H1       HT       0.417000       1.00800           0
    104668 TIP3     31584    TIP3     H2       HT       0.417000       1.00800           0
    104669 TIP3     31585    TIP3     OH2      OT      -0.834000       15.9994           0
    104670 TIP3     31585    TIP3     H1       HT       0.417000       1.00800           0
    104671 TIP3     31585    TIP3     H2       HT       0.417000       1.00800           0
    104672 TIP3     31586    TIP3     OH2      OT      -0.834000       15.9994           0
    104673 TIP3     31586    TIP3     H1       HT       0.417000       1.00800           0
    104674 TIP3     31586    TIP3     H2       HT       0.417000       1.00800           0
    104675 TIP3     31587    TIP3     OH2      OT      -0.834000       15.9994           0
    104676 TIP3     31587    TIP3     H1       HT       0.417000       1.00800           0
    104677 TIP3     31587    TIP3     H2       HT       0.417000       1.00800           0
    104678 TIP3     31588    TIP3     OH2      OT      -0.834000       15.9994           0
    104679 TIP3     31588    TIP3     H1       HT       0.417000       1.00800           0
    104680 TIP3     31588    TIP3     H2       HT       0.417000       1.00800           0
    104681 TIP3     31589    TIP3     OH2      OT      -0.834000       15.9994           0
    104682 TIP3     31589    TIP3     H1       HT       0.417000       1.00800           0
    104683 TIP3     31589    TIP3     H2       HT       0.417000       1.00800           0
    104684 TIP3     31590    TIP3     OH2      OT      -0.834000       15.9994           0
    104685 TIP3     31590    TIP3     H1       HT       0.417000       1.00800           0
    104686 TIP3     31590    TIP3     H2       HT       0.417000       1.00800           0
    104687 TIP3     31591    TIP3     OH2      OT      -0.834000       15.9994           0
    104688 TIP3     31591    TIP3     H1       HT       0.417000       1.00800           0
    104689 TIP3     31591    TIP3     H2       HT       0.417000       1.00800           0
    104690 TIP3     31592    TIP3     OH2      OT      -0.834000       15.9994           0
    104691 TIP3     31592    TIP3     H1       HT       0.417000       1.00800           0
    104692 TIP3     31592    TIP3     H2       HT       0.417000       1.00800           0
    104693 TIP3     31593    TIP3     OH2      OT      -0.834000       15.9994           0
    104694 TIP3     31593    TIP3     H1       HT       0.417000       1.00800           0
    104695 TIP3     31593    TIP3     H2       HT       0.417000       1.00800           0
    104696 TIP3     31594    TIP3     OH2      OT      -0.834000       15.9994           0
    104697 TIP3     31594    TIP3     H1       HT       0.417000       1.00800           0
    104698 TIP3     31594    TIP3     H2       HT       0.417000       1.00800           0
    104699 TIP3     31595    TIP3     OH2      OT      -0.834000       15.9994           0
    104700 TIP3     31595    TIP3     H1       HT       0.417000       1.00800           0
    104701 TIP3     31595    TIP3     H2       HT       0.417000       1.00800           0
    104702 TIP3     31596    TIP3     OH2      OT      -0.834000       15.9994           0
    104703 TIP3     31596    TIP3     H1       HT       0.417000       1.00800           0
    104704 TIP3     31596    TIP3     H2       HT       0.417000       1.00800           0
    104705 TIP3     31597    TIP3     OH2      OT      -0.834000       15.9994           0
    104706 TIP3     31597    TIP3     H1       HT       0.417000       1.00800           0
    104707 TIP3     31597    TIP3     H2       HT       0.417000       1.00800           0
    104708 TIP3     31598    TIP3     OH2      OT      -0.834000       15.9994           0
    104709 TIP3     31598    TIP3     H1       HT       0.417000       1.00800           0
    104710 TIP3     31598    TIP3     H2       HT       0.417000       1.00800           0
    104711 TIP3     31599    TIP3     OH2      OT      -0.834000       15.9994           0
    104712 TIP3     31599    TIP3     H1       HT       0.417000       1.00800           0
    104713 TIP3     31599    TIP3     H2       HT       0.417000       1.00800           0
    104714 TIP3     31600    TIP3     OH2      OT      -0.834000       15.9994           0
    104715 TIP3     31600    TIP3     H1       HT       0.417000       1.00800           0
    104716 TIP3     31600    TIP3     H2       HT       0.417000       1.00800           0
    104717 TIP3     31601    TIP3     OH2      OT      -0.834000       15.9994           0
    104718 TIP3     31601    TIP3     H1       HT       0.417000       1.00800           0
    104719 TIP3     31601    TIP3     H2       HT       0.417000       1.00800           0
    104720 TIP3     31602    TIP3     OH2      OT      -0.834000       15.9994           0
    104721 TIP3     31602    TIP3     H1       HT       0.417000       1.00800           0
    104722 TIP3     31602    TIP3     H2       HT       0.417000       1.00800           0
    104723 TIP3     31603    TIP3     OH2      OT      -0.834000       15.9994           0
    104724 TIP3     31603    TIP3     H1       HT       0.417000       1.00800           0
    104725 TIP3     31603    TIP3     H2       HT       0.417000       1.00800           0
    104726 TIP3     31604    TIP3     OH2      OT      -0.834000       15.9994           0
    104727 TIP3     31604    TIP3     H1       HT       0.417000       1.00800           0
    104728 TIP3     31604    TIP3     H2       HT       0.417000       1.00800           0
    104729 TIP3     31605    TIP3     OH2      OT      -0.834000       15.9994           0
    104730 TIP3     31605    TIP3     H1       HT       0.417000       1.00800           0
    104731 TIP3     31605    TIP3     H2       HT       0.417000       1.00800           0
    104732 TIP3     31606    TIP3     OH2      OT      -0.834000       15.9994           0
    104733 TIP3     31606    TIP3     H1       HT       0.417000       1.00800           0
    104734 TIP3     31606    TIP3     H2       HT       0.417000       1.00800           0
    104735 TIP3     31607    TIP3     OH2      OT      -0.834000       15.9994           0
    104736 TIP3     31607    TIP3     H1       HT       0.417000       1.00800           0
    104737 TIP3     31607    TIP3     H2       HT       0.417000       1.00800           0
    104738 TIP3     31608    TIP3     OH2      OT      -0.834000       15.9994           0
    104739 TIP3     31608    TIP3     H1       HT       0.417000       1.00800           0
    104740 TIP3     31608    TIP3     H2       HT       0.417000       1.00800           0
    104741 TIP3     31609    TIP3     OH2      OT      -0.834000       15.9994           0
    104742 TIP3     31609    TIP3     H1       HT       0.417000       1.00800           0
    104743 TIP3     31609    TIP3     H2       HT       0.417000       1.00800           0
    104744 TIP3     31610    TIP3     OH2      OT      -0.834000       15.9994           0
    104745 TIP3     31610    TIP3     H1       HT       0.417000       1.00800           0
    104746 TIP3     31610    TIP3     H2       HT       0.417000       1.00800           0
    104747 TIP3     31611    TIP3     OH2      OT      -0.834000       15.9994           0
    104748 TIP3     31611    TIP3     H1       HT       0.417000       1.00800           0
    104749 TIP3     31611    TIP3     H2       HT       0.417000       1.00800           0
    104750 TIP3     31612    TIP3     OH2      OT      -0.834000       15.9994           0
    104751 TIP3     31612    TIP3     H1       HT       0.417000       1.00800           0
    104752 TIP3     31612    TIP3     H2       HT       0.417000       1.00800           0
    104753 TIP3     31613    TIP3     OH2      OT      -0.834000       15.9994           0
    104754 TIP3     31613    TIP3     H1       HT       0.417000       1.00800           0
    104755 TIP3     31613    TIP3     H2       HT       0.417000       1.00800           0
    104756 TIP3     31614    TIP3     OH2      OT      -0.834000       15.9994           0
    104757 TIP3     31614    TIP3     H1       HT       0.417000       1.00800           0
    104758 TIP3     31614    TIP3     H2       HT       0.417000       1.00800           0
    104759 TIP3     31615    TIP3     OH2      OT      -0.834000       15.9994           0
    104760 TIP3     31615    TIP3     H1       HT       0.417000       1.00800           0
    104761 TIP3     31615    TIP3     H2       HT       0.417000       1.00800           0
    104762 TIP3     31616    TIP3     OH2      OT      -0.834000       15.9994           0
    104763 TIP3     31616    TIP3     H1       HT       0.417000       1.00800           0
    104764 TIP3     31616    TIP3     H2       HT       0.417000       1.00800           0
    104765 TIP3     31617    TIP3     OH2      OT      -0.834000       15.9994           0
    104766 TIP3     31617    TIP3     H1       HT       0.417000       1.00800           0
    104767 TIP3     31617    TIP3     H2       HT       0.417000       1.00800           0
    104768 TIP3     31618    TIP3     OH2      OT      -0.834000       15.9994           0
    104769 TIP3     31618    TIP3     H1       HT       0.417000       1.00800           0
    104770 TIP3     31618    TIP3     H2       HT       0.417000       1.00800           0
    104771 TIP3     31619    TIP3     OH2      OT      -0.834000       15.9994           0
    104772 TIP3     31619    TIP3     H1       HT       0.417000       1.00800           0
    104773 TIP3     31619    TIP3     H2       HT       0.417000       1.00800           0
    104774 TIP3     31620    TIP3     OH2      OT      -0.834000       15.9994           0
    104775 TIP3     31620    TIP3     H1       HT       0.417000       1.00800           0
    104776 TIP3     31620    TIP3     H2       HT       0.417000       1.00800           0
    104777 TIP3     31621    TIP3     OH2      OT      -0.834000       15.9994           0
    104778 TIP3     31621    TIP3     H1       HT       0.417000       1.00800           0
    104779 TIP3     31621    TIP3     H2       HT       0.417000       1.00800           0
    104780 TIP3     31622    TIP3     OH2      OT      -0.834000       15.9994           0
    104781 TIP3     31622    TIP3     H1       HT       0.417000       1.00800           0
    104782 TIP3     31622    TIP3     H2       HT       0.417000       1.00800           0
    104783 TIP3     31623    TIP3     OH2      OT      -0.834000       15.9994           0
    104784 TIP3     31623    TIP3     H1       HT       0.417000       1.00800           0
    104785 TIP3     31623    TIP3     H2       HT       0.417000       1.00800           0
    104786 TIP3     31624    TIP3     OH2      OT      -0.834000       15.9994           0
    104787 TIP3     31624    TIP3     H1       HT       0.417000       1.00800           0
    104788 TIP3     31624    TIP3     H2       HT       0.417000       1.00800           0
    104789 TIP3     31625    TIP3     OH2      OT      -0.834000       15.9994           0
    104790 TIP3     31625    TIP3     H1       HT       0.417000       1.00800           0
    104791 TIP3     31625    TIP3     H2       HT       0.417000       1.00800           0
    104792 TIP3     31626    TIP3     OH2      OT      -0.834000       15.9994           0
    104793 TIP3     31626    TIP3     H1       HT       0.417000       1.00800           0
    104794 TIP3     31626    TIP3     H2       HT       0.417000       1.00800           0
    104795 TIP3     31627    TIP3     OH2      OT      -0.834000       15.9994           0
    104796 TIP3     31627    TIP3     H1       HT       0.417000       1.00800           0
    104797 TIP3     31627    TIP3     H2       HT       0.417000       1.00800           0
    104798 TIP3     31628    TIP3     OH2      OT      -0.834000       15.9994           0
    104799 TIP3     31628    TIP3     H1       HT       0.417000       1.00800           0
    104800 TIP3     31628    TIP3     H2       HT       0.417000       1.00800           0
    104801 TIP3     31629    TIP3     OH2      OT      -0.834000       15.9994           0
    104802 TIP3     31629    TIP3     H1       HT       0.417000       1.00800           0
    104803 TIP3     31629    TIP3     H2       HT       0.417000       1.00800           0
    104804 TIP3     31630    TIP3     OH2      OT      -0.834000       15.9994           0
    104805 TIP3     31630    TIP3     H1       HT       0.417000       1.00800           0
    104806 TIP3     31630    TIP3     H2       HT       0.417000       1.00800           0
    104807 TIP3     31631    TIP3     OH2      OT      -0.834000       15.9994           0
    104808 TIP3     31631    TIP3     H1       HT       0.417000       1.00800           0
    104809 TIP3     31631    TIP3     H2       HT       0.417000       1.00800           0
    104810 TIP3     31632    TIP3     OH2      OT      -0.834000       15.9994           0
    104811 TIP3     31632    TIP3     H1       HT       0.417000       1.00800           0
    104812 TIP3     31632    TIP3     H2       HT       0.417000       1.00800           0
    104813 TIP3     31633    TIP3     OH2      OT      -0.834000       15.9994           0
    104814 TIP3     31633    TIP3     H1       HT       0.417000       1.00800           0
    104815 TIP3     31633    TIP3     H2       HT       0.417000       1.00800           0
    104816 TIP3     31634    TIP3     OH2      OT      -0.834000       15.9994           0
    104817 TIP3     31634    TIP3     H1       HT       0.417000       1.00800           0
    104818 TIP3     31634    TIP3     H2       HT       0.417000       1.00800           0
    104819 TIP3     31635    TIP3     OH2      OT      -0.834000       15.9994           0
    104820 TIP3     31635    TIP3     H1       HT       0.417000       1.00800           0
    104821 TIP3     31635    TIP3     H2       HT       0.417000       1.00800           0
    104822 TIP3     31636    TIP3     OH2      OT      -0.834000       15.9994           0
    104823 TIP3     31636    TIP3     H1       HT       0.417000       1.00800           0
    104824 TIP3     31636    TIP3     H2       HT       0.417000       1.00800           0
    104825 TIP3     31637    TIP3     OH2      OT      -0.834000       15.9994           0
    104826 TIP3     31637    TIP3     H1       HT       0.417000       1.00800           0
    104827 TIP3     31637    TIP3     H2       HT       0.417000       1.00800           0
    104828 TIP3     31638    TIP3     OH2      OT      -0.834000       15.9994           0
    104829 TIP3     31638    TIP3     H1       HT       0.417000       1.00800           0
    104830 TIP3     31638    TIP3     H2       HT       0.417000       1.00800           0
    104831 TIP3     31639    TIP3     OH2      OT      -0.834000       15.9994           0
    104832 TIP3     31639    TIP3     H1       HT       0.417000       1.00800           0
    104833 TIP3     31639    TIP3     H2       HT       0.417000       1.00800           0
    104834 TIP3     31640    TIP3     OH2      OT      -0.834000       15.9994           0
    104835 TIP3     31640    TIP3     H1       HT       0.417000       1.00800           0
    104836 TIP3     31640    TIP3     H2       HT       0.417000       1.00800           0
    104837 TIP3     31641    TIP3     OH2      OT      -0.834000       15.9994           0
    104838 TIP3     31641    TIP3     H1       HT       0.417000       1.00800           0
    104839 TIP3     31641    TIP3     H2       HT       0.417000       1.00800           0
    104840 TIP3     31642    TIP3     OH2      OT      -0.834000       15.9994           0
    104841 TIP3     31642    TIP3     H1       HT       0.417000       1.00800           0
    104842 TIP3     31642    TIP3     H2       HT       0.417000       1.00800           0
    104843 TIP3     31643    TIP3     OH2      OT      -0.834000       15.9994           0
    104844 TIP3     31643    TIP3     H1       HT       0.417000       1.00800           0
    104845 TIP3     31643    TIP3     H2       HT       0.417000       1.00800           0
    104846 TIP3     31644    TIP3     OH2      OT      -0.834000       15.9994           0
    104847 TIP3     31644    TIP3     H1       HT       0.417000       1.00800           0
    104848 TIP3     31644    TIP3     H2       HT       0.417000       1.00800           0
    104849 TIP3     31645    TIP3     OH2      OT      -0.834000       15.9994           0
    104850 TIP3     31645    TIP3     H1       HT       0.417000       1.00800           0
    104851 TIP3     31645    TIP3     H2       HT       0.417000       1.00800           0
    104852 TIP3     31646    TIP3     OH2      OT      -0.834000       15.9994           0
    104853 TIP3     31646    TIP3     H1       HT       0.417000       1.00800           0
    104854 TIP3     31646    TIP3     H2       HT       0.417000       1.00800           0
    104855 TIP3     31647    TIP3     OH2      OT      -0.834000       15.9994           0
    104856 TIP3     31647    TIP3     H1       HT       0.417000       1.00800           0
    104857 TIP3     31647    TIP3     H2       HT       0.417000       1.00800           0
    104858 TIP3     31648    TIP3     OH2      OT      -0.834000       15.9994           0
    104859 TIP3     31648    TIP3     H1       HT       0.417000       1.00800           0
    104860 TIP3     31648    TIP3     H2       HT       0.417000       1.00800           0
    104861 TIP3     31649    TIP3     OH2      OT      -0.834000       15.9994           0
    104862 TIP3     31649    TIP3     H1       HT       0.417000       1.00800           0
    104863 TIP3     31649    TIP3     H2       HT       0.417000       1.00800           0
    104864 TIP3     31650    TIP3     OH2      OT      -0.834000       15.9994           0
    104865 TIP3     31650    TIP3     H1       HT       0.417000       1.00800           0
    104866 TIP3     31650    TIP3     H2       HT       0.417000       1.00800           0
    104867 TIP3     31651    TIP3     OH2      OT      -0.834000       15.9994           0
    104868 TIP3     31651    TIP3     H1       HT       0.417000       1.00800           0
    104869 TIP3     31651    TIP3     H2       HT       0.417000       1.00800           0
    104870 TIP3     31652    TIP3     OH2      OT      -0.834000       15.9994           0
    104871 TIP3     31652    TIP3     H1       HT       0.417000       1.00800           0
    104872 TIP3     31652    TIP3     H2       HT       0.417000       1.00800           0
    104873 TIP3     31653    TIP3     OH2      OT      -0.834000       15.9994           0
    104874 TIP3     31653    TIP3     H1       HT       0.417000       1.00800           0
    104875 TIP3     31653    TIP3     H2       HT       0.417000       1.00800           0
    104876 TIP3     31654    TIP3     OH2      OT      -0.834000       15.9994           0
    104877 TIP3     31654    TIP3     H1       HT       0.417000       1.00800           0
    104878 TIP3     31654    TIP3     H2       HT       0.417000       1.00800           0
    104879 TIP3     31655    TIP3     OH2      OT      -0.834000       15.9994           0
    104880 TIP3     31655    TIP3     H1       HT       0.417000       1.00800           0
    104881 TIP3     31655    TIP3     H2       HT       0.417000       1.00800           0
    104882 TIP3     31656    TIP3     OH2      OT      -0.834000       15.9994           0
    104883 TIP3     31656    TIP3     H1       HT       0.417000       1.00800           0
    104884 TIP3     31656    TIP3     H2       HT       0.417000       1.00800           0
    104885 TIP3     31657    TIP3     OH2      OT      -0.834000       15.9994           0
    104886 TIP3     31657    TIP3     H1       HT       0.417000       1.00800           0
    104887 TIP3     31657    TIP3     H2       HT       0.417000       1.00800           0
    104888 TIP3     31658    TIP3     OH2      OT      -0.834000       15.9994           0
    104889 TIP3     31658    TIP3     H1       HT       0.417000       1.00800           0
    104890 TIP3     31658    TIP3     H2       HT       0.417000       1.00800           0
    104891 TIP3     31659    TIP3     OH2      OT      -0.834000       15.9994           0
    104892 TIP3     31659    TIP3     H1       HT       0.417000       1.00800           0
    104893 TIP3     31659    TIP3     H2       HT       0.417000       1.00800           0
    104894 TIP3     31660    TIP3     OH2      OT      -0.834000       15.9994           0
    104895 TIP3     31660    TIP3     H1       HT       0.417000       1.00800           0
    104896 TIP3     31660    TIP3     H2       HT       0.417000       1.00800           0
    104897 TIP3     31661    TIP3     OH2      OT      -0.834000       15.9994           0
    104898 TIP3     31661    TIP3     H1       HT       0.417000       1.00800           0
    104899 TIP3     31661    TIP3     H2       HT       0.417000       1.00800           0
    104900 TIP3     31662    TIP3     OH2      OT      -0.834000       15.9994           0
    104901 TIP3     31662    TIP3     H1       HT       0.417000       1.00800           0
    104902 TIP3     31662    TIP3     H2       HT       0.417000       1.00800           0
    104903 TIP3     31663    TIP3     OH2      OT      -0.834000       15.9994           0
    104904 TIP3     31663    TIP3     H1       HT       0.417000       1.00800           0
    104905 TIP3     31663    TIP3     H2       HT       0.417000       1.00800           0
    104906 TIP3     31664    TIP3     OH2      OT      -0.834000       15.9994           0
    104907 TIP3     31664    TIP3     H1       HT       0.417000       1.00800           0
    104908 TIP3     31664    TIP3     H2       HT       0.417000       1.00800           0
    104909 TIP3     31665    TIP3     OH2      OT      -0.834000       15.9994           0
    104910 TIP3     31665    TIP3     H1       HT       0.417000       1.00800           0
    104911 TIP3     31665    TIP3     H2       HT       0.417000       1.00800           0
    104912 TIP3     31666    TIP3     OH2      OT      -0.834000       15.9994           0
    104913 TIP3     31666    TIP3     H1       HT       0.417000       1.00800           0
    104914 TIP3     31666    TIP3     H2       HT       0.417000       1.00800           0
    104915 TIP3     31667    TIP3     OH2      OT      -0.834000       15.9994           0
    104916 TIP3     31667    TIP3     H1       HT       0.417000       1.00800           0
    104917 TIP3     31667    TIP3     H2       HT       0.417000       1.00800           0
    104918 TIP3     31668    TIP3     OH2      OT      -0.834000       15.9994           0
    104919 TIP3     31668    TIP3     H1       HT       0.417000       1.00800           0
    104920 TIP3     31668    TIP3     H2       HT       0.417000       1.00800           0
    104921 TIP3     31669    TIP3     OH2      OT      -0.834000       15.9994           0
    104922 TIP3     31669    TIP3     H1       HT       0.417000       1.00800           0
    104923 TIP3     31669    TIP3     H2       HT       0.417000       1.00800           0
    104924 TIP3     31670    TIP3     OH2      OT      -0.834000       15.9994           0
    104925 TIP3     31670    TIP3     H1       HT       0.417000       1.00800           0
    104926 TIP3     31670    TIP3     H2       HT       0.417000       1.00800           0
    104927 TIP3     31671    TIP3     OH2      OT      -0.834000       15.9994           0
    104928 TIP3     31671    TIP3     H1       HT       0.417000       1.00800           0
    104929 TIP3     31671    TIP3     H2       HT       0.417000       1.00800           0
    104930 TIP3     31672    TIP3     OH2      OT      -0.834000       15.9994           0
    104931 TIP3     31672    TIP3     H1       HT       0.417000       1.00800           0
    104932 TIP3     31672    TIP3     H2       HT       0.417000       1.00800           0
    104933 TIP3     31673    TIP3     OH2      OT      -0.834000       15.9994           0
    104934 TIP3     31673    TIP3     H1       HT       0.417000       1.00800           0
    104935 TIP3     31673    TIP3     H2       HT       0.417000       1.00800           0
    104936 TIP3     31674    TIP3     OH2      OT      -0.834000       15.9994           0
    104937 TIP3     31674    TIP3     H1       HT       0.417000       1.00800           0
    104938 TIP3     31674    TIP3     H2       HT       0.417000       1.00800           0
    104939 TIP3     31675    TIP3     OH2      OT      -0.834000       15.9994           0
    104940 TIP3     31675    TIP3     H1       HT       0.417000       1.00800           0
    104941 TIP3     31675    TIP3     H2       HT       0.417000       1.00800           0
    104942 TIP3     31676    TIP3     OH2      OT      -0.834000       15.9994           0
    104943 TIP3     31676    TIP3     H1       HT       0.417000       1.00800           0
    104944 TIP3     31676    TIP3     H2       HT       0.417000       1.00800           0
    104945 TIP3     31677    TIP3     OH2      OT      -0.834000       15.9994           0
    104946 TIP3     31677    TIP3     H1       HT       0.417000       1.00800           0
    104947 TIP3     31677    TIP3     H2       HT       0.417000       1.00800           0
    104948 TIP3     31678    TIP3     OH2      OT      -0.834000       15.9994           0
    104949 TIP3     31678    TIP3     H1       HT       0.417000       1.00800           0
    104950 TIP3     31678    TIP3     H2       HT       0.417000       1.00800           0
    104951 TIP3     31679    TIP3     OH2      OT      -0.834000       15.9994           0
    104952 TIP3     31679    TIP3     H1       HT       0.417000       1.00800           0
    104953 TIP3     31679    TIP3     H2       HT       0.417000       1.00800           0
    104954 TIP3     31680    TIP3     OH2      OT      -0.834000       15.9994           0
    104955 TIP3     31680    TIP3     H1       HT       0.417000       1.00800           0
    104956 TIP3     31680    TIP3     H2       HT       0.417000       1.00800           0
    104957 TIP3     31681    TIP3     OH2      OT      -0.834000       15.9994           0
    104958 TIP3     31681    TIP3     H1       HT       0.417000       1.00800           0
    104959 TIP3     31681    TIP3     H2       HT       0.417000       1.00800           0
    104960 TIP3     31682    TIP3     OH2      OT      -0.834000       15.9994           0
    104961 TIP3     31682    TIP3     H1       HT       0.417000       1.00800           0
    104962 TIP3     31682    TIP3     H2       HT       0.417000       1.00800           0
    104963 TIP3     31683    TIP3     OH2      OT      -0.834000       15.9994           0
    104964 TIP3     31683    TIP3     H1       HT       0.417000       1.00800           0
    104965 TIP3     31683    TIP3     H2       HT       0.417000       1.00800           0
    104966 TIP3     31684    TIP3     OH2      OT      -0.834000       15.9994           0
    104967 TIP3     31684    TIP3     H1       HT       0.417000       1.00800           0
    104968 TIP3     31684    TIP3     H2       HT       0.417000       1.00800           0
    104969 TIP3     31685    TIP3     OH2      OT      -0.834000       15.9994           0
    104970 TIP3     31685    TIP3     H1       HT       0.417000       1.00800           0
    104971 TIP3     31685    TIP3     H2       HT       0.417000       1.00800           0
    104972 TIP3     31686    TIP3     OH2      OT      -0.834000       15.9994           0
    104973 TIP3     31686    TIP3     H1       HT       0.417000       1.00800           0
    104974 TIP3     31686    TIP3     H2       HT       0.417000       1.00800           0
    104975 TIP3     31687    TIP3     OH2      OT      -0.834000       15.9994           0
    104976 TIP3     31687    TIP3     H1       HT       0.417000       1.00800           0
    104977 TIP3     31687    TIP3     H2       HT       0.417000       1.00800           0
    104978 TIP3     31688    TIP3     OH2      OT      -0.834000       15.9994           0
    104979 TIP3     31688    TIP3     H1       HT       0.417000       1.00800           0
    104980 TIP3     31688    TIP3     H2       HT       0.417000       1.00800           0
    104981 TIP3     31689    TIP3     OH2      OT      -0.834000       15.9994           0
    104982 TIP3     31689    TIP3     H1       HT       0.417000       1.00800           0
    104983 TIP3     31689    TIP3     H2       HT       0.417000       1.00800           0
    104984 TIP3     31690    TIP3     OH2      OT      -0.834000       15.9994           0
    104985 TIP3     31690    TIP3     H1       HT       0.417000       1.00800           0
    104986 TIP3     31690    TIP3     H2       HT       0.417000       1.00800           0
    104987 TIP3     31691    TIP3     OH2      OT      -0.834000       15.9994           0
    104988 TIP3     31691    TIP3     H1       HT       0.417000       1.00800           0
    104989 TIP3     31691    TIP3     H2       HT       0.417000       1.00800           0
    104990 TIP3     31692    TIP3     OH2      OT      -0.834000       15.9994           0
    104991 TIP3     31692    TIP3     H1       HT       0.417000       1.00800           0
    104992 TIP3     31692    TIP3     H2       HT       0.417000       1.00800           0
    104993 TIP3     31693    TIP3     OH2      OT      -0.834000       15.9994           0
    104994 TIP3     31693    TIP3     H1       HT       0.417000       1.00800           0
    104995 TIP3     31693    TIP3     H2       HT       0.417000       1.00800           0
    104996 TIP3     31694    TIP3     OH2      OT      -0.834000       15.9994           0
    104997 TIP3     31694    TIP3     H1       HT       0.417000       1.00800           0
    104998 TIP3     31694    TIP3     H2       HT       0.417000       1.00800           0
    104999 TIP3     31695    TIP3     OH2      OT      -0.834000       15.9994           0
    105000 TIP3     31695    TIP3     H1       HT       0.417000       1.00800           0
    105001 TIP3     31695    TIP3     H2       HT       0.417000       1.00800           0
    105002 TIP3     31696    TIP3     OH2      OT      -0.834000       15.9994           0
    105003 TIP3     31696    TIP3     H1       HT       0.417000       1.00800           0
    105004 TIP3     31696    TIP3     H2       HT       0.417000       1.00800           0
    105005 TIP3     31697    TIP3     OH2      OT      -0.834000       15.9994           0
    105006 TIP3     31697    TIP3     H1       HT       0.417000       1.00800           0
    105007 TIP3     31697    TIP3     H2       HT       0.417000       1.00800           0
    105008 TIP3     31698    TIP3     OH2      OT      -0.834000       15.9994           0
    105009 TIP3     31698    TIP3     H1       HT       0.417000       1.00800           0
    105010 TIP3     31698    TIP3     H2       HT       0.417000       1.00800           0
    105011 TIP3     31699    TIP3     OH2      OT      -0.834000       15.9994           0
    105012 TIP3     31699    TIP3     H1       HT       0.417000       1.00800           0
    105013 TIP3     31699    TIP3     H2       HT       0.417000       1.00800           0
    105014 TIP3     31700    TIP3     OH2      OT      -0.834000       15.9994           0
    105015 TIP3     31700    TIP3     H1       HT       0.417000       1.00800           0
    105016 TIP3     31700    TIP3     H2       HT       0.417000       1.00800           0
    105017 TIP3     31701    TIP3     OH2      OT      -0.834000       15.9994           0
    105018 TIP3     31701    TIP3     H1       HT       0.417000       1.00800           0
    105019 TIP3     31701    TIP3     H2       HT       0.417000       1.00800           0
    105020 TIP3     31702    TIP3     OH2      OT      -0.834000       15.9994           0
    105021 TIP3     31702    TIP3     H1       HT       0.417000       1.00800           0
    105022 TIP3     31702    TIP3     H2       HT       0.417000       1.00800           0
    105023 TIP3     31703    TIP3     OH2      OT      -0.834000       15.9994           0
    105024 TIP3     31703    TIP3     H1       HT       0.417000       1.00800           0
    105025 TIP3     31703    TIP3     H2       HT       0.417000       1.00800           0
    105026 TIP3     31704    TIP3     OH2      OT      -0.834000       15.9994           0
    105027 TIP3     31704    TIP3     H1       HT       0.417000       1.00800           0
    105028 TIP3     31704    TIP3     H2       HT       0.417000       1.00800           0
    105029 TIP3     31705    TIP3     OH2      OT      -0.834000       15.9994           0
    105030 TIP3     31705    TIP3     H1       HT       0.417000       1.00800           0
    105031 TIP3     31705    TIP3     H2       HT       0.417000       1.00800           0
    105032 TIP3     31706    TIP3     OH2      OT      -0.834000       15.9994           0
    105033 TIP3     31706    TIP3     H1       HT       0.417000       1.00800           0
    105034 TIP3     31706    TIP3     H2       HT       0.417000       1.00800           0
    105035 TIP3     31707    TIP3     OH2      OT      -0.834000       15.9994           0
    105036 TIP3     31707    TIP3     H1       HT       0.417000       1.00800           0
    105037 TIP3     31707    TIP3     H2       HT       0.417000       1.00800           0
    105038 TIP3     31708    TIP3     OH2      OT      -0.834000       15.9994           0
    105039 TIP3     31708    TIP3     H1       HT       0.417000       1.00800           0
    105040 TIP3     31708    TIP3     H2       HT       0.417000       1.00800           0
    105041 TIP3     31709    TIP3     OH2      OT      -0.834000       15.9994           0
    105042 TIP3     31709    TIP3     H1       HT       0.417000       1.00800           0
    105043 TIP3     31709    TIP3     H2       HT       0.417000       1.00800           0
    105044 TIP3     31710    TIP3     OH2      OT      -0.834000       15.9994           0
    105045 TIP3     31710    TIP3     H1       HT       0.417000       1.00800           0
    105046 TIP3     31710    TIP3     H2       HT       0.417000       1.00800           0
    105047 TIP3     31711    TIP3     OH2      OT      -0.834000       15.9994           0
    105048 TIP3     31711    TIP3     H1       HT       0.417000       1.00800           0
    105049 TIP3     31711    TIP3     H2       HT       0.417000       1.00800           0
    105050 TIP3     31712    TIP3     OH2      OT      -0.834000       15.9994           0
    105051 TIP3     31712    TIP3     H1       HT       0.417000       1.00800           0
    105052 TIP3     31712    TIP3     H2       HT       0.417000       1.00800           0
    105053 TIP3     31713    TIP3     OH2      OT      -0.834000       15.9994           0
    105054 TIP3     31713    TIP3     H1       HT       0.417000       1.00800           0
    105055 TIP3     31713    TIP3     H2       HT       0.417000       1.00800           0
    105056 TIP3     31714    TIP3     OH2      OT      -0.834000       15.9994           0
    105057 TIP3     31714    TIP3     H1       HT       0.417000       1.00800           0
    105058 TIP3     31714    TIP3     H2       HT       0.417000       1.00800           0
    105059 TIP3     31715    TIP3     OH2      OT      -0.834000       15.9994           0
    105060 TIP3     31715    TIP3     H1       HT       0.417000       1.00800           0
    105061 TIP3     31715    TIP3     H2       HT       0.417000       1.00800           0
    105062 TIP3     31716    TIP3     OH2      OT      -0.834000       15.9994           0
    105063 TIP3     31716    TIP3     H1       HT       0.417000       1.00800           0
    105064 TIP3     31716    TIP3     H2       HT       0.417000       1.00800           0
    105065 TIP3     31717    TIP3     OH2      OT      -0.834000       15.9994           0
    105066 TIP3     31717    TIP3     H1       HT       0.417000       1.00800           0
    105067 TIP3     31717    TIP3     H2       HT       0.417000       1.00800           0
    105068 TIP3     31718    TIP3     OH2      OT      -0.834000       15.9994           0
    105069 TIP3     31718    TIP3     H1       HT       0.417000       1.00800           0
    105070 TIP3     31718    TIP3     H2       HT       0.417000       1.00800           0
    105071 TIP3     31719    TIP3     OH2      OT      -0.834000       15.9994           0
    105072 TIP3     31719    TIP3     H1       HT       0.417000       1.00800           0
    105073 TIP3     31719    TIP3     H2       HT       0.417000       1.00800           0
    105074 TIP3     31720    TIP3     OH2      OT      -0.834000       15.9994           0
    105075 TIP3     31720    TIP3     H1       HT       0.417000       1.00800           0
    105076 TIP3     31720    TIP3     H2       HT       0.417000       1.00800           0
    105077 TIP3     31721    TIP3     OH2      OT      -0.834000       15.9994           0
    105078 TIP3     31721    TIP3     H1       HT       0.417000       1.00800           0
    105079 TIP3     31721    TIP3     H2       HT       0.417000       1.00800           0
    105080 TIP3     31722    TIP3     OH2      OT      -0.834000       15.9994           0
    105081 TIP3     31722    TIP3     H1       HT       0.417000       1.00800           0
    105082 TIP3     31722    TIP3     H2       HT       0.417000       1.00800           0
    105083 TIP3     31723    TIP3     OH2      OT      -0.834000       15.9994           0
    105084 TIP3     31723    TIP3     H1       HT       0.417000       1.00800           0
    105085 TIP3     31723    TIP3     H2       HT       0.417000       1.00800           0
    105086 TIP3     31724    TIP3     OH2      OT      -0.834000       15.9994           0
    105087 TIP3     31724    TIP3     H1       HT       0.417000       1.00800           0
    105088 TIP3     31724    TIP3     H2       HT       0.417000       1.00800           0
    105089 TIP3     31725    TIP3     OH2      OT      -0.834000       15.9994           0
    105090 TIP3     31725    TIP3     H1       HT       0.417000       1.00800           0
    105091 TIP3     31725    TIP3     H2       HT       0.417000       1.00800           0
    105092 TIP3     31726    TIP3     OH2      OT      -0.834000       15.9994           0
    105093 TIP3     31726    TIP3     H1       HT       0.417000       1.00800           0
    105094 TIP3     31726    TIP3     H2       HT       0.417000       1.00800           0
    105095 TIP3     31727    TIP3     OH2      OT      -0.834000       15.9994           0
    105096 TIP3     31727    TIP3     H1       HT       0.417000       1.00800           0
    105097 TIP3     31727    TIP3     H2       HT       0.417000       1.00800           0
    105098 TIP3     31728    TIP3     OH2      OT      -0.834000       15.9994           0
    105099 TIP3     31728    TIP3     H1       HT       0.417000       1.00800           0
    105100 TIP3     31728    TIP3     H2       HT       0.417000       1.00800           0
    105101 TIP3     31729    TIP3     OH2      OT      -0.834000       15.9994           0
    105102 TIP3     31729    TIP3     H1       HT       0.417000       1.00800           0
    105103 TIP3     31729    TIP3     H2       HT       0.417000       1.00800           0
    105104 TIP3     31730    TIP3     OH2      OT      -0.834000       15.9994           0
    105105 TIP3     31730    TIP3     H1       HT       0.417000       1.00800           0
    105106 TIP3     31730    TIP3     H2       HT       0.417000       1.00800           0
    105107 TIP3     31731    TIP3     OH2      OT      -0.834000       15.9994           0
    105108 TIP3     31731    TIP3     H1       HT       0.417000       1.00800           0
    105109 TIP3     31731    TIP3     H2       HT       0.417000       1.00800           0
    105110 TIP3     31732    TIP3     OH2      OT      -0.834000       15.9994           0
    105111 TIP3     31732    TIP3     H1       HT       0.417000       1.00800           0
    105112 TIP3     31732    TIP3     H2       HT       0.417000       1.00800           0
    105113 TIP3     31733    TIP3     OH2      OT      -0.834000       15.9994           0
    105114 TIP3     31733    TIP3     H1       HT       0.417000       1.00800           0
    105115 TIP3     31733    TIP3     H2       HT       0.417000       1.00800           0
    105116 TIP3     31734    TIP3     OH2      OT      -0.834000       15.9994           0
    105117 TIP3     31734    TIP3     H1       HT       0.417000       1.00800           0
    105118 TIP3     31734    TIP3     H2       HT       0.417000       1.00800           0
    105119 TIP3     31735    TIP3     OH2      OT      -0.834000       15.9994           0
    105120 TIP3     31735    TIP3     H1       HT       0.417000       1.00800           0
    105121 TIP3     31735    TIP3     H2       HT       0.417000       1.00800           0
    105122 TIP3     31736    TIP3     OH2      OT      -0.834000       15.9994           0
    105123 TIP3     31736    TIP3     H1       HT       0.417000       1.00800           0
    105124 TIP3     31736    TIP3     H2       HT       0.417000       1.00800           0
    105125 TIP3     31737    TIP3     OH2      OT      -0.834000       15.9994           0
    105126 TIP3     31737    TIP3     H1       HT       0.417000       1.00800           0
    105127 TIP3     31737    TIP3     H2       HT       0.417000       1.00800           0
    105128 TIP3     31738    TIP3     OH2      OT      -0.834000       15.9994           0
    105129 TIP3     31738    TIP3     H1       HT       0.417000       1.00800           0
    105130 TIP3     31738    TIP3     H2       HT       0.417000       1.00800           0
    105131 TIP3     31739    TIP3     OH2      OT      -0.834000       15.9994           0
    105132 TIP3     31739    TIP3     H1       HT       0.417000       1.00800           0
    105133 TIP3     31739    TIP3     H2       HT       0.417000       1.00800           0
    105134 TIP3     31740    TIP3     OH2      OT      -0.834000       15.9994           0
    105135 TIP3     31740    TIP3     H1       HT       0.417000       1.00800           0
    105136 TIP3     31740    TIP3     H2       HT       0.417000       1.00800           0
    105137 TIP3     31741    TIP3     OH2      OT      -0.834000       15.9994           0
    105138 TIP3     31741    TIP3     H1       HT       0.417000       1.00800           0
    105139 TIP3     31741    TIP3     H2       HT       0.417000       1.00800           0
    105140 TIP3     31742    TIP3     OH2      OT      -0.834000       15.9994           0
    105141 TIP3     31742    TIP3     H1       HT       0.417000       1.00800           0
    105142 TIP3     31742    TIP3     H2       HT       0.417000       1.00800           0
    105143 TIP3     31743    TIP3     OH2      OT      -0.834000       15.9994           0
    105144 TIP3     31743    TIP3     H1       HT       0.417000       1.00800           0
    105145 TIP3     31743    TIP3     H2       HT       0.417000       1.00800           0
    105146 TIP3     31744    TIP3     OH2      OT      -0.834000       15.9994           0
    105147 TIP3     31744    TIP3     H1       HT       0.417000       1.00800           0
    105148 TIP3     31744    TIP3     H2       HT       0.417000       1.00800           0
    105149 TIP3     31745    TIP3     OH2      OT      -0.834000       15.9994           0
    105150 TIP3     31745    TIP3     H1       HT       0.417000       1.00800           0
    105151 TIP3     31745    TIP3     H2       HT       0.417000       1.00800           0
    105152 TIP3     31746    TIP3     OH2      OT      -0.834000       15.9994           0
    105153 TIP3     31746    TIP3     H1       HT       0.417000       1.00800           0
    105154 TIP3     31746    TIP3     H2       HT       0.417000       1.00800           0
    105155 TIP3     31747    TIP3     OH2      OT      -0.834000       15.9994           0
    105156 TIP3     31747    TIP3     H1       HT       0.417000       1.00800           0
    105157 TIP3     31747    TIP3     H2       HT       0.417000       1.00800           0
    105158 TIP3     31748    TIP3     OH2      OT      -0.834000       15.9994           0
    105159 TIP3     31748    TIP3     H1       HT       0.417000       1.00800           0
    105160 TIP3     31748    TIP3     H2       HT       0.417000       1.00800           0
    105161 TIP3     31749    TIP3     OH2      OT      -0.834000       15.9994           0
    105162 TIP3     31749    TIP3     H1       HT       0.417000       1.00800           0
    105163 TIP3     31749    TIP3     H2       HT       0.417000       1.00800           0
    105164 TIP3     31750    TIP3     OH2      OT      -0.834000       15.9994           0
    105165 TIP3     31750    TIP3     H1       HT       0.417000       1.00800           0
    105166 TIP3     31750    TIP3     H2       HT       0.417000       1.00800           0
    105167 TIP3     31751    TIP3     OH2      OT      -0.834000       15.9994           0
    105168 TIP3     31751    TIP3     H1       HT       0.417000       1.00800           0
    105169 TIP3     31751    TIP3     H2       HT       0.417000       1.00800           0
    105170 TIP3     31752    TIP3     OH2      OT      -0.834000       15.9994           0
    105171 TIP3     31752    TIP3     H1       HT       0.417000       1.00800           0
    105172 TIP3     31752    TIP3     H2       HT       0.417000       1.00800           0
    105173 TIP3     31753    TIP3     OH2      OT      -0.834000       15.9994           0
    105174 TIP3     31753    TIP3     H1       HT       0.417000       1.00800           0
    105175 TIP3     31753    TIP3     H2       HT       0.417000       1.00800           0
    105176 TIP3     31754    TIP3     OH2      OT      -0.834000       15.9994           0
    105177 TIP3     31754    TIP3     H1       HT       0.417000       1.00800           0
    105178 TIP3     31754    TIP3     H2       HT       0.417000       1.00800           0
    105179 TIP3     31755    TIP3     OH2      OT      -0.834000       15.9994           0
    105180 TIP3     31755    TIP3     H1       HT       0.417000       1.00800           0
    105181 TIP3     31755    TIP3     H2       HT       0.417000       1.00800           0
    105182 TIP3     31756    TIP3     OH2      OT      -0.834000       15.9994           0
    105183 TIP3     31756    TIP3     H1       HT       0.417000       1.00800           0
    105184 TIP3     31756    TIP3     H2       HT       0.417000       1.00800           0
    105185 TIP3     31757    TIP3     OH2      OT      -0.834000       15.9994           0
    105186 TIP3     31757    TIP3     H1       HT       0.417000       1.00800           0
    105187 TIP3     31757    TIP3     H2       HT       0.417000       1.00800           0
    105188 TIP3     31758    TIP3     OH2      OT      -0.834000       15.9994           0
    105189 TIP3     31758    TIP3     H1       HT       0.417000       1.00800           0
    105190 TIP3     31758    TIP3     H2       HT       0.417000       1.00800           0
    105191 TIP3     31759    TIP3     OH2      OT      -0.834000       15.9994           0
    105192 TIP3     31759    TIP3     H1       HT       0.417000       1.00800           0
    105193 TIP3     31759    TIP3     H2       HT       0.417000       1.00800           0
    105194 TIP3     31760    TIP3     OH2      OT      -0.834000       15.9994           0
    105195 TIP3     31760    TIP3     H1       HT       0.417000       1.00800           0
    105196 TIP3     31760    TIP3     H2       HT       0.417000       1.00800           0
    105197 TIP3     31761    TIP3     OH2      OT      -0.834000       15.9994           0
    105198 TIP3     31761    TIP3     H1       HT       0.417000       1.00800           0
    105199 TIP3     31761    TIP3     H2       HT       0.417000       1.00800           0
    105200 TIP3     31762    TIP3     OH2      OT      -0.834000       15.9994           0
    105201 TIP3     31762    TIP3     H1       HT       0.417000       1.00800           0
    105202 TIP3     31762    TIP3     H2       HT       0.417000       1.00800           0
    105203 TIP3     31763    TIP3     OH2      OT      -0.834000       15.9994           0
    105204 TIP3     31763    TIP3     H1       HT       0.417000       1.00800           0
    105205 TIP3     31763    TIP3     H2       HT       0.417000       1.00800           0
    105206 TIP3     31764    TIP3     OH2      OT      -0.834000       15.9994           0
    105207 TIP3     31764    TIP3     H1       HT       0.417000       1.00800           0
    105208 TIP3     31764    TIP3     H2       HT       0.417000       1.00800           0
    105209 TIP3     31765    TIP3     OH2      OT      -0.834000       15.9994           0
    105210 TIP3     31765    TIP3     H1       HT       0.417000       1.00800           0
    105211 TIP3     31765    TIP3     H2       HT       0.417000       1.00800           0
    105212 TIP3     31766    TIP3     OH2      OT      -0.834000       15.9994           0
    105213 TIP3     31766    TIP3     H1       HT       0.417000       1.00800           0
    105214 TIP3     31766    TIP3     H2       HT       0.417000       1.00800           0
    105215 TIP3     31767    TIP3     OH2      OT      -0.834000       15.9994           0
    105216 TIP3     31767    TIP3     H1       HT       0.417000       1.00800           0
    105217 TIP3     31767    TIP3     H2       HT       0.417000       1.00800           0
    105218 TIP3     31768    TIP3     OH2      OT      -0.834000       15.9994           0
    105219 TIP3     31768    TIP3     H1       HT       0.417000       1.00800           0
    105220 TIP3     31768    TIP3     H2       HT       0.417000       1.00800           0
    105221 TIP3     31769    TIP3     OH2      OT      -0.834000       15.9994           0
    105222 TIP3     31769    TIP3     H1       HT       0.417000       1.00800           0
    105223 TIP3     31769    TIP3     H2       HT       0.417000       1.00800           0
    105224 TIP3     31770    TIP3     OH2      OT      -0.834000       15.9994           0
    105225 TIP3     31770    TIP3     H1       HT       0.417000       1.00800           0
    105226 TIP3     31770    TIP3     H2       HT       0.417000       1.00800           0
    105227 TIP3     31771    TIP3     OH2      OT      -0.834000       15.9994           0
    105228 TIP3     31771    TIP3     H1       HT       0.417000       1.00800           0
    105229 TIP3     31771    TIP3     H2       HT       0.417000       1.00800           0
    105230 TIP3     31772    TIP3     OH2      OT      -0.834000       15.9994           0
    105231 TIP3     31772    TIP3     H1       HT       0.417000       1.00800           0
    105232 TIP3     31772    TIP3     H2       HT       0.417000       1.00800           0
    105233 TIP3     31773    TIP3     OH2      OT      -0.834000       15.9994           0
    105234 TIP3     31773    TIP3     H1       HT       0.417000       1.00800           0
    105235 TIP3     31773    TIP3     H2       HT       0.417000       1.00800           0
    105236 TIP3     31774    TIP3     OH2      OT      -0.834000       15.9994           0
    105237 TIP3     31774    TIP3     H1       HT       0.417000       1.00800           0
    105238 TIP3     31774    TIP3     H2       HT       0.417000       1.00800           0
    105239 TIP3     31775    TIP3     OH2      OT      -0.834000       15.9994           0
    105240 TIP3     31775    TIP3     H1       HT       0.417000       1.00800           0
    105241 TIP3     31775    TIP3     H2       HT       0.417000       1.00800           0
    105242 TIP3     31776    TIP3     OH2      OT      -0.834000       15.9994           0
    105243 TIP3     31776    TIP3     H1       HT       0.417000       1.00800           0
    105244 TIP3     31776    TIP3     H2       HT       0.417000       1.00800           0
    105245 TIP3     31777    TIP3     OH2      OT      -0.834000       15.9994           0
    105246 TIP3     31777    TIP3     H1       HT       0.417000       1.00800           0
    105247 TIP3     31777    TIP3     H2       HT       0.417000       1.00800           0
    105248 TIP3     31778    TIP3     OH2      OT      -0.834000       15.9994           0
    105249 TIP3     31778    TIP3     H1       HT       0.417000       1.00800           0
    105250 TIP3     31778    TIP3     H2       HT       0.417000       1.00800           0
    105251 TIP3     31779    TIP3     OH2      OT      -0.834000       15.9994           0
    105252 TIP3     31779    TIP3     H1       HT       0.417000       1.00800           0
    105253 TIP3     31779    TIP3     H2       HT       0.417000       1.00800           0
    105254 TIP3     31780    TIP3     OH2      OT      -0.834000       15.9994           0
    105255 TIP3     31780    TIP3     H1       HT       0.417000       1.00800           0
    105256 TIP3     31780    TIP3     H2       HT       0.417000       1.00800           0
    105257 TIP3     31781    TIP3     OH2      OT      -0.834000       15.9994           0
    105258 TIP3     31781    TIP3     H1       HT       0.417000       1.00800           0
    105259 TIP3     31781    TIP3     H2       HT       0.417000       1.00800           0
    105260 TIP3     31782    TIP3     OH2      OT      -0.834000       15.9994           0
    105261 TIP3     31782    TIP3     H1       HT       0.417000       1.00800           0
    105262 TIP3     31782    TIP3     H2       HT       0.417000       1.00800           0
    105263 TIP3     31783    TIP3     OH2      OT      -0.834000       15.9994           0
    105264 TIP3     31783    TIP3     H1       HT       0.417000       1.00800           0
    105265 TIP3     31783    TIP3     H2       HT       0.417000       1.00800           0
    105266 TIP3     31784    TIP3     OH2      OT      -0.834000       15.9994           0
    105267 TIP3     31784    TIP3     H1       HT       0.417000       1.00800           0
    105268 TIP3     31784    TIP3     H2       HT       0.417000       1.00800           0
    105269 TIP3     31785    TIP3     OH2      OT      -0.834000       15.9994           0
    105270 TIP3     31785    TIP3     H1       HT       0.417000       1.00800           0
    105271 TIP3     31785    TIP3     H2       HT       0.417000       1.00800           0
    105272 TIP3     31786    TIP3     OH2      OT      -0.834000       15.9994           0
    105273 TIP3     31786    TIP3     H1       HT       0.417000       1.00800           0
    105274 TIP3     31786    TIP3     H2       HT       0.417000       1.00800           0
    105275 TIP3     31787    TIP3     OH2      OT      -0.834000       15.9994           0
    105276 TIP3     31787    TIP3     H1       HT       0.417000       1.00800           0
    105277 TIP3     31787    TIP3     H2       HT       0.417000       1.00800           0
    105278 TIP3     31788    TIP3     OH2      OT      -0.834000       15.9994           0
    105279 TIP3     31788    TIP3     H1       HT       0.417000       1.00800           0
    105280 TIP3     31788    TIP3     H2       HT       0.417000       1.00800           0
    105281 TIP3     31789    TIP3     OH2      OT      -0.834000       15.9994           0
    105282 TIP3     31789    TIP3     H1       HT       0.417000       1.00800           0
    105283 TIP3     31789    TIP3     H2       HT       0.417000       1.00800           0
    105284 TIP3     31790    TIP3     OH2      OT      -0.834000       15.9994           0
    105285 TIP3     31790    TIP3     H1       HT       0.417000       1.00800           0
    105286 TIP3     31790    TIP3     H2       HT       0.417000       1.00800           0
    105287 TIP3     31791    TIP3     OH2      OT      -0.834000       15.9994           0
    105288 TIP3     31791    TIP3     H1       HT       0.417000       1.00800           0
    105289 TIP3     31791    TIP3     H2       HT       0.417000       1.00800           0
    105290 TIP3     31792    TIP3     OH2      OT      -0.834000       15.9994           0
    105291 TIP3     31792    TIP3     H1       HT       0.417000       1.00800           0
    105292 TIP3     31792    TIP3     H2       HT       0.417000       1.00800           0
    105293 TIP3     31793    TIP3     OH2      OT      -0.834000       15.9994           0
    105294 TIP3     31793    TIP3     H1       HT       0.417000       1.00800           0
    105295 TIP3     31793    TIP3     H2       HT       0.417000       1.00800           0
    105296 TIP3     31794    TIP3     OH2      OT      -0.834000       15.9994           0
    105297 TIP3     31794    TIP3     H1       HT       0.417000       1.00800           0
    105298 TIP3     31794    TIP3     H2       HT       0.417000       1.00800           0
    105299 TIP3     31795    TIP3     OH2      OT      -0.834000       15.9994           0
    105300 TIP3     31795    TIP3     H1       HT       0.417000       1.00800           0
    105301 TIP3     31795    TIP3     H2       HT       0.417000       1.00800           0
    105302 TIP3     31796    TIP3     OH2      OT      -0.834000       15.9994           0
    105303 TIP3     31796    TIP3     H1       HT       0.417000       1.00800           0
    105304 TIP3     31796    TIP3     H2       HT       0.417000       1.00800           0
    105305 TIP3     31797    TIP3     OH2      OT      -0.834000       15.9994           0
    105306 TIP3     31797    TIP3     H1       HT       0.417000       1.00800           0
    105307 TIP3     31797    TIP3     H2       HT       0.417000       1.00800           0
    105308 TIP3     31798    TIP3     OH2      OT      -0.834000       15.9994           0
    105309 TIP3     31798    TIP3     H1       HT       0.417000       1.00800           0
    105310 TIP3     31798    TIP3     H2       HT       0.417000       1.00800           0
    105311 TIP3     31799    TIP3     OH2      OT      -0.834000       15.9994           0
    105312 TIP3     31799    TIP3     H1       HT       0.417000       1.00800           0
    105313 TIP3     31799    TIP3     H2       HT       0.417000       1.00800           0
    105314 TIP3     31800    TIP3     OH2      OT      -0.834000       15.9994           0
    105315 TIP3     31800    TIP3     H1       HT       0.417000       1.00800           0
    105316 TIP3     31800    TIP3     H2       HT       0.417000       1.00800           0
    105317 TIP3     31801    TIP3     OH2      OT      -0.834000       15.9994           0
    105318 TIP3     31801    TIP3     H1       HT       0.417000       1.00800           0
    105319 TIP3     31801    TIP3     H2       HT       0.417000       1.00800           0
    105320 TIP3     31802    TIP3     OH2      OT      -0.834000       15.9994           0
    105321 TIP3     31802    TIP3     H1       HT       0.417000       1.00800           0
    105322 TIP3     31802    TIP3     H2       HT       0.417000       1.00800           0
    105323 TIP3     31803    TIP3     OH2      OT      -0.834000       15.9994           0
    105324 TIP3     31803    TIP3     H1       HT       0.417000       1.00800           0
    105325 TIP3     31803    TIP3     H2       HT       0.417000       1.00800           0
    105326 TIP3     31804    TIP3     OH2      OT      -0.834000       15.9994           0
    105327 TIP3     31804    TIP3     H1       HT       0.417000       1.00800           0
    105328 TIP3     31804    TIP3     H2       HT       0.417000       1.00800           0
    105329 TIP3     31805    TIP3     OH2      OT      -0.834000       15.9994           0
    105330 TIP3     31805    TIP3     H1       HT       0.417000       1.00800           0
    105331 TIP3     31805    TIP3     H2       HT       0.417000       1.00800           0
    105332 TIP3     31806    TIP3     OH2      OT      -0.834000       15.9994           0
    105333 TIP3     31806    TIP3     H1       HT       0.417000       1.00800           0
    105334 TIP3     31806    TIP3     H2       HT       0.417000       1.00800           0
    105335 TIP3     31807    TIP3     OH2      OT      -0.834000       15.9994           0
    105336 TIP3     31807    TIP3     H1       HT       0.417000       1.00800           0
    105337 TIP3     31807    TIP3     H2       HT       0.417000       1.00800           0
    105338 TIP3     31808    TIP3     OH2      OT      -0.834000       15.9994           0
    105339 TIP3     31808    TIP3     H1       HT       0.417000       1.00800           0
    105340 TIP3     31808    TIP3     H2       HT       0.417000       1.00800           0
    105341 TIP3     31809    TIP3     OH2      OT      -0.834000       15.9994           0
    105342 TIP3     31809    TIP3     H1       HT       0.417000       1.00800           0
    105343 TIP3     31809    TIP3     H2       HT       0.417000       1.00800           0
    105344 TIP3     31810    TIP3     OH2      OT      -0.834000       15.9994           0
    105345 TIP3     31810    TIP3     H1       HT       0.417000       1.00800           0
    105346 TIP3     31810    TIP3     H2       HT       0.417000       1.00800           0
    105347 TIP3     31811    TIP3     OH2      OT      -0.834000       15.9994           0
    105348 TIP3     31811    TIP3     H1       HT       0.417000       1.00800           0
    105349 TIP3     31811    TIP3     H2       HT       0.417000       1.00800           0
    105350 TIP3     31812    TIP3     OH2      OT      -0.834000       15.9994           0
    105351 TIP3     31812    TIP3     H1       HT       0.417000       1.00800           0
    105352 TIP3     31812    TIP3     H2       HT       0.417000       1.00800           0
    105353 TIP3     31813    TIP3     OH2      OT      -0.834000       15.9994           0
    105354 TIP3     31813    TIP3     H1       HT       0.417000       1.00800           0
    105355 TIP3     31813    TIP3     H2       HT       0.417000       1.00800           0
    105356 TIP3     31814    TIP3     OH2      OT      -0.834000       15.9994           0
    105357 TIP3     31814    TIP3     H1       HT       0.417000       1.00800           0
    105358 TIP3     31814    TIP3     H2       HT       0.417000       1.00800           0
    105359 TIP3     31815    TIP3     OH2      OT      -0.834000       15.9994           0
    105360 TIP3     31815    TIP3     H1       HT       0.417000       1.00800           0
    105361 TIP3     31815    TIP3     H2       HT       0.417000       1.00800           0
    105362 TIP3     31816    TIP3     OH2      OT      -0.834000       15.9994           0
    105363 TIP3     31816    TIP3     H1       HT       0.417000       1.00800           0
    105364 TIP3     31816    TIP3     H2       HT       0.417000       1.00800           0
    105365 TIP3     31817    TIP3     OH2      OT      -0.834000       15.9994           0
    105366 TIP3     31817    TIP3     H1       HT       0.417000       1.00800           0
    105367 TIP3     31817    TIP3     H2       HT       0.417000       1.00800           0
    105368 TIP3     31818    TIP3     OH2      OT      -0.834000       15.9994           0
    105369 TIP3     31818    TIP3     H1       HT       0.417000       1.00800           0
    105370 TIP3     31818    TIP3     H2       HT       0.417000       1.00800           0
    105371 TIP3     31819    TIP3     OH2      OT      -0.834000       15.9994           0
    105372 TIP3     31819    TIP3     H1       HT       0.417000       1.00800           0
    105373 TIP3     31819    TIP3     H2       HT       0.417000       1.00800           0
    105374 TIP3     31820    TIP3     OH2      OT      -0.834000       15.9994           0
    105375 TIP3     31820    TIP3     H1       HT       0.417000       1.00800           0
    105376 TIP3     31820    TIP3     H2       HT       0.417000       1.00800           0
    105377 TIP3     31821    TIP3     OH2      OT      -0.834000       15.9994           0
    105378 TIP3     31821    TIP3     H1       HT       0.417000       1.00800           0
    105379 TIP3     31821    TIP3     H2       HT       0.417000       1.00800           0
    105380 TIP3     31822    TIP3     OH2      OT      -0.834000       15.9994           0
    105381 TIP3     31822    TIP3     H1       HT       0.417000       1.00800           0
    105382 TIP3     31822    TIP3     H2       HT       0.417000       1.00800           0
    105383 TIP3     31823    TIP3     OH2      OT      -0.834000       15.9994           0
    105384 TIP3     31823    TIP3     H1       HT       0.417000       1.00800           0
    105385 TIP3     31823    TIP3     H2       HT       0.417000       1.00800           0
    105386 TIP3     31824    TIP3     OH2      OT      -0.834000       15.9994           0
    105387 TIP3     31824    TIP3     H1       HT       0.417000       1.00800           0
    105388 TIP3     31824    TIP3     H2       HT       0.417000       1.00800           0
    105389 TIP3     31825    TIP3     OH2      OT      -0.834000       15.9994           0
    105390 TIP3     31825    TIP3     H1       HT       0.417000       1.00800           0
    105391 TIP3     31825    TIP3     H2       HT       0.417000       1.00800           0
    105392 TIP3     31826    TIP3     OH2      OT      -0.834000       15.9994           0
    105393 TIP3     31826    TIP3     H1       HT       0.417000       1.00800           0
    105394 TIP3     31826    TIP3     H2       HT       0.417000       1.00800           0
    105395 TIP3     31827    TIP3     OH2      OT      -0.834000       15.9994           0
    105396 TIP3     31827    TIP3     H1       HT       0.417000       1.00800           0
    105397 TIP3     31827    TIP3     H2       HT       0.417000       1.00800           0
    105398 TIP3     31828    TIP3     OH2      OT      -0.834000       15.9994           0
    105399 TIP3     31828    TIP3     H1       HT       0.417000       1.00800           0
    105400 TIP3     31828    TIP3     H2       HT       0.417000       1.00800           0
    105401 TIP3     31829    TIP3     OH2      OT      -0.834000       15.9994           0
    105402 TIP3     31829    TIP3     H1       HT       0.417000       1.00800           0
    105403 TIP3     31829    TIP3     H2       HT       0.417000       1.00800           0
    105404 TIP3     31830    TIP3     OH2      OT      -0.834000       15.9994           0
    105405 TIP3     31830    TIP3     H1       HT       0.417000       1.00800           0
    105406 TIP3     31830    TIP3     H2       HT       0.417000       1.00800           0
    105407 TIP3     31831    TIP3     OH2      OT      -0.834000       15.9994           0
    105408 TIP3     31831    TIP3     H1       HT       0.417000       1.00800           0
    105409 TIP3     31831    TIP3     H2       HT       0.417000       1.00800           0
    105410 TIP3     31832    TIP3     OH2      OT      -0.834000       15.9994           0
    105411 TIP3     31832    TIP3     H1       HT       0.417000       1.00800           0
    105412 TIP3     31832    TIP3     H2       HT       0.417000       1.00800           0
    105413 TIP3     31833    TIP3     OH2      OT      -0.834000       15.9994           0
    105414 TIP3     31833    TIP3     H1       HT       0.417000       1.00800           0
    105415 TIP3     31833    TIP3     H2       HT       0.417000       1.00800           0
    105416 TIP3     31834    TIP3     OH2      OT      -0.834000       15.9994           0
    105417 TIP3     31834    TIP3     H1       HT       0.417000       1.00800           0
    105418 TIP3     31834    TIP3     H2       HT       0.417000       1.00800           0
    105419 TIP3     31835    TIP3     OH2      OT      -0.834000       15.9994           0
    105420 TIP3     31835    TIP3     H1       HT       0.417000       1.00800           0
    105421 TIP3     31835    TIP3     H2       HT       0.417000       1.00800           0
    105422 TIP3     31836    TIP3     OH2      OT      -0.834000       15.9994           0
    105423 TIP3     31836    TIP3     H1       HT       0.417000       1.00800           0
    105424 TIP3     31836    TIP3     H2       HT       0.417000       1.00800           0
    105425 TIP3     31837    TIP3     OH2      OT      -0.834000       15.9994           0
    105426 TIP3     31837    TIP3     H1       HT       0.417000       1.00800           0
    105427 TIP3     31837    TIP3     H2       HT       0.417000       1.00800           0
    105428 TIP3     31838    TIP3     OH2      OT      -0.834000       15.9994           0
    105429 TIP3     31838    TIP3     H1       HT       0.417000       1.00800           0
    105430 TIP3     31838    TIP3     H2       HT       0.417000       1.00800           0
    105431 TIP3     31839    TIP3     OH2      OT      -0.834000       15.9994           0
    105432 TIP3     31839    TIP3     H1       HT       0.417000       1.00800           0
    105433 TIP3     31839    TIP3     H2       HT       0.417000       1.00800           0
    105434 TIP3     31840    TIP3     OH2      OT      -0.834000       15.9994           0
    105435 TIP3     31840    TIP3     H1       HT       0.417000       1.00800           0
    105436 TIP3     31840    TIP3     H2       HT       0.417000       1.00800           0
    105437 TIP3     31841    TIP3     OH2      OT      -0.834000       15.9994           0
    105438 TIP3     31841    TIP3     H1       HT       0.417000       1.00800           0
    105439 TIP3     31841    TIP3     H2       HT       0.417000       1.00800           0
    105440 TIP3     31842    TIP3     OH2      OT      -0.834000       15.9994           0
    105441 TIP3     31842    TIP3     H1       HT       0.417000       1.00800           0
    105442 TIP3     31842    TIP3     H2       HT       0.417000       1.00800           0
    105443 TIP3     31843    TIP3     OH2      OT      -0.834000       15.9994           0
    105444 TIP3     31843    TIP3     H1       HT       0.417000       1.00800           0
    105445 TIP3     31843    TIP3     H2       HT       0.417000       1.00800           0
    105446 TIP3     31844    TIP3     OH2      OT      -0.834000       15.9994           0
    105447 TIP3     31844    TIP3     H1       HT       0.417000       1.00800           0
    105448 TIP3     31844    TIP3     H2       HT       0.417000       1.00800           0
    105449 TIP3     31845    TIP3     OH2      OT      -0.834000       15.9994           0
    105450 TIP3     31845    TIP3     H1       HT       0.417000       1.00800           0
    105451 TIP3     31845    TIP3     H2       HT       0.417000       1.00800           0
    105452 TIP3     31846    TIP3     OH2      OT      -0.834000       15.9994           0
    105453 TIP3     31846    TIP3     H1       HT       0.417000       1.00800           0
    105454 TIP3     31846    TIP3     H2       HT       0.417000       1.00800           0
    105455 TIP3     31847    TIP3     OH2      OT      -0.834000       15.9994           0
    105456 TIP3     31847    TIP3     H1       HT       0.417000       1.00800           0
    105457 TIP3     31847    TIP3     H2       HT       0.417000       1.00800           0
    105458 TIP3     31848    TIP3     OH2      OT      -0.834000       15.9994           0
    105459 TIP3     31848    TIP3     H1       HT       0.417000       1.00800           0
    105460 TIP3     31848    TIP3     H2       HT       0.417000       1.00800           0
    105461 TIP3     31849    TIP3     OH2      OT      -0.834000       15.9994           0
    105462 TIP3     31849    TIP3     H1       HT       0.417000       1.00800           0
    105463 TIP3     31849    TIP3     H2       HT       0.417000       1.00800           0
    105464 TIP3     31850    TIP3     OH2      OT      -0.834000       15.9994           0
    105465 TIP3     31850    TIP3     H1       HT       0.417000       1.00800           0
    105466 TIP3     31850    TIP3     H2       HT       0.417000       1.00800           0
    105467 TIP3     31851    TIP3     OH2      OT      -0.834000       15.9994           0
    105468 TIP3     31851    TIP3     H1       HT       0.417000       1.00800           0
    105469 TIP3     31851    TIP3     H2       HT       0.417000       1.00800           0
    105470 TIP3     31852    TIP3     OH2      OT      -0.834000       15.9994           0
    105471 TIP3     31852    TIP3     H1       HT       0.417000       1.00800           0
    105472 TIP3     31852    TIP3     H2       HT       0.417000       1.00800           0
    105473 TIP3     31853    TIP3     OH2      OT      -0.834000       15.9994           0
    105474 TIP3     31853    TIP3     H1       HT       0.417000       1.00800           0
    105475 TIP3     31853    TIP3     H2       HT       0.417000       1.00800           0
    105476 TIP3     31854    TIP3     OH2      OT      -0.834000       15.9994           0
    105477 TIP3     31854    TIP3     H1       HT       0.417000       1.00800           0
    105478 TIP3     31854    TIP3     H2       HT       0.417000       1.00800           0
    105479 TIP3     31855    TIP3     OH2      OT      -0.834000       15.9994           0
    105480 TIP3     31855    TIP3     H1       HT       0.417000       1.00800           0
    105481 TIP3     31855    TIP3     H2       HT       0.417000       1.00800           0
    105482 TIP3     31856    TIP3     OH2      OT      -0.834000       15.9994           0
    105483 TIP3     31856    TIP3     H1       HT       0.417000       1.00800           0
    105484 TIP3     31856    TIP3     H2       HT       0.417000       1.00800           0
    105485 TIP3     31857    TIP3     OH2      OT      -0.834000       15.9994           0
    105486 TIP3     31857    TIP3     H1       HT       0.417000       1.00800           0
    105487 TIP3     31857    TIP3     H2       HT       0.417000       1.00800           0
    105488 TIP3     31858    TIP3     OH2      OT      -0.834000       15.9994           0
    105489 TIP3     31858    TIP3     H1       HT       0.417000       1.00800           0
    105490 TIP3     31858    TIP3     H2       HT       0.417000       1.00800           0
    105491 TIP3     31859    TIP3     OH2      OT      -0.834000       15.9994           0
    105492 TIP3     31859    TIP3     H1       HT       0.417000       1.00800           0
    105493 TIP3     31859    TIP3     H2       HT       0.417000       1.00800           0
    105494 TIP3     31860    TIP3     OH2      OT      -0.834000       15.9994           0
    105495 TIP3     31860    TIP3     H1       HT       0.417000       1.00800           0
    105496 TIP3     31860    TIP3     H2       HT       0.417000       1.00800           0
    105497 TIP3     31861    TIP3     OH2      OT      -0.834000       15.9994           0
    105498 TIP3     31861    TIP3     H1       HT       0.417000       1.00800           0
    105499 TIP3     31861    TIP3     H2       HT       0.417000       1.00800           0
    105500 TIP3     31862    TIP3     OH2      OT      -0.834000       15.9994           0
    105501 TIP3     31862    TIP3     H1       HT       0.417000       1.00800           0
    105502 TIP3     31862    TIP3     H2       HT       0.417000       1.00800           0
    105503 TIP3     31863    TIP3     OH2      OT      -0.834000       15.9994           0
    105504 TIP3     31863    TIP3     H1       HT       0.417000       1.00800           0
    105505 TIP3     31863    TIP3     H2       HT       0.417000       1.00800           0
    105506 TIP3     31864    TIP3     OH2      OT      -0.834000       15.9994           0
    105507 TIP3     31864    TIP3     H1       HT       0.417000       1.00800           0
    105508 TIP3     31864    TIP3     H2       HT       0.417000       1.00800           0
    105509 TIP3     31865    TIP3     OH2      OT      -0.834000       15.9994           0
    105510 TIP3     31865    TIP3     H1       HT       0.417000       1.00800           0
    105511 TIP3     31865    TIP3     H2       HT       0.417000       1.00800           0
    105512 TIP3     31866    TIP3     OH2      OT      -0.834000       15.9994           0
    105513 TIP3     31866    TIP3     H1       HT       0.417000       1.00800           0
    105514 TIP3     31866    TIP3     H2       HT       0.417000       1.00800           0
    105515 TIP3     31867    TIP3     OH2      OT      -0.834000       15.9994           0
    105516 TIP3     31867    TIP3     H1       HT       0.417000       1.00800           0
    105517 TIP3     31867    TIP3     H2       HT       0.417000       1.00800           0
    105518 TIP3     31868    TIP3     OH2      OT      -0.834000       15.9994           0
    105519 TIP3     31868    TIP3     H1       HT       0.417000       1.00800           0
    105520 TIP3     31868    TIP3     H2       HT       0.417000       1.00800           0
    105521 TIP3     31869    TIP3     OH2      OT      -0.834000       15.9994           0
    105522 TIP3     31869    TIP3     H1       HT       0.417000       1.00800           0
    105523 TIP3     31869    TIP3     H2       HT       0.417000       1.00800           0
    105524 TIP3     31870    TIP3     OH2      OT      -0.834000       15.9994           0
    105525 TIP3     31870    TIP3     H1       HT       0.417000       1.00800           0
    105526 TIP3     31870    TIP3     H2       HT       0.417000       1.00800           0
    105527 TIP3     31871    TIP3     OH2      OT      -0.834000       15.9994           0
    105528 TIP3     31871    TIP3     H1       HT       0.417000       1.00800           0
    105529 TIP3     31871    TIP3     H2       HT       0.417000       1.00800           0
    105530 TIP3     31872    TIP3     OH2      OT      -0.834000       15.9994           0
    105531 TIP3     31872    TIP3     H1       HT       0.417000       1.00800           0
    105532 TIP3     31872    TIP3     H2       HT       0.417000       1.00800           0
    105533 TIP3     31873    TIP3     OH2      OT      -0.834000       15.9994           0
    105534 TIP3     31873    TIP3     H1       HT       0.417000       1.00800           0
    105535 TIP3     31873    TIP3     H2       HT       0.417000       1.00800           0
    105536 TIP3     31874    TIP3     OH2      OT      -0.834000       15.9994           0
    105537 TIP3     31874    TIP3     H1       HT       0.417000       1.00800           0
    105538 TIP3     31874    TIP3     H2       HT       0.417000       1.00800           0
    105539 TIP3     31875    TIP3     OH2      OT      -0.834000       15.9994           0
    105540 TIP3     31875    TIP3     H1       HT       0.417000       1.00800           0
    105541 TIP3     31875    TIP3     H2       HT       0.417000       1.00800           0
    105542 TIP3     31876    TIP3     OH2      OT      -0.834000       15.9994           0
    105543 TIP3     31876    TIP3     H1       HT       0.417000       1.00800           0
    105544 TIP3     31876    TIP3     H2       HT       0.417000       1.00800           0
    105545 TIP3     31877    TIP3     OH2      OT      -0.834000       15.9994           0
    105546 TIP3     31877    TIP3     H1       HT       0.417000       1.00800           0
    105547 TIP3     31877    TIP3     H2       HT       0.417000       1.00800           0
    105548 TIP3     31878    TIP3     OH2      OT      -0.834000       15.9994           0
    105549 TIP3     31878    TIP3     H1       HT       0.417000       1.00800           0
    105550 TIP3     31878    TIP3     H2       HT       0.417000       1.00800           0
    105551 TIP3     31879    TIP3     OH2      OT      -0.834000       15.9994           0
    105552 TIP3     31879    TIP3     H1       HT       0.417000       1.00800           0
    105553 TIP3     31879    TIP3     H2       HT       0.417000       1.00800           0
    105554 TIP3     31880    TIP3     OH2      OT      -0.834000       15.9994           0
    105555 TIP3     31880    TIP3     H1       HT       0.417000       1.00800           0
    105556 TIP3     31880    TIP3     H2       HT       0.417000       1.00800           0
    105557 TIP3     31881    TIP3     OH2      OT      -0.834000       15.9994           0
    105558 TIP3     31881    TIP3     H1       HT       0.417000       1.00800           0
    105559 TIP3     31881    TIP3     H2       HT       0.417000       1.00800           0
    105560 TIP3     31882    TIP3     OH2      OT      -0.834000       15.9994           0
    105561 TIP3     31882    TIP3     H1       HT       0.417000       1.00800           0
    105562 TIP3     31882    TIP3     H2       HT       0.417000       1.00800           0
    105563 TIP3     31883    TIP3     OH2      OT      -0.834000       15.9994           0
    105564 TIP3     31883    TIP3     H1       HT       0.417000       1.00800           0
    105565 TIP3     31883    TIP3     H2       HT       0.417000       1.00800           0
    105566 TIP3     31884    TIP3     OH2      OT      -0.834000       15.9994           0
    105567 TIP3     31884    TIP3     H1       HT       0.417000       1.00800           0
    105568 TIP3     31884    TIP3     H2       HT       0.417000       1.00800           0
    105569 TIP3     31885    TIP3     OH2      OT      -0.834000       15.9994           0
    105570 TIP3     31885    TIP3     H1       HT       0.417000       1.00800           0
    105571 TIP3     31885    TIP3     H2       HT       0.417000       1.00800           0
    105572 TIP3     31886    TIP3     OH2      OT      -0.834000       15.9994           0
    105573 TIP3     31886    TIP3     H1       HT       0.417000       1.00800           0
    105574 TIP3     31886    TIP3     H2       HT       0.417000       1.00800           0
    105575 TIP3     31887    TIP3     OH2      OT      -0.834000       15.9994           0
    105576 TIP3     31887    TIP3     H1       HT       0.417000       1.00800           0
    105577 TIP3     31887    TIP3     H2       HT       0.417000       1.00800           0
    105578 TIP3     31888    TIP3     OH2      OT      -0.834000       15.9994           0
    105579 TIP3     31888    TIP3     H1       HT       0.417000       1.00800           0
    105580 TIP3     31888    TIP3     H2       HT       0.417000       1.00800           0
    105581 TIP3     31889    TIP3     OH2      OT      -0.834000       15.9994           0
    105582 TIP3     31889    TIP3     H1       HT       0.417000       1.00800           0
    105583 TIP3     31889    TIP3     H2       HT       0.417000       1.00800           0
    105584 TIP3     31890    TIP3     OH2      OT      -0.834000       15.9994           0
    105585 TIP3     31890    TIP3     H1       HT       0.417000       1.00800           0
    105586 TIP3     31890    TIP3     H2       HT       0.417000       1.00800           0
    105587 TIP3     31891    TIP3     OH2      OT      -0.834000       15.9994           0
    105588 TIP3     31891    TIP3     H1       HT       0.417000       1.00800           0
    105589 TIP3     31891    TIP3     H2       HT       0.417000       1.00800           0
    105590 TIP3     31892    TIP3     OH2      OT      -0.834000       15.9994           0
    105591 TIP3     31892    TIP3     H1       HT       0.417000       1.00800           0
    105592 TIP3     31892    TIP3     H2       HT       0.417000       1.00800           0
    105593 TIP3     31893    TIP3     OH2      OT      -0.834000       15.9994           0
    105594 TIP3     31893    TIP3     H1       HT       0.417000       1.00800           0
    105595 TIP3     31893    TIP3     H2       HT       0.417000       1.00800           0
    105596 TIP3     31894    TIP3     OH2      OT      -0.834000       15.9994           0
    105597 TIP3     31894    TIP3     H1       HT       0.417000       1.00800           0
    105598 TIP3     31894    TIP3     H2       HT       0.417000       1.00800           0
    105599 TIP3     31895    TIP3     OH2      OT      -0.834000       15.9994           0
    105600 TIP3     31895    TIP3     H1       HT       0.417000       1.00800           0
    105601 TIP3     31895    TIP3     H2       HT       0.417000       1.00800           0
    105602 TIP3     31896    TIP3     OH2      OT      -0.834000       15.9994           0
    105603 TIP3     31896    TIP3     H1       HT       0.417000       1.00800           0
    105604 TIP3     31896    TIP3     H2       HT       0.417000       1.00800           0
    105605 TIP3     31897    TIP3     OH2      OT      -0.834000       15.9994           0
    105606 TIP3     31897    TIP3     H1       HT       0.417000       1.00800           0
    105607 TIP3     31897    TIP3     H2       HT       0.417000       1.00800           0
    105608 TIP3     31898    TIP3     OH2      OT      -0.834000       15.9994           0
    105609 TIP3     31898    TIP3     H1       HT       0.417000       1.00800           0
    105610 TIP3     31898    TIP3     H2       HT       0.417000       1.00800           0
    105611 TIP3     31899    TIP3     OH2      OT      -0.834000       15.9994           0
    105612 TIP3     31899    TIP3     H1       HT       0.417000       1.00800           0
    105613 TIP3     31899    TIP3     H2       HT       0.417000       1.00800           0
    105614 TIP3     31900    TIP3     OH2      OT      -0.834000       15.9994           0
    105615 TIP3     31900    TIP3     H1       HT       0.417000       1.00800           0
    105616 TIP3     31900    TIP3     H2       HT       0.417000       1.00800           0
    105617 TIP3     31901    TIP3     OH2      OT      -0.834000       15.9994           0
    105618 TIP3     31901    TIP3     H1       HT       0.417000       1.00800           0
    105619 TIP3     31901    TIP3     H2       HT       0.417000       1.00800           0
    105620 TIP3     31902    TIP3     OH2      OT      -0.834000       15.9994           0
    105621 TIP3     31902    TIP3     H1       HT       0.417000       1.00800           0
    105622 TIP3     31902    TIP3     H2       HT       0.417000       1.00800           0
    105623 TIP3     31903    TIP3     OH2      OT      -0.834000       15.9994           0
    105624 TIP3     31903    TIP3     H1       HT       0.417000       1.00800           0
    105625 TIP3     31903    TIP3     H2       HT       0.417000       1.00800           0
    105626 TIP3     31904    TIP3     OH2      OT      -0.834000       15.9994           0
    105627 TIP3     31904    TIP3     H1       HT       0.417000       1.00800           0
    105628 TIP3     31904    TIP3     H2       HT       0.417000       1.00800           0
    105629 TIP3     31905    TIP3     OH2      OT      -0.834000       15.9994           0
    105630 TIP3     31905    TIP3     H1       HT       0.417000       1.00800           0
    105631 TIP3     31905    TIP3     H2       HT       0.417000       1.00800           0
    105632 TIP3     31906    TIP3     OH2      OT      -0.834000       15.9994           0
    105633 TIP3     31906    TIP3     H1       HT       0.417000       1.00800           0
    105634 TIP3     31906    TIP3     H2       HT       0.417000       1.00800           0
    105635 TIP3     31907    TIP3     OH2      OT      -0.834000       15.9994           0
    105636 TIP3     31907    TIP3     H1       HT       0.417000       1.00800           0
    105637 TIP3     31907    TIP3     H2       HT       0.417000       1.00800           0
    105638 TIP3     31908    TIP3     OH2      OT      -0.834000       15.9994           0
    105639 TIP3     31908    TIP3     H1       HT       0.417000       1.00800           0
    105640 TIP3     31908    TIP3     H2       HT       0.417000       1.00800           0
    105641 TIP3     31909    TIP3     OH2      OT      -0.834000       15.9994           0
    105642 TIP3     31909    TIP3     H1       HT       0.417000       1.00800           0
    105643 TIP3     31909    TIP3     H2       HT       0.417000       1.00800           0
    105644 TIP3     31910    TIP3     OH2      OT      -0.834000       15.9994           0
    105645 TIP3     31910    TIP3     H1       HT       0.417000       1.00800           0
    105646 TIP3     31910    TIP3     H2       HT       0.417000       1.00800           0
    105647 TIP3     31911    TIP3     OH2      OT      -0.834000       15.9994           0
    105648 TIP3     31911    TIP3     H1       HT       0.417000       1.00800           0
    105649 TIP3     31911    TIP3     H2       HT       0.417000       1.00800           0
    105650 TIP3     31912    TIP3     OH2      OT      -0.834000       15.9994           0
    105651 TIP3     31912    TIP3     H1       HT       0.417000       1.00800           0
    105652 TIP3     31912    TIP3     H2       HT       0.417000       1.00800           0
    105653 TIP3     31913    TIP3     OH2      OT      -0.834000       15.9994           0
    105654 TIP3     31913    TIP3     H1       HT       0.417000       1.00800           0
    105655 TIP3     31913    TIP3     H2       HT       0.417000       1.00800           0
    105656 TIP3     31914    TIP3     OH2      OT      -0.834000       15.9994           0
    105657 TIP3     31914    TIP3     H1       HT       0.417000       1.00800           0
    105658 TIP3     31914    TIP3     H2       HT       0.417000       1.00800           0
    105659 TIP3     31915    TIP3     OH2      OT      -0.834000       15.9994           0
    105660 TIP3     31915    TIP3     H1       HT       0.417000       1.00800           0
    105661 TIP3     31915    TIP3     H2       HT       0.417000       1.00800           0
    105662 TIP3     31916    TIP3     OH2      OT      -0.834000       15.9994           0
    105663 TIP3     31916    TIP3     H1       HT       0.417000       1.00800           0
    105664 TIP3     31916    TIP3     H2       HT       0.417000       1.00800           0
    105665 TIP3     31917    TIP3     OH2      OT      -0.834000       15.9994           0
    105666 TIP3     31917    TIP3     H1       HT       0.417000       1.00800           0
    105667 TIP3     31917    TIP3     H2       HT       0.417000       1.00800           0
    105668 TIP3     31918    TIP3     OH2      OT      -0.834000       15.9994           0
    105669 TIP3     31918    TIP3     H1       HT       0.417000       1.00800           0
    105670 TIP3     31918    TIP3     H2       HT       0.417000       1.00800           0
    105671 TIP3     31919    TIP3     OH2      OT      -0.834000       15.9994           0
    105672 TIP3     31919    TIP3     H1       HT       0.417000       1.00800           0
    105673 TIP3     31919    TIP3     H2       HT       0.417000       1.00800           0
    105674 TIP3     31920    TIP3     OH2      OT      -0.834000       15.9994           0
    105675 TIP3     31920    TIP3     H1       HT       0.417000       1.00800           0
    105676 TIP3     31920    TIP3     H2       HT       0.417000       1.00800           0
    105677 TIP3     31921    TIP3     OH2      OT      -0.834000       15.9994           0
    105678 TIP3     31921    TIP3     H1       HT       0.417000       1.00800           0
    105679 TIP3     31921    TIP3     H2       HT       0.417000       1.00800           0
    105680 TIP3     31922    TIP3     OH2      OT      -0.834000       15.9994           0
    105681 TIP3     31922    TIP3     H1       HT       0.417000       1.00800           0
    105682 TIP3     31922    TIP3     H2       HT       0.417000       1.00800           0
    105683 TIP3     31923    TIP3     OH2      OT      -0.834000       15.9994           0
    105684 TIP3     31923    TIP3     H1       HT       0.417000       1.00800           0
    105685 TIP3     31923    TIP3     H2       HT       0.417000       1.00800           0
    105686 TIP3     31924    TIP3     OH2      OT      -0.834000       15.9994           0
    105687 TIP3     31924    TIP3     H1       HT       0.417000       1.00800           0
    105688 TIP3     31924    TIP3     H2       HT       0.417000       1.00800           0
    105689 TIP3     31925    TIP3     OH2      OT      -0.834000       15.9994           0
    105690 TIP3     31925    TIP3     H1       HT       0.417000       1.00800           0
    105691 TIP3     31925    TIP3     H2       HT       0.417000       1.00800           0
    105692 TIP3     31926    TIP3     OH2      OT      -0.834000       15.9994           0
    105693 TIP3     31926    TIP3     H1       HT       0.417000       1.00800           0
    105694 TIP3     31926    TIP3     H2       HT       0.417000       1.00800           0
    105695 TIP3     31927    TIP3     OH2      OT      -0.834000       15.9994           0
    105696 TIP3     31927    TIP3     H1       HT       0.417000       1.00800           0
    105697 TIP3     31927    TIP3     H2       HT       0.417000       1.00800           0
    105698 TIP3     31928    TIP3     OH2      OT      -0.834000       15.9994           0
    105699 TIP3     31928    TIP3     H1       HT       0.417000       1.00800           0
    105700 TIP3     31928    TIP3     H2       HT       0.417000       1.00800           0
    105701 TIP3     31929    TIP3     OH2      OT      -0.834000       15.9994           0
    105702 TIP3     31929    TIP3     H1       HT       0.417000       1.00800           0
    105703 TIP3     31929    TIP3     H2       HT       0.417000       1.00800           0
    105704 TIP3     31930    TIP3     OH2      OT      -0.834000       15.9994           0
    105705 TIP3     31930    TIP3     H1       HT       0.417000       1.00800           0
    105706 TIP3     31930    TIP3     H2       HT       0.417000       1.00800           0
    105707 TIP3     31931    TIP3     OH2      OT      -0.834000       15.9994           0
    105708 TIP3     31931    TIP3     H1       HT       0.417000       1.00800           0
    105709 TIP3     31931    TIP3     H2       HT       0.417000       1.00800           0
    105710 TIP3     31932    TIP3     OH2      OT      -0.834000       15.9994           0
    105711 TIP3     31932    TIP3     H1       HT       0.417000       1.00800           0
    105712 TIP3     31932    TIP3     H2       HT       0.417000       1.00800           0
    105713 TIP3     31933    TIP3     OH2      OT      -0.834000       15.9994           0
    105714 TIP3     31933    TIP3     H1       HT       0.417000       1.00800           0
    105715 TIP3     31933    TIP3     H2       HT       0.417000       1.00800           0
    105716 TIP3     31934    TIP3     OH2      OT      -0.834000       15.9994           0
    105717 TIP3     31934    TIP3     H1       HT       0.417000       1.00800           0
    105718 TIP3     31934    TIP3     H2       HT       0.417000       1.00800           0
    105719 TIP3     31935    TIP3     OH2      OT      -0.834000       15.9994           0
    105720 TIP3     31935    TIP3     H1       HT       0.417000       1.00800           0
    105721 TIP3     31935    TIP3     H2       HT       0.417000       1.00800           0
    105722 TIP3     31936    TIP3     OH2      OT      -0.834000       15.9994           0
    105723 TIP3     31936    TIP3     H1       HT       0.417000       1.00800           0
    105724 TIP3     31936    TIP3     H2       HT       0.417000       1.00800           0
    105725 TIP3     31937    TIP3     OH2      OT      -0.834000       15.9994           0
    105726 TIP3     31937    TIP3     H1       HT       0.417000       1.00800           0
    105727 TIP3     31937    TIP3     H2       HT       0.417000       1.00800           0
    105728 TIP3     31938    TIP3     OH2      OT      -0.834000       15.9994           0
    105729 TIP3     31938    TIP3     H1       HT       0.417000       1.00800           0
    105730 TIP3     31938    TIP3     H2       HT       0.417000       1.00800           0
    105731 TIP3     31939    TIP3     OH2      OT      -0.834000       15.9994           0
    105732 TIP3     31939    TIP3     H1       HT       0.417000       1.00800           0
    105733 TIP3     31939    TIP3     H2       HT       0.417000       1.00800           0
    105734 TIP3     31940    TIP3     OH2      OT      -0.834000       15.9994           0
    105735 TIP3     31940    TIP3     H1       HT       0.417000       1.00800           0
    105736 TIP3     31940    TIP3     H2       HT       0.417000       1.00800           0
    105737 TIP3     31941    TIP3     OH2      OT      -0.834000       15.9994           0
    105738 TIP3     31941    TIP3     H1       HT       0.417000       1.00800           0
    105739 TIP3     31941    TIP3     H2       HT       0.417000       1.00800           0
    105740 TIP3     31942    TIP3     OH2      OT      -0.834000       15.9994           0
    105741 TIP3     31942    TIP3     H1       HT       0.417000       1.00800           0
    105742 TIP3     31942    TIP3     H2       HT       0.417000       1.00800           0
    105743 TIP3     31943    TIP3     OH2      OT      -0.834000       15.9994           0
    105744 TIP3     31943    TIP3     H1       HT       0.417000       1.00800           0
    105745 TIP3     31943    TIP3     H2       HT       0.417000       1.00800           0
    105746 TIP3     31944    TIP3     OH2      OT      -0.834000       15.9994           0
    105747 TIP3     31944    TIP3     H1       HT       0.417000       1.00800           0
    105748 TIP3     31944    TIP3     H2       HT       0.417000       1.00800           0
    105749 TIP3     31945    TIP3     OH2      OT      -0.834000       15.9994           0
    105750 TIP3     31945    TIP3     H1       HT       0.417000       1.00800           0
    105751 TIP3     31945    TIP3     H2       HT       0.417000       1.00800           0
    105752 TIP3     31946    TIP3     OH2      OT      -0.834000       15.9994           0
    105753 TIP3     31946    TIP3     H1       HT       0.417000       1.00800           0
    105754 TIP3     31946    TIP3     H2       HT       0.417000       1.00800           0
    105755 TIP3     31947    TIP3     OH2      OT      -0.834000       15.9994           0
    105756 TIP3     31947    TIP3     H1       HT       0.417000       1.00800           0
    105757 TIP3     31947    TIP3     H2       HT       0.417000       1.00800           0
    105758 TIP3     31948    TIP3     OH2      OT      -0.834000       15.9994           0
    105759 TIP3     31948    TIP3     H1       HT       0.417000       1.00800           0
    105760 TIP3     31948    TIP3     H2       HT       0.417000       1.00800           0
    105761 TIP3     31949    TIP3     OH2      OT      -0.834000       15.9994           0
    105762 TIP3     31949    TIP3     H1       HT       0.417000       1.00800           0
    105763 TIP3     31949    TIP3     H2       HT       0.417000       1.00800           0
    105764 TIP3     31950    TIP3     OH2      OT      -0.834000       15.9994           0
    105765 TIP3     31950    TIP3     H1       HT       0.417000       1.00800           0
    105766 TIP3     31950    TIP3     H2       HT       0.417000       1.00800           0
    105767 TIP3     31951    TIP3     OH2      OT      -0.834000       15.9994           0
    105768 TIP3     31951    TIP3     H1       HT       0.417000       1.00800           0
    105769 TIP3     31951    TIP3     H2       HT       0.417000       1.00800           0
    105770 TIP3     31952    TIP3     OH2      OT      -0.834000       15.9994           0
    105771 TIP3     31952    TIP3     H1       HT       0.417000       1.00800           0
    105772 TIP3     31952    TIP3     H2       HT       0.417000       1.00800           0
    105773 TIP3     31953    TIP3     OH2      OT      -0.834000       15.9994           0
    105774 TIP3     31953    TIP3     H1       HT       0.417000       1.00800           0
    105775 TIP3     31953    TIP3     H2       HT       0.417000       1.00800           0
    105776 TIP3     31954    TIP3     OH2      OT      -0.834000       15.9994           0
    105777 TIP3     31954    TIP3     H1       HT       0.417000       1.00800           0
    105778 TIP3     31954    TIP3     H2       HT       0.417000       1.00800           0
    105779 TIP3     31955    TIP3     OH2      OT      -0.834000       15.9994           0
    105780 TIP3     31955    TIP3     H1       HT       0.417000       1.00800           0
    105781 TIP3     31955    TIP3     H2       HT       0.417000       1.00800           0
    105782 TIP3     31956    TIP3     OH2      OT      -0.834000       15.9994           0
    105783 TIP3     31956    TIP3     H1       HT       0.417000       1.00800           0
    105784 TIP3     31956    TIP3     H2       HT       0.417000       1.00800           0
    105785 TIP3     31957    TIP3     OH2      OT      -0.834000       15.9994           0
    105786 TIP3     31957    TIP3     H1       HT       0.417000       1.00800           0
    105787 TIP3     31957    TIP3     H2       HT       0.417000       1.00800           0
    105788 TIP3     31958    TIP3     OH2      OT      -0.834000       15.9994           0
    105789 TIP3     31958    TIP3     H1       HT       0.417000       1.00800           0
    105790 TIP3     31958    TIP3     H2       HT       0.417000       1.00800           0
    105791 TIP3     31959    TIP3     OH2      OT      -0.834000       15.9994           0
    105792 TIP3     31959    TIP3     H1       HT       0.417000       1.00800           0
    105793 TIP3     31959    TIP3     H2       HT       0.417000       1.00800           0
    105794 TIP3     31960    TIP3     OH2      OT      -0.834000       15.9994           0
    105795 TIP3     31960    TIP3     H1       HT       0.417000       1.00800           0
    105796 TIP3     31960    TIP3     H2       HT       0.417000       1.00800           0
    105797 TIP3     31961    TIP3     OH2      OT      -0.834000       15.9994           0
    105798 TIP3     31961    TIP3     H1       HT       0.417000       1.00800           0
    105799 TIP3     31961    TIP3     H2       HT       0.417000       1.00800           0
    105800 TIP3     31962    TIP3     OH2      OT      -0.834000       15.9994           0
    105801 TIP3     31962    TIP3     H1       HT       0.417000       1.00800           0
    105802 TIP3     31962    TIP3     H2       HT       0.417000       1.00800           0
    105803 TIP3     31963    TIP3     OH2      OT      -0.834000       15.9994           0
    105804 TIP3     31963    TIP3     H1       HT       0.417000       1.00800           0
    105805 TIP3     31963    TIP3     H2       HT       0.417000       1.00800           0
    105806 TIP3     31964    TIP3     OH2      OT      -0.834000       15.9994           0
    105807 TIP3     31964    TIP3     H1       HT       0.417000       1.00800           0
    105808 TIP3     31964    TIP3     H2       HT       0.417000       1.00800           0
    105809 TIP3     31965    TIP3     OH2      OT      -0.834000       15.9994           0
    105810 TIP3     31965    TIP3     H1       HT       0.417000       1.00800           0
    105811 TIP3     31965    TIP3     H2       HT       0.417000       1.00800           0
    105812 TIP3     31966    TIP3     OH2      OT      -0.834000       15.9994           0
    105813 TIP3     31966    TIP3     H1       HT       0.417000       1.00800           0
    105814 TIP3     31966    TIP3     H2       HT       0.417000       1.00800           0
    105815 TIP3     31967    TIP3     OH2      OT      -0.834000       15.9994           0
    105816 TIP3     31967    TIP3     H1       HT       0.417000       1.00800           0
    105817 TIP3     31967    TIP3     H2       HT       0.417000       1.00800           0
    105818 TIP3     31968    TIP3     OH2      OT      -0.834000       15.9994           0
    105819 TIP3     31968    TIP3     H1       HT       0.417000       1.00800           0
    105820 TIP3     31968    TIP3     H2       HT       0.417000       1.00800           0
    105821 TIP3     31969    TIP3     OH2      OT      -0.834000       15.9994           0
    105822 TIP3     31969    TIP3     H1       HT       0.417000       1.00800           0
    105823 TIP3     31969    TIP3     H2       HT       0.417000       1.00800           0
    105824 TIP3     31970    TIP3     OH2      OT      -0.834000       15.9994           0
    105825 TIP3     31970    TIP3     H1       HT       0.417000       1.00800           0
    105826 TIP3     31970    TIP3     H2       HT       0.417000       1.00800           0
    105827 TIP3     31971    TIP3     OH2      OT      -0.834000       15.9994           0
    105828 TIP3     31971    TIP3     H1       HT       0.417000       1.00800           0
    105829 TIP3     31971    TIP3     H2       HT       0.417000       1.00800           0
    105830 TIP3     31972    TIP3     OH2      OT      -0.834000       15.9994           0
    105831 TIP3     31972    TIP3     H1       HT       0.417000       1.00800           0
    105832 TIP3     31972    TIP3     H2       HT       0.417000       1.00800           0
    105833 TIP3     31973    TIP3     OH2      OT      -0.834000       15.9994           0
    105834 TIP3     31973    TIP3     H1       HT       0.417000       1.00800           0
    105835 TIP3     31973    TIP3     H2       HT       0.417000       1.00800           0
    105836 TIP3     31974    TIP3     OH2      OT      -0.834000       15.9994           0
    105837 TIP3     31974    TIP3     H1       HT       0.417000       1.00800           0
    105838 TIP3     31974    TIP3     H2       HT       0.417000       1.00800           0
    105839 TIP3     31975    TIP3     OH2      OT      -0.834000       15.9994           0
    105840 TIP3     31975    TIP3     H1       HT       0.417000       1.00800           0
    105841 TIP3     31975    TIP3     H2       HT       0.417000       1.00800           0
    105842 TIP3     31976    TIP3     OH2      OT      -0.834000       15.9994           0
    105843 TIP3     31976    TIP3     H1       HT       0.417000       1.00800           0
    105844 TIP3     31976    TIP3     H2       HT       0.417000       1.00800           0
    105845 TIP3     31977    TIP3     OH2      OT      -0.834000       15.9994           0
    105846 TIP3     31977    TIP3     H1       HT       0.417000       1.00800           0
    105847 TIP3     31977    TIP3     H2       HT       0.417000       1.00800           0
    105848 TIP3     31978    TIP3     OH2      OT      -0.834000       15.9994           0
    105849 TIP3     31978    TIP3     H1       HT       0.417000       1.00800           0
    105850 TIP3     31978    TIP3     H2       HT       0.417000       1.00800           0
    105851 TIP3     31979    TIP3     OH2      OT      -0.834000       15.9994           0
    105852 TIP3     31979    TIP3     H1       HT       0.417000       1.00800           0
    105853 TIP3     31979    TIP3     H2       HT       0.417000       1.00800           0
    105854 TIP3     31980    TIP3     OH2      OT      -0.834000       15.9994           0
    105855 TIP3     31980    TIP3     H1       HT       0.417000       1.00800           0
    105856 TIP3     31980    TIP3     H2       HT       0.417000       1.00800           0
    105857 TIP3     31981    TIP3     OH2      OT      -0.834000       15.9994           0
    105858 TIP3     31981    TIP3     H1       HT       0.417000       1.00800           0
    105859 TIP3     31981    TIP3     H2       HT       0.417000       1.00800           0
    105860 TIP3     31982    TIP3     OH2      OT      -0.834000       15.9994           0
    105861 TIP3     31982    TIP3     H1       HT       0.417000       1.00800           0
    105862 TIP3     31982    TIP3     H2       HT       0.417000       1.00800           0
    105863 TIP3     31983    TIP3     OH2      OT      -0.834000       15.9994           0
    105864 TIP3     31983    TIP3     H1       HT       0.417000       1.00800           0
    105865 TIP3     31983    TIP3     H2       HT       0.417000       1.00800           0
    105866 TIP3     31984    TIP3     OH2      OT      -0.834000       15.9994           0
    105867 TIP3     31984    TIP3     H1       HT       0.417000       1.00800           0
    105868 TIP3     31984    TIP3     H2       HT       0.417000       1.00800           0
    105869 TIP3     31985    TIP3     OH2      OT      -0.834000       15.9994           0
    105870 TIP3     31985    TIP3     H1       HT       0.417000       1.00800           0
    105871 TIP3     31985    TIP3     H2       HT       0.417000       1.00800           0
    105872 TIP3     31986    TIP3     OH2      OT      -0.834000       15.9994           0
    105873 TIP3     31986    TIP3     H1       HT       0.417000       1.00800           0
    105874 TIP3     31986    TIP3     H2       HT       0.417000       1.00800           0
    105875 TIP3     31987    TIP3     OH2      OT      -0.834000       15.9994           0
    105876 TIP3     31987    TIP3     H1       HT       0.417000       1.00800           0
    105877 TIP3     31987    TIP3     H2       HT       0.417000       1.00800           0
    105878 TIP3     31988    TIP3     OH2      OT      -0.834000       15.9994           0
    105879 TIP3     31988    TIP3     H1       HT       0.417000       1.00800           0
    105880 TIP3     31988    TIP3     H2       HT       0.417000       1.00800           0
    105881 TIP3     31989    TIP3     OH2      OT      -0.834000       15.9994           0
    105882 TIP3     31989    TIP3     H1       HT       0.417000       1.00800           0
    105883 TIP3     31989    TIP3     H2       HT       0.417000       1.00800           0
    105884 TIP3     31990    TIP3     OH2      OT      -0.834000       15.9994           0
    105885 TIP3     31990    TIP3     H1       HT       0.417000       1.00800           0
    105886 TIP3     31990    TIP3     H2       HT       0.417000       1.00800           0
    105887 TIP3     31991    TIP3     OH2      OT      -0.834000       15.9994           0
    105888 TIP3     31991    TIP3     H1       HT       0.417000       1.00800           0
    105889 TIP3     31991    TIP3     H2       HT       0.417000       1.00800           0
    105890 TIP3     31992    TIP3     OH2      OT      -0.834000       15.9994           0
    105891 TIP3     31992    TIP3     H1       HT       0.417000       1.00800           0
    105892 TIP3     31992    TIP3     H2       HT       0.417000       1.00800           0
    105893 TIP3     31993    TIP3     OH2      OT      -0.834000       15.9994           0
    105894 TIP3     31993    TIP3     H1       HT       0.417000       1.00800           0
    105895 TIP3     31993    TIP3     H2       HT       0.417000       1.00800           0
    105896 TIP3     31994    TIP3     OH2      OT      -0.834000       15.9994           0
    105897 TIP3     31994    TIP3     H1       HT       0.417000       1.00800           0
    105898 TIP3     31994    TIP3     H2       HT       0.417000       1.00800           0
    105899 TIP3     31995    TIP3     OH2      OT      -0.834000       15.9994           0
    105900 TIP3     31995    TIP3     H1       HT       0.417000       1.00800           0
    105901 TIP3     31995    TIP3     H2       HT       0.417000       1.00800           0
    105902 TIP3     31996    TIP3     OH2      OT      -0.834000       15.9994           0
    105903 TIP3     31996    TIP3     H1       HT       0.417000       1.00800           0
    105904 TIP3     31996    TIP3     H2       HT       0.417000       1.00800           0
    105905 TIP3     31997    TIP3     OH2      OT      -0.834000       15.9994           0
    105906 TIP3     31997    TIP3     H1       HT       0.417000       1.00800           0
    105907 TIP3     31997    TIP3     H2       HT       0.417000       1.00800           0
    105908 TIP3     31998    TIP3     OH2      OT      -0.834000       15.9994           0
    105909 TIP3     31998    TIP3     H1       HT       0.417000       1.00800           0
    105910 TIP3     31998    TIP3     H2       HT       0.417000       1.00800           0
    105911 TIP3     31999    TIP3     OH2      OT      -0.834000       15.9994           0
    105912 TIP3     31999    TIP3     H1       HT       0.417000       1.00800           0
    105913 TIP3     31999    TIP3     H2       HT       0.417000       1.00800           0
    105914 TIP3     32000    TIP3     OH2      OT      -0.834000       15.9994           0
    105915 TIP3     32000    TIP3     H1       HT       0.417000       1.00800           0
    105916 TIP3     32000    TIP3     H2       HT       0.417000       1.00800           0
    105917 TIP3     32001    TIP3     OH2      OT      -0.834000       15.9994           0
    105918 TIP3     32001    TIP3     H1       HT       0.417000       1.00800           0
    105919 TIP3     32001    TIP3     H2       HT       0.417000       1.00800           0
    105920 TIP3     32002    TIP3     OH2      OT      -0.834000       15.9994           0
    105921 TIP3     32002    TIP3     H1       HT       0.417000       1.00800           0
    105922 TIP3     32002    TIP3     H2       HT       0.417000       1.00800           0
    105923 TIP3     32003    TIP3     OH2      OT      -0.834000       15.9994           0
    105924 TIP3     32003    TIP3     H1       HT       0.417000       1.00800           0
    105925 TIP3     32003    TIP3     H2       HT       0.417000       1.00800           0
    105926 TIP3     32004    TIP3     OH2      OT      -0.834000       15.9994           0
    105927 TIP3     32004    TIP3     H1       HT       0.417000       1.00800           0
    105928 TIP3     32004    TIP3     H2       HT       0.417000       1.00800           0
    105929 TIP3     32005    TIP3     OH2      OT      -0.834000       15.9994           0
    105930 TIP3     32005    TIP3     H1       HT       0.417000       1.00800           0
    105931 TIP3     32005    TIP3     H2       HT       0.417000       1.00800           0
    105932 TIP3     32006    TIP3     OH2      OT      -0.834000       15.9994           0
    105933 TIP3     32006    TIP3     H1       HT       0.417000       1.00800           0
    105934 TIP3     32006    TIP3     H2       HT       0.417000       1.00800           0
    105935 TIP3     32007    TIP3     OH2      OT      -0.834000       15.9994           0
    105936 TIP3     32007    TIP3     H1       HT       0.417000       1.00800           0
    105937 TIP3     32007    TIP3     H2       HT       0.417000       1.00800           0
    105938 TIP3     32008    TIP3     OH2      OT      -0.834000       15.9994           0
    105939 TIP3     32008    TIP3     H1       HT       0.417000       1.00800           0
    105940 TIP3     32008    TIP3     H2       HT       0.417000       1.00800           0
    105941 TIP3     32009    TIP3     OH2      OT      -0.834000       15.9994           0
    105942 TIP3     32009    TIP3     H1       HT       0.417000       1.00800           0
    105943 TIP3     32009    TIP3     H2       HT       0.417000       1.00800           0
    105944 TIP3     32010    TIP3     OH2      OT      -0.834000       15.9994           0
    105945 TIP3     32010    TIP3     H1       HT       0.417000       1.00800           0
    105946 TIP3     32010    TIP3     H2       HT       0.417000       1.00800           0
    105947 TIP3     32011    TIP3     OH2      OT      -0.834000       15.9994           0
    105948 TIP3     32011    TIP3     H1       HT       0.417000       1.00800           0
    105949 TIP3     32011    TIP3     H2       HT       0.417000       1.00800           0
    105950 TIP3     32012    TIP3     OH2      OT      -0.834000       15.9994           0
    105951 TIP3     32012    TIP3     H1       HT       0.417000       1.00800           0
    105952 TIP3     32012    TIP3     H2       HT       0.417000       1.00800           0
    105953 TIP3     32013    TIP3     OH2      OT      -0.834000       15.9994           0
    105954 TIP3     32013    TIP3     H1       HT       0.417000       1.00800           0
    105955 TIP3     32013    TIP3     H2       HT       0.417000       1.00800           0
    105956 TIP3     32014    TIP3     OH2      OT      -0.834000       15.9994           0
    105957 TIP3     32014    TIP3     H1       HT       0.417000       1.00800           0
    105958 TIP3     32014    TIP3     H2       HT       0.417000       1.00800           0
    105959 TIP3     32015    TIP3     OH2      OT      -0.834000       15.9994           0
    105960 TIP3     32015    TIP3     H1       HT       0.417000       1.00800           0
    105961 TIP3     32015    TIP3     H2       HT       0.417000       1.00800           0
    105962 TIP3     32016    TIP3     OH2      OT      -0.834000       15.9994           0
    105963 TIP3     32016    TIP3     H1       HT       0.417000       1.00800           0
    105964 TIP3     32016    TIP3     H2       HT       0.417000       1.00800           0
    105965 TIP3     32017    TIP3     OH2      OT      -0.834000       15.9994           0
    105966 TIP3     32017    TIP3     H1       HT       0.417000       1.00800           0
    105967 TIP3     32017    TIP3     H2       HT       0.417000       1.00800           0
    105968 TIP3     32018    TIP3     OH2      OT      -0.834000       15.9994           0
    105969 TIP3     32018    TIP3     H1       HT       0.417000       1.00800           0
    105970 TIP3     32018    TIP3     H2       HT       0.417000       1.00800           0
    105971 TIP3     32019    TIP3     OH2      OT      -0.834000       15.9994           0
    105972 TIP3     32019    TIP3     H1       HT       0.417000       1.00800           0
    105973 TIP3     32019    TIP3     H2       HT       0.417000       1.00800           0
    105974 TIP3     32020    TIP3     OH2      OT      -0.834000       15.9994           0
    105975 TIP3     32020    TIP3     H1       HT       0.417000       1.00800           0
    105976 TIP3     32020    TIP3     H2       HT       0.417000       1.00800           0
    105977 TIP3     32021    TIP3     OH2      OT      -0.834000       15.9994           0
    105978 TIP3     32021    TIP3     H1       HT       0.417000       1.00800           0
    105979 TIP3     32021    TIP3     H2       HT       0.417000       1.00800           0
    105980 TIP3     32022    TIP3     OH2      OT      -0.834000       15.9994           0
    105981 TIP3     32022    TIP3     H1       HT       0.417000       1.00800           0
    105982 TIP3     32022    TIP3     H2       HT       0.417000       1.00800           0
    105983 TIP3     32023    TIP3     OH2      OT      -0.834000       15.9994           0
    105984 TIP3     32023    TIP3     H1       HT       0.417000       1.00800           0
    105985 TIP3     32023    TIP3     H2       HT       0.417000       1.00800           0
    105986 TIP3     32024    TIP3     OH2      OT      -0.834000       15.9994           0
    105987 TIP3     32024    TIP3     H1       HT       0.417000       1.00800           0
    105988 TIP3     32024    TIP3     H2       HT       0.417000       1.00800           0
    105989 TIP3     32025    TIP3     OH2      OT      -0.834000       15.9994           0
    105990 TIP3     32025    TIP3     H1       HT       0.417000       1.00800           0
    105991 TIP3     32025    TIP3     H2       HT       0.417000       1.00800           0
    105992 TIP3     32026    TIP3     OH2      OT      -0.834000       15.9994           0
    105993 TIP3     32026    TIP3     H1       HT       0.417000       1.00800           0
    105994 TIP3     32026    TIP3     H2       HT       0.417000       1.00800           0
    105995 IONS     1        POT      POT      POT      1.000000       39.0983           0
    105996 IONS     2        POT      POT      POT      1.000000       39.0983           0
    105997 IONS     3        POT      POT      POT      1.000000       39.0983           0
    105998 IONS     4        POT      POT      POT      1.000000       39.0983           0
    105999 IONS     5        POT      POT      POT      1.000000       39.0983           0
    106000 IONS     6        POT      POT      POT      1.000000       39.0983           0
    106001 IONS     7        POT      POT      POT      1.000000       39.0983           0
    106002 IONS     8        POT      POT      POT      1.000000       39.0983           0
    106003 IONS     9        POT      POT      POT      1.000000       39.0983           0
    106004 IONS     10       POT      POT      POT      1.000000       39.0983           0
    106005 IONS     11       POT      POT      POT      1.000000       39.0983           0
    106006 IONS     12       POT      POT      POT      1.000000       39.0983           0
    106007 IONS     13       POT      POT      POT      1.000000       39.0983           0
    106008 IONS     14       POT      POT      POT      1.000000       39.0983           0
    106009 IONS     15       POT      POT      POT      1.000000       39.0983           0
    106010 IONS     16       POT      POT      POT      1.000000       39.0983           0
    106011 IONS     17       POT      POT      POT      1.000000       39.0983           0
    106012 IONS     18       POT      POT      POT      1.000000       39.0983           0
    106013 IONS     19       POT      POT      POT      1.000000       39.0983           0
    106014 IONS     20       POT      POT      POT      1.000000       39.0983           0
    106015 IONS     21       POT      POT      POT      1.000000       39.0983           0
    106016 IONS     22       POT      POT      POT      1.000000       39.0983           0
    106017 IONS     23       POT      POT      POT      1.000000       39.0983           0
    106018 IONS     24       POT      POT      POT      1.000000       39.0983           0
    106019 IONS     25       POT      POT      POT      1.000000       39.0983           0
    106020 IONS     26       POT      POT      POT      1.000000       39.0983           0
    106021 IONS     27       POT      POT      POT      1.000000       39.0983           0
    106022 IONS     28       POT      POT      POT      1.000000       39.0983           0
    106023 IONS     29       POT      POT      POT      1.000000       39.0983           0
    106024 IONS     30       POT      POT      POT      1.000000       39.0983           0
    106025 IONS     31       POT      POT      POT      1.000000       39.0983           0
    106026 IONS     32       POT      POT      POT      1.000000       39.0983           0
    106027 IONS     33       POT      POT      POT      1.000000       39.0983           0
    106028 IONS     34       POT      POT      POT      1.000000       39.0983           0
    106029 IONS     35       POT      POT      POT      1.000000       39.0983           0
    106030 IONS     36       POT      POT      POT      1.000000       39.0983           0
    106031 IONS     37       POT      POT      POT      1.000000       39.0983           0
    106032 IONS     38       POT      POT      POT      1.000000       39.0983           0
    106033 IONS     39       POT      POT      POT      1.000000       39.0983           0
    106034 IONS     40       POT      POT      POT      1.000000       39.0983           0
    106035 IONS     41       POT      POT      POT      1.000000       39.0983           0
    106036 IONS     42       POT      POT      POT      1.000000       39.0983           0
    106037 IONS     43       POT      POT      POT      1.000000       39.0983           0
    106038 IONS     44       POT      POT      POT      1.000000       39.0983           0
    106039 IONS     45       POT      POT      POT      1.000000       39.0983           0
    106040 IONS     46       POT      POT      POT      1.000000       39.0983           0
    106041 IONS     47       POT      POT      POT      1.000000       39.0983           0
    106042 IONS     48       POT      POT      POT      1.000000       39.0983           0
    106043 IONS     49       POT      POT      POT      1.000000       39.0983           0
    106044 IONS     50       POT      POT      POT      1.000000       39.0983           0
    106045 IONS     51       POT      POT      POT      1.000000       39.0983           0
    106046 IONS     52       POT      POT      POT      1.000000       39.0983           0
    106047 IONS     53       POT      POT      POT      1.000000       39.0983           0
    106048 IONS     54       POT      POT      POT      1.000000       39.0983           0
    106049 IONS     55       POT      POT      POT      1.000000       39.0983           0
    106050 IONS     56       POT      POT      POT      1.000000       39.0983           0
    106051 IONS     57       POT      POT      POT      1.000000       39.0983           0
    106052 IONS     58       POT      POT      POT      1.000000       39.0983           0
    106053 IONS     59       POT      POT      POT      1.000000       39.0983           0
    106054 IONS     60       POT      POT      POT      1.000000       39.0983           0
    106055 IONS     61       POT      POT      POT      1.000000       39.0983           0
    106056 IONS     62       POT      POT      POT      1.000000       39.0983           0
    106057 IONS     63       POT      POT      POT      1.000000       39.0983           0
    106058 IONS     64       POT      POT      POT      1.000000       39.0983           0
    106059 IONS     65       POT      POT      POT      1.000000       39.0983           0
    106060 IONS     66       POT      POT      POT      1.000000       39.0983           0
    106061 IONS     67       POT      POT      POT      1.000000       39.0983           0
    106062 IONS     68       POT      POT      POT      1.000000       39.0983           0
    106063 IONS     69       POT      POT      POT      1.000000       39.0983           0
    106064 IONS     70       POT      POT      POT      1.000000       39.0983           0
    106065 IONS     71       POT      POT      POT      1.000000       39.0983           0
    106066 IONS     72       POT      POT      POT      1.000000       39.0983           0
    106067 IONS     73       POT      POT      POT      1.000000       39.0983           0
    106068 IONS     74       POT      POT      POT      1.000000       39.0983           0
    106069 IONS     75       POT      POT      POT      1.000000       39.0983           0
    106070 IONS     76       POT      POT      POT      1.000000       39.0983           0
    106071 IONS     77       POT      POT      POT      1.000000       39.0983           0
    106072 IONS     78       POT      POT      POT      1.000000       39.0983           0
    106073 IONS     79       POT      POT      POT      1.000000       39.0983           0
    106074 IONS     80       POT      POT      POT      1.000000       39.0983           0
    106075 IONS     81       POT      POT      POT      1.000000       39.0983           0
    106076 IONS     82       POT      POT      POT      1.000000       39.0983           0
    106077 IONS     83       POT      POT      POT      1.000000       39.0983           0
    106078 IONS     84       POT      POT      POT      1.000000       39.0983           0
    106079 IONS     85       POT      POT      POT      1.000000       39.0983           0
    106080 IONS     86       POT      POT      POT      1.000000       39.0983           0
    106081 IONS     87       POT      POT      POT      1.000000       39.0983           0
    106082 IONS     88       POT      POT      POT      1.000000       39.0983           0
    106083 IONS     89       CLA      CLA      CLA     -1.000000       35.4500           0
    106084 IONS     90       CLA      CLA      CLA     -1.000000       35.4500           0
    106085 IONS     91       CLA      CLA      CLA     -1.000000       35.4500           0
    106086 IONS     92       CLA      CLA      CLA     -1.000000       35.4500           0
    106087 IONS     93       CLA      CLA      CLA     -1.000000       35.4500           0
    106088 IONS     94       CLA      CLA      CLA     -1.000000       35.4500           0
    106089 IONS     95       CLA      CLA      CLA     -1.000000       35.4500           0
    106090 IONS     96       CLA      CLA      CLA     -1.000000       35.4500           0
    106091 IONS     97       CLA      CLA      CLA     -1.000000       35.4500           0
    106092 IONS     98       CLA      CLA      CLA     -1.000000       35.4500           0
    106093 IONS     99       CLA      CLA      CLA     -1.000000       35.4500           0
    106094 IONS     100      CLA      CLA      CLA     -1.000000       35.4500           0
    106095 IONS     101      CLA      CLA      CLA     -1.000000       35.4500           0
    106096 IONS     102      CLA      CLA      CLA     -1.000000       35.4500           0
    106097 IONS     103      CLA      CLA      CLA     -1.000000       35.4500           0
    106098 IONS     104      CLA      CLA      CLA     -1.000000       35.4500           0
    106099 IONS     105      CLA      CLA      CLA     -1.000000       35.4500           0
    106100 IONS     106      CLA      CLA      CLA     -1.000000       35.4500           0
    106101 IONS     107      CLA      CLA      CLA     -1.000000       35.4500           0
    106102 IONS     108      CLA      CLA      CLA     -1.000000       35.4500           0
    106103 IONS     109      CLA      CLA      CLA     -1.000000       35.4500           0
    106104 IONS     110      CLA      CLA      CLA     -1.000000       35.4500           0
    106105 IONS     111      CLA      CLA      CLA     -1.000000       35.4500           0
    106106 IONS     112      CLA      CLA      CLA     -1.000000       35.4500           0
    106107 IONS     113      CLA      CLA      CLA     -1.000000       35.4500           0
    106108 IONS     114      CLA      CLA      CLA     -1.000000       35.4500           0
    106109 IONS     115      CLA      CLA      CLA     -1.000000       35.4500           0
    106110 IONS     116      CLA      CLA      CLA     -1.000000       35.4500           0
    106111 IONS     117      CLA      CLA      CLA     -1.000000       35.4500           0
    106112 IONS     118      CLA      CLA      CLA     -1.000000       35.4500           0
    106113 IONS     119      CLA      CLA      CLA     -1.000000       35.4500           0
    106114 IONS     120      CLA      CLA      CLA     -1.000000       35.4500           0
    106115 IONS     121      CLA      CLA      CLA     -1.000000       35.4500           0
    106116 IONS     122      CLA      CLA      CLA     -1.000000       35.4500           0
    106117 IONS     123      CLA      CLA      CLA     -1.000000       35.4500           0
    106118 IONS     124      CLA      CLA      CLA     -1.000000       35.4500           0
    106119 IONS     125      CLA      CLA      CLA     -1.000000       35.4500           0
    106120 IONS     126      CLA      CLA      CLA     -1.000000       35.4500           0
    106121 IONS     127      CLA      CLA      CLA     -1.000000       35.4500           0
    106122 IONS     128      CLA      CLA      CLA     -1.000000       35.4500           0
    106123 IONS     129      CLA      CLA      CLA     -1.000000       35.4500           0
    106124 IONS     130      CLA      CLA      CLA     -1.000000       35.4500           0
    106125 IONS     131      CLA      CLA      CLA     -1.000000       35.4500           0
    106126 IONS     132      CLA      CLA      CLA     -1.000000       35.4500           0
    106127 IONS     133      CLA      CLA      CLA     -1.000000       35.4500           0
    106128 IONS     134      CLA      CLA      CLA     -1.000000       35.4500           0
    106129 IONS     135      CLA      CLA      CLA     -1.000000       35.4500           0
    106130 IONS     136      CLA      CLA      CLA     -1.000000       35.4500           0
    106131 IONS     137      CLA      CLA      CLA     -1.000000       35.4500           0
    106132 IONS     138      CLA      CLA      CLA     -1.000000       35.4500           0
    106133 IONS     139      CLA      CLA      CLA     -1.000000       35.4500           0
    106134 IONS     140      CLA      CLA      CLA     -1.000000       35.4500           0
    106135 IONS     141      CLA      CLA      CLA     -1.000000       35.4500           0
    106136 IONS     142      CLA      CLA      CLA     -1.000000       35.4500           0
    106137 IONS     143      CLA      CLA      CLA     -1.000000       35.4500           0
    106138 IONS     144      CLA      CLA      CLA     -1.000000       35.4500           0
    106139 IONS     145      CLA      CLA      CLA     -1.000000       35.4500           0
    106140 IONS     146      CLA      CLA      CLA     -1.000000       35.4500           0
    106141 IONS     147      CLA      CLA      CLA     -1.000000       35.4500           0
    106142 IONS     148      CLA      CLA      CLA     -1.000000       35.4500           0
    106143 IONS     149      CLA      CLA      CLA     -1.000000       35.4500           0
    106144 IONS     150      CLA      CLA      CLA     -1.000000       35.4500           0
    106145 IONS     151      CLA      CLA      CLA     -1.000000       35.4500           0
    106146 IONS     152      CLA      CLA      CLA     -1.000000       35.4500           0
    106147 IONS     153      CLA      CLA      CLA     -1.000000       35.4500           0
    106148 IONS     154      CLA      CLA      CLA     -1.000000       35.4500           0
    106149 IONS     155      CLA      CLA      CLA     -1.000000       35.4500           0
    106150 IONS     156      CLA      CLA      CLA     -1.000000       35.4500           0
    106151 IONS     157      CLA      CLA      CLA     -1.000000       35.4500           0
    106152 IONS     158      CLA      CLA      CLA     -1.000000       35.4500           0
    106153 IONS     159      CLA      CLA      CLA     -1.000000       35.4500           0
    106154 IONS     160      CLA      CLA      CLA     -1.000000       35.4500           0
    106155 IONS     161      CLA      CLA      CLA     -1.000000       35.4500           0
    106156 IONS     162      CLA      CLA      CLA     -1.000000       35.4500           0
    106157 IONS     163      CLA      CLA      CLA     -1.000000       35.4500           0
    106158 IONS     164      CLA      CLA      CLA     -1.000000       35.4500           0
    106159 IONS     165      CLA      CLA      CLA     -1.000000       35.4500           0
    106160 IONS     166      CLA      CLA      CLA     -1.000000       35.4500           0
    106161 IONS     167      CLA      CLA      CLA     -1.000000       35.4500           0
    106162 IONS     168      CLA      CLA      CLA     -1.000000       35.4500           0
    106163 IONS     169      CLA      CLA      CLA     -1.000000       35.4500           0
    106164 IONS     170      CLA      CLA      CLA     -1.000000       35.4500           0
    106165 IONS     171      CLA      CLA      CLA     -1.000000       35.4500           0
    106166 IONS     172      CLA      CLA      CLA     -1.000000       35.4500           0
    106167 IONS     173      CLA      CLA      CLA     -1.000000       35.4500           0
    106168 IONS     174      CLA      CLA      CLA     -1.000000       35.4500           0
    106169 IONS     175      CLA      CLA      CLA     -1.000000       35.4500           0
    106170 IONS     176      CLA      CLA      CLA     -1.000000       35.4500           0

    105920 !NBOND: bonds
         1         5         1         9         1        13         5         6
         5         7         5         8         9        10         9        11
         9        12        13        14        13        15        13        16
         1         2         2         3         2         4         2        17
        17        18        17        19        17        23        24        25
        23        20        20        24        20        21        20        22
        25        26        25        27        25        28        28        29
        28        36        28        30        36        37        36        38
        36        39        30        31        31        33        31        32
        33        34        33        35        33        45        45        46
        45        47        45        48        48        49        48        50
        48        51        51        52        51        53        51        54
        54        55        54        56        54        57        57        58
        57        59        57        60        60        61        60        62
        60        63        63        64        63        65        65        66
        65        67        67        68        67        69        67        70
        70        71        70        72        70        73        73        74
        73        75        73        76        76        77        76        78
        76        79        79        80        79        81        79        82
        82        83        82        84        82        85        85        86
        85        87        85        88        88        89        88        90
        88        91        39        40        40        42        40        41
        42        43        42        44        42        92        92        93
        92        94        92        95        95        96        95        97
        95        98        98        99        98       100        98       101
       101       102       101       103       101       104       104       105
       104       106       104       107       107       108       107       109
       107       110       110       111       110       112       110       113
       113       114       113       115       113       116       116       117
       116       118       116       119       119       120       119       121
       119       122       122       123       122       124       122       125
       125       126       125       127       125       128       128       129
       128       130       128       131       131       132       131       133
       131       134       135       139       135       143       135       147
       139       140       139       141       139       142       143       144
       143       145       143       146       147       148       147       149
       147       150       135       136       136       137       136       138
       136       151       151       152       151       153       151       157
       158       159       157       154       154       158       154       155
       154       156       159       160       159       161       159       162
       162       163       162       170       162       164       170       171
       170       172       170       173       164       165       165       167
       165       166       167       168       167       169       167       179
       179       180       179       181       179       182       182       183
       182       184       182       185       185       186       185       187
       185       188       188       189       188       190       188       191
       191       192       191       193       191       194       194       195
       194       196       194       197       197       198       197       199
       199       200       199       201       201       202       201       203
       201       204       204       205       204       206       204       207
       207       208       207       209       207       210       210       211
       210       212       210       213       213       214       213       215
       213       216       216       217       216       218       216       219
       219       220       219       221       219       222       222       223
       222       224       222       225       173       174       174       176
       174       175       176       177       176       178       176       226
       226       227       226       228       226       229       229       230
       229       231       229       232       232       233       232       234
       232       235       235       236       235       237       235       238
       238       239       238       240       238       241       241       242
       241       243       241       244       244       245       244       246
       244       247       247       248       247       249       247       250
       250       251       250       252       250       253       253       254
       253       255       253       256       256       257       256       258
       256       259       259       260       259       261       259       262
       262       263       262       264       262       265       265       266
       265       267       265       268       269       273       269       277
       269       281       273       274       273       275       273       276
       277       278       277       279       277       280       281       282
       281       283       281       284       269       270       270       271
       270       272       270       285       285       286       285       287
       285       291       292       293       291       288       288       292
       288       289       288       290       293       294       293       295
       293       296       296       297       296       304       296       298
       304       305       304       306       304       307       298       299
       299       301       299       300       301       302       301       303
       301       313       313       314       313       315       313       316
       316       317       316       318       316       319       319       320
       319       321       319       322       322       323       322       324
       322       325       325       326       325       327       325       328
       328       329       328       330       328       331       331       332
       331       333       333       334       333       335       335       336
       335       337       335       338       338       339       338       340
       338       341       341       342       341       343       341       344
       344       345       344       346       344       347       347       348
       347       349       347       350       350       351       350       352
       350       353       353       354       353       355       353       356
       356       357       356       358       356       359       307       308
       308       310       308       309       310       311       310       312
       310       360       360       361       360       362       360       363
       363       364       363       365       363       366       366       367
       366       368       366       369       369       370       369       371
       369       372       372       373       372       374       372       375
       375       376       375       377       375       378       378       379
       378       380       378       381       381       382       381       383
       381       384       384       385       384       386       384       387
       387       388       387       389       387       390       390       391
       390       392       390       393       393       394       393       395
       393       396       396       397       396       398       396       399
       399       400       399       401       399       402       403       407
       403       411       403       415       407       408       407       409
       407       410       411       412       411       413       411       414
       415       416       415       417       415       418       403       404
       404       405       404       406       404       419       419       420
       419       421       419       425       426       427       425       422
       422       426       422       423       422       424       427       428
       427       429       427       430       430       431       430       438
       430       432       438       439       438       440       438       441
       432       433       433       435       433       434       435       436
       435       437       435       447       447       448       447       449
       447       450       450       451       450       452       450       453
       453       454       453       455       453       456       456       457
       456       458       456       459       459       460       459       461
       459       462       462       463       462       464       462       465
       465       466       465       467       467       468       467       469
       469       470       469       471       469       472       472       473
       472       474       472       475       475       476       475       477
       475       478       478       479       478       480       478       481
       481       482       481       483       481       484       484       485
       484       486       484       487       487       488       487       489
       487       490       490       491       490       492       490       493
       441       442       442       444       442       443       444       445
       444       446       444       494       494       495       494       496
       494       497       497       498       497       499       497       500
       500       501       500       502       500       503       503       504
       503       505       503       506       506       507       506       508
       506       509       509       510       509       511       509       512
       512       513       512       514       512       515       515       516
       515       517       515       518       518       519       518       520
       518       521       521       522       521       523       521       524
       524       525       524       526       524       527       527       528
       527       529       527       530       530       531       530       532
       530       533       533       534       533       535       533       536
       537       541       537       545       537       549       541       542
       541       543       541       544       545       546       545       547
       545       548       549       550       549       551       549       552
       537       538       538       539       538       540       538       553
       553       554       553       555       553       559       560       561
       559       556       556       560       556       557       556       558
       561       562       561       563       561       564       564       565
       564       572       564       566       572       573       572       574
       572       575       566       567       567       569       567       568
       569       570       569       571       569       581       581       582
       581       583       581       584       584       585       584       586
       584       587       587       588       587       589       587       590
       590       591       590       592       590       593       593       594
       593       595       593       596       596       597       596       598
       596       599       599       600       599       601       601       602
       601       603       603       604       603       605       603       606
       606       607       606       608       606       609       609       610
       609       611       609       612       612       613       612       614
       612       615       615       616       615       617       615       618
       618       619       618       620       618       621       621       622
       621       623       621       624       624       625       624       626
       624       627       575       576       576       578       576       577
       578       579       578       580       578       628       628       629
       628       630       628       631       631       632       631       633
       631       634       634       635       634       636       634       637
       637       638       637       639       637       640       640       641
       640       642       640       643       643       644       643       645
       643       646       646       647       646       648       646       649
       649       650       649       651       649       652       652       653
       652       654       652       655       655       656       655       657
       655       658       658       659       658       660       658       661
       661       662       661       663       661       664       664       665
       664       666       664       667       667       668       667       669
       667       670       671       675       671       679       671       683
       675       676       675       677       675       678       679       680
       679       681       679       682       683       684       683       685
       683       686       671       672       672       673       672       674
       672       687       687       688       687       689       687       693
       694       695       693       690       690       694       690       691
       690       692       695       696       695       697       695       698
       698       699       698       706       698       700       706       707
       706       708       706       709       700       701       701       703
       701       702       703       704       703       705       703       715
       715       716       715       717       715       718       718       719
       718       720       718       721       721       722       721       723
       721       724       724       725       724       726       724       727
       727       728       727       729       727       730       730       731
       730       732       730       733       733       734       733       735
       735       736       735       737       737       738       737       739
       737       740       740       741       740       742       740       743
       743       744       743       745       743       746       746       747
       746       748       746       749       749       750       749       751
       749       752       752       753       752       754       752       755
       755       756       755       757       755       758       758       759
       758       760       758       761       709       710       710       712
       710       711       712       713       712       714       712       762
       762       763       762       764       762       765       765       766
       765       767       765       768       768       769       768       770
       768       771       771       772       771       773       771       774
       774       775       774       776       774       777       777       778
       777       779       777       780       780       781       780       782
       780       783       783       784       783       785       783       786
       786       787       786       788       786       789       789       790
       789       791       789       792       792       793       792       794
       792       795       795       796       795       797       795       798
       798       799       798       800       798       801       801       802
       801       803       801       804       805       809       805       813
       805       817       809       810       809       811       809       812
       813       814       813       815       813       816       817       818
       817       819       817       820       805       806       806       807
       806       808       806       821       821       822       821       823
       821       827       828       829       827       824       824       828
       824       825       824       826       829       830       829       831
       829       832       832       833       832       840       832       834
       840       841       840       842       840       843       834       835
       835       837       835       836       837       838       837       839
       837       849       849       850       849       851       849       852
       852       853       852       854       852       855       855       856
       855       857       855       858       858       859       858       860
       858       861       861       862       861       863       861       864
       864       865       864       866       864       867       867       868
       867       869       869       870       869       871       871       872
       871       873       871       874       874       875       874       876
       874       877       877       878       877       879       877       880
       880       881       880       882       880       883       883       884
       883       885       883       886       886       887       886       888
       886       889       889       890       889       891       889       892
       892       893       892       894       892       895       843       844
       844       846       844       845       846       847       846       848
       846       896       896       897       896       898       896       899
       899       900       899       901       899       902       902       903
       902       904       902       905       905       906       905       907
       905       908       908       909       908       910       908       911
       911       912       911       913       911       914       914       915
       914       916       914       917       917       918       917       919
       917       920       920       921       920       922       920       923
       923       924       923       925       923       926       926       927
       926       928       926       929       929       930       929       931
       929       932       932       933       932       934       932       935
       935       936       935       937       935       938       939       943
       939       947       939       951       943       944       943       945
       943       946       947       948       947       949       947       950
       951       952       951       953       951       954       939       940
       940       941       940       942       940       955       955       956
       955       957       955       961       962       963       961       958
       958       962       958       959       958       960       963       964
       963       965       963       966       966       967       966       974
       966       968       974       975       974       976       974       977
       968       969       969       971       969       970       971       972
       971       973       971       983       983       984       983       985
       983       986       986       987       986       988       986       989
       989       990       989       991       989       992       992       993
       992       994       992       995       995       996       995       997
       995       998       998       999       998      1000       998      1001
      1001      1002      1001      1003      1003      1004      1003      1005
      1005      1006      1005      1007      1005      1008      1008      1009
      1008      1010      1008      1011      1011      1012      1011      1013
      1011      1014      1014      1015      1014      1016      1014      1017
      1017      1018      1017      1019      1017      1020      1020      1021
      1020      1022      1020      1023      1023      1024      1023      1025
      1023      1026      1026      1027      1026      1028      1026      1029
       977       978       978       980       978       979       980       981
       980       982       980      1030      1030      1031      1030      1032
      1030      1033      1033      1034      1033      1035      1033      1036
      1036      1037      1036      1038      1036      1039      1039      1040
      1039      1041      1039      1042      1042      1043      1042      1044
      1042      1045      1045      1046      1045      1047      1045      1048
      1048      1049      1048      1050      1048      1051      1051      1052
      1051      1053      1051      1054      1054      1055      1054      1056
      1054      1057      1057      1058      1057      1059      1057      1060
      1060      1061      1060      1062      1060      1063      1063      1064
      1063      1065      1063      1066      1066      1067      1066      1068
      1066      1069      1069      1070      1069      1071      1069      1072
      1073      1077      1073      1081      1073      1085      1077      1078
      1077      1079      1077      1080      1081      1082      1081      1083
      1081      1084      1085      1086      1085      1087      1085      1088
      1073      1074      1074      1075      1074      1076      1074      1089
      1089      1090      1089      1091      1089      1095      1096      1097
      1095      1092      1092      1096      1092      1093      1092      1094
      1097      1098      1097      1099      1097      1100      1100      1101
      1100      1108      1100      1102      1108      1109      1108      1110
      1108      1111      1102      1103      1103      1105      1103      1104
      1105      1106      1105      1107      1105      1117      1117      1118
      1117      1119      1117      1120      1120      1121      1120      1122
      1120      1123      1123      1124      1123      1125      1123      1126
      1126      1127      1126      1128      1126      1129      1129      1130
      1129      1131      1129      1132      1132      1133      1132      1134
      1132      1135      1135      1136      1135      1137      1137      1138
      1137      1139      1139      1140      1139      1141      1139      1142
      1142      1143      1142      1144      1142      1145      1145      1146
      1145      1147      1145      1148      1148      1149      1148      1150
      1148      1151      1151      1152      1151      1153      1151      1154
      1154      1155      1154      1156      1154      1157      1157      1158
      1157      1159      1157      1160      1160      1161      1160      1162
      1160      1163      1111      1112      1112      1114      1112      1113
      1114      1115      1114      1116      1114      1164      1164      1165
      1164      1166      1164      1167      1167      1168      1167      1169
      1167      1170      1170      1171      1170      1172      1170      1173
      1173      1174      1173      1175      1173      1176      1176      1177
      1176      1178      1176      1179      1179      1180      1179      1181
      1179      1182      1182      1183      1182      1184      1182      1185
      1185      1186      1185      1187      1185      1188      1188      1189
      1188      1190      1188      1191      1191      1192      1191      1193
      1191      1194      1194      1195      1194      1196      1194      1197
      1197      1198      1197      1199      1197      1200      1200      1201
      1200      1202      1200      1203      1203      1204      1203      1205
      1203      1206      1207      1211      1207      1215      1207      1219
      1211      1212      1211      1213      1211      1214      1215      1216
      1215      1217      1215      1218      1219      1220      1219      1221
      1219      1222      1207      1208      1208      1209      1208      1210
      1208      1223      1223      1224      1223      1225      1223      1229
      1230      1231      1229      1226      1226      1230      1226      1227
      1226      1228      1231      1232      1231      1233      1231      1234
      1234      1235      1234      1242      1234      1236      1242      1243
      1242      1244      1242      1245      1236      1237      1237      1239
      1237      1238      1239      1240      1239      1241      1239      1251
      1251      1252      1251      1253      1251      1254      1254      1255
      1254      1256      1254      1257      1257      1258      1257      1259
      1257      1260      1260      1261      1260      1262      1260      1263
      1263      1264      1263      1265      1263      1266      1266      1267
      1266      1268      1266      1269      1269      1270      1269      1271
      1271      1272      1271      1273      1273      1274      1273      1275
      1273      1276      1276      1277      1276      1278      1276      1279
      1279      1280      1279      1281      1279      1282      1282      1283
      1282      1284      1282      1285      1285      1286      1285      1287
      1285      1288      1288      1289      1288      1290      1288      1291
      1291      1292      1291      1293      1291      1294      1294      1295
      1294      1296      1294      1297      1245      1246      1246      1248
      1246      1247      1248      1249      1248      1250      1248      1298
      1298      1299      1298      1300      1298      1301      1301      1302
      1301      1303      1301      1304      1304      1305      1304      1306
      1304      1307      1307      1308      1307      1309      1307      1310
      1310      1311      1310      1312      1310      1313      1313      1314
      1313      1315      1313      1316      1316      1317      1316      1318
      1316      1319      1319      1320      1319      1321      1319      1322
      1322      1323      1322      1324      1322      1325      1325      1326
      1325      1327      1325      1328      1328      1329      1328      1330
      1328      1331      1331      1332      1331      1333      1331      1334
      1334      1335      1334      1336      1334      1337      1337      1338
      1337      1339      1337      1340      1341      1345      1341      1349
      1341      1353      1345      1346      1345      1347      1345      1348
      1349      1350      1349      1351      1349      1352      1353      1354
      1353      1355      1353      1356      1341      1342      1342      1343
      1342      1344      1342      1357      1357      1358      1357      1359
      1357      1363      1364      1365      1363      1360      1360      1364
      1360      1361      1360      1362      1365      1366      1365      1367
      1365      1368      1368      1369      1368      1376      1368      1370
      1376      1377      1376      1378      1376      1379      1370      1371
      1371      1373      1371      1372      1373      1374      1373      1375
      1373      1385      1385      1386      1385      1387      1385      1388
      1388      1389      1388      1390      1388      1391      1391      1392
      1391      1393      1391      1394      1394      1395      1394      1396
      1394      1397      1397      1398      1397      1399      1397      1400
      1400      1401      1400      1402      1400      1403      1403      1404
      1403      1405      1405      1406      1405      1407      1407      1408
      1407      1409      1407      1410      1410      1411      1410      1412
      1410      1413      1413      1414      1413      1415      1413      1416
      1416      1417      1416      1418      1416      1419      1419      1420
      1419      1421      1419      1422      1422      1423      1422      1424
      1422      1425      1425      1426      1425      1427      1425      1428
      1428      1429      1428      1430      1428      1431      1379      1380
      1380      1382      1380      1381      1382      1383      1382      1384
      1382      1432      1432      1433      1432      1434      1432      1435
      1435      1436      1435      1437      1435      1438      1438      1439
      1438      1440      1438      1441      1441      1442      1441      1443
      1441      1444      1444      1445      1444      1446      1444      1447
      1447      1448      1447      1449      1447      1450      1450      1451
      1450      1452      1450      1453      1453      1454      1453      1455
      1453      1456      1456      1457      1456      1458      1456      1459
      1459      1460      1459      1461      1459      1462      1462      1463
      1462      1464      1462      1465      1465      1466      1465      1467
      1465      1468      1468      1469      1468      1470      1468      1471
      1471      1472      1471      1473      1471      1474      1475      1479
      1475      1483      1475      1487      1479      1480      1479      1481
      1479      1482      1483      1484      1483      1485      1483      1486
      1487      1488      1487      1489      1487      1490      1475      1476
      1476      1477      1476      1478      1476      1491      1491      1492
      1491      1493      1491      1497      1498      1499      1497      1494
      1494      1498      1494      1495      1494      1496      1499      1500
      1499      1501      1499      1502      1502      1503      1502      1510
      1502      1504      1510      1511      1510      1512      1510      1513
      1504      1505      1505      1507      1505      1506      1507      1508
      1507      1509      1507      1519      1519      1520      1519      1521
      1519      1522      1522      1523      1522      1524      1522      1525
      1525      1526      1525      1527      1525      1528      1528      1529
      1528      1530      1528      1531      1531      1532      1531      1533
      1531      1534      1534      1535      1534      1536      1534      1537
      1537      1538      1537      1539      1539      1540      1539      1541
      1541      1542      1541      1543      1541      1544      1544      1545
      1544      1546      1544      1547      1547      1548      1547      1549
      1547      1550      1550      1551      1550      1552      1550      1553
      1553      1554      1553      1555      1553      1556      1556      1557
      1556      1558      1556      1559      1559      1560      1559      1561
      1559      1562      1562      1563      1562      1564      1562      1565
      1513      1514      1514      1516      1514      1515      1516      1517
      1516      1518      1516      1566      1566      1567      1566      1568
      1566      1569      1569      1570      1569      1571      1569      1572
      1572      1573      1572      1574      1572      1575      1575      1576
      1575      1577      1575      1578      1578      1579      1578      1580
      1578      1581      1581      1582      1581      1583      1581      1584
      1584      1585      1584      1586      1584      1587      1587      1588
      1587      1589      1587      1590      1590      1591      1590      1592
      1590      1593      1593      1594      1593      1595      1593      1596
      1596      1597      1596      1598      1596      1599      1599      1600
      1599      1601      1599      1602      1602      1603      1602      1604
      1602      1605      1605      1606      1605      1607      1605      1608
      1609      1613      1609      1617      1609      1621      1613      1614
      1613      1615      1613      1616      1617      1618      1617      1619
      1617      1620      1621      1622      1621      1623      1621      1624
      1609      1610      1610      1611      1610      1612      1610      1625
      1625      1626      1625      1627      1625      1631      1632      1633
      1631      1628      1628      1632      1628      1629      1628      1630
      1633      1634      1633      1635      1633      1636      1636      1637
      1636      1644      1636      1638      1644      1645      1644      1646
      1644      1647      1638      1639      1639      1641      1639      1640
      1641      1642      1641      1643      1641      1653      1653      1654
      1653      1655      1653      1656      1656      1657      1656      1658
      1656      1659      1659      1660      1659      1661      1659      1662
      1662      1663      1662      1664      1662      1665      1665      1666
      1665      1667      1665      1668      1668      1669      1668      1670
      1668      1671      1671      1672      1671      1673      1673      1674
      1673      1675      1675      1676      1675      1677      1675      1678
      1678      1679      1678      1680      1678      1681      1681      1682
      1681      1683      1681      1684      1684      1685      1684      1686
      1684      1687      1687      1688      1687      1689      1687      1690
      1690      1691      1690      1692      1690      1693      1693      1694
      1693      1695      1693      1696      1696      1697      1696      1698
      1696      1699      1647      1648      1648      1650      1648      1649
      1650      1651      1650      1652      1650      1700      1700      1701
      1700      1702      1700      1703      1703      1704      1703      1705
      1703      1706      1706      1707      1706      1708      1706      1709
      1709      1710      1709      1711      1709      1712      1712      1713
      1712      1714      1712      1715      1715      1716      1715      1717
      1715      1718      1718      1719      1718      1720      1718      1721
      1721      1722      1721      1723      1721      1724      1724      1725
      1724      1726      1724      1727      1727      1728      1727      1729
      1727      1730      1730      1731      1730      1732      1730      1733
      1733      1734      1733      1735      1733      1736      1736      1737
      1736      1738      1736      1739      1739      1740      1739      1741
      1739      1742      1743      1747      1743      1751      1743      1755
      1747      1748      1747      1749      1747      1750      1751      1752
      1751      1753      1751      1754      1755      1756      1755      1757
      1755      1758      1743      1744      1744      1745      1744      1746
      1744      1759      1759      1760      1759      1761      1759      1765
      1766      1767      1765      1762      1762      1766      1762      1763
      1762      1764      1767      1768      1767      1769      1767      1770
      1770      1771      1770      1778      1770      1772      1778      1779
      1778      1780      1778      1781      1772      1773      1773      1775
      1773      1774      1775      1776      1775      1777      1775      1787
      1787      1788      1787      1789      1787      1790      1790      1791
      1790      1792      1790      1793      1793      1794      1793      1795
      1793      1796      1796      1797      1796      1798      1796      1799
      1799      1800      1799      1801      1799      1802      1802      1803
      1802      1804      1802      1805      1805      1806      1805      1807
      1807      1808      1807      1809      1809      1810      1809      1811
      1809      1812      1812      1813      1812      1814      1812      1815
      1815      1816      1815      1817      1815      1818      1818      1819
      1818      1820      1818      1821      1821      1822      1821      1823
      1821      1824      1824      1825      1824      1826      1824      1827
      1827      1828      1827      1829      1827      1830      1830      1831
      1830      1832      1830      1833      1781      1782      1782      1784
      1782      1783      1784      1785      1784      1786      1784      1834
      1834      1835      1834      1836      1834      1837      1837      1838
      1837      1839      1837      1840      1840      1841      1840      1842
      1840      1843      1843      1844      1843      1845      1843      1846
      1846      1847      1846      1848      1846      1849      1849      1850
      1849      1851      1849      1852      1852      1853      1852      1854
      1852      1855      1855      1856      1855      1857      1855      1858
      1858      1859      1858      1860      1858      1861      1861      1862
      1861      1863      1861      1864      1864      1865      1864      1866
      1864      1867      1867      1868      1867      1869      1867      1870
      1870      1871      1870      1872      1870      1873      1873      1874
      1873      1875      1873      1876      1877      1881      1877      1885
      1877      1889      1881      1882      1881      1883      1881      1884
      1885      1886      1885      1887      1885      1888      1889      1890
      1889      1891      1889      1892      1877      1878      1878      1879
      1878      1880      1878      1893      1893      1894      1893      1895
      1893      1899      1900      1901      1899      1896      1896      1900
      1896      1897      1896      1898      1901      1902      1901      1903
      1901      1904      1904      1905      1904      1912      1904      1906
      1912      1913      1912      1914      1912      1915      1906      1907
      1907      1909      1907      1908      1909      1910      1909      1911
      1909      1921      1921      1922      1921      1923      1921      1924
      1924      1925      1924      1926      1924      1927      1927      1928
      1927      1929      1927      1930      1930      1931      1930      1932
      1930      1933      1933      1934      1933      1935      1933      1936
      1936      1937      1936      1938      1936      1939      1939      1940
      1939      1941      1941      1942      1941      1943      1943      1944
      1943      1945      1943      1946      1946      1947      1946      1948
      1946      1949      1949      1950      1949      1951      1949      1952
      1952      1953      1952      1954      1952      1955      1955      1956
      1955      1957      1955      1958      1958      1959      1958      1960
      1958      1961      1961      1962      1961      1963      1961      1964
      1964      1965      1964      1966      1964      1967      1915      1916
      1916      1918      1916      1917      1918      1919      1918      1920
      1918      1968      1968      1969      1968      1970      1968      1971
      1971      1972      1971      1973      1971      1974      1974      1975
      1974      1976      1974      1977      1977      1978      1977      1979
      1977      1980      1980      1981      1980      1982      1980      1983
      1983      1984      1983      1985      1983      1986      1986      1987
      1986      1988      1986      1989      1989      1990      1989      1991
      1989      1992      1992      1993      1992      1994      1992      1995
      1995      1996      1995      1997      1995      1998      1998      1999
      1998      2000      1998      2001      2001      2002      2001      2003
      2001      2004      2004      2005      2004      2006      2004      2007
      2007      2008      2007      2009      2007      2010      2011      2015
      2011      2019      2011      2023      2015      2016      2015      2017
      2015      2018      2019      2020      2019      2021      2019      2022
      2023      2024      2023      2025      2023      2026      2011      2012
      2012      2013      2012      2014      2012      2027      2027      2028
      2027      2029      2027      2033      2034      2035      2033      2030
      2030      2034      2030      2031      2030      2032      2035      2036
      2035      2037      2035      2038      2038      2039      2038      2046
      2038      2040      2046      2047      2046      2048      2046      2049
      2040      2041      2041      2043      2041      2042      2043      2044
      2043      2045      2043      2055      2055      2056      2055      2057
      2055      2058      2058      2059      2058      2060      2058      2061
      2061      2062      2061      2063      2061      2064      2064      2065
      2064      2066      2064      2067      2067      2068      2067      2069
      2067      2070      2070      2071      2070      2072      2070      2073
      2073      2074      2073      2075      2075      2076      2075      2077
      2077      2078      2077      2079      2077      2080      2080      2081
      2080      2082      2080      2083      2083      2084      2083      2085
      2083      2086      2086      2087      2086      2088      2086      2089
      2089      2090      2089      2091      2089      2092      2092      2093
      2092      2094      2092      2095      2095      2096      2095      2097
      2095      2098      2098      2099      2098      2100      2098      2101
      2049      2050      2050      2052      2050      2051      2052      2053
      2052      2054      2052      2102      2102      2103      2102      2104
      2102      2105      2105      2106      2105      2107      2105      2108
      2108      2109      2108      2110      2108      2111      2111      2112
      2111      2113      2111      2114      2114      2115      2114      2116
      2114      2117      2117      2118      2117      2119      2117      2120
      2120      2121      2120      2122      2120      2123      2123      2124
      2123      2125      2123      2126      2126      2127      2126      2128
      2126      2129      2129      2130      2129      2131      2129      2132
      2132      2133      2132      2134      2132      2135      2135      2136
      2135      2137      2135      2138      2138      2139      2138      2140
      2138      2141      2141      2142      2141      2143      2141      2144
      2145      2149      2145      2153      2145      2157      2149      2150
      2149      2151      2149      2152      2153      2154      2153      2155
      2153      2156      2157      2158      2157      2159      2157      2160
      2145      2146      2146      2147      2146      2148      2146      2161
      2161      2162      2161      2163      2161      2167      2168      2169
      2167      2164      2164      2168      2164      2165      2164      2166
      2169      2170      2169      2171      2169      2172      2172      2173
      2172      2180      2172      2174      2180      2181      2180      2182
      2180      2183      2174      2175      2175      2177      2175      2176
      2177      2178      2177      2179      2177      2189      2189      2190
      2189      2191      2189      2192      2192      2193      2192      2194
      2192      2195      2195      2196      2195      2197      2195      2198
      2198      2199      2198      2200      2198      2201      2201      2202
      2201      2203      2201      2204      2204      2205      2204      2206
      2204      2207      2207      2208      2207      2209      2209      2210
      2209      2211      2211      2212      2211      2213      2211      2214
      2214      2215      2214      2216      2214      2217      2217      2218
      2217      2219      2217      2220      2220      2221      2220      2222
      2220      2223      2223      2224      2223      2225      2223      2226
      2226      2227      2226      2228      2226      2229      2229      2230
      2229      2231      2229      2232      2232      2233      2232      2234
      2232      2235      2183      2184      2184      2186      2184      2185
      2186      2187      2186      2188      2186      2236      2236      2237
      2236      2238      2236      2239      2239      2240      2239      2241
      2239      2242      2242      2243      2242      2244      2242      2245
      2245      2246      2245      2247      2245      2248      2248      2249
      2248      2250      2248      2251      2251      2252      2251      2253
      2251      2254      2254      2255      2254      2256      2254      2257
      2257      2258      2257      2259      2257      2260      2260      2261
      2260      2262      2260      2263      2263      2264      2263      2265
      2263      2266      2266      2267      2266      2268      2266      2269
      2269      2270      2269      2271      2269      2272      2272      2273
      2272      2274      2272      2275      2275      2276      2275      2277
      2275      2278      2279      2283      2279      2287      2279      2291
      2283      2284      2283      2285      2283      2286      2287      2288
      2287      2289      2287      2290      2291      2292      2291      2293
      2291      2294      2279      2280      2280      2281      2280      2282
      2280      2295      2295      2296      2295      2297      2295      2301
      2302      2303      2301      2298      2298      2302      2298      2299
      2298      2300      2303      2304      2303      2305      2303      2306
      2306      2307      2306      2314      2306      2308      2314      2315
      2314      2316      2314      2317      2308      2309      2309      2311
      2309      2310      2311      2312      2311      2313      2311      2323
      2323      2324      2323      2325      2323      2326      2326      2327
      2326      2328      2326      2329      2329      2330      2329      2331
      2329      2332      2332      2333      2332      2334      2332      2335
      2335      2336      2335      2337      2335      2338      2338      2339
      2338      2340      2338      2341      2341      2342      2341      2343
      2343      2344      2343      2345      2345      2346      2345      2347
      2345      2348      2348      2349      2348      2350      2348      2351
      2351      2352      2351      2353      2351      2354      2354      2355
      2354      2356      2354      2357      2357      2358      2357      2359
      2357      2360      2360      2361      2360      2362      2360      2363
      2363      2364      2363      2365      2363      2366      2366      2367
      2366      2368      2366      2369      2317      2318      2318      2320
      2318      2319      2320      2321      2320      2322      2320      2370
      2370      2371      2370      2372      2370      2373      2373      2374
      2373      2375      2373      2376      2376      2377      2376      2378
      2376      2379      2379      2380      2379      2381      2379      2382
      2382      2383      2382      2384      2382      2385      2385      2386
      2385      2387      2385      2388      2388      2389      2388      2390
      2388      2391      2391      2392      2391      2393      2391      2394
      2394      2395      2394      2396      2394      2397      2397      2398
      2397      2399      2397      2400      2400      2401      2400      2402
      2400      2403      2403      2404      2403      2405      2403      2406
      2406      2407      2406      2408      2406      2409      2409      2410
      2409      2411      2409      2412      2413      2417      2413      2421
      2413      2425      2417      2418      2417      2419      2417      2420
      2421      2422      2421      2423      2421      2424      2425      2426
      2425      2427      2425      2428      2413      2414      2414      2415
      2414      2416      2414      2429      2429      2430      2429      2431
      2429      2435      2436      2437      2435      2432      2432      2436
      2432      2433      2432      2434      2437      2438      2437      2439
      2437      2440      2440      2441      2440      2448      2440      2442
      2448      2449      2448      2450      2448      2451      2442      2443
      2443      2445      2443      2444      2445      2446      2445      2447
      2445      2457      2457      2458      2457      2459      2457      2460
      2460      2461      2460      2462      2460      2463      2463      2464
      2463      2465      2463      2466      2466      2467      2466      2468
      2466      2469      2469      2470      2469      2471      2469      2472
      2472      2473      2472      2474      2472      2475      2475      2476
      2475      2477      2477      2478      2477      2479      2479      2480
      2479      2481      2479      2482      2482      2483      2482      2484
      2482      2485      2485      2486      2485      2487      2485      2488
      2488      2489      2488      2490      2488      2491      2491      2492
      2491      2493      2491      2494      2494      2495      2494      2496
      2494      2497      2497      2498      2497      2499      2497      2500
      2500      2501      2500      2502      2500      2503      2451      2452
      2452      2454      2452      2453      2454      2455      2454      2456
      2454      2504      2504      2505      2504      2506      2504      2507
      2507      2508      2507      2509      2507      2510      2510      2511
      2510      2512      2510      2513      2513      2514      2513      2515
      2513      2516      2516      2517      2516      2518      2516      2519
      2519      2520      2519      2521      2519      2522      2522      2523
      2522      2524      2522      2525      2525      2526      2525      2527
      2525      2528      2528      2529      2528      2530      2528      2531
      2531      2532      2531      2533      2531      2534      2534      2535
      2534      2536      2534      2537      2537      2538      2537      2539
      2537      2540      2540      2541      2540      2542      2540      2543
      2543      2544      2543      2545      2543      2546      2547      2551
      2547      2555      2547      2559      2551      2552      2551      2553
      2551      2554      2555      2556      2555      2557      2555      2558
      2559      2560      2559      2561      2559      2562      2547      2548
      2548      2549      2548      2550      2548      2563      2563      2564
      2563      2565      2563      2569      2570      2571      2569      2566
      2566      2570      2566      2567      2566      2568      2571      2572
      2571      2573      2571      2574      2574      2575      2574      2582
      2574      2576      2582      2583      2582      2584      2582      2585
      2576      2577      2577      2579      2577      2578      2579      2580
      2579      2581      2579      2591      2591      2592      2591      2593
      2591      2594      2594      2595      2594      2596      2594      2597
      2597      2598      2597      2599      2597      2600      2600      2601
      2600      2602      2600      2603      2603      2604      2603      2605
      2603      2606      2606      2607      2606      2608      2606      2609
      2609      2610      2609      2611      2611      2612      2611      2613
      2613      2614      2613      2615      2613      2616      2616      2617
      2616      2618      2616      2619      2619      2620      2619      2621
      2619      2622      2622      2623      2622      2624      2622      2625
      2625      2626      2625      2627      2625      2628      2628      2629
      2628      2630      2628      2631      2631      2632      2631      2633
      2631      2634      2634      2635      2634      2636      2634      2637
      2585      2586      2586      2588      2586      2587      2588      2589
      2588      2590      2588      2638      2638      2639      2638      2640
      2638      2641      2641      2642      2641      2643      2641      2644
      2644      2645      2644      2646      2644      2647      2647      2648
      2647      2649      2647      2650      2650      2651      2650      2652
      2650      2653      2653      2654      2653      2655      2653      2656
      2656      2657      2656      2658      2656      2659      2659      2660
      2659      2661      2659      2662      2662      2663      2662      2664
      2662      2665      2665      2666      2665      2667      2665      2668
      2668      2669      2668      2670      2668      2671      2671      2672
      2671      2673      2671      2674      2674      2675      2674      2676
      2674      2677      2677      2678      2677      2679      2677      2680
      2681      2685      2681      2689      2681      2693      2685      2686
      2685      2687      2685      2688      2689      2690      2689      2691
      2689      2692      2693      2694      2693      2695      2693      2696
      2681      2682      2682      2683      2682      2684      2682      2697
      2697      2698      2697      2699      2697      2703      2704      2705
      2703      2700      2700      2704      2700      2701      2700      2702
      2705      2706      2705      2707      2705      2708      2708      2709
      2708      2716      2708      2710      2716      2717      2716      2718
      2716      2719      2710      2711      2711      2713      2711      2712
      2713      2714      2713      2715      2713      2725      2725      2726
      2725      2727      2725      2728      2728      2729      2728      2730
      2728      2731      2731      2732      2731      2733      2731      2734
      2734      2735      2734      2736      2734      2737      2737      2738
      2737      2739      2737      2740      2740      2741      2740      2742
      2740      2743      2743      2744      2743      2745      2745      2746
      2745      2747      2747      2748      2747      2749      2747      2750
      2750      2751      2750      2752      2750      2753      2753      2754
      2753      2755      2753      2756      2756      2757      2756      2758
      2756      2759      2759      2760      2759      2761      2759      2762
      2762      2763      2762      2764      2762      2765      2765      2766
      2765      2767      2765      2768      2768      2769      2768      2770
      2768      2771      2719      2720      2720      2722      2720      2721
      2722      2723      2722      2724      2722      2772      2772      2773
      2772      2774      2772      2775      2775      2776      2775      2777
      2775      2778      2778      2779      2778      2780      2778      2781
      2781      2782      2781      2783      2781      2784      2784      2785
      2784      2786      2784      2787      2787      2788      2787      2789
      2787      2790      2790      2791      2790      2792      2790      2793
      2793      2794      2793      2795      2793      2796      2796      2797
      2796      2798      2796      2799      2799      2800      2799      2801
      2799      2802      2802      2803      2802      2804      2802      2805
      2805      2806      2805      2807      2805      2808      2808      2809
      2808      2810      2808      2811      2811      2812      2811      2813
      2811      2814      2815      2819      2815      2823      2815      2827
      2819      2820      2819      2821      2819      2822      2823      2824
      2823      2825      2823      2826      2827      2828      2827      2829
      2827      2830      2815      2816      2816      2817      2816      2818
      2816      2831      2831      2832      2831      2833      2831      2837
      2838      2839      2837      2834      2834      2838      2834      2835
      2834      2836      2839      2840      2839      2841      2839      2842
      2842      2843      2842      2850      2842      2844      2850      2851
      2850      2852      2850      2853      2844      2845      2845      2847
      2845      2846      2847      2848      2847      2849      2847      2859
      2859      2860      2859      2861      2859      2862      2862      2863
      2862      2864      2862      2865      2865      2866      2865      2867
      2865      2868      2868      2869      2868      2870      2868      2871
      2871      2872      2871      2873      2871      2874      2874      2875
      2874      2876      2874      2877      2877      2878      2877      2879
      2879      2880      2879      2881      2881      2882      2881      2883
      2881      2884      2884      2885      2884      2886      2884      2887
      2887      2888      2887      2889      2887      2890      2890      2891
      2890      2892      2890      2893      2893      2894      2893      2895
      2893      2896      2896      2897      2896      2898      2896      2899
      2899      2900      2899      2901      2899      2902      2902      2903
      2902      2904      2902      2905      2853      2854      2854      2856
      2854      2855      2856      2857      2856      2858      2856      2906
      2906      2907      2906      2908      2906      2909      2909      2910
      2909      2911      2909      2912      2912      2913      2912      2914
      2912      2915      2915      2916      2915      2917      2915      2918
      2918      2919      2918      2920      2918      2921      2921      2922
      2921      2923      2921      2924      2924      2925      2924      2926
      2924      2927      2927      2928      2927      2929      2927      2930
      2930      2931      2930      2932      2930      2933      2933      2934
      2933      2935      2933      2936      2936      2937      2936      2938
      2936      2939      2939      2940      2939      2941      2939      2942
      2942      2943      2942      2944      2942      2945      2945      2946
      2945      2947      2945      2948      2949      2953      2949      2957
      2949      2961      2953      2954      2953      2955      2953      2956
      2957      2958      2957      2959      2957      2960      2961      2962
      2961      2963      2961      2964      2949      2950      2950      2951
      2950      2952      2950      2965      2965      2966      2965      2967
      2965      2971      2972      2973      2971      2968      2968      2972
      2968      2969      2968      2970      2973      2974      2973      2975
      2973      2976      2976      2977      2976      2984      2976      2978
      2984      2985      2984      2986      2984      2987      2978      2979
      2979      2981      2979      2980      2981      2982      2981      2983
      2981      2993      2993      2994      2993      2995      2993      2996
      2996      2997      2996      2998      2996      2999      2999      3000
      2999      3001      2999      3002      3002      3003      3002      3004
      3002      3005      3005      3006      3005      3007      3005      3008
      3008      3009      3008      3010      3008      3011      3011      3012
      3011      3013      3013      3014      3013      3015      3015      3016
      3015      3017      3015      3018      3018      3019      3018      3020
      3018      3021      3021      3022      3021      3023      3021      3024
      3024      3025      3024      3026      3024      3027      3027      3028
      3027      3029      3027      3030      3030      3031      3030      3032
      3030      3033      3033      3034      3033      3035      3033      3036
      3036      3037      3036      3038      3036      3039      2987      2988
      2988      2990      2988      2989      2990      2991      2990      2992
      2990      3040      3040      3041      3040      3042      3040      3043
      3043      3044      3043      3045      3043      3046      3046      3047
      3046      3048      3046      3049      3049      3050      3049      3051
      3049      3052      3052      3053      3052      3054      3052      3055
      3055      3056      3055      3057      3055      3058      3058      3059
      3058      3060      3058      3061      3061      3062      3061      3063
      3061      3064      3064      3065      3064      3066      3064      3067
      3067      3068      3067      3069      3067      3070      3070      3071
      3070      3072      3070      3073      3073      3074      3073      3075
      3073      3076      3076      3077      3076      3078      3076      3079
      3079      3080      3079      3081      3079      3082      3083      3087
      3083      3091      3083      3095      3087      3088      3087      3089
      3087      3090      3091      3092      3091      3093      3091      3094
      3095      3096      3095      3097      3095      3098      3083      3084
      3084      3085      3084      3086      3084      3099      3099      3100
      3099      3101      3099      3105      3106      3107      3105      3102
      3102      3106      3102      3103      3102      3104      3107      3108
      3107      3109      3107      3110      3110      3111      3110      3118
      3110      3112      3118      3119      3118      3120      3118      3121
      3112      3113      3113      3115      3113      3114      3115      3116
      3115      3117      3115      3127      3127      3128      3127      3129
      3127      3130      3130      3131      3130      3132      3130      3133
      3133      3134      3133      3135      3133      3136      3136      3137
      3136      3138      3136      3139      3139      3140      3139      3141
      3139      3142      3142      3143      3142      3144      3142      3145
      3145      3146      3145      3147      3147      3148      3147      3149
      3149      3150      3149      3151      3149      3152      3152      3153
      3152      3154      3152      3155      3155      3156      3155      3157
      3155      3158      3158      3159      3158      3160      3158      3161
      3161      3162      3161      3163      3161      3164      3164      3165
      3164      3166      3164      3167      3167      3168      3167      3169
      3167      3170      3170      3171      3170      3172      3170      3173
      3121      3122      3122      3124      3122      3123      3124      3125
      3124      3126      3124      3174      3174      3175      3174      3176
      3174      3177      3177      3178      3177      3179      3177      3180
      3180      3181      3180      3182      3180      3183      3183      3184
      3183      3185      3183      3186      3186      3187      3186      3188
      3186      3189      3189      3190      3189      3191      3189      3192
      3192      3193      3192      3194      3192      3195      3195      3196
      3195      3197      3195      3198      3198      3199      3198      3200
      3198      3201      3201      3202      3201      3203      3201      3204
      3204      3205      3204      3206      3204      3207      3207      3208
      3207      3209      3207      3210      3210      3211      3210      3212
      3210      3213      3213      3214      3213      3215      3213      3216
      3217      3221      3217      3225      3217      3229      3221      3222
      3221      3223      3221      3224      3225      3226      3225      3227
      3225      3228      3229      3230      3229      3231      3229      3232
      3217      3218      3218      3219      3218      3220      3218      3233
      3233      3234      3233      3235      3233      3239      3240      3241
      3239      3236      3236      3240      3236      3237      3236      3238
      3241      3242      3241      3243      3241      3244      3244      3245
      3244      3252      3244      3246      3252      3253      3252      3254
      3252      3255      3246      3247      3247      3249      3247      3248
      3249      3250      3249      3251      3249      3261      3261      3262
      3261      3263      3261      3264      3264      3265      3264      3266
      3264      3267      3267      3268      3267      3269      3267      3270
      3270      3271      3270      3272      3270      3273      3273      3274
      3273      3275      3273      3276      3276      3277      3276      3278
      3276      3279      3279      3280      3279      3281      3281      3282
      3281      3283      3283      3284      3283      3285      3283      3286
      3286      3287      3286      3288      3286      3289      3289      3290
      3289      3291      3289      3292      3292      3293      3292      3294
      3292      3295      3295      3296      3295      3297      3295      3298
      3298      3299      3298      3300      3298      3301      3301      3302
      3301      3303      3301      3304      3304      3305      3304      3306
      3304      3307      3255      3256      3256      3258      3256      3257
      3258      3259      3258      3260      3258      3308      3308      3309
      3308      3310      3308      3311      3311      3312      3311      3313
      3311      3314      3314      3315      3314      3316      3314      3317
      3317      3318      3317      3319      3317      3320      3320      3321
      3320      3322      3320      3323      3323      3324      3323      3325
      3323      3326      3326      3327      3326      3328      3326      3329
      3329      3330      3329      3331      3329      3332      3332      3333
      3332      3334      3332      3335      3335      3336      3335      3337
      3335      3338      3338      3339      3338      3340      3338      3341
      3341      3342      3341      3343      3341      3344      3344      3345
      3344      3346      3344      3347      3347      3348      3347      3349
      3347      3350      3351      3355      3351      3359      3351      3363
      3355      3356      3355      3357      3355      3358      3359      3360
      3359      3361      3359      3362      3363      3364      3363      3365
      3363      3366      3351      3352      3352      3353      3352      3354
      3352      3367      3367      3368      3367      3369      3367      3373
      3374      3375      3373      3370      3370      3374      3370      3371
      3370      3372      3375      3376      3375      3377      3375      3378
      3378      3379      3378      3386      3378      3380      3386      3387
      3386      3388      3386      3389      3380      3381      3381      3383
      3381      3382      3383      3384      3383      3385      3383      3395
      3395      3396      3395      3397      3395      3398      3398      3399
      3398      3400      3398      3401      3401      3402      3401      3403
      3401      3404      3404      3405      3404      3406      3404      3407
      3407      3408      3407      3409      3407      3410      3410      3411
      3410      3412      3410      3413      3413      3414      3413      3415
      3415      3416      3415      3417      3417      3418      3417      3419
      3417      3420      3420      3421      3420      3422      3420      3423
      3423      3424      3423      3425      3423      3426      3426      3427
      3426      3428      3426      3429      3429      3430      3429      3431
      3429      3432      3432      3433      3432      3434      3432      3435
      3435      3436      3435      3437      3435      3438      3438      3439
      3438      3440      3438      3441      3389      3390      3390      3392
      3390      3391      3392      3393      3392      3394      3392      3442
      3442      3443      3442      3444      3442      3445      3445      3446
      3445      3447      3445      3448      3448      3449      3448      3450
      3448      3451      3451      3452      3451      3453      3451      3454
      3454      3455      3454      3456      3454      3457      3457      3458
      3457      3459      3457      3460      3460      3461      3460      3462
      3460      3463      3463      3464      3463      3465      3463      3466
      3466      3467      3466      3468      3466      3469      3469      3470
      3469      3471      3469      3472      3472      3473      3472      3474
      3472      3475      3475      3476      3475      3477      3475      3478
      3478      3479      3478      3480      3478      3481      3481      3482
      3481      3483      3481      3484      3485      3489      3485      3493
      3485      3497      3489      3490      3489      3491      3489      3492
      3493      3494      3493      3495      3493      3496      3497      3498
      3497      3499      3497      3500      3485      3486      3486      3487
      3486      3488      3486      3501      3501      3502      3501      3503
      3501      3507      3508      3509      3507      3504      3504      3508
      3504      3505      3504      3506      3509      3510      3509      3511
      3509      3512      3512      3513      3512      3520      3512      3514
      3520      3521      3520      3522      3520      3523      3514      3515
      3515      3517      3515      3516      3517      3518      3517      3519
      3517      3529      3529      3530      3529      3531      3529      3532
      3532      3533      3532      3534      3532      3535      3535      3536
      3535      3537      3535      3538      3538      3539      3538      3540
      3538      3541      3541      3542      3541      3543      3541      3544
      3544      3545      3544      3546      3544      3547      3547      3548
      3547      3549      3549      3550      3549      3551      3551      3552
      3551      3553      3551      3554      3554      3555      3554      3556
      3554      3557      3557      3558      3557      3559      3557      3560
      3560      3561      3560      3562      3560      3563      3563      3564
      3563      3565      3563      3566      3566      3567      3566      3568
      3566      3569      3569      3570      3569      3571      3569      3572
      3572      3573      3572      3574      3572      3575      3523      3524
      3524      3526      3524      3525      3526      3527      3526      3528
      3526      3576      3576      3577      3576      3578      3576      3579
      3579      3580      3579      3581      3579      3582      3582      3583
      3582      3584      3582      3585      3585      3586      3585      3587
      3585      3588      3588      3589      3588      3590      3588      3591
      3591      3592      3591      3593      3591      3594      3594      3595
      3594      3596      3594      3597      3597      3598      3597      3599
      3597      3600      3600      3601      3600      3602      3600      3603
      3603      3604      3603      3605      3603      3606      3606      3607
      3606      3608      3606      3609      3609      3610      3609      3611
      3609      3612      3612      3613      3612      3614      3612      3615
      3615      3616      3615      3617      3615      3618      3619      3623
      3619      3627      3619      3631      3623      3624      3623      3625
      3623      3626      3627      3628      3627      3629      3627      3630
      3631      3632      3631      3633      3631      3634      3619      3620
      3620      3621      3620      3622      3620      3635      3635      3636
      3635      3637      3635      3641      3642      3643      3641      3638
      3638      3642      3638      3639      3638      3640      3643      3644
      3643      3645      3643      3646      3646      3647      3646      3654
      3646      3648      3654      3655      3654      3656      3654      3657
      3648      3649      3649      3651      3649      3650      3651      3652
      3651      3653      3651      3663      3663      3664      3663      3665
      3663      3666      3666      3667      3666      3668      3666      3669
      3669      3670      3669      3671      3669      3672      3672      3673
      3672      3674      3672      3675      3675      3676      3675      3677
      3675      3678      3678      3679      3678      3680      3678      3681
      3681      3682      3681      3683      3683      3684      3683      3685
      3685      3686      3685      3687      3685      3688      3688      3689
      3688      3690      3688      3691      3691      3692      3691      3693
      3691      3694      3694      3695      3694      3696      3694      3697
      3697      3698      3697      3699      3697      3700      3700      3701
      3700      3702      3700      3703      3703      3704      3703      3705
      3703      3706      3706      3707      3706      3708      3706      3709
      3657      3658      3658      3660      3658      3659      3660      3661
      3660      3662      3660      3710      3710      3711      3710      3712
      3710      3713      3713      3714      3713      3715      3713      3716
      3716      3717      3716      3718      3716      3719      3719      3720
      3719      3721      3719      3722      3722      3723      3722      3724
      3722      3725      3725      3726      3725      3727      3725      3728
      3728      3729      3728      3730      3728      3731      3731      3732
      3731      3733      3731      3734      3734      3735      3734      3736
      3734      3737      3737      3738      3737      3739      3737      3740
      3740      3741      3740      3742      3740      3743      3743      3744
      3743      3745      3743      3746      3746      3747      3746      3748
      3746      3749      3749      3750      3749      3751      3749      3752
      3753      3757      3753      3761      3753      3765      3757      3758
      3757      3759      3757      3760      3761      3762      3761      3763
      3761      3764      3765      3766      3765      3767      3765      3768
      3753      3754      3754      3755      3754      3756      3754      3769
      3769      3770      3769      3771      3769      3775      3776      3777
      3775      3772      3772      3776      3772      3773      3772      3774
      3777      3778      3777      3779      3777      3780      3780      3781
      3780      3788      3780      3782      3788      3789      3788      3790
      3788      3791      3782      3783      3783      3785      3783      3784
      3785      3786      3785      3787      3785      3797      3797      3798
      3797      3799      3797      3800      3800      3801      3800      3802
      3800      3803      3803      3804      3803      3805      3803      3806
      3806      3807      3806      3808      3806      3809      3809      3810
      3809      3811      3809      3812      3812      3813      3812      3814
      3812      3815      3815      3816      3815      3817      3817      3818
      3817      3819      3819      3820      3819      3821      3819      3822
      3822      3823      3822      3824      3822      3825      3825      3826
      3825      3827      3825      3828      3828      3829      3828      3830
      3828      3831      3831      3832      3831      3833      3831      3834
      3834      3835      3834      3836      3834      3837      3837      3838
      3837      3839      3837      3840      3840      3841      3840      3842
      3840      3843      3791      3792      3792      3794      3792      3793
      3794      3795      3794      3796      3794      3844      3844      3845
      3844      3846      3844      3847      3847      3848      3847      3849
      3847      3850      3850      3851      3850      3852      3850      3853
      3853      3854      3853      3855      3853      3856      3856      3857
      3856      3858      3856      3859      3859      3860      3859      3861
      3859      3862      3862      3863      3862      3864      3862      3865
      3865      3866      3865      3867      3865      3868      3868      3869
      3868      3870      3868      3871      3871      3872      3871      3873
      3871      3874      3874      3875      3874      3876      3874      3877
      3877      3878      3877      3879      3877      3880      3880      3881
      3880      3882      3880      3883      3883      3884      3883      3885
      3883      3886      3887      3891      3887      3895      3887      3899
      3891      3892      3891      3893      3891      3894      3895      3896
      3895      3897      3895      3898      3899      3900      3899      3901
      3899      3902      3887      3888      3888      3889      3888      3890
      3888      3903      3903      3904      3903      3905      3903      3909
      3910      3911      3909      3906      3906      3910      3906      3907
      3906      3908      3911      3912      3911      3913      3911      3914
      3914      3915      3914      3922      3914      3916      3922      3923
      3922      3924      3922      3925      3916      3917      3917      3919
      3917      3918      3919      3920      3919      3921      3919      3931
      3931      3932      3931      3933      3931      3934      3934      3935
      3934      3936      3934      3937      3937      3938      3937      3939
      3937      3940      3940      3941      3940      3942      3940      3943
      3943      3944      3943      3945      3943      3946      3946      3947
      3946      3948      3946      3949      3949      3950      3949      3951
      3951      3952      3951      3953      3953      3954      3953      3955
      3953      3956      3956      3957      3956      3958      3956      3959
      3959      3960      3959      3961      3959      3962      3962      3963
      3962      3964      3962      3965      3965      3966      3965      3967
      3965      3968      3968      3969      3968      3970      3968      3971
      3971      3972      3971      3973      3971      3974      3974      3975
      3974      3976      3974      3977      3925      3926      3926      3928
      3926      3927      3928      3929      3928      3930      3928      3978
      3978      3979      3978      3980      3978      3981      3981      3982
      3981      3983      3981      3984      3984      3985      3984      3986
      3984      3987      3987      3988      3987      3989      3987      3990
      3990      3991      3990      3992      3990      3993      3993      3994
      3993      3995      3993      3996      3996      3997      3996      3998
      3996      3999      3999      4000      3999      4001      3999      4002
      4002      4003      4002      4004      4002      4005      4005      4006
      4005      4007      4005      4008      4008      4009      4008      4010
      4008      4011      4011      4012      4011      4013      4011      4014
      4014      4015      4014      4016      4014      4017      4017      4018
      4017      4019      4017      4020      4021      4025      4021      4029
      4021      4033      4025      4026      4025      4027      4025      4028
      4029      4030      4029      4031      4029      4032      4033      4034
      4033      4035      4033      4036      4021      4022      4022      4023
      4022      4024      4022      4037      4037      4038      4037      4039
      4037      4043      4044      4045      4043      4040      4040      4044
      4040      4041      4040      4042      4045      4046      4045      4047
      4045      4048      4048      4049      4048      4056      4048      4050
      4056      4057      4056      4058      4056      4059      4050      4051
      4051      4053      4051      4052      4053      4054      4053      4055
      4053      4065      4065      4066      4065      4067      4065      4068
      4068      4069      4068      4070      4068      4071      4071      4072
      4071      4073      4071      4074      4074      4075      4074      4076
      4074      4077      4077      4078      4077      4079      4077      4080
      4080      4081      4080      4082      4080      4083      4083      4084
      4083      4085      4085      4086      4085      4087      4087      4088
      4087      4089      4087      4090      4090      4091      4090      4092
      4090      4093      4093      4094      4093      4095      4093      4096
      4096      4097      4096      4098      4096      4099      4099      4100
      4099      4101      4099      4102      4102      4103      4102      4104
      4102      4105      4105      4106      4105      4107      4105      4108
      4108      4109      4108      4110      4108      4111      4059      4060
      4060      4062      4060      4061      4062      4063      4062      4064
      4062      4112      4112      4113      4112      4114      4112      4115
      4115      4116      4115      4117      4115      4118      4118      4119
      4118      4120      4118      4121      4121      4122      4121      4123
      4121      4124      4124      4125      4124      4126      4124      4127
      4127      4128      4127      4129      4127      4130      4130      4131
      4130      4132      4130      4133      4133      4134      4133      4135
      4133      4136      4136      4137      4136      4138      4136      4139
      4139      4140      4139      4141      4139      4142      4142      4143
      4142      4144      4142      4145      4145      4146      4145      4147
      4145      4148      4148      4149      4148      4150      4148      4151
      4151      4152      4151      4153      4151      4154      4155      4159
      4155      4163      4155      4167      4159      4160      4159      4161
      4159      4162      4163      4164      4163      4165      4163      4166
      4167      4168      4167      4169      4167      4170      4155      4156
      4156      4157      4156      4158      4156      4171      4171      4172
      4171      4173      4171      4177      4178      4179      4177      4174
      4174      4178      4174      4175      4174      4176      4179      4180
      4179      4181      4179      4182      4182      4183      4182      4190
      4182      4184      4190      4191      4190      4192      4190      4193
      4184      4185      4185      4187      4185      4186      4187      4188
      4187      4189      4187      4199      4199      4200      4199      4201
      4199      4202      4202      4203      4202      4204      4202      4205
      4205      4206      4205      4207      4205      4208      4208      4209
      4208      4210      4208      4211      4211      4212      4211      4213
      4211      4214      4214      4215      4214      4216      4214      4217
      4217      4218      4217      4219      4219      4220      4219      4221
      4221      4222      4221      4223      4221      4224      4224      4225
      4224      4226      4224      4227      4227      4228      4227      4229
      4227      4230      4230      4231      4230      4232      4230      4233
      4233      4234      4233      4235      4233      4236      4236      4237
      4236      4238      4236      4239      4239      4240      4239      4241
      4239      4242      4242      4243      4242      4244      4242      4245
      4193      4194      4194      4196      4194      4195      4196      4197
      4196      4198      4196      4246      4246      4247      4246      4248
      4246      4249      4249      4250      4249      4251      4249      4252
      4252      4253      4252      4254      4252      4255      4255      4256
      4255      4257      4255      4258      4258      4259      4258      4260
      4258      4261      4261      4262      4261      4263      4261      4264
      4264      4265      4264      4266      4264      4267      4267      4268
      4267      4269      4267      4270      4270      4271      4270      4272
      4270      4273      4273      4274      4273      4275      4273      4276
      4276      4277      4276      4278      4276      4279      4279      4280
      4279      4281      4279      4282      4282      4283      4282      4284
      4282      4285      4285      4286      4285      4287      4285      4288
      4289      4293      4289      4297      4289      4301      4293      4294
      4293      4295      4293      4296      4297      4298      4297      4299
      4297      4300      4301      4302      4301      4303      4301      4304
      4289      4290      4290      4291      4290      4292      4290      4305
      4305      4306      4305      4307      4305      4311      4312      4313
      4311      4308      4308      4312      4308      4309      4308      4310
      4313      4314      4313      4315      4313      4316      4316      4317
      4316      4324      4316      4318      4324      4325      4324      4326
      4324      4327      4318      4319      4319      4321      4319      4320
      4321      4322      4321      4323      4321      4333      4333      4334
      4333      4335      4333      4336      4336      4337      4336      4338
      4336      4339      4339      4340      4339      4341      4339      4342
      4342      4343      4342      4344      4342      4345      4345      4346
      4345      4347      4345      4348      4348      4349      4348      4350
      4348      4351      4351      4352      4351      4353      4353      4354
      4353      4355      4355      4356      4355      4357      4355      4358
      4358      4359      4358      4360      4358      4361      4361      4362
      4361      4363      4361      4364      4364      4365      4364      4366
      4364      4367      4367      4368      4367      4369      4367      4370
      4370      4371      4370      4372      4370      4373      4373      4374
      4373      4375      4373      4376      4376      4377      4376      4378
      4376      4379      4327      4328      4328      4330      4328      4329
      4330      4331      4330      4332      4330      4380      4380      4381
      4380      4382      4380      4383      4383      4384      4383      4385
      4383      4386      4386      4387      4386      4388      4386      4389
      4389      4390      4389      4391      4389      4392      4392      4393
      4392      4394      4392      4395      4395      4396      4395      4397
      4395      4398      4398      4399      4398      4400      4398      4401
      4401      4402      4401      4403      4401      4404      4404      4405
      4404      4406      4404      4407      4407      4408      4407      4409
      4407      4410      4410      4411      4410      4412      4410      4413
      4413      4414      4413      4415      4413      4416      4416      4417
      4416      4418      4416      4419      4419      4420      4419      4421
      4419      4422      4423      4427      4423      4431      4423      4435
      4427      4428      4427      4429      4427      4430      4431      4432
      4431      4433      4431      4434      4435      4436      4435      4437
      4435      4438      4423      4424      4424      4425      4424      4426
      4424      4439      4439      4440      4439      4441      4439      4445
      4446      4447      4445      4442      4442      4446      4442      4443
      4442      4444      4447      4448      4447      4449      4447      4450
      4450      4451      4450      4458      4450      4452      4458      4459
      4458      4460      4458      4461      4452      4453      4453      4455
      4453      4454      4455      4456      4455      4457      4455      4467
      4467      4468      4467      4469      4467      4470      4470      4471
      4470      4472      4470      4473      4473      4474      4473      4475
      4473      4476      4476      4477      4476      4478      4476      4479
      4479      4480      4479      4481      4479      4482      4482      4483
      4482      4484      4482      4485      4485      4486      4485      4487
      4487      4488      4487      4489      4489      4490      4489      4491
      4489      4492      4492      4493      4492      4494      4492      4495
      4495      4496      4495      4497      4495      4498      4498      4499
      4498      4500      4498      4501      4501      4502      4501      4503
      4501      4504      4504      4505      4504      4506      4504      4507
      4507      4508      4507      4509      4507      4510      4510      4511
      4510      4512      4510      4513      4461      4462      4462      4464
      4462      4463      4464      4465      4464      4466      4464      4514
      4514      4515      4514      4516      4514      4517      4517      4518
      4517      4519      4517      4520      4520      4521      4520      4522
      4520      4523      4523      4524      4523      4525      4523      4526
      4526      4527      4526      4528      4526      4529      4529      4530
      4529      4531      4529      4532      4532      4533      4532      4534
      4532      4535      4535      4536      4535      4537      4535      4538
      4538      4539      4538      4540      4538      4541      4541      4542
      4541      4543      4541      4544      4544      4545      4544      4546
      4544      4547      4547      4548      4547      4549      4547      4550
      4550      4551      4550      4552      4550      4553      4553      4554
      4553      4555      4553      4556      4557      4561      4557      4565
      4557      4569      4561      4562      4561      4563      4561      4564
      4565      4566      4565      4567      4565      4568      4569      4570
      4569      4571      4569      4572      4557      4558      4558      4559
      4558      4560      4558      4573      4573      4574      4573      4575
      4573      4579      4580      4581      4579      4576      4576      4580
      4576      4577      4576      4578      4581      4582      4581      4583
      4581      4584      4584      4585      4584      4592      4584      4586
      4592      4593      4592      4594      4592      4595      4586      4587
      4587      4589      4587      4588      4589      4590      4589      4591
      4589      4601      4601      4602      4601      4603      4601      4604
      4604      4605      4604      4606      4604      4607      4607      4608
      4607      4609      4607      4610      4610      4611      4610      4612
      4610      4613      4613      4614      4613      4615      4613      4616
      4616      4617      4616      4618      4616      4619      4619      4620
      4619      4621      4621      4622      4621      4623      4623      4624
      4623      4625      4623      4626      4626      4627      4626      4628
      4626      4629      4629      4630      4629      4631      4629      4632
      4632      4633      4632      4634      4632      4635      4635      4636
      4635      4637      4635      4638      4638      4639      4638      4640
      4638      4641      4641      4642      4641      4643      4641      4644
      4644      4645      4644      4646      4644      4647      4595      4596
      4596      4598      4596      4597      4598      4599      4598      4600
      4598      4648      4648      4649      4648      4650      4648      4651
      4651      4652      4651      4653      4651      4654      4654      4655
      4654      4656      4654      4657      4657      4658      4657      4659
      4657      4660      4660      4661      4660      4662      4660      4663
      4663      4664      4663      4665      4663      4666      4666      4667
      4666      4668      4666      4669      4669      4670      4669      4671
      4669      4672      4672      4673      4672      4674      4672      4675
      4675      4676      4675      4677      4675      4678      4678      4679
      4678      4680      4678      4681      4681      4682      4681      4683
      4681      4684      4684      4685      4684      4686      4684      4687
      4687      4688      4687      4689      4687      4690      4691      4695
      4691      4699      4691      4703      4695      4696      4695      4697
      4695      4698      4699      4700      4699      4701      4699      4702
      4703      4704      4703      4705      4703      4706      4691      4692
      4692      4693      4692      4694      4692      4707      4707      4708
      4707      4709      4707      4713      4714      4715      4713      4710
      4710      4714      4710      4711      4710      4712      4715      4716
      4715      4717      4715      4718      4718      4719      4718      4726
      4718      4720      4726      4727      4726      4728      4726      4729
      4720      4721      4721      4723      4721      4722      4723      4724
      4723      4725      4723      4735      4735      4736      4735      4737
      4735      4738      4738      4739      4738      4740      4738      4741
      4741      4742      4741      4743      4741      4744      4744      4745
      4744      4746      4744      4747      4747      4748      4747      4749
      4747      4750      4750      4751      4750      4752      4750      4753
      4753      4754      4753      4755      4755      4756      4755      4757
      4757      4758      4757      4759      4757      4760      4760      4761
      4760      4762      4760      4763      4763      4764      4763      4765
      4763      4766      4766      4767      4766      4768      4766      4769
      4769      4770      4769      4771      4769      4772      4772      4773
      4772      4774      4772      4775      4775      4776      4775      4777
      4775      4778      4778      4779      4778      4780      4778      4781
      4729      4730      4730      4732      4730      4731      4732      4733
      4732      4734      4732      4782      4782      4783      4782      4784
      4782      4785      4785      4786      4785      4787      4785      4788
      4788      4789      4788      4790      4788      4791      4791      4792
      4791      4793      4791      4794      4794      4795      4794      4796
      4794      4797      4797      4798      4797      4799      4797      4800
      4800      4801      4800      4802      4800      4803      4803      4804
      4803      4805      4803      4806      4806      4807      4806      4808
      4806      4809      4809      4810      4809      4811      4809      4812
      4812      4813      4812      4814      4812      4815      4815      4816
      4815      4817      4815      4818      4818      4819      4818      4820
      4818      4821      4821      4822      4821      4823      4821      4824
      4825      4829      4825      4833      4825      4837      4829      4830
      4829      4831      4829      4832      4833      4834      4833      4835
      4833      4836      4837      4838      4837      4839      4837      4840
      4825      4826      4826      4827      4826      4828      4826      4841
      4841      4842      4841      4843      4841      4847      4848      4849
      4847      4844      4844      4848      4844      4845      4844      4846
      4849      4850      4849      4851      4849      4852      4852      4853
      4852      4860      4852      4854      4860      4861      4860      4862
      4860      4863      4854      4855      4855      4857      4855      4856
      4857      4858      4857      4859      4857      4869      4869      4870
      4869      4871      4869      4872      4872      4873      4872      4874
      4872      4875      4875      4876      4875      4877      4875      4878
      4878      4879      4878      4880      4878      4881      4881      4882
      4881      4883      4881      4884      4884      4885      4884      4886
      4884      4887      4887      4888      4887      4889      4889      4890
      4889      4891      4891      4892      4891      4893      4891      4894
      4894      4895      4894      4896      4894      4897      4897      4898
      4897      4899      4897      4900      4900      4901      4900      4902
      4900      4903      4903      4904      4903      4905      4903      4906
      4906      4907      4906      4908      4906      4909      4909      4910
      4909      4911      4909      4912      4912      4913      4912      4914
      4912      4915      4863      4864      4864      4866      4864      4865
      4866      4867      4866      4868      4866      4916      4916      4917
      4916      4918      4916      4919      4919      4920      4919      4921
      4919      4922      4922      4923      4922      4924      4922      4925
      4925      4926      4925      4927      4925      4928      4928      4929
      4928      4930      4928      4931      4931      4932      4931      4933
      4931      4934      4934      4935      4934      4936      4934      4937
      4937      4938      4937      4939      4937      4940      4940      4941
      4940      4942      4940      4943      4943      4944      4943      4945
      4943      4946      4946      4947      4946      4948      4946      4949
      4949      4950      4949      4951      4949      4952      4952      4953
      4952      4954      4952      4955      4955      4956      4955      4957
      4955      4958      4959      4963      4959      4967      4959      4971
      4963      4964      4963      4965      4963      4966      4967      4968
      4967      4969      4967      4970      4971      4972      4971      4973
      4971      4974      4959      4960      4960      4961      4960      4962
      4960      4975      4975      4976      4975      4977      4975      4981
      4982      4983      4981      4978      4978      4982      4978      4979
      4978      4980      4983      4984      4983      4985      4983      4986
      4986      4987      4986      4994      4986      4988      4994      4995
      4994      4996      4994      4997      4988      4989      4989      4991
      4989      4990      4991      4992      4991      4993      4991      5003
      5003      5004      5003      5005      5003      5006      5006      5007
      5006      5008      5006      5009      5009      5010      5009      5011
      5009      5012      5012      5013      5012      5014      5012      5015
      5015      5016      5015      5017      5015      5018      5018      5019
      5018      5020      5018      5021      5021      5022      5021      5023
      5023      5024      5023      5025      5025      5026      5025      5027
      5025      5028      5028      5029      5028      5030      5028      5031
      5031      5032      5031      5033      5031      5034      5034      5035
      5034      5036      5034      5037      5037      5038      5037      5039
      5037      5040      5040      5041      5040      5042      5040      5043
      5043      5044      5043      5045      5043      5046      5046      5047
      5046      5048      5046      5049      4997      4998      4998      5000
      4998      4999      5000      5001      5000      5002      5000      5050
      5050      5051      5050      5052      5050      5053      5053      5054
      5053      5055      5053      5056      5056      5057      5056      5058
      5056      5059      5059      5060      5059      5061      5059      5062
      5062      5063      5062      5064      5062      5065      5065      5066
      5065      5067      5065      5068      5068      5069      5068      5070
      5068      5071      5071      5072      5071      5073      5071      5074
      5074      5075      5074      5076      5074      5077      5077      5078
      5077      5079      5077      5080      5080      5081      5080      5082
      5080      5083      5083      5084      5083      5085      5083      5086
      5086      5087      5086      5088      5086      5089      5089      5090
      5089      5091      5089      5092      5093      5097      5093      5101
      5093      5105      5097      5098      5097      5099      5097      5100
      5101      5102      5101      5103      5101      5104      5105      5106
      5105      5107      5105      5108      5093      5094      5094      5095
      5094      5096      5094      5109      5109      5110      5109      5111
      5109      5115      5116      5117      5115      5112      5112      5116
      5112      5113      5112      5114      5117      5118      5117      5119
      5117      5120      5120      5121      5120      5128      5120      5122
      5128      5129      5128      5130      5128      5131      5122      5123
      5123      5125      5123      5124      5125      5126      5125      5127
      5125      5137      5137      5138      5137      5139      5137      5140
      5140      5141      5140      5142      5140      5143      5143      5144
      5143      5145      5143      5146      5146      5147      5146      5148
      5146      5149      5149      5150      5149      5151      5149      5152
      5152      5153      5152      5154      5152      5155      5155      5156
      5155      5157      5157      5158      5157      5159      5159      5160
      5159      5161      5159      5162      5162      5163      5162      5164
      5162      5165      5165      5166      5165      5167      5165      5168
      5168      5169      5168      5170      5168      5171      5171      5172
      5171      5173      5171      5174      5174      5175      5174      5176
      5174      5177      5177      5178      5177      5179      5177      5180
      5180      5181      5180      5182      5180      5183      5131      5132
      5132      5134      5132      5133      5134      5135      5134      5136
      5134      5184      5184      5185      5184      5186      5184      5187
      5187      5188      5187      5189      5187      5190      5190      5191
      5190      5192      5190      5193      5193      5194      5193      5195
      5193      5196      5196      5197      5196      5198      5196      5199
      5199      5200      5199      5201      5199      5202      5202      5203
      5202      5204      5202      5205      5205      5206      5205      5207
      5205      5208      5208      5209      5208      5210      5208      5211
      5211      5212      5211      5213      5211      5214      5214      5215
      5214      5216      5214      5217      5217      5218      5217      5219
      5217      5220      5220      5221      5220      5222      5220      5223
      5223      5224      5223      5225      5223      5226      5227      5231
      5227      5235      5227      5239      5231      5232      5231      5233
      5231      5234      5235      5236      5235      5237      5235      5238
      5239      5240      5239      5241      5239      5242      5227      5228
      5228      5229      5228      5230      5228      5243      5243      5244
      5243      5245      5243      5249      5250      5251      5249      5246
      5246      5250      5246      5247      5246      5248      5251      5252
      5251      5253      5251      5254      5254      5255      5254      5262
      5254      5256      5262      5263      5262      5264      5262      5265
      5256      5257      5257      5259      5257      5258      5259      5260
      5259      5261      5259      5271      5271      5272      5271      5273
      5271      5274      5274      5275      5274      5276      5274      5277
      5277      5278      5277      5279      5277      5280      5280      5281
      5280      5282      5280      5283      5283      5284      5283      5285
      5283      5286      5286      5287      5286      5288      5286      5289
      5289      5290      5289      5291      5291      5292      5291      5293
      5293      5294      5293      5295      5293      5296      5296      5297
      5296      5298      5296      5299      5299      5300      5299      5301
      5299      5302      5302      5303      5302      5304      5302      5305
      5305      5306      5305      5307      5305      5308      5308      5309
      5308      5310      5308      5311      5311      5312      5311      5313
      5311      5314      5314      5315      5314      5316      5314      5317
      5265      5266      5266      5268      5266      5267      5268      5269
      5268      5270      5268      5318      5318      5319      5318      5320
      5318      5321      5321      5322      5321      5323      5321      5324
      5324      5325      5324      5326      5324      5327      5327      5328
      5327      5329      5327      5330      5330      5331      5330      5332
      5330      5333      5333      5334      5333      5335      5333      5336
      5336      5337      5336      5338      5336      5339      5339      5340
      5339      5341      5339      5342      5342      5343      5342      5344
      5342      5345      5345      5346      5345      5347      5345      5348
      5348      5349      5348      5350      5348      5351      5351      5352
      5351      5353      5351      5354      5354      5355      5354      5356
      5354      5357      5357      5358      5357      5359      5357      5360
      5361      5365      5361      5369      5361      5373      5365      5366
      5365      5367      5365      5368      5369      5370      5369      5371
      5369      5372      5373      5374      5373      5375      5373      5376
      5361      5362      5362      5363      5362      5364      5362      5377
      5377      5378      5377      5379      5377      5383      5384      5385
      5383      5380      5380      5384      5380      5381      5380      5382
      5385      5386      5385      5387      5385      5388      5388      5389
      5388      5396      5388      5390      5396      5397      5396      5398
      5396      5399      5390      5391      5391      5393      5391      5392
      5393      5394      5393      5395      5393      5405      5405      5406
      5405      5407      5405      5408      5408      5409      5408      5410
      5408      5411      5411      5412      5411      5413      5411      5414
      5414      5415      5414      5416      5414      5417      5417      5418
      5417      5419      5417      5420      5420      5421      5420      5422
      5420      5423      5423      5424      5423      5425      5425      5426
      5425      5427      5427      5428      5427      5429      5427      5430
      5430      5431      5430      5432      5430      5433      5433      5434
      5433      5435      5433      5436      5436      5437      5436      5438
      5436      5439      5439      5440      5439      5441      5439      5442
      5442      5443      5442      5444      5442      5445      5445      5446
      5445      5447      5445      5448      5448      5449      5448      5450
      5448      5451      5399      5400      5400      5402      5400      5401
      5402      5403      5402      5404      5402      5452      5452      5453
      5452      5454      5452      5455      5455      5456      5455      5457
      5455      5458      5458      5459      5458      5460      5458      5461
      5461      5462      5461      5463      5461      5464      5464      5465
      5464      5466      5464      5467      5467      5468      5467      5469
      5467      5470      5470      5471      5470      5472      5470      5473
      5473      5474      5473      5475      5473      5476      5476      5477
      5476      5478      5476      5479      5479      5480      5479      5481
      5479      5482      5482      5483      5482      5484      5482      5485
      5485      5486      5485      5487      5485      5488      5488      5489
      5488      5490      5488      5491      5491      5492      5491      5493
      5491      5494      5495      5499      5495      5503      5495      5507
      5499      5500      5499      5501      5499      5502      5503      5504
      5503      5505      5503      5506      5507      5508      5507      5509
      5507      5510      5495      5496      5496      5497      5496      5498
      5496      5511      5511      5512      5511      5513      5511      5517
      5518      5519      5517      5514      5514      5518      5514      5515
      5514      5516      5519      5520      5519      5521      5519      5522
      5522      5523      5522      5530      5522      5524      5530      5531
      5530      5532      5530      5533      5524      5525      5525      5527
      5525      5526      5527      5528      5527      5529      5527      5539
      5539      5540      5539      5541      5539      5542      5542      5543
      5542      5544      5542      5545      5545      5546      5545      5547
      5545      5548      5548      5549      5548      5550      5548      5551
      5551      5552      5551      5553      5551      5554      5554      5555
      5554      5556      5554      5557      5557      5558      5557      5559
      5559      5560      5559      5561      5561      5562      5561      5563
      5561      5564      5564      5565      5564      5566      5564      5567
      5567      5568      5567      5569      5567      5570      5570      5571
      5570      5572      5570      5573      5573      5574      5573      5575
      5573      5576      5576      5577      5576      5578      5576      5579
      5579      5580      5579      5581      5579      5582      5582      5583
      5582      5584      5582      5585      5533      5534      5534      5536
      5534      5535      5536      5537      5536      5538      5536      5586
      5586      5587      5586      5588      5586      5589      5589      5590
      5589      5591      5589      5592      5592      5593      5592      5594
      5592      5595      5595      5596      5595      5597      5595      5598
      5598      5599      5598      5600      5598      5601      5601      5602
      5601      5603      5601      5604      5604      5605      5604      5606
      5604      5607      5607      5608      5607      5609      5607      5610
      5610      5611      5610      5612      5610      5613      5613      5614
      5613      5615      5613      5616      5616      5617      5616      5618
      5616      5619      5619      5620      5619      5621      5619      5622
      5622      5623      5622      5624      5622      5625      5625      5626
      5625      5627      5625      5628      5629      5633      5629      5637
      5629      5641      5633      5634      5633      5635      5633      5636
      5637      5638      5637      5639      5637      5640      5641      5642
      5641      5643      5641      5644      5629      5630      5630      5631
      5630      5632      5630      5645      5645      5646      5645      5647
      5645      5651      5652      5653      5651      5648      5648      5652
      5648      5649      5648      5650      5653      5654      5653      5655
      5653      5656      5656      5657      5656      5664      5656      5658
      5664      5665      5664      5666      5664      5667      5658      5659
      5659      5661      5659      5660      5661      5662      5661      5663
      5661      5673      5673      5674      5673      5675      5673      5676
      5676      5677      5676      5678      5676      5679      5679      5680
      5679      5681      5679      5682      5682      5683      5682      5684
      5682      5685      5685      5686      5685      5687      5685      5688
      5688      5689      5688      5690      5688      5691      5691      5692
      5691      5693      5693      5694      5693      5695      5695      5696
      5695      5697      5695      5698      5698      5699      5698      5700
      5698      5701      5701      5702      5701      5703      5701      5704
      5704      5705      5704      5706      5704      5707      5707      5708
      5707      5709      5707      5710      5710      5711      5710      5712
      5710      5713      5713      5714      5713      5715      5713      5716
      5716      5717      5716      5718      5716      5719      5667      5668
      5668      5670      5668      5669      5670      5671      5670      5672
      5670      5720      5720      5721      5720      5722      5720      5723
      5723      5724      5723      5725      5723      5726      5726      5727
      5726      5728      5726      5729      5729      5730      5729      5731
      5729      5732      5732      5733      5732      5734      5732      5735
      5735      5736      5735      5737      5735      5738      5738      5739
      5738      5740      5738      5741      5741      5742      5741      5743
      5741      5744      5744      5745      5744      5746      5744      5747
      5747      5748      5747      5749      5747      5750      5750      5751
      5750      5752      5750      5753      5753      5754      5753      5755
      5753      5756      5756      5757      5756      5758      5756      5759
      5759      5760      5759      5761      5759      5762      5763      5767
      5763      5771      5763      5775      5767      5768      5767      5769
      5767      5770      5771      5772      5771      5773      5771      5774
      5775      5776      5775      5777      5775      5778      5763      5764
      5764      5765      5764      5766      5764      5779      5779      5780
      5779      5781      5779      5785      5786      5787      5785      5782
      5782      5786      5782      5783      5782      5784      5787      5788
      5787      5789      5787      5790      5790      5791      5790      5798
      5790      5792      5798      5799      5798      5800      5798      5801
      5792      5793      5793      5795      5793      5794      5795      5796
      5795      5797      5795      5807      5807      5808      5807      5809
      5807      5810      5810      5811      5810      5812      5810      5813
      5813      5814      5813      5815      5813      5816      5816      5817
      5816      5818      5816      5819      5819      5820      5819      5821
      5819      5822      5822      5823      5822      5824      5822      5825
      5825      5826      5825      5827      5827      5828      5827      5829
      5829      5830      5829      5831      5829      5832      5832      5833
      5832      5834      5832      5835      5835      5836      5835      5837
      5835      5838      5838      5839      5838      5840      5838      5841
      5841      5842      5841      5843      5841      5844      5844      5845
      5844      5846      5844      5847      5847      5848      5847      5849
      5847      5850      5850      5851      5850      5852      5850      5853
      5801      5802      5802      5804      5802      5803      5804      5805
      5804      5806      5804      5854      5854      5855      5854      5856
      5854      5857      5857      5858      5857      5859      5857      5860
      5860      5861      5860      5862      5860      5863      5863      5864
      5863      5865      5863      5866      5866      5867      5866      5868
      5866      5869      5869      5870      5869      5871      5869      5872
      5872      5873      5872      5874      5872      5875      5875      5876
      5875      5877      5875      5878      5878      5879      5878      5880
      5878      5881      5881      5882      5881      5883      5881      5884
      5884      5885      5884      5886      5884      5887      5887      5888
      5887      5889      5887      5890      5890      5891      5890      5892
      5890      5893      5893      5894      5893      5895      5893      5896
      5897      5901      5897      5905      5897      5909      5901      5902
      5901      5903      5901      5904      5905      5906      5905      5907
      5905      5908      5909      5910      5909      5911      5909      5912
      5897      5898      5898      5899      5898      5900      5898      5913
      5913      5914      5913      5915      5913      5919      5920      5921
      5919      5916      5916      5920      5916      5917      5916      5918
      5921      5922      5921      5923      5921      5924      5924      5925
      5924      5932      5924      5926      5932      5933      5932      5934
      5932      5935      5926      5927      5927      5929      5927      5928
      5929      5930      5929      5931      5929      5941      5941      5942
      5941      5943      5941      5944      5944      5945      5944      5946
      5944      5947      5947      5948      5947      5949      5947      5950
      5950      5951      5950      5952      5950      5953      5953      5954
      5953      5955      5953      5956      5956      5957      5956      5958
      5956      5959      5959      5960      5959      5961      5961      5962
      5961      5963      5963      5964      5963      5965      5963      5966
      5966      5967      5966      5968      5966      5969      5969      5970
      5969      5971      5969      5972      5972      5973      5972      5974
      5972      5975      5975      5976      5975      5977      5975      5978
      5978      5979      5978      5980      5978      5981      5981      5982
      5981      5983      5981      5984      5984      5985      5984      5986
      5984      5987      5935      5936      5936      5938      5936      5937
      5938      5939      5938      5940      5938      5988      5988      5989
      5988      5990      5988      5991      5991      5992      5991      5993
      5991      5994      5994      5995      5994      5996      5994      5997
      5997      5998      5997      5999      5997      6000      6000      6001
      6000      6002      6000      6003      6003      6004      6003      6005
      6003      6006      6006      6007      6006      6008      6006      6009
      6009      6010      6009      6011      6009      6012      6012      6013
      6012      6014      6012      6015      6015      6016      6015      6017
      6015      6018      6018      6019      6018      6020      6018      6021
      6021      6022      6021      6023      6021      6024      6024      6025
      6024      6026      6024      6027      6027      6028      6027      6029
      6027      6030      6031      6035      6031      6039      6031      6043
      6035      6036      6035      6037      6035      6038      6039      6040
      6039      6041      6039      6042      6043      6044      6043      6045
      6043      6046      6031      6032      6032      6033      6032      6034
      6032      6047      6047      6048      6047      6049      6047      6053
      6054      6055      6053      6050      6050      6054      6050      6051
      6050      6052      6055      6056      6055      6057      6055      6058
      6058      6059      6058      6066      6058      6060      6066      6067
      6066      6068      6066      6069      6060      6061      6061      6063
      6061      6062      6063      6064      6063      6065      6063      6075
      6075      6076      6075      6077      6075      6078      6078      6079
      6078      6080      6078      6081      6081      6082      6081      6083
      6081      6084      6084      6085      6084      6086      6084      6087
      6087      6088      6087      6089      6087      6090      6090      6091
      6090      6092      6090      6093      6093      6094      6093      6095
      6095      6096      6095      6097      6097      6098      6097      6099
      6097      6100      6100      6101      6100      6102      6100      6103
      6103      6104      6103      6105      6103      6106      6106      6107
      6106      6108      6106      6109      6109      6110      6109      6111
      6109      6112      6112      6113      6112      6114      6112      6115
      6115      6116      6115      6117      6115      6118      6118      6119
      6118      6120      6118      6121      6069      6070      6070      6072
      6070      6071      6072      6073      6072      6074      6072      6122
      6122      6123      6122      6124      6122      6125      6125      6126
      6125      6127      6125      6128      6128      6129      6128      6130
      6128      6131      6131      6132      6131      6133      6131      6134
      6134      6135      6134      6136      6134      6137      6137      6138
      6137      6139      6137      6140      6140      6141      6140      6142
      6140      6143      6143      6144      6143      6145      6143      6146
      6146      6147      6146      6148      6146      6149      6149      6150
      6149      6151      6149      6152      6152      6153      6152      6154
      6152      6155      6155      6156      6155      6157      6155      6158
      6158      6159      6158      6160      6158      6161      6161      6162
      6161      6163      6161      6164      6165      6169      6165      6173
      6165      6177      6169      6170      6169      6171      6169      6172
      6173      6174      6173      6175      6173      6176      6177      6178
      6177      6179      6177      6180      6165      6166      6166      6167
      6166      6168      6166      6181      6181      6182      6181      6183
      6181      6187      6188      6189      6187      6184      6184      6188
      6184      6185      6184      6186      6189      6190      6189      6191
      6189      6192      6192      6193      6192      6200      6192      6194
      6200      6201      6200      6202      6200      6203      6194      6195
      6195      6197      6195      6196      6197      6198      6197      6199
      6197      6209      6209      6210      6209      6211      6209      6212
      6212      6213      6212      6214      6212      6215      6215      6216
      6215      6217      6215      6218      6218      6219      6218      6220
      6218      6221      6221      6222      6221      6223      6221      6224
      6224      6225      6224      6226      6224      6227      6227      6228
      6227      6229      6229      6230      6229      6231      6231      6232
      6231      6233      6231      6234      6234      6235      6234      6236
      6234      6237      6237      6238      6237      6239      6237      6240
      6240      6241      6240      6242      6240      6243      6243      6244
      6243      6245      6243      6246      6246      6247      6246      6248
      6246      6249      6249      6250      6249      6251      6249      6252
      6252      6253      6252      6254      6252      6255      6203      6204
      6204      6206      6204      6205      6206      6207      6206      6208
      6206      6256      6256      6257      6256      6258      6256      6259
      6259      6260      6259      6261      6259      6262      6262      6263
      6262      6264      6262      6265      6265      6266      6265      6267
      6265      6268      6268      6269      6268      6270      6268      6271
      6271      6272      6271      6273      6271      6274      6274      6275
      6274      6276      6274      6277      6277      6278      6277      6279
      6277      6280      6280      6281      6280      6282      6280      6283
      6283      6284      6283      6285      6283      6286      6286      6287
      6286      6288      6286      6289      6289      6290      6289      6291
      6289      6292      6292      6293      6292      6294      6292      6295
      6295      6296      6295      6297      6295      6298      6299      6303
      6299      6307      6299      6311      6303      6304      6303      6305
      6303      6306      6307      6308      6307      6309      6307      6310
      6311      6312      6311      6313      6311      6314      6299      6300
      6300      6301      6300      6302      6300      6315      6315      6316
      6315      6317      6315      6321      6322      6323      6321      6318
      6318      6322      6318      6319      6318      6320      6323      6324
      6323      6325      6323      6326      6326      6327      6326      6334
      6326      6328      6334      6335      6334      6336      6334      6337
      6328      6329      6329      6331      6329      6330      6331      6332
      6331      6333      6331      6343      6343      6344      6343      6345
      6343      6346      6346      6347      6346      6348      6346      6349
      6349      6350      6349      6351      6349      6352      6352      6353
      6352      6354      6352      6355      6355      6356      6355      6357
      6355      6358      6358      6359      6358      6360      6358      6361
      6361      6362      6361      6363      6363      6364      6363      6365
      6365      6366      6365      6367      6365      6368      6368      6369
      6368      6370      6368      6371      6371      6372      6371      6373
      6371      6374      6374      6375      6374      6376      6374      6377
      6377      6378      6377      6379      6377      6380      6380      6381
      6380      6382      6380      6383      6383      6384      6383      6385
      6383      6386      6386      6387      6386      6388      6386      6389
      6337      6338      6338      6340      6338      6339      6340      6341
      6340      6342      6340      6390      6390      6391      6390      6392
      6390      6393      6393      6394      6393      6395      6393      6396
      6396      6397      6396      6398      6396      6399      6399      6400
      6399      6401      6399      6402      6402      6403      6402      6404
      6402      6405      6405      6406      6405      6407      6405      6408
      6408      6409      6408      6410      6408      6411      6411      6412
      6411      6413      6411      6414      6414      6415      6414      6416
      6414      6417      6417      6418      6417      6419      6417      6420
      6420      6421      6420      6422      6420      6423      6423      6424
      6423      6425      6423      6426      6426      6427      6426      6428
      6426      6429      6429      6430      6429      6431      6429      6432
      6433      6437      6433      6441      6433      6445      6437      6438
      6437      6439      6437      6440      6441      6442      6441      6443
      6441      6444      6445      6446      6445      6447      6445      6448
      6433      6434      6434      6435      6434      6436      6434      6449
      6449      6450      6449      6451      6449      6455      6456      6457
      6455      6452      6452      6456      6452      6453      6452      6454
      6457      6458      6457      6459      6457      6460      6460      6461
      6460      6468      6460      6462      6468      6469      6468      6470
      6468      6471      6462      6463      6463      6465      6463      6464
      6465      6466      6465      6467      6465      6477      6477      6478
      6477      6479      6477      6480      6480      6481      6480      6482
      6480      6483      6483      6484      6483      6485      6483      6486
      6486      6487      6486      6488      6486      6489      6489      6490
      6489      6491      6489      6492      6492      6493      6492      6494
      6492      6495      6495      6496      6495      6497      6497      6498
      6497      6499      6499      6500      6499      6501      6499      6502
      6502      6503      6502      6504      6502      6505      6505      6506
      6505      6507      6505      6508      6508      6509      6508      6510
      6508      6511      6511      6512      6511      6513      6511      6514
      6514      6515      6514      6516      6514      6517      6517      6518
      6517      6519      6517      6520      6520      6521      6520      6522
      6520      6523      6471      6472      6472      6474      6472      6473
      6474      6475      6474      6476      6474      6524      6524      6525
      6524      6526      6524      6527      6527      6528      6527      6529
      6527      6530      6530      6531      6530      6532      6530      6533
      6533      6534      6533      6535      6533      6536      6536      6537
      6536      6538      6536      6539      6539      6540      6539      6541
      6539      6542      6542      6543      6542      6544      6542      6545
      6545      6546      6545      6547      6545      6548      6548      6549
      6548      6550      6548      6551      6551      6552      6551      6553
      6551      6554      6554      6555      6554      6556      6554      6557
      6557      6558      6557      6559      6557      6560      6560      6561
      6560      6562      6560      6563      6563      6564      6563      6565
      6563      6566      6567      6571      6567      6575      6567      6579
      6571      6572      6571      6573      6571      6574      6575      6576
      6575      6577      6575      6578      6579      6580      6579      6581
      6579      6582      6567      6568      6568      6569      6568      6570
      6568      6583      6583      6584      6583      6585      6583      6589
      6590      6591      6589      6586      6586      6590      6586      6587
      6586      6588      6591      6592      6591      6593      6591      6594
      6594      6595      6594      6602      6594      6596      6602      6603
      6602      6604      6602      6605      6596      6597      6597      6599
      6597      6598      6599      6600      6599      6601      6599      6611
      6611      6612      6611      6613      6611      6614      6614      6615
      6614      6616      6614      6617      6617      6618      6617      6619
      6617      6620      6620      6621      6620      6622      6620      6623
      6623      6624      6623      6625      6623      6626      6626      6627
      6626      6628      6626      6629      6629      6630      6629      6631
      6631      6632      6631      6633      6633      6634      6633      6635
      6633      6636      6636      6637      6636      6638      6636      6639
      6639      6640      6639      6641      6639      6642      6642      6643
      6642      6644      6642      6645      6645      6646      6645      6647
      6645      6648      6648      6649      6648      6650      6648      6651
      6651      6652      6651      6653      6651      6654      6654      6655
      6654      6656      6654      6657      6605      6606      6606      6608
      6606      6607      6608      6609      6608      6610      6608      6658
      6658      6659      6658      6660      6658      6661      6661      6662
      6661      6663      6661      6664      6664      6665      6664      6666
      6664      6667      6667      6668      6667      6669      6667      6670
      6670      6671      6670      6672      6670      6673      6673      6674
      6673      6675      6673      6676      6676      6677      6676      6678
      6676      6679      6679      6680      6679      6681      6679      6682
      6682      6683      6682      6684      6682      6685      6685      6686
      6685      6687      6685      6688      6688      6689      6688      6690
      6688      6691      6691      6692      6691      6693      6691      6694
      6694      6695      6694      6696      6694      6697      6697      6698
      6697      6699      6697      6700      6701      6705      6701      6709
      6701      6713      6705      6706      6705      6707      6705      6708
      6709      6710      6709      6711      6709      6712      6713      6714
      6713      6715      6713      6716      6701      6702      6702      6703
      6702      6704      6702      6717      6717      6718      6717      6719
      6717      6723      6724      6725      6723      6720      6720      6724
      6720      6721      6720      6722      6725      6726      6725      6727
      6725      6728      6728      6729      6728      6736      6728      6730
      6736      6737      6736      6738      6736      6739      6730      6731
      6731      6733      6731      6732      6733      6734      6733      6735
      6733      6745      6745      6746      6745      6747      6745      6748
      6748      6749      6748      6750      6748      6751      6751      6752
      6751      6753      6751      6754      6754      6755      6754      6756
      6754      6757      6757      6758      6757      6759      6757      6760
      6760      6761      6760      6762      6760      6763      6763      6764
      6763      6765      6765      6766      6765      6767      6767      6768
      6767      6769      6767      6770      6770      6771      6770      6772
      6770      6773      6773      6774      6773      6775      6773      6776
      6776      6777      6776      6778      6776      6779      6779      6780
      6779      6781      6779      6782      6782      6783      6782      6784
      6782      6785      6785      6786      6785      6787      6785      6788
      6788      6789      6788      6790      6788      6791      6739      6740
      6740      6742      6740      6741      6742      6743      6742      6744
      6742      6792      6792      6793      6792      6794      6792      6795
      6795      6796      6795      6797      6795      6798      6798      6799
      6798      6800      6798      6801      6801      6802      6801      6803
      6801      6804      6804      6805      6804      6806      6804      6807
      6807      6808      6807      6809      6807      6810      6810      6811
      6810      6812      6810      6813      6813      6814      6813      6815
      6813      6816      6816      6817      6816      6818      6816      6819
      6819      6820      6819      6821      6819      6822      6822      6823
      6822      6824      6822      6825      6825      6826      6825      6827
      6825      6828      6828      6829      6828      6830      6828      6831
      6831      6832      6831      6833      6831      6834      6835      6839
      6835      6843      6835      6847      6839      6840      6839      6841
      6839      6842      6843      6844      6843      6845      6843      6846
      6847      6848      6847      6849      6847      6850      6835      6836
      6836      6837      6836      6838      6836      6851      6851      6852
      6851      6853      6851      6857      6858      6859      6857      6854
      6854      6858      6854      6855      6854      6856      6859      6860
      6859      6861      6859      6862      6862      6863      6862      6870
      6862      6864      6870      6871      6870      6872      6870      6873
      6864      6865      6865      6867      6865      6866      6867      6868
      6867      6869      6867      6879      6879      6880      6879      6881
      6879      6882      6882      6883      6882      6884      6882      6885
      6885      6886      6885      6887      6885      6888      6888      6889
      6888      6890      6888      6891      6891      6892      6891      6893
      6891      6894      6894      6895      6894      6896      6894      6897
      6897      6898      6897      6899      6899      6900      6899      6901
      6901      6902      6901      6903      6901      6904      6904      6905
      6904      6906      6904      6907      6907      6908      6907      6909
      6907      6910      6910      6911      6910      6912      6910      6913
      6913      6914      6913      6915      6913      6916      6916      6917
      6916      6918      6916      6919      6919      6920      6919      6921
      6919      6922      6922      6923      6922      6924      6922      6925
      6873      6874      6874      6876      6874      6875      6876      6877
      6876      6878      6876      6926      6926      6927      6926      6928
      6926      6929      6929      6930      6929      6931      6929      6932
      6932      6933      6932      6934      6932      6935      6935      6936
      6935      6937      6935      6938      6938      6939      6938      6940
      6938      6941      6941      6942      6941      6943      6941      6944
      6944      6945      6944      6946      6944      6947      6947      6948
      6947      6949      6947      6950      6950      6951      6950      6952
      6950      6953      6953      6954      6953      6955      6953      6956
      6956      6957      6956      6958      6956      6959      6959      6960
      6959      6961      6959      6962      6962      6963      6962      6964
      6962      6965      6965      6966      6965      6967      6965      6968
      6969      6973      6969      6977      6969      6981      6973      6974
      6973      6975      6973      6976      6977      6978      6977      6979
      6977      6980      6981      6982      6981      6983      6981      6984
      6969      6970      6970      6971      6970      6972      6970      6985
      6985      6986      6985      6987      6985      6991      6992      6993
      6991      6988      6988      6992      6988      6989      6988      6990
      6993      6994      6993      6995      6993      6996      6996      6997
      6996      7004      6996      6998      7004      7005      7004      7006
      7004      7007      6998      6999      6999      7001      6999      7000
      7001      7002      7001      7003      7001      7013      7013      7014
      7013      7015      7013      7016      7016      7017      7016      7018
      7016      7019      7019      7020      7019      7021      7019      7022
      7022      7023      7022      7024      7022      7025      7025      7026
      7025      7027      7025      7028      7028      7029      7028      7030
      7028      7031      7031      7032      7031      7033      7033      7034
      7033      7035      7035      7036      7035      7037      7035      7038
      7038      7039      7038      7040      7038      7041      7041      7042
      7041      7043      7041      7044      7044      7045      7044      7046
      7044      7047      7047      7048      7047      7049      7047      7050
      7050      7051      7050      7052      7050      7053      7053      7054
      7053      7055      7053      7056      7056      7057      7056      7058
      7056      7059      7007      7008      7008      7010      7008      7009
      7010      7011      7010      7012      7010      7060      7060      7061
      7060      7062      7060      7063      7063      7064      7063      7065
      7063      7066      7066      7067      7066      7068      7066      7069
      7069      7070      7069      7071      7069      7072      7072      7073
      7072      7074      7072      7075      7075      7076      7075      7077
      7075      7078      7078      7079      7078      7080      7078      7081
      7081      7082      7081      7083      7081      7084      7084      7085
      7084      7086      7084      7087      7087      7088      7087      7089
      7087      7090      7090      7091      7090      7092      7090      7093
      7093      7094      7093      7095      7093      7096      7096      7097
      7096      7098      7096      7099      7099      7100      7099      7101
      7099      7102      7103      7107      7103      7111      7103      7115
      7107      7108      7107      7109      7107      7110      7111      7112
      7111      7113      7111      7114      7115      7116      7115      7117
      7115      7118      7103      7104      7104      7105      7104      7106
      7104      7119      7119      7120      7119      7121      7119      7125
      7126      7127      7125      7122      7122      7126      7122      7123
      7122      7124      7127      7128      7127      7129      7127      7130
      7130      7131      7130      7138      7130      7132      7138      7139
      7138      7140      7138      7141      7132      7133      7133      7135
      7133      7134      7135      7136      7135      7137      7135      7147
      7147      7148      7147      7149      7147      7150      7150      7151
      7150      7152      7150      7153      7153      7154      7153      7155
      7153      7156      7156      7157      7156      7158      7156      7159
      7159      7160      7159      7161      7159      7162      7162      7163
      7162      7164      7162      7165      7165      7166      7165      7167
      7167      7168      7167      7169      7169      7170      7169      7171
      7169      7172      7172      7173      7172      7174      7172      7175
      7175      7176      7175      7177      7175      7178      7178      7179
      7178      7180      7178      7181      7181      7182      7181      7183
      7181      7184      7184      7185      7184      7186      7184      7187
      7187      7188      7187      7189      7187      7190      7190      7191
      7190      7192      7190      7193      7141      7142      7142      7144
      7142      7143      7144      7145      7144      7146      7144      7194
      7194      7195      7194      7196      7194      7197      7197      7198
      7197      7199      7197      7200      7200      7201      7200      7202
      7200      7203      7203      7204      7203      7205      7203      7206
      7206      7207      7206      7208      7206      7209      7209      7210
      7209      7211      7209      7212      7212      7213      7212      7214
      7212      7215      7215      7216      7215      7217      7215      7218
      7218      7219      7218      7220      7218      7221      7221      7222
      7221      7223      7221      7224      7224      7225      7224      7226
      7224      7227      7227      7228      7227      7229      7227      7230
      7230      7231      7230      7232      7230      7233      7233      7234
      7233      7235      7233      7236      7237      7241      7237      7245
      7237      7249      7241      7242      7241      7243      7241      7244
      7245      7246      7245      7247      7245      7248      7249      7250
      7249      7251      7249      7252      7237      7238      7238      7239
      7238      7240      7238      7253      7253      7254      7253      7255
      7253      7259      7260      7261      7259      7256      7256      7260
      7256      7257      7256      7258      7261      7262      7261      7263
      7261      7264      7264      7265      7264      7272      7264      7266
      7272      7273      7272      7274      7272      7275      7266      7267
      7267      7269      7267      7268      7269      7270      7269      7271
      7269      7281      7281      7282      7281      7283      7281      7284
      7284      7285      7284      7286      7284      7287      7287      7288
      7287      7289      7287      7290      7290      7291      7290      7292
      7290      7293      7293      7294      7293      7295      7293      7296
      7296      7297      7296      7298      7296      7299      7299      7300
      7299      7301      7301      7302      7301      7303      7303      7304
      7303      7305      7303      7306      7306      7307      7306      7308
      7306      7309      7309      7310      7309      7311      7309      7312
      7312      7313      7312      7314      7312      7315      7315      7316
      7315      7317      7315      7318      7318      7319      7318      7320
      7318      7321      7321      7322      7321      7323      7321      7324
      7324      7325      7324      7326      7324      7327      7275      7276
      7276      7278      7276      7277      7278      7279      7278      7280
      7278      7328      7328      7329      7328      7330      7328      7331
      7331      7332      7331      7333      7331      7334      7334      7335
      7334      7336      7334      7337      7337      7338      7337      7339
      7337      7340      7340      7341      7340      7342      7340      7343
      7343      7344      7343      7345      7343      7346      7346      7347
      7346      7348      7346      7349      7349      7350      7349      7351
      7349      7352      7352      7353      7352      7354      7352      7355
      7355      7356      7355      7357      7355      7358      7358      7359
      7358      7360      7358      7361      7361      7362      7361      7363
      7361      7364      7364      7365      7364      7366      7364      7367
      7367      7368      7367      7369      7367      7370      7371      7375
      7371      7379      7371      7383      7375      7376      7375      7377
      7375      7378      7379      7380      7379      7381      7379      7382
      7383      7384      7383      7385      7383      7386      7371      7372
      7372      7373      7372      7374      7372      7387      7387      7388
      7387      7389      7387      7393      7394      7395      7393      7390
      7390      7394      7390      7391      7390      7392      7395      7396
      7395      7397      7395      7398      7398      7399      7398      7406
      7398      7400      7406      7407      7406      7408      7406      7409
      7400      7401      7401      7403      7401      7402      7403      7404
      7403      7405      7403      7415      7415      7416      7415      7417
      7415      7418      7418      7419      7418      7420      7418      7421
      7421      7422      7421      7423      7421      7424      7424      7425
      7424      7426      7424      7427      7427      7428      7427      7429
      7427      7430      7430      7431      7430      7432      7430      7433
      7433      7434      7433      7435      7435      7436      7435      7437
      7437      7438      7437      7439      7437      7440      7440      7441
      7440      7442      7440      7443      7443      7444      7443      7445
      7443      7446      7446      7447      7446      7448      7446      7449
      7449      7450      7449      7451      7449      7452      7452      7453
      7452      7454      7452      7455      7455      7456      7455      7457
      7455      7458      7458      7459      7458      7460      7458      7461
      7409      7410      7410      7412      7410      7411      7412      7413
      7412      7414      7412      7462      7462      7463      7462      7464
      7462      7465      7465      7466      7465      7467      7465      7468
      7468      7469      7468      7470      7468      7471      7471      7472
      7471      7473      7471      7474      7474      7475      7474      7476
      7474      7477      7477      7478      7477      7479      7477      7480
      7480      7481      7480      7482      7480      7483      7483      7484
      7483      7485      7483      7486      7486      7487      7486      7488
      7486      7489      7489      7490      7489      7491      7489      7492
      7492      7493      7492      7494      7492      7495      7495      7496
      7495      7497      7495      7498      7498      7499      7498      7500
      7498      7501      7501      7502      7501      7503      7501      7504
      7505      7509      7505      7513      7505      7517      7509      7510
      7509      7511      7509      7512      7513      7514      7513      7515
      7513      7516      7517      7518      7517      7519      7517      7520
      7505      7506      7506      7507      7506      7508      7506      7521
      7521      7522      7521      7523      7521      7527      7528      7529
      7527      7524      7524      7528      7524      7525      7524      7526
      7529      7530      7529      7531      7529      7532      7532      7533
      7532      7540      7532      7534      7540      7541      7540      7542
      7540      7543      7534      7535      7535      7537      7535      7536
      7537      7538      7537      7539      7537      7549      7549      7550
      7549      7551      7549      7552      7552      7553      7552      7554
      7552      7555      7555      7556      7555      7557      7555      7558
      7558      7559      7558      7560      7558      7561      7561      7562
      7561      7563      7561      7564      7564      7565      7564      7566
      7564      7567      7567      7568      7567      7569      7569      7570
      7569      7571      7571      7572      7571      7573      7571      7574
      7574      7575      7574      7576      7574      7577      7577      7578
      7577      7579      7577      7580      7580      7581      7580      7582
      7580      7583      7583      7584      7583      7585      7583      7586
      7586      7587      7586      7588      7586      7589      7589      7590
      7589      7591      7589      7592      7592      7593      7592      7594
      7592      7595      7543      7544      7544      7546      7544      7545
      7546      7547      7546      7548      7546      7596      7596      7597
      7596      7598      7596      7599      7599      7600      7599      7601
      7599      7602      7602      7603      7602      7604      7602      7605
      7605      7606      7605      7607      7605      7608      7608      7609
      7608      7610      7608      7611      7611      7612      7611      7613
      7611      7614      7614      7615      7614      7616      7614      7617
      7617      7618      7617      7619      7617      7620      7620      7621
      7620      7622      7620      7623      7623      7624      7623      7625
      7623      7626      7626      7627      7626      7628      7626      7629
      7629      7630      7629      7631      7629      7632      7632      7633
      7632      7634      7632      7635      7635      7636      7635      7637
      7635      7638      7639      7643      7639      7647      7639      7651
      7643      7644      7643      7645      7643      7646      7647      7648
      7647      7649      7647      7650      7651      7652      7651      7653
      7651      7654      7639      7640      7640      7641      7640      7642
      7640      7655      7655      7656      7655      7657      7655      7661
      7662      7663      7661      7658      7658      7662      7658      7659
      7658      7660      7663      7664      7663      7665      7663      7666
      7666      7667      7666      7674      7666      7668      7674      7675
      7674      7676      7674      7677      7668      7669      7669      7671
      7669      7670      7671      7672      7671      7673      7671      7683
      7683      7684      7683      7685      7683      7686      7686      7687
      7686      7688      7686      7689      7689      7690      7689      7691
      7689      7692      7692      7693      7692      7694      7692      7695
      7695      7696      7695      7697      7695      7698      7698      7699
      7698      7700      7698      7701      7701      7702      7701      7703
      7703      7704      7703      7705      7705      7706      7705      7707
      7705      7708      7708      7709      7708      7710      7708      7711
      7711      7712      7711      7713      7711      7714      7714      7715
      7714      7716      7714      7717      7717      7718      7717      7719
      7717      7720      7720      7721      7720      7722      7720      7723
      7723      7724      7723      7725      7723      7726      7726      7727
      7726      7728      7726      7729      7677      7678      7678      7680
      7678      7679      7680      7681      7680      7682      7680      7730
      7730      7731      7730      7732      7730      7733      7733      7734
      7733      7735      7733      7736      7736      7737      7736      7738
      7736      7739      7739      7740      7739      7741      7739      7742
      7742      7743      7742      7744      7742      7745      7745      7746
      7745      7747      7745      7748      7748      7749      7748      7750
      7748      7751      7751      7752      7751      7753      7751      7754
      7754      7755      7754      7756      7754      7757      7757      7758
      7757      7759      7757      7760      7760      7761      7760      7762
      7760      7763      7763      7764      7763      7765      7763      7766
      7766      7767      7766      7768      7766      7769      7769      7770
      7769      7771      7769      7772      7773      7777      7773      7781
      7773      7785      7777      7778      7777      7779      7777      7780
      7781      7782      7781      7783      7781      7784      7785      7786
      7785      7787      7785      7788      7773      7774      7774      7775
      7774      7776      7774      7789      7789      7790      7789      7791
      7789      7795      7796      7797      7795      7792      7792      7796
      7792      7793      7792      7794      7797      7798      7797      7799
      7797      7800      7800      7801      7800      7808      7800      7802
      7808      7809      7808      7810      7808      7811      7802      7803
      7803      7805      7803      7804      7805      7806      7805      7807
      7805      7817      7817      7818      7817      7819      7817      7820
      7820      7821      7820      7822      7820      7823      7823      7824
      7823      7825      7823      7826      7826      7827      7826      7828
      7826      7829      7829      7830      7829      7831      7829      7832
      7832      7833      7832      7834      7832      7835      7835      7836
      7835      7837      7837      7838      7837      7839      7839      7840
      7839      7841      7839      7842      7842      7843      7842      7844
      7842      7845      7845      7846      7845      7847      7845      7848
      7848      7849      7848      7850      7848      7851      7851      7852
      7851      7853      7851      7854      7854      7855      7854      7856
      7854      7857      7857      7858      7857      7859      7857      7860
      7860      7861      7860      7862      7860      7863      7811      7812
      7812      7814      7812      7813      7814      7815      7814      7816
      7814      7864      7864      7865      7864      7866      7864      7867
      7867      7868      7867      7869      7867      7870      7870      7871
      7870      7872      7870      7873      7873      7874      7873      7875
      7873      7876      7876      7877      7876      7878      7876      7879
      7879      7880      7879      7881      7879      7882      7882      7883
      7882      7884      7882      7885      7885      7886      7885      7887
      7885      7888      7888      7889      7888      7890      7888      7891
      7891      7892      7891      7893      7891      7894      7894      7895
      7894      7896      7894      7897      7897      7898      7897      7899
      7897      7900      7900      7901      7900      7902      7900      7903
      7903      7904      7903      7905      7903      7906      7907      7911
      7907      7915      7907      7919      7911      7912      7911      7913
      7911      7914      7915      7916      7915      7917      7915      7918
      7919      7920      7919      7921      7919      7922      7907      7908
      7908      7909      7908      7910      7908      7923      7923      7924
      7923      7925      7923      7929      7930      7931      7929      7926
      7926      7930      7926      7927      7926      7928      7931      7932
      7931      7933      7931      7934      7934      7935      7934      7942
      7934      7936      7942      7943      7942      7944      7942      7945
      7936      7937      7937      7939      7937      7938      7939      7940
      7939      7941      7939      7951      7951      7952      7951      7953
      7951      7954      7954      7955      7954      7956      7954      7957
      7957      7958      7957      7959      7957      7960      7960      7961
      7960      7962      7960      7963      7963      7964      7963      7965
      7963      7966      7966      7967      7966      7968      7966      7969
      7969      7970      7969      7971      7971      7972      7971      7973
      7973      7974      7973      7975      7973      7976      7976      7977
      7976      7978      7976      7979      7979      7980      7979      7981
      7979      7982      7982      7983      7982      7984      7982      7985
      7985      7986      7985      7987      7985      7988      7988      7989
      7988      7990      7988      7991      7991      7992      7991      7993
      7991      7994      7994      7995      7994      7996      7994      7997
      7945      7946      7946      7948      7946      7947      7948      7949
      7948      7950      7948      7998      7998      7999      7998      8000
      7998      8001      8001      8002      8001      8003      8001      8004
      8004      8005      8004      8006      8004      8007      8007      8008
      8007      8009      8007      8010      8010      8011      8010      8012
      8010      8013      8013      8014      8013      8015      8013      8016
      8016      8017      8016      8018      8016      8019      8019      8020
      8019      8021      8019      8022      8022      8023      8022      8024
      8022      8025      8025      8026      8025      8027      8025      8028
      8028      8029      8028      8030      8028      8031      8031      8032
      8031      8033      8031      8034      8034      8035      8034      8036
      8034      8037      8037      8038      8037      8039      8037      8040
      8041      8045      8041      8049      8041      8053      8045      8046
      8045      8047      8045      8048      8049      8050      8049      8051
      8049      8052      8053      8054      8053      8055      8053      8056
      8041      8042      8042      8043      8042      8044      8042      8057
      8057      8058      8057      8059      8057      8063      8064      8065
      8063      8060      8060      8064      8060      8061      8060      8062
      8065      8066      8065      8067      8065      8068      8068      8069
      8068      8076      8068      8070      8076      8077      8076      8078
      8076      8079      8070      8071      8071      8073      8071      8072
      8073      8074      8073      8075      8073      8085      8085      8086
      8085      8087      8085      8088      8088      8089      8088      8090
      8088      8091      8091      8092      8091      8093      8091      8094
      8094      8095      8094      8096      8094      8097      8097      8098
      8097      8099      8097      8100      8100      8101      8100      8102
      8100      8103      8103      8104      8103      8105      8105      8106
      8105      8107      8107      8108      8107      8109      8107      8110
      8110      8111      8110      8112      8110      8113      8113      8114
      8113      8115      8113      8116      8116      8117      8116      8118
      8116      8119      8119      8120      8119      8121      8119      8122
      8122      8123      8122      8124      8122      8125      8125      8126
      8125      8127      8125      8128      8128      8129      8128      8130
      8128      8131      8079      8080      8080      8082      8080      8081
      8082      8083      8082      8084      8082      8132      8132      8133
      8132      8134      8132      8135      8135      8136      8135      8137
      8135      8138      8138      8139      8138      8140      8138      8141
      8141      8142      8141      8143      8141      8144      8144      8145
      8144      8146      8144      8147      8147      8148      8147      8149
      8147      8150      8150      8151      8150      8152      8150      8153
      8153      8154      8153      8155      8153      8156      8156      8157
      8156      8158      8156      8159      8159      8160      8159      8161
      8159      8162      8162      8163      8162      8164      8162      8165
      8165      8166      8165      8167      8165      8168      8168      8169
      8168      8170      8168      8171      8171      8172      8171      8173
      8171      8174      8175      8179      8175      8183      8175      8187
      8179      8180      8179      8181      8179      8182      8183      8184
      8183      8185      8183      8186      8187      8188      8187      8189
      8187      8190      8175      8176      8176      8177      8176      8178
      8176      8191      8191      8192      8191      8193      8191      8197
      8198      8199      8197      8194      8194      8198      8194      8195
      8194      8196      8199      8200      8199      8201      8199      8202
      8202      8203      8202      8210      8202      8204      8210      8211
      8210      8212      8210      8213      8204      8205      8205      8207
      8205      8206      8207      8208      8207      8209      8207      8219
      8219      8220      8219      8221      8219      8222      8222      8223
      8222      8224      8222      8225      8225      8226      8225      8227
      8225      8228      8228      8229      8228      8230      8228      8231
      8231      8232      8231      8233      8231      8234      8234      8235
      8234      8236      8234      8237      8237      8238      8237      8239
      8239      8240      8239      8241      8241      8242      8241      8243
      8241      8244      8244      8245      8244      8246      8244      8247
      8247      8248      8247      8249      8247      8250      8250      8251
      8250      8252      8250      8253      8253      8254      8253      8255
      8253      8256      8256      8257      8256      8258      8256      8259
      8259      8260      8259      8261      8259      8262      8262      8263
      8262      8264      8262      8265      8213      8214      8214      8216
      8214      8215      8216      8217      8216      8218      8216      8266
      8266      8267      8266      8268      8266      8269      8269      8270
      8269      8271      8269      8272      8272      8273      8272      8274
      8272      8275      8275      8276      8275      8277      8275      8278
      8278      8279      8278      8280      8278      8281      8281      8282
      8281      8283      8281      8284      8284      8285      8284      8286
      8284      8287      8287      8288      8287      8289      8287      8290
      8290      8291      8290      8292      8290      8293      8293      8294
      8293      8295      8293      8296      8296      8297      8296      8298
      8296      8299      8299      8300      8299      8301      8299      8302
      8302      8303      8302      8304      8302      8305      8305      8306
      8305      8307      8305      8308      8309      8313      8309      8317
      8309      8321      8313      8314      8313      8315      8313      8316
      8317      8318      8317      8319      8317      8320      8321      8322
      8321      8323      8321      8324      8309      8310      8310      8311
      8310      8312      8310      8325      8325      8326      8325      8327
      8325      8331      8332      8333      8331      8328      8328      8332
      8328      8329      8328      8330      8333      8334      8333      8335
      8333      8336      8336      8337      8336      8344      8336      8338
      8344      8345      8344      8346      8344      8347      8338      8339
      8339      8341      8339      8340      8341      8342      8341      8343
      8341      8353      8353      8354      8353      8355      8353      8356
      8356      8357      8356      8358      8356      8359      8359      8360
      8359      8361      8359      8362      8362      8363      8362      8364
      8362      8365      8365      8366      8365      8367      8365      8368
      8368      8369      8368      8370      8368      8371      8371      8372
      8371      8373      8373      8374      8373      8375      8375      8376
      8375      8377      8375      8378      8378      8379      8378      8380
      8378      8381      8381      8382      8381      8383      8381      8384
      8384      8385      8384      8386      8384      8387      8387      8388
      8387      8389      8387      8390      8390      8391      8390      8392
      8390      8393      8393      8394      8393      8395      8393      8396
      8396      8397      8396      8398      8396      8399      8347      8348
      8348      8350      8348      8349      8350      8351      8350      8352
      8350      8400      8400      8401      8400      8402      8400      8403
      8403      8404      8403      8405      8403      8406      8406      8407
      8406      8408      8406      8409      8409      8410      8409      8411
      8409      8412      8412      8413      8412      8414      8412      8415
      8415      8416      8415      8417      8415      8418      8418      8419
      8418      8420      8418      8421      8421      8422      8421      8423
      8421      8424      8424      8425      8424      8426      8424      8427
      8427      8428      8427      8429      8427      8430      8430      8431
      8430      8432      8430      8433      8433      8434      8433      8435
      8433      8436      8436      8437      8436      8438      8436      8439
      8439      8440      8439      8441      8439      8442      8443      8447
      8443      8451      8443      8455      8447      8448      8447      8449
      8447      8450      8451      8452      8451      8453      8451      8454
      8455      8456      8455      8457      8455      8458      8443      8444
      8444      8445      8444      8446      8444      8459      8459      8460
      8459      8461      8459      8465      8466      8467      8465      8462
      8462      8466      8462      8463      8462      8464      8467      8468
      8467      8469      8467      8470      8470      8471      8470      8478
      8470      8472      8478      8479      8478      8480      8478      8481
      8472      8473      8473      8475      8473      8474      8475      8476
      8475      8477      8475      8487      8487      8488      8487      8489
      8487      8490      8490      8491      8490      8492      8490      8493
      8493      8494      8493      8495      8493      8496      8496      8497
      8496      8498      8496      8499      8499      8500      8499      8501
      8499      8502      8502      8503      8502      8504      8502      8505
      8505      8506      8505      8507      8507      8508      8507      8509
      8509      8510      8509      8511      8509      8512      8512      8513
      8512      8514      8512      8515      8515      8516      8515      8517
      8515      8518      8518      8519      8518      8520      8518      8521
      8521      8522      8521      8523      8521      8524      8524      8525
      8524      8526      8524      8527      8527      8528      8527      8529
      8527      8530      8530      8531      8530      8532      8530      8533
      8481      8482      8482      8484      8482      8483      8484      8485
      8484      8486      8484      8534      8534      8535      8534      8536
      8534      8537      8537      8538      8537      8539      8537      8540
      8540      8541      8540      8542      8540      8543      8543      8544
      8543      8545      8543      8546      8546      8547      8546      8548
      8546      8549      8549      8550      8549      8551      8549      8552
      8552      8553      8552      8554      8552      8555      8555      8556
      8555      8557      8555      8558      8558      8559      8558      8560
      8558      8561      8561      8562      8561      8563      8561      8564
      8564      8565      8564      8566      8564      8567      8567      8568
      8567      8569      8567      8570      8570      8571      8570      8572
      8570      8573      8573      8574      8573      8575      8573      8576
      8577      8581      8577      8585      8577      8589      8581      8582
      8581      8583      8581      8584      8585      8586      8585      8587
      8585      8588      8589      8590      8589      8591      8589      8592
      8577      8578      8578      8579      8578      8580      8578      8593
      8593      8594      8593      8595      8593      8599      8600      8601
      8599      8596      8596      8600      8596      8597      8596      8598
      8601      8602      8601      8603      8601      8604      8604      8605
      8604      8612      8604      8606      8612      8613      8612      8614
      8612      8615      8606      8607      8607      8609      8607      8608
      8609      8610      8609      8611      8609      8621      8621      8622
      8621      8623      8621      8624      8624      8625      8624      8626
      8624      8627      8627      8628      8627      8629      8627      8630
      8630      8631      8630      8632      8630      8633      8633      8634
      8633      8635      8633      8636      8636      8637      8636      8638
      8636      8639      8639      8640      8639      8641      8641      8642
      8641      8643      8643      8644      8643      8645      8643      8646
      8646      8647      8646      8648      8646      8649      8649      8650
      8649      8651      8649      8652      8652      8653      8652      8654
      8652      8655      8655      8656      8655      8657      8655      8658
      8658      8659      8658      8660      8658      8661      8661      8662
      8661      8663      8661      8664      8664      8665      8664      8666
      8664      8667      8615      8616      8616      8618      8616      8617
      8618      8619      8618      8620      8618      8668      8668      8669
      8668      8670      8668      8671      8671      8672      8671      8673
      8671      8674      8674      8675      8674      8676      8674      8677
      8677      8678      8677      8679      8677      8680      8680      8681
      8680      8682      8680      8683      8683      8684      8683      8685
      8683      8686      8686      8687      8686      8688      8686      8689
      8689      8690      8689      8691      8689      8692      8692      8693
      8692      8694      8692      8695      8695      8696      8695      8697
      8695      8698      8698      8699      8698      8700      8698      8701
      8701      8702      8701      8703      8701      8704      8704      8705
      8704      8706      8704      8707      8707      8708      8707      8709
      8707      8710      8711      8715      8711      8719      8711      8723
      8715      8716      8715      8717      8715      8718      8719      8720
      8719      8721      8719      8722      8723      8724      8723      8725
      8723      8726      8711      8712      8712      8713      8712      8714
      8712      8727      8727      8728      8727      8729      8727      8733
      8734      8735      8733      8730      8730      8734      8730      8731
      8730      8732      8735      8736      8735      8737      8735      8738
      8738      8739      8738      8746      8738      8740      8746      8747
      8746      8748      8746      8749      8740      8741      8741      8743
      8741      8742      8743      8744      8743      8745      8743      8755
      8755      8756      8755      8757      8755      8758      8758      8759
      8758      8760      8758      8761      8761      8762      8761      8763
      8761      8764      8764      8765      8764      8766      8764      8767
      8767      8768      8767      8769      8767      8770      8770      8771
      8770      8772      8770      8773      8773      8774      8773      8775
      8775      8776      8775      8777      8777      8778      8777      8779
      8777      8780      8780      8781      8780      8782      8780      8783
      8783      8784      8783      8785      8783      8786      8786      8787
      8786      8788      8786      8789      8789      8790      8789      8791
      8789      8792      8792      8793      8792      8794      8792      8795
      8795      8796      8795      8797      8795      8798      8798      8799
      8798      8800      8798      8801      8749      8750      8750      8752
      8750      8751      8752      8753      8752      8754      8752      8802
      8802      8803      8802      8804      8802      8805      8805      8806
      8805      8807      8805      8808      8808      8809      8808      8810
      8808      8811      8811      8812      8811      8813      8811      8814
      8814      8815      8814      8816      8814      8817      8817      8818
      8817      8819      8817      8820      8820      8821      8820      8822
      8820      8823      8823      8824      8823      8825      8823      8826
      8826      8827      8826      8828      8826      8829      8829      8830
      8829      8831      8829      8832      8832      8833      8832      8834
      8832      8835      8835      8836      8835      8837      8835      8838
      8838      8839      8838      8840      8838      8841      8841      8842
      8841      8843      8841      8844      8845      8849      8845      8853
      8845      8857      8849      8850      8849      8851      8849      8852
      8853      8854      8853      8855      8853      8856      8857      8858
      8857      8859      8857      8860      8845      8846      8846      8847
      8846      8848      8846      8861      8861      8862      8861      8863
      8861      8867      8868      8869      8867      8864      8864      8868
      8864      8865      8864      8866      8869      8870      8869      8871
      8869      8872      8872      8873      8872      8880      8872      8874
      8880      8881      8880      8882      8880      8883      8874      8875
      8875      8877      8875      8876      8877      8878      8877      8879
      8877      8889      8889      8890      8889      8891      8889      8892
      8892      8893      8892      8894      8892      8895      8895      8896
      8895      8897      8895      8898      8898      8899      8898      8900
      8898      8901      8901      8902      8901      8903      8901      8904
      8904      8905      8904      8906      8904      8907      8907      8908
      8907      8909      8909      8910      8909      8911      8911      8912
      8911      8913      8911      8914      8914      8915      8914      8916
      8914      8917      8917      8918      8917      8919      8917      8920
      8920      8921      8920      8922      8920      8923      8923      8924
      8923      8925      8923      8926      8926      8927      8926      8928
      8926      8929      8929      8930      8929      8931      8929      8932
      8932      8933      8932      8934      8932      8935      8883      8884
      8884      8886      8884      8885      8886      8887      8886      8888
      8886      8936      8936      8937      8936      8938      8936      8939
      8939      8940      8939      8941      8939      8942      8942      8943
      8942      8944      8942      8945      8945      8946      8945      8947
      8945      8948      8948      8949      8948      8950      8948      8951
      8951      8952      8951      8953      8951      8954      8954      8955
      8954      8956      8954      8957      8957      8958      8957      8959
      8957      8960      8960      8961      8960      8962      8960      8963
      8963      8964      8963      8965      8963      8966      8966      8967
      8966      8968      8966      8969      8969      8970      8969      8971
      8969      8972      8972      8973      8972      8974      8972      8975
      8975      8976      8975      8977      8975      8978      8979      8983
      8979      8987      8979      8991      8983      8984      8983      8985
      8983      8986      8987      8988      8987      8989      8987      8990
      8991      8992      8991      8993      8991      8994      8979      8980
      8980      8981      8980      8982      8980      8995      8995      8996
      8995      8997      8995      9001      9002      9003      9001      8998
      8998      9002      8998      8999      8998      9000      9003      9004
      9003      9005      9003      9006      9006      9007      9006      9014
      9006      9008      9014      9015      9014      9016      9014      9017
      9008      9009      9009      9011      9009      9010      9011      9012
      9011      9013      9011      9023      9023      9024      9023      9025
      9023      9026      9026      9027      9026      9028      9026      9029
      9029      9030      9029      9031      9029      9032      9032      9033
      9032      9034      9032      9035      9035      9036      9035      9037
      9035      9038      9038      9039      9038      9040      9038      9041
      9041      9042      9041      9043      9043      9044      9043      9045
      9045      9046      9045      9047      9045      9048      9048      9049
      9048      9050      9048      9051      9051      9052      9051      9053
      9051      9054      9054      9055      9054      9056      9054      9057
      9057      9058      9057      9059      9057      9060      9060      9061
      9060      9062      9060      9063      9063      9064      9063      9065
      9063      9066      9066      9067      9066      9068      9066      9069
      9017      9018      9018      9020      9018      9019      9020      9021
      9020      9022      9020      9070      9070      9071      9070      9072
      9070      9073      9073      9074      9073      9075      9073      9076
      9076      9077      9076      9078      9076      9079      9079      9080
      9079      9081      9079      9082      9082      9083      9082      9084
      9082      9085      9085      9086      9085      9087      9085      9088
      9088      9089      9088      9090      9088      9091      9091      9092
      9091      9093      9091      9094      9094      9095      9094      9096
      9094      9097      9097      9098      9097      9099      9097      9100
      9100      9101      9100      9102      9100      9103      9103      9104
      9103      9105      9103      9106      9106      9107      9106      9108
      9106      9109      9109      9110      9109      9111      9109      9112
      9113      9117      9113      9121      9113      9125      9117      9118
      9117      9119      9117      9120      9121      9122      9121      9123
      9121      9124      9125      9126      9125      9127      9125      9128
      9113      9114      9114      9115      9114      9116      9114      9129
      9129      9130      9129      9131      9129      9135      9136      9137
      9135      9132      9132      9136      9132      9133      9132      9134
      9137      9138      9137      9139      9137      9140      9140      9141
      9140      9148      9140      9142      9148      9149      9148      9150
      9148      9151      9142      9143      9143      9145      9143      9144
      9145      9146      9145      9147      9145      9157      9157      9158
      9157      9159      9157      9160      9160      9161      9160      9162
      9160      9163      9163      9164      9163      9165      9163      9166
      9166      9167      9166      9168      9166      9169      9169      9170
      9169      9171      9169      9172      9172      9173      9172      9174
      9172      9175      9175      9176      9175      9177      9177      9178
      9177      9179      9179      9180      9179      9181      9179      9182
      9182      9183      9182      9184      9182      9185      9185      9186
      9185      9187      9185      9188      9188      9189      9188      9190
      9188      9191      9191      9192      9191      9193      9191      9194
      9194      9195      9194      9196      9194      9197      9197      9198
      9197      9199      9197      9200      9200      9201      9200      9202
      9200      9203      9151      9152      9152      9154      9152      9153
      9154      9155      9154      9156      9154      9204      9204      9205
      9204      9206      9204      9207      9207      9208      9207      9209
      9207      9210      9210      9211      9210      9212      9210      9213
      9213      9214      9213      9215      9213      9216      9216      9217
      9216      9218      9216      9219      9219      9220      9219      9221
      9219      9222      9222      9223      9222      9224      9222      9225
      9225      9226      9225      9227      9225      9228      9228      9229
      9228      9230      9228      9231      9231      9232      9231      9233
      9231      9234      9234      9235      9234      9236      9234      9237
      9237      9238      9237      9239      9237      9240      9240      9241
      9240      9242      9240      9243      9243      9244      9243      9245
      9243      9246      9247      9251      9247      9255      9247      9259
      9251      9252      9251      9253      9251      9254      9255      9256
      9255      9257      9255      9258      9259      9260      9259      9261
      9259      9262      9247      9248      9248      9249      9248      9250
      9248      9263      9263      9264      9263      9265      9263      9269
      9270      9271      9269      9266      9266      9270      9266      9267
      9266      9268      9271      9272      9271      9273      9271      9274
      9274      9275      9274      9282      9274      9276      9282      9283
      9282      9284      9282      9285      9276      9277      9277      9279
      9277      9278      9279      9280      9279      9281      9279      9291
      9291      9292      9291      9293      9291      9294      9294      9295
      9294      9296      9294      9297      9297      9298      9297      9299
      9297      9300      9300      9301      9300      9302      9300      9303
      9303      9304      9303      9305      9303      9306      9306      9307
      9306      9308      9306      9309      9309      9310      9309      9311
      9311      9312      9311      9313      9313      9314      9313      9315
      9313      9316      9316      9317      9316      9318      9316      9319
      9319      9320      9319      9321      9319      9322      9322      9323
      9322      9324      9322      9325      9325      9326      9325      9327
      9325      9328      9328      9329      9328      9330      9328      9331
      9331      9332      9331      9333      9331      9334      9334      9335
      9334      9336      9334      9337      9285      9286      9286      9288
      9286      9287      9288      9289      9288      9290      9288      9338
      9338      9339      9338      9340      9338      9341      9341      9342
      9341      9343      9341      9344      9344      9345      9344      9346
      9344      9347      9347      9348      9347      9349      9347      9350
      9350      9351      9350      9352      9350      9353      9353      9354
      9353      9355      9353      9356      9356      9357      9356      9358
      9356      9359      9359      9360      9359      9361      9359      9362
      9362      9363      9362      9364      9362      9365      9365      9366
      9365      9367      9365      9368      9368      9369      9368      9370
      9368      9371      9371      9372      9371      9373      9371      9374
      9374      9375      9374      9376      9374      9377      9377      9378
      9377      9379      9377      9380      9381      9385      9381      9389
      9381      9393      9385      9386      9385      9387      9385      9388
      9389      9390      9389      9391      9389      9392      9393      9394
      9393      9395      9393      9396      9381      9382      9382      9383
      9382      9384      9382      9397      9397      9398      9397      9399
      9397      9403      9404      9405      9403      9400      9400      9404
      9400      9401      9400      9402      9405      9406      9405      9407
      9405      9408      9408      9409      9408      9416      9408      9410
      9416      9417      9416      9418      9416      9419      9410      9411
      9411      9413      9411      9412      9413      9414      9413      9415
      9413      9425      9425      9426      9425      9427      9425      9428
      9428      9429      9428      9430      9428      9431      9431      9432
      9431      9433      9431      9434      9434      9435      9434      9436
      9434      9437      9437      9438      9437      9439      9437      9440
      9440      9441      9440      9442      9440      9443      9443      9444
      9443      9445      9445      9446      9445      9447      9447      9448
      9447      9449      9447      9450      9450      9451      9450      9452
      9450      9453      9453      9454      9453      9455      9453      9456
      9456      9457      9456      9458      9456      9459      9459      9460
      9459      9461      9459      9462      9462      9463      9462      9464
      9462      9465      9465      9466      9465      9467      9465      9468
      9468      9469      9468      9470      9468      9471      9419      9420
      9420      9422      9420      9421      9422      9423      9422      9424
      9422      9472      9472      9473      9472      9474      9472      9475
      9475      9476      9475      9477      9475      9478      9478      9479
      9478      9480      9478      9481      9481      9482      9481      9483
      9481      9484      9484      9485      9484      9486      9484      9487
      9487      9488      9487      9489      9487      9490      9490      9491
      9490      9492      9490      9493      9493      9494      9493      9495
      9493      9496      9496      9497      9496      9498      9496      9499
      9499      9500      9499      9501      9499      9502      9502      9503
      9502      9504      9502      9505      9505      9506      9505      9507
      9505      9508      9508      9509      9508      9510      9508      9511
      9511      9512      9511      9513      9511      9514      9515      9519
      9515      9523      9515      9527      9519      9520      9519      9521
      9519      9522      9523      9524      9523      9525      9523      9526
      9527      9528      9527      9529      9527      9530      9515      9516
      9516      9517      9516      9518      9516      9531      9531      9532
      9531      9533      9531      9537      9538      9539      9537      9534
      9534      9538      9534      9535      9534      9536      9539      9540
      9539      9541      9539      9542      9542      9543      9542      9550
      9542      9544      9550      9551      9550      9552      9550      9553
      9544      9545      9545      9547      9545      9546      9547      9548
      9547      9549      9547      9559      9559      9560      9559      9561
      9559      9562      9562      9563      9562      9564      9562      9565
      9565      9566      9565      9567      9565      9568      9568      9569
      9568      9570      9568      9571      9571      9572      9571      9573
      9571      9574      9574      9575      9574      9576      9574      9577
      9577      9578      9577      9579      9579      9580      9579      9581
      9581      9582      9581      9583      9581      9584      9584      9585
      9584      9586      9584      9587      9587      9588      9587      9589
      9587      9590      9590      9591      9590      9592      9590      9593
      9593      9594      9593      9595      9593      9596      9596      9597
      9596      9598      9596      9599      9599      9600      9599      9601
      9599      9602      9602      9603      9602      9604      9602      9605
      9553      9554      9554      9556      9554      9555      9556      9557
      9556      9558      9556      9606      9606      9607      9606      9608
      9606      9609      9609      9610      9609      9611      9609      9612
      9612      9613      9612      9614      9612      9615      9615      9616
      9615      9617      9615      9618      9618      9619      9618      9620
      9618      9621      9621      9622      9621      9623      9621      9624
      9624      9625      9624      9626      9624      9627      9627      9628
      9627      9629      9627      9630      9630      9631      9630      9632
      9630      9633      9633      9634      9633      9635      9633      9636
      9636      9637      9636      9638      9636      9639      9639      9640
      9639      9641      9639      9642      9642      9643      9642      9644
      9642      9645      9645      9646      9645      9647      9645      9648
      9649      9653      9649      9657      9649      9661      9653      9654
      9653      9655      9653      9656      9657      9658      9657      9659
      9657      9660      9661      9662      9661      9663      9661      9664
      9649      9650      9650      9651      9650      9652      9650      9665
      9665      9666      9665      9667      9665      9671      9672      9673
      9671      9668      9668      9672      9668      9669      9668      9670
      9673      9674      9673      9675      9673      9676      9676      9677
      9676      9684      9676      9678      9684      9685      9684      9686
      9684      9687      9678      9679      9679      9681      9679      9680
      9681      9682      9681      9683      9681      9693      9693      9694
      9693      9695      9693      9696      9696      9697      9696      9698
      9696      9699      9699      9700      9699      9701      9699      9702
      9702      9703      9702      9704      9702      9705      9705      9706
      9705      9707      9705      9708      9708      9709      9708      9710
      9708      9711      9711      9712      9711      9713      9713      9714
      9713      9715      9715      9716      9715      9717      9715      9718
      9718      9719      9718      9720      9718      9721      9721      9722
      9721      9723      9721      9724      9724      9725      9724      9726
      9724      9727      9727      9728      9727      9729      9727      9730
      9730      9731      9730      9732      9730      9733      9733      9734
      9733      9735      9733      9736      9736      9737      9736      9738
      9736      9739      9687      9688      9688      9690      9688      9689
      9690      9691      9690      9692      9690      9740      9740      9741
      9740      9742      9740      9743      9743      9744      9743      9745
      9743      9746      9746      9747      9746      9748      9746      9749
      9749      9750      9749      9751      9749      9752      9752      9753
      9752      9754      9752      9755      9755      9756      9755      9757
      9755      9758      9758      9759      9758      9760      9758      9761
      9761      9762      9761      9763      9761      9764      9764      9765
      9764      9766      9764      9767      9767      9768      9767      9769
      9767      9770      9770      9771      9770      9772      9770      9773
      9773      9774      9773      9775      9773      9776      9776      9777
      9776      9778      9776      9779      9779      9780      9779      9781
      9779      9782      9783      9787      9783      9791      9783      9795
      9787      9788      9787      9789      9787      9790      9791      9792
      9791      9793      9791      9794      9795      9796      9795      9797
      9795      9798      9783      9784      9784      9785      9784      9786
      9784      9799      9799      9800      9799      9801      9799      9805
      9806      9807      9805      9802      9802      9806      9802      9803
      9802      9804      9807      9808      9807      9809      9807      9810
      9810      9811      9810      9818      9810      9812      9818      9819
      9818      9820      9818      9821      9812      9813      9813      9815
      9813      9814      9815      9816      9815      9817      9815      9827
      9827      9828      9827      9829      9827      9830      9830      9831
      9830      9832      9830      9833      9833      9834      9833      9835
      9833      9836      9836      9837      9836      9838      9836      9839
      9839      9840      9839      9841      9839      9842      9842      9843
      9842      9844      9842      9845      9845      9846      9845      9847
      9847      9848      9847      9849      9849      9850      9849      9851
      9849      9852      9852      9853      9852      9854      9852      9855
      9855      9856      9855      9857      9855      9858      9858      9859
      9858      9860      9858      9861      9861      9862      9861      9863
      9861      9864      9864      9865      9864      9866      9864      9867
      9867      9868      9867      9869      9867      9870      9870      9871
      9870      9872      9870      9873      9821      9822      9822      9824
      9822      9823      9824      9825      9824      9826      9824      9874
      9874      9875      9874      9876      9874      9877      9877      9878
      9877      9879      9877      9880      9880      9881      9880      9882
      9880      9883      9883      9884      9883      9885      9883      9886
      9886      9887      9886      9888      9886      9889      9889      9890
      9889      9891      9889      9892      9892      9893      9892      9894
      9892      9895      9895      9896      9895      9897      9895      9898
      9898      9899      9898      9900      9898      9901      9901      9902
      9901      9903      9901      9904      9904      9905      9904      9906
      9904      9907      9907      9908      9907      9909      9907      9910
      9910      9911      9910      9912      9910      9913      9913      9914
      9913      9915      9913      9916      9917      9918      9917      9919
      9918      9919      9920      9921      9920      9922      9921      9922
      9923      9924      9923      9925      9924      9925      9926      9927
      9926      9928      9927      9928      9929      9930      9929      9931
      9930      9931      9932      9933      9932      9934      9933      9934
      9935      9936      9935      9937      9936      9937      9938      9939
      9938      9940      9939      9940      9941      9942      9941      9943
      9942      9943      9944      9945      9944      9946      9945      9946
      9947      9948      9947      9949      9948      9949      9950      9951
      9950      9952      9951      9952      9953      9954      9953      9955
      9954      9955      9956      9957      9956      9958      9957      9958
      9959      9960      9959      9961      9960      9961      9962      9963
      9962      9964      9963      9964      9965      9966      9965      9967
      9966      9967      9968      9969      9968      9970      9969      9970
      9971      9972      9971      9973      9972      9973      9974      9975
      9974      9976      9975      9976      9977      9978      9977      9979
      9978      9979      9980      9981      9980      9982      9981      9982
      9983      9984      9983      9985      9984      9985      9986      9987
      9986      9988      9987      9988      9989      9990      9989      9991
      9990      9991      9992      9993      9992      9994      9993      9994
      9995      9996      9995      9997      9996      9997      9998      9999
      9998     10000      9999     10000     10001     10002     10001     10003
     10002     10003     10004     10005     10004     10006     10005     10006
     10007     10008     10007     10009     10008     10009     10010     10011
     10010     10012     10011     10012     10013     10014     10013     10015
     10014     10015     10016     10017     10016     10018     10017     10018
     10019     10020     10019     10021     10020     10021     10022     10023
     10022     10024     10023     10024     10025     10026     10025     10027
     10026     10027     10028     10029     10028     10030     10029     10030
     10031     10032     10031     10033     10032     10033     10034     10035
     10034     10036     10035     10036     10037     10038     10037     10039
     10038     10039     10040     10041     10040     10042     10041     10042
     10043     10044     10043     10045     10044     10045     10046     10047
     10046     10048     10047     10048     10049     10050     10049     10051
     10050     10051     10052     10053     10052     10054     10053     10054
     10055     10056     10055     10057     10056     10057     10058     10059
     10058     10060     10059     10060     10061     10062     10061     10063
     10062     10063     10064     10065     10064     10066     10065     10066
     10067     10068     10067     10069     10068     10069     10070     10071
     10070     10072     10071     10072     10073     10074     10073     10075
     10074     10075     10076     10077     10076     10078     10077     10078
     10079     10080     10079     10081     10080     10081     10082     10083
     10082     10084     10083     10084     10085     10086     10085     10087
     10086     10087     10088     10089     10088     10090     10089     10090
     10091     10092     10091     10093     10092     10093     10094     10095
     10094     10096     10095     10096     10097     10098     10097     10099
     10098     10099     10100     10101     10100     10102     10101     10102
     10103     10104     10103     10105     10104     10105     10106     10107
     10106     10108     10107     10108     10109     10110     10109     10111
     10110     10111     10112     10113     10112     10114     10113     10114
     10115     10116     10115     10117     10116     10117     10118     10119
     10118     10120     10119     10120     10121     10122     10121     10123
     10122     10123     10124     10125     10124     10126     10125     10126
     10127     10128     10127     10129     10128     10129     10130     10131
     10130     10132     10131     10132     10133     10134     10133     10135
     10134     10135     10136     10137     10136     10138     10137     10138
     10139     10140     10139     10141     10140     10141     10142     10143
     10142     10144     10143     10144     10145     10146     10145     10147
     10146     10147     10148     10149     10148     10150     10149     10150
     10151     10152     10151     10153     10152     10153     10154     10155
     10154     10156     10155     10156     10157     10158     10157     10159
     10158     10159     10160     10161     10160     10162     10161     10162
     10163     10164     10163     10165     10164     10165     10166     10167
     10166     10168     10167     10168     10169     10170     10169     10171
     10170     10171     10172     10173     10172     10174     10173     10174
     10175     10176     10175     10177     10176     10177     10178     10179
     10178     10180     10179     10180     10181     10182     10181     10183
     10182     10183     10184     10185     10184     10186     10185     10186
     10187     10188     10187     10189     10188     10189     10190     10191
     10190     10192     10191     10192     10193     10194     10193     10195
     10194     10195     10196     10197     10196     10198     10197     10198
     10199     10200     10199     10201     10200     10201     10202     10203
     10202     10204     10203     10204     10205     10206     10205     10207
     10206     10207     10208     10209     10208     10210     10209     10210
     10211     10212     10211     10213     10212     10213     10214     10215
     10214     10216     10215     10216     10217     10218     10217     10219
     10218     10219     10220     10221     10220     10222     10221     10222
     10223     10224     10223     10225     10224     10225     10226     10227
     10226     10228     10227     10228     10229     10230     10229     10231
     10230     10231     10232     10233     10232     10234     10233     10234
     10235     10236     10235     10237     10236     10237     10238     10239
     10238     10240     10239     10240     10241     10242     10241     10243
     10242     10243     10244     10245     10244     10246     10245     10246
     10247     10248     10247     10249     10248     10249     10250     10251
     10250     10252     10251     10252     10253     10254     10253     10255
     10254     10255     10256     10257     10256     10258     10257     10258
     10259     10260     10259     10261     10260     10261     10262     10263
     10262     10264     10263     10264     10265     10266     10265     10267
     10266     10267     10268     10269     10268     10270     10269     10270
     10271     10272     10271     10273     10272     10273     10274     10275
     10274     10276     10275     10276     10277     10278     10277     10279
     10278     10279     10280     10281     10280     10282     10281     10282
     10283     10284     10283     10285     10284     10285     10286     10287
     10286     10288     10287     10288     10289     10290     10289     10291
     10290     10291     10292     10293     10292     10294     10293     10294
     10295     10296     10295     10297     10296     10297     10298     10299
     10298     10300     10299     10300     10301     10302     10301     10303
     10302     10303     10304     10305     10304     10306     10305     10306
     10307     10308     10307     10309     10308     10309     10310     10311
     10310     10312     10311     10312     10313     10314     10313     10315
     10314     10315     10316     10317     10316     10318     10317     10318
     10319     10320     10319     10321     10320     10321     10322     10323
     10322     10324     10323     10324     10325     10326     10325     10327
     10326     10327     10328     10329     10328     10330     10329     10330
     10331     10332     10331     10333     10332     10333     10334     10335
     10334     10336     10335     10336     10337     10338     10337     10339
     10338     10339     10340     10341     10340     10342     10341     10342
     10343     10344     10343     10345     10344     10345     10346     10347
     10346     10348     10347     10348     10349     10350     10349     10351
     10350     10351     10352     10353     10352     10354     10353     10354
     10355     10356     10355     10357     10356     10357     10358     10359
     10358     10360     10359     10360     10361     10362     10361     10363
     10362     10363     10364     10365     10364     10366     10365     10366
     10367     10368     10367     10369     10368     10369     10370     10371
     10370     10372     10371     10372     10373     10374     10373     10375
     10374     10375     10376     10377     10376     10378     10377     10378
     10379     10380     10379     10381     10380     10381     10382     10383
     10382     10384     10383     10384     10385     10386     10385     10387
     10386     10387     10388     10389     10388     10390     10389     10390
     10391     10392     10391     10393     10392     10393     10394     10395
     10394     10396     10395     10396     10397     10398     10397     10399
     10398     10399     10400     10401     10400     10402     10401     10402
     10403     10404     10403     10405     10404     10405     10406     10407
     10406     10408     10407     10408     10409     10410     10409     10411
     10410     10411     10412     10413     10412     10414     10413     10414
     10415     10416     10415     10417     10416     10417     10418     10419
     10418     10420     10419     10420     10421     10422     10421     10423
     10422     10423     10424     10425     10424     10426     10425     10426
     10427     10428     10427     10429     10428     10429     10430     10431
     10430     10432     10431     10432     10433     10434     10433     10435
     10434     10435     10436     10437     10436     10438     10437     10438
     10439     10440     10439     10441     10440     10441     10442     10443
     10442     10444     10443     10444     10445     10446     10445     10447
     10446     10447     10448     10449     10448     10450     10449     10450
     10451     10452     10451     10453     10452     10453     10454     10455
     10454     10456     10455     10456     10457     10458     10457     10459
     10458     10459     10460     10461     10460     10462     10461     10462
     10463     10464     10463     10465     10464     10465     10466     10467
     10466     10468     10467     10468     10469     10470     10469     10471
     10470     10471     10472     10473     10472     10474     10473     10474
     10475     10476     10475     10477     10476     10477     10478     10479
     10478     10480     10479     10480     10481     10482     10481     10483
     10482     10483     10484     10485     10484     10486     10485     10486
     10487     10488     10487     10489     10488     10489     10490     10491
     10490     10492     10491     10492     10493     10494     10493     10495
     10494     10495     10496     10497     10496     10498     10497     10498
     10499     10500     10499     10501     10500     10501     10502     10503
     10502     10504     10503     10504     10505     10506     10505     10507
     10506     10507     10508     10509     10508     10510     10509     10510
     10511     10512     10511     10513     10512     10513     10514     10515
     10514     10516     10515     10516     10517     10518     10517     10519
     10518     10519     10520     10521     10520     10522     10521     10522
     10523     10524     10523     10525     10524     10525     10526     10527
     10526     10528     10527     10528     10529     10530     10529     10531
     10530     10531     10532     10533     10532     10534     10533     10534
     10535     10536     10535     10537     10536     10537     10538     10539
     10538     10540     10539     10540     10541     10542     10541     10543
     10542     10543     10544     10545     10544     10546     10545     10546
     10547     10548     10547     10549     10548     10549     10550     10551
     10550     10552     10551     10552     10553     10554     10553     10555
     10554     10555     10556     10557     10556     10558     10557     10558
     10559     10560     10559     10561     10560     10561     10562     10563
     10562     10564     10563     10564     10565     10566     10565     10567
     10566     10567     10568     10569     10568     10570     10569     10570
     10571     10572     10571     10573     10572     10573     10574     10575
     10574     10576     10575     10576     10577     10578     10577     10579
     10578     10579     10580     10581     10580     10582     10581     10582
     10583     10584     10583     10585     10584     10585     10586     10587
     10586     10588     10587     10588     10589     10590     10589     10591
     10590     10591     10592     10593     10592     10594     10593     10594
     10595     10596     10595     10597     10596     10597     10598     10599
     10598     10600     10599     10600     10601     10602     10601     10603
     10602     10603     10604     10605     10604     10606     10605     10606
     10607     10608     10607     10609     10608     10609     10610     10611
     10610     10612     10611     10612     10613     10614     10613     10615
     10614     10615     10616     10617     10616     10618     10617     10618
     10619     10620     10619     10621     10620     10621     10622     10623
     10622     10624     10623     10624     10625     10626     10625     10627
     10626     10627     10628     10629     10628     10630     10629     10630
     10631     10632     10631     10633     10632     10633     10634     10635
     10634     10636     10635     10636     10637     10638     10637     10639
     10638     10639     10640     10641     10640     10642     10641     10642
     10643     10644     10643     10645     10644     10645     10646     10647
     10646     10648     10647     10648     10649     10650     10649     10651
     10650     10651     10652     10653     10652     10654     10653     10654
     10655     10656     10655     10657     10656     10657     10658     10659
     10658     10660     10659     10660     10661     10662     10661     10663
     10662     10663     10664     10665     10664     10666     10665     10666
     10667     10668     10667     10669     10668     10669     10670     10671
     10670     10672     10671     10672     10673     10674     10673     10675
     10674     10675     10676     10677     10676     10678     10677     10678
     10679     10680     10679     10681     10680     10681     10682     10683
     10682     10684     10683     10684     10685     10686     10685     10687
     10686     10687     10688     10689     10688     10690     10689     10690
     10691     10692     10691     10693     10692     10693     10694     10695
     10694     10696     10695     10696     10697     10698     10697     10699
     10698     10699     10700     10701     10700     10702     10701     10702
     10703     10704     10703     10705     10704     10705     10706     10707
     10706     10708     10707     10708     10709     10710     10709     10711
     10710     10711     10712     10713     10712     10714     10713     10714
     10715     10716     10715     10717     10716     10717     10718     10719
     10718     10720     10719     10720     10721     10722     10721     10723
     10722     10723     10724     10725     10724     10726     10725     10726
     10727     10728     10727     10729     10728     10729     10730     10731
     10730     10732     10731     10732     10733     10734     10733     10735
     10734     10735     10736     10737     10736     10738     10737     10738
     10739     10740     10739     10741     10740     10741     10742     10743
     10742     10744     10743     10744     10745     10746     10745     10747
     10746     10747     10748     10749     10748     10750     10749     10750
     10751     10752     10751     10753     10752     10753     10754     10755
     10754     10756     10755     10756     10757     10758     10757     10759
     10758     10759     10760     10761     10760     10762     10761     10762
     10763     10764     10763     10765     10764     10765     10766     10767
     10766     10768     10767     10768     10769     10770     10769     10771
     10770     10771     10772     10773     10772     10774     10773     10774
     10775     10776     10775     10777     10776     10777     10778     10779
     10778     10780     10779     10780     10781     10782     10781     10783
     10782     10783     10784     10785     10784     10786     10785     10786
     10787     10788     10787     10789     10788     10789     10790     10791
     10790     10792     10791     10792     10793     10794     10793     10795
     10794     10795     10796     10797     10796     10798     10797     10798
     10799     10800     10799     10801     10800     10801     10802     10803
     10802     10804     10803     10804     10805     10806     10805     10807
     10806     10807     10808     10809     10808     10810     10809     10810
     10811     10812     10811     10813     10812     10813     10814     10815
     10814     10816     10815     10816     10817     10818     10817     10819
     10818     10819     10820     10821     10820     10822     10821     10822
     10823     10824     10823     10825     10824     10825     10826     10827
     10826     10828     10827     10828     10829     10830     10829     10831
     10830     10831     10832     10833     10832     10834     10833     10834
     10835     10836     10835     10837     10836     10837     10838     10839
     10838     10840     10839     10840     10841     10842     10841     10843
     10842     10843     10844     10845     10844     10846     10845     10846
     10847     10848     10847     10849     10848     10849     10850     10851
     10850     10852     10851     10852     10853     10854     10853     10855
     10854     10855     10856     10857     10856     10858     10857     10858
     10859     10860     10859     10861     10860     10861     10862     10863
     10862     10864     10863     10864     10865     10866     10865     10867
     10866     10867     10868     10869     10868     10870     10869     10870
     10871     10872     10871     10873     10872     10873     10874     10875
     10874     10876     10875     10876     10877     10878     10877     10879
     10878     10879     10880     10881     10880     10882     10881     10882
     10883     10884     10883     10885     10884     10885     10886     10887
     10886     10888     10887     10888     10889     10890     10889     10891
     10890     10891     10892     10893     10892     10894     10893     10894
     10895     10896     10895     10897     10896     10897     10898     10899
     10898     10900     10899     10900     10901     10902     10901     10903
     10902     10903     10904     10905     10904     10906     10905     10906
     10907     10908     10907     10909     10908     10909     10910     10911
     10910     10912     10911     10912     10913     10914     10913     10915
     10914     10915     10916     10917     10916     10918     10917     10918
     10919     10920     10919     10921     10920     10921     10922     10923
     10922     10924     10923     10924     10925     10926     10925     10927
     10926     10927     10928     10929     10928     10930     10929     10930
     10931     10932     10931     10933     10932     10933     10934     10935
     10934     10936     10935     10936     10937     10938     10937     10939
     10938     10939     10940     10941     10940     10942     10941     10942
     10943     10944     10943     10945     10944     10945     10946     10947
     10946     10948     10947     10948     10949     10950     10949     10951
     10950     10951     10952     10953     10952     10954     10953     10954
     10955     10956     10955     10957     10956     10957     10958     10959
     10958     10960     10959     10960     10961     10962     10961     10963
     10962     10963     10964     10965     10964     10966     10965     10966
     10967     10968     10967     10969     10968     10969     10970     10971
     10970     10972     10971     10972     10973     10974     10973     10975
     10974     10975     10976     10977     10976     10978     10977     10978
     10979     10980     10979     10981     10980     10981     10982     10983
     10982     10984     10983     10984     10985     10986     10985     10987
     10986     10987     10988     10989     10988     10990     10989     10990
     10991     10992     10991     10993     10992     10993     10994     10995
     10994     10996     10995     10996     10997     10998     10997     10999
     10998     10999     11000     11001     11000     11002     11001     11002
     11003     11004     11003     11005     11004     11005     11006     11007
     11006     11008     11007     11008     11009     11010     11009     11011
     11010     11011     11012     11013     11012     11014     11013     11014
     11015     11016     11015     11017     11016     11017     11018     11019
     11018     11020     11019     11020     11021     11022     11021     11023
     11022     11023     11024     11025     11024     11026     11025     11026
     11027     11028     11027     11029     11028     11029     11030     11031
     11030     11032     11031     11032     11033     11034     11033     11035
     11034     11035     11036     11037     11036     11038     11037     11038
     11039     11040     11039     11041     11040     11041     11042     11043
     11042     11044     11043     11044     11045     11046     11045     11047
     11046     11047     11048     11049     11048     11050     11049     11050
     11051     11052     11051     11053     11052     11053     11054     11055
     11054     11056     11055     11056     11057     11058     11057     11059
     11058     11059     11060     11061     11060     11062     11061     11062
     11063     11064     11063     11065     11064     11065     11066     11067
     11066     11068     11067     11068     11069     11070     11069     11071
     11070     11071     11072     11073     11072     11074     11073     11074
     11075     11076     11075     11077     11076     11077     11078     11079
     11078     11080     11079     11080     11081     11082     11081     11083
     11082     11083     11084     11085     11084     11086     11085     11086
     11087     11088     11087     11089     11088     11089     11090     11091
     11090     11092     11091     11092     11093     11094     11093     11095
     11094     11095     11096     11097     11096     11098     11097     11098
     11099     11100     11099     11101     11100     11101     11102     11103
     11102     11104     11103     11104     11105     11106     11105     11107
     11106     11107     11108     11109     11108     11110     11109     11110
     11111     11112     11111     11113     11112     11113     11114     11115
     11114     11116     11115     11116     11117     11118     11117     11119
     11118     11119     11120     11121     11120     11122     11121     11122
     11123     11124     11123     11125     11124     11125     11126     11127
     11126     11128     11127     11128     11129     11130     11129     11131
     11130     11131     11132     11133     11132     11134     11133     11134
     11135     11136     11135     11137     11136     11137     11138     11139
     11138     11140     11139     11140     11141     11142     11141     11143
     11142     11143     11144     11145     11144     11146     11145     11146
     11147     11148     11147     11149     11148     11149     11150     11151
     11150     11152     11151     11152     11153     11154     11153     11155
     11154     11155     11156     11157     11156     11158     11157     11158
     11159     11160     11159     11161     11160     11161     11162     11163
     11162     11164     11163     11164     11165     11166     11165     11167
     11166     11167     11168     11169     11168     11170     11169     11170
     11171     11172     11171     11173     11172     11173     11174     11175
     11174     11176     11175     11176     11177     11178     11177     11179
     11178     11179     11180     11181     11180     11182     11181     11182
     11183     11184     11183     11185     11184     11185     11186     11187
     11186     11188     11187     11188     11189     11190     11189     11191
     11190     11191     11192     11193     11192     11194     11193     11194
     11195     11196     11195     11197     11196     11197     11198     11199
     11198     11200     11199     11200     11201     11202     11201     11203
     11202     11203     11204     11205     11204     11206     11205     11206
     11207     11208     11207     11209     11208     11209     11210     11211
     11210     11212     11211     11212     11213     11214     11213     11215
     11214     11215     11216     11217     11216     11218     11217     11218
     11219     11220     11219     11221     11220     11221     11222     11223
     11222     11224     11223     11224     11225     11226     11225     11227
     11226     11227     11228     11229     11228     11230     11229     11230
     11231     11232     11231     11233     11232     11233     11234     11235
     11234     11236     11235     11236     11237     11238     11237     11239
     11238     11239     11240     11241     11240     11242     11241     11242
     11243     11244     11243     11245     11244     11245     11246     11247
     11246     11248     11247     11248     11249     11250     11249     11251
     11250     11251     11252     11253     11252     11254     11253     11254
     11255     11256     11255     11257     11256     11257     11258     11259
     11258     11260     11259     11260     11261     11262     11261     11263
     11262     11263     11264     11265     11264     11266     11265     11266
     11267     11268     11267     11269     11268     11269     11270     11271
     11270     11272     11271     11272     11273     11274     11273     11275
     11274     11275     11276     11277     11276     11278     11277     11278
     11279     11280     11279     11281     11280     11281     11282     11283
     11282     11284     11283     11284     11285     11286     11285     11287
     11286     11287     11288     11289     11288     11290     11289     11290
     11291     11292     11291     11293     11292     11293     11294     11295
     11294     11296     11295     11296     11297     11298     11297     11299
     11298     11299     11300     11301     11300     11302     11301     11302
     11303     11304     11303     11305     11304     11305     11306     11307
     11306     11308     11307     11308     11309     11310     11309     11311
     11310     11311     11312     11313     11312     11314     11313     11314
     11315     11316     11315     11317     11316     11317     11318     11319
     11318     11320     11319     11320     11321     11322     11321     11323
     11322     11323     11324     11325     11324     11326     11325     11326
     11327     11328     11327     11329     11328     11329     11330     11331
     11330     11332     11331     11332     11333     11334     11333     11335
     11334     11335     11336     11337     11336     11338     11337     11338
     11339     11340     11339     11341     11340     11341     11342     11343
     11342     11344     11343     11344     11345     11346     11345     11347
     11346     11347     11348     11349     11348     11350     11349     11350
     11351     11352     11351     11353     11352     11353     11354     11355
     11354     11356     11355     11356     11357     11358     11357     11359
     11358     11359     11360     11361     11360     11362     11361     11362
     11363     11364     11363     11365     11364     11365     11366     11367
     11366     11368     11367     11368     11369     11370     11369     11371
     11370     11371     11372     11373     11372     11374     11373     11374
     11375     11376     11375     11377     11376     11377     11378     11379
     11378     11380     11379     11380     11381     11382     11381     11383
     11382     11383     11384     11385     11384     11386     11385     11386
     11387     11388     11387     11389     11388     11389     11390     11391
     11390     11392     11391     11392     11393     11394     11393     11395
     11394     11395     11396     11397     11396     11398     11397     11398
     11399     11400     11399     11401     11400     11401     11402     11403
     11402     11404     11403     11404     11405     11406     11405     11407
     11406     11407     11408     11409     11408     11410     11409     11410
     11411     11412     11411     11413     11412     11413     11414     11415
     11414     11416     11415     11416     11417     11418     11417     11419
     11418     11419     11420     11421     11420     11422     11421     11422
     11423     11424     11423     11425     11424     11425     11426     11427
     11426     11428     11427     11428     11429     11430     11429     11431
     11430     11431     11432     11433     11432     11434     11433     11434
     11435     11436     11435     11437     11436     11437     11438     11439
     11438     11440     11439     11440     11441     11442     11441     11443
     11442     11443     11444     11445     11444     11446     11445     11446
     11447     11448     11447     11449     11448     11449     11450     11451
     11450     11452     11451     11452     11453     11454     11453     11455
     11454     11455     11456     11457     11456     11458     11457     11458
     11459     11460     11459     11461     11460     11461     11462     11463
     11462     11464     11463     11464     11465     11466     11465     11467
     11466     11467     11468     11469     11468     11470     11469     11470
     11471     11472     11471     11473     11472     11473     11474     11475
     11474     11476     11475     11476     11477     11478     11477     11479
     11478     11479     11480     11481     11480     11482     11481     11482
     11483     11484     11483     11485     11484     11485     11486     11487
     11486     11488     11487     11488     11489     11490     11489     11491
     11490     11491     11492     11493     11492     11494     11493     11494
     11495     11496     11495     11497     11496     11497     11498     11499
     11498     11500     11499     11500     11501     11502     11501     11503
     11502     11503     11504     11505     11504     11506     11505     11506
     11507     11508     11507     11509     11508     11509     11510     11511
     11510     11512     11511     11512     11513     11514     11513     11515
     11514     11515     11516     11517     11516     11518     11517     11518
     11519     11520     11519     11521     11520     11521     11522     11523
     11522     11524     11523     11524     11525     11526     11525     11527
     11526     11527     11528     11529     11528     11530     11529     11530
     11531     11532     11531     11533     11532     11533     11534     11535
     11534     11536     11535     11536     11537     11538     11537     11539
     11538     11539     11540     11541     11540     11542     11541     11542
     11543     11544     11543     11545     11544     11545     11546     11547
     11546     11548     11547     11548     11549     11550     11549     11551
     11550     11551     11552     11553     11552     11554     11553     11554
     11555     11556     11555     11557     11556     11557     11558     11559
     11558     11560     11559     11560     11561     11562     11561     11563
     11562     11563     11564     11565     11564     11566     11565     11566
     11567     11568     11567     11569     11568     11569     11570     11571
     11570     11572     11571     11572     11573     11574     11573     11575
     11574     11575     11576     11577     11576     11578     11577     11578
     11579     11580     11579     11581     11580     11581     11582     11583
     11582     11584     11583     11584     11585     11586     11585     11587
     11586     11587     11588     11589     11588     11590     11589     11590
     11591     11592     11591     11593     11592     11593     11594     11595
     11594     11596     11595     11596     11597     11598     11597     11599
     11598     11599     11600     11601     11600     11602     11601     11602
     11603     11604     11603     11605     11604     11605     11606     11607
     11606     11608     11607     11608     11609     11610     11609     11611
     11610     11611     11612     11613     11612     11614     11613     11614
     11615     11616     11615     11617     11616     11617     11618     11619
     11618     11620     11619     11620     11621     11622     11621     11623
     11622     11623     11624     11625     11624     11626     11625     11626
     11627     11628     11627     11629     11628     11629     11630     11631
     11630     11632     11631     11632     11633     11634     11633     11635
     11634     11635     11636     11637     11636     11638     11637     11638
     11639     11640     11639     11641     11640     11641     11642     11643
     11642     11644     11643     11644     11645     11646     11645     11647
     11646     11647     11648     11649     11648     11650     11649     11650
     11651     11652     11651     11653     11652     11653     11654     11655
     11654     11656     11655     11656     11657     11658     11657     11659
     11658     11659     11660     11661     11660     11662     11661     11662
     11663     11664     11663     11665     11664     11665     11666     11667
     11666     11668     11667     11668     11669     11670     11669     11671
     11670     11671     11672     11673     11672     11674     11673     11674
     11675     11676     11675     11677     11676     11677     11678     11679
     11678     11680     11679     11680     11681     11682     11681     11683
     11682     11683     11684     11685     11684     11686     11685     11686
     11687     11688     11687     11689     11688     11689     11690     11691
     11690     11692     11691     11692     11693     11694     11693     11695
     11694     11695     11696     11697     11696     11698     11697     11698
     11699     11700     11699     11701     11700     11701     11702     11703
     11702     11704     11703     11704     11705     11706     11705     11707
     11706     11707     11708     11709     11708     11710     11709     11710
     11711     11712     11711     11713     11712     11713     11714     11715
     11714     11716     11715     11716     11717     11718     11717     11719
     11718     11719     11720     11721     11720     11722     11721     11722
     11723     11724     11723     11725     11724     11725     11726     11727
     11726     11728     11727     11728     11729     11730     11729     11731
     11730     11731     11732     11733     11732     11734     11733     11734
     11735     11736     11735     11737     11736     11737     11738     11739
     11738     11740     11739     11740     11741     11742     11741     11743
     11742     11743     11744     11745     11744     11746     11745     11746
     11747     11748     11747     11749     11748     11749     11750     11751
     11750     11752     11751     11752     11753     11754     11753     11755
     11754     11755     11756     11757     11756     11758     11757     11758
     11759     11760     11759     11761     11760     11761     11762     11763
     11762     11764     11763     11764     11765     11766     11765     11767
     11766     11767     11768     11769     11768     11770     11769     11770
     11771     11772     11771     11773     11772     11773     11774     11775
     11774     11776     11775     11776     11777     11778     11777     11779
     11778     11779     11780     11781     11780     11782     11781     11782
     11783     11784     11783     11785     11784     11785     11786     11787
     11786     11788     11787     11788     11789     11790     11789     11791
     11790     11791     11792     11793     11792     11794     11793     11794
     11795     11796     11795     11797     11796     11797     11798     11799
     11798     11800     11799     11800     11801     11802     11801     11803
     11802     11803     11804     11805     11804     11806     11805     11806
     11807     11808     11807     11809     11808     11809     11810     11811
     11810     11812     11811     11812     11813     11814     11813     11815
     11814     11815     11816     11817     11816     11818     11817     11818
     11819     11820     11819     11821     11820     11821     11822     11823
     11822     11824     11823     11824     11825     11826     11825     11827
     11826     11827     11828     11829     11828     11830     11829     11830
     11831     11832     11831     11833     11832     11833     11834     11835
     11834     11836     11835     11836     11837     11838     11837     11839
     11838     11839     11840     11841     11840     11842     11841     11842
     11843     11844     11843     11845     11844     11845     11846     11847
     11846     11848     11847     11848     11849     11850     11849     11851
     11850     11851     11852     11853     11852     11854     11853     11854
     11855     11856     11855     11857     11856     11857     11858     11859
     11858     11860     11859     11860     11861     11862     11861     11863
     11862     11863     11864     11865     11864     11866     11865     11866
     11867     11868     11867     11869     11868     11869     11870     11871
     11870     11872     11871     11872     11873     11874     11873     11875
     11874     11875     11876     11877     11876     11878     11877     11878
     11879     11880     11879     11881     11880     11881     11882     11883
     11882     11884     11883     11884     11885     11886     11885     11887
     11886     11887     11888     11889     11888     11890     11889     11890
     11891     11892     11891     11893     11892     11893     11894     11895
     11894     11896     11895     11896     11897     11898     11897     11899
     11898     11899     11900     11901     11900     11902     11901     11902
     11903     11904     11903     11905     11904     11905     11906     11907
     11906     11908     11907     11908     11909     11910     11909     11911
     11910     11911     11912     11913     11912     11914     11913     11914
     11915     11916     11915     11917     11916     11917     11918     11919
     11918     11920     11919     11920     11921     11922     11921     11923
     11922     11923     11924     11925     11924     11926     11925     11926
     11927     11928     11927     11929     11928     11929     11930     11931
     11930     11932     11931     11932     11933     11934     11933     11935
     11934     11935     11936     11937     11936     11938     11937     11938
     11939     11940     11939     11941     11940     11941     11942     11943
     11942     11944     11943     11944     11945     11946     11945     11947
     11946     11947     11948     11949     11948     11950     11949     11950
     11951     11952     11951     11953     11952     11953     11954     11955
     11954     11956     11955     11956     11957     11958     11957     11959
     11958     11959     11960     11961     11960     11962     11961     11962
     11963     11964     11963     11965     11964     11965     11966     11967
     11966     11968     11967     11968     11969     11970     11969     11971
     11970     11971     11972     11973     11972     11974     11973     11974
     11975     11976     11975     11977     11976     11977     11978     11979
     11978     11980     11979     11980     11981     11982     11981     11983
     11982     11983     11984     11985     11984     11986     11985     11986
     11987     11988     11987     11989     11988     11989     11990     11991
     11990     11992     11991     11992     11993     11994     11993     11995
     11994     11995     11996     11997     11996     11998     11997     11998
     11999     12000     11999     12001     12000     12001     12002     12003
     12002     12004     12003     12004     12005     12006     12005     12007
     12006     12007     12008     12009     12008     12010     12009     12010
     12011     12012     12011     12013     12012     12013     12014     12015
     12014     12016     12015     12016     12017     12018     12017     12019
     12018     12019     12020     12021     12020     12022     12021     12022
     12023     12024     12023     12025     12024     12025     12026     12027
     12026     12028     12027     12028     12029     12030     12029     12031
     12030     12031     12032     12033     12032     12034     12033     12034
     12035     12036     12035     12037     12036     12037     12038     12039
     12038     12040     12039     12040     12041     12042     12041     12043
     12042     12043     12044     12045     12044     12046     12045     12046
     12047     12048     12047     12049     12048     12049     12050     12051
     12050     12052     12051     12052     12053     12054     12053     12055
     12054     12055     12056     12057     12056     12058     12057     12058
     12059     12060     12059     12061     12060     12061     12062     12063
     12062     12064     12063     12064     12065     12066     12065     12067
     12066     12067     12068     12069     12068     12070     12069     12070
     12071     12072     12071     12073     12072     12073     12074     12075
     12074     12076     12075     12076     12077     12078     12077     12079
     12078     12079     12080     12081     12080     12082     12081     12082
     12083     12084     12083     12085     12084     12085     12086     12087
     12086     12088     12087     12088     12089     12090     12089     12091
     12090     12091     12092     12093     12092     12094     12093     12094
     12095     12096     12095     12097     12096     12097     12098     12099
     12098     12100     12099     12100     12101     12102     12101     12103
     12102     12103     12104     12105     12104     12106     12105     12106
     12107     12108     12107     12109     12108     12109     12110     12111
     12110     12112     12111     12112     12113     12114     12113     12115
     12114     12115     12116     12117     12116     12118     12117     12118
     12119     12120     12119     12121     12120     12121     12122     12123
     12122     12124     12123     12124     12125     12126     12125     12127
     12126     12127     12128     12129     12128     12130     12129     12130
     12131     12132     12131     12133     12132     12133     12134     12135
     12134     12136     12135     12136     12137     12138     12137     12139
     12138     12139     12140     12141     12140     12142     12141     12142
     12143     12144     12143     12145     12144     12145     12146     12147
     12146     12148     12147     12148     12149     12150     12149     12151
     12150     12151     12152     12153     12152     12154     12153     12154
     12155     12156     12155     12157     12156     12157     12158     12159
     12158     12160     12159     12160     12161     12162     12161     12163
     12162     12163     12164     12165     12164     12166     12165     12166
     12167     12168     12167     12169     12168     12169     12170     12171
     12170     12172     12171     12172     12173     12174     12173     12175
     12174     12175     12176     12177     12176     12178     12177     12178
     12179     12180     12179     12181     12180     12181     12182     12183
     12182     12184     12183     12184     12185     12186     12185     12187
     12186     12187     12188     12189     12188     12190     12189     12190
     12191     12192     12191     12193     12192     12193     12194     12195
     12194     12196     12195     12196     12197     12198     12197     12199
     12198     12199     12200     12201     12200     12202     12201     12202
     12203     12204     12203     12205     12204     12205     12206     12207
     12206     12208     12207     12208     12209     12210     12209     12211
     12210     12211     12212     12213     12212     12214     12213     12214
     12215     12216     12215     12217     12216     12217     12218     12219
     12218     12220     12219     12220     12221     12222     12221     12223
     12222     12223     12224     12225     12224     12226     12225     12226
     12227     12228     12227     12229     12228     12229     12230     12231
     12230     12232     12231     12232     12233     12234     12233     12235
     12234     12235     12236     12237     12236     12238     12237     12238
     12239     12240     12239     12241     12240     12241     12242     12243
     12242     12244     12243     12244     12245     12246     12245     12247
     12246     12247     12248     12249     12248     12250     12249     12250
     12251     12252     12251     12253     12252     12253     12254     12255
     12254     12256     12255     12256     12257     12258     12257     12259
     12258     12259     12260     12261     12260     12262     12261     12262
     12263     12264     12263     12265     12264     12265     12266     12267
     12266     12268     12267     12268     12269     12270     12269     12271
     12270     12271     12272     12273     12272     12274     12273     12274
     12275     12276     12275     12277     12276     12277     12278     12279
     12278     12280     12279     12280     12281     12282     12281     12283
     12282     12283     12284     12285     12284     12286     12285     12286
     12287     12288     12287     12289     12288     12289     12290     12291
     12290     12292     12291     12292     12293     12294     12293     12295
     12294     12295     12296     12297     12296     12298     12297     12298
     12299     12300     12299     12301     12300     12301     12302     12303
     12302     12304     12303     12304     12305     12306     12305     12307
     12306     12307     12308     12309     12308     12310     12309     12310
     12311     12312     12311     12313     12312     12313     12314     12315
     12314     12316     12315     12316     12317     12318     12317     12319
     12318     12319     12320     12321     12320     12322     12321     12322
     12323     12324     12323     12325     12324     12325     12326     12327
     12326     12328     12327     12328     12329     12330     12329     12331
     12330     12331     12332     12333     12332     12334     12333     12334
     12335     12336     12335     12337     12336     12337     12338     12339
     12338     12340     12339     12340     12341     12342     12341     12343
     12342     12343     12344     12345     12344     12346     12345     12346
     12347     12348     12347     12349     12348     12349     12350     12351
     12350     12352     12351     12352     12353     12354     12353     12355
     12354     12355     12356     12357     12356     12358     12357     12358
     12359     12360     12359     12361     12360     12361     12362     12363
     12362     12364     12363     12364     12365     12366     12365     12367
     12366     12367     12368     12369     12368     12370     12369     12370
     12371     12372     12371     12373     12372     12373     12374     12375
     12374     12376     12375     12376     12377     12378     12377     12379
     12378     12379     12380     12381     12380     12382     12381     12382
     12383     12384     12383     12385     12384     12385     12386     12387
     12386     12388     12387     12388     12389     12390     12389     12391
     12390     12391     12392     12393     12392     12394     12393     12394
     12395     12396     12395     12397     12396     12397     12398     12399
     12398     12400     12399     12400     12401     12402     12401     12403
     12402     12403     12404     12405     12404     12406     12405     12406
     12407     12408     12407     12409     12408     12409     12410     12411
     12410     12412     12411     12412     12413     12414     12413     12415
     12414     12415     12416     12417     12416     12418     12417     12418
     12419     12420     12419     12421     12420     12421     12422     12423
     12422     12424     12423     12424     12425     12426     12425     12427
     12426     12427     12428     12429     12428     12430     12429     12430
     12431     12432     12431     12433     12432     12433     12434     12435
     12434     12436     12435     12436     12437     12438     12437     12439
     12438     12439     12440     12441     12440     12442     12441     12442
     12443     12444     12443     12445     12444     12445     12446     12447
     12446     12448     12447     12448     12449     12450     12449     12451
     12450     12451     12452     12453     12452     12454     12453     12454
     12455     12456     12455     12457     12456     12457     12458     12459
     12458     12460     12459     12460     12461     12462     12461     12463
     12462     12463     12464     12465     12464     12466     12465     12466
     12467     12468     12467     12469     12468     12469     12470     12471
     12470     12472     12471     12472     12473     12474     12473     12475
     12474     12475     12476     12477     12476     12478     12477     12478
     12479     12480     12479     12481     12480     12481     12482     12483
     12482     12484     12483     12484     12485     12486     12485     12487
     12486     12487     12488     12489     12488     12490     12489     12490
     12491     12492     12491     12493     12492     12493     12494     12495
     12494     12496     12495     12496     12497     12498     12497     12499
     12498     12499     12500     12501     12500     12502     12501     12502
     12503     12504     12503     12505     12504     12505     12506     12507
     12506     12508     12507     12508     12509     12510     12509     12511
     12510     12511     12512     12513     12512     12514     12513     12514
     12515     12516     12515     12517     12516     12517     12518     12519
     12518     12520     12519     12520     12521     12522     12521     12523
     12522     12523     12524     12525     12524     12526     12525     12526
     12527     12528     12527     12529     12528     12529     12530     12531
     12530     12532     12531     12532     12533     12534     12533     12535
     12534     12535     12536     12537     12536     12538     12537     12538
     12539     12540     12539     12541     12540     12541     12542     12543
     12542     12544     12543     12544     12545     12546     12545     12547
     12546     12547     12548     12549     12548     12550     12549     12550
     12551     12552     12551     12553     12552     12553     12554     12555
     12554     12556     12555     12556     12557     12558     12557     12559
     12558     12559     12560     12561     12560     12562     12561     12562
     12563     12564     12563     12565     12564     12565     12566     12567
     12566     12568     12567     12568     12569     12570     12569     12571
     12570     12571     12572     12573     12572     12574     12573     12574
     12575     12576     12575     12577     12576     12577     12578     12579
     12578     12580     12579     12580     12581     12582     12581     12583
     12582     12583     12584     12585     12584     12586     12585     12586
     12587     12588     12587     12589     12588     12589     12590     12591
     12590     12592     12591     12592     12593     12594     12593     12595
     12594     12595     12596     12597     12596     12598     12597     12598
     12599     12600     12599     12601     12600     12601     12602     12603
     12602     12604     12603     12604     12605     12606     12605     12607
     12606     12607     12608     12609     12608     12610     12609     12610
     12611     12612     12611     12613     12612     12613     12614     12615
     12614     12616     12615     12616     12617     12618     12617     12619
     12618     12619     12620     12621     12620     12622     12621     12622
     12623     12624     12623     12625     12624     12625     12626     12627
     12626     12628     12627     12628     12629     12630     12629     12631
     12630     12631     12632     12633     12632     12634     12633     12634
     12635     12636     12635     12637     12636     12637     12638     12639
     12638     12640     12639     12640     12641     12642     12641     12643
     12642     12643     12644     12645     12644     12646     12645     12646
     12647     12648     12647     12649     12648     12649     12650     12651
     12650     12652     12651     12652     12653     12654     12653     12655
     12654     12655     12656     12657     12656     12658     12657     12658
     12659     12660     12659     12661     12660     12661     12662     12663
     12662     12664     12663     12664     12665     12666     12665     12667
     12666     12667     12668     12669     12668     12670     12669     12670
     12671     12672     12671     12673     12672     12673     12674     12675
     12674     12676     12675     12676     12677     12678     12677     12679
     12678     12679     12680     12681     12680     12682     12681     12682
     12683     12684     12683     12685     12684     12685     12686     12687
     12686     12688     12687     12688     12689     12690     12689     12691
     12690     12691     12692     12693     12692     12694     12693     12694
     12695     12696     12695     12697     12696     12697     12698     12699
     12698     12700     12699     12700     12701     12702     12701     12703
     12702     12703     12704     12705     12704     12706     12705     12706
     12707     12708     12707     12709     12708     12709     12710     12711
     12710     12712     12711     12712     12713     12714     12713     12715
     12714     12715     12716     12717     12716     12718     12717     12718
     12719     12720     12719     12721     12720     12721     12722     12723
     12722     12724     12723     12724     12725     12726     12725     12727
     12726     12727     12728     12729     12728     12730     12729     12730
     12731     12732     12731     12733     12732     12733     12734     12735
     12734     12736     12735     12736     12737     12738     12737     12739
     12738     12739     12740     12741     12740     12742     12741     12742
     12743     12744     12743     12745     12744     12745     12746     12747
     12746     12748     12747     12748     12749     12750     12749     12751
     12750     12751     12752     12753     12752     12754     12753     12754
     12755     12756     12755     12757     12756     12757     12758     12759
     12758     12760     12759     12760     12761     12762     12761     12763
     12762     12763     12764     12765     12764     12766     12765     12766
     12767     12768     12767     12769     12768     12769     12770     12771
     12770     12772     12771     12772     12773     12774     12773     12775
     12774     12775     12776     12777     12776     12778     12777     12778
     12779     12780     12779     12781     12780     12781     12782     12783
     12782     12784     12783     12784     12785     12786     12785     12787
     12786     12787     12788     12789     12788     12790     12789     12790
     12791     12792     12791     12793     12792     12793     12794     12795
     12794     12796     12795     12796     12797     12798     12797     12799
     12798     12799     12800     12801     12800     12802     12801     12802
     12803     12804     12803     12805     12804     12805     12806     12807
     12806     12808     12807     12808     12809     12810     12809     12811
     12810     12811     12812     12813     12812     12814     12813     12814
     12815     12816     12815     12817     12816     12817     12818     12819
     12818     12820     12819     12820     12821     12822     12821     12823
     12822     12823     12824     12825     12824     12826     12825     12826
     12827     12828     12827     12829     12828     12829     12830     12831
     12830     12832     12831     12832     12833     12834     12833     12835
     12834     12835     12836     12837     12836     12838     12837     12838
     12839     12840     12839     12841     12840     12841     12842     12843
     12842     12844     12843     12844     12845     12846     12845     12847
     12846     12847     12848     12849     12848     12850     12849     12850
     12851     12852     12851     12853     12852     12853     12854     12855
     12854     12856     12855     12856     12857     12858     12857     12859
     12858     12859     12860     12861     12860     12862     12861     12862
     12863     12864     12863     12865     12864     12865     12866     12867
     12866     12868     12867     12868     12869     12870     12869     12871
     12870     12871     12872     12873     12872     12874     12873     12874
     12875     12876     12875     12877     12876     12877     12878     12879
     12878     12880     12879     12880     12881     12882     12881     12883
     12882     12883     12884     12885     12884     12886     12885     12886
     12887     12888     12887     12889     12888     12889     12890     12891
     12890     12892     12891     12892     12893     12894     12893     12895
     12894     12895     12896     12897     12896     12898     12897     12898
     12899     12900     12899     12901     12900     12901     12902     12903
     12902     12904     12903     12904     12905     12906     12905     12907
     12906     12907     12908     12909     12908     12910     12909     12910
     12911     12912     12911     12913     12912     12913     12914     12915
     12914     12916     12915     12916     12917     12918     12917     12919
     12918     12919     12920     12921     12920     12922     12921     12922
     12923     12924     12923     12925     12924     12925     12926     12927
     12926     12928     12927     12928     12929     12930     12929     12931
     12930     12931     12932     12933     12932     12934     12933     12934
     12935     12936     12935     12937     12936     12937     12938     12939
     12938     12940     12939     12940     12941     12942     12941     12943
     12942     12943     12944     12945     12944     12946     12945     12946
     12947     12948     12947     12949     12948     12949     12950     12951
     12950     12952     12951     12952     12953     12954     12953     12955
     12954     12955     12956     12957     12956     12958     12957     12958
     12959     12960     12959     12961     12960     12961     12962     12963
     12962     12964     12963     12964     12965     12966     12965     12967
     12966     12967     12968     12969     12968     12970     12969     12970
     12971     12972     12971     12973     12972     12973     12974     12975
     12974     12976     12975     12976     12977     12978     12977     12979
     12978     12979     12980     12981     12980     12982     12981     12982
     12983     12984     12983     12985     12984     12985     12986     12987
     12986     12988     12987     12988     12989     12990     12989     12991
     12990     12991     12992     12993     12992     12994     12993     12994
     12995     12996     12995     12997     12996     12997     12998     12999
     12998     13000     12999     13000     13001     13002     13001     13003
     13002     13003     13004     13005     13004     13006     13005     13006
     13007     13008     13007     13009     13008     13009     13010     13011
     13010     13012     13011     13012     13013     13014     13013     13015
     13014     13015     13016     13017     13016     13018     13017     13018
     13019     13020     13019     13021     13020     13021     13022     13023
     13022     13024     13023     13024     13025     13026     13025     13027
     13026     13027     13028     13029     13028     13030     13029     13030
     13031     13032     13031     13033     13032     13033     13034     13035
     13034     13036     13035     13036     13037     13038     13037     13039
     13038     13039     13040     13041     13040     13042     13041     13042
     13043     13044     13043     13045     13044     13045     13046     13047
     13046     13048     13047     13048     13049     13050     13049     13051
     13050     13051     13052     13053     13052     13054     13053     13054
     13055     13056     13055     13057     13056     13057     13058     13059
     13058     13060     13059     13060     13061     13062     13061     13063
     13062     13063     13064     13065     13064     13066     13065     13066
     13067     13068     13067     13069     13068     13069     13070     13071
     13070     13072     13071     13072     13073     13074     13073     13075
     13074     13075     13076     13077     13076     13078     13077     13078
     13079     13080     13079     13081     13080     13081     13082     13083
     13082     13084     13083     13084     13085     13086     13085     13087
     13086     13087     13088     13089     13088     13090     13089     13090
     13091     13092     13091     13093     13092     13093     13094     13095
     13094     13096     13095     13096     13097     13098     13097     13099
     13098     13099     13100     13101     13100     13102     13101     13102
     13103     13104     13103     13105     13104     13105     13106     13107
     13106     13108     13107     13108     13109     13110     13109     13111
     13110     13111     13112     13113     13112     13114     13113     13114
     13115     13116     13115     13117     13116     13117     13118     13119
     13118     13120     13119     13120     13121     13122     13121     13123
     13122     13123     13124     13125     13124     13126     13125     13126
     13127     13128     13127     13129     13128     13129     13130     13131
     13130     13132     13131     13132     13133     13134     13133     13135
     13134     13135     13136     13137     13136     13138     13137     13138
     13139     13140     13139     13141     13140     13141     13142     13143
     13142     13144     13143     13144     13145     13146     13145     13147
     13146     13147     13148     13149     13148     13150     13149     13150
     13151     13152     13151     13153     13152     13153     13154     13155
     13154     13156     13155     13156     13157     13158     13157     13159
     13158     13159     13160     13161     13160     13162     13161     13162
     13163     13164     13163     13165     13164     13165     13166     13167
     13166     13168     13167     13168     13169     13170     13169     13171
     13170     13171     13172     13173     13172     13174     13173     13174
     13175     13176     13175     13177     13176     13177     13178     13179
     13178     13180     13179     13180     13181     13182     13181     13183
     13182     13183     13184     13185     13184     13186     13185     13186
     13187     13188     13187     13189     13188     13189     13190     13191
     13190     13192     13191     13192     13193     13194     13193     13195
     13194     13195     13196     13197     13196     13198     13197     13198
     13199     13200     13199     13201     13200     13201     13202     13203
     13202     13204     13203     13204     13205     13206     13205     13207
     13206     13207     13208     13209     13208     13210     13209     13210
     13211     13212     13211     13213     13212     13213     13214     13215
     13214     13216     13215     13216     13217     13218     13217     13219
     13218     13219     13220     13221     13220     13222     13221     13222
     13223     13224     13223     13225     13224     13225     13226     13227
     13226     13228     13227     13228     13229     13230     13229     13231
     13230     13231     13232     13233     13232     13234     13233     13234
     13235     13236     13235     13237     13236     13237     13238     13239
     13238     13240     13239     13240     13241     13242     13241     13243
     13242     13243     13244     13245     13244     13246     13245     13246
     13247     13248     13247     13249     13248     13249     13250     13251
     13250     13252     13251     13252     13253     13254     13253     13255
     13254     13255     13256     13257     13256     13258     13257     13258
     13259     13260     13259     13261     13260     13261     13262     13263
     13262     13264     13263     13264     13265     13266     13265     13267
     13266     13267     13268     13269     13268     13270     13269     13270
     13271     13272     13271     13273     13272     13273     13274     13275
     13274     13276     13275     13276     13277     13278     13277     13279
     13278     13279     13280     13281     13280     13282     13281     13282
     13283     13284     13283     13285     13284     13285     13286     13287
     13286     13288     13287     13288     13289     13290     13289     13291
     13290     13291     13292     13293     13292     13294     13293     13294
     13295     13296     13295     13297     13296     13297     13298     13299
     13298     13300     13299     13300     13301     13302     13301     13303
     13302     13303     13304     13305     13304     13306     13305     13306
     13307     13308     13307     13309     13308     13309     13310     13311
     13310     13312     13311     13312     13313     13314     13313     13315
     13314     13315     13316     13317     13316     13318     13317     13318
     13319     13320     13319     13321     13320     13321     13322     13323
     13322     13324     13323     13324     13325     13326     13325     13327
     13326     13327     13328     13329     13328     13330     13329     13330
     13331     13332     13331     13333     13332     13333     13334     13335
     13334     13336     13335     13336     13337     13338     13337     13339
     13338     13339     13340     13341     13340     13342     13341     13342
     13343     13344     13343     13345     13344     13345     13346     13347
     13346     13348     13347     13348     13349     13350     13349     13351
     13350     13351     13352     13353     13352     13354     13353     13354
     13355     13356     13355     13357     13356     13357     13358     13359
     13358     13360     13359     13360     13361     13362     13361     13363
     13362     13363     13364     13365     13364     13366     13365     13366
     13367     13368     13367     13369     13368     13369     13370     13371
     13370     13372     13371     13372     13373     13374     13373     13375
     13374     13375     13376     13377     13376     13378     13377     13378
     13379     13380     13379     13381     13380     13381     13382     13383
     13382     13384     13383     13384     13385     13386     13385     13387
     13386     13387     13388     13389     13388     13390     13389     13390
     13391     13392     13391     13393     13392     13393     13394     13395
     13394     13396     13395     13396     13397     13398     13397     13399
     13398     13399     13400     13401     13400     13402     13401     13402
     13403     13404     13403     13405     13404     13405     13406     13407
     13406     13408     13407     13408     13409     13410     13409     13411
     13410     13411     13412     13413     13412     13414     13413     13414
     13415     13416     13415     13417     13416     13417     13418     13419
     13418     13420     13419     13420     13421     13422     13421     13423
     13422     13423     13424     13425     13424     13426     13425     13426
     13427     13428     13427     13429     13428     13429     13430     13431
     13430     13432     13431     13432     13433     13434     13433     13435
     13434     13435     13436     13437     13436     13438     13437     13438
     13439     13440     13439     13441     13440     13441     13442     13443
     13442     13444     13443     13444     13445     13446     13445     13447
     13446     13447     13448     13449     13448     13450     13449     13450
     13451     13452     13451     13453     13452     13453     13454     13455
     13454     13456     13455     13456     13457     13458     13457     13459
     13458     13459     13460     13461     13460     13462     13461     13462
     13463     13464     13463     13465     13464     13465     13466     13467
     13466     13468     13467     13468     13469     13470     13469     13471
     13470     13471     13472     13473     13472     13474     13473     13474
     13475     13476     13475     13477     13476     13477     13478     13479
     13478     13480     13479     13480     13481     13482     13481     13483
     13482     13483     13484     13485     13484     13486     13485     13486
     13487     13488     13487     13489     13488     13489     13490     13491
     13490     13492     13491     13492     13493     13494     13493     13495
     13494     13495     13496     13497     13496     13498     13497     13498
     13499     13500     13499     13501     13500     13501     13502     13503
     13502     13504     13503     13504     13505     13506     13505     13507
     13506     13507     13508     13509     13508     13510     13509     13510
     13511     13512     13511     13513     13512     13513     13514     13515
     13514     13516     13515     13516     13517     13518     13517     13519
     13518     13519     13520     13521     13520     13522     13521     13522
     13523     13524     13523     13525     13524     13525     13526     13527
     13526     13528     13527     13528     13529     13530     13529     13531
     13530     13531     13532     13533     13532     13534     13533     13534
     13535     13536     13535     13537     13536     13537     13538     13539
     13538     13540     13539     13540     13541     13542     13541     13543
     13542     13543     13544     13545     13544     13546     13545     13546
     13547     13548     13547     13549     13548     13549     13550     13551
     13550     13552     13551     13552     13553     13554     13553     13555
     13554     13555     13556     13557     13556     13558     13557     13558
     13559     13560     13559     13561     13560     13561     13562     13563
     13562     13564     13563     13564     13565     13566     13565     13567
     13566     13567     13568     13569     13568     13570     13569     13570
     13571     13572     13571     13573     13572     13573     13574     13575
     13574     13576     13575     13576     13577     13578     13577     13579
     13578     13579     13580     13581     13580     13582     13581     13582
     13583     13584     13583     13585     13584     13585     13586     13587
     13586     13588     13587     13588     13589     13590     13589     13591
     13590     13591     13592     13593     13592     13594     13593     13594
     13595     13596     13595     13597     13596     13597     13598     13599
     13598     13600     13599     13600     13601     13602     13601     13603
     13602     13603     13604     13605     13604     13606     13605     13606
     13607     13608     13607     13609     13608     13609     13610     13611
     13610     13612     13611     13612     13613     13614     13613     13615
     13614     13615     13616     13617     13616     13618     13617     13618
     13619     13620     13619     13621     13620     13621     13622     13623
     13622     13624     13623     13624     13625     13626     13625     13627
     13626     13627     13628     13629     13628     13630     13629     13630
     13631     13632     13631     13633     13632     13633     13634     13635
     13634     13636     13635     13636     13637     13638     13637     13639
     13638     13639     13640     13641     13640     13642     13641     13642
     13643     13644     13643     13645     13644     13645     13646     13647
     13646     13648     13647     13648     13649     13650     13649     13651
     13650     13651     13652     13653     13652     13654     13653     13654
     13655     13656     13655     13657     13656     13657     13658     13659
     13658     13660     13659     13660     13661     13662     13661     13663
     13662     13663     13664     13665     13664     13666     13665     13666
     13667     13668     13667     13669     13668     13669     13670     13671
     13670     13672     13671     13672     13673     13674     13673     13675
     13674     13675     13676     13677     13676     13678     13677     13678
     13679     13680     13679     13681     13680     13681     13682     13683
     13682     13684     13683     13684     13685     13686     13685     13687
     13686     13687     13688     13689     13688     13690     13689     13690
     13691     13692     13691     13693     13692     13693     13694     13695
     13694     13696     13695     13696     13697     13698     13697     13699
     13698     13699     13700     13701     13700     13702     13701     13702
     13703     13704     13703     13705     13704     13705     13706     13707
     13706     13708     13707     13708     13709     13710     13709     13711
     13710     13711     13712     13713     13712     13714     13713     13714
     13715     13716     13715     13717     13716     13717     13718     13719
     13718     13720     13719     13720     13721     13722     13721     13723
     13722     13723     13724     13725     13724     13726     13725     13726
     13727     13728     13727     13729     13728     13729     13730     13731
     13730     13732     13731     13732     13733     13734     13733     13735
     13734     13735     13736     13737     13736     13738     13737     13738
     13739     13740     13739     13741     13740     13741     13742     13743
     13742     13744     13743     13744     13745     13746     13745     13747
     13746     13747     13748     13749     13748     13750     13749     13750
     13751     13752     13751     13753     13752     13753     13754     13755
     13754     13756     13755     13756     13757     13758     13757     13759
     13758     13759     13760     13761     13760     13762     13761     13762
     13763     13764     13763     13765     13764     13765     13766     13767
     13766     13768     13767     13768     13769     13770     13769     13771
     13770     13771     13772     13773     13772     13774     13773     13774
     13775     13776     13775     13777     13776     13777     13778     13779
     13778     13780     13779     13780     13781     13782     13781     13783
     13782     13783     13784     13785     13784     13786     13785     13786
     13787     13788     13787     13789     13788     13789     13790     13791
     13790     13792     13791     13792     13793     13794     13793     13795
     13794     13795     13796     13797     13796     13798     13797     13798
     13799     13800     13799     13801     13800     13801     13802     13803
     13802     13804     13803     13804     13805     13806     13805     13807
     13806     13807     13808     13809     13808     13810     13809     13810
     13811     13812     13811     13813     13812     13813     13814     13815
     13814     13816     13815     13816     13817     13818     13817     13819
     13818     13819     13820     13821     13820     13822     13821     13822
     13823     13824     13823     13825     13824     13825     13826     13827
     13826     13828     13827     13828     13829     13830     13829     13831
     13830     13831     13832     13833     13832     13834     13833     13834
     13835     13836     13835     13837     13836     13837     13838     13839
     13838     13840     13839     13840     13841     13842     13841     13843
     13842     13843     13844     13845     13844     13846     13845     13846
     13847     13848     13847     13849     13848     13849     13850     13851
     13850     13852     13851     13852     13853     13854     13853     13855
     13854     13855     13856     13857     13856     13858     13857     13858
     13859     13860     13859     13861     13860     13861     13862     13863
     13862     13864     13863     13864     13865     13866     13865     13867
     13866     13867     13868     13869     13868     13870     13869     13870
     13871     13872     13871     13873     13872     13873     13874     13875
     13874     13876     13875     13876     13877     13878     13877     13879
     13878     13879     13880     13881     13880     13882     13881     13882
     13883     13884     13883     13885     13884     13885     13886     13887
     13886     13888     13887     13888     13889     13890     13889     13891
     13890     13891     13892     13893     13892     13894     13893     13894
     13895     13896     13895     13897     13896     13897     13898     13899
     13898     13900     13899     13900     13901     13902     13901     13903
     13902     13903     13904     13905     13904     13906     13905     13906
     13907     13908     13907     13909     13908     13909     13910     13911
     13910     13912     13911     13912     13913     13914     13913     13915
     13914     13915     13916     13917     13916     13918     13917     13918
     13919     13920     13919     13921     13920     13921     13922     13923
     13922     13924     13923     13924     13925     13926     13925     13927
     13926     13927     13928     13929     13928     13930     13929     13930
     13931     13932     13931     13933     13932     13933     13934     13935
     13934     13936     13935     13936     13937     13938     13937     13939
     13938     13939     13940     13941     13940     13942     13941     13942
     13943     13944     13943     13945     13944     13945     13946     13947
     13946     13948     13947     13948     13949     13950     13949     13951
     13950     13951     13952     13953     13952     13954     13953     13954
     13955     13956     13955     13957     13956     13957     13958     13959
     13958     13960     13959     13960     13961     13962     13961     13963
     13962     13963     13964     13965     13964     13966     13965     13966
     13967     13968     13967     13969     13968     13969     13970     13971
     13970     13972     13971     13972     13973     13974     13973     13975
     13974     13975     13976     13977     13976     13978     13977     13978
     13979     13980     13979     13981     13980     13981     13982     13983
     13982     13984     13983     13984     13985     13986     13985     13987
     13986     13987     13988     13989     13988     13990     13989     13990
     13991     13992     13991     13993     13992     13993     13994     13995
     13994     13996     13995     13996     13997     13998     13997     13999
     13998     13999     14000     14001     14000     14002     14001     14002
     14003     14004     14003     14005     14004     14005     14006     14007
     14006     14008     14007     14008     14009     14010     14009     14011
     14010     14011     14012     14013     14012     14014     14013     14014
     14015     14016     14015     14017     14016     14017     14018     14019
     14018     14020     14019     14020     14021     14022     14021     14023
     14022     14023     14024     14025     14024     14026     14025     14026
     14027     14028     14027     14029     14028     14029     14030     14031
     14030     14032     14031     14032     14033     14034     14033     14035
     14034     14035     14036     14037     14036     14038     14037     14038
     14039     14040     14039     14041     14040     14041     14042     14043
     14042     14044     14043     14044     14045     14046     14045     14047
     14046     14047     14048     14049     14048     14050     14049     14050
     14051     14052     14051     14053     14052     14053     14054     14055
     14054     14056     14055     14056     14057     14058     14057     14059
     14058     14059     14060     14061     14060     14062     14061     14062
     14063     14064     14063     14065     14064     14065     14066     14067
     14066     14068     14067     14068     14069     14070     14069     14071
     14070     14071     14072     14073     14072     14074     14073     14074
     14075     14076     14075     14077     14076     14077     14078     14079
     14078     14080     14079     14080     14081     14082     14081     14083
     14082     14083     14084     14085     14084     14086     14085     14086
     14087     14088     14087     14089     14088     14089     14090     14091
     14090     14092     14091     14092     14093     14094     14093     14095
     14094     14095     14096     14097     14096     14098     14097     14098
     14099     14100     14099     14101     14100     14101     14102     14103
     14102     14104     14103     14104     14105     14106     14105     14107
     14106     14107     14108     14109     14108     14110     14109     14110
     14111     14112     14111     14113     14112     14113     14114     14115
     14114     14116     14115     14116     14117     14118     14117     14119
     14118     14119     14120     14121     14120     14122     14121     14122
     14123     14124     14123     14125     14124     14125     14126     14127
     14126     14128     14127     14128     14129     14130     14129     14131
     14130     14131     14132     14133     14132     14134     14133     14134
     14135     14136     14135     14137     14136     14137     14138     14139
     14138     14140     14139     14140     14141     14142     14141     14143
     14142     14143     14144     14145     14144     14146     14145     14146
     14147     14148     14147     14149     14148     14149     14150     14151
     14150     14152     14151     14152     14153     14154     14153     14155
     14154     14155     14156     14157     14156     14158     14157     14158
     14159     14160     14159     14161     14160     14161     14162     14163
     14162     14164     14163     14164     14165     14166     14165     14167
     14166     14167     14168     14169     14168     14170     14169     14170
     14171     14172     14171     14173     14172     14173     14174     14175
     14174     14176     14175     14176     14177     14178     14177     14179
     14178     14179     14180     14181     14180     14182     14181     14182
     14183     14184     14183     14185     14184     14185     14186     14187
     14186     14188     14187     14188     14189     14190     14189     14191
     14190     14191     14192     14193     14192     14194     14193     14194
     14195     14196     14195     14197     14196     14197     14198     14199
     14198     14200     14199     14200     14201     14202     14201     14203
     14202     14203     14204     14205     14204     14206     14205     14206
     14207     14208     14207     14209     14208     14209     14210     14211
     14210     14212     14211     14212     14213     14214     14213     14215
     14214     14215     14216     14217     14216     14218     14217     14218
     14219     14220     14219     14221     14220     14221     14222     14223
     14222     14224     14223     14224     14225     14226     14225     14227
     14226     14227     14228     14229     14228     14230     14229     14230
     14231     14232     14231     14233     14232     14233     14234     14235
     14234     14236     14235     14236     14237     14238     14237     14239
     14238     14239     14240     14241     14240     14242     14241     14242
     14243     14244     14243     14245     14244     14245     14246     14247
     14246     14248     14247     14248     14249     14250     14249     14251
     14250     14251     14252     14253     14252     14254     14253     14254
     14255     14256     14255     14257     14256     14257     14258     14259
     14258     14260     14259     14260     14261     14262     14261     14263
     14262     14263     14264     14265     14264     14266     14265     14266
     14267     14268     14267     14269     14268     14269     14270     14271
     14270     14272     14271     14272     14273     14274     14273     14275
     14274     14275     14276     14277     14276     14278     14277     14278
     14279     14280     14279     14281     14280     14281     14282     14283
     14282     14284     14283     14284     14285     14286     14285     14287
     14286     14287     14288     14289     14288     14290     14289     14290
     14291     14292     14291     14293     14292     14293     14294     14295
     14294     14296     14295     14296     14297     14298     14297     14299
     14298     14299     14300     14301     14300     14302     14301     14302
     14303     14304     14303     14305     14304     14305     14306     14307
     14306     14308     14307     14308     14309     14310     14309     14311
     14310     14311     14312     14313     14312     14314     14313     14314
     14315     14316     14315     14317     14316     14317     14318     14319
     14318     14320     14319     14320     14321     14322     14321     14323
     14322     14323     14324     14325     14324     14326     14325     14326
     14327     14328     14327     14329     14328     14329     14330     14331
     14330     14332     14331     14332     14333     14334     14333     14335
     14334     14335     14336     14337     14336     14338     14337     14338
     14339     14340     14339     14341     14340     14341     14342     14343
     14342     14344     14343     14344     14345     14346     14345     14347
     14346     14347     14348     14349     14348     14350     14349     14350
     14351     14352     14351     14353     14352     14353     14354     14355
     14354     14356     14355     14356     14357     14358     14357     14359
     14358     14359     14360     14361     14360     14362     14361     14362
     14363     14364     14363     14365     14364     14365     14366     14367
     14366     14368     14367     14368     14369     14370     14369     14371
     14370     14371     14372     14373     14372     14374     14373     14374
     14375     14376     14375     14377     14376     14377     14378     14379
     14378     14380     14379     14380     14381     14382     14381     14383
     14382     14383     14384     14385     14384     14386     14385     14386
     14387     14388     14387     14389     14388     14389     14390     14391
     14390     14392     14391     14392     14393     14394     14393     14395
     14394     14395     14396     14397     14396     14398     14397     14398
     14399     14400     14399     14401     14400     14401     14402     14403
     14402     14404     14403     14404     14405     14406     14405     14407
     14406     14407     14408     14409     14408     14410     14409     14410
     14411     14412     14411     14413     14412     14413     14414     14415
     14414     14416     14415     14416     14417     14418     14417     14419
     14418     14419     14420     14421     14420     14422     14421     14422
     14423     14424     14423     14425     14424     14425     14426     14427
     14426     14428     14427     14428     14429     14430     14429     14431
     14430     14431     14432     14433     14432     14434     14433     14434
     14435     14436     14435     14437     14436     14437     14438     14439
     14438     14440     14439     14440     14441     14442     14441     14443
     14442     14443     14444     14445     14444     14446     14445     14446
     14447     14448     14447     14449     14448     14449     14450     14451
     14450     14452     14451     14452     14453     14454     14453     14455
     14454     14455     14456     14457     14456     14458     14457     14458
     14459     14460     14459     14461     14460     14461     14462     14463
     14462     14464     14463     14464     14465     14466     14465     14467
     14466     14467     14468     14469     14468     14470     14469     14470
     14471     14472     14471     14473     14472     14473     14474     14475
     14474     14476     14475     14476     14477     14478     14477     14479
     14478     14479     14480     14481     14480     14482     14481     14482
     14483     14484     14483     14485     14484     14485     14486     14487
     14486     14488     14487     14488     14489     14490     14489     14491
     14490     14491     14492     14493     14492     14494     14493     14494
     14495     14496     14495     14497     14496     14497     14498     14499
     14498     14500     14499     14500     14501     14502     14501     14503
     14502     14503     14504     14505     14504     14506     14505     14506
     14507     14508     14507     14509     14508     14509     14510     14511
     14510     14512     14511     14512     14513     14514     14513     14515
     14514     14515     14516     14517     14516     14518     14517     14518
     14519     14520     14519     14521     14520     14521     14522     14523
     14522     14524     14523     14524     14525     14526     14525     14527
     14526     14527     14528     14529     14528     14530     14529     14530
     14531     14532     14531     14533     14532     14533     14534     14535
     14534     14536     14535     14536     14537     14538     14537     14539
     14538     14539     14540     14541     14540     14542     14541     14542
     14543     14544     14543     14545     14544     14545     14546     14547
     14546     14548     14547     14548     14549     14550     14549     14551
     14550     14551     14552     14553     14552     14554     14553     14554
     14555     14556     14555     14557     14556     14557     14558     14559
     14558     14560     14559     14560     14561     14562     14561     14563
     14562     14563     14564     14565     14564     14566     14565     14566
     14567     14568     14567     14569     14568     14569     14570     14571
     14570     14572     14571     14572     14573     14574     14573     14575
     14574     14575     14576     14577     14576     14578     14577     14578
     14579     14580     14579     14581     14580     14581     14582     14583
     14582     14584     14583     14584     14585     14586     14585     14587
     14586     14587     14588     14589     14588     14590     14589     14590
     14591     14592     14591     14593     14592     14593     14594     14595
     14594     14596     14595     14596     14597     14598     14597     14599
     14598     14599     14600     14601     14600     14602     14601     14602
     14603     14604     14603     14605     14604     14605     14606     14607
     14606     14608     14607     14608     14609     14610     14609     14611
     14610     14611     14612     14613     14612     14614     14613     14614
     14615     14616     14615     14617     14616     14617     14618     14619
     14618     14620     14619     14620     14621     14622     14621     14623
     14622     14623     14624     14625     14624     14626     14625     14626
     14627     14628     14627     14629     14628     14629     14630     14631
     14630     14632     14631     14632     14633     14634     14633     14635
     14634     14635     14636     14637     14636     14638     14637     14638
     14639     14640     14639     14641     14640     14641     14642     14643
     14642     14644     14643     14644     14645     14646     14645     14647
     14646     14647     14648     14649     14648     14650     14649     14650
     14651     14652     14651     14653     14652     14653     14654     14655
     14654     14656     14655     14656     14657     14658     14657     14659
     14658     14659     14660     14661     14660     14662     14661     14662
     14663     14664     14663     14665     14664     14665     14666     14667
     14666     14668     14667     14668     14669     14670     14669     14671
     14670     14671     14672     14673     14672     14674     14673     14674
     14675     14676     14675     14677     14676     14677     14678     14679
     14678     14680     14679     14680     14681     14682     14681     14683
     14682     14683     14684     14685     14684     14686     14685     14686
     14687     14688     14687     14689     14688     14689     14690     14691
     14690     14692     14691     14692     14693     14694     14693     14695
     14694     14695     14696     14697     14696     14698     14697     14698
     14699     14700     14699     14701     14700     14701     14702     14703
     14702     14704     14703     14704     14705     14706     14705     14707
     14706     14707     14708     14709     14708     14710     14709     14710
     14711     14712     14711     14713     14712     14713     14714     14715
     14714     14716     14715     14716     14717     14718     14717     14719
     14718     14719     14720     14721     14720     14722     14721     14722
     14723     14724     14723     14725     14724     14725     14726     14727
     14726     14728     14727     14728     14729     14730     14729     14731
     14730     14731     14732     14733     14732     14734     14733     14734
     14735     14736     14735     14737     14736     14737     14738     14739
     14738     14740     14739     14740     14741     14742     14741     14743
     14742     14743     14744     14745     14744     14746     14745     14746
     14747     14748     14747     14749     14748     14749     14750     14751
     14750     14752     14751     14752     14753     14754     14753     14755
     14754     14755     14756     14757     14756     14758     14757     14758
     14759     14760     14759     14761     14760     14761     14762     14763
     14762     14764     14763     14764     14765     14766     14765     14767
     14766     14767     14768     14769     14768     14770     14769     14770
     14771     14772     14771     14773     14772     14773     14774     14775
     14774     14776     14775     14776     14777     14778     14777     14779
     14778     14779     14780     14781     14780     14782     14781     14782
     14783     14784     14783     14785     14784     14785     14786     14787
     14786     14788     14787     14788     14789     14790     14789     14791
     14790     14791     14792     14793     14792     14794     14793     14794
     14795     14796     14795     14797     14796     14797     14798     14799
     14798     14800     14799     14800     14801     14802     14801     14803
     14802     14803     14804     14805     14804     14806     14805     14806
     14807     14808     14807     14809     14808     14809     14810     14811
     14810     14812     14811     14812     14813     14814     14813     14815
     14814     14815     14816     14817     14816     14818     14817     14818
     14819     14820     14819     14821     14820     14821     14822     14823
     14822     14824     14823     14824     14825     14826     14825     14827
     14826     14827     14828     14829     14828     14830     14829     14830
     14831     14832     14831     14833     14832     14833     14834     14835
     14834     14836     14835     14836     14837     14838     14837     14839
     14838     14839     14840     14841     14840     14842     14841     14842
     14843     14844     14843     14845     14844     14845     14846     14847
     14846     14848     14847     14848     14849     14850     14849     14851
     14850     14851     14852     14853     14852     14854     14853     14854
     14855     14856     14855     14857     14856     14857     14858     14859
     14858     14860     14859     14860     14861     14862     14861     14863
     14862     14863     14864     14865     14864     14866     14865     14866
     14867     14868     14867     14869     14868     14869     14870     14871
     14870     14872     14871     14872     14873     14874     14873     14875
     14874     14875     14876     14877     14876     14878     14877     14878
     14879     14880     14879     14881     14880     14881     14882     14883
     14882     14884     14883     14884     14885     14886     14885     14887
     14886     14887     14888     14889     14888     14890     14889     14890
     14891     14892     14891     14893     14892     14893     14894     14895
     14894     14896     14895     14896     14897     14898     14897     14899
     14898     14899     14900     14901     14900     14902     14901     14902
     14903     14904     14903     14905     14904     14905     14906     14907
     14906     14908     14907     14908     14909     14910     14909     14911
     14910     14911     14912     14913     14912     14914     14913     14914
     14915     14916     14915     14917     14916     14917     14918     14919
     14918     14920     14919     14920     14921     14922     14921     14923
     14922     14923     14924     14925     14924     14926     14925     14926
     14927     14928     14927     14929     14928     14929     14930     14931
     14930     14932     14931     14932     14933     14934     14933     14935
     14934     14935     14936     14937     14936     14938     14937     14938
     14939     14940     14939     14941     14940     14941     14942     14943
     14942     14944     14943     14944     14945     14946     14945     14947
     14946     14947     14948     14949     14948     14950     14949     14950
     14951     14952     14951     14953     14952     14953     14954     14955
     14954     14956     14955     14956     14957     14958     14957     14959
     14958     14959     14960     14961     14960     14962     14961     14962
     14963     14964     14963     14965     14964     14965     14966     14967
     14966     14968     14967     14968     14969     14970     14969     14971
     14970     14971     14972     14973     14972     14974     14973     14974
     14975     14976     14975     14977     14976     14977     14978     14979
     14978     14980     14979     14980     14981     14982     14981     14983
     14982     14983     14984     14985     14984     14986     14985     14986
     14987     14988     14987     14989     14988     14989     14990     14991
     14990     14992     14991     14992     14993     14994     14993     14995
     14994     14995     14996     14997     14996     14998     14997     14998
     14999     15000     14999     15001     15000     15001     15002     15003
     15002     15004     15003     15004     15005     15006     15005     15007
     15006     15007     15008     15009     15008     15010     15009     15010
     15011     15012     15011     15013     15012     15013     15014     15015
     15014     15016     15015     15016     15017     15018     15017     15019
     15018     15019     15020     15021     15020     15022     15021     15022
     15023     15024     15023     15025     15024     15025     15026     15027
     15026     15028     15027     15028     15029     15030     15029     15031
     15030     15031     15032     15033     15032     15034     15033     15034
     15035     15036     15035     15037     15036     15037     15038     15039
     15038     15040     15039     15040     15041     15042     15041     15043
     15042     15043     15044     15045     15044     15046     15045     15046
     15047     15048     15047     15049     15048     15049     15050     15051
     15050     15052     15051     15052     15053     15054     15053     15055
     15054     15055     15056     15057     15056     15058     15057     15058
     15059     15060     15059     15061     15060     15061     15062     15063
     15062     15064     15063     15064     15065     15066     15065     15067
     15066     15067     15068     15069     15068     15070     15069     15070
     15071     15072     15071     15073     15072     15073     15074     15075
     15074     15076     15075     15076     15077     15078     15077     15079
     15078     15079     15080     15081     15080     15082     15081     15082
     15083     15084     15083     15085     15084     15085     15086     15087
     15086     15088     15087     15088     15089     15090     15089     15091
     15090     15091     15092     15093     15092     15094     15093     15094
     15095     15096     15095     15097     15096     15097     15098     15099
     15098     15100     15099     15100     15101     15102     15101     15103
     15102     15103     15104     15105     15104     15106     15105     15106
     15107     15108     15107     15109     15108     15109     15110     15111
     15110     15112     15111     15112     15113     15114     15113     15115
     15114     15115     15116     15117     15116     15118     15117     15118
     15119     15120     15119     15121     15120     15121     15122     15123
     15122     15124     15123     15124     15125     15126     15125     15127
     15126     15127     15128     15129     15128     15130     15129     15130
     15131     15132     15131     15133     15132     15133     15134     15135
     15134     15136     15135     15136     15137     15138     15137     15139
     15138     15139     15140     15141     15140     15142     15141     15142
     15143     15144     15143     15145     15144     15145     15146     15147
     15146     15148     15147     15148     15149     15150     15149     15151
     15150     15151     15152     15153     15152     15154     15153     15154
     15155     15156     15155     15157     15156     15157     15158     15159
     15158     15160     15159     15160     15161     15162     15161     15163
     15162     15163     15164     15165     15164     15166     15165     15166
     15167     15168     15167     15169     15168     15169     15170     15171
     15170     15172     15171     15172     15173     15174     15173     15175
     15174     15175     15176     15177     15176     15178     15177     15178
     15179     15180     15179     15181     15180     15181     15182     15183
     15182     15184     15183     15184     15185     15186     15185     15187
     15186     15187     15188     15189     15188     15190     15189     15190
     15191     15192     15191     15193     15192     15193     15194     15195
     15194     15196     15195     15196     15197     15198     15197     15199
     15198     15199     15200     15201     15200     15202     15201     15202
     15203     15204     15203     15205     15204     15205     15206     15207
     15206     15208     15207     15208     15209     15210     15209     15211
     15210     15211     15212     15213     15212     15214     15213     15214
     15215     15216     15215     15217     15216     15217     15218     15219
     15218     15220     15219     15220     15221     15222     15221     15223
     15222     15223     15224     15225     15224     15226     15225     15226
     15227     15228     15227     15229     15228     15229     15230     15231
     15230     15232     15231     15232     15233     15234     15233     15235
     15234     15235     15236     15237     15236     15238     15237     15238
     15239     15240     15239     15241     15240     15241     15242     15243
     15242     15244     15243     15244     15245     15246     15245     15247
     15246     15247     15248     15249     15248     15250     15249     15250
     15251     15252     15251     15253     15252     15253     15254     15255
     15254     15256     15255     15256     15257     15258     15257     15259
     15258     15259     15260     15261     15260     15262     15261     15262
     15263     15264     15263     15265     15264     15265     15266     15267
     15266     15268     15267     15268     15269     15270     15269     15271
     15270     15271     15272     15273     15272     15274     15273     15274
     15275     15276     15275     15277     15276     15277     15278     15279
     15278     15280     15279     15280     15281     15282     15281     15283
     15282     15283     15284     15285     15284     15286     15285     15286
     15287     15288     15287     15289     15288     15289     15290     15291
     15290     15292     15291     15292     15293     15294     15293     15295
     15294     15295     15296     15297     15296     15298     15297     15298
     15299     15300     15299     15301     15300     15301     15302     15303
     15302     15304     15303     15304     15305     15306     15305     15307
     15306     15307     15308     15309     15308     15310     15309     15310
     15311     15312     15311     15313     15312     15313     15314     15315
     15314     15316     15315     15316     15317     15318     15317     15319
     15318     15319     15320     15321     15320     15322     15321     15322
     15323     15324     15323     15325     15324     15325     15326     15327
     15326     15328     15327     15328     15329     15330     15329     15331
     15330     15331     15332     15333     15332     15334     15333     15334
     15335     15336     15335     15337     15336     15337     15338     15339
     15338     15340     15339     15340     15341     15342     15341     15343
     15342     15343     15344     15345     15344     15346     15345     15346
     15347     15348     15347     15349     15348     15349     15350     15351
     15350     15352     15351     15352     15353     15354     15353     15355
     15354     15355     15356     15357     15356     15358     15357     15358
     15359     15360     15359     15361     15360     15361     15362     15363
     15362     15364     15363     15364     15365     15366     15365     15367
     15366     15367     15368     15369     15368     15370     15369     15370
     15371     15372     15371     15373     15372     15373     15374     15375
     15374     15376     15375     15376     15377     15378     15377     15379
     15378     15379     15380     15381     15380     15382     15381     15382
     15383     15384     15383     15385     15384     15385     15386     15387
     15386     15388     15387     15388     15389     15390     15389     15391
     15390     15391     15392     15393     15392     15394     15393     15394
     15395     15396     15395     15397     15396     15397     15398     15399
     15398     15400     15399     15400     15401     15402     15401     15403
     15402     15403     15404     15405     15404     15406     15405     15406
     15407     15408     15407     15409     15408     15409     15410     15411
     15410     15412     15411     15412     15413     15414     15413     15415
     15414     15415     15416     15417     15416     15418     15417     15418
     15419     15420     15419     15421     15420     15421     15422     15423
     15422     15424     15423     15424     15425     15426     15425     15427
     15426     15427     15428     15429     15428     15430     15429     15430
     15431     15432     15431     15433     15432     15433     15434     15435
     15434     15436     15435     15436     15437     15438     15437     15439
     15438     15439     15440     15441     15440     15442     15441     15442
     15443     15444     15443     15445     15444     15445     15446     15447
     15446     15448     15447     15448     15449     15450     15449     15451
     15450     15451     15452     15453     15452     15454     15453     15454
     15455     15456     15455     15457     15456     15457     15458     15459
     15458     15460     15459     15460     15461     15462     15461     15463
     15462     15463     15464     15465     15464     15466     15465     15466
     15467     15468     15467     15469     15468     15469     15470     15471
     15470     15472     15471     15472     15473     15474     15473     15475
     15474     15475     15476     15477     15476     15478     15477     15478
     15479     15480     15479     15481     15480     15481     15482     15483
     15482     15484     15483     15484     15485     15486     15485     15487
     15486     15487     15488     15489     15488     15490     15489     15490
     15491     15492     15491     15493     15492     15493     15494     15495
     15494     15496     15495     15496     15497     15498     15497     15499
     15498     15499     15500     15501     15500     15502     15501     15502
     15503     15504     15503     15505     15504     15505     15506     15507
     15506     15508     15507     15508     15509     15510     15509     15511
     15510     15511     15512     15513     15512     15514     15513     15514
     15515     15516     15515     15517     15516     15517     15518     15519
     15518     15520     15519     15520     15521     15522     15521     15523
     15522     15523     15524     15525     15524     15526     15525     15526
     15527     15528     15527     15529     15528     15529     15530     15531
     15530     15532     15531     15532     15533     15534     15533     15535
     15534     15535     15536     15537     15536     15538     15537     15538
     15539     15540     15539     15541     15540     15541     15542     15543
     15542     15544     15543     15544     15545     15546     15545     15547
     15546     15547     15548     15549     15548     15550     15549     15550
     15551     15552     15551     15553     15552     15553     15554     15555
     15554     15556     15555     15556     15557     15558     15557     15559
     15558     15559     15560     15561     15560     15562     15561     15562
     15563     15564     15563     15565     15564     15565     15566     15567
     15566     15568     15567     15568     15569     15570     15569     15571
     15570     15571     15572     15573     15572     15574     15573     15574
     15575     15576     15575     15577     15576     15577     15578     15579
     15578     15580     15579     15580     15581     15582     15581     15583
     15582     15583     15584     15585     15584     15586     15585     15586
     15587     15588     15587     15589     15588     15589     15590     15591
     15590     15592     15591     15592     15593     15594     15593     15595
     15594     15595     15596     15597     15596     15598     15597     15598
     15599     15600     15599     15601     15600     15601     15602     15603
     15602     15604     15603     15604     15605     15606     15605     15607
     15606     15607     15608     15609     15608     15610     15609     15610
     15611     15612     15611     15613     15612     15613     15614     15615
     15614     15616     15615     15616     15617     15618     15617     15619
     15618     15619     15620     15621     15620     15622     15621     15622
     15623     15624     15623     15625     15624     15625     15626     15627
     15626     15628     15627     15628     15629     15630     15629     15631
     15630     15631     15632     15633     15632     15634     15633     15634
     15635     15636     15635     15637     15636     15637     15638     15639
     15638     15640     15639     15640     15641     15642     15641     15643
     15642     15643     15644     15645     15644     15646     15645     15646
     15647     15648     15647     15649     15648     15649     15650     15651
     15650     15652     15651     15652     15653     15654     15653     15655
     15654     15655     15656     15657     15656     15658     15657     15658
     15659     15660     15659     15661     15660     15661     15662     15663
     15662     15664     15663     15664     15665     15666     15665     15667
     15666     15667     15668     15669     15668     15670     15669     15670
     15671     15672     15671     15673     15672     15673     15674     15675
     15674     15676     15675     15676     15677     15678     15677     15679
     15678     15679     15680     15681     15680     15682     15681     15682
     15683     15684     15683     15685     15684     15685     15686     15687
     15686     15688     15687     15688     15689     15690     15689     15691
     15690     15691     15692     15693     15692     15694     15693     15694
     15695     15696     15695     15697     15696     15697     15698     15699
     15698     15700     15699     15700     15701     15702     15701     15703
     15702     15703     15704     15705     15704     15706     15705     15706
     15707     15708     15707     15709     15708     15709     15710     15711
     15710     15712     15711     15712     15713     15714     15713     15715
     15714     15715     15716     15717     15716     15718     15717     15718
     15719     15720     15719     15721     15720     15721     15722     15723
     15722     15724     15723     15724     15725     15726     15725     15727
     15726     15727     15728     15729     15728     15730     15729     15730
     15731     15732     15731     15733     15732     15733     15734     15735
     15734     15736     15735     15736     15737     15738     15737     15739
     15738     15739     15740     15741     15740     15742     15741     15742
     15743     15744     15743     15745     15744     15745     15746     15747
     15746     15748     15747     15748     15749     15750     15749     15751
     15750     15751     15752     15753     15752     15754     15753     15754
     15755     15756     15755     15757     15756     15757     15758     15759
     15758     15760     15759     15760     15761     15762     15761     15763
     15762     15763     15764     15765     15764     15766     15765     15766
     15767     15768     15767     15769     15768     15769     15770     15771
     15770     15772     15771     15772     15773     15774     15773     15775
     15774     15775     15776     15777     15776     15778     15777     15778
     15779     15780     15779     15781     15780     15781     15782     15783
     15782     15784     15783     15784     15785     15786     15785     15787
     15786     15787     15788     15789     15788     15790     15789     15790
     15791     15792     15791     15793     15792     15793     15794     15795
     15794     15796     15795     15796     15797     15798     15797     15799
     15798     15799     15800     15801     15800     15802     15801     15802
     15803     15804     15803     15805     15804     15805     15806     15807
     15806     15808     15807     15808     15809     15810     15809     15811
     15810     15811     15812     15813     15812     15814     15813     15814
     15815     15816     15815     15817     15816     15817     15818     15819
     15818     15820     15819     15820     15821     15822     15821     15823
     15822     15823     15824     15825     15824     15826     15825     15826
     15827     15828     15827     15829     15828     15829     15830     15831
     15830     15832     15831     15832     15833     15834     15833     15835
     15834     15835     15836     15837     15836     15838     15837     15838
     15839     15840     15839     15841     15840     15841     15842     15843
     15842     15844     15843     15844     15845     15846     15845     15847
     15846     15847     15848     15849     15848     15850     15849     15850
     15851     15852     15851     15853     15852     15853     15854     15855
     15854     15856     15855     15856     15857     15858     15857     15859
     15858     15859     15860     15861     15860     15862     15861     15862
     15863     15864     15863     15865     15864     15865     15866     15867
     15866     15868     15867     15868     15869     15870     15869     15871
     15870     15871     15872     15873     15872     15874     15873     15874
     15875     15876     15875     15877     15876     15877     15878     15879
     15878     15880     15879     15880     15881     15882     15881     15883
     15882     15883     15884     15885     15884     15886     15885     15886
     15887     15888     15887     15889     15888     15889     15890     15891
     15890     15892     15891     15892     15893     15894     15893     15895
     15894     15895     15896     15897     15896     15898     15897     15898
     15899     15900     15899     15901     15900     15901     15902     15903
     15902     15904     15903     15904     15905     15906     15905     15907
     15906     15907     15908     15909     15908     15910     15909     15910
     15911     15912     15911     15913     15912     15913     15914     15915
     15914     15916     15915     15916     15917     15918     15917     15919
     15918     15919     15920     15921     15920     15922     15921     15922
     15923     15924     15923     15925     15924     15925     15926     15927
     15926     15928     15927     15928     15929     15930     15929     15931
     15930     15931     15932     15933     15932     15934     15933     15934
     15935     15936     15935     15937     15936     15937     15938     15939
     15938     15940     15939     15940     15941     15942     15941     15943
     15942     15943     15944     15945     15944     15946     15945     15946
     15947     15948     15947     15949     15948     15949     15950     15951
     15950     15952     15951     15952     15953     15954     15953     15955
     15954     15955     15956     15957     15956     15958     15957     15958
     15959     15960     15959     15961     15960     15961     15962     15963
     15962     15964     15963     15964     15965     15966     15965     15967
     15966     15967     15968     15969     15968     15970     15969     15970
     15971     15972     15971     15973     15972     15973     15974     15975
     15974     15976     15975     15976     15977     15978     15977     15979
     15978     15979     15980     15981     15980     15982     15981     15982
     15983     15984     15983     15985     15984     15985     15986     15987
     15986     15988     15987     15988     15989     15990     15989     15991
     15990     15991     15992     15993     15992     15994     15993     15994
     15995     15996     15995     15997     15996     15997     15998     15999
     15998     16000     15999     16000     16001     16002     16001     16003
     16002     16003     16004     16005     16004     16006     16005     16006
     16007     16008     16007     16009     16008     16009     16010     16011
     16010     16012     16011     16012     16013     16014     16013     16015
     16014     16015     16016     16017     16016     16018     16017     16018
     16019     16020     16019     16021     16020     16021     16022     16023
     16022     16024     16023     16024     16025     16026     16025     16027
     16026     16027     16028     16029     16028     16030     16029     16030
     16031     16032     16031     16033     16032     16033     16034     16035
     16034     16036     16035     16036     16037     16038     16037     16039
     16038     16039     16040     16041     16040     16042     16041     16042
     16043     16044     16043     16045     16044     16045     16046     16047
     16046     16048     16047     16048     16049     16050     16049     16051
     16050     16051     16052     16053     16052     16054     16053     16054
     16055     16056     16055     16057     16056     16057     16058     16059
     16058     16060     16059     16060     16061     16062     16061     16063
     16062     16063     16064     16065     16064     16066     16065     16066
     16067     16068     16067     16069     16068     16069     16070     16071
     16070     16072     16071     16072     16073     16074     16073     16075
     16074     16075     16076     16077     16076     16078     16077     16078
     16079     16080     16079     16081     16080     16081     16082     16083
     16082     16084     16083     16084     16085     16086     16085     16087
     16086     16087     16088     16089     16088     16090     16089     16090
     16091     16092     16091     16093     16092     16093     16094     16095
     16094     16096     16095     16096     16097     16098     16097     16099
     16098     16099     16100     16101     16100     16102     16101     16102
     16103     16104     16103     16105     16104     16105     16106     16107
     16106     16108     16107     16108     16109     16110     16109     16111
     16110     16111     16112     16113     16112     16114     16113     16114
     16115     16116     16115     16117     16116     16117     16118     16119
     16118     16120     16119     16120     16121     16122     16121     16123
     16122     16123     16124     16125     16124     16126     16125     16126
     16127     16128     16127     16129     16128     16129     16130     16131
     16130     16132     16131     16132     16133     16134     16133     16135
     16134     16135     16136     16137     16136     16138     16137     16138
     16139     16140     16139     16141     16140     16141     16142     16143
     16142     16144     16143     16144     16145     16146     16145     16147
     16146     16147     16148     16149     16148     16150     16149     16150
     16151     16152     16151     16153     16152     16153     16154     16155
     16154     16156     16155     16156     16157     16158     16157     16159
     16158     16159     16160     16161     16160     16162     16161     16162
     16163     16164     16163     16165     16164     16165     16166     16167
     16166     16168     16167     16168     16169     16170     16169     16171
     16170     16171     16172     16173     16172     16174     16173     16174
     16175     16176     16175     16177     16176     16177     16178     16179
     16178     16180     16179     16180     16181     16182     16181     16183
     16182     16183     16184     16185     16184     16186     16185     16186
     16187     16188     16187     16189     16188     16189     16190     16191
     16190     16192     16191     16192     16193     16194     16193     16195
     16194     16195     16196     16197     16196     16198     16197     16198
     16199     16200     16199     16201     16200     16201     16202     16203
     16202     16204     16203     16204     16205     16206     16205     16207
     16206     16207     16208     16209     16208     16210     16209     16210
     16211     16212     16211     16213     16212     16213     16214     16215
     16214     16216     16215     16216     16217     16218     16217     16219
     16218     16219     16220     16221     16220     16222     16221     16222
     16223     16224     16223     16225     16224     16225     16226     16227
     16226     16228     16227     16228     16229     16230     16229     16231
     16230     16231     16232     16233     16232     16234     16233     16234
     16235     16236     16235     16237     16236     16237     16238     16239
     16238     16240     16239     16240     16241     16242     16241     16243
     16242     16243     16244     16245     16244     16246     16245     16246
     16247     16248     16247     16249     16248     16249     16250     16251
     16250     16252     16251     16252     16253     16254     16253     16255
     16254     16255     16256     16257     16256     16258     16257     16258
     16259     16260     16259     16261     16260     16261     16262     16263
     16262     16264     16263     16264     16265     16266     16265     16267
     16266     16267     16268     16269     16268     16270     16269     16270
     16271     16272     16271     16273     16272     16273     16274     16275
     16274     16276     16275     16276     16277     16278     16277     16279
     16278     16279     16280     16281     16280     16282     16281     16282
     16283     16284     16283     16285     16284     16285     16286     16287
     16286     16288     16287     16288     16289     16290     16289     16291
     16290     16291     16292     16293     16292     16294     16293     16294
     16295     16296     16295     16297     16296     16297     16298     16299
     16298     16300     16299     16300     16301     16302     16301     16303
     16302     16303     16304     16305     16304     16306     16305     16306
     16307     16308     16307     16309     16308     16309     16310     16311
     16310     16312     16311     16312     16313     16314     16313     16315
     16314     16315     16316     16317     16316     16318     16317     16318
     16319     16320     16319     16321     16320     16321     16322     16323
     16322     16324     16323     16324     16325     16326     16325     16327
     16326     16327     16328     16329     16328     16330     16329     16330
     16331     16332     16331     16333     16332     16333     16334     16335
     16334     16336     16335     16336     16337     16338     16337     16339
     16338     16339     16340     16341     16340     16342     16341     16342
     16343     16344     16343     16345     16344     16345     16346     16347
     16346     16348     16347     16348     16349     16350     16349     16351
     16350     16351     16352     16353     16352     16354     16353     16354
     16355     16356     16355     16357     16356     16357     16358     16359
     16358     16360     16359     16360     16361     16362     16361     16363
     16362     16363     16364     16365     16364     16366     16365     16366
     16367     16368     16367     16369     16368     16369     16370     16371
     16370     16372     16371     16372     16373     16374     16373     16375
     16374     16375     16376     16377     16376     16378     16377     16378
     16379     16380     16379     16381     16380     16381     16382     16383
     16382     16384     16383     16384     16385     16386     16385     16387
     16386     16387     16388     16389     16388     16390     16389     16390
     16391     16392     16391     16393     16392     16393     16394     16395
     16394     16396     16395     16396     16397     16398     16397     16399
     16398     16399     16400     16401     16400     16402     16401     16402
     16403     16404     16403     16405     16404     16405     16406     16407
     16406     16408     16407     16408     16409     16410     16409     16411
     16410     16411     16412     16413     16412     16414     16413     16414
     16415     16416     16415     16417     16416     16417     16418     16419
     16418     16420     16419     16420     16421     16422     16421     16423
     16422     16423     16424     16425     16424     16426     16425     16426
     16427     16428     16427     16429     16428     16429     16430     16431
     16430     16432     16431     16432     16433     16434     16433     16435
     16434     16435     16436     16437     16436     16438     16437     16438
     16439     16440     16439     16441     16440     16441     16442     16443
     16442     16444     16443     16444     16445     16446     16445     16447
     16446     16447     16448     16449     16448     16450     16449     16450
     16451     16452     16451     16453     16452     16453     16454     16455
     16454     16456     16455     16456     16457     16458     16457     16459
     16458     16459     16460     16461     16460     16462     16461     16462
     16463     16464     16463     16465     16464     16465     16466     16467
     16466     16468     16467     16468     16469     16470     16469     16471
     16470     16471     16472     16473     16472     16474     16473     16474
     16475     16476     16475     16477     16476     16477     16478     16479
     16478     16480     16479     16480     16481     16482     16481     16483
     16482     16483     16484     16485     16484     16486     16485     16486
     16487     16488     16487     16489     16488     16489     16490     16491
     16490     16492     16491     16492     16493     16494     16493     16495
     16494     16495     16496     16497     16496     16498     16497     16498
     16499     16500     16499     16501     16500     16501     16502     16503
     16502     16504     16503     16504     16505     16506     16505     16507
     16506     16507     16508     16509     16508     16510     16509     16510
     16511     16512     16511     16513     16512     16513     16514     16515
     16514     16516     16515     16516     16517     16518     16517     16519
     16518     16519     16520     16521     16520     16522     16521     16522
     16523     16524     16523     16525     16524     16525     16526     16527
     16526     16528     16527     16528     16529     16530     16529     16531
     16530     16531     16532     16533     16532     16534     16533     16534
     16535     16536     16535     16537     16536     16537     16538     16539
     16538     16540     16539     16540     16541     16542     16541     16543
     16542     16543     16544     16545     16544     16546     16545     16546
     16547     16548     16547     16549     16548     16549     16550     16551
     16550     16552     16551     16552     16553     16554     16553     16555
     16554     16555     16556     16557     16556     16558     16557     16558
     16559     16560     16559     16561     16560     16561     16562     16563
     16562     16564     16563     16564     16565     16566     16565     16567
     16566     16567     16568     16569     16568     16570     16569     16570
     16571     16572     16571     16573     16572     16573     16574     16575
     16574     16576     16575     16576     16577     16578     16577     16579
     16578     16579     16580     16581     16580     16582     16581     16582
     16583     16584     16583     16585     16584     16585     16586     16587
     16586     16588     16587     16588     16589     16590     16589     16591
     16590     16591     16592     16593     16592     16594     16593     16594
     16595     16596     16595     16597     16596     16597     16598     16599
     16598     16600     16599     16600     16601     16602     16601     16603
     16602     16603     16604     16605     16604     16606     16605     16606
     16607     16608     16607     16609     16608     16609     16610     16611
     16610     16612     16611     16612     16613     16614     16613     16615
     16614     16615     16616     16617     16616     16618     16617     16618
     16619     16620     16619     16621     16620     16621     16622     16623
     16622     16624     16623     16624     16625     16626     16625     16627
     16626     16627     16628     16629     16628     16630     16629     16630
     16631     16632     16631     16633     16632     16633     16634     16635
     16634     16636     16635     16636     16637     16638     16637     16639
     16638     16639     16640     16641     16640     16642     16641     16642
     16643     16644     16643     16645     16644     16645     16646     16647
     16646     16648     16647     16648     16649     16650     16649     16651
     16650     16651     16652     16653     16652     16654     16653     16654
     16655     16656     16655     16657     16656     16657     16658     16659
     16658     16660     16659     16660     16661     16662     16661     16663
     16662     16663     16664     16665     16664     16666     16665     16666
     16667     16668     16667     16669     16668     16669     16670     16671
     16670     16672     16671     16672     16673     16674     16673     16675
     16674     16675     16676     16677     16676     16678     16677     16678
     16679     16680     16679     16681     16680     16681     16682     16683
     16682     16684     16683     16684     16685     16686     16685     16687
     16686     16687     16688     16689     16688     16690     16689     16690
     16691     16692     16691     16693     16692     16693     16694     16695
     16694     16696     16695     16696     16697     16698     16697     16699
     16698     16699     16700     16701     16700     16702     16701     16702
     16703     16704     16703     16705     16704     16705     16706     16707
     16706     16708     16707     16708     16709     16710     16709     16711
     16710     16711     16712     16713     16712     16714     16713     16714
     16715     16716     16715     16717     16716     16717     16718     16719
     16718     16720     16719     16720     16721     16722     16721     16723
     16722     16723     16724     16725     16724     16726     16725     16726
     16727     16728     16727     16729     16728     16729     16730     16731
     16730     16732     16731     16732     16733     16734     16733     16735
     16734     16735     16736     16737     16736     16738     16737     16738
     16739     16740     16739     16741     16740     16741     16742     16743
     16742     16744     16743     16744     16745     16746     16745     16747
     16746     16747     16748     16749     16748     16750     16749     16750
     16751     16752     16751     16753     16752     16753     16754     16755
     16754     16756     16755     16756     16757     16758     16757     16759
     16758     16759     16760     16761     16760     16762     16761     16762
     16763     16764     16763     16765     16764     16765     16766     16767
     16766     16768     16767     16768     16769     16770     16769     16771
     16770     16771     16772     16773     16772     16774     16773     16774
     16775     16776     16775     16777     16776     16777     16778     16779
     16778     16780     16779     16780     16781     16782     16781     16783
     16782     16783     16784     16785     16784     16786     16785     16786
     16787     16788     16787     16789     16788     16789     16790     16791
     16790     16792     16791     16792     16793     16794     16793     16795
     16794     16795     16796     16797     16796     16798     16797     16798
     16799     16800     16799     16801     16800     16801     16802     16803
     16802     16804     16803     16804     16805     16806     16805     16807
     16806     16807     16808     16809     16808     16810     16809     16810
     16811     16812     16811     16813     16812     16813     16814     16815
     16814     16816     16815     16816     16817     16818     16817     16819
     16818     16819     16820     16821     16820     16822     16821     16822
     16823     16824     16823     16825     16824     16825     16826     16827
     16826     16828     16827     16828     16829     16830     16829     16831
     16830     16831     16832     16833     16832     16834     16833     16834
     16835     16836     16835     16837     16836     16837     16838     16839
     16838     16840     16839     16840     16841     16842     16841     16843
     16842     16843     16844     16845     16844     16846     16845     16846
     16847     16848     16847     16849     16848     16849     16850     16851
     16850     16852     16851     16852     16853     16854     16853     16855
     16854     16855     16856     16857     16856     16858     16857     16858
     16859     16860     16859     16861     16860     16861     16862     16863
     16862     16864     16863     16864     16865     16866     16865     16867
     16866     16867     16868     16869     16868     16870     16869     16870
     16871     16872     16871     16873     16872     16873     16874     16875
     16874     16876     16875     16876     16877     16878     16877     16879
     16878     16879     16880     16881     16880     16882     16881     16882
     16883     16884     16883     16885     16884     16885     16886     16887
     16886     16888     16887     16888     16889     16890     16889     16891
     16890     16891     16892     16893     16892     16894     16893     16894
     16895     16896     16895     16897     16896     16897     16898     16899
     16898     16900     16899     16900     16901     16902     16901     16903
     16902     16903     16904     16905     16904     16906     16905     16906
     16907     16908     16907     16909     16908     16909     16910     16911
     16910     16912     16911     16912     16913     16914     16913     16915
     16914     16915     16916     16917     16916     16918     16917     16918
     16919     16920     16919     16921     16920     16921     16922     16923
     16922     16924     16923     16924     16925     16926     16925     16927
     16926     16927     16928     16929     16928     16930     16929     16930
     16931     16932     16931     16933     16932     16933     16934     16935
     16934     16936     16935     16936     16937     16938     16937     16939
     16938     16939     16940     16941     16940     16942     16941     16942
     16943     16944     16943     16945     16944     16945     16946     16947
     16946     16948     16947     16948     16949     16950     16949     16951
     16950     16951     16952     16953     16952     16954     16953     16954
     16955     16956     16955     16957     16956     16957     16958     16959
     16958     16960     16959     16960     16961     16962     16961     16963
     16962     16963     16964     16965     16964     16966     16965     16966
     16967     16968     16967     16969     16968     16969     16970     16971
     16970     16972     16971     16972     16973     16974     16973     16975
     16974     16975     16976     16977     16976     16978     16977     16978
     16979     16980     16979     16981     16980     16981     16982     16983
     16982     16984     16983     16984     16985     16986     16985     16987
     16986     16987     16988     16989     16988     16990     16989     16990
     16991     16992     16991     16993     16992     16993     16994     16995
     16994     16996     16995     16996     16997     16998     16997     16999
     16998     16999     17000     17001     17000     17002     17001     17002
     17003     17004     17003     17005     17004     17005     17006     17007
     17006     17008     17007     17008     17009     17010     17009     17011
     17010     17011     17012     17013     17012     17014     17013     17014
     17015     17016     17015     17017     17016     17017     17018     17019
     17018     17020     17019     17020     17021     17022     17021     17023
     17022     17023     17024     17025     17024     17026     17025     17026
     17027     17028     17027     17029     17028     17029     17030     17031
     17030     17032     17031     17032     17033     17034     17033     17035
     17034     17035     17036     17037     17036     17038     17037     17038
     17039     17040     17039     17041     17040     17041     17042     17043
     17042     17044     17043     17044     17045     17046     17045     17047
     17046     17047     17048     17049     17048     17050     17049     17050
     17051     17052     17051     17053     17052     17053     17054     17055
     17054     17056     17055     17056     17057     17058     17057     17059
     17058     17059     17060     17061     17060     17062     17061     17062
     17063     17064     17063     17065     17064     17065     17066     17067
     17066     17068     17067     17068     17069     17070     17069     17071
     17070     17071     17072     17073     17072     17074     17073     17074
     17075     17076     17075     17077     17076     17077     17078     17079
     17078     17080     17079     17080     17081     17082     17081     17083
     17082     17083     17084     17085     17084     17086     17085     17086
     17087     17088     17087     17089     17088     17089     17090     17091
     17090     17092     17091     17092     17093     17094     17093     17095
     17094     17095     17096     17097     17096     17098     17097     17098
     17099     17100     17099     17101     17100     17101     17102     17103
     17102     17104     17103     17104     17105     17106     17105     17107
     17106     17107     17108     17109     17108     17110     17109     17110
     17111     17112     17111     17113     17112     17113     17114     17115
     17114     17116     17115     17116     17117     17118     17117     17119
     17118     17119     17120     17121     17120     17122     17121     17122
     17123     17124     17123     17125     17124     17125     17126     17127
     17126     17128     17127     17128     17129     17130     17129     17131
     17130     17131     17132     17133     17132     17134     17133     17134
     17135     17136     17135     17137     17136     17137     17138     17139
     17138     17140     17139     17140     17141     17142     17141     17143
     17142     17143     17144     17145     17144     17146     17145     17146
     17147     17148     17147     17149     17148     17149     17150     17151
     17150     17152     17151     17152     17153     17154     17153     17155
     17154     17155     17156     17157     17156     17158     17157     17158
     17159     17160     17159     17161     17160     17161     17162     17163
     17162     17164     17163     17164     17165     17166     17165     17167
     17166     17167     17168     17169     17168     17170     17169     17170
     17171     17172     17171     17173     17172     17173     17174     17175
     17174     17176     17175     17176     17177     17178     17177     17179
     17178     17179     17180     17181     17180     17182     17181     17182
     17183     17184     17183     17185     17184     17185     17186     17187
     17186     17188     17187     17188     17189     17190     17189     17191
     17190     17191     17192     17193     17192     17194     17193     17194
     17195     17196     17195     17197     17196     17197     17198     17199
     17198     17200     17199     17200     17201     17202     17201     17203
     17202     17203     17204     17205     17204     17206     17205     17206
     17207     17208     17207     17209     17208     17209     17210     17211
     17210     17212     17211     17212     17213     17214     17213     17215
     17214     17215     17216     17217     17216     17218     17217     17218
     17219     17220     17219     17221     17220     17221     17222     17223
     17222     17224     17223     17224     17225     17226     17225     17227
     17226     17227     17228     17229     17228     17230     17229     17230
     17231     17232     17231     17233     17232     17233     17234     17235
     17234     17236     17235     17236     17237     17238     17237     17239
     17238     17239     17240     17241     17240     17242     17241     17242
     17243     17244     17243     17245     17244     17245     17246     17247
     17246     17248     17247     17248     17249     17250     17249     17251
     17250     17251     17252     17253     17252     17254     17253     17254
     17255     17256     17255     17257     17256     17257     17258     17259
     17258     17260     17259     17260     17261     17262     17261     17263
     17262     17263     17264     17265     17264     17266     17265     17266
     17267     17268     17267     17269     17268     17269     17270     17271
     17270     17272     17271     17272     17273     17274     17273     17275
     17274     17275     17276     17277     17276     17278     17277     17278
     17279     17280     17279     17281     17280     17281     17282     17283
     17282     17284     17283     17284     17285     17286     17285     17287
     17286     17287     17288     17289     17288     17290     17289     17290
     17291     17292     17291     17293     17292     17293     17294     17295
     17294     17296     17295     17296     17297     17298     17297     17299
     17298     17299     17300     17301     17300     17302     17301     17302
     17303     17304     17303     17305     17304     17305     17306     17307
     17306     17308     17307     17308     17309     17310     17309     17311
     17310     17311     17312     17313     17312     17314     17313     17314
     17315     17316     17315     17317     17316     17317     17318     17319
     17318     17320     17319     17320     17321     17322     17321     17323
     17322     17323     17324     17325     17324     17326     17325     17326
     17327     17328     17327     17329     17328     17329     17330     17331
     17330     17332     17331     17332     17333     17334     17333     17335
     17334     17335     17336     17337     17336     17338     17337     17338
     17339     17340     17339     17341     17340     17341     17342     17343
     17342     17344     17343     17344     17345     17346     17345     17347
     17346     17347     17348     17349     17348     17350     17349     17350
     17351     17352     17351     17353     17352     17353     17354     17355
     17354     17356     17355     17356     17357     17358     17357     17359
     17358     17359     17360     17361     17360     17362     17361     17362
     17363     17364     17363     17365     17364     17365     17366     17367
     17366     17368     17367     17368     17369     17370     17369     17371
     17370     17371     17372     17373     17372     17374     17373     17374
     17375     17376     17375     17377     17376     17377     17378     17379
     17378     17380     17379     17380     17381     17382     17381     17383
     17382     17383     17384     17385     17384     17386     17385     17386
     17387     17388     17387     17389     17388     17389     17390     17391
     17390     17392     17391     17392     17393     17394     17393     17395
     17394     17395     17396     17397     17396     17398     17397     17398
     17399     17400     17399     17401     17400     17401     17402     17403
     17402     17404     17403     17404     17405     17406     17405     17407
     17406     17407     17408     17409     17408     17410     17409     17410
     17411     17412     17411     17413     17412     17413     17414     17415
     17414     17416     17415     17416     17417     17418     17417     17419
     17418     17419     17420     17421     17420     17422     17421     17422
     17423     17424     17423     17425     17424     17425     17426     17427
     17426     17428     17427     17428     17429     17430     17429     17431
     17430     17431     17432     17433     17432     17434     17433     17434
     17435     17436     17435     17437     17436     17437     17438     17439
     17438     17440     17439     17440     17441     17442     17441     17443
     17442     17443     17444     17445     17444     17446     17445     17446
     17447     17448     17447     17449     17448     17449     17450     17451
     17450     17452     17451     17452     17453     17454     17453     17455
     17454     17455     17456     17457     17456     17458     17457     17458
     17459     17460     17459     17461     17460     17461     17462     17463
     17462     17464     17463     17464     17465     17466     17465     17467
     17466     17467     17468     17469     17468     17470     17469     17470
     17471     17472     17471     17473     17472     17473     17474     17475
     17474     17476     17475     17476     17477     17478     17477     17479
     17478     17479     17480     17481     17480     17482     17481     17482
     17483     17484     17483     17485     17484     17485     17486     17487
     17486     17488     17487     17488     17489     17490     17489     17491
     17490     17491     17492     17493     17492     17494     17493     17494
     17495     17496     17495     17497     17496     17497     17498     17499
     17498     17500     17499     17500     17501     17502     17501     17503
     17502     17503     17504     17505     17504     17506     17505     17506
     17507     17508     17507     17509     17508     17509     17510     17511
     17510     17512     17511     17512     17513     17514     17513     17515
     17514     17515     17516     17517     17516     17518     17517     17518
     17519     17520     17519     17521     17520     17521     17522     17523
     17522     17524     17523     17524     17525     17526     17525     17527
     17526     17527     17528     17529     17528     17530     17529     17530
     17531     17532     17531     17533     17532     17533     17534     17535
     17534     17536     17535     17536     17537     17538     17537     17539
     17538     17539     17540     17541     17540     17542     17541     17542
     17543     17544     17543     17545     17544     17545     17546     17547
     17546     17548     17547     17548     17549     17550     17549     17551
     17550     17551     17552     17553     17552     17554     17553     17554
     17555     17556     17555     17557     17556     17557     17558     17559
     17558     17560     17559     17560     17561     17562     17561     17563
     17562     17563     17564     17565     17564     17566     17565     17566
     17567     17568     17567     17569     17568     17569     17570     17571
     17570     17572     17571     17572     17573     17574     17573     17575
     17574     17575     17576     17577     17576     17578     17577     17578
     17579     17580     17579     17581     17580     17581     17582     17583
     17582     17584     17583     17584     17585     17586     17585     17587
     17586     17587     17588     17589     17588     17590     17589     17590
     17591     17592     17591     17593     17592     17593     17594     17595
     17594     17596     17595     17596     17597     17598     17597     17599
     17598     17599     17600     17601     17600     17602     17601     17602
     17603     17604     17603     17605     17604     17605     17606     17607
     17606     17608     17607     17608     17609     17610     17609     17611
     17610     17611     17612     17613     17612     17614     17613     17614
     17615     17616     17615     17617     17616     17617     17618     17619
     17618     17620     17619     17620     17621     17622     17621     17623
     17622     17623     17624     17625     17624     17626     17625     17626
     17627     17628     17627     17629     17628     17629     17630     17631
     17630     17632     17631     17632     17633     17634     17633     17635
     17634     17635     17636     17637     17636     17638     17637     17638
     17639     17640     17639     17641     17640     17641     17642     17643
     17642     17644     17643     17644     17645     17646     17645     17647
     17646     17647     17648     17649     17648     17650     17649     17650
     17651     17652     17651     17653     17652     17653     17654     17655
     17654     17656     17655     17656     17657     17658     17657     17659
     17658     17659     17660     17661     17660     17662     17661     17662
     17663     17664     17663     17665     17664     17665     17666     17667
     17666     17668     17667     17668     17669     17670     17669     17671
     17670     17671     17672     17673     17672     17674     17673     17674
     17675     17676     17675     17677     17676     17677     17678     17679
     17678     17680     17679     17680     17681     17682     17681     17683
     17682     17683     17684     17685     17684     17686     17685     17686
     17687     17688     17687     17689     17688     17689     17690     17691
     17690     17692     17691     17692     17693     17694     17693     17695
     17694     17695     17696     17697     17696     17698     17697     17698
     17699     17700     17699     17701     17700     17701     17702     17703
     17702     17704     17703     17704     17705     17706     17705     17707
     17706     17707     17708     17709     17708     17710     17709     17710
     17711     17712     17711     17713     17712     17713     17714     17715
     17714     17716     17715     17716     17717     17718     17717     17719
     17718     17719     17720     17721     17720     17722     17721     17722
     17723     17724     17723     17725     17724     17725     17726     17727
     17726     17728     17727     17728     17729     17730     17729     17731
     17730     17731     17732     17733     17732     17734     17733     17734
     17735     17736     17735     17737     17736     17737     17738     17739
     17738     17740     17739     17740     17741     17742     17741     17743
     17742     17743     17744     17745     17744     17746     17745     17746
     17747     17748     17747     17749     17748     17749     17750     17751
     17750     17752     17751     17752     17753     17754     17753     17755
     17754     17755     17756     17757     17756     17758     17757     17758
     17759     17760     17759     17761     17760     17761     17762     17763
     17762     17764     17763     17764     17765     17766     17765     17767
     17766     17767     17768     17769     17768     17770     17769     17770
     17771     17772     17771     17773     17772     17773     17774     17775
     17774     17776     17775     17776     17777     17778     17777     17779
     17778     17779     17780     17781     17780     17782     17781     17782
     17783     17784     17783     17785     17784     17785     17786     17787
     17786     17788     17787     17788     17789     17790     17789     17791
     17790     17791     17792     17793     17792     17794     17793     17794
     17795     17796     17795     17797     17796     17797     17798     17799
     17798     17800     17799     17800     17801     17802     17801     17803
     17802     17803     17804     17805     17804     17806     17805     17806
     17807     17808     17807     17809     17808     17809     17810     17811
     17810     17812     17811     17812     17813     17814     17813     17815
     17814     17815     17816     17817     17816     17818     17817     17818
     17819     17820     17819     17821     17820     17821     17822     17823
     17822     17824     17823     17824     17825     17826     17825     17827
     17826     17827     17828     17829     17828     17830     17829     17830
     17831     17832     17831     17833     17832     17833     17834     17835
     17834     17836     17835     17836     17837     17838     17837     17839
     17838     17839     17840     17841     17840     17842     17841     17842
     17843     17844     17843     17845     17844     17845     17846     17847
     17846     17848     17847     17848     17849     17850     17849     17851
     17850     17851     17852     17853     17852     17854     17853     17854
     17855     17856     17855     17857     17856     17857     17858     17859
     17858     17860     17859     17860     17861     17862     17861     17863
     17862     17863     17864     17865     17864     17866     17865     17866
     17867     17868     17867     17869     17868     17869     17870     17871
     17870     17872     17871     17872     17873     17874     17873     17875
     17874     17875     17876     17877     17876     17878     17877     17878
     17879     17880     17879     17881     17880     17881     17882     17883
     17882     17884     17883     17884     17885     17886     17885     17887
     17886     17887     17888     17889     17888     17890     17889     17890
     17891     17892     17891     17893     17892     17893     17894     17895
     17894     17896     17895     17896     17897     17898     17897     17899
     17898     17899     17900     17901     17900     17902     17901     17902
     17903     17904     17903     17905     17904     17905     17906     17907
     17906     17908     17907     17908     17909     17910     17909     17911
     17910     17911     17912     17913     17912     17914     17913     17914
     17915     17916     17915     17917     17916     17917     17918     17919
     17918     17920     17919     17920     17921     17922     17921     17923
     17922     17923     17924     17925     17924     17926     17925     17926
     17927     17928     17927     17929     17928     17929     17930     17931
     17930     17932     17931     17932     17933     17934     17933     17935
     17934     17935     17936     17937     17936     17938     17937     17938
     17939     17940     17939     17941     17940     17941     17942     17943
     17942     17944     17943     17944     17945     17946     17945     17947
     17946     17947     17948     17949     17948     17950     17949     17950
     17951     17952     17951     17953     17952     17953     17954     17955
     17954     17956     17955     17956     17957     17958     17957     17959
     17958     17959     17960     17961     17960     17962     17961     17962
     17963     17964     17963     17965     17964     17965     17966     17967
     17966     17968     17967     17968     17969     17970     17969     17971
     17970     17971     17972     17973     17972     17974     17973     17974
     17975     17976     17975     17977     17976     17977     17978     17979
     17978     17980     17979     17980     17981     17982     17981     17983
     17982     17983     17984     17985     17984     17986     17985     17986
     17987     17988     17987     17989     17988     17989     17990     17991
     17990     17992     17991     17992     17993     17994     17993     17995
     17994     17995     17996     17997     17996     17998     17997     17998
     17999     18000     17999     18001     18000     18001     18002     18003
     18002     18004     18003     18004     18005     18006     18005     18007
     18006     18007     18008     18009     18008     18010     18009     18010
     18011     18012     18011     18013     18012     18013     18014     18015
     18014     18016     18015     18016     18017     18018     18017     18019
     18018     18019     18020     18021     18020     18022     18021     18022
     18023     18024     18023     18025     18024     18025     18026     18027
     18026     18028     18027     18028     18029     18030     18029     18031
     18030     18031     18032     18033     18032     18034     18033     18034
     18035     18036     18035     18037     18036     18037     18038     18039
     18038     18040     18039     18040     18041     18042     18041     18043
     18042     18043     18044     18045     18044     18046     18045     18046
     18047     18048     18047     18049     18048     18049     18050     18051
     18050     18052     18051     18052     18053     18054     18053     18055
     18054     18055     18056     18057     18056     18058     18057     18058
     18059     18060     18059     18061     18060     18061     18062     18063
     18062     18064     18063     18064     18065     18066     18065     18067
     18066     18067     18068     18069     18068     18070     18069     18070
     18071     18072     18071     18073     18072     18073     18074     18075
     18074     18076     18075     18076     18077     18078     18077     18079
     18078     18079     18080     18081     18080     18082     18081     18082
     18083     18084     18083     18085     18084     18085     18086     18087
     18086     18088     18087     18088     18089     18090     18089     18091
     18090     18091     18092     18093     18092     18094     18093     18094
     18095     18096     18095     18097     18096     18097     18098     18099
     18098     18100     18099     18100     18101     18102     18101     18103
     18102     18103     18104     18105     18104     18106     18105     18106
     18107     18108     18107     18109     18108     18109     18110     18111
     18110     18112     18111     18112     18113     18114     18113     18115
     18114     18115     18116     18117     18116     18118     18117     18118
     18119     18120     18119     18121     18120     18121     18122     18123
     18122     18124     18123     18124     18125     18126     18125     18127
     18126     18127     18128     18129     18128     18130     18129     18130
     18131     18132     18131     18133     18132     18133     18134     18135
     18134     18136     18135     18136     18137     18138     18137     18139
     18138     18139     18140     18141     18140     18142     18141     18142
     18143     18144     18143     18145     18144     18145     18146     18147
     18146     18148     18147     18148     18149     18150     18149     18151
     18150     18151     18152     18153     18152     18154     18153     18154
     18155     18156     18155     18157     18156     18157     18158     18159
     18158     18160     18159     18160     18161     18162     18161     18163
     18162     18163     18164     18165     18164     18166     18165     18166
     18167     18168     18167     18169     18168     18169     18170     18171
     18170     18172     18171     18172     18173     18174     18173     18175
     18174     18175     18176     18177     18176     18178     18177     18178
     18179     18180     18179     18181     18180     18181     18182     18183
     18182     18184     18183     18184     18185     18186     18185     18187
     18186     18187     18188     18189     18188     18190     18189     18190
     18191     18192     18191     18193     18192     18193     18194     18195
     18194     18196     18195     18196     18197     18198     18197     18199
     18198     18199     18200     18201     18200     18202     18201     18202
     18203     18204     18203     18205     18204     18205     18206     18207
     18206     18208     18207     18208     18209     18210     18209     18211
     18210     18211     18212     18213     18212     18214     18213     18214
     18215     18216     18215     18217     18216     18217     18218     18219
     18218     18220     18219     18220     18221     18222     18221     18223
     18222     18223     18224     18225     18224     18226     18225     18226
     18227     18228     18227     18229     18228     18229     18230     18231
     18230     18232     18231     18232     18233     18234     18233     18235
     18234     18235     18236     18237     18236     18238     18237     18238
     18239     18240     18239     18241     18240     18241     18242     18243
     18242     18244     18243     18244     18245     18246     18245     18247
     18246     18247     18248     18249     18248     18250     18249     18250
     18251     18252     18251     18253     18252     18253     18254     18255
     18254     18256     18255     18256     18257     18258     18257     18259
     18258     18259     18260     18261     18260     18262     18261     18262
     18263     18264     18263     18265     18264     18265     18266     18267
     18266     18268     18267     18268     18269     18270     18269     18271
     18270     18271     18272     18273     18272     18274     18273     18274
     18275     18276     18275     18277     18276     18277     18278     18279
     18278     18280     18279     18280     18281     18282     18281     18283
     18282     18283     18284     18285     18284     18286     18285     18286
     18287     18288     18287     18289     18288     18289     18290     18291
     18290     18292     18291     18292     18293     18294     18293     18295
     18294     18295     18296     18297     18296     18298     18297     18298
     18299     18300     18299     18301     18300     18301     18302     18303
     18302     18304     18303     18304     18305     18306     18305     18307
     18306     18307     18308     18309     18308     18310     18309     18310
     18311     18312     18311     18313     18312     18313     18314     18315
     18314     18316     18315     18316     18317     18318     18317     18319
     18318     18319     18320     18321     18320     18322     18321     18322
     18323     18324     18323     18325     18324     18325     18326     18327
     18326     18328     18327     18328     18329     18330     18329     18331
     18330     18331     18332     18333     18332     18334     18333     18334
     18335     18336     18335     18337     18336     18337     18338     18339
     18338     18340     18339     18340     18341     18342     18341     18343
     18342     18343     18344     18345     18344     18346     18345     18346
     18347     18348     18347     18349     18348     18349     18350     18351
     18350     18352     18351     18352     18353     18354     18353     18355
     18354     18355     18356     18357     18356     18358     18357     18358
     18359     18360     18359     18361     18360     18361     18362     18363
     18362     18364     18363     18364     18365     18366     18365     18367
     18366     18367     18368     18369     18368     18370     18369     18370
     18371     18372     18371     18373     18372     18373     18374     18375
     18374     18376     18375     18376     18377     18378     18377     18379
     18378     18379     18380     18381     18380     18382     18381     18382
     18383     18384     18383     18385     18384     18385     18386     18387
     18386     18388     18387     18388     18389     18390     18389     18391
     18390     18391     18392     18393     18392     18394     18393     18394
     18395     18396     18395     18397     18396     18397     18398     18399
     18398     18400     18399     18400     18401     18402     18401     18403
     18402     18403     18404     18405     18404     18406     18405     18406
     18407     18408     18407     18409     18408     18409     18410     18411
     18410     18412     18411     18412     18413     18414     18413     18415
     18414     18415     18416     18417     18416     18418     18417     18418
     18419     18420     18419     18421     18420     18421     18422     18423
     18422     18424     18423     18424     18425     18426     18425     18427
     18426     18427     18428     18429     18428     18430     18429     18430
     18431     18432     18431     18433     18432     18433     18434     18435
     18434     18436     18435     18436     18437     18438     18437     18439
     18438     18439     18440     18441     18440     18442     18441     18442
     18443     18444     18443     18445     18444     18445     18446     18447
     18446     18448     18447     18448     18449     18450     18449     18451
     18450     18451     18452     18453     18452     18454     18453     18454
     18455     18456     18455     18457     18456     18457     18458     18459
     18458     18460     18459     18460     18461     18462     18461     18463
     18462     18463     18464     18465     18464     18466     18465     18466
     18467     18468     18467     18469     18468     18469     18470     18471
     18470     18472     18471     18472     18473     18474     18473     18475
     18474     18475     18476     18477     18476     18478     18477     18478
     18479     18480     18479     18481     18480     18481     18482     18483
     18482     18484     18483     18484     18485     18486     18485     18487
     18486     18487     18488     18489     18488     18490     18489     18490
     18491     18492     18491     18493     18492     18493     18494     18495
     18494     18496     18495     18496     18497     18498     18497     18499
     18498     18499     18500     18501     18500     18502     18501     18502
     18503     18504     18503     18505     18504     18505     18506     18507
     18506     18508     18507     18508     18509     18510     18509     18511
     18510     18511     18512     18513     18512     18514     18513     18514
     18515     18516     18515     18517     18516     18517     18518     18519
     18518     18520     18519     18520     18521     18522     18521     18523
     18522     18523     18524     18525     18524     18526     18525     18526
     18527     18528     18527     18529     18528     18529     18530     18531
     18530     18532     18531     18532     18533     18534     18533     18535
     18534     18535     18536     18537     18536     18538     18537     18538
     18539     18540     18539     18541     18540     18541     18542     18543
     18542     18544     18543     18544     18545     18546     18545     18547
     18546     18547     18548     18549     18548     18550     18549     18550
     18551     18552     18551     18553     18552     18553     18554     18555
     18554     18556     18555     18556     18557     18558     18557     18559
     18558     18559     18560     18561     18560     18562     18561     18562
     18563     18564     18563     18565     18564     18565     18566     18567
     18566     18568     18567     18568     18569     18570     18569     18571
     18570     18571     18572     18573     18572     18574     18573     18574
     18575     18576     18575     18577     18576     18577     18578     18579
     18578     18580     18579     18580     18581     18582     18581     18583
     18582     18583     18584     18585     18584     18586     18585     18586
     18587     18588     18587     18589     18588     18589     18590     18591
     18590     18592     18591     18592     18593     18594     18593     18595
     18594     18595     18596     18597     18596     18598     18597     18598
     18599     18600     18599     18601     18600     18601     18602     18603
     18602     18604     18603     18604     18605     18606     18605     18607
     18606     18607     18608     18609     18608     18610     18609     18610
     18611     18612     18611     18613     18612     18613     18614     18615
     18614     18616     18615     18616     18617     18618     18617     18619
     18618     18619     18620     18621     18620     18622     18621     18622
     18623     18624     18623     18625     18624     18625     18626     18627
     18626     18628     18627     18628     18629     18630     18629     18631
     18630     18631     18632     18633     18632     18634     18633     18634
     18635     18636     18635     18637     18636     18637     18638     18639
     18638     18640     18639     18640     18641     18642     18641     18643
     18642     18643     18644     18645     18644     18646     18645     18646
     18647     18648     18647     18649     18648     18649     18650     18651
     18650     18652     18651     18652     18653     18654     18653     18655
     18654     18655     18656     18657     18656     18658     18657     18658
     18659     18660     18659     18661     18660     18661     18662     18663
     18662     18664     18663     18664     18665     18666     18665     18667
     18666     18667     18668     18669     18668     18670     18669     18670
     18671     18672     18671     18673     18672     18673     18674     18675
     18674     18676     18675     18676     18677     18678     18677     18679
     18678     18679     18680     18681     18680     18682     18681     18682
     18683     18684     18683     18685     18684     18685     18686     18687
     18686     18688     18687     18688     18689     18690     18689     18691
     18690     18691     18692     18693     18692     18694     18693     18694
     18695     18696     18695     18697     18696     18697     18698     18699
     18698     18700     18699     18700     18701     18702     18701     18703
     18702     18703     18704     18705     18704     18706     18705     18706
     18707     18708     18707     18709     18708     18709     18710     18711
     18710     18712     18711     18712     18713     18714     18713     18715
     18714     18715     18716     18717     18716     18718     18717     18718
     18719     18720     18719     18721     18720     18721     18722     18723
     18722     18724     18723     18724     18725     18726     18725     18727
     18726     18727     18728     18729     18728     18730     18729     18730
     18731     18732     18731     18733     18732     18733     18734     18735
     18734     18736     18735     18736     18737     18738     18737     18739
     18738     18739     18740     18741     18740     18742     18741     18742
     18743     18744     18743     18745     18744     18745     18746     18747
     18746     18748     18747     18748     18749     18750     18749     18751
     18750     18751     18752     18753     18752     18754     18753     18754
     18755     18756     18755     18757     18756     18757     18758     18759
     18758     18760     18759     18760     18761     18762     18761     18763
     18762     18763     18764     18765     18764     18766     18765     18766
     18767     18768     18767     18769     18768     18769     18770     18771
     18770     18772     18771     18772     18773     18774     18773     18775
     18774     18775     18776     18777     18776     18778     18777     18778
     18779     18780     18779     18781     18780     18781     18782     18783
     18782     18784     18783     18784     18785     18786     18785     18787
     18786     18787     18788     18789     18788     18790     18789     18790
     18791     18792     18791     18793     18792     18793     18794     18795
     18794     18796     18795     18796     18797     18798     18797     18799
     18798     18799     18800     18801     18800     18802     18801     18802
     18803     18804     18803     18805     18804     18805     18806     18807
     18806     18808     18807     18808     18809     18810     18809     18811
     18810     18811     18812     18813     18812     18814     18813     18814
     18815     18816     18815     18817     18816     18817     18818     18819
     18818     18820     18819     18820     18821     18822     18821     18823
     18822     18823     18824     18825     18824     18826     18825     18826
     18827     18828     18827     18829     18828     18829     18830     18831
     18830     18832     18831     18832     18833     18834     18833     18835
     18834     18835     18836     18837     18836     18838     18837     18838
     18839     18840     18839     18841     18840     18841     18842     18843
     18842     18844     18843     18844     18845     18846     18845     18847
     18846     18847     18848     18849     18848     18850     18849     18850
     18851     18852     18851     18853     18852     18853     18854     18855
     18854     18856     18855     18856     18857     18858     18857     18859
     18858     18859     18860     18861     18860     18862     18861     18862
     18863     18864     18863     18865     18864     18865     18866     18867
     18866     18868     18867     18868     18869     18870     18869     18871
     18870     18871     18872     18873     18872     18874     18873     18874
     18875     18876     18875     18877     18876     18877     18878     18879
     18878     18880     18879     18880     18881     18882     18881     18883
     18882     18883     18884     18885     18884     18886     18885     18886
     18887     18888     18887     18889     18888     18889     18890     18891
     18890     18892     18891     18892     18893     18894     18893     18895
     18894     18895     18896     18897     18896     18898     18897     18898
     18899     18900     18899     18901     18900     18901     18902     18903
     18902     18904     18903     18904     18905     18906     18905     18907
     18906     18907     18908     18909     18908     18910     18909     18910
     18911     18912     18911     18913     18912     18913     18914     18915
     18914     18916     18915     18916     18917     18918     18917     18919
     18918     18919     18920     18921     18920     18922     18921     18922
     18923     18924     18923     18925     18924     18925     18926     18927
     18926     18928     18927     18928     18929     18930     18929     18931
     18930     18931     18932     18933     18932     18934     18933     18934
     18935     18936     18935     18937     18936     18937     18938     18939
     18938     18940     18939     18940     18941     18942     18941     18943
     18942     18943     18944     18945     18944     18946     18945     18946
     18947     18948     18947     18949     18948     18949     18950     18951
     18950     18952     18951     18952     18953     18954     18953     18955
     18954     18955     18956     18957     18956     18958     18957     18958
     18959     18960     18959     18961     18960     18961     18962     18963
     18962     18964     18963     18964     18965     18966     18965     18967
     18966     18967     18968     18969     18968     18970     18969     18970
     18971     18972     18971     18973     18972     18973     18974     18975
     18974     18976     18975     18976     18977     18978     18977     18979
     18978     18979     18980     18981     18980     18982     18981     18982
     18983     18984     18983     18985     18984     18985     18986     18987
     18986     18988     18987     18988     18989     18990     18989     18991
     18990     18991     18992     18993     18992     18994     18993     18994
     18995     18996     18995     18997     18996     18997     18998     18999
     18998     19000     18999     19000     19001     19002     19001     19003
     19002     19003     19004     19005     19004     19006     19005     19006
     19007     19008     19007     19009     19008     19009     19010     19011
     19010     19012     19011     19012     19013     19014     19013     19015
     19014     19015     19016     19017     19016     19018     19017     19018
     19019     19020     19019     19021     19020     19021     19022     19023
     19022     19024     19023     19024     19025     19026     19025     19027
     19026     19027     19028     19029     19028     19030     19029     19030
     19031     19032     19031     19033     19032     19033     19034     19035
     19034     19036     19035     19036     19037     19038     19037     19039
     19038     19039     19040     19041     19040     19042     19041     19042
     19043     19044     19043     19045     19044     19045     19046     19047
     19046     19048     19047     19048     19049     19050     19049     19051
     19050     19051     19052     19053     19052     19054     19053     19054
     19055     19056     19055     19057     19056     19057     19058     19059
     19058     19060     19059     19060     19061     19062     19061     19063
     19062     19063     19064     19065     19064     19066     19065     19066
     19067     19068     19067     19069     19068     19069     19070     19071
     19070     19072     19071     19072     19073     19074     19073     19075
     19074     19075     19076     19077     19076     19078     19077     19078
     19079     19080     19079     19081     19080     19081     19082     19083
     19082     19084     19083     19084     19085     19086     19085     19087
     19086     19087     19088     19089     19088     19090     19089     19090
     19091     19092     19091     19093     19092     19093     19094     19095
     19094     19096     19095     19096     19097     19098     19097     19099
     19098     19099     19100     19101     19100     19102     19101     19102
     19103     19104     19103     19105     19104     19105     19106     19107
     19106     19108     19107     19108     19109     19110     19109     19111
     19110     19111     19112     19113     19112     19114     19113     19114
     19115     19116     19115     19117     19116     19117     19118     19119
     19118     19120     19119     19120     19121     19122     19121     19123
     19122     19123     19124     19125     19124     19126     19125     19126
     19127     19128     19127     19129     19128     19129     19130     19131
     19130     19132     19131     19132     19133     19134     19133     19135
     19134     19135     19136     19137     19136     19138     19137     19138
     19139     19140     19139     19141     19140     19141     19142     19143
     19142     19144     19143     19144     19145     19146     19145     19147
     19146     19147     19148     19149     19148     19150     19149     19150
     19151     19152     19151     19153     19152     19153     19154     19155
     19154     19156     19155     19156     19157     19158     19157     19159
     19158     19159     19160     19161     19160     19162     19161     19162
     19163     19164     19163     19165     19164     19165     19166     19167
     19166     19168     19167     19168     19169     19170     19169     19171
     19170     19171     19172     19173     19172     19174     19173     19174
     19175     19176     19175     19177     19176     19177     19178     19179
     19178     19180     19179     19180     19181     19182     19181     19183
     19182     19183     19184     19185     19184     19186     19185     19186
     19187     19188     19187     19189     19188     19189     19190     19191
     19190     19192     19191     19192     19193     19194     19193     19195
     19194     19195     19196     19197     19196     19198     19197     19198
     19199     19200     19199     19201     19200     19201     19202     19203
     19202     19204     19203     19204     19205     19206     19205     19207
     19206     19207     19208     19209     19208     19210     19209     19210
     19211     19212     19211     19213     19212     19213     19214     19215
     19214     19216     19215     19216     19217     19218     19217     19219
     19218     19219     19220     19221     19220     19222     19221     19222
     19223     19224     19223     19225     19224     19225     19226     19227
     19226     19228     19227     19228     19229     19230     19229     19231
     19230     19231     19232     19233     19232     19234     19233     19234
     19235     19236     19235     19237     19236     19237     19238     19239
     19238     19240     19239     19240     19241     19242     19241     19243
     19242     19243     19244     19245     19244     19246     19245     19246
     19247     19248     19247     19249     19248     19249     19250     19251
     19250     19252     19251     19252     19253     19254     19253     19255
     19254     19255     19256     19257     19256     19258     19257     19258
     19259     19260     19259     19261     19260     19261     19262     19263
     19262     19264     19263     19264     19265     19266     19265     19267
     19266     19267     19268     19269     19268     19270     19269     19270
     19271     19272     19271     19273     19272     19273     19274     19275
     19274     19276     19275     19276     19277     19278     19277     19279
     19278     19279     19280     19281     19280     19282     19281     19282
     19283     19284     19283     19285     19284     19285     19286     19287
     19286     19288     19287     19288     19289     19290     19289     19291
     19290     19291     19292     19293     19292     19294     19293     19294
     19295     19296     19295     19297     19296     19297     19298     19299
     19298     19300     19299     19300     19301     19302     19301     19303
     19302     19303     19304     19305     19304     19306     19305     19306
     19307     19308     19307     19309     19308     19309     19310     19311
     19310     19312     19311     19312     19313     19314     19313     19315
     19314     19315     19316     19317     19316     19318     19317     19318
     19319     19320     19319     19321     19320     19321     19322     19323
     19322     19324     19323     19324     19325     19326     19325     19327
     19326     19327     19328     19329     19328     19330     19329     19330
     19331     19332     19331     19333     19332     19333     19334     19335
     19334     19336     19335     19336     19337     19338     19337     19339
     19338     19339     19340     19341     19340     19342     19341     19342
     19343     19344     19343     19345     19344     19345     19346     19347
     19346     19348     19347     19348     19349     19350     19349     19351
     19350     19351     19352     19353     19352     19354     19353     19354
     19355     19356     19355     19357     19356     19357     19358     19359
     19358     19360     19359     19360     19361     19362     19361     19363
     19362     19363     19364     19365     19364     19366     19365     19366
     19367     19368     19367     19369     19368     19369     19370     19371
     19370     19372     19371     19372     19373     19374     19373     19375
     19374     19375     19376     19377     19376     19378     19377     19378
     19379     19380     19379     19381     19380     19381     19382     19383
     19382     19384     19383     19384     19385     19386     19385     19387
     19386     19387     19388     19389     19388     19390     19389     19390
     19391     19392     19391     19393     19392     19393     19394     19395
     19394     19396     19395     19396     19397     19398     19397     19399
     19398     19399     19400     19401     19400     19402     19401     19402
     19403     19404     19403     19405     19404     19405     19406     19407
     19406     19408     19407     19408     19409     19410     19409     19411
     19410     19411     19412     19413     19412     19414     19413     19414
     19415     19416     19415     19417     19416     19417     19418     19419
     19418     19420     19419     19420     19421     19422     19421     19423
     19422     19423     19424     19425     19424     19426     19425     19426
     19427     19428     19427     19429     19428     19429     19430     19431
     19430     19432     19431     19432     19433     19434     19433     19435
     19434     19435     19436     19437     19436     19438     19437     19438
     19439     19440     19439     19441     19440     19441     19442     19443
     19442     19444     19443     19444     19445     19446     19445     19447
     19446     19447     19448     19449     19448     19450     19449     19450
     19451     19452     19451     19453     19452     19453     19454     19455
     19454     19456     19455     19456     19457     19458     19457     19459
     19458     19459     19460     19461     19460     19462     19461     19462
     19463     19464     19463     19465     19464     19465     19466     19467
     19466     19468     19467     19468     19469     19470     19469     19471
     19470     19471     19472     19473     19472     19474     19473     19474
     19475     19476     19475     19477     19476     19477     19478     19479
     19478     19480     19479     19480     19481     19482     19481     19483
     19482     19483     19484     19485     19484     19486     19485     19486
     19487     19488     19487     19489     19488     19489     19490     19491
     19490     19492     19491     19492     19493     19494     19493     19495
     19494     19495     19496     19497     19496     19498     19497     19498
     19499     19500     19499     19501     19500     19501     19502     19503
     19502     19504     19503     19504     19505     19506     19505     19507
     19506     19507     19508     19509     19508     19510     19509     19510
     19511     19512     19511     19513     19512     19513     19514     19515
     19514     19516     19515     19516     19517     19518     19517     19519
     19518     19519     19520     19521     19520     19522     19521     19522
     19523     19524     19523     19525     19524     19525     19526     19527
     19526     19528     19527     19528     19529     19530     19529     19531
     19530     19531     19532     19533     19532     19534     19533     19534
     19535     19536     19535     19537     19536     19537     19538     19539
     19538     19540     19539     19540     19541     19542     19541     19543
     19542     19543     19544     19545     19544     19546     19545     19546
     19547     19548     19547     19549     19548     19549     19550     19551
     19550     19552     19551     19552     19553     19554     19553     19555
     19554     19555     19556     19557     19556     19558     19557     19558
     19559     19560     19559     19561     19560     19561     19562     19563
     19562     19564     19563     19564     19565     19566     19565     19567
     19566     19567     19568     19569     19568     19570     19569     19570
     19571     19572     19571     19573     19572     19573     19574     19575
     19574     19576     19575     19576     19577     19578     19577     19579
     19578     19579     19580     19581     19580     19582     19581     19582
     19583     19584     19583     19585     19584     19585     19586     19587
     19586     19588     19587     19588     19589     19590     19589     19591
     19590     19591     19592     19593     19592     19594     19593     19594
     19595     19596     19595     19597     19596     19597     19598     19599
     19598     19600     19599     19600     19601     19602     19601     19603
     19602     19603     19604     19605     19604     19606     19605     19606
     19607     19608     19607     19609     19608     19609     19610     19611
     19610     19612     19611     19612     19613     19614     19613     19615
     19614     19615     19616     19617     19616     19618     19617     19618
     19619     19620     19619     19621     19620     19621     19622     19623
     19622     19624     19623     19624     19625     19626     19625     19627
     19626     19627     19628     19629     19628     19630     19629     19630
     19631     19632     19631     19633     19632     19633     19634     19635
     19634     19636     19635     19636     19637     19638     19637     19639
     19638     19639     19640     19641     19640     19642     19641     19642
     19643     19644     19643     19645     19644     19645     19646     19647
     19646     19648     19647     19648     19649     19650     19649     19651
     19650     19651     19652     19653     19652     19654     19653     19654
     19655     19656     19655     19657     19656     19657     19658     19659
     19658     19660     19659     19660     19661     19662     19661     19663
     19662     19663     19664     19665     19664     19666     19665     19666
     19667     19668     19667     19669     19668     19669     19670     19671
     19670     19672     19671     19672     19673     19674     19673     19675
     19674     19675     19676     19677     19676     19678     19677     19678
     19679     19680     19679     19681     19680     19681     19682     19683
     19682     19684     19683     19684     19685     19686     19685     19687
     19686     19687     19688     19689     19688     19690     19689     19690
     19691     19692     19691     19693     19692     19693     19694     19695
     19694     19696     19695     19696     19697     19698     19697     19699
     19698     19699     19700     19701     19700     19702     19701     19702
     19703     19704     19703     19705     19704     19705     19706     19707
     19706     19708     19707     19708     19709     19710     19709     19711
     19710     19711     19712     19713     19712     19714     19713     19714
     19715     19716     19715     19717     19716     19717     19718     19719
     19718     19720     19719     19720     19721     19722     19721     19723
     19722     19723     19724     19725     19724     19726     19725     19726
     19727     19728     19727     19729     19728     19729     19730     19731
     19730     19732     19731     19732     19733     19734     19733     19735
     19734     19735     19736     19737     19736     19738     19737     19738
     19739     19740     19739     19741     19740     19741     19742     19743
     19742     19744     19743     19744     19745     19746     19745     19747
     19746     19747     19748     19749     19748     19750     19749     19750
     19751     19752     19751     19753     19752     19753     19754     19755
     19754     19756     19755     19756     19757     19758     19757     19759
     19758     19759     19760     19761     19760     19762     19761     19762
     19763     19764     19763     19765     19764     19765     19766     19767
     19766     19768     19767     19768     19769     19770     19769     19771
     19770     19771     19772     19773     19772     19774     19773     19774
     19775     19776     19775     19777     19776     19777     19778     19779
     19778     19780     19779     19780     19781     19782     19781     19783
     19782     19783     19784     19785     19784     19786     19785     19786
     19787     19788     19787     19789     19788     19789     19790     19791
     19790     19792     19791     19792     19793     19794     19793     19795
     19794     19795     19796     19797     19796     19798     19797     19798
     19799     19800     19799     19801     19800     19801     19802     19803
     19802     19804     19803     19804     19805     19806     19805     19807
     19806     19807     19808     19809     19808     19810     19809     19810
     19811     19812     19811     19813     19812     19813     19814     19815
     19814     19816     19815     19816     19817     19818     19817     19819
     19818     19819     19820     19821     19820     19822     19821     19822
     19823     19824     19823     19825     19824     19825     19826     19827
     19826     19828     19827     19828     19829     19830     19829     19831
     19830     19831     19832     19833     19832     19834     19833     19834
     19835     19836     19835     19837     19836     19837     19838     19839
     19838     19840     19839     19840     19841     19842     19841     19843
     19842     19843     19844     19845     19844     19846     19845     19846
     19847     19848     19847     19849     19848     19849     19850     19851
     19850     19852     19851     19852     19853     19854     19853     19855
     19854     19855     19856     19857     19856     19858     19857     19858
     19859     19860     19859     19861     19860     19861     19862     19863
     19862     19864     19863     19864     19865     19866     19865     19867
     19866     19867     19868     19869     19868     19870     19869     19870
     19871     19872     19871     19873     19872     19873     19874     19875
     19874     19876     19875     19876     19877     19878     19877     19879
     19878     19879     19880     19881     19880     19882     19881     19882
     19883     19884     19883     19885     19884     19885     19886     19887
     19886     19888     19887     19888     19889     19890     19889     19891
     19890     19891     19892     19893     19892     19894     19893     19894
     19895     19896     19895     19897     19896     19897     19898     19899
     19898     19900     19899     19900     19901     19902     19901     19903
     19902     19903     19904     19905     19904     19906     19905     19906
     19907     19908     19907     19909     19908     19909     19910     19911
     19910     19912     19911     19912     19913     19914     19913     19915
     19914     19915     19916     19917     19916     19918     19917     19918
     19919     19920     19919     19921     19920     19921     19922     19923
     19922     19924     19923     19924     19925     19926     19925     19927
     19926     19927     19928     19929     19928     19930     19929     19930
     19931     19932     19931     19933     19932     19933     19934     19935
     19934     19936     19935     19936     19937     19938     19937     19939
     19938     19939     19940     19941     19940     19942     19941     19942
     19943     19944     19943     19945     19944     19945     19946     19947
     19946     19948     19947     19948     19949     19950     19949     19951
     19950     19951     19952     19953     19952     19954     19953     19954
     19955     19956     19955     19957     19956     19957     19958     19959
     19958     19960     19959     19960     19961     19962     19961     19963
     19962     19963     19964     19965     19964     19966     19965     19966
     19967     19968     19967     19969     19968     19969     19970     19971
     19970     19972     19971     19972     19973     19974     19973     19975
     19974     19975     19976     19977     19976     19978     19977     19978
     19979     19980     19979     19981     19980     19981     19982     19983
     19982     19984     19983     19984     19985     19986     19985     19987
     19986     19987     19988     19989     19988     19990     19989     19990
     19991     19992     19991     19993     19992     19993     19994     19995
     19994     19996     19995     19996     19997     19998     19997     19999
     19998     19999     20000     20001     20000     20002     20001     20002
     20003     20004     20003     20005     20004     20005     20006     20007
     20006     20008     20007     20008     20009     20010     20009     20011
     20010     20011     20012     20013     20012     20014     20013     20014
     20015     20016     20015     20017     20016     20017     20018     20019
     20018     20020     20019     20020     20021     20022     20021     20023
     20022     20023     20024     20025     20024     20026     20025     20026
     20027     20028     20027     20029     20028     20029     20030     20031
     20030     20032     20031     20032     20033     20034     20033     20035
     20034     20035     20036     20037     20036     20038     20037     20038
     20039     20040     20039     20041     20040     20041     20042     20043
     20042     20044     20043     20044     20045     20046     20045     20047
     20046     20047     20048     20049     20048     20050     20049     20050
     20051     20052     20051     20053     20052     20053     20054     20055
     20054     20056     20055     20056     20057     20058     20057     20059
     20058     20059     20060     20061     20060     20062     20061     20062
     20063     20064     20063     20065     20064     20065     20066     20067
     20066     20068     20067     20068     20069     20070     20069     20071
     20070     20071     20072     20073     20072     20074     20073     20074
     20075     20076     20075     20077     20076     20077     20078     20079
     20078     20080     20079     20080     20081     20082     20081     20083
     20082     20083     20084     20085     20084     20086     20085     20086
     20087     20088     20087     20089     20088     20089     20090     20091
     20090     20092     20091     20092     20093     20094     20093     20095
     20094     20095     20096     20097     20096     20098     20097     20098
     20099     20100     20099     20101     20100     20101     20102     20103
     20102     20104     20103     20104     20105     20106     20105     20107
     20106     20107     20108     20109     20108     20110     20109     20110
     20111     20112     20111     20113     20112     20113     20114     20115
     20114     20116     20115     20116     20117     20118     20117     20119
     20118     20119     20120     20121     20120     20122     20121     20122
     20123     20124     20123     20125     20124     20125     20126     20127
     20126     20128     20127     20128     20129     20130     20129     20131
     20130     20131     20132     20133     20132     20134     20133     20134
     20135     20136     20135     20137     20136     20137     20138     20139
     20138     20140     20139     20140     20141     20142     20141     20143
     20142     20143     20144     20145     20144     20146     20145     20146
     20147     20148     20147     20149     20148     20149     20150     20151
     20150     20152     20151     20152     20153     20154     20153     20155
     20154     20155     20156     20157     20156     20158     20157     20158
     20159     20160     20159     20161     20160     20161     20162     20163
     20162     20164     20163     20164     20165     20166     20165     20167
     20166     20167     20168     20169     20168     20170     20169     20170
     20171     20172     20171     20173     20172     20173     20174     20175
     20174     20176     20175     20176     20177     20178     20177     20179
     20178     20179     20180     20181     20180     20182     20181     20182
     20183     20184     20183     20185     20184     20185     20186     20187
     20186     20188     20187     20188     20189     20190     20189     20191
     20190     20191     20192     20193     20192     20194     20193     20194
     20195     20196     20195     20197     20196     20197     20198     20199
     20198     20200     20199     20200     20201     20202     20201     20203
     20202     20203     20204     20205     20204     20206     20205     20206
     20207     20208     20207     20209     20208     20209     20210     20211
     20210     20212     20211     20212     20213     20214     20213     20215
     20214     20215     20216     20217     20216     20218     20217     20218
     20219     20220     20219     20221     20220     20221     20222     20223
     20222     20224     20223     20224     20225     20226     20225     20227
     20226     20227     20228     20229     20228     20230     20229     20230
     20231     20232     20231     20233     20232     20233     20234     20235
     20234     20236     20235     20236     20237     20238     20237     20239
     20238     20239     20240     20241     20240     20242     20241     20242
     20243     20244     20243     20245     20244     20245     20246     20247
     20246     20248     20247     20248     20249     20250     20249     20251
     20250     20251     20252     20253     20252     20254     20253     20254
     20255     20256     20255     20257     20256     20257     20258     20259
     20258     20260     20259     20260     20261     20262     20261     20263
     20262     20263     20264     20265     20264     20266     20265     20266
     20267     20268     20267     20269     20268     20269     20270     20271
     20270     20272     20271     20272     20273     20274     20273     20275
     20274     20275     20276     20277     20276     20278     20277     20278
     20279     20280     20279     20281     20280     20281     20282     20283
     20282     20284     20283     20284     20285     20286     20285     20287
     20286     20287     20288     20289     20288     20290     20289     20290
     20291     20292     20291     20293     20292     20293     20294     20295
     20294     20296     20295     20296     20297     20298     20297     20299
     20298     20299     20300     20301     20300     20302     20301     20302
     20303     20304     20303     20305     20304     20305     20306     20307
     20306     20308     20307     20308     20309     20310     20309     20311
     20310     20311     20312     20313     20312     20314     20313     20314
     20315     20316     20315     20317     20316     20317     20318     20319
     20318     20320     20319     20320     20321     20322     20321     20323
     20322     20323     20324     20325     20324     20326     20325     20326
     20327     20328     20327     20329     20328     20329     20330     20331
     20330     20332     20331     20332     20333     20334     20333     20335
     20334     20335     20336     20337     20336     20338     20337     20338
     20339     20340     20339     20341     20340     20341     20342     20343
     20342     20344     20343     20344     20345     20346     20345     20347
     20346     20347     20348     20349     20348     20350     20349     20350
     20351     20352     20351     20353     20352     20353     20354     20355
     20354     20356     20355     20356     20357     20358     20357     20359
     20358     20359     20360     20361     20360     20362     20361     20362
     20363     20364     20363     20365     20364     20365     20366     20367
     20366     20368     20367     20368     20369     20370     20369     20371
     20370     20371     20372     20373     20372     20374     20373     20374
     20375     20376     20375     20377     20376     20377     20378     20379
     20378     20380     20379     20380     20381     20382     20381     20383
     20382     20383     20384     20385     20384     20386     20385     20386
     20387     20388     20387     20389     20388     20389     20390     20391
     20390     20392     20391     20392     20393     20394     20393     20395
     20394     20395     20396     20397     20396     20398     20397     20398
     20399     20400     20399     20401     20400     20401     20402     20403
     20402     20404     20403     20404     20405     20406     20405     20407
     20406     20407     20408     20409     20408     20410     20409     20410
     20411     20412     20411     20413     20412     20413     20414     20415
     20414     20416     20415     20416     20417     20418     20417     20419
     20418     20419     20420     20421     20420     20422     20421     20422
     20423     20424     20423     20425     20424     20425     20426     20427
     20426     20428     20427     20428     20429     20430     20429     20431
     20430     20431     20432     20433     20432     20434     20433     20434
     20435     20436     20435     20437     20436     20437     20438     20439
     20438     20440     20439     20440     20441     20442     20441     20443
     20442     20443     20444     20445     20444     20446     20445     20446
     20447     20448     20447     20449     20448     20449     20450     20451
     20450     20452     20451     20452     20453     20454     20453     20455
     20454     20455     20456     20457     20456     20458     20457     20458
     20459     20460     20459     20461     20460     20461     20462     20463
     20462     20464     20463     20464     20465     20466     20465     20467
     20466     20467     20468     20469     20468     20470     20469     20470
     20471     20472     20471     20473     20472     20473     20474     20475
     20474     20476     20475     20476     20477     20478     20477     20479
     20478     20479     20480     20481     20480     20482     20481     20482
     20483     20484     20483     20485     20484     20485     20486     20487
     20486     20488     20487     20488     20489     20490     20489     20491
     20490     20491     20492     20493     20492     20494     20493     20494
     20495     20496     20495     20497     20496     20497     20498     20499
     20498     20500     20499     20500     20501     20502     20501     20503
     20502     20503     20504     20505     20504     20506     20505     20506
     20507     20508     20507     20509     20508     20509     20510     20511
     20510     20512     20511     20512     20513     20514     20513     20515
     20514     20515     20516     20517     20516     20518     20517     20518
     20519     20520     20519     20521     20520     20521     20522     20523
     20522     20524     20523     20524     20525     20526     20525     20527
     20526     20527     20528     20529     20528     20530     20529     20530
     20531     20532     20531     20533     20532     20533     20534     20535
     20534     20536     20535     20536     20537     20538     20537     20539
     20538     20539     20540     20541     20540     20542     20541     20542
     20543     20544     20543     20545     20544     20545     20546     20547
     20546     20548     20547     20548     20549     20550     20549     20551
     20550     20551     20552     20553     20552     20554     20553     20554
     20555     20556     20555     20557     20556     20557     20558     20559
     20558     20560     20559     20560     20561     20562     20561     20563
     20562     20563     20564     20565     20564     20566     20565     20566
     20567     20568     20567     20569     20568     20569     20570     20571
     20570     20572     20571     20572     20573     20574     20573     20575
     20574     20575     20576     20577     20576     20578     20577     20578
     20579     20580     20579     20581     20580     20581     20582     20583
     20582     20584     20583     20584     20585     20586     20585     20587
     20586     20587     20588     20589     20588     20590     20589     20590
     20591     20592     20591     20593     20592     20593     20594     20595
     20594     20596     20595     20596     20597     20598     20597     20599
     20598     20599     20600     20601     20600     20602     20601     20602
     20603     20604     20603     20605     20604     20605     20606     20607
     20606     20608     20607     20608     20609     20610     20609     20611
     20610     20611     20612     20613     20612     20614     20613     20614
     20615     20616     20615     20617     20616     20617     20618     20619
     20618     20620     20619     20620     20621     20622     20621     20623
     20622     20623     20624     20625     20624     20626     20625     20626
     20627     20628     20627     20629     20628     20629     20630     20631
     20630     20632     20631     20632     20633     20634     20633     20635
     20634     20635     20636     20637     20636     20638     20637     20638
     20639     20640     20639     20641     20640     20641     20642     20643
     20642     20644     20643     20644     20645     20646     20645     20647
     20646     20647     20648     20649     20648     20650     20649     20650
     20651     20652     20651     20653     20652     20653     20654     20655
     20654     20656     20655     20656     20657     20658     20657     20659
     20658     20659     20660     20661     20660     20662     20661     20662
     20663     20664     20663     20665     20664     20665     20666     20667
     20666     20668     20667     20668     20669     20670     20669     20671
     20670     20671     20672     20673     20672     20674     20673     20674
     20675     20676     20675     20677     20676     20677     20678     20679
     20678     20680     20679     20680     20681     20682     20681     20683
     20682     20683     20684     20685     20684     20686     20685     20686
     20687     20688     20687     20689     20688     20689     20690     20691
     20690     20692     20691     20692     20693     20694     20693     20695
     20694     20695     20696     20697     20696     20698     20697     20698
     20699     20700     20699     20701     20700     20701     20702     20703
     20702     20704     20703     20704     20705     20706     20705     20707
     20706     20707     20708     20709     20708     20710     20709     20710
     20711     20712     20711     20713     20712     20713     20714     20715
     20714     20716     20715     20716     20717     20718     20717     20719
     20718     20719     20720     20721     20720     20722     20721     20722
     20723     20724     20723     20725     20724     20725     20726     20727
     20726     20728     20727     20728     20729     20730     20729     20731
     20730     20731     20732     20733     20732     20734     20733     20734
     20735     20736     20735     20737     20736     20737     20738     20739
     20738     20740     20739     20740     20741     20742     20741     20743
     20742     20743     20744     20745     20744     20746     20745     20746
     20747     20748     20747     20749     20748     20749     20750     20751
     20750     20752     20751     20752     20753     20754     20753     20755
     20754     20755     20756     20757     20756     20758     20757     20758
     20759     20760     20759     20761     20760     20761     20762     20763
     20762     20764     20763     20764     20765     20766     20765     20767
     20766     20767     20768     20769     20768     20770     20769     20770
     20771     20772     20771     20773     20772     20773     20774     20775
     20774     20776     20775     20776     20777     20778     20777     20779
     20778     20779     20780     20781     20780     20782     20781     20782
     20783     20784     20783     20785     20784     20785     20786     20787
     20786     20788     20787     20788     20789     20790     20789     20791
     20790     20791     20792     20793     20792     20794     20793     20794
     20795     20796     20795     20797     20796     20797     20798     20799
     20798     20800     20799     20800     20801     20802     20801     20803
     20802     20803     20804     20805     20804     20806     20805     20806
     20807     20808     20807     20809     20808     20809     20810     20811
     20810     20812     20811     20812     20813     20814     20813     20815
     20814     20815     20816     20817     20816     20818     20817     20818
     20819     20820     20819     20821     20820     20821     20822     20823
     20822     20824     20823     20824     20825     20826     20825     20827
     20826     20827     20828     20829     20828     20830     20829     20830
     20831     20832     20831     20833     20832     20833     20834     20835
     20834     20836     20835     20836     20837     20838     20837     20839
     20838     20839     20840     20841     20840     20842     20841     20842
     20843     20844     20843     20845     20844     20845     20846     20847
     20846     20848     20847     20848     20849     20850     20849     20851
     20850     20851     20852     20853     20852     20854     20853     20854
     20855     20856     20855     20857     20856     20857     20858     20859
     20858     20860     20859     20860     20861     20862     20861     20863
     20862     20863     20864     20865     20864     20866     20865     20866
     20867     20868     20867     20869     20868     20869     20870     20871
     20870     20872     20871     20872     20873     20874     20873     20875
     20874     20875     20876     20877     20876     20878     20877     20878
     20879     20880     20879     20881     20880     20881     20882     20883
     20882     20884     20883     20884     20885     20886     20885     20887
     20886     20887     20888     20889     20888     20890     20889     20890
     20891     20892     20891     20893     20892     20893     20894     20895
     20894     20896     20895     20896     20897     20898     20897     20899
     20898     20899     20900     20901     20900     20902     20901     20902
     20903     20904     20903     20905     20904     20905     20906     20907
     20906     20908     20907     20908     20909     20910     20909     20911
     20910     20911     20912     20913     20912     20914     20913     20914
     20915     20916     20915     20917     20916     20917     20918     20919
     20918     20920     20919     20920     20921     20922     20921     20923
     20922     20923     20924     20925     20924     20926     20925     20926
     20927     20928     20927     20929     20928     20929     20930     20931
     20930     20932     20931     20932     20933     20934     20933     20935
     20934     20935     20936     20937     20936     20938     20937     20938
     20939     20940     20939     20941     20940     20941     20942     20943
     20942     20944     20943     20944     20945     20946     20945     20947
     20946     20947     20948     20949     20948     20950     20949     20950
     20951     20952     20951     20953     20952     20953     20954     20955
     20954     20956     20955     20956     20957     20958     20957     20959
     20958     20959     20960     20961     20960     20962     20961     20962
     20963     20964     20963     20965     20964     20965     20966     20967
     20966     20968     20967     20968     20969     20970     20969     20971
     20970     20971     20972     20973     20972     20974     20973     20974
     20975     20976     20975     20977     20976     20977     20978     20979
     20978     20980     20979     20980     20981     20982     20981     20983
     20982     20983     20984     20985     20984     20986     20985     20986
     20987     20988     20987     20989     20988     20989     20990     20991
     20990     20992     20991     20992     20993     20994     20993     20995
     20994     20995     20996     20997     20996     20998     20997     20998
     20999     21000     20999     21001     21000     21001     21002     21003
     21002     21004     21003     21004     21005     21006     21005     21007
     21006     21007     21008     21009     21008     21010     21009     21010
     21011     21012     21011     21013     21012     21013     21014     21015
     21014     21016     21015     21016     21017     21018     21017     21019
     21018     21019     21020     21021     21020     21022     21021     21022
     21023     21024     21023     21025     21024     21025     21026     21027
     21026     21028     21027     21028     21029     21030     21029     21031
     21030     21031     21032     21033     21032     21034     21033     21034
     21035     21036     21035     21037     21036     21037     21038     21039
     21038     21040     21039     21040     21041     21042     21041     21043
     21042     21043     21044     21045     21044     21046     21045     21046
     21047     21048     21047     21049     21048     21049     21050     21051
     21050     21052     21051     21052     21053     21054     21053     21055
     21054     21055     21056     21057     21056     21058     21057     21058
     21059     21060     21059     21061     21060     21061     21062     21063
     21062     21064     21063     21064     21065     21066     21065     21067
     21066     21067     21068     21069     21068     21070     21069     21070
     21071     21072     21071     21073     21072     21073     21074     21075
     21074     21076     21075     21076     21077     21078     21077     21079
     21078     21079     21080     21081     21080     21082     21081     21082
     21083     21084     21083     21085     21084     21085     21086     21087
     21086     21088     21087     21088     21089     21090     21089     21091
     21090     21091     21092     21093     21092     21094     21093     21094
     21095     21096     21095     21097     21096     21097     21098     21099
     21098     21100     21099     21100     21101     21102     21101     21103
     21102     21103     21104     21105     21104     21106     21105     21106
     21107     21108     21107     21109     21108     21109     21110     21111
     21110     21112     21111     21112     21113     21114     21113     21115
     21114     21115     21116     21117     21116     21118     21117     21118
     21119     21120     21119     21121     21120     21121     21122     21123
     21122     21124     21123     21124     21125     21126     21125     21127
     21126     21127     21128     21129     21128     21130     21129     21130
     21131     21132     21131     21133     21132     21133     21134     21135
     21134     21136     21135     21136     21137     21138     21137     21139
     21138     21139     21140     21141     21140     21142     21141     21142
     21143     21144     21143     21145     21144     21145     21146     21147
     21146     21148     21147     21148     21149     21150     21149     21151
     21150     21151     21152     21153     21152     21154     21153     21154
     21155     21156     21155     21157     21156     21157     21158     21159
     21158     21160     21159     21160     21161     21162     21161     21163
     21162     21163     21164     21165     21164     21166     21165     21166
     21167     21168     21167     21169     21168     21169     21170     21171
     21170     21172     21171     21172     21173     21174     21173     21175
     21174     21175     21176     21177     21176     21178     21177     21178
     21179     21180     21179     21181     21180     21181     21182     21183
     21182     21184     21183     21184     21185     21186     21185     21187
     21186     21187     21188     21189     21188     21190     21189     21190
     21191     21192     21191     21193     21192     21193     21194     21195
     21194     21196     21195     21196     21197     21198     21197     21199
     21198     21199     21200     21201     21200     21202     21201     21202
     21203     21204     21203     21205     21204     21205     21206     21207
     21206     21208     21207     21208     21209     21210     21209     21211
     21210     21211     21212     21213     21212     21214     21213     21214
     21215     21216     21215     21217     21216     21217     21218     21219
     21218     21220     21219     21220     21221     21222     21221     21223
     21222     21223     21224     21225     21224     21226     21225     21226
     21227     21228     21227     21229     21228     21229     21230     21231
     21230     21232     21231     21232     21233     21234     21233     21235
     21234     21235     21236     21237     21236     21238     21237     21238
     21239     21240     21239     21241     21240     21241     21242     21243
     21242     21244     21243     21244     21245     21246     21245     21247
     21246     21247     21248     21249     21248     21250     21249     21250
     21251     21252     21251     21253     21252     21253     21254     21255
     21254     21256     21255     21256     21257     21258     21257     21259
     21258     21259     21260     21261     21260     21262     21261     21262
     21263     21264     21263     21265     21264     21265     21266     21267
     21266     21268     21267     21268     21269     21270     21269     21271
     21270     21271     21272     21273     21272     21274     21273     21274
     21275     21276     21275     21277     21276     21277     21278     21279
     21278     21280     21279     21280     21281     21282     21281     21283
     21282     21283     21284     21285     21284     21286     21285     21286
     21287     21288     21287     21289     21288     21289     21290     21291
     21290     21292     21291     21292     21293     21294     21293     21295
     21294     21295     21296     21297     21296     21298     21297     21298
     21299     21300     21299     21301     21300     21301     21302     21303
     21302     21304     21303     21304     21305     21306     21305     21307
     21306     21307     21308     21309     21308     21310     21309     21310
     21311     21312     21311     21313     21312     21313     21314     21315
     21314     21316     21315     21316     21317     21318     21317     21319
     21318     21319     21320     21321     21320     21322     21321     21322
     21323     21324     21323     21325     21324     21325     21326     21327
     21326     21328     21327     21328     21329     21330     21329     21331
     21330     21331     21332     21333     21332     21334     21333     21334
     21335     21336     21335     21337     21336     21337     21338     21339
     21338     21340     21339     21340     21341     21342     21341     21343
     21342     21343     21344     21345     21344     21346     21345     21346
     21347     21348     21347     21349     21348     21349     21350     21351
     21350     21352     21351     21352     21353     21354     21353     21355
     21354     21355     21356     21357     21356     21358     21357     21358
     21359     21360     21359     21361     21360     21361     21362     21363
     21362     21364     21363     21364     21365     21366     21365     21367
     21366     21367     21368     21369     21368     21370     21369     21370
     21371     21372     21371     21373     21372     21373     21374     21375
     21374     21376     21375     21376     21377     21378     21377     21379
     21378     21379     21380     21381     21380     21382     21381     21382
     21383     21384     21383     21385     21384     21385     21386     21387
     21386     21388     21387     21388     21389     21390     21389     21391
     21390     21391     21392     21393     21392     21394     21393     21394
     21395     21396     21395     21397     21396     21397     21398     21399
     21398     21400     21399     21400     21401     21402     21401     21403
     21402     21403     21404     21405     21404     21406     21405     21406
     21407     21408     21407     21409     21408     21409     21410     21411
     21410     21412     21411     21412     21413     21414     21413     21415
     21414     21415     21416     21417     21416     21418     21417     21418
     21419     21420     21419     21421     21420     21421     21422     21423
     21422     21424     21423     21424     21425     21426     21425     21427
     21426     21427     21428     21429     21428     21430     21429     21430
     21431     21432     21431     21433     21432     21433     21434     21435
     21434     21436     21435     21436     21437     21438     21437     21439
     21438     21439     21440     21441     21440     21442     21441     21442
     21443     21444     21443     21445     21444     21445     21446     21447
     21446     21448     21447     21448     21449     21450     21449     21451
     21450     21451     21452     21453     21452     21454     21453     21454
     21455     21456     21455     21457     21456     21457     21458     21459
     21458     21460     21459     21460     21461     21462     21461     21463
     21462     21463     21464     21465     21464     21466     21465     21466
     21467     21468     21467     21469     21468     21469     21470     21471
     21470     21472     21471     21472     21473     21474     21473     21475
     21474     21475     21476     21477     21476     21478     21477     21478
     21479     21480     21479     21481     21480     21481     21482     21483
     21482     21484     21483     21484     21485     21486     21485     21487
     21486     21487     21488     21489     21488     21490     21489     21490
     21491     21492     21491     21493     21492     21493     21494     21495
     21494     21496     21495     21496     21497     21498     21497     21499
     21498     21499     21500     21501     21500     21502     21501     21502
     21503     21504     21503     21505     21504     21505     21506     21507
     21506     21508     21507     21508     21509     21510     21509     21511
     21510     21511     21512     21513     21512     21514     21513     21514
     21515     21516     21515     21517     21516     21517     21518     21519
     21518     21520     21519     21520     21521     21522     21521     21523
     21522     21523     21524     21525     21524     21526     21525     21526
     21527     21528     21527     21529     21528     21529     21530     21531
     21530     21532     21531     21532     21533     21534     21533     21535
     21534     21535     21536     21537     21536     21538     21537     21538
     21539     21540     21539     21541     21540     21541     21542     21543
     21542     21544     21543     21544     21545     21546     21545     21547
     21546     21547     21548     21549     21548     21550     21549     21550
     21551     21552     21551     21553     21552     21553     21554     21555
     21554     21556     21555     21556     21557     21558     21557     21559
     21558     21559     21560     21561     21560     21562     21561     21562
     21563     21564     21563     21565     21564     21565     21566     21567
     21566     21568     21567     21568     21569     21570     21569     21571
     21570     21571     21572     21573     21572     21574     21573     21574
     21575     21576     21575     21577     21576     21577     21578     21579
     21578     21580     21579     21580     21581     21582     21581     21583
     21582     21583     21584     21585     21584     21586     21585     21586
     21587     21588     21587     21589     21588     21589     21590     21591
     21590     21592     21591     21592     21593     21594     21593     21595
     21594     21595     21596     21597     21596     21598     21597     21598
     21599     21600     21599     21601     21600     21601     21602     21603
     21602     21604     21603     21604     21605     21606     21605     21607
     21606     21607     21608     21609     21608     21610     21609     21610
     21611     21612     21611     21613     21612     21613     21614     21615
     21614     21616     21615     21616     21617     21618     21617     21619
     21618     21619     21620     21621     21620     21622     21621     21622
     21623     21624     21623     21625     21624     21625     21626     21627
     21626     21628     21627     21628     21629     21630     21629     21631
     21630     21631     21632     21633     21632     21634     21633     21634
     21635     21636     21635     21637     21636     21637     21638     21639
     21638     21640     21639     21640     21641     21642     21641     21643
     21642     21643     21644     21645     21644     21646     21645     21646
     21647     21648     21647     21649     21648     21649     21650     21651
     21650     21652     21651     21652     21653     21654     21653     21655
     21654     21655     21656     21657     21656     21658     21657     21658
     21659     21660     21659     21661     21660     21661     21662     21663
     21662     21664     21663     21664     21665     21666     21665     21667
     21666     21667     21668     21669     21668     21670     21669     21670
     21671     21672     21671     21673     21672     21673     21674     21675
     21674     21676     21675     21676     21677     21678     21677     21679
     21678     21679     21680     21681     21680     21682     21681     21682
     21683     21684     21683     21685     21684     21685     21686     21687
     21686     21688     21687     21688     21689     21690     21689     21691
     21690     21691     21692     21693     21692     21694     21693     21694
     21695     21696     21695     21697     21696     21697     21698     21699
     21698     21700     21699     21700     21701     21702     21701     21703
     21702     21703     21704     21705     21704     21706     21705     21706
     21707     21708     21707     21709     21708     21709     21710     21711
     21710     21712     21711     21712     21713     21714     21713     21715
     21714     21715     21716     21717     21716     21718     21717     21718
     21719     21720     21719     21721     21720     21721     21722     21723
     21722     21724     21723     21724     21725     21726     21725     21727
     21726     21727     21728     21729     21728     21730     21729     21730
     21731     21732     21731     21733     21732     21733     21734     21735
     21734     21736     21735     21736     21737     21738     21737     21739
     21738     21739     21740     21741     21740     21742     21741     21742
     21743     21744     21743     21745     21744     21745     21746     21747
     21746     21748     21747     21748     21749     21750     21749     21751
     21750     21751     21752     21753     21752     21754     21753     21754
     21755     21756     21755     21757     21756     21757     21758     21759
     21758     21760     21759     21760     21761     21762     21761     21763
     21762     21763     21764     21765     21764     21766     21765     21766
     21767     21768     21767     21769     21768     21769     21770     21771
     21770     21772     21771     21772     21773     21774     21773     21775
     21774     21775     21776     21777     21776     21778     21777     21778
     21779     21780     21779     21781     21780     21781     21782     21783
     21782     21784     21783     21784     21785     21786     21785     21787
     21786     21787     21788     21789     21788     21790     21789     21790
     21791     21792     21791     21793     21792     21793     21794     21795
     21794     21796     21795     21796     21797     21798     21797     21799
     21798     21799     21800     21801     21800     21802     21801     21802
     21803     21804     21803     21805     21804     21805     21806     21807
     21806     21808     21807     21808     21809     21810     21809     21811
     21810     21811     21812     21813     21812     21814     21813     21814
     21815     21816     21815     21817     21816     21817     21818     21819
     21818     21820     21819     21820     21821     21822     21821     21823
     21822     21823     21824     21825     21824     21826     21825     21826
     21827     21828     21827     21829     21828     21829     21830     21831
     21830     21832     21831     21832     21833     21834     21833     21835
     21834     21835     21836     21837     21836     21838     21837     21838
     21839     21840     21839     21841     21840     21841     21842     21843
     21842     21844     21843     21844     21845     21846     21845     21847
     21846     21847     21848     21849     21848     21850     21849     21850
     21851     21852     21851     21853     21852     21853     21854     21855
     21854     21856     21855     21856     21857     21858     21857     21859
     21858     21859     21860     21861     21860     21862     21861     21862
     21863     21864     21863     21865     21864     21865     21866     21867
     21866     21868     21867     21868     21869     21870     21869     21871
     21870     21871     21872     21873     21872     21874     21873     21874
     21875     21876     21875     21877     21876     21877     21878     21879
     21878     21880     21879     21880     21881     21882     21881     21883
     21882     21883     21884     21885     21884     21886     21885     21886
     21887     21888     21887     21889     21888     21889     21890     21891
     21890     21892     21891     21892     21893     21894     21893     21895
     21894     21895     21896     21897     21896     21898     21897     21898
     21899     21900     21899     21901     21900     21901     21902     21903
     21902     21904     21903     21904     21905     21906     21905     21907
     21906     21907     21908     21909     21908     21910     21909     21910
     21911     21912     21911     21913     21912     21913     21914     21915
     21914     21916     21915     21916     21917     21918     21917     21919
     21918     21919     21920     21921     21920     21922     21921     21922
     21923     21924     21923     21925     21924     21925     21926     21927
     21926     21928     21927     21928     21929     21930     21929     21931
     21930     21931     21932     21933     21932     21934     21933     21934
     21935     21936     21935     21937     21936     21937     21938     21939
     21938     21940     21939     21940     21941     21942     21941     21943
     21942     21943     21944     21945     21944     21946     21945     21946
     21947     21948     21947     21949     21948     21949     21950     21951
     21950     21952     21951     21952     21953     21954     21953     21955
     21954     21955     21956     21957     21956     21958     21957     21958
     21959     21960     21959     21961     21960     21961     21962     21963
     21962     21964     21963     21964     21965     21966     21965     21967
     21966     21967     21968     21969     21968     21970     21969     21970
     21971     21972     21971     21973     21972     21973     21974     21975
     21974     21976     21975     21976     21977     21978     21977     21979
     21978     21979     21980     21981     21980     21982     21981     21982
     21983     21984     21983     21985     21984     21985     21986     21987
     21986     21988     21987     21988     21989     21990     21989     21991
     21990     21991     21992     21993     21992     21994     21993     21994
     21995     21996     21995     21997     21996     21997     21998     21999
     21998     22000     21999     22000     22001     22002     22001     22003
     22002     22003     22004     22005     22004     22006     22005     22006
     22007     22008     22007     22009     22008     22009     22010     22011
     22010     22012     22011     22012     22013     22014     22013     22015
     22014     22015     22016     22017     22016     22018     22017     22018
     22019     22020     22019     22021     22020     22021     22022     22023
     22022     22024     22023     22024     22025     22026     22025     22027
     22026     22027     22028     22029     22028     22030     22029     22030
     22031     22032     22031     22033     22032     22033     22034     22035
     22034     22036     22035     22036     22037     22038     22037     22039
     22038     22039     22040     22041     22040     22042     22041     22042
     22043     22044     22043     22045     22044     22045     22046     22047
     22046     22048     22047     22048     22049     22050     22049     22051
     22050     22051     22052     22053     22052     22054     22053     22054
     22055     22056     22055     22057     22056     22057     22058     22059
     22058     22060     22059     22060     22061     22062     22061     22063
     22062     22063     22064     22065     22064     22066     22065     22066
     22067     22068     22067     22069     22068     22069     22070     22071
     22070     22072     22071     22072     22073     22074     22073     22075
     22074     22075     22076     22077     22076     22078     22077     22078
     22079     22080     22079     22081     22080     22081     22082     22083
     22082     22084     22083     22084     22085     22086     22085     22087
     22086     22087     22088     22089     22088     22090     22089     22090
     22091     22092     22091     22093     22092     22093     22094     22095
     22094     22096     22095     22096     22097     22098     22097     22099
     22098     22099     22100     22101     22100     22102     22101     22102
     22103     22104     22103     22105     22104     22105     22106     22107
     22106     22108     22107     22108     22109     22110     22109     22111
     22110     22111     22112     22113     22112     22114     22113     22114
     22115     22116     22115     22117     22116     22117     22118     22119
     22118     22120     22119     22120     22121     22122     22121     22123
     22122     22123     22124     22125     22124     22126     22125     22126
     22127     22128     22127     22129     22128     22129     22130     22131
     22130     22132     22131     22132     22133     22134     22133     22135
     22134     22135     22136     22137     22136     22138     22137     22138
     22139     22140     22139     22141     22140     22141     22142     22143
     22142     22144     22143     22144     22145     22146     22145     22147
     22146     22147     22148     22149     22148     22150     22149     22150
     22151     22152     22151     22153     22152     22153     22154     22155
     22154     22156     22155     22156     22157     22158     22157     22159
     22158     22159     22160     22161     22160     22162     22161     22162
     22163     22164     22163     22165     22164     22165     22166     22167
     22166     22168     22167     22168     22169     22170     22169     22171
     22170     22171     22172     22173     22172     22174     22173     22174
     22175     22176     22175     22177     22176     22177     22178     22179
     22178     22180     22179     22180     22181     22182     22181     22183
     22182     22183     22184     22185     22184     22186     22185     22186
     22187     22188     22187     22189     22188     22189     22190     22191
     22190     22192     22191     22192     22193     22194     22193     22195
     22194     22195     22196     22197     22196     22198     22197     22198
     22199     22200     22199     22201     22200     22201     22202     22203
     22202     22204     22203     22204     22205     22206     22205     22207
     22206     22207     22208     22209     22208     22210     22209     22210
     22211     22212     22211     22213     22212     22213     22214     22215
     22214     22216     22215     22216     22217     22218     22217     22219
     22218     22219     22220     22221     22220     22222     22221     22222
     22223     22224     22223     22225     22224     22225     22226     22227
     22226     22228     22227     22228     22229     22230     22229     22231
     22230     22231     22232     22233     22232     22234     22233     22234
     22235     22236     22235     22237     22236     22237     22238     22239
     22238     22240     22239     22240     22241     22242     22241     22243
     22242     22243     22244     22245     22244     22246     22245     22246
     22247     22248     22247     22249     22248     22249     22250     22251
     22250     22252     22251     22252     22253     22254     22253     22255
     22254     22255     22256     22257     22256     22258     22257     22258
     22259     22260     22259     22261     22260     22261     22262     22263
     22262     22264     22263     22264     22265     22266     22265     22267
     22266     22267     22268     22269     22268     22270     22269     22270
     22271     22272     22271     22273     22272     22273     22274     22275
     22274     22276     22275     22276     22277     22278     22277     22279
     22278     22279     22280     22281     22280     22282     22281     22282
     22283     22284     22283     22285     22284     22285     22286     22287
     22286     22288     22287     22288     22289     22290     22289     22291
     22290     22291     22292     22293     22292     22294     22293     22294
     22295     22296     22295     22297     22296     22297     22298     22299
     22298     22300     22299     22300     22301     22302     22301     22303
     22302     22303     22304     22305     22304     22306     22305     22306
     22307     22308     22307     22309     22308     22309     22310     22311
     22310     22312     22311     22312     22313     22314     22313     22315
     22314     22315     22316     22317     22316     22318     22317     22318
     22319     22320     22319     22321     22320     22321     22322     22323
     22322     22324     22323     22324     22325     22326     22325     22327
     22326     22327     22328     22329     22328     22330     22329     22330
     22331     22332     22331     22333     22332     22333     22334     22335
     22334     22336     22335     22336     22337     22338     22337     22339
     22338     22339     22340     22341     22340     22342     22341     22342
     22343     22344     22343     22345     22344     22345     22346     22347
     22346     22348     22347     22348     22349     22350     22349     22351
     22350     22351     22352     22353     22352     22354     22353     22354
     22355     22356     22355     22357     22356     22357     22358     22359
     22358     22360     22359     22360     22361     22362     22361     22363
     22362     22363     22364     22365     22364     22366     22365     22366
     22367     22368     22367     22369     22368     22369     22370     22371
     22370     22372     22371     22372     22373     22374     22373     22375
     22374     22375     22376     22377     22376     22378     22377     22378
     22379     22380     22379     22381     22380     22381     22382     22383
     22382     22384     22383     22384     22385     22386     22385     22387
     22386     22387     22388     22389     22388     22390     22389     22390
     22391     22392     22391     22393     22392     22393     22394     22395
     22394     22396     22395     22396     22397     22398     22397     22399
     22398     22399     22400     22401     22400     22402     22401     22402
     22403     22404     22403     22405     22404     22405     22406     22407
     22406     22408     22407     22408     22409     22410     22409     22411
     22410     22411     22412     22413     22412     22414     22413     22414
     22415     22416     22415     22417     22416     22417     22418     22419
     22418     22420     22419     22420     22421     22422     22421     22423
     22422     22423     22424     22425     22424     22426     22425     22426
     22427     22428     22427     22429     22428     22429     22430     22431
     22430     22432     22431     22432     22433     22434     22433     22435
     22434     22435     22436     22437     22436     22438     22437     22438
     22439     22440     22439     22441     22440     22441     22442     22443
     22442     22444     22443     22444     22445     22446     22445     22447
     22446     22447     22448     22449     22448     22450     22449     22450
     22451     22452     22451     22453     22452     22453     22454     22455
     22454     22456     22455     22456     22457     22458     22457     22459
     22458     22459     22460     22461     22460     22462     22461     22462
     22463     22464     22463     22465     22464     22465     22466     22467
     22466     22468     22467     22468     22469     22470     22469     22471
     22470     22471     22472     22473     22472     22474     22473     22474
     22475     22476     22475     22477     22476     22477     22478     22479
     22478     22480     22479     22480     22481     22482     22481     22483
     22482     22483     22484     22485     22484     22486     22485     22486
     22487     22488     22487     22489     22488     22489     22490     22491
     22490     22492     22491     22492     22493     22494     22493     22495
     22494     22495     22496     22497     22496     22498     22497     22498
     22499     22500     22499     22501     22500     22501     22502     22503
     22502     22504     22503     22504     22505     22506     22505     22507
     22506     22507     22508     22509     22508     22510     22509     22510
     22511     22512     22511     22513     22512     22513     22514     22515
     22514     22516     22515     22516     22517     22518     22517     22519
     22518     22519     22520     22521     22520     22522     22521     22522
     22523     22524     22523     22525     22524     22525     22526     22527
     22526     22528     22527     22528     22529     22530     22529     22531
     22530     22531     22532     22533     22532     22534     22533     22534
     22535     22536     22535     22537     22536     22537     22538     22539
     22538     22540     22539     22540     22541     22542     22541     22543
     22542     22543     22544     22545     22544     22546     22545     22546
     22547     22548     22547     22549     22548     22549     22550     22551
     22550     22552     22551     22552     22553     22554     22553     22555
     22554     22555     22556     22557     22556     22558     22557     22558
     22559     22560     22559     22561     22560     22561     22562     22563
     22562     22564     22563     22564     22565     22566     22565     22567
     22566     22567     22568     22569     22568     22570     22569     22570
     22571     22572     22571     22573     22572     22573     22574     22575
     22574     22576     22575     22576     22577     22578     22577     22579
     22578     22579     22580     22581     22580     22582     22581     22582
     22583     22584     22583     22585     22584     22585     22586     22587
     22586     22588     22587     22588     22589     22590     22589     22591
     22590     22591     22592     22593     22592     22594     22593     22594
     22595     22596     22595     22597     22596     22597     22598     22599
     22598     22600     22599     22600     22601     22602     22601     22603
     22602     22603     22604     22605     22604     22606     22605     22606
     22607     22608     22607     22609     22608     22609     22610     22611
     22610     22612     22611     22612     22613     22614     22613     22615
     22614     22615     22616     22617     22616     22618     22617     22618
     22619     22620     22619     22621     22620     22621     22622     22623
     22622     22624     22623     22624     22625     22626     22625     22627
     22626     22627     22628     22629     22628     22630     22629     22630
     22631     22632     22631     22633     22632     22633     22634     22635
     22634     22636     22635     22636     22637     22638     22637     22639
     22638     22639     22640     22641     22640     22642     22641     22642
     22643     22644     22643     22645     22644     22645     22646     22647
     22646     22648     22647     22648     22649     22650     22649     22651
     22650     22651     22652     22653     22652     22654     22653     22654
     22655     22656     22655     22657     22656     22657     22658     22659
     22658     22660     22659     22660     22661     22662     22661     22663
     22662     22663     22664     22665     22664     22666     22665     22666
     22667     22668     22667     22669     22668     22669     22670     22671
     22670     22672     22671     22672     22673     22674     22673     22675
     22674     22675     22676     22677     22676     22678     22677     22678
     22679     22680     22679     22681     22680     22681     22682     22683
     22682     22684     22683     22684     22685     22686     22685     22687
     22686     22687     22688     22689     22688     22690     22689     22690
     22691     22692     22691     22693     22692     22693     22694     22695
     22694     22696     22695     22696     22697     22698     22697     22699
     22698     22699     22700     22701     22700     22702     22701     22702
     22703     22704     22703     22705     22704     22705     22706     22707
     22706     22708     22707     22708     22709     22710     22709     22711
     22710     22711     22712     22713     22712     22714     22713     22714
     22715     22716     22715     22717     22716     22717     22718     22719
     22718     22720     22719     22720     22721     22722     22721     22723
     22722     22723     22724     22725     22724     22726     22725     22726
     22727     22728     22727     22729     22728     22729     22730     22731
     22730     22732     22731     22732     22733     22734     22733     22735
     22734     22735     22736     22737     22736     22738     22737     22738
     22739     22740     22739     22741     22740     22741     22742     22743
     22742     22744     22743     22744     22745     22746     22745     22747
     22746     22747     22748     22749     22748     22750     22749     22750
     22751     22752     22751     22753     22752     22753     22754     22755
     22754     22756     22755     22756     22757     22758     22757     22759
     22758     22759     22760     22761     22760     22762     22761     22762
     22763     22764     22763     22765     22764     22765     22766     22767
     22766     22768     22767     22768     22769     22770     22769     22771
     22770     22771     22772     22773     22772     22774     22773     22774
     22775     22776     22775     22777     22776     22777     22778     22779
     22778     22780     22779     22780     22781     22782     22781     22783
     22782     22783     22784     22785     22784     22786     22785     22786
     22787     22788     22787     22789     22788     22789     22790     22791
     22790     22792     22791     22792     22793     22794     22793     22795
     22794     22795     22796     22797     22796     22798     22797     22798
     22799     22800     22799     22801     22800     22801     22802     22803
     22802     22804     22803     22804     22805     22806     22805     22807
     22806     22807     22808     22809     22808     22810     22809     22810
     22811     22812     22811     22813     22812     22813     22814     22815
     22814     22816     22815     22816     22817     22818     22817     22819
     22818     22819     22820     22821     22820     22822     22821     22822
     22823     22824     22823     22825     22824     22825     22826     22827
     22826     22828     22827     22828     22829     22830     22829     22831
     22830     22831     22832     22833     22832     22834     22833     22834
     22835     22836     22835     22837     22836     22837     22838     22839
     22838     22840     22839     22840     22841     22842     22841     22843
     22842     22843     22844     22845     22844     22846     22845     22846
     22847     22848     22847     22849     22848     22849     22850     22851
     22850     22852     22851     22852     22853     22854     22853     22855
     22854     22855     22856     22857     22856     22858     22857     22858
     22859     22860     22859     22861     22860     22861     22862     22863
     22862     22864     22863     22864     22865     22866     22865     22867
     22866     22867     22868     22869     22868     22870     22869     22870
     22871     22872     22871     22873     22872     22873     22874     22875
     22874     22876     22875     22876     22877     22878     22877     22879
     22878     22879     22880     22881     22880     22882     22881     22882
     22883     22884     22883     22885     22884     22885     22886     22887
     22886     22888     22887     22888     22889     22890     22889     22891
     22890     22891     22892     22893     22892     22894     22893     22894
     22895     22896     22895     22897     22896     22897     22898     22899
     22898     22900     22899     22900     22901     22902     22901     22903
     22902     22903     22904     22905     22904     22906     22905     22906
     22907     22908     22907     22909     22908     22909     22910     22911
     22910     22912     22911     22912     22913     22914     22913     22915
     22914     22915     22916     22917     22916     22918     22917     22918
     22919     22920     22919     22921     22920     22921     22922     22923
     22922     22924     22923     22924     22925     22926     22925     22927
     22926     22927     22928     22929     22928     22930     22929     22930
     22931     22932     22931     22933     22932     22933     22934     22935
     22934     22936     22935     22936     22937     22938     22937     22939
     22938     22939     22940     22941     22940     22942     22941     22942
     22943     22944     22943     22945     22944     22945     22946     22947
     22946     22948     22947     22948     22949     22950     22949     22951
     22950     22951     22952     22953     22952     22954     22953     22954
     22955     22956     22955     22957     22956     22957     22958     22959
     22958     22960     22959     22960     22961     22962     22961     22963
     22962     22963     22964     22965     22964     22966     22965     22966
     22967     22968     22967     22969     22968     22969     22970     22971
     22970     22972     22971     22972     22973     22974     22973     22975
     22974     22975     22976     22977     22976     22978     22977     22978
     22979     22980     22979     22981     22980     22981     22982     22983
     22982     22984     22983     22984     22985     22986     22985     22987
     22986     22987     22988     22989     22988     22990     22989     22990
     22991     22992     22991     22993     22992     22993     22994     22995
     22994     22996     22995     22996     22997     22998     22997     22999
     22998     22999     23000     23001     23000     23002     23001     23002
     23003     23004     23003     23005     23004     23005     23006     23007
     23006     23008     23007     23008     23009     23010     23009     23011
     23010     23011     23012     23013     23012     23014     23013     23014
     23015     23016     23015     23017     23016     23017     23018     23019
     23018     23020     23019     23020     23021     23022     23021     23023
     23022     23023     23024     23025     23024     23026     23025     23026
     23027     23028     23027     23029     23028     23029     23030     23031
     23030     23032     23031     23032     23033     23034     23033     23035
     23034     23035     23036     23037     23036     23038     23037     23038
     23039     23040     23039     23041     23040     23041     23042     23043
     23042     23044     23043     23044     23045     23046     23045     23047
     23046     23047     23048     23049     23048     23050     23049     23050
     23051     23052     23051     23053     23052     23053     23054     23055
     23054     23056     23055     23056     23057     23058     23057     23059
     23058     23059     23060     23061     23060     23062     23061     23062
     23063     23064     23063     23065     23064     23065     23066     23067
     23066     23068     23067     23068     23069     23070     23069     23071
     23070     23071     23072     23073     23072     23074     23073     23074
     23075     23076     23075     23077     23076     23077     23078     23079
     23078     23080     23079     23080     23081     23082     23081     23083
     23082     23083     23084     23085     23084     23086     23085     23086
     23087     23088     23087     23089     23088     23089     23090     23091
     23090     23092     23091     23092     23093     23094     23093     23095
     23094     23095     23096     23097     23096     23098     23097     23098
     23099     23100     23099     23101     23100     23101     23102     23103
     23102     23104     23103     23104     23105     23106     23105     23107
     23106     23107     23108     23109     23108     23110     23109     23110
     23111     23112     23111     23113     23112     23113     23114     23115
     23114     23116     23115     23116     23117     23118     23117     23119
     23118     23119     23120     23121     23120     23122     23121     23122
     23123     23124     23123     23125     23124     23125     23126     23127
     23126     23128     23127     23128     23129     23130     23129     23131
     23130     23131     23132     23133     23132     23134     23133     23134
     23135     23136     23135     23137     23136     23137     23138     23139
     23138     23140     23139     23140     23141     23142     23141     23143
     23142     23143     23144     23145     23144     23146     23145     23146
     23147     23148     23147     23149     23148     23149     23150     23151
     23150     23152     23151     23152     23153     23154     23153     23155
     23154     23155     23156     23157     23156     23158     23157     23158
     23159     23160     23159     23161     23160     23161     23162     23163
     23162     23164     23163     23164     23165     23166     23165     23167
     23166     23167     23168     23169     23168     23170     23169     23170
     23171     23172     23171     23173     23172     23173     23174     23175
     23174     23176     23175     23176     23177     23178     23177     23179
     23178     23179     23180     23181     23180     23182     23181     23182
     23183     23184     23183     23185     23184     23185     23186     23187
     23186     23188     23187     23188     23189     23190     23189     23191
     23190     23191     23192     23193     23192     23194     23193     23194
     23195     23196     23195     23197     23196     23197     23198     23199
     23198     23200     23199     23200     23201     23202     23201     23203
     23202     23203     23204     23205     23204     23206     23205     23206
     23207     23208     23207     23209     23208     23209     23210     23211
     23210     23212     23211     23212     23213     23214     23213     23215
     23214     23215     23216     23217     23216     23218     23217     23218
     23219     23220     23219     23221     23220     23221     23222     23223
     23222     23224     23223     23224     23225     23226     23225     23227
     23226     23227     23228     23229     23228     23230     23229     23230
     23231     23232     23231     23233     23232     23233     23234     23235
     23234     23236     23235     23236     23237     23238     23237     23239
     23238     23239     23240     23241     23240     23242     23241     23242
     23243     23244     23243     23245     23244     23245     23246     23247
     23246     23248     23247     23248     23249     23250     23249     23251
     23250     23251     23252     23253     23252     23254     23253     23254
     23255     23256     23255     23257     23256     23257     23258     23259
     23258     23260     23259     23260     23261     23262     23261     23263
     23262     23263     23264     23265     23264     23266     23265     23266
     23267     23268     23267     23269     23268     23269     23270     23271
     23270     23272     23271     23272     23273     23274     23273     23275
     23274     23275     23276     23277     23276     23278     23277     23278
     23279     23280     23279     23281     23280     23281     23282     23283
     23282     23284     23283     23284     23285     23286     23285     23287
     23286     23287     23288     23289     23288     23290     23289     23290
     23291     23292     23291     23293     23292     23293     23294     23295
     23294     23296     23295     23296     23297     23298     23297     23299
     23298     23299     23300     23301     23300     23302     23301     23302
     23303     23304     23303     23305     23304     23305     23306     23307
     23306     23308     23307     23308     23309     23310     23309     23311
     23310     23311     23312     23313     23312     23314     23313     23314
     23315     23316     23315     23317     23316     23317     23318     23319
     23318     23320     23319     23320     23321     23322     23321     23323
     23322     23323     23324     23325     23324     23326     23325     23326
     23327     23328     23327     23329     23328     23329     23330     23331
     23330     23332     23331     23332     23333     23334     23333     23335
     23334     23335     23336     23337     23336     23338     23337     23338
     23339     23340     23339     23341     23340     23341     23342     23343
     23342     23344     23343     23344     23345     23346     23345     23347
     23346     23347     23348     23349     23348     23350     23349     23350
     23351     23352     23351     23353     23352     23353     23354     23355
     23354     23356     23355     23356     23357     23358     23357     23359
     23358     23359     23360     23361     23360     23362     23361     23362
     23363     23364     23363     23365     23364     23365     23366     23367
     23366     23368     23367     23368     23369     23370     23369     23371
     23370     23371     23372     23373     23372     23374     23373     23374
     23375     23376     23375     23377     23376     23377     23378     23379
     23378     23380     23379     23380     23381     23382     23381     23383
     23382     23383     23384     23385     23384     23386     23385     23386
     23387     23388     23387     23389     23388     23389     23390     23391
     23390     23392     23391     23392     23393     23394     23393     23395
     23394     23395     23396     23397     23396     23398     23397     23398
     23399     23400     23399     23401     23400     23401     23402     23403
     23402     23404     23403     23404     23405     23406     23405     23407
     23406     23407     23408     23409     23408     23410     23409     23410
     23411     23412     23411     23413     23412     23413     23414     23415
     23414     23416     23415     23416     23417     23418     23417     23419
     23418     23419     23420     23421     23420     23422     23421     23422
     23423     23424     23423     23425     23424     23425     23426     23427
     23426     23428     23427     23428     23429     23430     23429     23431
     23430     23431     23432     23433     23432     23434     23433     23434
     23435     23436     23435     23437     23436     23437     23438     23439
     23438     23440     23439     23440     23441     23442     23441     23443
     23442     23443     23444     23445     23444     23446     23445     23446
     23447     23448     23447     23449     23448     23449     23450     23451
     23450     23452     23451     23452     23453     23454     23453     23455
     23454     23455     23456     23457     23456     23458     23457     23458
     23459     23460     23459     23461     23460     23461     23462     23463
     23462     23464     23463     23464     23465     23466     23465     23467
     23466     23467     23468     23469     23468     23470     23469     23470
     23471     23472     23471     23473     23472     23473     23474     23475
     23474     23476     23475     23476     23477     23478     23477     23479
     23478     23479     23480     23481     23480     23482     23481     23482
     23483     23484     23483     23485     23484     23485     23486     23487
     23486     23488     23487     23488     23489     23490     23489     23491
     23490     23491     23492     23493     23492     23494     23493     23494
     23495     23496     23495     23497     23496     23497     23498     23499
     23498     23500     23499     23500     23501     23502     23501     23503
     23502     23503     23504     23505     23504     23506     23505     23506
     23507     23508     23507     23509     23508     23509     23510     23511
     23510     23512     23511     23512     23513     23514     23513     23515
     23514     23515     23516     23517     23516     23518     23517     23518
     23519     23520     23519     23521     23520     23521     23522     23523
     23522     23524     23523     23524     23525     23526     23525     23527
     23526     23527     23528     23529     23528     23530     23529     23530
     23531     23532     23531     23533     23532     23533     23534     23535
     23534     23536     23535     23536     23537     23538     23537     23539
     23538     23539     23540     23541     23540     23542     23541     23542
     23543     23544     23543     23545     23544     23545     23546     23547
     23546     23548     23547     23548     23549     23550     23549     23551
     23550     23551     23552     23553     23552     23554     23553     23554
     23555     23556     23555     23557     23556     23557     23558     23559
     23558     23560     23559     23560     23561     23562     23561     23563
     23562     23563     23564     23565     23564     23566     23565     23566
     23567     23568     23567     23569     23568     23569     23570     23571
     23570     23572     23571     23572     23573     23574     23573     23575
     23574     23575     23576     23577     23576     23578     23577     23578
     23579     23580     23579     23581     23580     23581     23582     23583
     23582     23584     23583     23584     23585     23586     23585     23587
     23586     23587     23588     23589     23588     23590     23589     23590
     23591     23592     23591     23593     23592     23593     23594     23595
     23594     23596     23595     23596     23597     23598     23597     23599
     23598     23599     23600     23601     23600     23602     23601     23602
     23603     23604     23603     23605     23604     23605     23606     23607
     23606     23608     23607     23608     23609     23610     23609     23611
     23610     23611     23612     23613     23612     23614     23613     23614
     23615     23616     23615     23617     23616     23617     23618     23619
     23618     23620     23619     23620     23621     23622     23621     23623
     23622     23623     23624     23625     23624     23626     23625     23626
     23627     23628     23627     23629     23628     23629     23630     23631
     23630     23632     23631     23632     23633     23634     23633     23635
     23634     23635     23636     23637     23636     23638     23637     23638
     23639     23640     23639     23641     23640     23641     23642     23643
     23642     23644     23643     23644     23645     23646     23645     23647
     23646     23647     23648     23649     23648     23650     23649     23650
     23651     23652     23651     23653     23652     23653     23654     23655
     23654     23656     23655     23656     23657     23658     23657     23659
     23658     23659     23660     23661     23660     23662     23661     23662
     23663     23664     23663     23665     23664     23665     23666     23667
     23666     23668     23667     23668     23669     23670     23669     23671
     23670     23671     23672     23673     23672     23674     23673     23674
     23675     23676     23675     23677     23676     23677     23678     23679
     23678     23680     23679     23680     23681     23682     23681     23683
     23682     23683     23684     23685     23684     23686     23685     23686
     23687     23688     23687     23689     23688     23689     23690     23691
     23690     23692     23691     23692     23693     23694     23693     23695
     23694     23695     23696     23697     23696     23698     23697     23698
     23699     23700     23699     23701     23700     23701     23702     23703
     23702     23704     23703     23704     23705     23706     23705     23707
     23706     23707     23708     23709     23708     23710     23709     23710
     23711     23712     23711     23713     23712     23713     23714     23715
     23714     23716     23715     23716     23717     23718     23717     23719
     23718     23719     23720     23721     23720     23722     23721     23722
     23723     23724     23723     23725     23724     23725     23726     23727
     23726     23728     23727     23728     23729     23730     23729     23731
     23730     23731     23732     23733     23732     23734     23733     23734
     23735     23736     23735     23737     23736     23737     23738     23739
     23738     23740     23739     23740     23741     23742     23741     23743
     23742     23743     23744     23745     23744     23746     23745     23746
     23747     23748     23747     23749     23748     23749     23750     23751
     23750     23752     23751     23752     23753     23754     23753     23755
     23754     23755     23756     23757     23756     23758     23757     23758
     23759     23760     23759     23761     23760     23761     23762     23763
     23762     23764     23763     23764     23765     23766     23765     23767
     23766     23767     23768     23769     23768     23770     23769     23770
     23771     23772     23771     23773     23772     23773     23774     23775
     23774     23776     23775     23776     23777     23778     23777     23779
     23778     23779     23780     23781     23780     23782     23781     23782
     23783     23784     23783     23785     23784     23785     23786     23787
     23786     23788     23787     23788     23789     23790     23789     23791
     23790     23791     23792     23793     23792     23794     23793     23794
     23795     23796     23795     23797     23796     23797     23798     23799
     23798     23800     23799     23800     23801     23802     23801     23803
     23802     23803     23804     23805     23804     23806     23805     23806
     23807     23808     23807     23809     23808     23809     23810     23811
     23810     23812     23811     23812     23813     23814     23813     23815
     23814     23815     23816     23817     23816     23818     23817     23818
     23819     23820     23819     23821     23820     23821     23822     23823
     23822     23824     23823     23824     23825     23826     23825     23827
     23826     23827     23828     23829     23828     23830     23829     23830
     23831     23832     23831     23833     23832     23833     23834     23835
     23834     23836     23835     23836     23837     23838     23837     23839
     23838     23839     23840     23841     23840     23842     23841     23842
     23843     23844     23843     23845     23844     23845     23846     23847
     23846     23848     23847     23848     23849     23850     23849     23851
     23850     23851     23852     23853     23852     23854     23853     23854
     23855     23856     23855     23857     23856     23857     23858     23859
     23858     23860     23859     23860     23861     23862     23861     23863
     23862     23863     23864     23865     23864     23866     23865     23866
     23867     23868     23867     23869     23868     23869     23870     23871
     23870     23872     23871     23872     23873     23874     23873     23875
     23874     23875     23876     23877     23876     23878     23877     23878
     23879     23880     23879     23881     23880     23881     23882     23883
     23882     23884     23883     23884     23885     23886     23885     23887
     23886     23887     23888     23889     23888     23890     23889     23890
     23891     23892     23891     23893     23892     23893     23894     23895
     23894     23896     23895     23896     23897     23898     23897     23899
     23898     23899     23900     23901     23900     23902     23901     23902
     23903     23904     23903     23905     23904     23905     23906     23907
     23906     23908     23907     23908     23909     23910     23909     23911
     23910     23911     23912     23913     23912     23914     23913     23914
     23915     23916     23915     23917     23916     23917     23918     23919
     23918     23920     23919     23920     23921     23922     23921     23923
     23922     23923     23924     23925     23924     23926     23925     23926
     23927     23928     23927     23929     23928     23929     23930     23931
     23930     23932     23931     23932     23933     23934     23933     23935
     23934     23935     23936     23937     23936     23938     23937     23938
     23939     23940     23939     23941     23940     23941     23942     23943
     23942     23944     23943     23944     23945     23946     23945     23947
     23946     23947     23948     23949     23948     23950     23949     23950
     23951     23952     23951     23953     23952     23953     23954     23955
     23954     23956     23955     23956     23957     23958     23957     23959
     23958     23959     23960     23961     23960     23962     23961     23962
     23963     23964     23963     23965     23964     23965     23966     23967
     23966     23968     23967     23968     23969     23970     23969     23971
     23970     23971     23972     23973     23972     23974     23973     23974
     23975     23976     23975     23977     23976     23977     23978     23979
     23978     23980     23979     23980     23981     23982     23981     23983
     23982     23983     23984     23985     23984     23986     23985     23986
     23987     23988     23987     23989     23988     23989     23990     23991
     23990     23992     23991     23992     23993     23994     23993     23995
     23994     23995     23996     23997     23996     23998     23997     23998
     23999     24000     23999     24001     24000     24001     24002     24003
     24002     24004     24003     24004     24005     24006     24005     24007
     24006     24007     24008     24009     24008     24010     24009     24010
     24011     24012     24011     24013     24012     24013     24014     24015
     24014     24016     24015     24016     24017     24018     24017     24019
     24018     24019     24020     24021     24020     24022     24021     24022
     24023     24024     24023     24025     24024     24025     24026     24027
     24026     24028     24027     24028     24029     24030     24029     24031
     24030     24031     24032     24033     24032     24034     24033     24034
     24035     24036     24035     24037     24036     24037     24038     24039
     24038     24040     24039     24040     24041     24042     24041     24043
     24042     24043     24044     24045     24044     24046     24045     24046
     24047     24048     24047     24049     24048     24049     24050     24051
     24050     24052     24051     24052     24053     24054     24053     24055
     24054     24055     24056     24057     24056     24058     24057     24058
     24059     24060     24059     24061     24060     24061     24062     24063
     24062     24064     24063     24064     24065     24066     24065     24067
     24066     24067     24068     24069     24068     24070     24069     24070
     24071     24072     24071     24073     24072     24073     24074     24075
     24074     24076     24075     24076     24077     24078     24077     24079
     24078     24079     24080     24081     24080     24082     24081     24082
     24083     24084     24083     24085     24084     24085     24086     24087
     24086     24088     24087     24088     24089     24090     24089     24091
     24090     24091     24092     24093     24092     24094     24093     24094
     24095     24096     24095     24097     24096     24097     24098     24099
     24098     24100     24099     24100     24101     24102     24101     24103
     24102     24103     24104     24105     24104     24106     24105     24106
     24107     24108     24107     24109     24108     24109     24110     24111
     24110     24112     24111     24112     24113     24114     24113     24115
     24114     24115     24116     24117     24116     24118     24117     24118
     24119     24120     24119     24121     24120     24121     24122     24123
     24122     24124     24123     24124     24125     24126     24125     24127
     24126     24127     24128     24129     24128     24130     24129     24130
     24131     24132     24131     24133     24132     24133     24134     24135
     24134     24136     24135     24136     24137     24138     24137     24139
     24138     24139     24140     24141     24140     24142     24141     24142
     24143     24144     24143     24145     24144     24145     24146     24147
     24146     24148     24147     24148     24149     24150     24149     24151
     24150     24151     24152     24153     24152     24154     24153     24154
     24155     24156     24155     24157     24156     24157     24158     24159
     24158     24160     24159     24160     24161     24162     24161     24163
     24162     24163     24164     24165     24164     24166     24165     24166
     24167     24168     24167     24169     24168     24169     24170     24171
     24170     24172     24171     24172     24173     24174     24173     24175
     24174     24175     24176     24177     24176     24178     24177     24178
     24179     24180     24179     24181     24180     24181     24182     24183
     24182     24184     24183     24184     24185     24186     24185     24187
     24186     24187     24188     24189     24188     24190     24189     24190
     24191     24192     24191     24193     24192     24193     24194     24195
     24194     24196     24195     24196     24197     24198     24197     24199
     24198     24199     24200     24201     24200     24202     24201     24202
     24203     24204     24203     24205     24204     24205     24206     24207
     24206     24208     24207     24208     24209     24210     24209     24211
     24210     24211     24212     24213     24212     24214     24213     24214
     24215     24216     24215     24217     24216     24217     24218     24219
     24218     24220     24219     24220     24221     24222     24221     24223
     24222     24223     24224     24225     24224     24226     24225     24226
     24227     24228     24227     24229     24228     24229     24230     24231
     24230     24232     24231     24232     24233     24234     24233     24235
     24234     24235     24236     24237     24236     24238     24237     24238
     24239     24240     24239     24241     24240     24241     24242     24243
     24242     24244     24243     24244     24245     24246     24245     24247
     24246     24247     24248     24249     24248     24250     24249     24250
     24251     24252     24251     24253     24252     24253     24254     24255
     24254     24256     24255     24256     24257     24258     24257     24259
     24258     24259     24260     24261     24260     24262     24261     24262
     24263     24264     24263     24265     24264     24265     24266     24267
     24266     24268     24267     24268     24269     24270     24269     24271
     24270     24271     24272     24273     24272     24274     24273     24274
     24275     24276     24275     24277     24276     24277     24278     24279
     24278     24280     24279     24280     24281     24282     24281     24283
     24282     24283     24284     24285     24284     24286     24285     24286
     24287     24288     24287     24289     24288     24289     24290     24291
     24290     24292     24291     24292     24293     24294     24293     24295
     24294     24295     24296     24297     24296     24298     24297     24298
     24299     24300     24299     24301     24300     24301     24302     24303
     24302     24304     24303     24304     24305     24306     24305     24307
     24306     24307     24308     24309     24308     24310     24309     24310
     24311     24312     24311     24313     24312     24313     24314     24315
     24314     24316     24315     24316     24317     24318     24317     24319
     24318     24319     24320     24321     24320     24322     24321     24322
     24323     24324     24323     24325     24324     24325     24326     24327
     24326     24328     24327     24328     24329     24330     24329     24331
     24330     24331     24332     24333     24332     24334     24333     24334
     24335     24336     24335     24337     24336     24337     24338     24339
     24338     24340     24339     24340     24341     24342     24341     24343
     24342     24343     24344     24345     24344     24346     24345     24346
     24347     24348     24347     24349     24348     24349     24350     24351
     24350     24352     24351     24352     24353     24354     24353     24355
     24354     24355     24356     24357     24356     24358     24357     24358
     24359     24360     24359     24361     24360     24361     24362     24363
     24362     24364     24363     24364     24365     24366     24365     24367
     24366     24367     24368     24369     24368     24370     24369     24370
     24371     24372     24371     24373     24372     24373     24374     24375
     24374     24376     24375     24376     24377     24378     24377     24379
     24378     24379     24380     24381     24380     24382     24381     24382
     24383     24384     24383     24385     24384     24385     24386     24387
     24386     24388     24387     24388     24389     24390     24389     24391
     24390     24391     24392     24393     24392     24394     24393     24394
     24395     24396     24395     24397     24396     24397     24398     24399
     24398     24400     24399     24400     24401     24402     24401     24403
     24402     24403     24404     24405     24404     24406     24405     24406
     24407     24408     24407     24409     24408     24409     24410     24411
     24410     24412     24411     24412     24413     24414     24413     24415
     24414     24415     24416     24417     24416     24418     24417     24418
     24419     24420     24419     24421     24420     24421     24422     24423
     24422     24424     24423     24424     24425     24426     24425     24427
     24426     24427     24428     24429     24428     24430     24429     24430
     24431     24432     24431     24433     24432     24433     24434     24435
     24434     24436     24435     24436     24437     24438     24437     24439
     24438     24439     24440     24441     24440     24442     24441     24442
     24443     24444     24443     24445     24444     24445     24446     24447
     24446     24448     24447     24448     24449     24450     24449     24451
     24450     24451     24452     24453     24452     24454     24453     24454
     24455     24456     24455     24457     24456     24457     24458     24459
     24458     24460     24459     24460     24461     24462     24461     24463
     24462     24463     24464     24465     24464     24466     24465     24466
     24467     24468     24467     24469     24468     24469     24470     24471
     24470     24472     24471     24472     24473     24474     24473     24475
     24474     24475     24476     24477     24476     24478     24477     24478
     24479     24480     24479     24481     24480     24481     24482     24483
     24482     24484     24483     24484     24485     24486     24485     24487
     24486     24487     24488     24489     24488     24490     24489     24490
     24491     24492     24491     24493     24492     24493     24494     24495
     24494     24496     24495     24496     24497     24498     24497     24499
     24498     24499     24500     24501     24500     24502     24501     24502
     24503     24504     24503     24505     24504     24505     24506     24507
     24506     24508     24507     24508     24509     24510     24509     24511
     24510     24511     24512     24513     24512     24514     24513     24514
     24515     24516     24515     24517     24516     24517     24518     24519
     24518     24520     24519     24520     24521     24522     24521     24523
     24522     24523     24524     24525     24524     24526     24525     24526
     24527     24528     24527     24529     24528     24529     24530     24531
     24530     24532     24531     24532     24533     24534     24533     24535
     24534     24535     24536     24537     24536     24538     24537     24538
     24539     24540     24539     24541     24540     24541     24542     24543
     24542     24544     24543     24544     24545     24546     24545     24547
     24546     24547     24548     24549     24548     24550     24549     24550
     24551     24552     24551     24553     24552     24553     24554     24555
     24554     24556     24555     24556     24557     24558     24557     24559
     24558     24559     24560     24561     24560     24562     24561     24562
     24563     24564     24563     24565     24564     24565     24566     24567
     24566     24568     24567     24568     24569     24570     24569     24571
     24570     24571     24572     24573     24572     24574     24573     24574
     24575     24576     24575     24577     24576     24577     24578     24579
     24578     24580     24579     24580     24581     24582     24581     24583
     24582     24583     24584     24585     24584     24586     24585     24586
     24587     24588     24587     24589     24588     24589     24590     24591
     24590     24592     24591     24592     24593     24594     24593     24595
     24594     24595     24596     24597     24596     24598     24597     24598
     24599     24600     24599     24601     24600     24601     24602     24603
     24602     24604     24603     24604     24605     24606     24605     24607
     24606     24607     24608     24609     24608     24610     24609     24610
     24611     24612     24611     24613     24612     24613     24614     24615
     24614     24616     24615     24616     24617     24618     24617     24619
     24618     24619     24620     24621     24620     24622     24621     24622
     24623     24624     24623     24625     24624     24625     24626     24627
     24626     24628     24627     24628     24629     24630     24629     24631
     24630     24631     24632     24633     24632     24634     24633     24634
     24635     24636     24635     24637     24636     24637     24638     24639
     24638     24640     24639     24640     24641     24642     24641     24643
     24642     24643     24644     24645     24644     24646     24645     24646
     24647     24648     24647     24649     24648     24649     24650     24651
     24650     24652     24651     24652     24653     24654     24653     24655
     24654     24655     24656     24657     24656     24658     24657     24658
     24659     24660     24659     24661     24660     24661     24662     24663
     24662     24664     24663     24664     24665     24666     24665     24667
     24666     24667     24668     24669     24668     24670     24669     24670
     24671     24672     24671     24673     24672     24673     24674     24675
     24674     24676     24675     24676     24677     24678     24677     24679
     24678     24679     24680     24681     24680     24682     24681     24682
     24683     24684     24683     24685     24684     24685     24686     24687
     24686     24688     24687     24688     24689     24690     24689     24691
     24690     24691     24692     24693     24692     24694     24693     24694
     24695     24696     24695     24697     24696     24697     24698     24699
     24698     24700     24699     24700     24701     24702     24701     24703
     24702     24703     24704     24705     24704     24706     24705     24706
     24707     24708     24707     24709     24708     24709     24710     24711
     24710     24712     24711     24712     24713     24714     24713     24715
     24714     24715     24716     24717     24716     24718     24717     24718
     24719     24720     24719     24721     24720     24721     24722     24723
     24722     24724     24723     24724     24725     24726     24725     24727
     24726     24727     24728     24729     24728     24730     24729     24730
     24731     24732     24731     24733     24732     24733     24734     24735
     24734     24736     24735     24736     24737     24738     24737     24739
     24738     24739     24740     24741     24740     24742     24741     24742
     24743     24744     24743     24745     24744     24745     24746     24747
     24746     24748     24747     24748     24749     24750     24749     24751
     24750     24751     24752     24753     24752     24754     24753     24754
     24755     24756     24755     24757     24756     24757     24758     24759
     24758     24760     24759     24760     24761     24762     24761     24763
     24762     24763     24764     24765     24764     24766     24765     24766
     24767     24768     24767     24769     24768     24769     24770     24771
     24770     24772     24771     24772     24773     24774     24773     24775
     24774     24775     24776     24777     24776     24778     24777     24778
     24779     24780     24779     24781     24780     24781     24782     24783
     24782     24784     24783     24784     24785     24786     24785     24787
     24786     24787     24788     24789     24788     24790     24789     24790
     24791     24792     24791     24793     24792     24793     24794     24795
     24794     24796     24795     24796     24797     24798     24797     24799
     24798     24799     24800     24801     24800     24802     24801     24802
     24803     24804     24803     24805     24804     24805     24806     24807
     24806     24808     24807     24808     24809     24810     24809     24811
     24810     24811     24812     24813     24812     24814     24813     24814
     24815     24816     24815     24817     24816     24817     24818     24819
     24818     24820     24819     24820     24821     24822     24821     24823
     24822     24823     24824     24825     24824     24826     24825     24826
     24827     24828     24827     24829     24828     24829     24830     24831
     24830     24832     24831     24832     24833     24834     24833     24835
     24834     24835     24836     24837     24836     24838     24837     24838
     24839     24840     24839     24841     24840     24841     24842     24843
     24842     24844     24843     24844     24845     24846     24845     24847
     24846     24847     24848     24849     24848     24850     24849     24850
     24851     24852     24851     24853     24852     24853     24854     24855
     24854     24856     24855     24856     24857     24858     24857     24859
     24858     24859     24860     24861     24860     24862     24861     24862
     24863     24864     24863     24865     24864     24865     24866     24867
     24866     24868     24867     24868     24869     24870     24869     24871
     24870     24871     24872     24873     24872     24874     24873     24874
     24875     24876     24875     24877     24876     24877     24878     24879
     24878     24880     24879     24880     24881     24882     24881     24883
     24882     24883     24884     24885     24884     24886     24885     24886
     24887     24888     24887     24889     24888     24889     24890     24891
     24890     24892     24891     24892     24893     24894     24893     24895
     24894     24895     24896     24897     24896     24898     24897     24898
     24899     24900     24899     24901     24900     24901     24902     24903
     24902     24904     24903     24904     24905     24906     24905     24907
     24906     24907     24908     24909     24908     24910     24909     24910
     24911     24912     24911     24913     24912     24913     24914     24915
     24914     24916     24915     24916     24917     24918     24917     24919
     24918     24919     24920     24921     24920     24922     24921     24922
     24923     24924     24923     24925     24924     24925     24926     24927
     24926     24928     24927     24928     24929     24930     24929     24931
     24930     24931     24932     24933     24932     24934     24933     24934
     24935     24936     24935     24937     24936     24937     24938     24939
     24938     24940     24939     24940     24941     24942     24941     24943
     24942     24943     24944     24945     24944     24946     24945     24946
     24947     24948     24947     24949     24948     24949     24950     24951
     24950     24952     24951     24952     24953     24954     24953     24955
     24954     24955     24956     24957     24956     24958     24957     24958
     24959     24960     24959     24961     24960     24961     24962     24963
     24962     24964     24963     24964     24965     24966     24965     24967
     24966     24967     24968     24969     24968     24970     24969     24970
     24971     24972     24971     24973     24972     24973     24974     24975
     24974     24976     24975     24976     24977     24978     24977     24979
     24978     24979     24980     24981     24980     24982     24981     24982
     24983     24984     24983     24985     24984     24985     24986     24987
     24986     24988     24987     24988     24989     24990     24989     24991
     24990     24991     24992     24993     24992     24994     24993     24994
     24995     24996     24995     24997     24996     24997     24998     24999
     24998     25000     24999     25000     25001     25002     25001     25003
     25002     25003     25004     25005     25004     25006     25005     25006
     25007     25008     25007     25009     25008     25009     25010     25011
     25010     25012     25011     25012     25013     25014     25013     25015
     25014     25015     25016     25017     25016     25018     25017     25018
     25019     25020     25019     25021     25020     25021     25022     25023
     25022     25024     25023     25024     25025     25026     25025     25027
     25026     25027     25028     25029     25028     25030     25029     25030
     25031     25032     25031     25033     25032     25033     25034     25035
     25034     25036     25035     25036     25037     25038     25037     25039
     25038     25039     25040     25041     25040     25042     25041     25042
     25043     25044     25043     25045     25044     25045     25046     25047
     25046     25048     25047     25048     25049     25050     25049     25051
     25050     25051     25052     25053     25052     25054     25053     25054
     25055     25056     25055     25057     25056     25057     25058     25059
     25058     25060     25059     25060     25061     25062     25061     25063
     25062     25063     25064     25065     25064     25066     25065     25066
     25067     25068     25067     25069     25068     25069     25070     25071
     25070     25072     25071     25072     25073     25074     25073     25075
     25074     25075     25076     25077     25076     25078     25077     25078
     25079     25080     25079     25081     25080     25081     25082     25083
     25082     25084     25083     25084     25085     25086     25085     25087
     25086     25087     25088     25089     25088     25090     25089     25090
     25091     25092     25091     25093     25092     25093     25094     25095
     25094     25096     25095     25096     25097     25098     25097     25099
     25098     25099     25100     25101     25100     25102     25101     25102
     25103     25104     25103     25105     25104     25105     25106     25107
     25106     25108     25107     25108     25109     25110     25109     25111
     25110     25111     25112     25113     25112     25114     25113     25114
     25115     25116     25115     25117     25116     25117     25118     25119
     25118     25120     25119     25120     25121     25122     25121     25123
     25122     25123     25124     25125     25124     25126     25125     25126
     25127     25128     25127     25129     25128     25129     25130     25131
     25130     25132     25131     25132     25133     25134     25133     25135
     25134     25135     25136     25137     25136     25138     25137     25138
     25139     25140     25139     25141     25140     25141     25142     25143
     25142     25144     25143     25144     25145     25146     25145     25147
     25146     25147     25148     25149     25148     25150     25149     25150
     25151     25152     25151     25153     25152     25153     25154     25155
     25154     25156     25155     25156     25157     25158     25157     25159
     25158     25159     25160     25161     25160     25162     25161     25162
     25163     25164     25163     25165     25164     25165     25166     25167
     25166     25168     25167     25168     25169     25170     25169     25171
     25170     25171     25172     25173     25172     25174     25173     25174
     25175     25176     25175     25177     25176     25177     25178     25179
     25178     25180     25179     25180     25181     25182     25181     25183
     25182     25183     25184     25185     25184     25186     25185     25186
     25187     25188     25187     25189     25188     25189     25190     25191
     25190     25192     25191     25192     25193     25194     25193     25195
     25194     25195     25196     25197     25196     25198     25197     25198
     25199     25200     25199     25201     25200     25201     25202     25203
     25202     25204     25203     25204     25205     25206     25205     25207
     25206     25207     25208     25209     25208     25210     25209     25210
     25211     25212     25211     25213     25212     25213     25214     25215
     25214     25216     25215     25216     25217     25218     25217     25219
     25218     25219     25220     25221     25220     25222     25221     25222
     25223     25224     25223     25225     25224     25225     25226     25227
     25226     25228     25227     25228     25229     25230     25229     25231
     25230     25231     25232     25233     25232     25234     25233     25234
     25235     25236     25235     25237     25236     25237     25238     25239
     25238     25240     25239     25240     25241     25242     25241     25243
     25242     25243     25244     25245     25244     25246     25245     25246
     25247     25248     25247     25249     25248     25249     25250     25251
     25250     25252     25251     25252     25253     25254     25253     25255
     25254     25255     25256     25257     25256     25258     25257     25258
     25259     25260     25259     25261     25260     25261     25262     25263
     25262     25264     25263     25264     25265     25266     25265     25267
     25266     25267     25268     25269     25268     25270     25269     25270
     25271     25272     25271     25273     25272     25273     25274     25275
     25274     25276     25275     25276     25277     25278     25277     25279
     25278     25279     25280     25281     25280     25282     25281     25282
     25283     25284     25283     25285     25284     25285     25286     25287
     25286     25288     25287     25288     25289     25290     25289     25291
     25290     25291     25292     25293     25292     25294     25293     25294
     25295     25296     25295     25297     25296     25297     25298     25299
     25298     25300     25299     25300     25301     25302     25301     25303
     25302     25303     25304     25305     25304     25306     25305     25306
     25307     25308     25307     25309     25308     25309     25310     25311
     25310     25312     25311     25312     25313     25314     25313     25315
     25314     25315     25316     25317     25316     25318     25317     25318
     25319     25320     25319     25321     25320     25321     25322     25323
     25322     25324     25323     25324     25325     25326     25325     25327
     25326     25327     25328     25329     25328     25330     25329     25330
     25331     25332     25331     25333     25332     25333     25334     25335
     25334     25336     25335     25336     25337     25338     25337     25339
     25338     25339     25340     25341     25340     25342     25341     25342
     25343     25344     25343     25345     25344     25345     25346     25347
     25346     25348     25347     25348     25349     25350     25349     25351
     25350     25351     25352     25353     25352     25354     25353     25354
     25355     25356     25355     25357     25356     25357     25358     25359
     25358     25360     25359     25360     25361     25362     25361     25363
     25362     25363     25364     25365     25364     25366     25365     25366
     25367     25368     25367     25369     25368     25369     25370     25371
     25370     25372     25371     25372     25373     25374     25373     25375
     25374     25375     25376     25377     25376     25378     25377     25378
     25379     25380     25379     25381     25380     25381     25382     25383
     25382     25384     25383     25384     25385     25386     25385     25387
     25386     25387     25388     25389     25388     25390     25389     25390
     25391     25392     25391     25393     25392     25393     25394     25395
     25394     25396     25395     25396     25397     25398     25397     25399
     25398     25399     25400     25401     25400     25402     25401     25402
     25403     25404     25403     25405     25404     25405     25406     25407
     25406     25408     25407     25408     25409     25410     25409     25411
     25410     25411     25412     25413     25412     25414     25413     25414
     25415     25416     25415     25417     25416     25417     25418     25419
     25418     25420     25419     25420     25421     25422     25421     25423
     25422     25423     25424     25425     25424     25426     25425     25426
     25427     25428     25427     25429     25428     25429     25430     25431
     25430     25432     25431     25432     25433     25434     25433     25435
     25434     25435     25436     25437     25436     25438     25437     25438
     25439     25440     25439     25441     25440     25441     25442     25443
     25442     25444     25443     25444     25445     25446     25445     25447
     25446     25447     25448     25449     25448     25450     25449     25450
     25451     25452     25451     25453     25452     25453     25454     25455
     25454     25456     25455     25456     25457     25458     25457     25459
     25458     25459     25460     25461     25460     25462     25461     25462
     25463     25464     25463     25465     25464     25465     25466     25467
     25466     25468     25467     25468     25469     25470     25469     25471
     25470     25471     25472     25473     25472     25474     25473     25474
     25475     25476     25475     25477     25476     25477     25478     25479
     25478     25480     25479     25480     25481     25482     25481     25483
     25482     25483     25484     25485     25484     25486     25485     25486
     25487     25488     25487     25489     25488     25489     25490     25491
     25490     25492     25491     25492     25493     25494     25493     25495
     25494     25495     25496     25497     25496     25498     25497     25498
     25499     25500     25499     25501     25500     25501     25502     25503
     25502     25504     25503     25504     25505     25506     25505     25507
     25506     25507     25508     25509     25508     25510     25509     25510
     25511     25512     25511     25513     25512     25513     25514     25515
     25514     25516     25515     25516     25517     25518     25517     25519
     25518     25519     25520     25521     25520     25522     25521     25522
     25523     25524     25523     25525     25524     25525     25526     25527
     25526     25528     25527     25528     25529     25530     25529     25531
     25530     25531     25532     25533     25532     25534     25533     25534
     25535     25536     25535     25537     25536     25537     25538     25539
     25538     25540     25539     25540     25541     25542     25541     25543
     25542     25543     25544     25545     25544     25546     25545     25546
     25547     25548     25547     25549     25548     25549     25550     25551
     25550     25552     25551     25552     25553     25554     25553     25555
     25554     25555     25556     25557     25556     25558     25557     25558
     25559     25560     25559     25561     25560     25561     25562     25563
     25562     25564     25563     25564     25565     25566     25565     25567
     25566     25567     25568     25569     25568     25570     25569     25570
     25571     25572     25571     25573     25572     25573     25574     25575
     25574     25576     25575     25576     25577     25578     25577     25579
     25578     25579     25580     25581     25580     25582     25581     25582
     25583     25584     25583     25585     25584     25585     25586     25587
     25586     25588     25587     25588     25589     25590     25589     25591
     25590     25591     25592     25593     25592     25594     25593     25594
     25595     25596     25595     25597     25596     25597     25598     25599
     25598     25600     25599     25600     25601     25602     25601     25603
     25602     25603     25604     25605     25604     25606     25605     25606
     25607     25608     25607     25609     25608     25609     25610     25611
     25610     25612     25611     25612     25613     25614     25613     25615
     25614     25615     25616     25617     25616     25618     25617     25618
     25619     25620     25619     25621     25620     25621     25622     25623
     25622     25624     25623     25624     25625     25626     25625     25627
     25626     25627     25628     25629     25628     25630     25629     25630
     25631     25632     25631     25633     25632     25633     25634     25635
     25634     25636     25635     25636     25637     25638     25637     25639
     25638     25639     25640     25641     25640     25642     25641     25642
     25643     25644     25643     25645     25644     25645     25646     25647
     25646     25648     25647     25648     25649     25650     25649     25651
     25650     25651     25652     25653     25652     25654     25653     25654
     25655     25656     25655     25657     25656     25657     25658     25659
     25658     25660     25659     25660     25661     25662     25661     25663
     25662     25663     25664     25665     25664     25666     25665     25666
     25667     25668     25667     25669     25668     25669     25670     25671
     25670     25672     25671     25672     25673     25674     25673     25675
     25674     25675     25676     25677     25676     25678     25677     25678
     25679     25680     25679     25681     25680     25681     25682     25683
     25682     25684     25683     25684     25685     25686     25685     25687
     25686     25687     25688     25689     25688     25690     25689     25690
     25691     25692     25691     25693     25692     25693     25694     25695
     25694     25696     25695     25696     25697     25698     25697     25699
     25698     25699     25700     25701     25700     25702     25701     25702
     25703     25704     25703     25705     25704     25705     25706     25707
     25706     25708     25707     25708     25709     25710     25709     25711
     25710     25711     25712     25713     25712     25714     25713     25714
     25715     25716     25715     25717     25716     25717     25718     25719
     25718     25720     25719     25720     25721     25722     25721     25723
     25722     25723     25724     25725     25724     25726     25725     25726
     25727     25728     25727     25729     25728     25729     25730     25731
     25730     25732     25731     25732     25733     25734     25733     25735
     25734     25735     25736     25737     25736     25738     25737     25738
     25739     25740     25739     25741     25740     25741     25742     25743
     25742     25744     25743     25744     25745     25746     25745     25747
     25746     25747     25748     25749     25748     25750     25749     25750
     25751     25752     25751     25753     25752     25753     25754     25755
     25754     25756     25755     25756     25757     25758     25757     25759
     25758     25759     25760     25761     25760     25762     25761     25762
     25763     25764     25763     25765     25764     25765     25766     25767
     25766     25768     25767     25768     25769     25770     25769     25771
     25770     25771     25772     25773     25772     25774     25773     25774
     25775     25776     25775     25777     25776     25777     25778     25779
     25778     25780     25779     25780     25781     25782     25781     25783
     25782     25783     25784     25785     25784     25786     25785     25786
     25787     25788     25787     25789     25788     25789     25790     25791
     25790     25792     25791     25792     25793     25794     25793     25795
     25794     25795     25796     25797     25796     25798     25797     25798
     25799     25800     25799     25801     25800     25801     25802     25803
     25802     25804     25803     25804     25805     25806     25805     25807
     25806     25807     25808     25809     25808     25810     25809     25810
     25811     25812     25811     25813     25812     25813     25814     25815
     25814     25816     25815     25816     25817     25818     25817     25819
     25818     25819     25820     25821     25820     25822     25821     25822
     25823     25824     25823     25825     25824     25825     25826     25827
     25826     25828     25827     25828     25829     25830     25829     25831
     25830     25831     25832     25833     25832     25834     25833     25834
     25835     25836     25835     25837     25836     25837     25838     25839
     25838     25840     25839     25840     25841     25842     25841     25843
     25842     25843     25844     25845     25844     25846     25845     25846
     25847     25848     25847     25849     25848     25849     25850     25851
     25850     25852     25851     25852     25853     25854     25853     25855
     25854     25855     25856     25857     25856     25858     25857     25858
     25859     25860     25859     25861     25860     25861     25862     25863
     25862     25864     25863     25864     25865     25866     25865     25867
     25866     25867     25868     25869     25868     25870     25869     25870
     25871     25872     25871     25873     25872     25873     25874     25875
     25874     25876     25875     25876     25877     25878     25877     25879
     25878     25879     25880     25881     25880     25882     25881     25882
     25883     25884     25883     25885     25884     25885     25886     25887
     25886     25888     25887     25888     25889     25890     25889     25891
     25890     25891     25892     25893     25892     25894     25893     25894
     25895     25896     25895     25897     25896     25897     25898     25899
     25898     25900     25899     25900     25901     25902     25901     25903
     25902     25903     25904     25905     25904     25906     25905     25906
     25907     25908     25907     25909     25908     25909     25910     25911
     25910     25912     25911     25912     25913     25914     25913     25915
     25914     25915     25916     25917     25916     25918     25917     25918
     25919     25920     25919     25921     25920     25921     25922     25923
     25922     25924     25923     25924     25925     25926     25925     25927
     25926     25927     25928     25929     25928     25930     25929     25930
     25931     25932     25931     25933     25932     25933     25934     25935
     25934     25936     25935     25936     25937     25938     25937     25939
     25938     25939     25940     25941     25940     25942     25941     25942
     25943     25944     25943     25945     25944     25945     25946     25947
     25946     25948     25947     25948     25949     25950     25949     25951
     25950     25951     25952     25953     25952     25954     25953     25954
     25955     25956     25955     25957     25956     25957     25958     25959
     25958     25960     25959     25960     25961     25962     25961     25963
     25962     25963     25964     25965     25964     25966     25965     25966
     25967     25968     25967     25969     25968     25969     25970     25971
     25970     25972     25971     25972     25973     25974     25973     25975
     25974     25975     25976     25977     25976     25978     25977     25978
     25979     25980     25979     25981     25980     25981     25982     25983
     25982     25984     25983     25984     25985     25986     25985     25987
     25986     25987     25988     25989     25988     25990     25989     25990
     25991     25992     25991     25993     25992     25993     25994     25995
     25994     25996     25995     25996     25997     25998     25997     25999
     25998     25999     26000     26001     26000     26002     26001     26002
     26003     26004     26003     26005     26004     26005     26006     26007
     26006     26008     26007     26008     26009     26010     26009     26011
     26010     26011     26012     26013     26012     26014     26013     26014
     26015     26016     26015     26017     26016     26017     26018     26019
     26018     26020     26019     26020     26021     26022     26021     26023
     26022     26023     26024     26025     26024     26026     26025     26026
     26027     26028     26027     26029     26028     26029     26030     26031
     26030     26032     26031     26032     26033     26034     26033     26035
     26034     26035     26036     26037     26036     26038     26037     26038
     26039     26040     26039     26041     26040     26041     26042     26043
     26042     26044     26043     26044     26045     26046     26045     26047
     26046     26047     26048     26049     26048     26050     26049     26050
     26051     26052     26051     26053     26052     26053     26054     26055
     26054     26056     26055     26056     26057     26058     26057     26059
     26058     26059     26060     26061     26060     26062     26061     26062
     26063     26064     26063     26065     26064     26065     26066     26067
     26066     26068     26067     26068     26069     26070     26069     26071
     26070     26071     26072     26073     26072     26074     26073     26074
     26075     26076     26075     26077     26076     26077     26078     26079
     26078     26080     26079     26080     26081     26082     26081     26083
     26082     26083     26084     26085     26084     26086     26085     26086
     26087     26088     26087     26089     26088     26089     26090     26091
     26090     26092     26091     26092     26093     26094     26093     26095
     26094     26095     26096     26097     26096     26098     26097     26098
     26099     26100     26099     26101     26100     26101     26102     26103
     26102     26104     26103     26104     26105     26106     26105     26107
     26106     26107     26108     26109     26108     26110     26109     26110
     26111     26112     26111     26113     26112     26113     26114     26115
     26114     26116     26115     26116     26117     26118     26117     26119
     26118     26119     26120     26121     26120     26122     26121     26122
     26123     26124     26123     26125     26124     26125     26126     26127
     26126     26128     26127     26128     26129     26130     26129     26131
     26130     26131     26132     26133     26132     26134     26133     26134
     26135     26136     26135     26137     26136     26137     26138     26139
     26138     26140     26139     26140     26141     26142     26141     26143
     26142     26143     26144     26145     26144     26146     26145     26146
     26147     26148     26147     26149     26148     26149     26150     26151
     26150     26152     26151     26152     26153     26154     26153     26155
     26154     26155     26156     26157     26156     26158     26157     26158
     26159     26160     26159     26161     26160     26161     26162     26163
     26162     26164     26163     26164     26165     26166     26165     26167
     26166     26167     26168     26169     26168     26170     26169     26170
     26171     26172     26171     26173     26172     26173     26174     26175
     26174     26176     26175     26176     26177     26178     26177     26179
     26178     26179     26180     26181     26180     26182     26181     26182
     26183     26184     26183     26185     26184     26185     26186     26187
     26186     26188     26187     26188     26189     26190     26189     26191
     26190     26191     26192     26193     26192     26194     26193     26194
     26195     26196     26195     26197     26196     26197     26198     26199
     26198     26200     26199     26200     26201     26202     26201     26203
     26202     26203     26204     26205     26204     26206     26205     26206
     26207     26208     26207     26209     26208     26209     26210     26211
     26210     26212     26211     26212     26213     26214     26213     26215
     26214     26215     26216     26217     26216     26218     26217     26218
     26219     26220     26219     26221     26220     26221     26222     26223
     26222     26224     26223     26224     26225     26226     26225     26227
     26226     26227     26228     26229     26228     26230     26229     26230
     26231     26232     26231     26233     26232     26233     26234     26235
     26234     26236     26235     26236     26237     26238     26237     26239
     26238     26239     26240     26241     26240     26242     26241     26242
     26243     26244     26243     26245     26244     26245     26246     26247
     26246     26248     26247     26248     26249     26250     26249     26251
     26250     26251     26252     26253     26252     26254     26253     26254
     26255     26256     26255     26257     26256     26257     26258     26259
     26258     26260     26259     26260     26261     26262     26261     26263
     26262     26263     26264     26265     26264     26266     26265     26266
     26267     26268     26267     26269     26268     26269     26270     26271
     26270     26272     26271     26272     26273     26274     26273     26275
     26274     26275     26276     26277     26276     26278     26277     26278
     26279     26280     26279     26281     26280     26281     26282     26283
     26282     26284     26283     26284     26285     26286     26285     26287
     26286     26287     26288     26289     26288     26290     26289     26290
     26291     26292     26291     26293     26292     26293     26294     26295
     26294     26296     26295     26296     26297     26298     26297     26299
     26298     26299     26300     26301     26300     26302     26301     26302
     26303     26304     26303     26305     26304     26305     26306     26307
     26306     26308     26307     26308     26309     26310     26309     26311
     26310     26311     26312     26313     26312     26314     26313     26314
     26315     26316     26315     26317     26316     26317     26318     26319
     26318     26320     26319     26320     26321     26322     26321     26323
     26322     26323     26324     26325     26324     26326     26325     26326
     26327     26328     26327     26329     26328     26329     26330     26331
     26330     26332     26331     26332     26333     26334     26333     26335
     26334     26335     26336     26337     26336     26338     26337     26338
     26339     26340     26339     26341     26340     26341     26342     26343
     26342     26344     26343     26344     26345     26346     26345     26347
     26346     26347     26348     26349     26348     26350     26349     26350
     26351     26352     26351     26353     26352     26353     26354     26355
     26354     26356     26355     26356     26357     26358     26357     26359
     26358     26359     26360     26361     26360     26362     26361     26362
     26363     26364     26363     26365     26364     26365     26366     26367
     26366     26368     26367     26368     26369     26370     26369     26371
     26370     26371     26372     26373     26372     26374     26373     26374
     26375     26376     26375     26377     26376     26377     26378     26379
     26378     26380     26379     26380     26381     26382     26381     26383
     26382     26383     26384     26385     26384     26386     26385     26386
     26387     26388     26387     26389     26388     26389     26390     26391
     26390     26392     26391     26392     26393     26394     26393     26395
     26394     26395     26396     26397     26396     26398     26397     26398
     26399     26400     26399     26401     26400     26401     26402     26403
     26402     26404     26403     26404     26405     26406     26405     26407
     26406     26407     26408     26409     26408     26410     26409     26410
     26411     26412     26411     26413     26412     26413     26414     26415
     26414     26416     26415     26416     26417     26418     26417     26419
     26418     26419     26420     26421     26420     26422     26421     26422
     26423     26424     26423     26425     26424     26425     26426     26427
     26426     26428     26427     26428     26429     26430     26429     26431
     26430     26431     26432     26433     26432     26434     26433     26434
     26435     26436     26435     26437     26436     26437     26438     26439
     26438     26440     26439     26440     26441     26442     26441     26443
     26442     26443     26444     26445     26444     26446     26445     26446
     26447     26448     26447     26449     26448     26449     26450     26451
     26450     26452     26451     26452     26453     26454     26453     26455
     26454     26455     26456     26457     26456     26458     26457     26458
     26459     26460     26459     26461     26460     26461     26462     26463
     26462     26464     26463     26464     26465     26466     26465     26467
     26466     26467     26468     26469     26468     26470     26469     26470
     26471     26472     26471     26473     26472     26473     26474     26475
     26474     26476     26475     26476     26477     26478     26477     26479
     26478     26479     26480     26481     26480     26482     26481     26482
     26483     26484     26483     26485     26484     26485     26486     26487
     26486     26488     26487     26488     26489     26490     26489     26491
     26490     26491     26492     26493     26492     26494     26493     26494
     26495     26496     26495     26497     26496     26497     26498     26499
     26498     26500     26499     26500     26501     26502     26501     26503
     26502     26503     26504     26505     26504     26506     26505     26506
     26507     26508     26507     26509     26508     26509     26510     26511
     26510     26512     26511     26512     26513     26514     26513     26515
     26514     26515     26516     26517     26516     26518     26517     26518
     26519     26520     26519     26521     26520     26521     26522     26523
     26522     26524     26523     26524     26525     26526     26525     26527
     26526     26527     26528     26529     26528     26530     26529     26530
     26531     26532     26531     26533     26532     26533     26534     26535
     26534     26536     26535     26536     26537     26538     26537     26539
     26538     26539     26540     26541     26540     26542     26541     26542
     26543     26544     26543     26545     26544     26545     26546     26547
     26546     26548     26547     26548     26549     26550     26549     26551
     26550     26551     26552     26553     26552     26554     26553     26554
     26555     26556     26555     26557     26556     26557     26558     26559
     26558     26560     26559     26560     26561     26562     26561     26563
     26562     26563     26564     26565     26564     26566     26565     26566
     26567     26568     26567     26569     26568     26569     26570     26571
     26570     26572     26571     26572     26573     26574     26573     26575
     26574     26575     26576     26577     26576     26578     26577     26578
     26579     26580     26579     26581     26580     26581     26582     26583
     26582     26584     26583     26584     26585     26586     26585     26587
     26586     26587     26588     26589     26588     26590     26589     26590
     26591     26592     26591     26593     26592     26593     26594     26595
     26594     26596     26595     26596     26597     26598     26597     26599
     26598     26599     26600     26601     26600     26602     26601     26602
     26603     26604     26603     26605     26604     26605     26606     26607
     26606     26608     26607     26608     26609     26610     26609     26611
     26610     26611     26612     26613     26612     26614     26613     26614
     26615     26616     26615     26617     26616     26617     26618     26619
     26618     26620     26619     26620     26621     26622     26621     26623
     26622     26623     26624     26625     26624     26626     26625     26626
     26627     26628     26627     26629     26628     26629     26630     26631
     26630     26632     26631     26632     26633     26634     26633     26635
     26634     26635     26636     26637     26636     26638     26637     26638
     26639     26640     26639     26641     26640     26641     26642     26643
     26642     26644     26643     26644     26645     26646     26645     26647
     26646     26647     26648     26649     26648     26650     26649     26650
     26651     26652     26651     26653     26652     26653     26654     26655
     26654     26656     26655     26656     26657     26658     26657     26659
     26658     26659     26660     26661     26660     26662     26661     26662
     26663     26664     26663     26665     26664     26665     26666     26667
     26666     26668     26667     26668     26669     26670     26669     26671
     26670     26671     26672     26673     26672     26674     26673     26674
     26675     26676     26675     26677     26676     26677     26678     26679
     26678     26680     26679     26680     26681     26682     26681     26683
     26682     26683     26684     26685     26684     26686     26685     26686
     26687     26688     26687     26689     26688     26689     26690     26691
     26690     26692     26691     26692     26693     26694     26693     26695
     26694     26695     26696     26697     26696     26698     26697     26698
     26699     26700     26699     26701     26700     26701     26702     26703
     26702     26704     26703     26704     26705     26706     26705     26707
     26706     26707     26708     26709     26708     26710     26709     26710
     26711     26712     26711     26713     26712     26713     26714     26715
     26714     26716     26715     26716     26717     26718     26717     26719
     26718     26719     26720     26721     26720     26722     26721     26722
     26723     26724     26723     26725     26724     26725     26726     26727
     26726     26728     26727     26728     26729     26730     26729     26731
     26730     26731     26732     26733     26732     26734     26733     26734
     26735     26736     26735     26737     26736     26737     26738     26739
     26738     26740     26739     26740     26741     26742     26741     26743
     26742     26743     26744     26745     26744     26746     26745     26746
     26747     26748     26747     26749     26748     26749     26750     26751
     26750     26752     26751     26752     26753     26754     26753     26755
     26754     26755     26756     26757     26756     26758     26757     26758
     26759     26760     26759     26761     26760     26761     26762     26763
     26762     26764     26763     26764     26765     26766     26765     26767
     26766     26767     26768     26769     26768     26770     26769     26770
     26771     26772     26771     26773     26772     26773     26774     26775
     26774     26776     26775     26776     26777     26778     26777     26779
     26778     26779     26780     26781     26780     26782     26781     26782
     26783     26784     26783     26785     26784     26785     26786     26787
     26786     26788     26787     26788     26789     26790     26789     26791
     26790     26791     26792     26793     26792     26794     26793     26794
     26795     26796     26795     26797     26796     26797     26798     26799
     26798     26800     26799     26800     26801     26802     26801     26803
     26802     26803     26804     26805     26804     26806     26805     26806
     26807     26808     26807     26809     26808     26809     26810     26811
     26810     26812     26811     26812     26813     26814     26813     26815
     26814     26815     26816     26817     26816     26818     26817     26818
     26819     26820     26819     26821     26820     26821     26822     26823
     26822     26824     26823     26824     26825     26826     26825     26827
     26826     26827     26828     26829     26828     26830     26829     26830
     26831     26832     26831     26833     26832     26833     26834     26835
     26834     26836     26835     26836     26837     26838     26837     26839
     26838     26839     26840     26841     26840     26842     26841     26842
     26843     26844     26843     26845     26844     26845     26846     26847
     26846     26848     26847     26848     26849     26850     26849     26851
     26850     26851     26852     26853     26852     26854     26853     26854
     26855     26856     26855     26857     26856     26857     26858     26859
     26858     26860     26859     26860     26861     26862     26861     26863
     26862     26863     26864     26865     26864     26866     26865     26866
     26867     26868     26867     26869     26868     26869     26870     26871
     26870     26872     26871     26872     26873     26874     26873     26875
     26874     26875     26876     26877     26876     26878     26877     26878
     26879     26880     26879     26881     26880     26881     26882     26883
     26882     26884     26883     26884     26885     26886     26885     26887
     26886     26887     26888     26889     26888     26890     26889     26890
     26891     26892     26891     26893     26892     26893     26894     26895
     26894     26896     26895     26896     26897     26898     26897     26899
     26898     26899     26900     26901     26900     26902     26901     26902
     26903     26904     26903     26905     26904     26905     26906     26907
     26906     26908     26907     26908     26909     26910     26909     26911
     26910     26911     26912     26913     26912     26914     26913     26914
     26915     26916     26915     26917     26916     26917     26918     26919
     26918     26920     26919     26920     26921     26922     26921     26923
     26922     26923     26924     26925     26924     26926     26925     26926
     26927     26928     26927     26929     26928     26929     26930     26931
     26930     26932     26931     26932     26933     26934     26933     26935
     26934     26935     26936     26937     26936     26938     26937     26938
     26939     26940     26939     26941     26940     26941     26942     26943
     26942     26944     26943     26944     26945     26946     26945     26947
     26946     26947     26948     26949     26948     26950     26949     26950
     26951     26952     26951     26953     26952     26953     26954     26955
     26954     26956     26955     26956     26957     26958     26957     26959
     26958     26959     26960     26961     26960     26962     26961     26962
     26963     26964     26963     26965     26964     26965     26966     26967
     26966     26968     26967     26968     26969     26970     26969     26971
     26970     26971     26972     26973     26972     26974     26973     26974
     26975     26976     26975     26977     26976     26977     26978     26979
     26978     26980     26979     26980     26981     26982     26981     26983
     26982     26983     26984     26985     26984     26986     26985     26986
     26987     26988     26987     26989     26988     26989     26990     26991
     26990     26992     26991     26992     26993     26994     26993     26995
     26994     26995     26996     26997     26996     26998     26997     26998
     26999     27000     26999     27001     27000     27001     27002     27003
     27002     27004     27003     27004     27005     27006     27005     27007
     27006     27007     27008     27009     27008     27010     27009     27010
     27011     27012     27011     27013     27012     27013     27014     27015
     27014     27016     27015     27016     27017     27018     27017     27019
     27018     27019     27020     27021     27020     27022     27021     27022
     27023     27024     27023     27025     27024     27025     27026     27027
     27026     27028     27027     27028     27029     27030     27029     27031
     27030     27031     27032     27033     27032     27034     27033     27034
     27035     27036     27035     27037     27036     27037     27038     27039
     27038     27040     27039     27040     27041     27042     27041     27043
     27042     27043     27044     27045     27044     27046     27045     27046
     27047     27048     27047     27049     27048     27049     27050     27051
     27050     27052     27051     27052     27053     27054     27053     27055
     27054     27055     27056     27057     27056     27058     27057     27058
     27059     27060     27059     27061     27060     27061     27062     27063
     27062     27064     27063     27064     27065     27066     27065     27067
     27066     27067     27068     27069     27068     27070     27069     27070
     27071     27072     27071     27073     27072     27073     27074     27075
     27074     27076     27075     27076     27077     27078     27077     27079
     27078     27079     27080     27081     27080     27082     27081     27082
     27083     27084     27083     27085     27084     27085     27086     27087
     27086     27088     27087     27088     27089     27090     27089     27091
     27090     27091     27092     27093     27092     27094     27093     27094
     27095     27096     27095     27097     27096     27097     27098     27099
     27098     27100     27099     27100     27101     27102     27101     27103
     27102     27103     27104     27105     27104     27106     27105     27106
     27107     27108     27107     27109     27108     27109     27110     27111
     27110     27112     27111     27112     27113     27114     27113     27115
     27114     27115     27116     27117     27116     27118     27117     27118
     27119     27120     27119     27121     27120     27121     27122     27123
     27122     27124     27123     27124     27125     27126     27125     27127
     27126     27127     27128     27129     27128     27130     27129     27130
     27131     27132     27131     27133     27132     27133     27134     27135
     27134     27136     27135     27136     27137     27138     27137     27139
     27138     27139     27140     27141     27140     27142     27141     27142
     27143     27144     27143     27145     27144     27145     27146     27147
     27146     27148     27147     27148     27149     27150     27149     27151
     27150     27151     27152     27153     27152     27154     27153     27154
     27155     27156     27155     27157     27156     27157     27158     27159
     27158     27160     27159     27160     27161     27162     27161     27163
     27162     27163     27164     27165     27164     27166     27165     27166
     27167     27168     27167     27169     27168     27169     27170     27171
     27170     27172     27171     27172     27173     27174     27173     27175
     27174     27175     27176     27177     27176     27178     27177     27178
     27179     27180     27179     27181     27180     27181     27182     27183
     27182     27184     27183     27184     27185     27186     27185     27187
     27186     27187     27188     27189     27188     27190     27189     27190
     27191     27192     27191     27193     27192     27193     27194     27195
     27194     27196     27195     27196     27197     27198     27197     27199
     27198     27199     27200     27201     27200     27202     27201     27202
     27203     27204     27203     27205     27204     27205     27206     27207
     27206     27208     27207     27208     27209     27210     27209     27211
     27210     27211     27212     27213     27212     27214     27213     27214
     27215     27216     27215     27217     27216     27217     27218     27219
     27218     27220     27219     27220     27221     27222     27221     27223
     27222     27223     27224     27225     27224     27226     27225     27226
     27227     27228     27227     27229     27228     27229     27230     27231
     27230     27232     27231     27232     27233     27234     27233     27235
     27234     27235     27236     27237     27236     27238     27237     27238
     27239     27240     27239     27241     27240     27241     27242     27243
     27242     27244     27243     27244     27245     27246     27245     27247
     27246     27247     27248     27249     27248     27250     27249     27250
     27251     27252     27251     27253     27252     27253     27254     27255
     27254     27256     27255     27256     27257     27258     27257     27259
     27258     27259     27260     27261     27260     27262     27261     27262
     27263     27264     27263     27265     27264     27265     27266     27267
     27266     27268     27267     27268     27269     27270     27269     27271
     27270     27271     27272     27273     27272     27274     27273     27274
     27275     27276     27275     27277     27276     27277     27278     27279
     27278     27280     27279     27280     27281     27282     27281     27283
     27282     27283     27284     27285     27284     27286     27285     27286
     27287     27288     27287     27289     27288     27289     27290     27291
     27290     27292     27291     27292     27293     27294     27293     27295
     27294     27295     27296     27297     27296     27298     27297     27298
     27299     27300     27299     27301     27300     27301     27302     27303
     27302     27304     27303     27304     27305     27306     27305     27307
     27306     27307     27308     27309     27308     27310     27309     27310
     27311     27312     27311     27313     27312     27313     27314     27315
     27314     27316     27315     27316     27317     27318     27317     27319
     27318     27319     27320     27321     27320     27322     27321     27322
     27323     27324     27323     27325     27324     27325     27326     27327
     27326     27328     27327     27328     27329     27330     27329     27331
     27330     27331     27332     27333     27332     27334     27333     27334
     27335     27336     27335     27337     27336     27337     27338     27339
     27338     27340     27339     27340     27341     27342     27341     27343
     27342     27343     27344     27345     27344     27346     27345     27346
     27347     27348     27347     27349     27348     27349     27350     27351
     27350     27352     27351     27352     27353     27354     27353     27355
     27354     27355     27356     27357     27356     27358     27357     27358
     27359     27360     27359     27361     27360     27361     27362     27363
     27362     27364     27363     27364     27365     27366     27365     27367
     27366     27367     27368     27369     27368     27370     27369     27370
     27371     27372     27371     27373     27372     27373     27374     27375
     27374     27376     27375     27376     27377     27378     27377     27379
     27378     27379     27380     27381     27380     27382     27381     27382
     27383     27384     27383     27385     27384     27385     27386     27387
     27386     27388     27387     27388     27389     27390     27389     27391
     27390     27391     27392     27393     27392     27394     27393     27394
     27395     27396     27395     27397     27396     27397     27398     27399
     27398     27400     27399     27400     27401     27402     27401     27403
     27402     27403     27404     27405     27404     27406     27405     27406
     27407     27408     27407     27409     27408     27409     27410     27411
     27410     27412     27411     27412     27413     27414     27413     27415
     27414     27415     27416     27417     27416     27418     27417     27418
     27419     27420     27419     27421     27420     27421     27422     27423
     27422     27424     27423     27424     27425     27426     27425     27427
     27426     27427     27428     27429     27428     27430     27429     27430
     27431     27432     27431     27433     27432     27433     27434     27435
     27434     27436     27435     27436     27437     27438     27437     27439
     27438     27439     27440     27441     27440     27442     27441     27442
     27443     27444     27443     27445     27444     27445     27446     27447
     27446     27448     27447     27448     27449     27450     27449     27451
     27450     27451     27452     27453     27452     27454     27453     27454
     27455     27456     27455     27457     27456     27457     27458     27459
     27458     27460     27459     27460     27461     27462     27461     27463
     27462     27463     27464     27465     27464     27466     27465     27466
     27467     27468     27467     27469     27468     27469     27470     27471
     27470     27472     27471     27472     27473     27474     27473     27475
     27474     27475     27476     27477     27476     27478     27477     27478
     27479     27480     27479     27481     27480     27481     27482     27483
     27482     27484     27483     27484     27485     27486     27485     27487
     27486     27487     27488     27489     27488     27490     27489     27490
     27491     27492     27491     27493     27492     27493     27494     27495
     27494     27496     27495     27496     27497     27498     27497     27499
     27498     27499     27500     27501     27500     27502     27501     27502
     27503     27504     27503     27505     27504     27505     27506     27507
     27506     27508     27507     27508     27509     27510     27509     27511
     27510     27511     27512     27513     27512     27514     27513     27514
     27515     27516     27515     27517     27516     27517     27518     27519
     27518     27520     27519     27520     27521     27522     27521     27523
     27522     27523     27524     27525     27524     27526     27525     27526
     27527     27528     27527     27529     27528     27529     27530     27531
     27530     27532     27531     27532     27533     27534     27533     27535
     27534     27535     27536     27537     27536     27538     27537     27538
     27539     27540     27539     27541     27540     27541     27542     27543
     27542     27544     27543     27544     27545     27546     27545     27547
     27546     27547     27548     27549     27548     27550     27549     27550
     27551     27552     27551     27553     27552     27553     27554     27555
     27554     27556     27555     27556     27557     27558     27557     27559
     27558     27559     27560     27561     27560     27562     27561     27562
     27563     27564     27563     27565     27564     27565     27566     27567
     27566     27568     27567     27568     27569     27570     27569     27571
     27570     27571     27572     27573     27572     27574     27573     27574
     27575     27576     27575     27577     27576     27577     27578     27579
     27578     27580     27579     27580     27581     27582     27581     27583
     27582     27583     27584     27585     27584     27586     27585     27586
     27587     27588     27587     27589     27588     27589     27590     27591
     27590     27592     27591     27592     27593     27594     27593     27595
     27594     27595     27596     27597     27596     27598     27597     27598
     27599     27600     27599     27601     27600     27601     27602     27603
     27602     27604     27603     27604     27605     27606     27605     27607
     27606     27607     27608     27609     27608     27610     27609     27610
     27611     27612     27611     27613     27612     27613     27614     27615
     27614     27616     27615     27616     27617     27618     27617     27619
     27618     27619     27620     27621     27620     27622     27621     27622
     27623     27624     27623     27625     27624     27625     27626     27627
     27626     27628     27627     27628     27629     27630     27629     27631
     27630     27631     27632     27633     27632     27634     27633     27634
     27635     27636     27635     27637     27636     27637     27638     27639
     27638     27640     27639     27640     27641     27642     27641     27643
     27642     27643     27644     27645     27644     27646     27645     27646
     27647     27648     27647     27649     27648     27649     27650     27651
     27650     27652     27651     27652     27653     27654     27653     27655
     27654     27655     27656     27657     27656     27658     27657     27658
     27659     27660     27659     27661     27660     27661     27662     27663
     27662     27664     27663     27664     27665     27666     27665     27667
     27666     27667     27668     27669     27668     27670     27669     27670
     27671     27672     27671     27673     27672     27673     27674     27675
     27674     27676     27675     27676     27677     27678     27677     27679
     27678     27679     27680     27681     27680     27682     27681     27682
     27683     27684     27683     27685     27684     27685     27686     27687
     27686     27688     27687     27688     27689     27690     27689     27691
     27690     27691     27692     27693     27692     27694     27693     27694
     27695     27696     27695     27697     27696     27697     27698     27699
     27698     27700     27699     27700     27701     27702     27701     27703
     27702     27703     27704     27705     27704     27706     27705     27706
     27707     27708     27707     27709     27708     27709     27710     27711
     27710     27712     27711     27712     27713     27714     27713     27715
     27714     27715     27716     27717     27716     27718     27717     27718
     27719     27720     27719     27721     27720     27721     27722     27723
     27722     27724     27723     27724     27725     27726     27725     27727
     27726     27727     27728     27729     27728     27730     27729     27730
     27731     27732     27731     27733     27732     27733     27734     27735
     27734     27736     27735     27736     27737     27738     27737     27739
     27738     27739     27740     27741     27740     27742     27741     27742
     27743     27744     27743     27745     27744     27745     27746     27747
     27746     27748     27747     27748     27749     27750     27749     27751
     27750     27751     27752     27753     27752     27754     27753     27754
     27755     27756     27755     27757     27756     27757     27758     27759
     27758     27760     27759     27760     27761     27762     27761     27763
     27762     27763     27764     27765     27764     27766     27765     27766
     27767     27768     27767     27769     27768     27769     27770     27771
     27770     27772     27771     27772     27773     27774     27773     27775
     27774     27775     27776     27777     27776     27778     27777     27778
     27779     27780     27779     27781     27780     27781     27782     27783
     27782     27784     27783     27784     27785     27786     27785     27787
     27786     27787     27788     27789     27788     27790     27789     27790
     27791     27792     27791     27793     27792     27793     27794     27795
     27794     27796     27795     27796     27797     27798     27797     27799
     27798     27799     27800     27801     27800     27802     27801     27802
     27803     27804     27803     27805     27804     27805     27806     27807
     27806     27808     27807     27808     27809     27810     27809     27811
     27810     27811     27812     27813     27812     27814     27813     27814
     27815     27816     27815     27817     27816     27817     27818     27819
     27818     27820     27819     27820     27821     27822     27821     27823
     27822     27823     27824     27825     27824     27826     27825     27826
     27827     27828     27827     27829     27828     27829     27830     27831
     27830     27832     27831     27832     27833     27834     27833     27835
     27834     27835     27836     27837     27836     27838     27837     27838
     27839     27840     27839     27841     27840     27841     27842     27843
     27842     27844     27843     27844     27845     27846     27845     27847
     27846     27847     27848     27849     27848     27850     27849     27850
     27851     27852     27851     27853     27852     27853     27854     27855
     27854     27856     27855     27856     27857     27858     27857     27859
     27858     27859     27860     27861     27860     27862     27861     27862
     27863     27864     27863     27865     27864     27865     27866     27867
     27866     27868     27867     27868     27869     27870     27869     27871
     27870     27871     27872     27873     27872     27874     27873     27874
     27875     27876     27875     27877     27876     27877     27878     27879
     27878     27880     27879     27880     27881     27882     27881     27883
     27882     27883     27884     27885     27884     27886     27885     27886
     27887     27888     27887     27889     27888     27889     27890     27891
     27890     27892     27891     27892     27893     27894     27893     27895
     27894     27895     27896     27897     27896     27898     27897     27898
     27899     27900     27899     27901     27900     27901     27902     27903
     27902     27904     27903     27904     27905     27906     27905     27907
     27906     27907     27908     27909     27908     27910     27909     27910
     27911     27912     27911     27913     27912     27913     27914     27915
     27914     27916     27915     27916     27917     27918     27917     27919
     27918     27919     27920     27921     27920     27922     27921     27922
     27923     27924     27923     27925     27924     27925     27926     27927
     27926     27928     27927     27928     27929     27930     27929     27931
     27930     27931     27932     27933     27932     27934     27933     27934
     27935     27936     27935     27937     27936     27937     27938     27939
     27938     27940     27939     27940     27941     27942     27941     27943
     27942     27943     27944     27945     27944     27946     27945     27946
     27947     27948     27947     27949     27948     27949     27950     27951
     27950     27952     27951     27952     27953     27954     27953     27955
     27954     27955     27956     27957     27956     27958     27957     27958
     27959     27960     27959     27961     27960     27961     27962     27963
     27962     27964     27963     27964     27965     27966     27965     27967
     27966     27967     27968     27969     27968     27970     27969     27970
     27971     27972     27971     27973     27972     27973     27974     27975
     27974     27976     27975     27976     27977     27978     27977     27979
     27978     27979     27980     27981     27980     27982     27981     27982
     27983     27984     27983     27985     27984     27985     27986     27987
     27986     27988     27987     27988     27989     27990     27989     27991
     27990     27991     27992     27993     27992     27994     27993     27994
     27995     27996     27995     27997     27996     27997     27998     27999
     27998     28000     27999     28000     28001     28002     28001     28003
     28002     28003     28004     28005     28004     28006     28005     28006
     28007     28008     28007     28009     28008     28009     28010     28011
     28010     28012     28011     28012     28013     28014     28013     28015
     28014     28015     28016     28017     28016     28018     28017     28018
     28019     28020     28019     28021     28020     28021     28022     28023
     28022     28024     28023     28024     28025     28026     28025     28027
     28026     28027     28028     28029     28028     28030     28029     28030
     28031     28032     28031     28033     28032     28033     28034     28035
     28034     28036     28035     28036     28037     28038     28037     28039
     28038     28039     28040     28041     28040     28042     28041     28042
     28043     28044     28043     28045     28044     28045     28046     28047
     28046     28048     28047     28048     28049     28050     28049     28051
     28050     28051     28052     28053     28052     28054     28053     28054
     28055     28056     28055     28057     28056     28057     28058     28059
     28058     28060     28059     28060     28061     28062     28061     28063
     28062     28063     28064     28065     28064     28066     28065     28066
     28067     28068     28067     28069     28068     28069     28070     28071
     28070     28072     28071     28072     28073     28074     28073     28075
     28074     28075     28076     28077     28076     28078     28077     28078
     28079     28080     28079     28081     28080     28081     28082     28083
     28082     28084     28083     28084     28085     28086     28085     28087
     28086     28087     28088     28089     28088     28090     28089     28090
     28091     28092     28091     28093     28092     28093     28094     28095
     28094     28096     28095     28096     28097     28098     28097     28099
     28098     28099     28100     28101     28100     28102     28101     28102
     28103     28104     28103     28105     28104     28105     28106     28107
     28106     28108     28107     28108     28109     28110     28109     28111
     28110     28111     28112     28113     28112     28114     28113     28114
     28115     28116     28115     28117     28116     28117     28118     28119
     28118     28120     28119     28120     28121     28122     28121     28123
     28122     28123     28124     28125     28124     28126     28125     28126
     28127     28128     28127     28129     28128     28129     28130     28131
     28130     28132     28131     28132     28133     28134     28133     28135
     28134     28135     28136     28137     28136     28138     28137     28138
     28139     28140     28139     28141     28140     28141     28142     28143
     28142     28144     28143     28144     28145     28146     28145     28147
     28146     28147     28148     28149     28148     28150     28149     28150
     28151     28152     28151     28153     28152     28153     28154     28155
     28154     28156     28155     28156     28157     28158     28157     28159
     28158     28159     28160     28161     28160     28162     28161     28162
     28163     28164     28163     28165     28164     28165     28166     28167
     28166     28168     28167     28168     28169     28170     28169     28171
     28170     28171     28172     28173     28172     28174     28173     28174
     28175     28176     28175     28177     28176     28177     28178     28179
     28178     28180     28179     28180     28181     28182     28181     28183
     28182     28183     28184     28185     28184     28186     28185     28186
     28187     28188     28187     28189     28188     28189     28190     28191
     28190     28192     28191     28192     28193     28194     28193     28195
     28194     28195     28196     28197     28196     28198     28197     28198
     28199     28200     28199     28201     28200     28201     28202     28203
     28202     28204     28203     28204     28205     28206     28205     28207
     28206     28207     28208     28209     28208     28210     28209     28210
     28211     28212     28211     28213     28212     28213     28214     28215
     28214     28216     28215     28216     28217     28218     28217     28219
     28218     28219     28220     28221     28220     28222     28221     28222
     28223     28224     28223     28225     28224     28225     28226     28227
     28226     28228     28227     28228     28229     28230     28229     28231
     28230     28231     28232     28233     28232     28234     28233     28234
     28235     28236     28235     28237     28236     28237     28238     28239
     28238     28240     28239     28240     28241     28242     28241     28243
     28242     28243     28244     28245     28244     28246     28245     28246
     28247     28248     28247     28249     28248     28249     28250     28251
     28250     28252     28251     28252     28253     28254     28253     28255
     28254     28255     28256     28257     28256     28258     28257     28258
     28259     28260     28259     28261     28260     28261     28262     28263
     28262     28264     28263     28264     28265     28266     28265     28267
     28266     28267     28268     28269     28268     28270     28269     28270
     28271     28272     28271     28273     28272     28273     28274     28275
     28274     28276     28275     28276     28277     28278     28277     28279
     28278     28279     28280     28281     28280     28282     28281     28282
     28283     28284     28283     28285     28284     28285     28286     28287
     28286     28288     28287     28288     28289     28290     28289     28291
     28290     28291     28292     28293     28292     28294     28293     28294
     28295     28296     28295     28297     28296     28297     28298     28299
     28298     28300     28299     28300     28301     28302     28301     28303
     28302     28303     28304     28305     28304     28306     28305     28306
     28307     28308     28307     28309     28308     28309     28310     28311
     28310     28312     28311     28312     28313     28314     28313     28315
     28314     28315     28316     28317     28316     28318     28317     28318
     28319     28320     28319     28321     28320     28321     28322     28323
     28322     28324     28323     28324     28325     28326     28325     28327
     28326     28327     28328     28329     28328     28330     28329     28330
     28331     28332     28331     28333     28332     28333     28334     28335
     28334     28336     28335     28336     28337     28338     28337     28339
     28338     28339     28340     28341     28340     28342     28341     28342
     28343     28344     28343     28345     28344     28345     28346     28347
     28346     28348     28347     28348     28349     28350     28349     28351
     28350     28351     28352     28353     28352     28354     28353     28354
     28355     28356     28355     28357     28356     28357     28358     28359
     28358     28360     28359     28360     28361     28362     28361     28363
     28362     28363     28364     28365     28364     28366     28365     28366
     28367     28368     28367     28369     28368     28369     28370     28371
     28370     28372     28371     28372     28373     28374     28373     28375
     28374     28375     28376     28377     28376     28378     28377     28378
     28379     28380     28379     28381     28380     28381     28382     28383
     28382     28384     28383     28384     28385     28386     28385     28387
     28386     28387     28388     28389     28388     28390     28389     28390
     28391     28392     28391     28393     28392     28393     28394     28395
     28394     28396     28395     28396     28397     28398     28397     28399
     28398     28399     28400     28401     28400     28402     28401     28402
     28403     28404     28403     28405     28404     28405     28406     28407
     28406     28408     28407     28408     28409     28410     28409     28411
     28410     28411     28412     28413     28412     28414     28413     28414
     28415     28416     28415     28417     28416     28417     28418     28419
     28418     28420     28419     28420     28421     28422     28421     28423
     28422     28423     28424     28425     28424     28426     28425     28426
     28427     28428     28427     28429     28428     28429     28430     28431
     28430     28432     28431     28432     28433     28434     28433     28435
     28434     28435     28436     28437     28436     28438     28437     28438
     28439     28440     28439     28441     28440     28441     28442     28443
     28442     28444     28443     28444     28445     28446     28445     28447
     28446     28447     28448     28449     28448     28450     28449     28450
     28451     28452     28451     28453     28452     28453     28454     28455
     28454     28456     28455     28456     28457     28458     28457     28459
     28458     28459     28460     28461     28460     28462     28461     28462
     28463     28464     28463     28465     28464     28465     28466     28467
     28466     28468     28467     28468     28469     28470     28469     28471
     28470     28471     28472     28473     28472     28474     28473     28474
     28475     28476     28475     28477     28476     28477     28478     28479
     28478     28480     28479     28480     28481     28482     28481     28483
     28482     28483     28484     28485     28484     28486     28485     28486
     28487     28488     28487     28489     28488     28489     28490     28491
     28490     28492     28491     28492     28493     28494     28493     28495
     28494     28495     28496     28497     28496     28498     28497     28498
     28499     28500     28499     28501     28500     28501     28502     28503
     28502     28504     28503     28504     28505     28506     28505     28507
     28506     28507     28508     28509     28508     28510     28509     28510
     28511     28512     28511     28513     28512     28513     28514     28515
     28514     28516     28515     28516     28517     28518     28517     28519
     28518     28519     28520     28521     28520     28522     28521     28522
     28523     28524     28523     28525     28524     28525     28526     28527
     28526     28528     28527     28528     28529     28530     28529     28531
     28530     28531     28532     28533     28532     28534     28533     28534
     28535     28536     28535     28537     28536     28537     28538     28539
     28538     28540     28539     28540     28541     28542     28541     28543
     28542     28543     28544     28545     28544     28546     28545     28546
     28547     28548     28547     28549     28548     28549     28550     28551
     28550     28552     28551     28552     28553     28554     28553     28555
     28554     28555     28556     28557     28556     28558     28557     28558
     28559     28560     28559     28561     28560     28561     28562     28563
     28562     28564     28563     28564     28565     28566     28565     28567
     28566     28567     28568     28569     28568     28570     28569     28570
     28571     28572     28571     28573     28572     28573     28574     28575
     28574     28576     28575     28576     28577     28578     28577     28579
     28578     28579     28580     28581     28580     28582     28581     28582
     28583     28584     28583     28585     28584     28585     28586     28587
     28586     28588     28587     28588     28589     28590     28589     28591
     28590     28591     28592     28593     28592     28594     28593     28594
     28595     28596     28595     28597     28596     28597     28598     28599
     28598     28600     28599     28600     28601     28602     28601     28603
     28602     28603     28604     28605     28604     28606     28605     28606
     28607     28608     28607     28609     28608     28609     28610     28611
     28610     28612     28611     28612     28613     28614     28613     28615
     28614     28615     28616     28617     28616     28618     28617     28618
     28619     28620     28619     28621     28620     28621     28622     28623
     28622     28624     28623     28624     28625     28626     28625     28627
     28626     28627     28628     28629     28628     28630     28629     28630
     28631     28632     28631     28633     28632     28633     28634     28635
     28634     28636     28635     28636     28637     28638     28637     28639
     28638     28639     28640     28641     28640     28642     28641     28642
     28643     28644     28643     28645     28644     28645     28646     28647
     28646     28648     28647     28648     28649     28650     28649     28651
     28650     28651     28652     28653     28652     28654     28653     28654
     28655     28656     28655     28657     28656     28657     28658     28659
     28658     28660     28659     28660     28661     28662     28661     28663
     28662     28663     28664     28665     28664     28666     28665     28666
     28667     28668     28667     28669     28668     28669     28670     28671
     28670     28672     28671     28672     28673     28674     28673     28675
     28674     28675     28676     28677     28676     28678     28677     28678
     28679     28680     28679     28681     28680     28681     28682     28683
     28682     28684     28683     28684     28685     28686     28685     28687
     28686     28687     28688     28689     28688     28690     28689     28690
     28691     28692     28691     28693     28692     28693     28694     28695
     28694     28696     28695     28696     28697     28698     28697     28699
     28698     28699     28700     28701     28700     28702     28701     28702
     28703     28704     28703     28705     28704     28705     28706     28707
     28706     28708     28707     28708     28709     28710     28709     28711
     28710     28711     28712     28713     28712     28714     28713     28714
     28715     28716     28715     28717     28716     28717     28718     28719
     28718     28720     28719     28720     28721     28722     28721     28723
     28722     28723     28724     28725     28724     28726     28725     28726
     28727     28728     28727     28729     28728     28729     28730     28731
     28730     28732     28731     28732     28733     28734     28733     28735
     28734     28735     28736     28737     28736     28738     28737     28738
     28739     28740     28739     28741     28740     28741     28742     28743
     28742     28744     28743     28744     28745     28746     28745     28747
     28746     28747     28748     28749     28748     28750     28749     28750
     28751     28752     28751     28753     28752     28753     28754     28755
     28754     28756     28755     28756     28757     28758     28757     28759
     28758     28759     28760     28761     28760     28762     28761     28762
     28763     28764     28763     28765     28764     28765     28766     28767
     28766     28768     28767     28768     28769     28770     28769     28771
     28770     28771     28772     28773     28772     28774     28773     28774
     28775     28776     28775     28777     28776     28777     28778     28779
     28778     28780     28779     28780     28781     28782     28781     28783
     28782     28783     28784     28785     28784     28786     28785     28786
     28787     28788     28787     28789     28788     28789     28790     28791
     28790     28792     28791     28792     28793     28794     28793     28795
     28794     28795     28796     28797     28796     28798     28797     28798
     28799     28800     28799     28801     28800     28801     28802     28803
     28802     28804     28803     28804     28805     28806     28805     28807
     28806     28807     28808     28809     28808     28810     28809     28810
     28811     28812     28811     28813     28812     28813     28814     28815
     28814     28816     28815     28816     28817     28818     28817     28819
     28818     28819     28820     28821     28820     28822     28821     28822
     28823     28824     28823     28825     28824     28825     28826     28827
     28826     28828     28827     28828     28829     28830     28829     28831
     28830     28831     28832     28833     28832     28834     28833     28834
     28835     28836     28835     28837     28836     28837     28838     28839
     28838     28840     28839     28840     28841     28842     28841     28843
     28842     28843     28844     28845     28844     28846     28845     28846
     28847     28848     28847     28849     28848     28849     28850     28851
     28850     28852     28851     28852     28853     28854     28853     28855
     28854     28855     28856     28857     28856     28858     28857     28858
     28859     28860     28859     28861     28860     28861     28862     28863
     28862     28864     28863     28864     28865     28866     28865     28867
     28866     28867     28868     28869     28868     28870     28869     28870
     28871     28872     28871     28873     28872     28873     28874     28875
     28874     28876     28875     28876     28877     28878     28877     28879
     28878     28879     28880     28881     28880     28882     28881     28882
     28883     28884     28883     28885     28884     28885     28886     28887
     28886     28888     28887     28888     28889     28890     28889     28891
     28890     28891     28892     28893     28892     28894     28893     28894
     28895     28896     28895     28897     28896     28897     28898     28899
     28898     28900     28899     28900     28901     28902     28901     28903
     28902     28903     28904     28905     28904     28906     28905     28906
     28907     28908     28907     28909     28908     28909     28910     28911
     28910     28912     28911     28912     28913     28914     28913     28915
     28914     28915     28916     28917     28916     28918     28917     28918
     28919     28920     28919     28921     28920     28921     28922     28923
     28922     28924     28923     28924     28925     28926     28925     28927
     28926     28927     28928     28929     28928     28930     28929     28930
     28931     28932     28931     28933     28932     28933     28934     28935
     28934     28936     28935     28936     28937     28938     28937     28939
     28938     28939     28940     28941     28940     28942     28941     28942
     28943     28944     28943     28945     28944     28945     28946     28947
     28946     28948     28947     28948     28949     28950     28949     28951
     28950     28951     28952     28953     28952     28954     28953     28954
     28955     28956     28955     28957     28956     28957     28958     28959
     28958     28960     28959     28960     28961     28962     28961     28963
     28962     28963     28964     28965     28964     28966     28965     28966
     28967     28968     28967     28969     28968     28969     28970     28971
     28970     28972     28971     28972     28973     28974     28973     28975
     28974     28975     28976     28977     28976     28978     28977     28978
     28979     28980     28979     28981     28980     28981     28982     28983
     28982     28984     28983     28984     28985     28986     28985     28987
     28986     28987     28988     28989     28988     28990     28989     28990
     28991     28992     28991     28993     28992     28993     28994     28995
     28994     28996     28995     28996     28997     28998     28997     28999
     28998     28999     29000     29001     29000     29002     29001     29002
     29003     29004     29003     29005     29004     29005     29006     29007
     29006     29008     29007     29008     29009     29010     29009     29011
     29010     29011     29012     29013     29012     29014     29013     29014
     29015     29016     29015     29017     29016     29017     29018     29019
     29018     29020     29019     29020     29021     29022     29021     29023
     29022     29023     29024     29025     29024     29026     29025     29026
     29027     29028     29027     29029     29028     29029     29030     29031
     29030     29032     29031     29032     29033     29034     29033     29035
     29034     29035     29036     29037     29036     29038     29037     29038
     29039     29040     29039     29041     29040     29041     29042     29043
     29042     29044     29043     29044     29045     29046     29045     29047
     29046     29047     29048     29049     29048     29050     29049     29050
     29051     29052     29051     29053     29052     29053     29054     29055
     29054     29056     29055     29056     29057     29058     29057     29059
     29058     29059     29060     29061     29060     29062     29061     29062
     29063     29064     29063     29065     29064     29065     29066     29067
     29066     29068     29067     29068     29069     29070     29069     29071
     29070     29071     29072     29073     29072     29074     29073     29074
     29075     29076     29075     29077     29076     29077     29078     29079
     29078     29080     29079     29080     29081     29082     29081     29083
     29082     29083     29084     29085     29084     29086     29085     29086
     29087     29088     29087     29089     29088     29089     29090     29091
     29090     29092     29091     29092     29093     29094     29093     29095
     29094     29095     29096     29097     29096     29098     29097     29098
     29099     29100     29099     29101     29100     29101     29102     29103
     29102     29104     29103     29104     29105     29106     29105     29107
     29106     29107     29108     29109     29108     29110     29109     29110
     29111     29112     29111     29113     29112     29113     29114     29115
     29114     29116     29115     29116     29117     29118     29117     29119
     29118     29119     29120     29121     29120     29122     29121     29122
     29123     29124     29123     29125     29124     29125     29126     29127
     29126     29128     29127     29128     29129     29130     29129     29131
     29130     29131     29132     29133     29132     29134     29133     29134
     29135     29136     29135     29137     29136     29137     29138     29139
     29138     29140     29139     29140     29141     29142     29141     29143
     29142     29143     29144     29145     29144     29146     29145     29146
     29147     29148     29147     29149     29148     29149     29150     29151
     29150     29152     29151     29152     29153     29154     29153     29155
     29154     29155     29156     29157     29156     29158     29157     29158
     29159     29160     29159     29161     29160     29161     29162     29163
     29162     29164     29163     29164     29165     29166     29165     29167
     29166     29167     29168     29169     29168     29170     29169     29170
     29171     29172     29171     29173     29172     29173     29174     29175
     29174     29176     29175     29176     29177     29178     29177     29179
     29178     29179     29180     29181     29180     29182     29181     29182
     29183     29184     29183     29185     29184     29185     29186     29187
     29186     29188     29187     29188     29189     29190     29189     29191
     29190     29191     29192     29193     29192     29194     29193     29194
     29195     29196     29195     29197     29196     29197     29198     29199
     29198     29200     29199     29200     29201     29202     29201     29203
     29202     29203     29204     29205     29204     29206     29205     29206
     29207     29208     29207     29209     29208     29209     29210     29211
     29210     29212     29211     29212     29213     29214     29213     29215
     29214     29215     29216     29217     29216     29218     29217     29218
     29219     29220     29219     29221     29220     29221     29222     29223
     29222     29224     29223     29224     29225     29226     29225     29227
     29226     29227     29228     29229     29228     29230     29229     29230
     29231     29232     29231     29233     29232     29233     29234     29235
     29234     29236     29235     29236     29237     29238     29237     29239
     29238     29239     29240     29241     29240     29242     29241     29242
     29243     29244     29243     29245     29244     29245     29246     29247
     29246     29248     29247     29248     29249     29250     29249     29251
     29250     29251     29252     29253     29252     29254     29253     29254
     29255     29256     29255     29257     29256     29257     29258     29259
     29258     29260     29259     29260     29261     29262     29261     29263
     29262     29263     29264     29265     29264     29266     29265     29266
     29267     29268     29267     29269     29268     29269     29270     29271
     29270     29272     29271     29272     29273     29274     29273     29275
     29274     29275     29276     29277     29276     29278     29277     29278
     29279     29280     29279     29281     29280     29281     29282     29283
     29282     29284     29283     29284     29285     29286     29285     29287
     29286     29287     29288     29289     29288     29290     29289     29290
     29291     29292     29291     29293     29292     29293     29294     29295
     29294     29296     29295     29296     29297     29298     29297     29299
     29298     29299     29300     29301     29300     29302     29301     29302
     29303     29304     29303     29305     29304     29305     29306     29307
     29306     29308     29307     29308     29309     29310     29309     29311
     29310     29311     29312     29313     29312     29314     29313     29314
     29315     29316     29315     29317     29316     29317     29318     29319
     29318     29320     29319     29320     29321     29322     29321     29323
     29322     29323     29324     29325     29324     29326     29325     29326
     29327     29328     29327     29329     29328     29329     29330     29331
     29330     29332     29331     29332     29333     29334     29333     29335
     29334     29335     29336     29337     29336     29338     29337     29338
     29339     29340     29339     29341     29340     29341     29342     29343
     29342     29344     29343     29344     29345     29346     29345     29347
     29346     29347     29348     29349     29348     29350     29349     29350
     29351     29352     29351     29353     29352     29353     29354     29355
     29354     29356     29355     29356     29357     29358     29357     29359
     29358     29359     29360     29361     29360     29362     29361     29362
     29363     29364     29363     29365     29364     29365     29366     29367
     29366     29368     29367     29368     29369     29370     29369     29371
     29370     29371     29372     29373     29372     29374     29373     29374
     29375     29376     29375     29377     29376     29377     29378     29379
     29378     29380     29379     29380     29381     29382     29381     29383
     29382     29383     29384     29385     29384     29386     29385     29386
     29387     29388     29387     29389     29388     29389     29390     29391
     29390     29392     29391     29392     29393     29394     29393     29395
     29394     29395     29396     29397     29396     29398     29397     29398
     29399     29400     29399     29401     29400     29401     29402     29403
     29402     29404     29403     29404     29405     29406     29405     29407
     29406     29407     29408     29409     29408     29410     29409     29410
     29411     29412     29411     29413     29412     29413     29414     29415
     29414     29416     29415     29416     29417     29418     29417     29419
     29418     29419     29420     29421     29420     29422     29421     29422
     29423     29424     29423     29425     29424     29425     29426     29427
     29426     29428     29427     29428     29429     29430     29429     29431
     29430     29431     29432     29433     29432     29434     29433     29434
     29435     29436     29435     29437     29436     29437     29438     29439
     29438     29440     29439     29440     29441     29442     29441     29443
     29442     29443     29444     29445     29444     29446     29445     29446
     29447     29448     29447     29449     29448     29449     29450     29451
     29450     29452     29451     29452     29453     29454     29453     29455
     29454     29455     29456     29457     29456     29458     29457     29458
     29459     29460     29459     29461     29460     29461     29462     29463
     29462     29464     29463     29464     29465     29466     29465     29467
     29466     29467     29468     29469     29468     29470     29469     29470
     29471     29472     29471     29473     29472     29473     29474     29475
     29474     29476     29475     29476     29477     29478     29477     29479
     29478     29479     29480     29481     29480     29482     29481     29482
     29483     29484     29483     29485     29484     29485     29486     29487
     29486     29488     29487     29488     29489     29490     29489     29491
     29490     29491     29492     29493     29492     29494     29493     29494
     29495     29496     29495     29497     29496     29497     29498     29499
     29498     29500     29499     29500     29501     29502     29501     29503
     29502     29503     29504     29505     29504     29506     29505     29506
     29507     29508     29507     29509     29508     29509     29510     29511
     29510     29512     29511     29512     29513     29514     29513     29515
     29514     29515     29516     29517     29516     29518     29517     29518
     29519     29520     29519     29521     29520     29521     29522     29523
     29522     29524     29523     29524     29525     29526     29525     29527
     29526     29527     29528     29529     29528     29530     29529     29530
     29531     29532     29531     29533     29532     29533     29534     29535
     29534     29536     29535     29536     29537     29538     29537     29539
     29538     29539     29540     29541     29540     29542     29541     29542
     29543     29544     29543     29545     29544     29545     29546     29547
     29546     29548     29547     29548     29549     29550     29549     29551
     29550     29551     29552     29553     29552     29554     29553     29554
     29555     29556     29555     29557     29556     29557     29558     29559
     29558     29560     29559     29560     29561     29562     29561     29563
     29562     29563     29564     29565     29564     29566     29565     29566
     29567     29568     29567     29569     29568     29569     29570     29571
     29570     29572     29571     29572     29573     29574     29573     29575
     29574     29575     29576     29577     29576     29578     29577     29578
     29579     29580     29579     29581     29580     29581     29582     29583
     29582     29584     29583     29584     29585     29586     29585     29587
     29586     29587     29588     29589     29588     29590     29589     29590
     29591     29592     29591     29593     29592     29593     29594     29595
     29594     29596     29595     29596     29597     29598     29597     29599
     29598     29599     29600     29601     29600     29602     29601     29602
     29603     29604     29603     29605     29604     29605     29606     29607
     29606     29608     29607     29608     29609     29610     29609     29611
     29610     29611     29612     29613     29612     29614     29613     29614
     29615     29616     29615     29617     29616     29617     29618     29619
     29618     29620     29619     29620     29621     29622     29621     29623
     29622     29623     29624     29625     29624     29626     29625     29626
     29627     29628     29627     29629     29628     29629     29630     29631
     29630     29632     29631     29632     29633     29634     29633     29635
     29634     29635     29636     29637     29636     29638     29637     29638
     29639     29640     29639     29641     29640     29641     29642     29643
     29642     29644     29643     29644     29645     29646     29645     29647
     29646     29647     29648     29649     29648     29650     29649     29650
     29651     29652     29651     29653     29652     29653     29654     29655
     29654     29656     29655     29656     29657     29658     29657     29659
     29658     29659     29660     29661     29660     29662     29661     29662
     29663     29664     29663     29665     29664     29665     29666     29667
     29666     29668     29667     29668     29669     29670     29669     29671
     29670     29671     29672     29673     29672     29674     29673     29674
     29675     29676     29675     29677     29676     29677     29678     29679
     29678     29680     29679     29680     29681     29682     29681     29683
     29682     29683     29684     29685     29684     29686     29685     29686
     29687     29688     29687     29689     29688     29689     29690     29691
     29690     29692     29691     29692     29693     29694     29693     29695
     29694     29695     29696     29697     29696     29698     29697     29698
     29699     29700     29699     29701     29700     29701     29702     29703
     29702     29704     29703     29704     29705     29706     29705     29707
     29706     29707     29708     29709     29708     29710     29709     29710
     29711     29712     29711     29713     29712     29713     29714     29715
     29714     29716     29715     29716     29717     29718     29717     29719
     29718     29719     29720     29721     29720     29722     29721     29722
     29723     29724     29723     29725     29724     29725     29726     29727
     29726     29728     29727     29728     29729     29730     29729     29731
     29730     29731     29732     29733     29732     29734     29733     29734
     29735     29736     29735     29737     29736     29737     29738     29739
     29738     29740     29739     29740     29741     29742     29741     29743
     29742     29743     29744     29745     29744     29746     29745     29746
     29747     29748     29747     29749     29748     29749     29750     29751
     29750     29752     29751     29752     29753     29754     29753     29755
     29754     29755     29756     29757     29756     29758     29757     29758
     29759     29760     29759     29761     29760     29761     29762     29763
     29762     29764     29763     29764     29765     29766     29765     29767
     29766     29767     29768     29769     29768     29770     29769     29770
     29771     29772     29771     29773     29772     29773     29774     29775
     29774     29776     29775     29776     29777     29778     29777     29779
     29778     29779     29780     29781     29780     29782     29781     29782
     29783     29784     29783     29785     29784     29785     29786     29787
     29786     29788     29787     29788     29789     29790     29789     29791
     29790     29791     29792     29793     29792     29794     29793     29794
     29795     29796     29795     29797     29796     29797     29798     29799
     29798     29800     29799     29800     29801     29802     29801     29803
     29802     29803     29804     29805     29804     29806     29805     29806
     29807     29808     29807     29809     29808     29809     29810     29811
     29810     29812     29811     29812     29813     29814     29813     29815
     29814     29815     29816     29817     29816     29818     29817     29818
     29819     29820     29819     29821     29820     29821     29822     29823
     29822     29824     29823     29824     29825     29826     29825     29827
     29826     29827     29828     29829     29828     29830     29829     29830
     29831     29832     29831     29833     29832     29833     29834     29835
     29834     29836     29835     29836     29837     29838     29837     29839
     29838     29839     29840     29841     29840     29842     29841     29842
     29843     29844     29843     29845     29844     29845     29846     29847
     29846     29848     29847     29848     29849     29850     29849     29851
     29850     29851     29852     29853     29852     29854     29853     29854
     29855     29856     29855     29857     29856     29857     29858     29859
     29858     29860     29859     29860     29861     29862     29861     29863
     29862     29863     29864     29865     29864     29866     29865     29866
     29867     29868     29867     29869     29868     29869     29870     29871
     29870     29872     29871     29872     29873     29874     29873     29875
     29874     29875     29876     29877     29876     29878     29877     29878
     29879     29880     29879     29881     29880     29881     29882     29883
     29882     29884     29883     29884     29885     29886     29885     29887
     29886     29887     29888     29889     29888     29890     29889     29890
     29891     29892     29891     29893     29892     29893     29894     29895
     29894     29896     29895     29896     29897     29898     29897     29899
     29898     29899     29900     29901     29900     29902     29901     29902
     29903     29904     29903     29905     29904     29905     29906     29907
     29906     29908     29907     29908     29909     29910     29909     29911
     29910     29911     29912     29913     29912     29914     29913     29914
     29915     29916     29915     29917     29916     29917     29918     29919
     29918     29920     29919     29920     29921     29922     29921     29923
     29922     29923     29924     29925     29924     29926     29925     29926
     29927     29928     29927     29929     29928     29929     29930     29931
     29930     29932     29931     29932     29933     29934     29933     29935
     29934     29935     29936     29937     29936     29938     29937     29938
     29939     29940     29939     29941     29940     29941     29942     29943
     29942     29944     29943     29944     29945     29946     29945     29947
     29946     29947     29948     29949     29948     29950     29949     29950
     29951     29952     29951     29953     29952     29953     29954     29955
     29954     29956     29955     29956     29957     29958     29957     29959
     29958     29959     29960     29961     29960     29962     29961     29962
     29963     29964     29963     29965     29964     29965     29966     29967
     29966     29968     29967     29968     29969     29970     29969     29971
     29970     29971     29972     29973     29972     29974     29973     29974
     29975     29976     29975     29977     29976     29977     29978     29979
     29978     29980     29979     29980     29981     29982     29981     29983
     29982     29983     29984     29985     29984     29986     29985     29986
     29987     29988     29987     29989     29988     29989     29990     29991
     29990     29992     29991     29992     29993     29994     29993     29995
     29994     29995     29996     29997     29996     29998     29997     29998
     29999     30000     29999     30001     30000     30001     30002     30003
     30002     30004     30003     30004     30005     30006     30005     30007
     30006     30007     30008     30009     30008     30010     30009     30010
     30011     30012     30011     30013     30012     30013     30014     30015
     30014     30016     30015     30016     30017     30018     30017     30019
     30018     30019     30020     30021     30020     30022     30021     30022
     30023     30024     30023     30025     30024     30025     30026     30027
     30026     30028     30027     30028     30029     30030     30029     30031
     30030     30031     30032     30033     30032     30034     30033     30034
     30035     30036     30035     30037     30036     30037     30038     30039
     30038     30040     30039     30040     30041     30042     30041     30043
     30042     30043     30044     30045     30044     30046     30045     30046
     30047     30048     30047     30049     30048     30049     30050     30051
     30050     30052     30051     30052     30053     30054     30053     30055
     30054     30055     30056     30057     30056     30058     30057     30058
     30059     30060     30059     30061     30060     30061     30062     30063
     30062     30064     30063     30064     30065     30066     30065     30067
     30066     30067     30068     30069     30068     30070     30069     30070
     30071     30072     30071     30073     30072     30073     30074     30075
     30074     30076     30075     30076     30077     30078     30077     30079
     30078     30079     30080     30081     30080     30082     30081     30082
     30083     30084     30083     30085     30084     30085     30086     30087
     30086     30088     30087     30088     30089     30090     30089     30091
     30090     30091     30092     30093     30092     30094     30093     30094
     30095     30096     30095     30097     30096     30097     30098     30099
     30098     30100     30099     30100     30101     30102     30101     30103
     30102     30103     30104     30105     30104     30106     30105     30106
     30107     30108     30107     30109     30108     30109     30110     30111
     30110     30112     30111     30112     30113     30114     30113     30115
     30114     30115     30116     30117     30116     30118     30117     30118
     30119     30120     30119     30121     30120     30121     30122     30123
     30122     30124     30123     30124     30125     30126     30125     30127
     30126     30127     30128     30129     30128     30130     30129     30130
     30131     30132     30131     30133     30132     30133     30134     30135
     30134     30136     30135     30136     30137     30138     30137     30139
     30138     30139     30140     30141     30140     30142     30141     30142
     30143     30144     30143     30145     30144     30145     30146     30147
     30146     30148     30147     30148     30149     30150     30149     30151
     30150     30151     30152     30153     30152     30154     30153     30154
     30155     30156     30155     30157     30156     30157     30158     30159
     30158     30160     30159     30160     30161     30162     30161     30163
     30162     30163     30164     30165     30164     30166     30165     30166
     30167     30168     30167     30169     30168     30169     30170     30171
     30170     30172     30171     30172     30173     30174     30173     30175
     30174     30175     30176     30177     30176     30178     30177     30178
     30179     30180     30179     30181     30180     30181     30182     30183
     30182     30184     30183     30184     30185     30186     30185     30187
     30186     30187     30188     30189     30188     30190     30189     30190
     30191     30192     30191     30193     30192     30193     30194     30195
     30194     30196     30195     30196     30197     30198     30197     30199
     30198     30199     30200     30201     30200     30202     30201     30202
     30203     30204     30203     30205     30204     30205     30206     30207
     30206     30208     30207     30208     30209     30210     30209     30211
     30210     30211     30212     30213     30212     30214     30213     30214
     30215     30216     30215     30217     30216     30217     30218     30219
     30218     30220     30219     30220     30221     30222     30221     30223
     30222     30223     30224     30225     30224     30226     30225     30226
     30227     30228     30227     30229     30228     30229     30230     30231
     30230     30232     30231     30232     30233     30234     30233     30235
     30234     30235     30236     30237     30236     30238     30237     30238
     30239     30240     30239     30241     30240     30241     30242     30243
     30242     30244     30243     30244     30245     30246     30245     30247
     30246     30247     30248     30249     30248     30250     30249     30250
     30251     30252     30251     30253     30252     30253     30254     30255
     30254     30256     30255     30256     30257     30258     30257     30259
     30258     30259     30260     30261     30260     30262     30261     30262
     30263     30264     30263     30265     30264     30265     30266     30267
     30266     30268     30267     30268     30269     30270     30269     30271
     30270     30271     30272     30273     30272     30274     30273     30274
     30275     30276     30275     30277     30276     30277     30278     30279
     30278     30280     30279     30280     30281     30282     30281     30283
     30282     30283     30284     30285     30284     30286     30285     30286
     30287     30288     30287     30289     30288     30289     30290     30291
     30290     30292     30291     30292     30293     30294     30293     30295
     30294     30295     30296     30297     30296     30298     30297     30298
     30299     30300     30299     30301     30300     30301     30302     30303
     30302     30304     30303     30304     30305     30306     30305     30307
     30306     30307     30308     30309     30308     30310     30309     30310
     30311     30312     30311     30313     30312     30313     30314     30315
     30314     30316     30315     30316     30317     30318     30317     30319
     30318     30319     30320     30321     30320     30322     30321     30322
     30323     30324     30323     30325     30324     30325     30326     30327
     30326     30328     30327     30328     30329     30330     30329     30331
     30330     30331     30332     30333     30332     30334     30333     30334
     30335     30336     30335     30337     30336     30337     30338     30339
     30338     30340     30339     30340     30341     30342     30341     30343
     30342     30343     30344     30345     30344     30346     30345     30346
     30347     30348     30347     30349     30348     30349     30350     30351
     30350     30352     30351     30352     30353     30354     30353     30355
     30354     30355     30356     30357     30356     30358     30357     30358
     30359     30360     30359     30361     30360     30361     30362     30363
     30362     30364     30363     30364     30365     30366     30365     30367
     30366     30367     30368     30369     30368     30370     30369     30370
     30371     30372     30371     30373     30372     30373     30374     30375
     30374     30376     30375     30376     30377     30378     30377     30379
     30378     30379     30380     30381     30380     30382     30381     30382
     30383     30384     30383     30385     30384     30385     30386     30387
     30386     30388     30387     30388     30389     30390     30389     30391
     30390     30391     30392     30393     30392     30394     30393     30394
     30395     30396     30395     30397     30396     30397     30398     30399
     30398     30400     30399     30400     30401     30402     30401     30403
     30402     30403     30404     30405     30404     30406     30405     30406
     30407     30408     30407     30409     30408     30409     30410     30411
     30410     30412     30411     30412     30413     30414     30413     30415
     30414     30415     30416     30417     30416     30418     30417     30418
     30419     30420     30419     30421     30420     30421     30422     30423
     30422     30424     30423     30424     30425     30426     30425     30427
     30426     30427     30428     30429     30428     30430     30429     30430
     30431     30432     30431     30433     30432     30433     30434     30435
     30434     30436     30435     30436     30437     30438     30437     30439
     30438     30439     30440     30441     30440     30442     30441     30442
     30443     30444     30443     30445     30444     30445     30446     30447
     30446     30448     30447     30448     30449     30450     30449     30451
     30450     30451     30452     30453     30452     30454     30453     30454
     30455     30456     30455     30457     30456     30457     30458     30459
     30458     30460     30459     30460     30461     30462     30461     30463
     30462     30463     30464     30465     30464     30466     30465     30466
     30467     30468     30467     30469     30468     30469     30470     30471
     30470     30472     30471     30472     30473     30474     30473     30475
     30474     30475     30476     30477     30476     30478     30477     30478
     30479     30480     30479     30481     30480     30481     30482     30483
     30482     30484     30483     30484     30485     30486     30485     30487
     30486     30487     30488     30489     30488     30490     30489     30490
     30491     30492     30491     30493     30492     30493     30494     30495
     30494     30496     30495     30496     30497     30498     30497     30499
     30498     30499     30500     30501     30500     30502     30501     30502
     30503     30504     30503     30505     30504     30505     30506     30507
     30506     30508     30507     30508     30509     30510     30509     30511
     30510     30511     30512     30513     30512     30514     30513     30514
     30515     30516     30515     30517     30516     30517     30518     30519
     30518     30520     30519     30520     30521     30522     30521     30523
     30522     30523     30524     30525     30524     30526     30525     30526
     30527     30528     30527     30529     30528     30529     30530     30531
     30530     30532     30531     30532     30533     30534     30533     30535
     30534     30535     30536     30537     30536     30538     30537     30538
     30539     30540     30539     30541     30540     30541     30542     30543
     30542     30544     30543     30544     30545     30546     30545     30547
     30546     30547     30548     30549     30548     30550     30549     30550
     30551     30552     30551     30553     30552     30553     30554     30555
     30554     30556     30555     30556     30557     30558     30557     30559
     30558     30559     30560     30561     30560     30562     30561     30562
     30563     30564     30563     30565     30564     30565     30566     30567
     30566     30568     30567     30568     30569     30570     30569     30571
     30570     30571     30572     30573     30572     30574     30573     30574
     30575     30576     30575     30577     30576     30577     30578     30579
     30578     30580     30579     30580     30581     30582     30581     30583
     30582     30583     30584     30585     30584     30586     30585     30586
     30587     30588     30587     30589     30588     30589     30590     30591
     30590     30592     30591     30592     30593     30594     30593     30595
     30594     30595     30596     30597     30596     30598     30597     30598
     30599     30600     30599     30601     30600     30601     30602     30603
     30602     30604     30603     30604     30605     30606     30605     30607
     30606     30607     30608     30609     30608     30610     30609     30610
     30611     30612     30611     30613     30612     30613     30614     30615
     30614     30616     30615     30616     30617     30618     30617     30619
     30618     30619     30620     30621     30620     30622     30621     30622
     30623     30624     30623     30625     30624     30625     30626     30627
     30626     30628     30627     30628     30629     30630     30629     30631
     30630     30631     30632     30633     30632     30634     30633     30634
     30635     30636     30635     30637     30636     30637     30638     30639
     30638     30640     30639     30640     30641     30642     30641     30643
     30642     30643     30644     30645     30644     30646     30645     30646
     30647     30648     30647     30649     30648     30649     30650     30651
     30650     30652     30651     30652     30653     30654     30653     30655
     30654     30655     30656     30657     30656     30658     30657     30658
     30659     30660     30659     30661     30660     30661     30662     30663
     30662     30664     30663     30664     30665     30666     30665     30667
     30666     30667     30668     30669     30668     30670     30669     30670
     30671     30672     30671     30673     30672     30673     30674     30675
     30674     30676     30675     30676     30677     30678     30677     30679
     30678     30679     30680     30681     30680     30682     30681     30682
     30683     30684     30683     30685     30684     30685     30686     30687
     30686     30688     30687     30688     30689     30690     30689     30691
     30690     30691     30692     30693     30692     30694     30693     30694
     30695     30696     30695     30697     30696     30697     30698     30699
     30698     30700     30699     30700     30701     30702     30701     30703
     30702     30703     30704     30705     30704     30706     30705     30706
     30707     30708     30707     30709     30708     30709     30710     30711
     30710     30712     30711     30712     30713     30714     30713     30715
     30714     30715     30716     30717     30716     30718     30717     30718
     30719     30720     30719     30721     30720     30721     30722     30723
     30722     30724     30723     30724     30725     30726     30725     30727
     30726     30727     30728     30729     30728     30730     30729     30730
     30731     30732     30731     30733     30732     30733     30734     30735
     30734     30736     30735     30736     30737     30738     30737     30739
     30738     30739     30740     30741     30740     30742     30741     30742
     30743     30744     30743     30745     30744     30745     30746     30747
     30746     30748     30747     30748     30749     30750     30749     30751
     30750     30751     30752     30753     30752     30754     30753     30754
     30755     30756     30755     30757     30756     30757     30758     30759
     30758     30760     30759     30760     30761     30762     30761     30763
     30762     30763     30764     30765     30764     30766     30765     30766
     30767     30768     30767     30769     30768     30769     30770     30771
     30770     30772     30771     30772     30773     30774     30773     30775
     30774     30775     30776     30777     30776     30778     30777     30778
     30779     30780     30779     30781     30780     30781     30782     30783
     30782     30784     30783     30784     30785     30786     30785     30787
     30786     30787     30788     30789     30788     30790     30789     30790
     30791     30792     30791     30793     30792     30793     30794     30795
     30794     30796     30795     30796     30797     30798     30797     30799
     30798     30799     30800     30801     30800     30802     30801     30802
     30803     30804     30803     30805     30804     30805     30806     30807
     30806     30808     30807     30808     30809     30810     30809     30811
     30810     30811     30812     30813     30812     30814     30813     30814
     30815     30816     30815     30817     30816     30817     30818     30819
     30818     30820     30819     30820     30821     30822     30821     30823
     30822     30823     30824     30825     30824     30826     30825     30826
     30827     30828     30827     30829     30828     30829     30830     30831
     30830     30832     30831     30832     30833     30834     30833     30835
     30834     30835     30836     30837     30836     30838     30837     30838
     30839     30840     30839     30841     30840     30841     30842     30843
     30842     30844     30843     30844     30845     30846     30845     30847
     30846     30847     30848     30849     30848     30850     30849     30850
     30851     30852     30851     30853     30852     30853     30854     30855
     30854     30856     30855     30856     30857     30858     30857     30859
     30858     30859     30860     30861     30860     30862     30861     30862
     30863     30864     30863     30865     30864     30865     30866     30867
     30866     30868     30867     30868     30869     30870     30869     30871
     30870     30871     30872     30873     30872     30874     30873     30874
     30875     30876     30875     30877     30876     30877     30878     30879
     30878     30880     30879     30880     30881     30882     30881     30883
     30882     30883     30884     30885     30884     30886     30885     30886
     30887     30888     30887     30889     30888     30889     30890     30891
     30890     30892     30891     30892     30893     30894     30893     30895
     30894     30895     30896     30897     30896     30898     30897     30898
     30899     30900     30899     30901     30900     30901     30902     30903
     30902     30904     30903     30904     30905     30906     30905     30907
     30906     30907     30908     30909     30908     30910     30909     30910
     30911     30912     30911     30913     30912     30913     30914     30915
     30914     30916     30915     30916     30917     30918     30917     30919
     30918     30919     30920     30921     30920     30922     30921     30922
     30923     30924     30923     30925     30924     30925     30926     30927
     30926     30928     30927     30928     30929     30930     30929     30931
     30930     30931     30932     30933     30932     30934     30933     30934
     30935     30936     30935     30937     30936     30937     30938     30939
     30938     30940     30939     30940     30941     30942     30941     30943
     30942     30943     30944     30945     30944     30946     30945     30946
     30947     30948     30947     30949     30948     30949     30950     30951
     30950     30952     30951     30952     30953     30954     30953     30955
     30954     30955     30956     30957     30956     30958     30957     30958
     30959     30960     30959     30961     30960     30961     30962     30963
     30962     30964     30963     30964     30965     30966     30965     30967
     30966     30967     30968     30969     30968     30970     30969     30970
     30971     30972     30971     30973     30972     30973     30974     30975
     30974     30976     30975     30976     30977     30978     30977     30979
     30978     30979     30980     30981     30980     30982     30981     30982
     30983     30984     30983     30985     30984     30985     30986     30987
     30986     30988     30987     30988     30989     30990     30989     30991
     30990     30991     30992     30993     30992     30994     30993     30994
     30995     30996     30995     30997     30996     30997     30998     30999
     30998     31000     30999     31000     31001     31002     31001     31003
     31002     31003     31004     31005     31004     31006     31005     31006
     31007     31008     31007     31009     31008     31009     31010     31011
     31010     31012     31011     31012     31013     31014     31013     31015
     31014     31015     31016     31017     31016     31018     31017     31018
     31019     31020     31019     31021     31020     31021     31022     31023
     31022     31024     31023     31024     31025     31026     31025     31027
     31026     31027     31028     31029     31028     31030     31029     31030
     31031     31032     31031     31033     31032     31033     31034     31035
     31034     31036     31035     31036     31037     31038     31037     31039
     31038     31039     31040     31041     31040     31042     31041     31042
     31043     31044     31043     31045     31044     31045     31046     31047
     31046     31048     31047     31048     31049     31050     31049     31051
     31050     31051     31052     31053     31052     31054     31053     31054
     31055     31056     31055     31057     31056     31057     31058     31059
     31058     31060     31059     31060     31061     31062     31061     31063
     31062     31063     31064     31065     31064     31066     31065     31066
     31067     31068     31067     31069     31068     31069     31070     31071
     31070     31072     31071     31072     31073     31074     31073     31075
     31074     31075     31076     31077     31076     31078     31077     31078
     31079     31080     31079     31081     31080     31081     31082     31083
     31082     31084     31083     31084     31085     31086     31085     31087
     31086     31087     31088     31089     31088     31090     31089     31090
     31091     31092     31091     31093     31092     31093     31094     31095
     31094     31096     31095     31096     31097     31098     31097     31099
     31098     31099     31100     31101     31100     31102     31101     31102
     31103     31104     31103     31105     31104     31105     31106     31107
     31106     31108     31107     31108     31109     31110     31109     31111
     31110     31111     31112     31113     31112     31114     31113     31114
     31115     31116     31115     31117     31116     31117     31118     31119
     31118     31120     31119     31120     31121     31122     31121     31123
     31122     31123     31124     31125     31124     31126     31125     31126
     31127     31128     31127     31129     31128     31129     31130     31131
     31130     31132     31131     31132     31133     31134     31133     31135
     31134     31135     31136     31137     31136     31138     31137     31138
     31139     31140     31139     31141     31140     31141     31142     31143
     31142     31144     31143     31144     31145     31146     31145     31147
     31146     31147     31148     31149     31148     31150     31149     31150
     31151     31152     31151     31153     31152     31153     31154     31155
     31154     31156     31155     31156     31157     31158     31157     31159
     31158     31159     31160     31161     31160     31162     31161     31162
     31163     31164     31163     31165     31164     31165     31166     31167
     31166     31168     31167     31168     31169     31170     31169     31171
     31170     31171     31172     31173     31172     31174     31173     31174
     31175     31176     31175     31177     31176     31177     31178     31179
     31178     31180     31179     31180     31181     31182     31181     31183
     31182     31183     31184     31185     31184     31186     31185     31186
     31187     31188     31187     31189     31188     31189     31190     31191
     31190     31192     31191     31192     31193     31194     31193     31195
     31194     31195     31196     31197     31196     31198     31197     31198
     31199     31200     31199     31201     31200     31201     31202     31203
     31202     31204     31203     31204     31205     31206     31205     31207
     31206     31207     31208     31209     31208     31210     31209     31210
     31211     31212     31211     31213     31212     31213     31214     31215
     31214     31216     31215     31216     31217     31218     31217     31219
     31218     31219     31220     31221     31220     31222     31221     31222
     31223     31224     31223     31225     31224     31225     31226     31227
     31226     31228     31227     31228     31229     31230     31229     31231
     31230     31231     31232     31233     31232     31234     31233     31234
     31235     31236     31235     31237     31236     31237     31238     31239
     31238     31240     31239     31240     31241     31242     31241     31243
     31242     31243     31244     31245     31244     31246     31245     31246
     31247     31248     31247     31249     31248     31249     31250     31251
     31250     31252     31251     31252     31253     31254     31253     31255
     31254     31255     31256     31257     31256     31258     31257     31258
     31259     31260     31259     31261     31260     31261     31262     31263
     31262     31264     31263     31264     31265     31266     31265     31267
     31266     31267     31268     31269     31268     31270     31269     31270
     31271     31272     31271     31273     31272     31273     31274     31275
     31274     31276     31275     31276     31277     31278     31277     31279
     31278     31279     31280     31281     31280     31282     31281     31282
     31283     31284     31283     31285     31284     31285     31286     31287
     31286     31288     31287     31288     31289     31290     31289     31291
     31290     31291     31292     31293     31292     31294     31293     31294
     31295     31296     31295     31297     31296     31297     31298     31299
     31298     31300     31299     31300     31301     31302     31301     31303
     31302     31303     31304     31305     31304     31306     31305     31306
     31307     31308     31307     31309     31308     31309     31310     31311
     31310     31312     31311     31312     31313     31314     31313     31315
     31314     31315     31316     31317     31316     31318     31317     31318
     31319     31320     31319     31321     31320     31321     31322     31323
     31322     31324     31323     31324     31325     31326     31325     31327
     31326     31327     31328     31329     31328     31330     31329     31330
     31331     31332     31331     31333     31332     31333     31334     31335
     31334     31336     31335     31336     31337     31338     31337     31339
     31338     31339     31340     31341     31340     31342     31341     31342
     31343     31344     31343     31345     31344     31345     31346     31347
     31346     31348     31347     31348     31349     31350     31349     31351
     31350     31351     31352     31353     31352     31354     31353     31354
     31355     31356     31355     31357     31356     31357     31358     31359
     31358     31360     31359     31360     31361     31362     31361     31363
     31362     31363     31364     31365     31364     31366     31365     31366
     31367     31368     31367     31369     31368     31369     31370     31371
     31370     31372     31371     31372     31373     31374     31373     31375
     31374     31375     31376     31377     31376     31378     31377     31378
     31379     31380     31379     31381     31380     31381     31382     31383
     31382     31384     31383     31384     31385     31386     31385     31387
     31386     31387     31388     31389     31388     31390     31389     31390
     31391     31392     31391     31393     31392     31393     31394     31395
     31394     31396     31395     31396     31397     31398     31397     31399
     31398     31399     31400     31401     31400     31402     31401     31402
     31403     31404     31403     31405     31404     31405     31406     31407
     31406     31408     31407     31408     31409     31410     31409     31411
     31410     31411     31412     31413     31412     31414     31413     31414
     31415     31416     31415     31417     31416     31417     31418     31419
     31418     31420     31419     31420     31421     31422     31421     31423
     31422     31423     31424     31425     31424     31426     31425     31426
     31427     31428     31427     31429     31428     31429     31430     31431
     31430     31432     31431     31432     31433     31434     31433     31435
     31434     31435     31436     31437     31436     31438     31437     31438
     31439     31440     31439     31441     31440     31441     31442     31443
     31442     31444     31443     31444     31445     31446     31445     31447
     31446     31447     31448     31449     31448     31450     31449     31450
     31451     31452     31451     31453     31452     31453     31454     31455
     31454     31456     31455     31456     31457     31458     31457     31459
     31458     31459     31460     31461     31460     31462     31461     31462
     31463     31464     31463     31465     31464     31465     31466     31467
     31466     31468     31467     31468     31469     31470     31469     31471
     31470     31471     31472     31473     31472     31474     31473     31474
     31475     31476     31475     31477     31476     31477     31478     31479
     31478     31480     31479     31480     31481     31482     31481     31483
     31482     31483     31484     31485     31484     31486     31485     31486
     31487     31488     31487     31489     31488     31489     31490     31491
     31490     31492     31491     31492     31493     31494     31493     31495
     31494     31495     31496     31497     31496     31498     31497     31498
     31499     31500     31499     31501     31500     31501     31502     31503
     31502     31504     31503     31504     31505     31506     31505     31507
     31506     31507     31508     31509     31508     31510     31509     31510
     31511     31512     31511     31513     31512     31513     31514     31515
     31514     31516     31515     31516     31517     31518     31517     31519
     31518     31519     31520     31521     31520     31522     31521     31522
     31523     31524     31523     31525     31524     31525     31526     31527
     31526     31528     31527     31528     31529     31530     31529     31531
     31530     31531     31532     31533     31532     31534     31533     31534
     31535     31536     31535     31537     31536     31537     31538     31539
     31538     31540     31539     31540     31541     31542     31541     31543
     31542     31543     31544     31545     31544     31546     31545     31546
     31547     31548     31547     31549     31548     31549     31550     31551
     31550     31552     31551     31552     31553     31554     31553     31555
     31554     31555     31556     31557     31556     31558     31557     31558
     31559     31560     31559     31561     31560     31561     31562     31563
     31562     31564     31563     31564     31565     31566     31565     31567
     31566     31567     31568     31569     31568     31570     31569     31570
     31571     31572     31571     31573     31572     31573     31574     31575
     31574     31576     31575     31576     31577     31578     31577     31579
     31578     31579     31580     31581     31580     31582     31581     31582
     31583     31584     31583     31585     31584     31585     31586     31587
     31586     31588     31587     31588     31589     31590     31589     31591
     31590     31591     31592     31593     31592     31594     31593     31594
     31595     31596     31595     31597     31596     31597     31598     31599
     31598     31600     31599     31600     31601     31602     31601     31603
     31602     31603     31604     31605     31604     31606     31605     31606
     31607     31608     31607     31609     31608     31609     31610     31611
     31610     31612     31611     31612     31613     31614     31613     31615
     31614     31615     31616     31617     31616     31618     31617     31618
     31619     31620     31619     31621     31620     31621     31622     31623
     31622     31624     31623     31624     31625     31626     31625     31627
     31626     31627     31628     31629     31628     31630     31629     31630
     31631     31632     31631     31633     31632     31633     31634     31635
     31634     31636     31635     31636     31637     31638     31637     31639
     31638     31639     31640     31641     31640     31642     31641     31642
     31643     31644     31643     31645     31644     31645     31646     31647
     31646     31648     31647     31648     31649     31650     31649     31651
     31650     31651     31652     31653     31652     31654     31653     31654
     31655     31656     31655     31657     31656     31657     31658     31659
     31658     31660     31659     31660     31661     31662     31661     31663
     31662     31663     31664     31665     31664     31666     31665     31666
     31667     31668     31667     31669     31668     31669     31670     31671
     31670     31672     31671     31672     31673     31674     31673     31675
     31674     31675     31676     31677     31676     31678     31677     31678
     31679     31680     31679     31681     31680     31681     31682     31683
     31682     31684     31683     31684     31685     31686     31685     31687
     31686     31687     31688     31689     31688     31690     31689     31690
     31691     31692     31691     31693     31692     31693     31694     31695
     31694     31696     31695     31696     31697     31698     31697     31699
     31698     31699     31700     31701     31700     31702     31701     31702
     31703     31704     31703     31705     31704     31705     31706     31707
     31706     31708     31707     31708     31709     31710     31709     31711
     31710     31711     31712     31713     31712     31714     31713     31714
     31715     31716     31715     31717     31716     31717     31718     31719
     31718     31720     31719     31720     31721     31722     31721     31723
     31722     31723     31724     31725     31724     31726     31725     31726
     31727     31728     31727     31729     31728     31729     31730     31731
     31730     31732     31731     31732     31733     31734     31733     31735
     31734     31735     31736     31737     31736     31738     31737     31738
     31739     31740     31739     31741     31740     31741     31742     31743
     31742     31744     31743     31744     31745     31746     31745     31747
     31746     31747     31748     31749     31748     31750     31749     31750
     31751     31752     31751     31753     31752     31753     31754     31755
     31754     31756     31755     31756     31757     31758     31757     31759
     31758     31759     31760     31761     31760     31762     31761     31762
     31763     31764     31763     31765     31764     31765     31766     31767
     31766     31768     31767     31768     31769     31770     31769     31771
     31770     31771     31772     31773     31772     31774     31773     31774
     31775     31776     31775     31777     31776     31777     31778     31779
     31778     31780     31779     31780     31781     31782     31781     31783
     31782     31783     31784     31785     31784     31786     31785     31786
     31787     31788     31787     31789     31788     31789     31790     31791
     31790     31792     31791     31792     31793     31794     31793     31795
     31794     31795     31796     31797     31796     31798     31797     31798
     31799     31800     31799     31801     31800     31801     31802     31803
     31802     31804     31803     31804     31805     31806     31805     31807
     31806     31807     31808     31809     31808     31810     31809     31810
     31811     31812     31811     31813     31812     31813     31814     31815
     31814     31816     31815     31816     31817     31818     31817     31819
     31818     31819     31820     31821     31820     31822     31821     31822
     31823     31824     31823     31825     31824     31825     31826     31827
     31826     31828     31827     31828     31829     31830     31829     31831
     31830     31831     31832     31833     31832     31834     31833     31834
     31835     31836     31835     31837     31836     31837     31838     31839
     31838     31840     31839     31840     31841     31842     31841     31843
     31842     31843     31844     31845     31844     31846     31845     31846
     31847     31848     31847     31849     31848     31849     31850     31851
     31850     31852     31851     31852     31853     31854     31853     31855
     31854     31855     31856     31857     31856     31858     31857     31858
     31859     31860     31859     31861     31860     31861     31862     31863
     31862     31864     31863     31864     31865     31866     31865     31867
     31866     31867     31868     31869     31868     31870     31869     31870
     31871     31872     31871     31873     31872     31873     31874     31875
     31874     31876     31875     31876     31877     31878     31877     31879
     31878     31879     31880     31881     31880     31882     31881     31882
     31883     31884     31883     31885     31884     31885     31886     31887
     31886     31888     31887     31888     31889     31890     31889     31891
     31890     31891     31892     31893     31892     31894     31893     31894
     31895     31896     31895     31897     31896     31897     31898     31899
     31898     31900     31899     31900     31901     31902     31901     31903
     31902     31903     31904     31905     31904     31906     31905     31906
     31907     31908     31907     31909     31908     31909     31910     31911
     31910     31912     31911     31912     31913     31914     31913     31915
     31914     31915     31916     31917     31916     31918     31917     31918
     31919     31920     31919     31921     31920     31921     31922     31923
     31922     31924     31923     31924     31925     31926     31925     31927
     31926     31927     31928     31929     31928     31930     31929     31930
     31931     31932     31931     31933     31932     31933     31934     31935
     31934     31936     31935     31936     31937     31938     31937     31939
     31938     31939     31940     31941     31940     31942     31941     31942
     31943     31944     31943     31945     31944     31945     31946     31947
     31946     31948     31947     31948     31949     31950     31949     31951
     31950     31951     31952     31953     31952     31954     31953     31954
     31955     31956     31955     31957     31956     31957     31958     31959
     31958     31960     31959     31960     31961     31962     31961     31963
     31962     31963     31964     31965     31964     31966     31965     31966
     31967     31968     31967     31969     31968     31969     31970     31971
     31970     31972     31971     31972     31973     31974     31973     31975
     31974     31975     31976     31977     31976     31978     31977     31978
     31979     31980     31979     31981     31980     31981     31982     31983
     31982     31984     31983     31984     31985     31986     31985     31987
     31986     31987     31988     31989     31988     31990     31989     31990
     31991     31992     31991     31993     31992     31993     31994     31995
     31994     31996     31995     31996     31997     31998     31997     31999
     31998     31999     32000     32001     32000     32002     32001     32002
     32003     32004     32003     32005     32004     32005     32006     32007
     32006     32008     32007     32008     32009     32010     32009     32011
     32010     32011     32012     32013     32012     32014     32013     32014
     32015     32016     32015     32017     32016     32017     32018     32019
     32018     32020     32019     32020     32021     32022     32021     32023
     32022     32023     32024     32025     32024     32026     32025     32026
     32027     32028     32027     32029     32028     32029     32030     32031
     32030     32032     32031     32032     32033     32034     32033     32035
     32034     32035     32036     32037     32036     32038     32037     32038
     32039     32040     32039     32041     32040     32041     32042     32043
     32042     32044     32043     32044     32045     32046     32045     32047
     32046     32047     32048     32049     32048     32050     32049     32050
     32051     32052     32051     32053     32052     32053     32054     32055
     32054     32056     32055     32056     32057     32058     32057     32059
     32058     32059     32060     32061     32060     32062     32061     32062
     32063     32064     32063     32065     32064     32065     32066     32067
     32066     32068     32067     32068     32069     32070     32069     32071
     32070     32071     32072     32073     32072     32074     32073     32074
     32075     32076     32075     32077     32076     32077     32078     32079
     32078     32080     32079     32080     32081     32082     32081     32083
     32082     32083     32084     32085     32084     32086     32085     32086
     32087     32088     32087     32089     32088     32089     32090     32091
     32090     32092     32091     32092     32093     32094     32093     32095
     32094     32095     32096     32097     32096     32098     32097     32098
     32099     32100     32099     32101     32100     32101     32102     32103
     32102     32104     32103     32104     32105     32106     32105     32107
     32106     32107     32108     32109     32108     32110     32109     32110
     32111     32112     32111     32113     32112     32113     32114     32115
     32114     32116     32115     32116     32117     32118     32117     32119
     32118     32119     32120     32121     32120     32122     32121     32122
     32123     32124     32123     32125     32124     32125     32126     32127
     32126     32128     32127     32128     32129     32130     32129     32131
     32130     32131     32132     32133     32132     32134     32133     32134
     32135     32136     32135     32137     32136     32137     32138     32139
     32138     32140     32139     32140     32141     32142     32141     32143
     32142     32143     32144     32145     32144     32146     32145     32146
     32147     32148     32147     32149     32148     32149     32150     32151
     32150     32152     32151     32152     32153     32154     32153     32155
     32154     32155     32156     32157     32156     32158     32157     32158
     32159     32160     32159     32161     32160     32161     32162     32163
     32162     32164     32163     32164     32165     32166     32165     32167
     32166     32167     32168     32169     32168     32170     32169     32170
     32171     32172     32171     32173     32172     32173     32174     32175
     32174     32176     32175     32176     32177     32178     32177     32179
     32178     32179     32180     32181     32180     32182     32181     32182
     32183     32184     32183     32185     32184     32185     32186     32187
     32186     32188     32187     32188     32189     32190     32189     32191
     32190     32191     32192     32193     32192     32194     32193     32194
     32195     32196     32195     32197     32196     32197     32198     32199
     32198     32200     32199     32200     32201     32202     32201     32203
     32202     32203     32204     32205     32204     32206     32205     32206
     32207     32208     32207     32209     32208     32209     32210     32211
     32210     32212     32211     32212     32213     32214     32213     32215
     32214     32215     32216     32217     32216     32218     32217     32218
     32219     32220     32219     32221     32220     32221     32222     32223
     32222     32224     32223     32224     32225     32226     32225     32227
     32226     32227     32228     32229     32228     32230     32229     32230
     32231     32232     32231     32233     32232     32233     32234     32235
     32234     32236     32235     32236     32237     32238     32237     32239
     32238     32239     32240     32241     32240     32242     32241     32242
     32243     32244     32243     32245     32244     32245     32246     32247
     32246     32248     32247     32248     32249     32250     32249     32251
     32250     32251     32252     32253     32252     32254     32253     32254
     32255     32256     32255     32257     32256     32257     32258     32259
     32258     32260     32259     32260     32261     32262     32261     32263
     32262     32263     32264     32265     32264     32266     32265     32266
     32267     32268     32267     32269     32268     32269     32270     32271
     32270     32272     32271     32272     32273     32274     32273     32275
     32274     32275     32276     32277     32276     32278     32277     32278
     32279     32280     32279     32281     32280     32281     32282     32283
     32282     32284     32283     32284     32285     32286     32285     32287
     32286     32287     32288     32289     32288     32290     32289     32290
     32291     32292     32291     32293     32292     32293     32294     32295
     32294     32296     32295     32296     32297     32298     32297     32299
     32298     32299     32300     32301     32300     32302     32301     32302
     32303     32304     32303     32305     32304     32305     32306     32307
     32306     32308     32307     32308     32309     32310     32309     32311
     32310     32311     32312     32313     32312     32314     32313     32314
     32315     32316     32315     32317     32316     32317     32318     32319
     32318     32320     32319     32320     32321     32322     32321     32323
     32322     32323     32324     32325     32324     32326     32325     32326
     32327     32328     32327     32329     32328     32329     32330     32331
     32330     32332     32331     32332     32333     32334     32333     32335
     32334     32335     32336     32337     32336     32338     32337     32338
     32339     32340     32339     32341     32340     32341     32342     32343
     32342     32344     32343     32344     32345     32346     32345     32347
     32346     32347     32348     32349     32348     32350     32349     32350
     32351     32352     32351     32353     32352     32353     32354     32355
     32354     32356     32355     32356     32357     32358     32357     32359
     32358     32359     32360     32361     32360     32362     32361     32362
     32363     32364     32363     32365     32364     32365     32366     32367
     32366     32368     32367     32368     32369     32370     32369     32371
     32370     32371     32372     32373     32372     32374     32373     32374
     32375     32376     32375     32377     32376     32377     32378     32379
     32378     32380     32379     32380     32381     32382     32381     32383
     32382     32383     32384     32385     32384     32386     32385     32386
     32387     32388     32387     32389     32388     32389     32390     32391
     32390     32392     32391     32392     32393     32394     32393     32395
     32394     32395     32396     32397     32396     32398     32397     32398
     32399     32400     32399     32401     32400     32401     32402     32403
     32402     32404     32403     32404     32405     32406     32405     32407
     32406     32407     32408     32409     32408     32410     32409     32410
     32411     32412     32411     32413     32412     32413     32414     32415
     32414     32416     32415     32416     32417     32418     32417     32419
     32418     32419     32420     32421     32420     32422     32421     32422
     32423     32424     32423     32425     32424     32425     32426     32427
     32426     32428     32427     32428     32429     32430     32429     32431
     32430     32431     32432     32433     32432     32434     32433     32434
     32435     32436     32435     32437     32436     32437     32438     32439
     32438     32440     32439     32440     32441     32442     32441     32443
     32442     32443     32444     32445     32444     32446     32445     32446
     32447     32448     32447     32449     32448     32449     32450     32451
     32450     32452     32451     32452     32453     32454     32453     32455
     32454     32455     32456     32457     32456     32458     32457     32458
     32459     32460     32459     32461     32460     32461     32462     32463
     32462     32464     32463     32464     32465     32466     32465     32467
     32466     32467     32468     32469     32468     32470     32469     32470
     32471     32472     32471     32473     32472     32473     32474     32475
     32474     32476     32475     32476     32477     32478     32477     32479
     32478     32479     32480     32481     32480     32482     32481     32482
     32483     32484     32483     32485     32484     32485     32486     32487
     32486     32488     32487     32488     32489     32490     32489     32491
     32490     32491     32492     32493     32492     32494     32493     32494
     32495     32496     32495     32497     32496     32497     32498     32499
     32498     32500     32499     32500     32501     32502     32501     32503
     32502     32503     32504     32505     32504     32506     32505     32506
     32507     32508     32507     32509     32508     32509     32510     32511
     32510     32512     32511     32512     32513     32514     32513     32515
     32514     32515     32516     32517     32516     32518     32517     32518
     32519     32520     32519     32521     32520     32521     32522     32523
     32522     32524     32523     32524     32525     32526     32525     32527
     32526     32527     32528     32529     32528     32530     32529     32530
     32531     32532     32531     32533     32532     32533     32534     32535
     32534     32536     32535     32536     32537     32538     32537     32539
     32538     32539     32540     32541     32540     32542     32541     32542
     32543     32544     32543     32545     32544     32545     32546     32547
     32546     32548     32547     32548     32549     32550     32549     32551
     32550     32551     32552     32553     32552     32554     32553     32554
     32555     32556     32555     32557     32556     32557     32558     32559
     32558     32560     32559     32560     32561     32562     32561     32563
     32562     32563     32564     32565     32564     32566     32565     32566
     32567     32568     32567     32569     32568     32569     32570     32571
     32570     32572     32571     32572     32573     32574     32573     32575
     32574     32575     32576     32577     32576     32578     32577     32578
     32579     32580     32579     32581     32580     32581     32582     32583
     32582     32584     32583     32584     32585     32586     32585     32587
     32586     32587     32588     32589     32588     32590     32589     32590
     32591     32592     32591     32593     32592     32593     32594     32595
     32594     32596     32595     32596     32597     32598     32597     32599
     32598     32599     32600     32601     32600     32602     32601     32602
     32603     32604     32603     32605     32604     32605     32606     32607
     32606     32608     32607     32608     32609     32610     32609     32611
     32610     32611     32612     32613     32612     32614     32613     32614
     32615     32616     32615     32617     32616     32617     32618     32619
     32618     32620     32619     32620     32621     32622     32621     32623
     32622     32623     32624     32625     32624     32626     32625     32626
     32627     32628     32627     32629     32628     32629     32630     32631
     32630     32632     32631     32632     32633     32634     32633     32635
     32634     32635     32636     32637     32636     32638     32637     32638
     32639     32640     32639     32641     32640     32641     32642     32643
     32642     32644     32643     32644     32645     32646     32645     32647
     32646     32647     32648     32649     32648     32650     32649     32650
     32651     32652     32651     32653     32652     32653     32654     32655
     32654     32656     32655     32656     32657     32658     32657     32659
     32658     32659     32660     32661     32660     32662     32661     32662
     32663     32664     32663     32665     32664     32665     32666     32667
     32666     32668     32667     32668     32669     32670     32669     32671
     32670     32671     32672     32673     32672     32674     32673     32674
     32675     32676     32675     32677     32676     32677     32678     32679
     32678     32680     32679     32680     32681     32682     32681     32683
     32682     32683     32684     32685     32684     32686     32685     32686
     32687     32688     32687     32689     32688     32689     32690     32691
     32690     32692     32691     32692     32693     32694     32693     32695
     32694     32695     32696     32697     32696     32698     32697     32698
     32699     32700     32699     32701     32700     32701     32702     32703
     32702     32704     32703     32704     32705     32706     32705     32707
     32706     32707     32708     32709     32708     32710     32709     32710
     32711     32712     32711     32713     32712     32713     32714     32715
     32714     32716     32715     32716     32717     32718     32717     32719
     32718     32719     32720     32721     32720     32722     32721     32722
     32723     32724     32723     32725     32724     32725     32726     32727
     32726     32728     32727     32728     32729     32730     32729     32731
     32730     32731     32732     32733     32732     32734     32733     32734
     32735     32736     32735     32737     32736     32737     32738     32739
     32738     32740     32739     32740     32741     32742     32741     32743
     32742     32743     32744     32745     32744     32746     32745     32746
     32747     32748     32747     32749     32748     32749     32750     32751
     32750     32752     32751     32752     32753     32754     32753     32755
     32754     32755     32756     32757     32756     32758     32757     32758
     32759     32760     32759     32761     32760     32761     32762     32763
     32762     32764     32763     32764     32765     32766     32765     32767
     32766     32767     32768     32769     32768     32770     32769     32770
     32771     32772     32771     32773     32772     32773     32774     32775
     32774     32776     32775     32776     32777     32778     32777     32779
     32778     32779     32780     32781     32780     32782     32781     32782
     32783     32784     32783     32785     32784     32785     32786     32787
     32786     32788     32787     32788     32789     32790     32789     32791
     32790     32791     32792     32793     32792     32794     32793     32794
     32795     32796     32795     32797     32796     32797     32798     32799
     32798     32800     32799     32800     32801     32802     32801     32803
     32802     32803     32804     32805     32804     32806     32805     32806
     32807     32808     32807     32809     32808     32809     32810     32811
     32810     32812     32811     32812     32813     32814     32813     32815
     32814     32815     32816     32817     32816     32818     32817     32818
     32819     32820     32819     32821     32820     32821     32822     32823
     32822     32824     32823     32824     32825     32826     32825     32827
     32826     32827     32828     32829     32828     32830     32829     32830
     32831     32832     32831     32833     32832     32833     32834     32835
     32834     32836     32835     32836     32837     32838     32837     32839
     32838     32839     32840     32841     32840     32842     32841     32842
     32843     32844     32843     32845     32844     32845     32846     32847
     32846     32848     32847     32848     32849     32850     32849     32851
     32850     32851     32852     32853     32852     32854     32853     32854
     32855     32856     32855     32857     32856     32857     32858     32859
     32858     32860     32859     32860     32861     32862     32861     32863
     32862     32863     32864     32865     32864     32866     32865     32866
     32867     32868     32867     32869     32868     32869     32870     32871
     32870     32872     32871     32872     32873     32874     32873     32875
     32874     32875     32876     32877     32876     32878     32877     32878
     32879     32880     32879     32881     32880     32881     32882     32883
     32882     32884     32883     32884     32885     32886     32885     32887
     32886     32887     32888     32889     32888     32890     32889     32890
     32891     32892     32891     32893     32892     32893     32894     32895
     32894     32896     32895     32896     32897     32898     32897     32899
     32898     32899     32900     32901     32900     32902     32901     32902
     32903     32904     32903     32905     32904     32905     32906     32907
     32906     32908     32907     32908     32909     32910     32909     32911
     32910     32911     32912     32913     32912     32914     32913     32914
     32915     32916     32915     32917     32916     32917     32918     32919
     32918     32920     32919     32920     32921     32922     32921     32923
     32922     32923     32924     32925     32924     32926     32925     32926
     32927     32928     32927     32929     32928     32929     32930     32931
     32930     32932     32931     32932     32933     32934     32933     32935
     32934     32935     32936     32937     32936     32938     32937     32938
     32939     32940     32939     32941     32940     32941     32942     32943
     32942     32944     32943     32944     32945     32946     32945     32947
     32946     32947     32948     32949     32948     32950     32949     32950
     32951     32952     32951     32953     32952     32953     32954     32955
     32954     32956     32955     32956     32957     32958     32957     32959
     32958     32959     32960     32961     32960     32962     32961     32962
     32963     32964     32963     32965     32964     32965     32966     32967
     32966     32968     32967     32968     32969     32970     32969     32971
     32970     32971     32972     32973     32972     32974     32973     32974
     32975     32976     32975     32977     32976     32977     32978     32979
     32978     32980     32979     32980     32981     32982     32981     32983
     32982     32983     32984     32985     32984     32986     32985     32986
     32987     32988     32987     32989     32988     32989     32990     32991
     32990     32992     32991     32992     32993     32994     32993     32995
     32994     32995     32996     32997     32996     32998     32997     32998
     32999     33000     32999     33001     33000     33001     33002     33003
     33002     33004     33003     33004     33005     33006     33005     33007
     33006     33007     33008     33009     33008     33010     33009     33010
     33011     33012     33011     33013     33012     33013     33014     33015
     33014     33016     33015     33016     33017     33018     33017     33019
     33018     33019     33020     33021     33020     33022     33021     33022
     33023     33024     33023     33025     33024     33025     33026     33027
     33026     33028     33027     33028     33029     33030     33029     33031
     33030     33031     33032     33033     33032     33034     33033     33034
     33035     33036     33035     33037     33036     33037     33038     33039
     33038     33040     33039     33040     33041     33042     33041     33043
     33042     33043     33044     33045     33044     33046     33045     33046
     33047     33048     33047     33049     33048     33049     33050     33051
     33050     33052     33051     33052     33053     33054     33053     33055
     33054     33055     33056     33057     33056     33058     33057     33058
     33059     33060     33059     33061     33060     33061     33062     33063
     33062     33064     33063     33064     33065     33066     33065     33067
     33066     33067     33068     33069     33068     33070     33069     33070
     33071     33072     33071     33073     33072     33073     33074     33075
     33074     33076     33075     33076     33077     33078     33077     33079
     33078     33079     33080     33081     33080     33082     33081     33082
     33083     33084     33083     33085     33084     33085     33086     33087
     33086     33088     33087     33088     33089     33090     33089     33091
     33090     33091     33092     33093     33092     33094     33093     33094
     33095     33096     33095     33097     33096     33097     33098     33099
     33098     33100     33099     33100     33101     33102     33101     33103
     33102     33103     33104     33105     33104     33106     33105     33106
     33107     33108     33107     33109     33108     33109     33110     33111
     33110     33112     33111     33112     33113     33114     33113     33115
     33114     33115     33116     33117     33116     33118     33117     33118
     33119     33120     33119     33121     33120     33121     33122     33123
     33122     33124     33123     33124     33125     33126     33125     33127
     33126     33127     33128     33129     33128     33130     33129     33130
     33131     33132     33131     33133     33132     33133     33134     33135
     33134     33136     33135     33136     33137     33138     33137     33139
     33138     33139     33140     33141     33140     33142     33141     33142
     33143     33144     33143     33145     33144     33145     33146     33147
     33146     33148     33147     33148     33149     33150     33149     33151
     33150     33151     33152     33153     33152     33154     33153     33154
     33155     33156     33155     33157     33156     33157     33158     33159
     33158     33160     33159     33160     33161     33162     33161     33163
     33162     33163     33164     33165     33164     33166     33165     33166
     33167     33168     33167     33169     33168     33169     33170     33171
     33170     33172     33171     33172     33173     33174     33173     33175
     33174     33175     33176     33177     33176     33178     33177     33178
     33179     33180     33179     33181     33180     33181     33182     33183
     33182     33184     33183     33184     33185     33186     33185     33187
     33186     33187     33188     33189     33188     33190     33189     33190
     33191     33192     33191     33193     33192     33193     33194     33195
     33194     33196     33195     33196     33197     33198     33197     33199
     33198     33199     33200     33201     33200     33202     33201     33202
     33203     33204     33203     33205     33204     33205     33206     33207
     33206     33208     33207     33208     33209     33210     33209     33211
     33210     33211     33212     33213     33212     33214     33213     33214
     33215     33216     33215     33217     33216     33217     33218     33219
     33218     33220     33219     33220     33221     33222     33221     33223
     33222     33223     33224     33225     33224     33226     33225     33226
     33227     33228     33227     33229     33228     33229     33230     33231
     33230     33232     33231     33232     33233     33234     33233     33235
     33234     33235     33236     33237     33236     33238     33237     33238
     33239     33240     33239     33241     33240     33241     33242     33243
     33242     33244     33243     33244     33245     33246     33245     33247
     33246     33247     33248     33249     33248     33250     33249     33250
     33251     33252     33251     33253     33252     33253     33254     33255
     33254     33256     33255     33256     33257     33258     33257     33259
     33258     33259     33260     33261     33260     33262     33261     33262
     33263     33264     33263     33265     33264     33265     33266     33267
     33266     33268     33267     33268     33269     33270     33269     33271
     33270     33271     33272     33273     33272     33274     33273     33274
     33275     33276     33275     33277     33276     33277     33278     33279
     33278     33280     33279     33280     33281     33282     33281     33283
     33282     33283     33284     33285     33284     33286     33285     33286
     33287     33288     33287     33289     33288     33289     33290     33291
     33290     33292     33291     33292     33293     33294     33293     33295
     33294     33295     33296     33297     33296     33298     33297     33298
     33299     33300     33299     33301     33300     33301     33302     33303
     33302     33304     33303     33304     33305     33306     33305     33307
     33306     33307     33308     33309     33308     33310     33309     33310
     33311     33312     33311     33313     33312     33313     33314     33315
     33314     33316     33315     33316     33317     33318     33317     33319
     33318     33319     33320     33321     33320     33322     33321     33322
     33323     33324     33323     33325     33324     33325     33326     33327
     33326     33328     33327     33328     33329     33330     33329     33331
     33330     33331     33332     33333     33332     33334     33333     33334
     33335     33336     33335     33337     33336     33337     33338     33339
     33338     33340     33339     33340     33341     33342     33341     33343
     33342     33343     33344     33345     33344     33346     33345     33346
     33347     33348     33347     33349     33348     33349     33350     33351
     33350     33352     33351     33352     33353     33354     33353     33355
     33354     33355     33356     33357     33356     33358     33357     33358
     33359     33360     33359     33361     33360     33361     33362     33363
     33362     33364     33363     33364     33365     33366     33365     33367
     33366     33367     33368     33369     33368     33370     33369     33370
     33371     33372     33371     33373     33372     33373     33374     33375
     33374     33376     33375     33376     33377     33378     33377     33379
     33378     33379     33380     33381     33380     33382     33381     33382
     33383     33384     33383     33385     33384     33385     33386     33387
     33386     33388     33387     33388     33389     33390     33389     33391
     33390     33391     33392     33393     33392     33394     33393     33394
     33395     33396     33395     33397     33396     33397     33398     33399
     33398     33400     33399     33400     33401     33402     33401     33403
     33402     33403     33404     33405     33404     33406     33405     33406
     33407     33408     33407     33409     33408     33409     33410     33411
     33410     33412     33411     33412     33413     33414     33413     33415
     33414     33415     33416     33417     33416     33418     33417     33418
     33419     33420     33419     33421     33420     33421     33422     33423
     33422     33424     33423     33424     33425     33426     33425     33427
     33426     33427     33428     33429     33428     33430     33429     33430
     33431     33432     33431     33433     33432     33433     33434     33435
     33434     33436     33435     33436     33437     33438     33437     33439
     33438     33439     33440     33441     33440     33442     33441     33442
     33443     33444     33443     33445     33444     33445     33446     33447
     33446     33448     33447     33448     33449     33450     33449     33451
     33450     33451     33452     33453     33452     33454     33453     33454
     33455     33456     33455     33457     33456     33457     33458     33459
     33458     33460     33459     33460     33461     33462     33461     33463
     33462     33463     33464     33465     33464     33466     33465     33466
     33467     33468     33467     33469     33468     33469     33470     33471
     33470     33472     33471     33472     33473     33474     33473     33475
     33474     33475     33476     33477     33476     33478     33477     33478
     33479     33480     33479     33481     33480     33481     33482     33483
     33482     33484     33483     33484     33485     33486     33485     33487
     33486     33487     33488     33489     33488     33490     33489     33490
     33491     33492     33491     33493     33492     33493     33494     33495
     33494     33496     33495     33496     33497     33498     33497     33499
     33498     33499     33500     33501     33500     33502     33501     33502
     33503     33504     33503     33505     33504     33505     33506     33507
     33506     33508     33507     33508     33509     33510     33509     33511
     33510     33511     33512     33513     33512     33514     33513     33514
     33515     33516     33515     33517     33516     33517     33518     33519
     33518     33520     33519     33520     33521     33522     33521     33523
     33522     33523     33524     33525     33524     33526     33525     33526
     33527     33528     33527     33529     33528     33529     33530     33531
     33530     33532     33531     33532     33533     33534     33533     33535
     33534     33535     33536     33537     33536     33538     33537     33538
     33539     33540     33539     33541     33540     33541     33542     33543
     33542     33544     33543     33544     33545     33546     33545     33547
     33546     33547     33548     33549     33548     33550     33549     33550
     33551     33552     33551     33553     33552     33553     33554     33555
     33554     33556     33555     33556     33557     33558     33557     33559
     33558     33559     33560     33561     33560     33562     33561     33562
     33563     33564     33563     33565     33564     33565     33566     33567
     33566     33568     33567     33568     33569     33570     33569     33571
     33570     33571     33572     33573     33572     33574     33573     33574
     33575     33576     33575     33577     33576     33577     33578     33579
     33578     33580     33579     33580     33581     33582     33581     33583
     33582     33583     33584     33585     33584     33586     33585     33586
     33587     33588     33587     33589     33588     33589     33590     33591
     33590     33592     33591     33592     33593     33594     33593     33595
     33594     33595     33596     33597     33596     33598     33597     33598
     33599     33600     33599     33601     33600     33601     33602     33603
     33602     33604     33603     33604     33605     33606     33605     33607
     33606     33607     33608     33609     33608     33610     33609     33610
     33611     33612     33611     33613     33612     33613     33614     33615
     33614     33616     33615     33616     33617     33618     33617     33619
     33618     33619     33620     33621     33620     33622     33621     33622
     33623     33624     33623     33625     33624     33625     33626     33627
     33626     33628     33627     33628     33629     33630     33629     33631
     33630     33631     33632     33633     33632     33634     33633     33634
     33635     33636     33635     33637     33636     33637     33638     33639
     33638     33640     33639     33640     33641     33642     33641     33643
     33642     33643     33644     33645     33644     33646     33645     33646
     33647     33648     33647     33649     33648     33649     33650     33651
     33650     33652     33651     33652     33653     33654     33653     33655
     33654     33655     33656     33657     33656     33658     33657     33658
     33659     33660     33659     33661     33660     33661     33662     33663
     33662     33664     33663     33664     33665     33666     33665     33667
     33666     33667     33668     33669     33668     33670     33669     33670
     33671     33672     33671     33673     33672     33673     33674     33675
     33674     33676     33675     33676     33677     33678     33677     33679
     33678     33679     33680     33681     33680     33682     33681     33682
     33683     33684     33683     33685     33684     33685     33686     33687
     33686     33688     33687     33688     33689     33690     33689     33691
     33690     33691     33692     33693     33692     33694     33693     33694
     33695     33696     33695     33697     33696     33697     33698     33699
     33698     33700     33699     33700     33701     33702     33701     33703
     33702     33703     33704     33705     33704     33706     33705     33706
     33707     33708     33707     33709     33708     33709     33710     33711
     33710     33712     33711     33712     33713     33714     33713     33715
     33714     33715     33716     33717     33716     33718     33717     33718
     33719     33720     33719     33721     33720     33721     33722     33723
     33722     33724     33723     33724     33725     33726     33725     33727
     33726     33727     33728     33729     33728     33730     33729     33730
     33731     33732     33731     33733     33732     33733     33734     33735
     33734     33736     33735     33736     33737     33738     33737     33739
     33738     33739     33740     33741     33740     33742     33741     33742
     33743     33744     33743     33745     33744     33745     33746     33747
     33746     33748     33747     33748     33749     33750     33749     33751
     33750     33751     33752     33753     33752     33754     33753     33754
     33755     33756     33755     33757     33756     33757     33758     33759
     33758     33760     33759     33760     33761     33762     33761     33763
     33762     33763     33764     33765     33764     33766     33765     33766
     33767     33768     33767     33769     33768     33769     33770     33771
     33770     33772     33771     33772     33773     33774     33773     33775
     33774     33775     33776     33777     33776     33778     33777     33778
     33779     33780     33779     33781     33780     33781     33782     33783
     33782     33784     33783     33784     33785     33786     33785     33787
     33786     33787     33788     33789     33788     33790     33789     33790
     33791     33792     33791     33793     33792     33793     33794     33795
     33794     33796     33795     33796     33797     33798     33797     33799
     33798     33799     33800     33801     33800     33802     33801     33802
     33803     33804     33803     33805     33804     33805     33806     33807
     33806     33808     33807     33808     33809     33810     33809     33811
     33810     33811     33812     33813     33812     33814     33813     33814
     33815     33816     33815     33817     33816     33817     33818     33819
     33818     33820     33819     33820     33821     33822     33821     33823
     33822     33823     33824     33825     33824     33826     33825     33826
     33827     33828     33827     33829     33828     33829     33830     33831
     33830     33832     33831     33832     33833     33834     33833     33835
     33834     33835     33836     33837     33836     33838     33837     33838
     33839     33840     33839     33841     33840     33841     33842     33843
     33842     33844     33843     33844     33845     33846     33845     33847
     33846     33847     33848     33849     33848     33850     33849     33850
     33851     33852     33851     33853     33852     33853     33854     33855
     33854     33856     33855     33856     33857     33858     33857     33859
     33858     33859     33860     33861     33860     33862     33861     33862
     33863     33864     33863     33865     33864     33865     33866     33867
     33866     33868     33867     33868     33869     33870     33869     33871
     33870     33871     33872     33873     33872     33874     33873     33874
     33875     33876     33875     33877     33876     33877     33878     33879
     33878     33880     33879     33880     33881     33882     33881     33883
     33882     33883     33884     33885     33884     33886     33885     33886
     33887     33888     33887     33889     33888     33889     33890     33891
     33890     33892     33891     33892     33893     33894     33893     33895
     33894     33895     33896     33897     33896     33898     33897     33898
     33899     33900     33899     33901     33900     33901     33902     33903
     33902     33904     33903     33904     33905     33906     33905     33907
     33906     33907     33908     33909     33908     33910     33909     33910
     33911     33912     33911     33913     33912     33913     33914     33915
     33914     33916     33915     33916     33917     33918     33917     33919
     33918     33919     33920     33921     33920     33922     33921     33922
     33923     33924     33923     33925     33924     33925     33926     33927
     33926     33928     33927     33928     33929     33930     33929     33931
     33930     33931     33932     33933     33932     33934     33933     33934
     33935     33936     33935     33937     33936     33937     33938     33939
     33938     33940     33939     33940     33941     33942     33941     33943
     33942     33943     33944     33945     33944     33946     33945     33946
     33947     33948     33947     33949     33948     33949     33950     33951
     33950     33952     33951     33952     33953     33954     33953     33955
     33954     33955     33956     33957     33956     33958     33957     33958
     33959     33960     33959     33961     33960     33961     33962     33963
     33962     33964     33963     33964     33965     33966     33965     33967
     33966     33967     33968     33969     33968     33970     33969     33970
     33971     33972     33971     33973     33972     33973     33974     33975
     33974     33976     33975     33976     33977     33978     33977     33979
     33978     33979     33980     33981     33980     33982     33981     33982
     33983     33984     33983     33985     33984     33985     33986     33987
     33986     33988     33987     33988     33989     33990     33989     33991
     33990     33991     33992     33993     33992     33994     33993     33994
     33995     33996     33995     33997     33996     33997     33998     33999
     33998     34000     33999     34000     34001     34002     34001     34003
     34002     34003     34004     34005     34004     34006     34005     34006
     34007     34008     34007     34009     34008     34009     34010     34011
     34010     34012     34011     34012     34013     34014     34013     34015
     34014     34015     34016     34017     34016     34018     34017     34018
     34019     34020     34019     34021     34020     34021     34022     34023
     34022     34024     34023     34024     34025     34026     34025     34027
     34026     34027     34028     34029     34028     34030     34029     34030
     34031     34032     34031     34033     34032     34033     34034     34035
     34034     34036     34035     34036     34037     34038     34037     34039
     34038     34039     34040     34041     34040     34042     34041     34042
     34043     34044     34043     34045     34044     34045     34046     34047
     34046     34048     34047     34048     34049     34050     34049     34051
     34050     34051     34052     34053     34052     34054     34053     34054
     34055     34056     34055     34057     34056     34057     34058     34059
     34058     34060     34059     34060     34061     34062     34061     34063
     34062     34063     34064     34065     34064     34066     34065     34066
     34067     34068     34067     34069     34068     34069     34070     34071
     34070     34072     34071     34072     34073     34074     34073     34075
     34074     34075     34076     34077     34076     34078     34077     34078
     34079     34080     34079     34081     34080     34081     34082     34083
     34082     34084     34083     34084     34085     34086     34085     34087
     34086     34087     34088     34089     34088     34090     34089     34090
     34091     34092     34091     34093     34092     34093     34094     34095
     34094     34096     34095     34096     34097     34098     34097     34099
     34098     34099     34100     34101     34100     34102     34101     34102
     34103     34104     34103     34105     34104     34105     34106     34107
     34106     34108     34107     34108     34109     34110     34109     34111
     34110     34111     34112     34113     34112     34114     34113     34114
     34115     34116     34115     34117     34116     34117     34118     34119
     34118     34120     34119     34120     34121     34122     34121     34123
     34122     34123     34124     34125     34124     34126     34125     34126
     34127     34128     34127     34129     34128     34129     34130     34131
     34130     34132     34131     34132     34133     34134     34133     34135
     34134     34135     34136     34137     34136     34138     34137     34138
     34139     34140     34139     34141     34140     34141     34142     34143
     34142     34144     34143     34144     34145     34146     34145     34147
     34146     34147     34148     34149     34148     34150     34149     34150
     34151     34152     34151     34153     34152     34153     34154     34155
     34154     34156     34155     34156     34157     34158     34157     34159
     34158     34159     34160     34161     34160     34162     34161     34162
     34163     34164     34163     34165     34164     34165     34166     34167
     34166     34168     34167     34168     34169     34170     34169     34171
     34170     34171     34172     34173     34172     34174     34173     34174
     34175     34176     34175     34177     34176     34177     34178     34179
     34178     34180     34179     34180     34181     34182     34181     34183
     34182     34183     34184     34185     34184     34186     34185     34186
     34187     34188     34187     34189     34188     34189     34190     34191
     34190     34192     34191     34192     34193     34194     34193     34195
     34194     34195     34196     34197     34196     34198     34197     34198
     34199     34200     34199     34201     34200     34201     34202     34203
     34202     34204     34203     34204     34205     34206     34205     34207
     34206     34207     34208     34209     34208     34210     34209     34210
     34211     34212     34211     34213     34212     34213     34214     34215
     34214     34216     34215     34216     34217     34218     34217     34219
     34218     34219     34220     34221     34220     34222     34221     34222
     34223     34224     34223     34225     34224     34225     34226     34227
     34226     34228     34227     34228     34229     34230     34229     34231
     34230     34231     34232     34233     34232     34234     34233     34234
     34235     34236     34235     34237     34236     34237     34238     34239
     34238     34240     34239     34240     34241     34242     34241     34243
     34242     34243     34244     34245     34244     34246     34245     34246
     34247     34248     34247     34249     34248     34249     34250     34251
     34250     34252     34251     34252     34253     34254     34253     34255
     34254     34255     34256     34257     34256     34258     34257     34258
     34259     34260     34259     34261     34260     34261     34262     34263
     34262     34264     34263     34264     34265     34266     34265     34267
     34266     34267     34268     34269     34268     34270     34269     34270
     34271     34272     34271     34273     34272     34273     34274     34275
     34274     34276     34275     34276     34277     34278     34277     34279
     34278     34279     34280     34281     34280     34282     34281     34282
     34283     34284     34283     34285     34284     34285     34286     34287
     34286     34288     34287     34288     34289     34290     34289     34291
     34290     34291     34292     34293     34292     34294     34293     34294
     34295     34296     34295     34297     34296     34297     34298     34299
     34298     34300     34299     34300     34301     34302     34301     34303
     34302     34303     34304     34305     34304     34306     34305     34306
     34307     34308     34307     34309     34308     34309     34310     34311
     34310     34312     34311     34312     34313     34314     34313     34315
     34314     34315     34316     34317     34316     34318     34317     34318
     34319     34320     34319     34321     34320     34321     34322     34323
     34322     34324     34323     34324     34325     34326     34325     34327
     34326     34327     34328     34329     34328     34330     34329     34330
     34331     34332     34331     34333     34332     34333     34334     34335
     34334     34336     34335     34336     34337     34338     34337     34339
     34338     34339     34340     34341     34340     34342     34341     34342
     34343     34344     34343     34345     34344     34345     34346     34347
     34346     34348     34347     34348     34349     34350     34349     34351
     34350     34351     34352     34353     34352     34354     34353     34354
     34355     34356     34355     34357     34356     34357     34358     34359
     34358     34360     34359     34360     34361     34362     34361     34363
     34362     34363     34364     34365     34364     34366     34365     34366
     34367     34368     34367     34369     34368     34369     34370     34371
     34370     34372     34371     34372     34373     34374     34373     34375
     34374     34375     34376     34377     34376     34378     34377     34378
     34379     34380     34379     34381     34380     34381     34382     34383
     34382     34384     34383     34384     34385     34386     34385     34387
     34386     34387     34388     34389     34388     34390     34389     34390
     34391     34392     34391     34393     34392     34393     34394     34395
     34394     34396     34395     34396     34397     34398     34397     34399
     34398     34399     34400     34401     34400     34402     34401     34402
     34403     34404     34403     34405     34404     34405     34406     34407
     34406     34408     34407     34408     34409     34410     34409     34411
     34410     34411     34412     34413     34412     34414     34413     34414
     34415     34416     34415     34417     34416     34417     34418     34419
     34418     34420     34419     34420     34421     34422     34421     34423
     34422     34423     34424     34425     34424     34426     34425     34426
     34427     34428     34427     34429     34428     34429     34430     34431
     34430     34432     34431     34432     34433     34434     34433     34435
     34434     34435     34436     34437     34436     34438     34437     34438
     34439     34440     34439     34441     34440     34441     34442     34443
     34442     34444     34443     34444     34445     34446     34445     34447
     34446     34447     34448     34449     34448     34450     34449     34450
     34451     34452     34451     34453     34452     34453     34454     34455
     34454     34456     34455     34456     34457     34458     34457     34459
     34458     34459     34460     34461     34460     34462     34461     34462
     34463     34464     34463     34465     34464     34465     34466     34467
     34466     34468     34467     34468     34469     34470     34469     34471
     34470     34471     34472     34473     34472     34474     34473     34474
     34475     34476     34475     34477     34476     34477     34478     34479
     34478     34480     34479     34480     34481     34482     34481     34483
     34482     34483     34484     34485     34484     34486     34485     34486
     34487     34488     34487     34489     34488     34489     34490     34491
     34490     34492     34491     34492     34493     34494     34493     34495
     34494     34495     34496     34497     34496     34498     34497     34498
     34499     34500     34499     34501     34500     34501     34502     34503
     34502     34504     34503     34504     34505     34506     34505     34507
     34506     34507     34508     34509     34508     34510     34509     34510
     34511     34512     34511     34513     34512     34513     34514     34515
     34514     34516     34515     34516     34517     34518     34517     34519
     34518     34519     34520     34521     34520     34522     34521     34522
     34523     34524     34523     34525     34524     34525     34526     34527
     34526     34528     34527     34528     34529     34530     34529     34531
     34530     34531     34532     34533     34532     34534     34533     34534
     34535     34536     34535     34537     34536     34537     34538     34539
     34538     34540     34539     34540     34541     34542     34541     34543
     34542     34543     34544     34545     34544     34546     34545     34546
     34547     34548     34547     34549     34548     34549     34550     34551
     34550     34552     34551     34552     34553     34554     34553     34555
     34554     34555     34556     34557     34556     34558     34557     34558
     34559     34560     34559     34561     34560     34561     34562     34563
     34562     34564     34563     34564     34565     34566     34565     34567
     34566     34567     34568     34569     34568     34570     34569     34570
     34571     34572     34571     34573     34572     34573     34574     34575
     34574     34576     34575     34576     34577     34578     34577     34579
     34578     34579     34580     34581     34580     34582     34581     34582
     34583     34584     34583     34585     34584     34585     34586     34587
     34586     34588     34587     34588     34589     34590     34589     34591
     34590     34591     34592     34593     34592     34594     34593     34594
     34595     34596     34595     34597     34596     34597     34598     34599
     34598     34600     34599     34600     34601     34602     34601     34603
     34602     34603     34604     34605     34604     34606     34605     34606
     34607     34608     34607     34609     34608     34609     34610     34611
     34610     34612     34611     34612     34613     34614     34613     34615
     34614     34615     34616     34617     34616     34618     34617     34618
     34619     34620     34619     34621     34620     34621     34622     34623
     34622     34624     34623     34624     34625     34626     34625     34627
     34626     34627     34628     34629     34628     34630     34629     34630
     34631     34632     34631     34633     34632     34633     34634     34635
     34634     34636     34635     34636     34637     34638     34637     34639
     34638     34639     34640     34641     34640     34642     34641     34642
     34643     34644     34643     34645     34644     34645     34646     34647
     34646     34648     34647     34648     34649     34650     34649     34651
     34650     34651     34652     34653     34652     34654     34653     34654
     34655     34656     34655     34657     34656     34657     34658     34659
     34658     34660     34659     34660     34661     34662     34661     34663
     34662     34663     34664     34665     34664     34666     34665     34666
     34667     34668     34667     34669     34668     34669     34670     34671
     34670     34672     34671     34672     34673     34674     34673     34675
     34674     34675     34676     34677     34676     34678     34677     34678
     34679     34680     34679     34681     34680     34681     34682     34683
     34682     34684     34683     34684     34685     34686     34685     34687
     34686     34687     34688     34689     34688     34690     34689     34690
     34691     34692     34691     34693     34692     34693     34694     34695
     34694     34696     34695     34696     34697     34698     34697     34699
     34698     34699     34700     34701     34700     34702     34701     34702
     34703     34704     34703     34705     34704     34705     34706     34707
     34706     34708     34707     34708     34709     34710     34709     34711
     34710     34711     34712     34713     34712     34714     34713     34714
     34715     34716     34715     34717     34716     34717     34718     34719
     34718     34720     34719     34720     34721     34722     34721     34723
     34722     34723     34724     34725     34724     34726     34725     34726
     34727     34728     34727     34729     34728     34729     34730     34731
     34730     34732     34731     34732     34733     34734     34733     34735
     34734     34735     34736     34737     34736     34738     34737     34738
     34739     34740     34739     34741     34740     34741     34742     34743
     34742     34744     34743     34744     34745     34746     34745     34747
     34746     34747     34748     34749     34748     34750     34749     34750
     34751     34752     34751     34753     34752     34753     34754     34755
     34754     34756     34755     34756     34757     34758     34757     34759
     34758     34759     34760     34761     34760     34762     34761     34762
     34763     34764     34763     34765     34764     34765     34766     34767
     34766     34768     34767     34768     34769     34770     34769     34771
     34770     34771     34772     34773     34772     34774     34773     34774
     34775     34776     34775     34777     34776     34777     34778     34779
     34778     34780     34779     34780     34781     34782     34781     34783
     34782     34783     34784     34785     34784     34786     34785     34786
     34787     34788     34787     34789     34788     34789     34790     34791
     34790     34792     34791     34792     34793     34794     34793     34795
     34794     34795     34796     34797     34796     34798     34797     34798
     34799     34800     34799     34801     34800     34801     34802     34803
     34802     34804     34803     34804     34805     34806     34805     34807
     34806     34807     34808     34809     34808     34810     34809     34810
     34811     34812     34811     34813     34812     34813     34814     34815
     34814     34816     34815     34816     34817     34818     34817     34819
     34818     34819     34820     34821     34820     34822     34821     34822
     34823     34824     34823     34825     34824     34825     34826     34827
     34826     34828     34827     34828     34829     34830     34829     34831
     34830     34831     34832     34833     34832     34834     34833     34834
     34835     34836     34835     34837     34836     34837     34838     34839
     34838     34840     34839     34840     34841     34842     34841     34843
     34842     34843     34844     34845     34844     34846     34845     34846
     34847     34848     34847     34849     34848     34849     34850     34851
     34850     34852     34851     34852     34853     34854     34853     34855
     34854     34855     34856     34857     34856     34858     34857     34858
     34859     34860     34859     34861     34860     34861     34862     34863
     34862     34864     34863     34864     34865     34866     34865     34867
     34866     34867     34868     34869     34868     34870     34869     34870
     34871     34872     34871     34873     34872     34873     34874     34875
     34874     34876     34875     34876     34877     34878     34877     34879
     34878     34879     34880     34881     34880     34882     34881     34882
     34883     34884     34883     34885     34884     34885     34886     34887
     34886     34888     34887     34888     34889     34890     34889     34891
     34890     34891     34892     34893     34892     34894     34893     34894
     34895     34896     34895     34897     34896     34897     34898     34899
     34898     34900     34899     34900     34901     34902     34901     34903
     34902     34903     34904     34905     34904     34906     34905     34906
     34907     34908     34907     34909     34908     34909     34910     34911
     34910     34912     34911     34912     34913     34914     34913     34915
     34914     34915     34916     34917     34916     34918     34917     34918
     34919     34920     34919     34921     34920     34921     34922     34923
     34922     34924     34923     34924     34925     34926     34925     34927
     34926     34927     34928     34929     34928     34930     34929     34930
     34931     34932     34931     34933     34932     34933     34934     34935
     34934     34936     34935     34936     34937     34938     34937     34939
     34938     34939     34940     34941     34940     34942     34941     34942
     34943     34944     34943     34945     34944     34945     34946     34947
     34946     34948     34947     34948     34949     34950     34949     34951
     34950     34951     34952     34953     34952     34954     34953     34954
     34955     34956     34955     34957     34956     34957     34958     34959
     34958     34960     34959     34960     34961     34962     34961     34963
     34962     34963     34964     34965     34964     34966     34965     34966
     34967     34968     34967     34969     34968     34969     34970     34971
     34970     34972     34971     34972     34973     34974     34973     34975
     34974     34975     34976     34977     34976     34978     34977     34978
     34979     34980     34979     34981     34980     34981     34982     34983
     34982     34984     34983     34984     34985     34986     34985     34987
     34986     34987     34988     34989     34988     34990     34989     34990
     34991     34992     34991     34993     34992     34993     34994     34995
     34994     34996     34995     34996     34997     34998     34997     34999
     34998     34999     35000     35001     35000     35002     35001     35002
     35003     35004     35003     35005     35004     35005     35006     35007
     35006     35008     35007     35008     35009     35010     35009     35011
     35010     35011     35012     35013     35012     35014     35013     35014
     35015     35016     35015     35017     35016     35017     35018     35019
     35018     35020     35019     35020     35021     35022     35021     35023
     35022     35023     35024     35025     35024     35026     35025     35026
     35027     35028     35027     35029     35028     35029     35030     35031
     35030     35032     35031     35032     35033     35034     35033     35035
     35034     35035     35036     35037     35036     35038     35037     35038
     35039     35040     35039     35041     35040     35041     35042     35043
     35042     35044     35043     35044     35045     35046     35045     35047
     35046     35047     35048     35049     35048     35050     35049     35050
     35051     35052     35051     35053     35052     35053     35054     35055
     35054     35056     35055     35056     35057     35058     35057     35059
     35058     35059     35060     35061     35060     35062     35061     35062
     35063     35064     35063     35065     35064     35065     35066     35067
     35066     35068     35067     35068     35069     35070     35069     35071
     35070     35071     35072     35073     35072     35074     35073     35074
     35075     35076     35075     35077     35076     35077     35078     35079
     35078     35080     35079     35080     35081     35082     35081     35083
     35082     35083     35084     35085     35084     35086     35085     35086
     35087     35088     35087     35089     35088     35089     35090     35091
     35090     35092     35091     35092     35093     35094     35093     35095
     35094     35095     35096     35097     35096     35098     35097     35098
     35099     35100     35099     35101     35100     35101     35102     35103
     35102     35104     35103     35104     35105     35106     35105     35107
     35106     35107     35108     35109     35108     35110     35109     35110
     35111     35112     35111     35113     35112     35113     35114     35115
     35114     35116     35115     35116     35117     35118     35117     35119
     35118     35119     35120     35121     35120     35122     35121     35122
     35123     35124     35123     35125     35124     35125     35126     35127
     35126     35128     35127     35128     35129     35130     35129     35131
     35130     35131     35132     35133     35132     35134     35133     35134
     35135     35136     35135     35137     35136     35137     35138     35139
     35138     35140     35139     35140     35141     35142     35141     35143
     35142     35143     35144     35145     35144     35146     35145     35146
     35147     35148     35147     35149     35148     35149     35150     35151
     35150     35152     35151     35152     35153     35154     35153     35155
     35154     35155     35156     35157     35156     35158     35157     35158
     35159     35160     35159     35161     35160     35161     35162     35163
     35162     35164     35163     35164     35165     35166     35165     35167
     35166     35167     35168     35169     35168     35170     35169     35170
     35171     35172     35171     35173     35172     35173     35174     35175
     35174     35176     35175     35176     35177     35178     35177     35179
     35178     35179     35180     35181     35180     35182     35181     35182
     35183     35184     35183     35185     35184     35185     35186     35187
     35186     35188     35187     35188     35189     35190     35189     35191
     35190     35191     35192     35193     35192     35194     35193     35194
     35195     35196     35195     35197     35196     35197     35198     35199
     35198     35200     35199     35200     35201     35202     35201     35203
     35202     35203     35204     35205     35204     35206     35205     35206
     35207     35208     35207     35209     35208     35209     35210     35211
     35210     35212     35211     35212     35213     35214     35213     35215
     35214     35215     35216     35217     35216     35218     35217     35218
     35219     35220     35219     35221     35220     35221     35222     35223
     35222     35224     35223     35224     35225     35226     35225     35227
     35226     35227     35228     35229     35228     35230     35229     35230
     35231     35232     35231     35233     35232     35233     35234     35235
     35234     35236     35235     35236     35237     35238     35237     35239
     35238     35239     35240     35241     35240     35242     35241     35242
     35243     35244     35243     35245     35244     35245     35246     35247
     35246     35248     35247     35248     35249     35250     35249     35251
     35250     35251     35252     35253     35252     35254     35253     35254
     35255     35256     35255     35257     35256     35257     35258     35259
     35258     35260     35259     35260     35261     35262     35261     35263
     35262     35263     35264     35265     35264     35266     35265     35266
     35267     35268     35267     35269     35268     35269     35270     35271
     35270     35272     35271     35272     35273     35274     35273     35275
     35274     35275     35276     35277     35276     35278     35277     35278
     35279     35280     35279     35281     35280     35281     35282     35283
     35282     35284     35283     35284     35285     35286     35285     35287
     35286     35287     35288     35289     35288     35290     35289     35290
     35291     35292     35291     35293     35292     35293     35294     35295
     35294     35296     35295     35296     35297     35298     35297     35299
     35298     35299     35300     35301     35300     35302     35301     35302
     35303     35304     35303     35305     35304     35305     35306     35307
     35306     35308     35307     35308     35309     35310     35309     35311
     35310     35311     35312     35313     35312     35314     35313     35314
     35315     35316     35315     35317     35316     35317     35318     35319
     35318     35320     35319     35320     35321     35322     35321     35323
     35322     35323     35324     35325     35324     35326     35325     35326
     35327     35328     35327     35329     35328     35329     35330     35331
     35330     35332     35331     35332     35333     35334     35333     35335
     35334     35335     35336     35337     35336     35338     35337     35338
     35339     35340     35339     35341     35340     35341     35342     35343
     35342     35344     35343     35344     35345     35346     35345     35347
     35346     35347     35348     35349     35348     35350     35349     35350
     35351     35352     35351     35353     35352     35353     35354     35355
     35354     35356     35355     35356     35357     35358     35357     35359
     35358     35359     35360     35361     35360     35362     35361     35362
     35363     35364     35363     35365     35364     35365     35366     35367
     35366     35368     35367     35368     35369     35370     35369     35371
     35370     35371     35372     35373     35372     35374     35373     35374
     35375     35376     35375     35377     35376     35377     35378     35379
     35378     35380     35379     35380     35381     35382     35381     35383
     35382     35383     35384     35385     35384     35386     35385     35386
     35387     35388     35387     35389     35388     35389     35390     35391
     35390     35392     35391     35392     35393     35394     35393     35395
     35394     35395     35396     35397     35396     35398     35397     35398
     35399     35400     35399     35401     35400     35401     35402     35403
     35402     35404     35403     35404     35405     35406     35405     35407
     35406     35407     35408     35409     35408     35410     35409     35410
     35411     35412     35411     35413     35412     35413     35414     35415
     35414     35416     35415     35416     35417     35418     35417     35419
     35418     35419     35420     35421     35420     35422     35421     35422
     35423     35424     35423     35425     35424     35425     35426     35427
     35426     35428     35427     35428     35429     35430     35429     35431
     35430     35431     35432     35433     35432     35434     35433     35434
     35435     35436     35435     35437     35436     35437     35438     35439
     35438     35440     35439     35440     35441     35442     35441     35443
     35442     35443     35444     35445     35444     35446     35445     35446
     35447     35448     35447     35449     35448     35449     35450     35451
     35450     35452     35451     35452     35453     35454     35453     35455
     35454     35455     35456     35457     35456     35458     35457     35458
     35459     35460     35459     35461     35460     35461     35462     35463
     35462     35464     35463     35464     35465     35466     35465     35467
     35466     35467     35468     35469     35468     35470     35469     35470
     35471     35472     35471     35473     35472     35473     35474     35475
     35474     35476     35475     35476     35477     35478     35477     35479
     35478     35479     35480     35481     35480     35482     35481     35482
     35483     35484     35483     35485     35484     35485     35486     35487
     35486     35488     35487     35488     35489     35490     35489     35491
     35490     35491     35492     35493     35492     35494     35493     35494
     35495     35496     35495     35497     35496     35497     35498     35499
     35498     35500     35499     35500     35501     35502     35501     35503
     35502     35503     35504     35505     35504     35506     35505     35506
     35507     35508     35507     35509     35508     35509     35510     35511
     35510     35512     35511     35512     35513     35514     35513     35515
     35514     35515     35516     35517     35516     35518     35517     35518
     35519     35520     35519     35521     35520     35521     35522     35523
     35522     35524     35523     35524     35525     35526     35525     35527
     35526     35527     35528     35529     35528     35530     35529     35530
     35531     35532     35531     35533     35532     35533     35534     35535
     35534     35536     35535     35536     35537     35538     35537     35539
     35538     35539     35540     35541     35540     35542     35541     35542
     35543     35544     35543     35545     35544     35545     35546     35547
     35546     35548     35547     35548     35549     35550     35549     35551
     35550     35551     35552     35553     35552     35554     35553     35554
     35555     35556     35555     35557     35556     35557     35558     35559
     35558     35560     35559     35560     35561     35562     35561     35563
     35562     35563     35564     35565     35564     35566     35565     35566
     35567     35568     35567     35569     35568     35569     35570     35571
     35570     35572     35571     35572     35573     35574     35573     35575
     35574     35575     35576     35577     35576     35578     35577     35578
     35579     35580     35579     35581     35580     35581     35582     35583
     35582     35584     35583     35584     35585     35586     35585     35587
     35586     35587     35588     35589     35588     35590     35589     35590
     35591     35592     35591     35593     35592     35593     35594     35595
     35594     35596     35595     35596     35597     35598     35597     35599
     35598     35599     35600     35601     35600     35602     35601     35602
     35603     35604     35603     35605     35604     35605     35606     35607
     35606     35608     35607     35608     35609     35610     35609     35611
     35610     35611     35612     35613     35612     35614     35613     35614
     35615     35616     35615     35617     35616     35617     35618     35619
     35618     35620     35619     35620     35621     35622     35621     35623
     35622     35623     35624     35625     35624     35626     35625     35626
     35627     35628     35627     35629     35628     35629     35630     35631
     35630     35632     35631     35632     35633     35634     35633     35635
     35634     35635     35636     35637     35636     35638     35637     35638
     35639     35640     35639     35641     35640     35641     35642     35643
     35642     35644     35643     35644     35645     35646     35645     35647
     35646     35647     35648     35649     35648     35650     35649     35650
     35651     35652     35651     35653     35652     35653     35654     35655
     35654     35656     35655     35656     35657     35658     35657     35659
     35658     35659     35660     35661     35660     35662     35661     35662
     35663     35664     35663     35665     35664     35665     35666     35667
     35666     35668     35667     35668     35669     35670     35669     35671
     35670     35671     35672     35673     35672     35674     35673     35674
     35675     35676     35675     35677     35676     35677     35678     35679
     35678     35680     35679     35680     35681     35682     35681     35683
     35682     35683     35684     35685     35684     35686     35685     35686
     35687     35688     35687     35689     35688     35689     35690     35691
     35690     35692     35691     35692     35693     35694     35693     35695
     35694     35695     35696     35697     35696     35698     35697     35698
     35699     35700     35699     35701     35700     35701     35702     35703
     35702     35704     35703     35704     35705     35706     35705     35707
     35706     35707     35708     35709     35708     35710     35709     35710
     35711     35712     35711     35713     35712     35713     35714     35715
     35714     35716     35715     35716     35717     35718     35717     35719
     35718     35719     35720     35721     35720     35722     35721     35722
     35723     35724     35723     35725     35724     35725     35726     35727
     35726     35728     35727     35728     35729     35730     35729     35731
     35730     35731     35732     35733     35732     35734     35733     35734
     35735     35736     35735     35737     35736     35737     35738     35739
     35738     35740     35739     35740     35741     35742     35741     35743
     35742     35743     35744     35745     35744     35746     35745     35746
     35747     35748     35747     35749     35748     35749     35750     35751
     35750     35752     35751     35752     35753     35754     35753     35755
     35754     35755     35756     35757     35756     35758     35757     35758
     35759     35760     35759     35761     35760     35761     35762     35763
     35762     35764     35763     35764     35765     35766     35765     35767
     35766     35767     35768     35769     35768     35770     35769     35770
     35771     35772     35771     35773     35772     35773     35774     35775
     35774     35776     35775     35776     35777     35778     35777     35779
     35778     35779     35780     35781     35780     35782     35781     35782
     35783     35784     35783     35785     35784     35785     35786     35787
     35786     35788     35787     35788     35789     35790     35789     35791
     35790     35791     35792     35793     35792     35794     35793     35794
     35795     35796     35795     35797     35796     35797     35798     35799
     35798     35800     35799     35800     35801     35802     35801     35803
     35802     35803     35804     35805     35804     35806     35805     35806
     35807     35808     35807     35809     35808     35809     35810     35811
     35810     35812     35811     35812     35813     35814     35813     35815
     35814     35815     35816     35817     35816     35818     35817     35818
     35819     35820     35819     35821     35820     35821     35822     35823
     35822     35824     35823     35824     35825     35826     35825     35827
     35826     35827     35828     35829     35828     35830     35829     35830
     35831     35832     35831     35833     35832     35833     35834     35835
     35834     35836     35835     35836     35837     35838     35837     35839
     35838     35839     35840     35841     35840     35842     35841     35842
     35843     35844     35843     35845     35844     35845     35846     35847
     35846     35848     35847     35848     35849     35850     35849     35851
     35850     35851     35852     35853     35852     35854     35853     35854
     35855     35856     35855     35857     35856     35857     35858     35859
     35858     35860     35859     35860     35861     35862     35861     35863
     35862     35863     35864     35865     35864     35866     35865     35866
     35867     35868     35867     35869     35868     35869     35870     35871
     35870     35872     35871     35872     35873     35874     35873     35875
     35874     35875     35876     35877     35876     35878     35877     35878
     35879     35880     35879     35881     35880     35881     35882     35883
     35882     35884     35883     35884     35885     35886     35885     35887
     35886     35887     35888     35889     35888     35890     35889     35890
     35891     35892     35891     35893     35892     35893     35894     35895
     35894     35896     35895     35896     35897     35898     35897     35899
     35898     35899     35900     35901     35900     35902     35901     35902
     35903     35904     35903     35905     35904     35905     35906     35907
     35906     35908     35907     35908     35909     35910     35909     35911
     35910     35911     35912     35913     35912     35914     35913     35914
     35915     35916     35915     35917     35916     35917     35918     35919
     35918     35920     35919     35920     35921     35922     35921     35923
     35922     35923     35924     35925     35924     35926     35925     35926
     35927     35928     35927     35929     35928     35929     35930     35931
     35930     35932     35931     35932     35933     35934     35933     35935
     35934     35935     35936     35937     35936     35938     35937     35938
     35939     35940     35939     35941     35940     35941     35942     35943
     35942     35944     35943     35944     35945     35946     35945     35947
     35946     35947     35948     35949     35948     35950     35949     35950
     35951     35952     35951     35953     35952     35953     35954     35955
     35954     35956     35955     35956     35957     35958     35957     35959
     35958     35959     35960     35961     35960     35962     35961     35962
     35963     35964     35963     35965     35964     35965     35966     35967
     35966     35968     35967     35968     35969     35970     35969     35971
     35970     35971     35972     35973     35972     35974     35973     35974
     35975     35976     35975     35977     35976     35977     35978     35979
     35978     35980     35979     35980     35981     35982     35981     35983
     35982     35983     35984     35985     35984     35986     35985     35986
     35987     35988     35987     35989     35988     35989     35990     35991
     35990     35992     35991     35992     35993     35994     35993     35995
     35994     35995     35996     35997     35996     35998     35997     35998
     35999     36000     35999     36001     36000     36001     36002     36003
     36002     36004     36003     36004     36005     36006     36005     36007
     36006     36007     36008     36009     36008     36010     36009     36010
     36011     36012     36011     36013     36012     36013     36014     36015
     36014     36016     36015     36016     36017     36018     36017     36019
     36018     36019     36020     36021     36020     36022     36021     36022
     36023     36024     36023     36025     36024     36025     36026     36027
     36026     36028     36027     36028     36029     36030     36029     36031
     36030     36031     36032     36033     36032     36034     36033     36034
     36035     36036     36035     36037     36036     36037     36038     36039
     36038     36040     36039     36040     36041     36042     36041     36043
     36042     36043     36044     36045     36044     36046     36045     36046
     36047     36048     36047     36049     36048     36049     36050     36051
     36050     36052     36051     36052     36053     36054     36053     36055
     36054     36055     36056     36057     36056     36058     36057     36058
     36059     36060     36059     36061     36060     36061     36062     36063
     36062     36064     36063     36064     36065     36066     36065     36067
     36066     36067     36068     36069     36068     36070     36069     36070
     36071     36072     36071     36073     36072     36073     36074     36075
     36074     36076     36075     36076     36077     36078     36077     36079
     36078     36079     36080     36081     36080     36082     36081     36082
     36083     36084     36083     36085     36084     36085     36086     36087
     36086     36088     36087     36088     36089     36090     36089     36091
     36090     36091     36092     36093     36092     36094     36093     36094
     36095     36096     36095     36097     36096     36097     36098     36099
     36098     36100     36099     36100     36101     36102     36101     36103
     36102     36103     36104     36105     36104     36106     36105     36106
     36107     36108     36107     36109     36108     36109     36110     36111
     36110     36112     36111     36112     36113     36114     36113     36115
     36114     36115     36116     36117     36116     36118     36117     36118
     36119     36120     36119     36121     36120     36121     36122     36123
     36122     36124     36123     36124     36125     36126     36125     36127
     36126     36127     36128     36129     36128     36130     36129     36130
     36131     36132     36131     36133     36132     36133     36134     36135
     36134     36136     36135     36136     36137     36138     36137     36139
     36138     36139     36140     36141     36140     36142     36141     36142
     36143     36144     36143     36145     36144     36145     36146     36147
     36146     36148     36147     36148     36149     36150     36149     36151
     36150     36151     36152     36153     36152     36154     36153     36154
     36155     36156     36155     36157     36156     36157     36158     36159
     36158     36160     36159     36160     36161     36162     36161     36163
     36162     36163     36164     36165     36164     36166     36165     36166
     36167     36168     36167     36169     36168     36169     36170     36171
     36170     36172     36171     36172     36173     36174     36173     36175
     36174     36175     36176     36177     36176     36178     36177     36178
     36179     36180     36179     36181     36180     36181     36182     36183
     36182     36184     36183     36184     36185     36186     36185     36187
     36186     36187     36188     36189     36188     36190     36189     36190
     36191     36192     36191     36193     36192     36193     36194     36195
     36194     36196     36195     36196     36197     36198     36197     36199
     36198     36199     36200     36201     36200     36202     36201     36202
     36203     36204     36203     36205     36204     36205     36206     36207
     36206     36208     36207     36208     36209     36210     36209     36211
     36210     36211     36212     36213     36212     36214     36213     36214
     36215     36216     36215     36217     36216     36217     36218     36219
     36218     36220     36219     36220     36221     36222     36221     36223
     36222     36223     36224     36225     36224     36226     36225     36226
     36227     36228     36227     36229     36228     36229     36230     36231
     36230     36232     36231     36232     36233     36234     36233     36235
     36234     36235     36236     36237     36236     36238     36237     36238
     36239     36240     36239     36241     36240     36241     36242     36243
     36242     36244     36243     36244     36245     36246     36245     36247
     36246     36247     36248     36249     36248     36250     36249     36250
     36251     36252     36251     36253     36252     36253     36254     36255
     36254     36256     36255     36256     36257     36258     36257     36259
     36258     36259     36260     36261     36260     36262     36261     36262
     36263     36264     36263     36265     36264     36265     36266     36267
     36266     36268     36267     36268     36269     36270     36269     36271
     36270     36271     36272     36273     36272     36274     36273     36274
     36275     36276     36275     36277     36276     36277     36278     36279
     36278     36280     36279     36280     36281     36282     36281     36283
     36282     36283     36284     36285     36284     36286     36285     36286
     36287     36288     36287     36289     36288     36289     36290     36291
     36290     36292     36291     36292     36293     36294     36293     36295
     36294     36295     36296     36297     36296     36298     36297     36298
     36299     36300     36299     36301     36300     36301     36302     36303
     36302     36304     36303     36304     36305     36306     36305     36307
     36306     36307     36308     36309     36308     36310     36309     36310
     36311     36312     36311     36313     36312     36313     36314     36315
     36314     36316     36315     36316     36317     36318     36317     36319
     36318     36319     36320     36321     36320     36322     36321     36322
     36323     36324     36323     36325     36324     36325     36326     36327
     36326     36328     36327     36328     36329     36330     36329     36331
     36330     36331     36332     36333     36332     36334     36333     36334
     36335     36336     36335     36337     36336     36337     36338     36339
     36338     36340     36339     36340     36341     36342     36341     36343
     36342     36343     36344     36345     36344     36346     36345     36346
     36347     36348     36347     36349     36348     36349     36350     36351
     36350     36352     36351     36352     36353     36354     36353     36355
     36354     36355     36356     36357     36356     36358     36357     36358
     36359     36360     36359     36361     36360     36361     36362     36363
     36362     36364     36363     36364     36365     36366     36365     36367
     36366     36367     36368     36369     36368     36370     36369     36370
     36371     36372     36371     36373     36372     36373     36374     36375
     36374     36376     36375     36376     36377     36378     36377     36379
     36378     36379     36380     36381     36380     36382     36381     36382
     36383     36384     36383     36385     36384     36385     36386     36387
     36386     36388     36387     36388     36389     36390     36389     36391
     36390     36391     36392     36393     36392     36394     36393     36394
     36395     36396     36395     36397     36396     36397     36398     36399
     36398     36400     36399     36400     36401     36402     36401     36403
     36402     36403     36404     36405     36404     36406     36405     36406
     36407     36408     36407     36409     36408     36409     36410     36411
     36410     36412     36411     36412     36413     36414     36413     36415
     36414     36415     36416     36417     36416     36418     36417     36418
     36419     36420     36419     36421     36420     36421     36422     36423
     36422     36424     36423     36424     36425     36426     36425     36427
     36426     36427     36428     36429     36428     36430     36429     36430
     36431     36432     36431     36433     36432     36433     36434     36435
     36434     36436     36435     36436     36437     36438     36437     36439
     36438     36439     36440     36441     36440     36442     36441     36442
     36443     36444     36443     36445     36444     36445     36446     36447
     36446     36448     36447     36448     36449     36450     36449     36451
     36450     36451     36452     36453     36452     36454     36453     36454
     36455     36456     36455     36457     36456     36457     36458     36459
     36458     36460     36459     36460     36461     36462     36461     36463
     36462     36463     36464     36465     36464     36466     36465     36466
     36467     36468     36467     36469     36468     36469     36470     36471
     36470     36472     36471     36472     36473     36474     36473     36475
     36474     36475     36476     36477     36476     36478     36477     36478
     36479     36480     36479     36481     36480     36481     36482     36483
     36482     36484     36483     36484     36485     36486     36485     36487
     36486     36487     36488     36489     36488     36490     36489     36490
     36491     36492     36491     36493     36492     36493     36494     36495
     36494     36496     36495     36496     36497     36498     36497     36499
     36498     36499     36500     36501     36500     36502     36501     36502
     36503     36504     36503     36505     36504     36505     36506     36507
     36506     36508     36507     36508     36509     36510     36509     36511
     36510     36511     36512     36513     36512     36514     36513     36514
     36515     36516     36515     36517     36516     36517     36518     36519
     36518     36520     36519     36520     36521     36522     36521     36523
     36522     36523     36524     36525     36524     36526     36525     36526
     36527     36528     36527     36529     36528     36529     36530     36531
     36530     36532     36531     36532     36533     36534     36533     36535
     36534     36535     36536     36537     36536     36538     36537     36538
     36539     36540     36539     36541     36540     36541     36542     36543
     36542     36544     36543     36544     36545     36546     36545     36547
     36546     36547     36548     36549     36548     36550     36549     36550
     36551     36552     36551     36553     36552     36553     36554     36555
     36554     36556     36555     36556     36557     36558     36557     36559
     36558     36559     36560     36561     36560     36562     36561     36562
     36563     36564     36563     36565     36564     36565     36566     36567
     36566     36568     36567     36568     36569     36570     36569     36571
     36570     36571     36572     36573     36572     36574     36573     36574
     36575     36576     36575     36577     36576     36577     36578     36579
     36578     36580     36579     36580     36581     36582     36581     36583
     36582     36583     36584     36585     36584     36586     36585     36586
     36587     36588     36587     36589     36588     36589     36590     36591
     36590     36592     36591     36592     36593     36594     36593     36595
     36594     36595     36596     36597     36596     36598     36597     36598
     36599     36600     36599     36601     36600     36601     36602     36603
     36602     36604     36603     36604     36605     36606     36605     36607
     36606     36607     36608     36609     36608     36610     36609     36610
     36611     36612     36611     36613     36612     36613     36614     36615
     36614     36616     36615     36616     36617     36618     36617     36619
     36618     36619     36620     36621     36620     36622     36621     36622
     36623     36624     36623     36625     36624     36625     36626     36627
     36626     36628     36627     36628     36629     36630     36629     36631
     36630     36631     36632     36633     36632     36634     36633     36634
     36635     36636     36635     36637     36636     36637     36638     36639
     36638     36640     36639     36640     36641     36642     36641     36643
     36642     36643     36644     36645     36644     36646     36645     36646
     36647     36648     36647     36649     36648     36649     36650     36651
     36650     36652     36651     36652     36653     36654     36653     36655
     36654     36655     36656     36657     36656     36658     36657     36658
     36659     36660     36659     36661     36660     36661     36662     36663
     36662     36664     36663     36664     36665     36666     36665     36667
     36666     36667     36668     36669     36668     36670     36669     36670
     36671     36672     36671     36673     36672     36673     36674     36675
     36674     36676     36675     36676     36677     36678     36677     36679
     36678     36679     36680     36681     36680     36682     36681     36682
     36683     36684     36683     36685     36684     36685     36686     36687
     36686     36688     36687     36688     36689     36690     36689     36691
     36690     36691     36692     36693     36692     36694     36693     36694
     36695     36696     36695     36697     36696     36697     36698     36699
     36698     36700     36699     36700     36701     36702     36701     36703
     36702     36703     36704     36705     36704     36706     36705     36706
     36707     36708     36707     36709     36708     36709     36710     36711
     36710     36712     36711     36712     36713     36714     36713     36715
     36714     36715     36716     36717     36716     36718     36717     36718
     36719     36720     36719     36721     36720     36721     36722     36723
     36722     36724     36723     36724     36725     36726     36725     36727
     36726     36727     36728     36729     36728     36730     36729     36730
     36731     36732     36731     36733     36732     36733     36734     36735
     36734     36736     36735     36736     36737     36738     36737     36739
     36738     36739     36740     36741     36740     36742     36741     36742
     36743     36744     36743     36745     36744     36745     36746     36747
     36746     36748     36747     36748     36749     36750     36749     36751
     36750     36751     36752     36753     36752     36754     36753     36754
     36755     36756     36755     36757     36756     36757     36758     36759
     36758     36760     36759     36760     36761     36762     36761     36763
     36762     36763     36764     36765     36764     36766     36765     36766
     36767     36768     36767     36769     36768     36769     36770     36771
     36770     36772     36771     36772     36773     36774     36773     36775
     36774     36775     36776     36777     36776     36778     36777     36778
     36779     36780     36779     36781     36780     36781     36782     36783
     36782     36784     36783     36784     36785     36786     36785     36787
     36786     36787     36788     36789     36788     36790     36789     36790
     36791     36792     36791     36793     36792     36793     36794     36795
     36794     36796     36795     36796     36797     36798     36797     36799
     36798     36799     36800     36801     36800     36802     36801     36802
     36803     36804     36803     36805     36804     36805     36806     36807
     36806     36808     36807     36808     36809     36810     36809     36811
     36810     36811     36812     36813     36812     36814     36813     36814
     36815     36816     36815     36817     36816     36817     36818     36819
     36818     36820     36819     36820     36821     36822     36821     36823
     36822     36823     36824     36825     36824     36826     36825     36826
     36827     36828     36827     36829     36828     36829     36830     36831
     36830     36832     36831     36832     36833     36834     36833     36835
     36834     36835     36836     36837     36836     36838     36837     36838
     36839     36840     36839     36841     36840     36841     36842     36843
     36842     36844     36843     36844     36845     36846     36845     36847
     36846     36847     36848     36849     36848     36850     36849     36850
     36851     36852     36851     36853     36852     36853     36854     36855
     36854     36856     36855     36856     36857     36858     36857     36859
     36858     36859     36860     36861     36860     36862     36861     36862
     36863     36864     36863     36865     36864     36865     36866     36867
     36866     36868     36867     36868     36869     36870     36869     36871
     36870     36871     36872     36873     36872     36874     36873     36874
     36875     36876     36875     36877     36876     36877     36878     36879
     36878     36880     36879     36880     36881     36882     36881     36883
     36882     36883     36884     36885     36884     36886     36885     36886
     36887     36888     36887     36889     36888     36889     36890     36891
     36890     36892     36891     36892     36893     36894     36893     36895
     36894     36895     36896     36897     36896     36898     36897     36898
     36899     36900     36899     36901     36900     36901     36902     36903
     36902     36904     36903     36904     36905     36906     36905     36907
     36906     36907     36908     36909     36908     36910     36909     36910
     36911     36912     36911     36913     36912     36913     36914     36915
     36914     36916     36915     36916     36917     36918     36917     36919
     36918     36919     36920     36921     36920     36922     36921     36922
     36923     36924     36923     36925     36924     36925     36926     36927
     36926     36928     36927     36928     36929     36930     36929     36931
     36930     36931     36932     36933     36932     36934     36933     36934
     36935     36936     36935     36937     36936     36937     36938     36939
     36938     36940     36939     36940     36941     36942     36941     36943
     36942     36943     36944     36945     36944     36946     36945     36946
     36947     36948     36947     36949     36948     36949     36950     36951
     36950     36952     36951     36952     36953     36954     36953     36955
     36954     36955     36956     36957     36956     36958     36957     36958
     36959     36960     36959     36961     36960     36961     36962     36963
     36962     36964     36963     36964     36965     36966     36965     36967
     36966     36967     36968     36969     36968     36970     36969     36970
     36971     36972     36971     36973     36972     36973     36974     36975
     36974     36976     36975     36976     36977     36978     36977     36979
     36978     36979     36980     36981     36980     36982     36981     36982
     36983     36984     36983     36985     36984     36985     36986     36987
     36986     36988     36987     36988     36989     36990     36989     36991
     36990     36991     36992     36993     36992     36994     36993     36994
     36995     36996     36995     36997     36996     36997     36998     36999
     36998     37000     36999     37000     37001     37002     37001     37003
     37002     37003     37004     37005     37004     37006     37005     37006
     37007     37008     37007     37009     37008     37009     37010     37011
     37010     37012     37011     37012     37013     37014     37013     37015
     37014     37015     37016     37017     37016     37018     37017     37018
     37019     37020     37019     37021     37020     37021     37022     37023
     37022     37024     37023     37024     37025     37026     37025     37027
     37026     37027     37028     37029     37028     37030     37029     37030
     37031     37032     37031     37033     37032     37033     37034     37035
     37034     37036     37035     37036     37037     37038     37037     37039
     37038     37039     37040     37041     37040     37042     37041     37042
     37043     37044     37043     37045     37044     37045     37046     37047
     37046     37048     37047     37048     37049     37050     37049     37051
     37050     37051     37052     37053     37052     37054     37053     37054
     37055     37056     37055     37057     37056     37057     37058     37059
     37058     37060     37059     37060     37061     37062     37061     37063
     37062     37063     37064     37065     37064     37066     37065     37066
     37067     37068     37067     37069     37068     37069     37070     37071
     37070     37072     37071     37072     37073     37074     37073     37075
     37074     37075     37076     37077     37076     37078     37077     37078
     37079     37080     37079     37081     37080     37081     37082     37083
     37082     37084     37083     37084     37085     37086     37085     37087
     37086     37087     37088     37089     37088     37090     37089     37090
     37091     37092     37091     37093     37092     37093     37094     37095
     37094     37096     37095     37096     37097     37098     37097     37099
     37098     37099     37100     37101     37100     37102     37101     37102
     37103     37104     37103     37105     37104     37105     37106     37107
     37106     37108     37107     37108     37109     37110     37109     37111
     37110     37111     37112     37113     37112     37114     37113     37114
     37115     37116     37115     37117     37116     37117     37118     37119
     37118     37120     37119     37120     37121     37122     37121     37123
     37122     37123     37124     37125     37124     37126     37125     37126
     37127     37128     37127     37129     37128     37129     37130     37131
     37130     37132     37131     37132     37133     37134     37133     37135
     37134     37135     37136     37137     37136     37138     37137     37138
     37139     37140     37139     37141     37140     37141     37142     37143
     37142     37144     37143     37144     37145     37146     37145     37147
     37146     37147     37148     37149     37148     37150     37149     37150
     37151     37152     37151     37153     37152     37153     37154     37155
     37154     37156     37155     37156     37157     37158     37157     37159
     37158     37159     37160     37161     37160     37162     37161     37162
     37163     37164     37163     37165     37164     37165     37166     37167
     37166     37168     37167     37168     37169     37170     37169     37171
     37170     37171     37172     37173     37172     37174     37173     37174
     37175     37176     37175     37177     37176     37177     37178     37179
     37178     37180     37179     37180     37181     37182     37181     37183
     37182     37183     37184     37185     37184     37186     37185     37186
     37187     37188     37187     37189     37188     37189     37190     37191
     37190     37192     37191     37192     37193     37194     37193     37195
     37194     37195     37196     37197     37196     37198     37197     37198
     37199     37200     37199     37201     37200     37201     37202     37203
     37202     37204     37203     37204     37205     37206     37205     37207
     37206     37207     37208     37209     37208     37210     37209     37210
     37211     37212     37211     37213     37212     37213     37214     37215
     37214     37216     37215     37216     37217     37218     37217     37219
     37218     37219     37220     37221     37220     37222     37221     37222
     37223     37224     37223     37225     37224     37225     37226     37227
     37226     37228     37227     37228     37229     37230     37229     37231
     37230     37231     37232     37233     37232     37234     37233     37234
     37235     37236     37235     37237     37236     37237     37238     37239
     37238     37240     37239     37240     37241     37242     37241     37243
     37242     37243     37244     37245     37244     37246     37245     37246
     37247     37248     37247     37249     37248     37249     37250     37251
     37250     37252     37251     37252     37253     37254     37253     37255
     37254     37255     37256     37257     37256     37258     37257     37258
     37259     37260     37259     37261     37260     37261     37262     37263
     37262     37264     37263     37264     37265     37266     37265     37267
     37266     37267     37268     37269     37268     37270     37269     37270
     37271     37272     37271     37273     37272     37273     37274     37275
     37274     37276     37275     37276     37277     37278     37277     37279
     37278     37279     37280     37281     37280     37282     37281     37282
     37283     37284     37283     37285     37284     37285     37286     37287
     37286     37288     37287     37288     37289     37290     37289     37291
     37290     37291     37292     37293     37292     37294     37293     37294
     37295     37296     37295     37297     37296     37297     37298     37299
     37298     37300     37299     37300     37301     37302     37301     37303
     37302     37303     37304     37305     37304     37306     37305     37306
     37307     37308     37307     37309     37308     37309     37310     37311
     37310     37312     37311     37312     37313     37314     37313     37315
     37314     37315     37316     37317     37316     37318     37317     37318
     37319     37320     37319     37321     37320     37321     37322     37323
     37322     37324     37323     37324     37325     37326     37325     37327
     37326     37327     37328     37329     37328     37330     37329     37330
     37331     37332     37331     37333     37332     37333     37334     37335
     37334     37336     37335     37336     37337     37338     37337     37339
     37338     37339     37340     37341     37340     37342     37341     37342
     37343     37344     37343     37345     37344     37345     37346     37347
     37346     37348     37347     37348     37349     37350     37349     37351
     37350     37351     37352     37353     37352     37354     37353     37354
     37355     37356     37355     37357     37356     37357     37358     37359
     37358     37360     37359     37360     37361     37362     37361     37363
     37362     37363     37364     37365     37364     37366     37365     37366
     37367     37368     37367     37369     37368     37369     37370     37371
     37370     37372     37371     37372     37373     37374     37373     37375
     37374     37375     37376     37377     37376     37378     37377     37378
     37379     37380     37379     37381     37380     37381     37382     37383
     37382     37384     37383     37384     37385     37386     37385     37387
     37386     37387     37388     37389     37388     37390     37389     37390
     37391     37392     37391     37393     37392     37393     37394     37395
     37394     37396     37395     37396     37397     37398     37397     37399
     37398     37399     37400     37401     37400     37402     37401     37402
     37403     37404     37403     37405     37404     37405     37406     37407
     37406     37408     37407     37408     37409     37410     37409     37411
     37410     37411     37412     37413     37412     37414     37413     37414
     37415     37416     37415     37417     37416     37417     37418     37419
     37418     37420     37419     37420     37421     37422     37421     37423
     37422     37423     37424     37425     37424     37426     37425     37426
     37427     37428     37427     37429     37428     37429     37430     37431
     37430     37432     37431     37432     37433     37434     37433     37435
     37434     37435     37436     37437     37436     37438     37437     37438
     37439     37440     37439     37441     37440     37441     37442     37443
     37442     37444     37443     37444     37445     37446     37445     37447
     37446     37447     37448     37449     37448     37450     37449     37450
     37451     37452     37451     37453     37452     37453     37454     37455
     37454     37456     37455     37456     37457     37458     37457     37459
     37458     37459     37460     37461     37460     37462     37461     37462
     37463     37464     37463     37465     37464     37465     37466     37467
     37466     37468     37467     37468     37469     37470     37469     37471
     37470     37471     37472     37473     37472     37474     37473     37474
     37475     37476     37475     37477     37476     37477     37478     37479
     37478     37480     37479     37480     37481     37482     37481     37483
     37482     37483     37484     37485     37484     37486     37485     37486
     37487     37488     37487     37489     37488     37489     37490     37491
     37490     37492     37491     37492     37493     37494     37493     37495
     37494     37495     37496     37497     37496     37498     37497     37498
     37499     37500     37499     37501     37500     37501     37502     37503
     37502     37504     37503     37504     37505     37506     37505     37507
     37506     37507     37508     37509     37508     37510     37509     37510
     37511     37512     37511     37513     37512     37513     37514     37515
     37514     37516     37515     37516     37517     37518     37517     37519
     37518     37519     37520     37521     37520     37522     37521     37522
     37523     37524     37523     37525     37524     37525     37526     37527
     37526     37528     37527     37528     37529     37530     37529     37531
     37530     37531     37532     37533     37532     37534     37533     37534
     37535     37536     37535     37537     37536     37537     37538     37539
     37538     37540     37539     37540     37541     37542     37541     37543
     37542     37543     37544     37545     37544     37546     37545     37546
     37547     37548     37547     37549     37548     37549     37550     37551
     37550     37552     37551     37552     37553     37554     37553     37555
     37554     37555     37556     37557     37556     37558     37557     37558
     37559     37560     37559     37561     37560     37561     37562     37563
     37562     37564     37563     37564     37565     37566     37565     37567
     37566     37567     37568     37569     37568     37570     37569     37570
     37571     37572     37571     37573     37572     37573     37574     37575
     37574     37576     37575     37576     37577     37578     37577     37579
     37578     37579     37580     37581     37580     37582     37581     37582
     37583     37584     37583     37585     37584     37585     37586     37587
     37586     37588     37587     37588     37589     37590     37589     37591
     37590     37591     37592     37593     37592     37594     37593     37594
     37595     37596     37595     37597     37596     37597     37598     37599
     37598     37600     37599     37600     37601     37602     37601     37603
     37602     37603     37604     37605     37604     37606     37605     37606
     37607     37608     37607     37609     37608     37609     37610     37611
     37610     37612     37611     37612     37613     37614     37613     37615
     37614     37615     37616     37617     37616     37618     37617     37618
     37619     37620     37619     37621     37620     37621     37622     37623
     37622     37624     37623     37624     37625     37626     37625     37627
     37626     37627     37628     37629     37628     37630     37629     37630
     37631     37632     37631     37633     37632     37633     37634     37635
     37634     37636     37635     37636     37637     37638     37637     37639
     37638     37639     37640     37641     37640     37642     37641     37642
     37643     37644     37643     37645     37644     37645     37646     37647
     37646     37648     37647     37648     37649     37650     37649     37651
     37650     37651     37652     37653     37652     37654     37653     37654
     37655     37656     37655     37657     37656     37657     37658     37659
     37658     37660     37659     37660     37661     37662     37661     37663
     37662     37663     37664     37665     37664     37666     37665     37666
     37667     37668     37667     37669     37668     37669     37670     37671
     37670     37672     37671     37672     37673     37674     37673     37675
     37674     37675     37676     37677     37676     37678     37677     37678
     37679     37680     37679     37681     37680     37681     37682     37683
     37682     37684     37683     37684     37685     37686     37685     37687
     37686     37687     37688     37689     37688     37690     37689     37690
     37691     37692     37691     37693     37692     37693     37694     37695
     37694     37696     37695     37696     37697     37698     37697     37699
     37698     37699     37700     37701     37700     37702     37701     37702
     37703     37704     37703     37705     37704     37705     37706     37707
     37706     37708     37707     37708     37709     37710     37709     37711
     37710     37711     37712     37713     37712     37714     37713     37714
     37715     37716     37715     37717     37716     37717     37718     37719
     37718     37720     37719     37720     37721     37722     37721     37723
     37722     37723     37724     37725     37724     37726     37725     37726
     37727     37728     37727     37729     37728     37729     37730     37731
     37730     37732     37731     37732     37733     37734     37733     37735
     37734     37735     37736     37737     37736     37738     37737     37738
     37739     37740     37739     37741     37740     37741     37742     37743
     37742     37744     37743     37744     37745     37746     37745     37747
     37746     37747     37748     37749     37748     37750     37749     37750
     37751     37752     37751     37753     37752     37753     37754     37755
     37754     37756     37755     37756     37757     37758     37757     37759
     37758     37759     37760     37761     37760     37762     37761     37762
     37763     37764     37763     37765     37764     37765     37766     37767
     37766     37768     37767     37768     37769     37770     37769     37771
     37770     37771     37772     37773     37772     37774     37773     37774
     37775     37776     37775     37777     37776     37777     37778     37779
     37778     37780     37779     37780     37781     37782     37781     37783
     37782     37783     37784     37785     37784     37786     37785     37786
     37787     37788     37787     37789     37788     37789     37790     37791
     37790     37792     37791     37792     37793     37794     37793     37795
     37794     37795     37796     37797     37796     37798     37797     37798
     37799     37800     37799     37801     37800     37801     37802     37803
     37802     37804     37803     37804     37805     37806     37805     37807
     37806     37807     37808     37809     37808     37810     37809     37810
     37811     37812     37811     37813     37812     37813     37814     37815
     37814     37816     37815     37816     37817     37818     37817     37819
     37818     37819     37820     37821     37820     37822     37821     37822
     37823     37824     37823     37825     37824     37825     37826     37827
     37826     37828     37827     37828     37829     37830     37829     37831
     37830     37831     37832     37833     37832     37834     37833     37834
     37835     37836     37835     37837     37836     37837     37838     37839
     37838     37840     37839     37840     37841     37842     37841     37843
     37842     37843     37844     37845     37844     37846     37845     37846
     37847     37848     37847     37849     37848     37849     37850     37851
     37850     37852     37851     37852     37853     37854     37853     37855
     37854     37855     37856     37857     37856     37858     37857     37858
     37859     37860     37859     37861     37860     37861     37862     37863
     37862     37864     37863     37864     37865     37866     37865     37867
     37866     37867     37868     37869     37868     37870     37869     37870
     37871     37872     37871     37873     37872     37873     37874     37875
     37874     37876     37875     37876     37877     37878     37877     37879
     37878     37879     37880     37881     37880     37882     37881     37882
     37883     37884     37883     37885     37884     37885     37886     37887
     37886     37888     37887     37888     37889     37890     37889     37891
     37890     37891     37892     37893     37892     37894     37893     37894
     37895     37896     37895     37897     37896     37897     37898     37899
     37898     37900     37899     37900     37901     37902     37901     37903
     37902     37903     37904     37905     37904     37906     37905     37906
     37907     37908     37907     37909     37908     37909     37910     37911
     37910     37912     37911     37912     37913     37914     37913     37915
     37914     37915     37916     37917     37916     37918     37917     37918
     37919     37920     37919     37921     37920     37921     37922     37923
     37922     37924     37923     37924     37925     37926     37925     37927
     37926     37927     37928     37929     37928     37930     37929     37930
     37931     37932     37931     37933     37932     37933     37934     37935
     37934     37936     37935     37936     37937     37938     37937     37939
     37938     37939     37940     37941     37940     37942     37941     37942
     37943     37944     37943     37945     37944     37945     37946     37947
     37946     37948     37947     37948     37949     37950     37949     37951
     37950     37951     37952     37953     37952     37954     37953     37954
     37955     37956     37955     37957     37956     37957     37958     37959
     37958     37960     37959     37960     37961     37962     37961     37963
     37962     37963     37964     37965     37964     37966     37965     37966
     37967     37968     37967     37969     37968     37969     37970     37971
     37970     37972     37971     37972     37973     37974     37973     37975
     37974     37975     37976     37977     37976     37978     37977     37978
     37979     37980     37979     37981     37980     37981     37982     37983
     37982     37984     37983     37984     37985     37986     37985     37987
     37986     37987     37988     37989     37988     37990     37989     37990
     37991     37992     37991     37993     37992     37993     37994     37995
     37994     37996     37995     37996     37997     37998     37997     37999
     37998     37999     38000     38001     38000     38002     38001     38002
     38003     38004     38003     38005     38004     38005     38006     38007
     38006     38008     38007     38008     38009     38010     38009     38011
     38010     38011     38012     38013     38012     38014     38013     38014
     38015     38016     38015     38017     38016     38017     38018     38019
     38018     38020     38019     38020     38021     38022     38021     38023
     38022     38023     38024     38025     38024     38026     38025     38026
     38027     38028     38027     38029     38028     38029     38030     38031
     38030     38032     38031     38032     38033     38034     38033     38035
     38034     38035     38036     38037     38036     38038     38037     38038
     38039     38040     38039     38041     38040     38041     38042     38043
     38042     38044     38043     38044     38045     38046     38045     38047
     38046     38047     38048     38049     38048     38050     38049     38050
     38051     38052     38051     38053     38052     38053     38054     38055
     38054     38056     38055     38056     38057     38058     38057     38059
     38058     38059     38060     38061     38060     38062     38061     38062
     38063     38064     38063     38065     38064     38065     38066     38067
     38066     38068     38067     38068     38069     38070     38069     38071
     38070     38071     38072     38073     38072     38074     38073     38074
     38075     38076     38075     38077     38076     38077     38078     38079
     38078     38080     38079     38080     38081     38082     38081     38083
     38082     38083     38084     38085     38084     38086     38085     38086
     38087     38088     38087     38089     38088     38089     38090     38091
     38090     38092     38091     38092     38093     38094     38093     38095
     38094     38095     38096     38097     38096     38098     38097     38098
     38099     38100     38099     38101     38100     38101     38102     38103
     38102     38104     38103     38104     38105     38106     38105     38107
     38106     38107     38108     38109     38108     38110     38109     38110
     38111     38112     38111     38113     38112     38113     38114     38115
     38114     38116     38115     38116     38117     38118     38117     38119
     38118     38119     38120     38121     38120     38122     38121     38122
     38123     38124     38123     38125     38124     38125     38126     38127
     38126     38128     38127     38128     38129     38130     38129     38131
     38130     38131     38132     38133     38132     38134     38133     38134
     38135     38136     38135     38137     38136     38137     38138     38139
     38138     38140     38139     38140     38141     38142     38141     38143
     38142     38143     38144     38145     38144     38146     38145     38146
     38147     38148     38147     38149     38148     38149     38150     38151
     38150     38152     38151     38152     38153     38154     38153     38155
     38154     38155     38156     38157     38156     38158     38157     38158
     38159     38160     38159     38161     38160     38161     38162     38163
     38162     38164     38163     38164     38165     38166     38165     38167
     38166     38167     38168     38169     38168     38170     38169     38170
     38171     38172     38171     38173     38172     38173     38174     38175
     38174     38176     38175     38176     38177     38178     38177     38179
     38178     38179     38180     38181     38180     38182     38181     38182
     38183     38184     38183     38185     38184     38185     38186     38187
     38186     38188     38187     38188     38189     38190     38189     38191
     38190     38191     38192     38193     38192     38194     38193     38194
     38195     38196     38195     38197     38196     38197     38198     38199
     38198     38200     38199     38200     38201     38202     38201     38203
     38202     38203     38204     38205     38204     38206     38205     38206
     38207     38208     38207     38209     38208     38209     38210     38211
     38210     38212     38211     38212     38213     38214     38213     38215
     38214     38215     38216     38217     38216     38218     38217     38218
     38219     38220     38219     38221     38220     38221     38222     38223
     38222     38224     38223     38224     38225     38226     38225     38227
     38226     38227     38228     38229     38228     38230     38229     38230
     38231     38232     38231     38233     38232     38233     38234     38235
     38234     38236     38235     38236     38237     38238     38237     38239
     38238     38239     38240     38241     38240     38242     38241     38242
     38243     38244     38243     38245     38244     38245     38246     38247
     38246     38248     38247     38248     38249     38250     38249     38251
     38250     38251     38252     38253     38252     38254     38253     38254
     38255     38256     38255     38257     38256     38257     38258     38259
     38258     38260     38259     38260     38261     38262     38261     38263
     38262     38263     38264     38265     38264     38266     38265     38266
     38267     38268     38267     38269     38268     38269     38270     38271
     38270     38272     38271     38272     38273     38274     38273     38275
     38274     38275     38276     38277     38276     38278     38277     38278
     38279     38280     38279     38281     38280     38281     38282     38283
     38282     38284     38283     38284     38285     38286     38285     38287
     38286     38287     38288     38289     38288     38290     38289     38290
     38291     38292     38291     38293     38292     38293     38294     38295
     38294     38296     38295     38296     38297     38298     38297     38299
     38298     38299     38300     38301     38300     38302     38301     38302
     38303     38304     38303     38305     38304     38305     38306     38307
     38306     38308     38307     38308     38309     38310     38309     38311
     38310     38311     38312     38313     38312     38314     38313     38314
     38315     38316     38315     38317     38316     38317     38318     38319
     38318     38320     38319     38320     38321     38322     38321     38323
     38322     38323     38324     38325     38324     38326     38325     38326
     38327     38328     38327     38329     38328     38329     38330     38331
     38330     38332     38331     38332     38333     38334     38333     38335
     38334     38335     38336     38337     38336     38338     38337     38338
     38339     38340     38339     38341     38340     38341     38342     38343
     38342     38344     38343     38344     38345     38346     38345     38347
     38346     38347     38348     38349     38348     38350     38349     38350
     38351     38352     38351     38353     38352     38353     38354     38355
     38354     38356     38355     38356     38357     38358     38357     38359
     38358     38359     38360     38361     38360     38362     38361     38362
     38363     38364     38363     38365     38364     38365     38366     38367
     38366     38368     38367     38368     38369     38370     38369     38371
     38370     38371     38372     38373     38372     38374     38373     38374
     38375     38376     38375     38377     38376     38377     38378     38379
     38378     38380     38379     38380     38381     38382     38381     38383
     38382     38383     38384     38385     38384     38386     38385     38386
     38387     38388     38387     38389     38388     38389     38390     38391
     38390     38392     38391     38392     38393     38394     38393     38395
     38394     38395     38396     38397     38396     38398     38397     38398
     38399     38400     38399     38401     38400     38401     38402     38403
     38402     38404     38403     38404     38405     38406     38405     38407
     38406     38407     38408     38409     38408     38410     38409     38410
     38411     38412     38411     38413     38412     38413     38414     38415
     38414     38416     38415     38416     38417     38418     38417     38419
     38418     38419     38420     38421     38420     38422     38421     38422
     38423     38424     38423     38425     38424     38425     38426     38427
     38426     38428     38427     38428     38429     38430     38429     38431
     38430     38431     38432     38433     38432     38434     38433     38434
     38435     38436     38435     38437     38436     38437     38438     38439
     38438     38440     38439     38440     38441     38442     38441     38443
     38442     38443     38444     38445     38444     38446     38445     38446
     38447     38448     38447     38449     38448     38449     38450     38451
     38450     38452     38451     38452     38453     38454     38453     38455
     38454     38455     38456     38457     38456     38458     38457     38458
     38459     38460     38459     38461     38460     38461     38462     38463
     38462     38464     38463     38464     38465     38466     38465     38467
     38466     38467     38468     38469     38468     38470     38469     38470
     38471     38472     38471     38473     38472     38473     38474     38475
     38474     38476     38475     38476     38477     38478     38477     38479
     38478     38479     38480     38481     38480     38482     38481     38482
     38483     38484     38483     38485     38484     38485     38486     38487
     38486     38488     38487     38488     38489     38490     38489     38491
     38490     38491     38492     38493     38492     38494     38493     38494
     38495     38496     38495     38497     38496     38497     38498     38499
     38498     38500     38499     38500     38501     38502     38501     38503
     38502     38503     38504     38505     38504     38506     38505     38506
     38507     38508     38507     38509     38508     38509     38510     38511
     38510     38512     38511     38512     38513     38514     38513     38515
     38514     38515     38516     38517     38516     38518     38517     38518
     38519     38520     38519     38521     38520     38521     38522     38523
     38522     38524     38523     38524     38525     38526     38525     38527
     38526     38527     38528     38529     38528     38530     38529     38530
     38531     38532     38531     38533     38532     38533     38534     38535
     38534     38536     38535     38536     38537     38538     38537     38539
     38538     38539     38540     38541     38540     38542     38541     38542
     38543     38544     38543     38545     38544     38545     38546     38547
     38546     38548     38547     38548     38549     38550     38549     38551
     38550     38551     38552     38553     38552     38554     38553     38554
     38555     38556     38555     38557     38556     38557     38558     38559
     38558     38560     38559     38560     38561     38562     38561     38563
     38562     38563     38564     38565     38564     38566     38565     38566
     38567     38568     38567     38569     38568     38569     38570     38571
     38570     38572     38571     38572     38573     38574     38573     38575
     38574     38575     38576     38577     38576     38578     38577     38578
     38579     38580     38579     38581     38580     38581     38582     38583
     38582     38584     38583     38584     38585     38586     38585     38587
     38586     38587     38588     38589     38588     38590     38589     38590
     38591     38592     38591     38593     38592     38593     38594     38595
     38594     38596     38595     38596     38597     38598     38597     38599
     38598     38599     38600     38601     38600     38602     38601     38602
     38603     38604     38603     38605     38604     38605     38606     38607
     38606     38608     38607     38608     38609     38610     38609     38611
     38610     38611     38612     38613     38612     38614     38613     38614
     38615     38616     38615     38617     38616     38617     38618     38619
     38618     38620     38619     38620     38621     38622     38621     38623
     38622     38623     38624     38625     38624     38626     38625     38626
     38627     38628     38627     38629     38628     38629     38630     38631
     38630     38632     38631     38632     38633     38634     38633     38635
     38634     38635     38636     38637     38636     38638     38637     38638
     38639     38640     38639     38641     38640     38641     38642     38643
     38642     38644     38643     38644     38645     38646     38645     38647
     38646     38647     38648     38649     38648     38650     38649     38650
     38651     38652     38651     38653     38652     38653     38654     38655
     38654     38656     38655     38656     38657     38658     38657     38659
     38658     38659     38660     38661     38660     38662     38661     38662
     38663     38664     38663     38665     38664     38665     38666     38667
     38666     38668     38667     38668     38669     38670     38669     38671
     38670     38671     38672     38673     38672     38674     38673     38674
     38675     38676     38675     38677     38676     38677     38678     38679
     38678     38680     38679     38680     38681     38682     38681     38683
     38682     38683     38684     38685     38684     38686     38685     38686
     38687     38688     38687     38689     38688     38689     38690     38691
     38690     38692     38691     38692     38693     38694     38693     38695
     38694     38695     38696     38697     38696     38698     38697     38698
     38699     38700     38699     38701     38700     38701     38702     38703
     38702     38704     38703     38704     38705     38706     38705     38707
     38706     38707     38708     38709     38708     38710     38709     38710
     38711     38712     38711     38713     38712     38713     38714     38715
     38714     38716     38715     38716     38717     38718     38717     38719
     38718     38719     38720     38721     38720     38722     38721     38722
     38723     38724     38723     38725     38724     38725     38726     38727
     38726     38728     38727     38728     38729     38730     38729     38731
     38730     38731     38732     38733     38732     38734     38733     38734
     38735     38736     38735     38737     38736     38737     38738     38739
     38738     38740     38739     38740     38741     38742     38741     38743
     38742     38743     38744     38745     38744     38746     38745     38746
     38747     38748     38747     38749     38748     38749     38750     38751
     38750     38752     38751     38752     38753     38754     38753     38755
     38754     38755     38756     38757     38756     38758     38757     38758
     38759     38760     38759     38761     38760     38761     38762     38763
     38762     38764     38763     38764     38765     38766     38765     38767
     38766     38767     38768     38769     38768     38770     38769     38770
     38771     38772     38771     38773     38772     38773     38774     38775
     38774     38776     38775     38776     38777     38778     38777     38779
     38778     38779     38780     38781     38780     38782     38781     38782
     38783     38784     38783     38785     38784     38785     38786     38787
     38786     38788     38787     38788     38789     38790     38789     38791
     38790     38791     38792     38793     38792     38794     38793     38794
     38795     38796     38795     38797     38796     38797     38798     38799
     38798     38800     38799     38800     38801     38802     38801     38803
     38802     38803     38804     38805     38804     38806     38805     38806
     38807     38808     38807     38809     38808     38809     38810     38811
     38810     38812     38811     38812     38813     38814     38813     38815
     38814     38815     38816     38817     38816     38818     38817     38818
     38819     38820     38819     38821     38820     38821     38822     38823
     38822     38824     38823     38824     38825     38826     38825     38827
     38826     38827     38828     38829     38828     38830     38829     38830
     38831     38832     38831     38833     38832     38833     38834     38835
     38834     38836     38835     38836     38837     38838     38837     38839
     38838     38839     38840     38841     38840     38842     38841     38842
     38843     38844     38843     38845     38844     38845     38846     38847
     38846     38848     38847     38848     38849     38850     38849     38851
     38850     38851     38852     38853     38852     38854     38853     38854
     38855     38856     38855     38857     38856     38857     38858     38859
     38858     38860     38859     38860     38861     38862     38861     38863
     38862     38863     38864     38865     38864     38866     38865     38866
     38867     38868     38867     38869     38868     38869     38870     38871
     38870     38872     38871     38872     38873     38874     38873     38875
     38874     38875     38876     38877     38876     38878     38877     38878
     38879     38880     38879     38881     38880     38881     38882     38883
     38882     38884     38883     38884     38885     38886     38885     38887
     38886     38887     38888     38889     38888     38890     38889     38890
     38891     38892     38891     38893     38892     38893     38894     38895
     38894     38896     38895     38896     38897     38898     38897     38899
     38898     38899     38900     38901     38900     38902     38901     38902
     38903     38904     38903     38905     38904     38905     38906     38907
     38906     38908     38907     38908     38909     38910     38909     38911
     38910     38911     38912     38913     38912     38914     38913     38914
     38915     38916     38915     38917     38916     38917     38918     38919
     38918     38920     38919     38920     38921     38922     38921     38923
     38922     38923     38924     38925     38924     38926     38925     38926
     38927     38928     38927     38929     38928     38929     38930     38931
     38930     38932     38931     38932     38933     38934     38933     38935
     38934     38935     38936     38937     38936     38938     38937     38938
     38939     38940     38939     38941     38940     38941     38942     38943
     38942     38944     38943     38944     38945     38946     38945     38947
     38946     38947     38948     38949     38948     38950     38949     38950
     38951     38952     38951     38953     38952     38953     38954     38955
     38954     38956     38955     38956     38957     38958     38957     38959
     38958     38959     38960     38961     38960     38962     38961     38962
     38963     38964     38963     38965     38964     38965     38966     38967
     38966     38968     38967     38968     38969     38970     38969     38971
     38970     38971     38972     38973     38972     38974     38973     38974
     38975     38976     38975     38977     38976     38977     38978     38979
     38978     38980     38979     38980     38981     38982     38981     38983
     38982     38983     38984     38985     38984     38986     38985     38986
     38987     38988     38987     38989     38988     38989     38990     38991
     38990     38992     38991     38992     38993     38994     38993     38995
     38994     38995     38996     38997     38996     38998     38997     38998
     38999     39000     38999     39001     39000     39001     39002     39003
     39002     39004     39003     39004     39005     39006     39005     39007
     39006     39007     39008     39009     39008     39010     39009     39010
     39011     39012     39011     39013     39012     39013     39014     39015
     39014     39016     39015     39016     39017     39018     39017     39019
     39018     39019     39020     39021     39020     39022     39021     39022
     39023     39024     39023     39025     39024     39025     39026     39027
     39026     39028     39027     39028     39029     39030     39029     39031
     39030     39031     39032     39033     39032     39034     39033     39034
     39035     39036     39035     39037     39036     39037     39038     39039
     39038     39040     39039     39040     39041     39042     39041     39043
     39042     39043     39044     39045     39044     39046     39045     39046
     39047     39048     39047     39049     39048     39049     39050     39051
     39050     39052     39051     39052     39053     39054     39053     39055
     39054     39055     39056     39057     39056     39058     39057     39058
     39059     39060     39059     39061     39060     39061     39062     39063
     39062     39064     39063     39064     39065     39066     39065     39067
     39066     39067     39068     39069     39068     39070     39069     39070
     39071     39072     39071     39073     39072     39073     39074     39075
     39074     39076     39075     39076     39077     39078     39077     39079
     39078     39079     39080     39081     39080     39082     39081     39082
     39083     39084     39083     39085     39084     39085     39086     39087
     39086     39088     39087     39088     39089     39090     39089     39091
     39090     39091     39092     39093     39092     39094     39093     39094
     39095     39096     39095     39097     39096     39097     39098     39099
     39098     39100     39099     39100     39101     39102     39101     39103
     39102     39103     39104     39105     39104     39106     39105     39106
     39107     39108     39107     39109     39108     39109     39110     39111
     39110     39112     39111     39112     39113     39114     39113     39115
     39114     39115     39116     39117     39116     39118     39117     39118
     39119     39120     39119     39121     39120     39121     39122     39123
     39122     39124     39123     39124     39125     39126     39125     39127
     39126     39127     39128     39129     39128     39130     39129     39130
     39131     39132     39131     39133     39132     39133     39134     39135
     39134     39136     39135     39136     39137     39138     39137     39139
     39138     39139     39140     39141     39140     39142     39141     39142
     39143     39144     39143     39145     39144     39145     39146     39147
     39146     39148     39147     39148     39149     39150     39149     39151
     39150     39151     39152     39153     39152     39154     39153     39154
     39155     39156     39155     39157     39156     39157     39158     39159
     39158     39160     39159     39160     39161     39162     39161     39163
     39162     39163     39164     39165     39164     39166     39165     39166
     39167     39168     39167     39169     39168     39169     39170     39171
     39170     39172     39171     39172     39173     39174     39173     39175
     39174     39175     39176     39177     39176     39178     39177     39178
     39179     39180     39179     39181     39180     39181     39182     39183
     39182     39184     39183     39184     39185     39186     39185     39187
     39186     39187     39188     39189     39188     39190     39189     39190
     39191     39192     39191     39193     39192     39193     39194     39195
     39194     39196     39195     39196     39197     39198     39197     39199
     39198     39199     39200     39201     39200     39202     39201     39202
     39203     39204     39203     39205     39204     39205     39206     39207
     39206     39208     39207     39208     39209     39210     39209     39211
     39210     39211     39212     39213     39212     39214     39213     39214
     39215     39216     39215     39217     39216     39217     39218     39219
     39218     39220     39219     39220     39221     39222     39221     39223
     39222     39223     39224     39225     39224     39226     39225     39226
     39227     39228     39227     39229     39228     39229     39230     39231
     39230     39232     39231     39232     39233     39234     39233     39235
     39234     39235     39236     39237     39236     39238     39237     39238
     39239     39240     39239     39241     39240     39241     39242     39243
     39242     39244     39243     39244     39245     39246     39245     39247
     39246     39247     39248     39249     39248     39250     39249     39250
     39251     39252     39251     39253     39252     39253     39254     39255
     39254     39256     39255     39256     39257     39258     39257     39259
     39258     39259     39260     39261     39260     39262     39261     39262
     39263     39264     39263     39265     39264     39265     39266     39267
     39266     39268     39267     39268     39269     39270     39269     39271
     39270     39271     39272     39273     39272     39274     39273     39274
     39275     39276     39275     39277     39276     39277     39278     39279
     39278     39280     39279     39280     39281     39282     39281     39283
     39282     39283     39284     39285     39284     39286     39285     39286
     39287     39288     39287     39289     39288     39289     39290     39291
     39290     39292     39291     39292     39293     39294     39293     39295
     39294     39295     39296     39297     39296     39298     39297     39298
     39299     39300     39299     39301     39300     39301     39302     39303
     39302     39304     39303     39304     39305     39306     39305     39307
     39306     39307     39308     39309     39308     39310     39309     39310
     39311     39312     39311     39313     39312     39313     39314     39315
     39314     39316     39315     39316     39317     39318     39317     39319
     39318     39319     39320     39321     39320     39322     39321     39322
     39323     39324     39323     39325     39324     39325     39326     39327
     39326     39328     39327     39328     39329     39330     39329     39331
     39330     39331     39332     39333     39332     39334     39333     39334
     39335     39336     39335     39337     39336     39337     39338     39339
     39338     39340     39339     39340     39341     39342     39341     39343
     39342     39343     39344     39345     39344     39346     39345     39346
     39347     39348     39347     39349     39348     39349     39350     39351
     39350     39352     39351     39352     39353     39354     39353     39355
     39354     39355     39356     39357     39356     39358     39357     39358
     39359     39360     39359     39361     39360     39361     39362     39363
     39362     39364     39363     39364     39365     39366     39365     39367
     39366     39367     39368     39369     39368     39370     39369     39370
     39371     39372     39371     39373     39372     39373     39374     39375
     39374     39376     39375     39376     39377     39378     39377     39379
     39378     39379     39380     39381     39380     39382     39381     39382
     39383     39384     39383     39385     39384     39385     39386     39387
     39386     39388     39387     39388     39389     39390     39389     39391
     39390     39391     39392     39393     39392     39394     39393     39394
     39395     39396     39395     39397     39396     39397     39398     39399
     39398     39400     39399     39400     39401     39402     39401     39403
     39402     39403     39404     39405     39404     39406     39405     39406
     39407     39408     39407     39409     39408     39409     39410     39411
     39410     39412     39411     39412     39413     39414     39413     39415
     39414     39415     39416     39417     39416     39418     39417     39418
     39419     39420     39419     39421     39420     39421     39422     39423
     39422     39424     39423     39424     39425     39426     39425     39427
     39426     39427     39428     39429     39428     39430     39429     39430
     39431     39432     39431     39433     39432     39433     39434     39435
     39434     39436     39435     39436     39437     39438     39437     39439
     39438     39439     39440     39441     39440     39442     39441     39442
     39443     39444     39443     39445     39444     39445     39446     39447
     39446     39448     39447     39448     39449     39450     39449     39451
     39450     39451     39452     39453     39452     39454     39453     39454
     39455     39456     39455     39457     39456     39457     39458     39459
     39458     39460     39459     39460     39461     39462     39461     39463
     39462     39463     39464     39465     39464     39466     39465     39466
     39467     39468     39467     39469     39468     39469     39470     39471
     39470     39472     39471     39472     39473     39474     39473     39475
     39474     39475     39476     39477     39476     39478     39477     39478
     39479     39480     39479     39481     39480     39481     39482     39483
     39482     39484     39483     39484     39485     39486     39485     39487
     39486     39487     39488     39489     39488     39490     39489     39490
     39491     39492     39491     39493     39492     39493     39494     39495
     39494     39496     39495     39496     39497     39498     39497     39499
     39498     39499     39500     39501     39500     39502     39501     39502
     39503     39504     39503     39505     39504     39505     39506     39507
     39506     39508     39507     39508     39509     39510     39509     39511
     39510     39511     39512     39513     39512     39514     39513     39514
     39515     39516     39515     39517     39516     39517     39518     39519
     39518     39520     39519     39520     39521     39522     39521     39523
     39522     39523     39524     39525     39524     39526     39525     39526
     39527     39528     39527     39529     39528     39529     39530     39531
     39530     39532     39531     39532     39533     39534     39533     39535
     39534     39535     39536     39537     39536     39538     39537     39538
     39539     39540     39539     39541     39540     39541     39542     39543
     39542     39544     39543     39544     39545     39546     39545     39547
     39546     39547     39548     39549     39548     39550     39549     39550
     39551     39552     39551     39553     39552     39553     39554     39555
     39554     39556     39555     39556     39557     39558     39557     39559
     39558     39559     39560     39561     39560     39562     39561     39562
     39563     39564     39563     39565     39564     39565     39566     39567
     39566     39568     39567     39568     39569     39570     39569     39571
     39570     39571     39572     39573     39572     39574     39573     39574
     39575     39576     39575     39577     39576     39577     39578     39579
     39578     39580     39579     39580     39581     39582     39581     39583
     39582     39583     39584     39585     39584     39586     39585     39586
     39587     39588     39587     39589     39588     39589     39590     39591
     39590     39592     39591     39592     39593     39594     39593     39595
     39594     39595     39596     39597     39596     39598     39597     39598
     39599     39600     39599     39601     39600     39601     39602     39603
     39602     39604     39603     39604     39605     39606     39605     39607
     39606     39607     39608     39609     39608     39610     39609     39610
     39611     39612     39611     39613     39612     39613     39614     39615
     39614     39616     39615     39616     39617     39618     39617     39619
     39618     39619     39620     39621     39620     39622     39621     39622
     39623     39624     39623     39625     39624     39625     39626     39627
     39626     39628     39627     39628     39629     39630     39629     39631
     39630     39631     39632     39633     39632     39634     39633     39634
     39635     39636     39635     39637     39636     39637     39638     39639
     39638     39640     39639     39640     39641     39642     39641     39643
     39642     39643     39644     39645     39644     39646     39645     39646
     39647     39648     39647     39649     39648     39649     39650     39651
     39650     39652     39651     39652     39653     39654     39653     39655
     39654     39655     39656     39657     39656     39658     39657     39658
     39659     39660     39659     39661     39660     39661     39662     39663
     39662     39664     39663     39664     39665     39666     39665     39667
     39666     39667     39668     39669     39668     39670     39669     39670
     39671     39672     39671     39673     39672     39673     39674     39675
     39674     39676     39675     39676     39677     39678     39677     39679
     39678     39679     39680     39681     39680     39682     39681     39682
     39683     39684     39683     39685     39684     39685     39686     39687
     39686     39688     39687     39688     39689     39690     39689     39691
     39690     39691     39692     39693     39692     39694     39693     39694
     39695     39696     39695     39697     39696     39697     39698     39699
     39698     39700     39699     39700     39701     39702     39701     39703
     39702     39703     39704     39705     39704     39706     39705     39706
     39707     39708     39707     39709     39708     39709     39710     39711
     39710     39712     39711     39712     39713     39714     39713     39715
     39714     39715     39716     39717     39716     39718     39717     39718
     39719     39720     39719     39721     39720     39721     39722     39723
     39722     39724     39723     39724     39725     39726     39725     39727
     39726     39727     39728     39729     39728     39730     39729     39730
     39731     39732     39731     39733     39732     39733     39734     39735
     39734     39736     39735     39736     39737     39738     39737     39739
     39738     39739     39740     39741     39740     39742     39741     39742
     39743     39744     39743     39745     39744     39745     39746     39747
     39746     39748     39747     39748     39749     39750     39749     39751
     39750     39751     39752     39753     39752     39754     39753     39754
     39755     39756     39755     39757     39756     39757     39758     39759
     39758     39760     39759     39760     39761     39762     39761     39763
     39762     39763     39764     39765     39764     39766     39765     39766
     39767     39768     39767     39769     39768     39769     39770     39771
     39770     39772     39771     39772     39773     39774     39773     39775
     39774     39775     39776     39777     39776     39778     39777     39778
     39779     39780     39779     39781     39780     39781     39782     39783
     39782     39784     39783     39784     39785     39786     39785     39787
     39786     39787     39788     39789     39788     39790     39789     39790
     39791     39792     39791     39793     39792     39793     39794     39795
     39794     39796     39795     39796     39797     39798     39797     39799
     39798     39799     39800     39801     39800     39802     39801     39802
     39803     39804     39803     39805     39804     39805     39806     39807
     39806     39808     39807     39808     39809     39810     39809     39811
     39810     39811     39812     39813     39812     39814     39813     39814
     39815     39816     39815     39817     39816     39817     39818     39819
     39818     39820     39819     39820     39821     39822     39821     39823
     39822     39823     39824     39825     39824     39826     39825     39826
     39827     39828     39827     39829     39828     39829     39830     39831
     39830     39832     39831     39832     39833     39834     39833     39835
     39834     39835     39836     39837     39836     39838     39837     39838
     39839     39840     39839     39841     39840     39841     39842     39843
     39842     39844     39843     39844     39845     39846     39845     39847
     39846     39847     39848     39849     39848     39850     39849     39850
     39851     39852     39851     39853     39852     39853     39854     39855
     39854     39856     39855     39856     39857     39858     39857     39859
     39858     39859     39860     39861     39860     39862     39861     39862
     39863     39864     39863     39865     39864     39865     39866     39867
     39866     39868     39867     39868     39869     39870     39869     39871
     39870     39871     39872     39873     39872     39874     39873     39874
     39875     39876     39875     39877     39876     39877     39878     39879
     39878     39880     39879     39880     39881     39882     39881     39883
     39882     39883     39884     39885     39884     39886     39885     39886
     39887     39888     39887     39889     39888     39889     39890     39891
     39890     39892     39891     39892     39893     39894     39893     39895
     39894     39895     39896     39897     39896     39898     39897     39898
     39899     39900     39899     39901     39900     39901     39902     39903
     39902     39904     39903     39904     39905     39906     39905     39907
     39906     39907     39908     39909     39908     39910     39909     39910
     39911     39912     39911     39913     39912     39913     39914     39915
     39914     39916     39915     39916     39917     39918     39917     39919
     39918     39919     39920     39921     39920     39922     39921     39922
     39923     39924     39923     39925     39924     39925     39926     39927
     39926     39928     39927     39928     39929     39930     39929     39931
     39930     39931     39932     39933     39932     39934     39933     39934
     39935     39936     39935     39937     39936     39937     39938     39939
     39938     39940     39939     39940     39941     39942     39941     39943
     39942     39943     39944     39945     39944     39946     39945     39946
     39947     39948     39947     39949     39948     39949     39950     39951
     39950     39952     39951     39952     39953     39954     39953     39955
     39954     39955     39956     39957     39956     39958     39957     39958
     39959     39960     39959     39961     39960     39961     39962     39963
     39962     39964     39963     39964     39965     39966     39965     39967
     39966     39967     39968     39969     39968     39970     39969     39970
     39971     39972     39971     39973     39972     39973     39974     39975
     39974     39976     39975     39976     39977     39978     39977     39979
     39978     39979     39980     39981     39980     39982     39981     39982
     39983     39984     39983     39985     39984     39985     39986     39987
     39986     39988     39987     39988     39989     39990     39989     39991
     39990     39991     39992     39993     39992     39994     39993     39994
     39995     39996     39995     39997     39996     39997     39998     39999
     39998     40000     39999     40000     40001     40002     40001     40003
     40002     40003     40004     40005     40004     40006     40005     40006
     40007     40008     40007     40009     40008     40009     40010     40011
     40010     40012     40011     40012     40013     40014     40013     40015
     40014     40015     40016     40017     40016     40018     40017     40018
     40019     40020     40019     40021     40020     40021     40022     40023
     40022     40024     40023     40024     40025     40026     40025     40027
     40026     40027     40028     40029     40028     40030     40029     40030
     40031     40032     40031     40033     40032     40033     40034     40035
     40034     40036     40035     40036     40037     40038     40037     40039
     40038     40039     40040     40041     40040     40042     40041     40042
     40043     40044     40043     40045     40044     40045     40046     40047
     40046     40048     40047     40048     40049     40050     40049     40051
     40050     40051     40052     40053     40052     40054     40053     40054
     40055     40056     40055     40057     40056     40057     40058     40059
     40058     40060     40059     40060     40061     40062     40061     40063
     40062     40063     40064     40065     40064     40066     40065     40066
     40067     40068     40067     40069     40068     40069     40070     40071
     40070     40072     40071     40072     40073     40074     40073     40075
     40074     40075     40076     40077     40076     40078     40077     40078
     40079     40080     40079     40081     40080     40081     40082     40083
     40082     40084     40083     40084     40085     40086     40085     40087
     40086     40087     40088     40089     40088     40090     40089     40090
     40091     40092     40091     40093     40092     40093     40094     40095
     40094     40096     40095     40096     40097     40098     40097     40099
     40098     40099     40100     40101     40100     40102     40101     40102
     40103     40104     40103     40105     40104     40105     40106     40107
     40106     40108     40107     40108     40109     40110     40109     40111
     40110     40111     40112     40113     40112     40114     40113     40114
     40115     40116     40115     40117     40116     40117     40118     40119
     40118     40120     40119     40120     40121     40122     40121     40123
     40122     40123     40124     40125     40124     40126     40125     40126
     40127     40128     40127     40129     40128     40129     40130     40131
     40130     40132     40131     40132     40133     40134     40133     40135
     40134     40135     40136     40137     40136     40138     40137     40138
     40139     40140     40139     40141     40140     40141     40142     40143
     40142     40144     40143     40144     40145     40146     40145     40147
     40146     40147     40148     40149     40148     40150     40149     40150
     40151     40152     40151     40153     40152     40153     40154     40155
     40154     40156     40155     40156     40157     40158     40157     40159
     40158     40159     40160     40161     40160     40162     40161     40162
     40163     40164     40163     40165     40164     40165     40166     40167
     40166     40168     40167     40168     40169     40170     40169     40171
     40170     40171     40172     40173     40172     40174     40173     40174
     40175     40176     40175     40177     40176     40177     40178     40179
     40178     40180     40179     40180     40181     40182     40181     40183
     40182     40183     40184     40185     40184     40186     40185     40186
     40187     40188     40187     40189     40188     40189     40190     40191
     40190     40192     40191     40192     40193     40194     40193     40195
     40194     40195     40196     40197     40196     40198     40197     40198
     40199     40200     40199     40201     40200     40201     40202     40203
     40202     40204     40203     40204     40205     40206     40205     40207
     40206     40207     40208     40209     40208     40210     40209     40210
     40211     40212     40211     40213     40212     40213     40214     40215
     40214     40216     40215     40216     40217     40218     40217     40219
     40218     40219     40220     40221     40220     40222     40221     40222
     40223     40224     40223     40225     40224     40225     40226     40227
     40226     40228     40227     40228     40229     40230     40229     40231
     40230     40231     40232     40233     40232     40234     40233     40234
     40235     40236     40235     40237     40236     40237     40238     40239
     40238     40240     40239     40240     40241     40242     40241     40243
     40242     40243     40244     40245     40244     40246     40245     40246
     40247     40248     40247     40249     40248     40249     40250     40251
     40250     40252     40251     40252     40253     40254     40253     40255
     40254     40255     40256     40257     40256     40258     40257     40258
     40259     40260     40259     40261     40260     40261     40262     40263
     40262     40264     40263     40264     40265     40266     40265     40267
     40266     40267     40268     40269     40268     40270     40269     40270
     40271     40272     40271     40273     40272     40273     40274     40275
     40274     40276     40275     40276     40277     40278     40277     40279
     40278     40279     40280     40281     40280     40282     40281     40282
     40283     40284     40283     40285     40284     40285     40286     40287
     40286     40288     40287     40288     40289     40290     40289     40291
     40290     40291     40292     40293     40292     40294     40293     40294
     40295     40296     40295     40297     40296     40297     40298     40299
     40298     40300     40299     40300     40301     40302     40301     40303
     40302     40303     40304     40305     40304     40306     40305     40306
     40307     40308     40307     40309     40308     40309     40310     40311
     40310     40312     40311     40312     40313     40314     40313     40315
     40314     40315     40316     40317     40316     40318     40317     40318
     40319     40320     40319     40321     40320     40321     40322     40323
     40322     40324     40323     40324     40325     40326     40325     40327
     40326     40327     40328     40329     40328     40330     40329     40330
     40331     40332     40331     40333     40332     40333     40334     40335
     40334     40336     40335     40336     40337     40338     40337     40339
     40338     40339     40340     40341     40340     40342     40341     40342
     40343     40344     40343     40345     40344     40345     40346     40347
     40346     40348     40347     40348     40349     40350     40349     40351
     40350     40351     40352     40353     40352     40354     40353     40354
     40355     40356     40355     40357     40356     40357     40358     40359
     40358     40360     40359     40360     40361     40362     40361     40363
     40362     40363     40364     40365     40364     40366     40365     40366
     40367     40368     40367     40369     40368     40369     40370     40371
     40370     40372     40371     40372     40373     40374     40373     40375
     40374     40375     40376     40377     40376     40378     40377     40378
     40379     40380     40379     40381     40380     40381     40382     40383
     40382     40384     40383     40384     40385     40386     40385     40387
     40386     40387     40388     40389     40388     40390     40389     40390
     40391     40392     40391     40393     40392     40393     40394     40395
     40394     40396     40395     40396     40397     40398     40397     40399
     40398     40399     40400     40401     40400     40402     40401     40402
     40403     40404     40403     40405     40404     40405     40406     40407
     40406     40408     40407     40408     40409     40410     40409     40411
     40410     40411     40412     40413     40412     40414     40413     40414
     40415     40416     40415     40417     40416     40417     40418     40419
     40418     40420     40419     40420     40421     40422     40421     40423
     40422     40423     40424     40425     40424     40426     40425     40426
     40427     40428     40427     40429     40428     40429     40430     40431
     40430     40432     40431     40432     40433     40434     40433     40435
     40434     40435     40436     40437     40436     40438     40437     40438
     40439     40440     40439     40441     40440     40441     40442     40443
     40442     40444     40443     40444     40445     40446     40445     40447
     40446     40447     40448     40449     40448     40450     40449     40450
     40451     40452     40451     40453     40452     40453     40454     40455
     40454     40456     40455     40456     40457     40458     40457     40459
     40458     40459     40460     40461     40460     40462     40461     40462
     40463     40464     40463     40465     40464     40465     40466     40467
     40466     40468     40467     40468     40469     40470     40469     40471
     40470     40471     40472     40473     40472     40474     40473     40474
     40475     40476     40475     40477     40476     40477     40478     40479
     40478     40480     40479     40480     40481     40482     40481     40483
     40482     40483     40484     40485     40484     40486     40485     40486
     40487     40488     40487     40489     40488     40489     40490     40491
     40490     40492     40491     40492     40493     40494     40493     40495
     40494     40495     40496     40497     40496     40498     40497     40498
     40499     40500     40499     40501     40500     40501     40502     40503
     40502     40504     40503     40504     40505     40506     40505     40507
     40506     40507     40508     40509     40508     40510     40509     40510
     40511     40512     40511     40513     40512     40513     40514     40515
     40514     40516     40515     40516     40517     40518     40517     40519
     40518     40519     40520     40521     40520     40522     40521     40522
     40523     40524     40523     40525     40524     40525     40526     40527
     40526     40528     40527     40528     40529     40530     40529     40531
     40530     40531     40532     40533     40532     40534     40533     40534
     40535     40536     40535     40537     40536     40537     40538     40539
     40538     40540     40539     40540     40541     40542     40541     40543
     40542     40543     40544     40545     40544     40546     40545     40546
     40547     40548     40547     40549     40548     40549     40550     40551
     40550     40552     40551     40552     40553     40554     40553     40555
     40554     40555     40556     40557     40556     40558     40557     40558
     40559     40560     40559     40561     40560     40561     40562     40563
     40562     40564     40563     40564     40565     40566     40565     40567
     40566     40567     40568     40569     40568     40570     40569     40570
     40571     40572     40571     40573     40572     40573     40574     40575
     40574     40576     40575     40576     40577     40578     40577     40579
     40578     40579     40580     40581     40580     40582     40581     40582
     40583     40584     40583     40585     40584     40585     40586     40587
     40586     40588     40587     40588     40589     40590     40589     40591
     40590     40591     40592     40593     40592     40594     40593     40594
     40595     40596     40595     40597     40596     40597     40598     40599
     40598     40600     40599     40600     40601     40602     40601     40603
     40602     40603     40604     40605     40604     40606     40605     40606
     40607     40608     40607     40609     40608     40609     40610     40611
     40610     40612     40611     40612     40613     40614     40613     40615
     40614     40615     40616     40617     40616     40618     40617     40618
     40619     40620     40619     40621     40620     40621     40622     40623
     40622     40624     40623     40624     40625     40626     40625     40627
     40626     40627     40628     40629     40628     40630     40629     40630
     40631     40632     40631     40633     40632     40633     40634     40635
     40634     40636     40635     40636     40637     40638     40637     40639
     40638     40639     40640     40641     40640     40642     40641     40642
     40643     40644     40643     40645     40644     40645     40646     40647
     40646     40648     40647     40648     40649     40650     40649     40651
     40650     40651     40652     40653     40652     40654     40653     40654
     40655     40656     40655     40657     40656     40657     40658     40659
     40658     40660     40659     40660     40661     40662     40661     40663
     40662     40663     40664     40665     40664     40666     40665     40666
     40667     40668     40667     40669     40668     40669     40670     40671
     40670     40672     40671     40672     40673     40674     40673     40675
     40674     40675     40676     40677     40676     40678     40677     40678
     40679     40680     40679     40681     40680     40681     40682     40683
     40682     40684     40683     40684     40685     40686     40685     40687
     40686     40687     40688     40689     40688     40690     40689     40690
     40691     40692     40691     40693     40692     40693     40694     40695
     40694     40696     40695     40696     40697     40698     40697     40699
     40698     40699     40700     40701     40700     40702     40701     40702
     40703     40704     40703     40705     40704     40705     40706     40707
     40706     40708     40707     40708     40709     40710     40709     40711
     40710     40711     40712     40713     40712     40714     40713     40714
     40715     40716     40715     40717     40716     40717     40718     40719
     40718     40720     40719     40720     40721     40722     40721     40723
     40722     40723     40724     40725     40724     40726     40725     40726
     40727     40728     40727     40729     40728     40729     40730     40731
     40730     40732     40731     40732     40733     40734     40733     40735
     40734     40735     40736     40737     40736     40738     40737     40738
     40739     40740     40739     40741     40740     40741     40742     40743
     40742     40744     40743     40744     40745     40746     40745     40747
     40746     40747     40748     40749     40748     40750     40749     40750
     40751     40752     40751     40753     40752     40753     40754     40755
     40754     40756     40755     40756     40757     40758     40757     40759
     40758     40759     40760     40761     40760     40762     40761     40762
     40763     40764     40763     40765     40764     40765     40766     40767
     40766     40768     40767     40768     40769     40770     40769     40771
     40770     40771     40772     40773     40772     40774     40773     40774
     40775     40776     40775     40777     40776     40777     40778     40779
     40778     40780     40779     40780     40781     40782     40781     40783
     40782     40783     40784     40785     40784     40786     40785     40786
     40787     40788     40787     40789     40788     40789     40790     40791
     40790     40792     40791     40792     40793     40794     40793     40795
     40794     40795     40796     40797     40796     40798     40797     40798
     40799     40800     40799     40801     40800     40801     40802     40803
     40802     40804     40803     40804     40805     40806     40805     40807
     40806     40807     40808     40809     40808     40810     40809     40810
     40811     40812     40811     40813     40812     40813     40814     40815
     40814     40816     40815     40816     40817     40818     40817     40819
     40818     40819     40820     40821     40820     40822     40821     40822
     40823     40824     40823     40825     40824     40825     40826     40827
     40826     40828     40827     40828     40829     40830     40829     40831
     40830     40831     40832     40833     40832     40834     40833     40834
     40835     40836     40835     40837     40836     40837     40838     40839
     40838     40840     40839     40840     40841     40842     40841     40843
     40842     40843     40844     40845     40844     40846     40845     40846
     40847     40848     40847     40849     40848     40849     40850     40851
     40850     40852     40851     40852     40853     40854     40853     40855
     40854     40855     40856     40857     40856     40858     40857     40858
     40859     40860     40859     40861     40860     40861     40862     40863
     40862     40864     40863     40864     40865     40866     40865     40867
     40866     40867     40868     40869     40868     40870     40869     40870
     40871     40872     40871     40873     40872     40873     40874     40875
     40874     40876     40875     40876     40877     40878     40877     40879
     40878     40879     40880     40881     40880     40882     40881     40882
     40883     40884     40883     40885     40884     40885     40886     40887
     40886     40888     40887     40888     40889     40890     40889     40891
     40890     40891     40892     40893     40892     40894     40893     40894
     40895     40896     40895     40897     40896     40897     40898     40899
     40898     40900     40899     40900     40901     40902     40901     40903
     40902     40903     40904     40905     40904     40906     40905     40906
     40907     40908     40907     40909     40908     40909     40910     40911
     40910     40912     40911     40912     40913     40914     40913     40915
     40914     40915     40916     40917     40916     40918     40917     40918
     40919     40920     40919     40921     40920     40921     40922     40923
     40922     40924     40923     40924     40925     40926     40925     40927
     40926     40927     40928     40929     40928     40930     40929     40930
     40931     40932     40931     40933     40932     40933     40934     40935
     40934     40936     40935     40936     40937     40938     40937     40939
     40938     40939     40940     40941     40940     40942     40941     40942
     40943     40944     40943     40945     40944     40945     40946     40947
     40946     40948     40947     40948     40949     40950     40949     40951
     40950     40951     40952     40953     40952     40954     40953     40954
     40955     40956     40955     40957     40956     40957     40958     40959
     40958     40960     40959     40960     40961     40962     40961     40963
     40962     40963     40964     40965     40964     40966     40965     40966
     40967     40968     40967     40969     40968     40969     40970     40971
     40970     40972     40971     40972     40973     40974     40973     40975
     40974     40975     40976     40977     40976     40978     40977     40978
     40979     40980     40979     40981     40980     40981     40982     40983
     40982     40984     40983     40984     40985     40986     40985     40987
     40986     40987     40988     40989     40988     40990     40989     40990
     40991     40992     40991     40993     40992     40993     40994     40995
     40994     40996     40995     40996     40997     40998     40997     40999
     40998     40999     41000     41001     41000     41002     41001     41002
     41003     41004     41003     41005     41004     41005     41006     41007
     41006     41008     41007     41008     41009     41010     41009     41011
     41010     41011     41012     41013     41012     41014     41013     41014
     41015     41016     41015     41017     41016     41017     41018     41019
     41018     41020     41019     41020     41021     41022     41021     41023
     41022     41023     41024     41025     41024     41026     41025     41026
     41027     41028     41027     41029     41028     41029     41030     41031
     41030     41032     41031     41032     41033     41034     41033     41035
     41034     41035     41036     41037     41036     41038     41037     41038
     41039     41040     41039     41041     41040     41041     41042     41043
     41042     41044     41043     41044     41045     41046     41045     41047
     41046     41047     41048     41049     41048     41050     41049     41050
     41051     41052     41051     41053     41052     41053     41054     41055
     41054     41056     41055     41056     41057     41058     41057     41059
     41058     41059     41060     41061     41060     41062     41061     41062
     41063     41064     41063     41065     41064     41065     41066     41067
     41066     41068     41067     41068     41069     41070     41069     41071
     41070     41071     41072     41073     41072     41074     41073     41074
     41075     41076     41075     41077     41076     41077     41078     41079
     41078     41080     41079     41080     41081     41082     41081     41083
     41082     41083     41084     41085     41084     41086     41085     41086
     41087     41088     41087     41089     41088     41089     41090     41091
     41090     41092     41091     41092     41093     41094     41093     41095
     41094     41095     41096     41097     41096     41098     41097     41098
     41099     41100     41099     41101     41100     41101     41102     41103
     41102     41104     41103     41104     41105     41106     41105     41107
     41106     41107     41108     41109     41108     41110     41109     41110
     41111     41112     41111     41113     41112     41113     41114     41115
     41114     41116     41115     41116     41117     41118     41117     41119
     41118     41119     41120     41121     41120     41122     41121     41122
     41123     41124     41123     41125     41124     41125     41126     41127
     41126     41128     41127     41128     41129     41130     41129     41131
     41130     41131     41132     41133     41132     41134     41133     41134
     41135     41136     41135     41137     41136     41137     41138     41139
     41138     41140     41139     41140     41141     41142     41141     41143
     41142     41143     41144     41145     41144     41146     41145     41146
     41147     41148     41147     41149     41148     41149     41150     41151
     41150     41152     41151     41152     41153     41154     41153     41155
     41154     41155     41156     41157     41156     41158     41157     41158
     41159     41160     41159     41161     41160     41161     41162     41163
     41162     41164     41163     41164     41165     41166     41165     41167
     41166     41167     41168     41169     41168     41170     41169     41170
     41171     41172     41171     41173     41172     41173     41174     41175
     41174     41176     41175     41176     41177     41178     41177     41179
     41178     41179     41180     41181     41180     41182     41181     41182
     41183     41184     41183     41185     41184     41185     41186     41187
     41186     41188     41187     41188     41189     41190     41189     41191
     41190     41191     41192     41193     41192     41194     41193     41194
     41195     41196     41195     41197     41196     41197     41198     41199
     41198     41200     41199     41200     41201     41202     41201     41203
     41202     41203     41204     41205     41204     41206     41205     41206
     41207     41208     41207     41209     41208     41209     41210     41211
     41210     41212     41211     41212     41213     41214     41213     41215
     41214     41215     41216     41217     41216     41218     41217     41218
     41219     41220     41219     41221     41220     41221     41222     41223
     41222     41224     41223     41224     41225     41226     41225     41227
     41226     41227     41228     41229     41228     41230     41229     41230
     41231     41232     41231     41233     41232     41233     41234     41235
     41234     41236     41235     41236     41237     41238     41237     41239
     41238     41239     41240     41241     41240     41242     41241     41242
     41243     41244     41243     41245     41244     41245     41246     41247
     41246     41248     41247     41248     41249     41250     41249     41251
     41250     41251     41252     41253     41252     41254     41253     41254
     41255     41256     41255     41257     41256     41257     41258     41259
     41258     41260     41259     41260     41261     41262     41261     41263
     41262     41263     41264     41265     41264     41266     41265     41266
     41267     41268     41267     41269     41268     41269     41270     41271
     41270     41272     41271     41272     41273     41274     41273     41275
     41274     41275     41276     41277     41276     41278     41277     41278
     41279     41280     41279     41281     41280     41281     41282     41283
     41282     41284     41283     41284     41285     41286     41285     41287
     41286     41287     41288     41289     41288     41290     41289     41290
     41291     41292     41291     41293     41292     41293     41294     41295
     41294     41296     41295     41296     41297     41298     41297     41299
     41298     41299     41300     41301     41300     41302     41301     41302
     41303     41304     41303     41305     41304     41305     41306     41307
     41306     41308     41307     41308     41309     41310     41309     41311
     41310     41311     41312     41313     41312     41314     41313     41314
     41315     41316     41315     41317     41316     41317     41318     41319
     41318     41320     41319     41320     41321     41322     41321     41323
     41322     41323     41324     41325     41324     41326     41325     41326
     41327     41328     41327     41329     41328     41329     41330     41331
     41330     41332     41331     41332     41333     41334     41333     41335
     41334     41335     41336     41337     41336     41338     41337     41338
     41339     41340     41339     41341     41340     41341     41342     41343
     41342     41344     41343     41344     41345     41346     41345     41347
     41346     41347     41348     41349     41348     41350     41349     41350
     41351     41352     41351     41353     41352     41353     41354     41355
     41354     41356     41355     41356     41357     41358     41357     41359
     41358     41359     41360     41361     41360     41362     41361     41362
     41363     41364     41363     41365     41364     41365     41366     41367
     41366     41368     41367     41368     41369     41370     41369     41371
     41370     41371     41372     41373     41372     41374     41373     41374
     41375     41376     41375     41377     41376     41377     41378     41379
     41378     41380     41379     41380     41381     41382     41381     41383
     41382     41383     41384     41385     41384     41386     41385     41386
     41387     41388     41387     41389     41388     41389     41390     41391
     41390     41392     41391     41392     41393     41394     41393     41395
     41394     41395     41396     41397     41396     41398     41397     41398
     41399     41400     41399     41401     41400     41401     41402     41403
     41402     41404     41403     41404     41405     41406     41405     41407
     41406     41407     41408     41409     41408     41410     41409     41410
     41411     41412     41411     41413     41412     41413     41414     41415
     41414     41416     41415     41416     41417     41418     41417     41419
     41418     41419     41420     41421     41420     41422     41421     41422
     41423     41424     41423     41425     41424     41425     41426     41427
     41426     41428     41427     41428     41429     41430     41429     41431
     41430     41431     41432     41433     41432     41434     41433     41434
     41435     41436     41435     41437     41436     41437     41438     41439
     41438     41440     41439     41440     41441     41442     41441     41443
     41442     41443     41444     41445     41444     41446     41445     41446
     41447     41448     41447     41449     41448     41449     41450     41451
     41450     41452     41451     41452     41453     41454     41453     41455
     41454     41455     41456     41457     41456     41458     41457     41458
     41459     41460     41459     41461     41460     41461     41462     41463
     41462     41464     41463     41464     41465     41466     41465     41467
     41466     41467     41468     41469     41468     41470     41469     41470
     41471     41472     41471     41473     41472     41473     41474     41475
     41474     41476     41475     41476     41477     41478     41477     41479
     41478     41479     41480     41481     41480     41482     41481     41482
     41483     41484     41483     41485     41484     41485     41486     41487
     41486     41488     41487     41488     41489     41490     41489     41491
     41490     41491     41492     41493     41492     41494     41493     41494
     41495     41496     41495     41497     41496     41497     41498     41499
     41498     41500     41499     41500     41501     41502     41501     41503
     41502     41503     41504     41505     41504     41506     41505     41506
     41507     41508     41507     41509     41508     41509     41510     41511
     41510     41512     41511     41512     41513     41514     41513     41515
     41514     41515     41516     41517     41516     41518     41517     41518
     41519     41520     41519     41521     41520     41521     41522     41523
     41522     41524     41523     41524     41525     41526     41525     41527
     41526     41527     41528     41529     41528     41530     41529     41530
     41531     41532     41531     41533     41532     41533     41534     41535
     41534     41536     41535     41536     41537     41538     41537     41539
     41538     41539     41540     41541     41540     41542     41541     41542
     41543     41544     41543     41545     41544     41545     41546     41547
     41546     41548     41547     41548     41549     41550     41549     41551
     41550     41551     41552     41553     41552     41554     41553     41554
     41555     41556     41555     41557     41556     41557     41558     41559
     41558     41560     41559     41560     41561     41562     41561     41563
     41562     41563     41564     41565     41564     41566     41565     41566
     41567     41568     41567     41569     41568     41569     41570     41571
     41570     41572     41571     41572     41573     41574     41573     41575
     41574     41575     41576     41577     41576     41578     41577     41578
     41579     41580     41579     41581     41580     41581     41582     41583
     41582     41584     41583     41584     41585     41586     41585     41587
     41586     41587     41588     41589     41588     41590     41589     41590
     41591     41592     41591     41593     41592     41593     41594     41595
     41594     41596     41595     41596     41597     41598     41597     41599
     41598     41599     41600     41601     41600     41602     41601     41602
     41603     41604     41603     41605     41604     41605     41606     41607
     41606     41608     41607     41608     41609     41610     41609     41611
     41610     41611     41612     41613     41612     41614     41613     41614
     41615     41616     41615     41617     41616     41617     41618     41619
     41618     41620     41619     41620     41621     41622     41621     41623
     41622     41623     41624     41625     41624     41626     41625     41626
     41627     41628     41627     41629     41628     41629     41630     41631
     41630     41632     41631     41632     41633     41634     41633     41635
     41634     41635     41636     41637     41636     41638     41637     41638
     41639     41640     41639     41641     41640     41641     41642     41643
     41642     41644     41643     41644     41645     41646     41645     41647
     41646     41647     41648     41649     41648     41650     41649     41650
     41651     41652     41651     41653     41652     41653     41654     41655
     41654     41656     41655     41656     41657     41658     41657     41659
     41658     41659     41660     41661     41660     41662     41661     41662
     41663     41664     41663     41665     41664     41665     41666     41667
     41666     41668     41667     41668     41669     41670     41669     41671
     41670     41671     41672     41673     41672     41674     41673     41674
     41675     41676     41675     41677     41676     41677     41678     41679
     41678     41680     41679     41680     41681     41682     41681     41683
     41682     41683     41684     41685     41684     41686     41685     41686
     41687     41688     41687     41689     41688     41689     41690     41691
     41690     41692     41691     41692     41693     41694     41693     41695
     41694     41695     41696     41697     41696     41698     41697     41698
     41699     41700     41699     41701     41700     41701     41702     41703
     41702     41704     41703     41704     41705     41706     41705     41707
     41706     41707     41708     41709     41708     41710     41709     41710
     41711     41712     41711     41713     41712     41713     41714     41715
     41714     41716     41715     41716     41717     41718     41717     41719
     41718     41719     41720     41721     41720     41722     41721     41722
     41723     41724     41723     41725     41724     41725     41726     41727
     41726     41728     41727     41728     41729     41730     41729     41731
     41730     41731     41732     41733     41732     41734     41733     41734
     41735     41736     41735     41737     41736     41737     41738     41739
     41738     41740     41739     41740     41741     41742     41741     41743
     41742     41743     41744     41745     41744     41746     41745     41746
     41747     41748     41747     41749     41748     41749     41750     41751
     41750     41752     41751     41752     41753     41754     41753     41755
     41754     41755     41756     41757     41756     41758     41757     41758
     41759     41760     41759     41761     41760     41761     41762     41763
     41762     41764     41763     41764     41765     41766     41765     41767
     41766     41767     41768     41769     41768     41770     41769     41770
     41771     41772     41771     41773     41772     41773     41774     41775
     41774     41776     41775     41776     41777     41778     41777     41779
     41778     41779     41780     41781     41780     41782     41781     41782
     41783     41784     41783     41785     41784     41785     41786     41787
     41786     41788     41787     41788     41789     41790     41789     41791
     41790     41791     41792     41793     41792     41794     41793     41794
     41795     41796     41795     41797     41796     41797     41798     41799
     41798     41800     41799     41800     41801     41802     41801     41803
     41802     41803     41804     41805     41804     41806     41805     41806
     41807     41808     41807     41809     41808     41809     41810     41811
     41810     41812     41811     41812     41813     41814     41813     41815
     41814     41815     41816     41817     41816     41818     41817     41818
     41819     41820     41819     41821     41820     41821     41822     41823
     41822     41824     41823     41824     41825     41826     41825     41827
     41826     41827     41828     41829     41828     41830     41829     41830
     41831     41832     41831     41833     41832     41833     41834     41835
     41834     41836     41835     41836     41837     41838     41837     41839
     41838     41839     41840     41841     41840     41842     41841     41842
     41843     41844     41843     41845     41844     41845     41846     41847
     41846     41848     41847     41848     41849     41850     41849     41851
     41850     41851     41852     41853     41852     41854     41853     41854
     41855     41856     41855     41857     41856     41857     41858     41859
     41858     41860     41859     41860     41861     41862     41861     41863
     41862     41863     41864     41865     41864     41866     41865     41866
     41867     41868     41867     41869     41868     41869     41870     41871
     41870     41872     41871     41872     41873     41874     41873     41875
     41874     41875     41876     41877     41876     41878     41877     41878
     41879     41880     41879     41881     41880     41881     41882     41883
     41882     41884     41883     41884     41885     41886     41885     41887
     41886     41887     41888     41889     41888     41890     41889     41890
     41891     41892     41891     41893     41892     41893     41894     41895
     41894     41896     41895     41896     41897     41898     41897     41899
     41898     41899     41900     41901     41900     41902     41901     41902
     41903     41904     41903     41905     41904     41905     41906     41907
     41906     41908     41907     41908     41909     41910     41909     41911
     41910     41911     41912     41913     41912     41914     41913     41914
     41915     41916     41915     41917     41916     41917     41918     41919
     41918     41920     41919     41920     41921     41922     41921     41923
     41922     41923     41924     41925     41924     41926     41925     41926
     41927     41928     41927     41929     41928     41929     41930     41931
     41930     41932     41931     41932     41933     41934     41933     41935
     41934     41935     41936     41937     41936     41938     41937     41938
     41939     41940     41939     41941     41940     41941     41942     41943
     41942     41944     41943     41944     41945     41946     41945     41947
     41946     41947     41948     41949     41948     41950     41949     41950
     41951     41952     41951     41953     41952     41953     41954     41955
     41954     41956     41955     41956     41957     41958     41957     41959
     41958     41959     41960     41961     41960     41962     41961     41962
     41963     41964     41963     41965     41964     41965     41966     41967
     41966     41968     41967     41968     41969     41970     41969     41971
     41970     41971     41972     41973     41972     41974     41973     41974
     41975     41976     41975     41977     41976     41977     41978     41979
     41978     41980     41979     41980     41981     41982     41981     41983
     41982     41983     41984     41985     41984     41986     41985     41986
     41987     41988     41987     41989     41988     41989     41990     41991
     41990     41992     41991     41992     41993     41994     41993     41995
     41994     41995     41996     41997     41996     41998     41997     41998
     41999     42000     41999     42001     42000     42001     42002     42003
     42002     42004     42003     42004     42005     42006     42005     42007
     42006     42007     42008     42009     42008     42010     42009     42010
     42011     42012     42011     42013     42012     42013     42014     42015
     42014     42016     42015     42016     42017     42018     42017     42019
     42018     42019     42020     42021     42020     42022     42021     42022
     42023     42024     42023     42025     42024     42025     42026     42027
     42026     42028     42027     42028     42029     42030     42029     42031
     42030     42031     42032     42033     42032     42034     42033     42034
     42035     42036     42035     42037     42036     42037     42038     42039
     42038     42040     42039     42040     42041     42042     42041     42043
     42042     42043     42044     42045     42044     42046     42045     42046
     42047     42048     42047     42049     42048     42049     42050     42051
     42050     42052     42051     42052     42053     42054     42053     42055
     42054     42055     42056     42057     42056     42058     42057     42058
     42059     42060     42059     42061     42060     42061     42062     42063
     42062     42064     42063     42064     42065     42066     42065     42067
     42066     42067     42068     42069     42068     42070     42069     42070
     42071     42072     42071     42073     42072     42073     42074     42075
     42074     42076     42075     42076     42077     42078     42077     42079
     42078     42079     42080     42081     42080     42082     42081     42082
     42083     42084     42083     42085     42084     42085     42086     42087
     42086     42088     42087     42088     42089     42090     42089     42091
     42090     42091     42092     42093     42092     42094     42093     42094
     42095     42096     42095     42097     42096     42097     42098     42099
     42098     42100     42099     42100     42101     42102     42101     42103
     42102     42103     42104     42105     42104     42106     42105     42106
     42107     42108     42107     42109     42108     42109     42110     42111
     42110     42112     42111     42112     42113     42114     42113     42115
     42114     42115     42116     42117     42116     42118     42117     42118
     42119     42120     42119     42121     42120     42121     42122     42123
     42122     42124     42123     42124     42125     42126     42125     42127
     42126     42127     42128     42129     42128     42130     42129     42130
     42131     42132     42131     42133     42132     42133     42134     42135
     42134     42136     42135     42136     42137     42138     42137     42139
     42138     42139     42140     42141     42140     42142     42141     42142
     42143     42144     42143     42145     42144     42145     42146     42147
     42146     42148     42147     42148     42149     42150     42149     42151
     42150     42151     42152     42153     42152     42154     42153     42154
     42155     42156     42155     42157     42156     42157     42158     42159
     42158     42160     42159     42160     42161     42162     42161     42163
     42162     42163     42164     42165     42164     42166     42165     42166
     42167     42168     42167     42169     42168     42169     42170     42171
     42170     42172     42171     42172     42173     42174     42173     42175
     42174     42175     42176     42177     42176     42178     42177     42178
     42179     42180     42179     42181     42180     42181     42182     42183
     42182     42184     42183     42184     42185     42186     42185     42187
     42186     42187     42188     42189     42188     42190     42189     42190
     42191     42192     42191     42193     42192     42193     42194     42195
     42194     42196     42195     42196     42197     42198     42197     42199
     42198     42199     42200     42201     42200     42202     42201     42202
     42203     42204     42203     42205     42204     42205     42206     42207
     42206     42208     42207     42208     42209     42210     42209     42211
     42210     42211     42212     42213     42212     42214     42213     42214
     42215     42216     42215     42217     42216     42217     42218     42219
     42218     42220     42219     42220     42221     42222     42221     42223
     42222     42223     42224     42225     42224     42226     42225     42226
     42227     42228     42227     42229     42228     42229     42230     42231
     42230     42232     42231     42232     42233     42234     42233     42235
     42234     42235     42236     42237     42236     42238     42237     42238
     42239     42240     42239     42241     42240     42241     42242     42243
     42242     42244     42243     42244     42245     42246     42245     42247
     42246     42247     42248     42249     42248     42250     42249     42250
     42251     42252     42251     42253     42252     42253     42254     42255
     42254     42256     42255     42256     42257     42258     42257     42259
     42258     42259     42260     42261     42260     42262     42261     42262
     42263     42264     42263     42265     42264     42265     42266     42267
     42266     42268     42267     42268     42269     42270     42269     42271
     42270     42271     42272     42273     42272     42274     42273     42274
     42275     42276     42275     42277     42276     42277     42278     42279
     42278     42280     42279     42280     42281     42282     42281     42283
     42282     42283     42284     42285     42284     42286     42285     42286
     42287     42288     42287     42289     42288     42289     42290     42291
     42290     42292     42291     42292     42293     42294     42293     42295
     42294     42295     42296     42297     42296     42298     42297     42298
     42299     42300     42299     42301     42300     42301     42302     42303
     42302     42304     42303     42304     42305     42306     42305     42307
     42306     42307     42308     42309     42308     42310     42309     42310
     42311     42312     42311     42313     42312     42313     42314     42315
     42314     42316     42315     42316     42317     42318     42317     42319
     42318     42319     42320     42321     42320     42322     42321     42322
     42323     42324     42323     42325     42324     42325     42326     42327
     42326     42328     42327     42328     42329     42330     42329     42331
     42330     42331     42332     42333     42332     42334     42333     42334
     42335     42336     42335     42337     42336     42337     42338     42339
     42338     42340     42339     42340     42341     42342     42341     42343
     42342     42343     42344     42345     42344     42346     42345     42346
     42347     42348     42347     42349     42348     42349     42350     42351
     42350     42352     42351     42352     42353     42354     42353     42355
     42354     42355     42356     42357     42356     42358     42357     42358
     42359     42360     42359     42361     42360     42361     42362     42363
     42362     42364     42363     42364     42365     42366     42365     42367
     42366     42367     42368     42369     42368     42370     42369     42370
     42371     42372     42371     42373     42372     42373     42374     42375
     42374     42376     42375     42376     42377     42378     42377     42379
     42378     42379     42380     42381     42380     42382     42381     42382
     42383     42384     42383     42385     42384     42385     42386     42387
     42386     42388     42387     42388     42389     42390     42389     42391
     42390     42391     42392     42393     42392     42394     42393     42394
     42395     42396     42395     42397     42396     42397     42398     42399
     42398     42400     42399     42400     42401     42402     42401     42403
     42402     42403     42404     42405     42404     42406     42405     42406
     42407     42408     42407     42409     42408     42409     42410     42411
     42410     42412     42411     42412     42413     42414     42413     42415
     42414     42415     42416     42417     42416     42418     42417     42418
     42419     42420     42419     42421     42420     42421     42422     42423
     42422     42424     42423     42424     42425     42426     42425     42427
     42426     42427     42428     42429     42428     42430     42429     42430
     42431     42432     42431     42433     42432     42433     42434     42435
     42434     42436     42435     42436     42437     42438     42437     42439
     42438     42439     42440     42441     42440     42442     42441     42442
     42443     42444     42443     42445     42444     42445     42446     42447
     42446     42448     42447     42448     42449     42450     42449     42451
     42450     42451     42452     42453     42452     42454     42453     42454
     42455     42456     42455     42457     42456     42457     42458     42459
     42458     42460     42459     42460     42461     42462     42461     42463
     42462     42463     42464     42465     42464     42466     42465     42466
     42467     42468     42467     42469     42468     42469     42470     42471
     42470     42472     42471     42472     42473     42474     42473     42475
     42474     42475     42476     42477     42476     42478     42477     42478
     42479     42480     42479     42481     42480     42481     42482     42483
     42482     42484     42483     42484     42485     42486     42485     42487
     42486     42487     42488     42489     42488     42490     42489     42490
     42491     42492     42491     42493     42492     42493     42494     42495
     42494     42496     42495     42496     42497     42498     42497     42499
     42498     42499     42500     42501     42500     42502     42501     42502
     42503     42504     42503     42505     42504     42505     42506     42507
     42506     42508     42507     42508     42509     42510     42509     42511
     42510     42511     42512     42513     42512     42514     42513     42514
     42515     42516     42515     42517     42516     42517     42518     42519
     42518     42520     42519     42520     42521     42522     42521     42523
     42522     42523     42524     42525     42524     42526     42525     42526
     42527     42528     42527     42529     42528     42529     42530     42531
     42530     42532     42531     42532     42533     42534     42533     42535
     42534     42535     42536     42537     42536     42538     42537     42538
     42539     42540     42539     42541     42540     42541     42542     42543
     42542     42544     42543     42544     42545     42546     42545     42547
     42546     42547     42548     42549     42548     42550     42549     42550
     42551     42552     42551     42553     42552     42553     42554     42555
     42554     42556     42555     42556     42557     42558     42557     42559
     42558     42559     42560     42561     42560     42562     42561     42562
     42563     42564     42563     42565     42564     42565     42566     42567
     42566     42568     42567     42568     42569     42570     42569     42571
     42570     42571     42572     42573     42572     42574     42573     42574
     42575     42576     42575     42577     42576     42577     42578     42579
     42578     42580     42579     42580     42581     42582     42581     42583
     42582     42583     42584     42585     42584     42586     42585     42586
     42587     42588     42587     42589     42588     42589     42590     42591
     42590     42592     42591     42592     42593     42594     42593     42595
     42594     42595     42596     42597     42596     42598     42597     42598
     42599     42600     42599     42601     42600     42601     42602     42603
     42602     42604     42603     42604     42605     42606     42605     42607
     42606     42607     42608     42609     42608     42610     42609     42610
     42611     42612     42611     42613     42612     42613     42614     42615
     42614     42616     42615     42616     42617     42618     42617     42619
     42618     42619     42620     42621     42620     42622     42621     42622
     42623     42624     42623     42625     42624     42625     42626     42627
     42626     42628     42627     42628     42629     42630     42629     42631
     42630     42631     42632     42633     42632     42634     42633     42634
     42635     42636     42635     42637     42636     42637     42638     42639
     42638     42640     42639     42640     42641     42642     42641     42643
     42642     42643     42644     42645     42644     42646     42645     42646
     42647     42648     42647     42649     42648     42649     42650     42651
     42650     42652     42651     42652     42653     42654     42653     42655
     42654     42655     42656     42657     42656     42658     42657     42658
     42659     42660     42659     42661     42660     42661     42662     42663
     42662     42664     42663     42664     42665     42666     42665     42667
     42666     42667     42668     42669     42668     42670     42669     42670
     42671     42672     42671     42673     42672     42673     42674     42675
     42674     42676     42675     42676     42677     42678     42677     42679
     42678     42679     42680     42681     42680     42682     42681     42682
     42683     42684     42683     42685     42684     42685     42686     42687
     42686     42688     42687     42688     42689     42690     42689     42691
     42690     42691     42692     42693     42692     42694     42693     42694
     42695     42696     42695     42697     42696     42697     42698     42699
     42698     42700     42699     42700     42701     42702     42701     42703
     42702     42703     42704     42705     42704     42706     42705     42706
     42707     42708     42707     42709     42708     42709     42710     42711
     42710     42712     42711     42712     42713     42714     42713     42715
     42714     42715     42716     42717     42716     42718     42717     42718
     42719     42720     42719     42721     42720     42721     42722     42723
     42722     42724     42723     42724     42725     42726     42725     42727
     42726     42727     42728     42729     42728     42730     42729     42730
     42731     42732     42731     42733     42732     42733     42734     42735
     42734     42736     42735     42736     42737     42738     42737     42739
     42738     42739     42740     42741     42740     42742     42741     42742
     42743     42744     42743     42745     42744     42745     42746     42747
     42746     42748     42747     42748     42749     42750     42749     42751
     42750     42751     42752     42753     42752     42754     42753     42754
     42755     42756     42755     42757     42756     42757     42758     42759
     42758     42760     42759     42760     42761     42762     42761     42763
     42762     42763     42764     42765     42764     42766     42765     42766
     42767     42768     42767     42769     42768     42769     42770     42771
     42770     42772     42771     42772     42773     42774     42773     42775
     42774     42775     42776     42777     42776     42778     42777     42778
     42779     42780     42779     42781     42780     42781     42782     42783
     42782     42784     42783     42784     42785     42786     42785     42787
     42786     42787     42788     42789     42788     42790     42789     42790
     42791     42792     42791     42793     42792     42793     42794     42795
     42794     42796     42795     42796     42797     42798     42797     42799
     42798     42799     42800     42801     42800     42802     42801     42802
     42803     42804     42803     42805     42804     42805     42806     42807
     42806     42808     42807     42808     42809     42810     42809     42811
     42810     42811     42812     42813     42812     42814     42813     42814
     42815     42816     42815     42817     42816     42817     42818     42819
     42818     42820     42819     42820     42821     42822     42821     42823
     42822     42823     42824     42825     42824     42826     42825     42826
     42827     42828     42827     42829     42828     42829     42830     42831
     42830     42832     42831     42832     42833     42834     42833     42835
     42834     42835     42836     42837     42836     42838     42837     42838
     42839     42840     42839     42841     42840     42841     42842     42843
     42842     42844     42843     42844     42845     42846     42845     42847
     42846     42847     42848     42849     42848     42850     42849     42850
     42851     42852     42851     42853     42852     42853     42854     42855
     42854     42856     42855     42856     42857     42858     42857     42859
     42858     42859     42860     42861     42860     42862     42861     42862
     42863     42864     42863     42865     42864     42865     42866     42867
     42866     42868     42867     42868     42869     42870     42869     42871
     42870     42871     42872     42873     42872     42874     42873     42874
     42875     42876     42875     42877     42876     42877     42878     42879
     42878     42880     42879     42880     42881     42882     42881     42883
     42882     42883     42884     42885     42884     42886     42885     42886
     42887     42888     42887     42889     42888     42889     42890     42891
     42890     42892     42891     42892     42893     42894     42893     42895
     42894     42895     42896     42897     42896     42898     42897     42898
     42899     42900     42899     42901     42900     42901     42902     42903
     42902     42904     42903     42904     42905     42906     42905     42907
     42906     42907     42908     42909     42908     42910     42909     42910
     42911     42912     42911     42913     42912     42913     42914     42915
     42914     42916     42915     42916     42917     42918     42917     42919
     42918     42919     42920     42921     42920     42922     42921     42922
     42923     42924     42923     42925     42924     42925     42926     42927
     42926     42928     42927     42928     42929     42930     42929     42931
     42930     42931     42932     42933     42932     42934     42933     42934
     42935     42936     42935     42937     42936     42937     42938     42939
     42938     42940     42939     42940     42941     42942     42941     42943
     42942     42943     42944     42945     42944     42946     42945     42946
     42947     42948     42947     42949     42948     42949     42950     42951
     42950     42952     42951     42952     42953     42954     42953     42955
     42954     42955     42956     42957     42956     42958     42957     42958
     42959     42960     42959     42961     42960     42961     42962     42963
     42962     42964     42963     42964     42965     42966     42965     42967
     42966     42967     42968     42969     42968     42970     42969     42970
     42971     42972     42971     42973     42972     42973     42974     42975
     42974     42976     42975     42976     42977     42978     42977     42979
     42978     42979     42980     42981     42980     42982     42981     42982
     42983     42984     42983     42985     42984     42985     42986     42987
     42986     42988     42987     42988     42989     42990     42989     42991
     42990     42991     42992     42993     42992     42994     42993     42994
     42995     42996     42995     42997     42996     42997     42998     42999
     42998     43000     42999     43000     43001     43002     43001     43003
     43002     43003     43004     43005     43004     43006     43005     43006
     43007     43008     43007     43009     43008     43009     43010     43011
     43010     43012     43011     43012     43013     43014     43013     43015
     43014     43015     43016     43017     43016     43018     43017     43018
     43019     43020     43019     43021     43020     43021     43022     43023
     43022     43024     43023     43024     43025     43026     43025     43027
     43026     43027     43028     43029     43028     43030     43029     43030
     43031     43032     43031     43033     43032     43033     43034     43035
     43034     43036     43035     43036     43037     43038     43037     43039
     43038     43039     43040     43041     43040     43042     43041     43042
     43043     43044     43043     43045     43044     43045     43046     43047
     43046     43048     43047     43048     43049     43050     43049     43051
     43050     43051     43052     43053     43052     43054     43053     43054
     43055     43056     43055     43057     43056     43057     43058     43059
     43058     43060     43059     43060     43061     43062     43061     43063
     43062     43063     43064     43065     43064     43066     43065     43066
     43067     43068     43067     43069     43068     43069     43070     43071
     43070     43072     43071     43072     43073     43074     43073     43075
     43074     43075     43076     43077     43076     43078     43077     43078
     43079     43080     43079     43081     43080     43081     43082     43083
     43082     43084     43083     43084     43085     43086     43085     43087
     43086     43087     43088     43089     43088     43090     43089     43090
     43091     43092     43091     43093     43092     43093     43094     43095
     43094     43096     43095     43096     43097     43098     43097     43099
     43098     43099     43100     43101     43100     43102     43101     43102
     43103     43104     43103     43105     43104     43105     43106     43107
     43106     43108     43107     43108     43109     43110     43109     43111
     43110     43111     43112     43113     43112     43114     43113     43114
     43115     43116     43115     43117     43116     43117     43118     43119
     43118     43120     43119     43120     43121     43122     43121     43123
     43122     43123     43124     43125     43124     43126     43125     43126
     43127     43128     43127     43129     43128     43129     43130     43131
     43130     43132     43131     43132     43133     43134     43133     43135
     43134     43135     43136     43137     43136     43138     43137     43138
     43139     43140     43139     43141     43140     43141     43142     43143
     43142     43144     43143     43144     43145     43146     43145     43147
     43146     43147     43148     43149     43148     43150     43149     43150
     43151     43152     43151     43153     43152     43153     43154     43155
     43154     43156     43155     43156     43157     43158     43157     43159
     43158     43159     43160     43161     43160     43162     43161     43162
     43163     43164     43163     43165     43164     43165     43166     43167
     43166     43168     43167     43168     43169     43170     43169     43171
     43170     43171     43172     43173     43172     43174     43173     43174
     43175     43176     43175     43177     43176     43177     43178     43179
     43178     43180     43179     43180     43181     43182     43181     43183
     43182     43183     43184     43185     43184     43186     43185     43186
     43187     43188     43187     43189     43188     43189     43190     43191
     43190     43192     43191     43192     43193     43194     43193     43195
     43194     43195     43196     43197     43196     43198     43197     43198
     43199     43200     43199     43201     43200     43201     43202     43203
     43202     43204     43203     43204     43205     43206     43205     43207
     43206     43207     43208     43209     43208     43210     43209     43210
     43211     43212     43211     43213     43212     43213     43214     43215
     43214     43216     43215     43216     43217     43218     43217     43219
     43218     43219     43220     43221     43220     43222     43221     43222
     43223     43224     43223     43225     43224     43225     43226     43227
     43226     43228     43227     43228     43229     43230     43229     43231
     43230     43231     43232     43233     43232     43234     43233     43234
     43235     43236     43235     43237     43236     43237     43238     43239
     43238     43240     43239     43240     43241     43242     43241     43243
     43242     43243     43244     43245     43244     43246     43245     43246
     43247     43248     43247     43249     43248     43249     43250     43251
     43250     43252     43251     43252     43253     43254     43253     43255
     43254     43255     43256     43257     43256     43258     43257     43258
     43259     43260     43259     43261     43260     43261     43262     43263
     43262     43264     43263     43264     43265     43266     43265     43267
     43266     43267     43268     43269     43268     43270     43269     43270
     43271     43272     43271     43273     43272     43273     43274     43275
     43274     43276     43275     43276     43277     43278     43277     43279
     43278     43279     43280     43281     43280     43282     43281     43282
     43283     43284     43283     43285     43284     43285     43286     43287
     43286     43288     43287     43288     43289     43290     43289     43291
     43290     43291     43292     43293     43292     43294     43293     43294
     43295     43296     43295     43297     43296     43297     43298     43299
     43298     43300     43299     43300     43301     43302     43301     43303
     43302     43303     43304     43305     43304     43306     43305     43306
     43307     43308     43307     43309     43308     43309     43310     43311
     43310     43312     43311     43312     43313     43314     43313     43315
     43314     43315     43316     43317     43316     43318     43317     43318
     43319     43320     43319     43321     43320     43321     43322     43323
     43322     43324     43323     43324     43325     43326     43325     43327
     43326     43327     43328     43329     43328     43330     43329     43330
     43331     43332     43331     43333     43332     43333     43334     43335
     43334     43336     43335     43336     43337     43338     43337     43339
     43338     43339     43340     43341     43340     43342     43341     43342
     43343     43344     43343     43345     43344     43345     43346     43347
     43346     43348     43347     43348     43349     43350     43349     43351
     43350     43351     43352     43353     43352     43354     43353     43354
     43355     43356     43355     43357     43356     43357     43358     43359
     43358     43360     43359     43360     43361     43362     43361     43363
     43362     43363     43364     43365     43364     43366     43365     43366
     43367     43368     43367     43369     43368     43369     43370     43371
     43370     43372     43371     43372     43373     43374     43373     43375
     43374     43375     43376     43377     43376     43378     43377     43378
     43379     43380     43379     43381     43380     43381     43382     43383
     43382     43384     43383     43384     43385     43386     43385     43387
     43386     43387     43388     43389     43388     43390     43389     43390
     43391     43392     43391     43393     43392     43393     43394     43395
     43394     43396     43395     43396     43397     43398     43397     43399
     43398     43399     43400     43401     43400     43402     43401     43402
     43403     43404     43403     43405     43404     43405     43406     43407
     43406     43408     43407     43408     43409     43410     43409     43411
     43410     43411     43412     43413     43412     43414     43413     43414
     43415     43416     43415     43417     43416     43417     43418     43419
     43418     43420     43419     43420     43421     43422     43421     43423
     43422     43423     43424     43425     43424     43426     43425     43426
     43427     43428     43427     43429     43428     43429     43430     43431
     43430     43432     43431     43432     43433     43434     43433     43435
     43434     43435     43436     43437     43436     43438     43437     43438
     43439     43440     43439     43441     43440     43441     43442     43443
     43442     43444     43443     43444     43445     43446     43445     43447
     43446     43447     43448     43449     43448     43450     43449     43450
     43451     43452     43451     43453     43452     43453     43454     43455
     43454     43456     43455     43456     43457     43458     43457     43459
     43458     43459     43460     43461     43460     43462     43461     43462
     43463     43464     43463     43465     43464     43465     43466     43467
     43466     43468     43467     43468     43469     43470     43469     43471
     43470     43471     43472     43473     43472     43474     43473     43474
     43475     43476     43475     43477     43476     43477     43478     43479
     43478     43480     43479     43480     43481     43482     43481     43483
     43482     43483     43484     43485     43484     43486     43485     43486
     43487     43488     43487     43489     43488     43489     43490     43491
     43490     43492     43491     43492     43493     43494     43493     43495
     43494     43495     43496     43497     43496     43498     43497     43498
     43499     43500     43499     43501     43500     43501     43502     43503
     43502     43504     43503     43504     43505     43506     43505     43507
     43506     43507     43508     43509     43508     43510     43509     43510
     43511     43512     43511     43513     43512     43513     43514     43515
     43514     43516     43515     43516     43517     43518     43517     43519
     43518     43519     43520     43521     43520     43522     43521     43522
     43523     43524     43523     43525     43524     43525     43526     43527
     43526     43528     43527     43528     43529     43530     43529     43531
     43530     43531     43532     43533     43532     43534     43533     43534
     43535     43536     43535     43537     43536     43537     43538     43539
     43538     43540     43539     43540     43541     43542     43541     43543
     43542     43543     43544     43545     43544     43546     43545     43546
     43547     43548     43547     43549     43548     43549     43550     43551
     43550     43552     43551     43552     43553     43554     43553     43555
     43554     43555     43556     43557     43556     43558     43557     43558
     43559     43560     43559     43561     43560     43561     43562     43563
     43562     43564     43563     43564     43565     43566     43565     43567
     43566     43567     43568     43569     43568     43570     43569     43570
     43571     43572     43571     43573     43572     43573     43574     43575
     43574     43576     43575     43576     43577     43578     43577     43579
     43578     43579     43580     43581     43580     43582     43581     43582
     43583     43584     43583     43585     43584     43585     43586     43587
     43586     43588     43587     43588     43589     43590     43589     43591
     43590     43591     43592     43593     43592     43594     43593     43594
     43595     43596     43595     43597     43596     43597     43598     43599
     43598     43600     43599     43600     43601     43602     43601     43603
     43602     43603     43604     43605     43604     43606     43605     43606
     43607     43608     43607     43609     43608     43609     43610     43611
     43610     43612     43611     43612     43613     43614     43613     43615
     43614     43615     43616     43617     43616     43618     43617     43618
     43619     43620     43619     43621     43620     43621     43622     43623
     43622     43624     43623     43624     43625     43626     43625     43627
     43626     43627     43628     43629     43628     43630     43629     43630
     43631     43632     43631     43633     43632     43633     43634     43635
     43634     43636     43635     43636     43637     43638     43637     43639
     43638     43639     43640     43641     43640     43642     43641     43642
     43643     43644     43643     43645     43644     43645     43646     43647
     43646     43648     43647     43648     43649     43650     43649     43651
     43650     43651     43652     43653     43652     43654     43653     43654
     43655     43656     43655     43657     43656     43657     43658     43659
     43658     43660     43659     43660     43661     43662     43661     43663
     43662     43663     43664     43665     43664     43666     43665     43666
     43667     43668     43667     43669     43668     43669     43670     43671
     43670     43672     43671     43672     43673     43674     43673     43675
     43674     43675     43676     43677     43676     43678     43677     43678
     43679     43680     43679     43681     43680     43681     43682     43683
     43682     43684     43683     43684     43685     43686     43685     43687
     43686     43687     43688     43689     43688     43690     43689     43690
     43691     43692     43691     43693     43692     43693     43694     43695
     43694     43696     43695     43696     43697     43698     43697     43699
     43698     43699     43700     43701     43700     43702     43701     43702
     43703     43704     43703     43705     43704     43705     43706     43707
     43706     43708     43707     43708     43709     43710     43709     43711
     43710     43711     43712     43713     43712     43714     43713     43714
     43715     43716     43715     43717     43716     43717     43718     43719
     43718     43720     43719     43720     43721     43722     43721     43723
     43722     43723     43724     43725     43724     43726     43725     43726
     43727     43728     43727     43729     43728     43729     43730     43731
     43730     43732     43731     43732     43733     43734     43733     43735
     43734     43735     43736     43737     43736     43738     43737     43738
     43739     43740     43739     43741     43740     43741     43742     43743
     43742     43744     43743     43744     43745     43746     43745     43747
     43746     43747     43748     43749     43748     43750     43749     43750
     43751     43752     43751     43753     43752     43753     43754     43755
     43754     43756     43755     43756     43757     43758     43757     43759
     43758     43759     43760     43761     43760     43762     43761     43762
     43763     43764     43763     43765     43764     43765     43766     43767
     43766     43768     43767     43768     43769     43770     43769     43771
     43770     43771     43772     43773     43772     43774     43773     43774
     43775     43776     43775     43777     43776     43777     43778     43779
     43778     43780     43779     43780     43781     43782     43781     43783
     43782     43783     43784     43785     43784     43786     43785     43786
     43787     43788     43787     43789     43788     43789     43790     43791
     43790     43792     43791     43792     43793     43794     43793     43795
     43794     43795     43796     43797     43796     43798     43797     43798
     43799     43800     43799     43801     43800     43801     43802     43803
     43802     43804     43803     43804     43805     43806     43805     43807
     43806     43807     43808     43809     43808     43810     43809     43810
     43811     43812     43811     43813     43812     43813     43814     43815
     43814     43816     43815     43816     43817     43818     43817     43819
     43818     43819     43820     43821     43820     43822     43821     43822
     43823     43824     43823     43825     43824     43825     43826     43827
     43826     43828     43827     43828     43829     43830     43829     43831
     43830     43831     43832     43833     43832     43834     43833     43834
     43835     43836     43835     43837     43836     43837     43838     43839
     43838     43840     43839     43840     43841     43842     43841     43843
     43842     43843     43844     43845     43844     43846     43845     43846
     43847     43848     43847     43849     43848     43849     43850     43851
     43850     43852     43851     43852     43853     43854     43853     43855
     43854     43855     43856     43857     43856     43858     43857     43858
     43859     43860     43859     43861     43860     43861     43862     43863
     43862     43864     43863     43864     43865     43866     43865     43867
     43866     43867     43868     43869     43868     43870     43869     43870
     43871     43872     43871     43873     43872     43873     43874     43875
     43874     43876     43875     43876     43877     43878     43877     43879
     43878     43879     43880     43881     43880     43882     43881     43882
     43883     43884     43883     43885     43884     43885     43886     43887
     43886     43888     43887     43888     43889     43890     43889     43891
     43890     43891     43892     43893     43892     43894     43893     43894
     43895     43896     43895     43897     43896     43897     43898     43899
     43898     43900     43899     43900     43901     43902     43901     43903
     43902     43903     43904     43905     43904     43906     43905     43906
     43907     43908     43907     43909     43908     43909     43910     43911
     43910     43912     43911     43912     43913     43914     43913     43915
     43914     43915     43916     43917     43916     43918     43917     43918
     43919     43920     43919     43921     43920     43921     43922     43923
     43922     43924     43923     43924     43925     43926     43925     43927
     43926     43927     43928     43929     43928     43930     43929     43930
     43931     43932     43931     43933     43932     43933     43934     43935
     43934     43936     43935     43936     43937     43938     43937     43939
     43938     43939     43940     43941     43940     43942     43941     43942
     43943     43944     43943     43945     43944     43945     43946     43947
     43946     43948     43947     43948     43949     43950     43949     43951
     43950     43951     43952     43953     43952     43954     43953     43954
     43955     43956     43955     43957     43956     43957     43958     43959
     43958     43960     43959     43960     43961     43962     43961     43963
     43962     43963     43964     43965     43964     43966     43965     43966
     43967     43968     43967     43969     43968     43969     43970     43971
     43970     43972     43971     43972     43973     43974     43973     43975
     43974     43975     43976     43977     43976     43978     43977     43978
     43979     43980     43979     43981     43980     43981     43982     43983
     43982     43984     43983     43984     43985     43986     43985     43987
     43986     43987     43988     43989     43988     43990     43989     43990
     43991     43992     43991     43993     43992     43993     43994     43995
     43994     43996     43995     43996     43997     43998     43997     43999
     43998     43999     44000     44001     44000     44002     44001     44002
     44003     44004     44003     44005     44004     44005     44006     44007
     44006     44008     44007     44008     44009     44010     44009     44011
     44010     44011     44012     44013     44012     44014     44013     44014
     44015     44016     44015     44017     44016     44017     44018     44019
     44018     44020     44019     44020     44021     44022     44021     44023
     44022     44023     44024     44025     44024     44026     44025     44026
     44027     44028     44027     44029     44028     44029     44030     44031
     44030     44032     44031     44032     44033     44034     44033     44035
     44034     44035     44036     44037     44036     44038     44037     44038
     44039     44040     44039     44041     44040     44041     44042     44043
     44042     44044     44043     44044     44045     44046     44045     44047
     44046     44047     44048     44049     44048     44050     44049     44050
     44051     44052     44051     44053     44052     44053     44054     44055
     44054     44056     44055     44056     44057     44058     44057     44059
     44058     44059     44060     44061     44060     44062     44061     44062
     44063     44064     44063     44065     44064     44065     44066     44067
     44066     44068     44067     44068     44069     44070     44069     44071
     44070     44071     44072     44073     44072     44074     44073     44074
     44075     44076     44075     44077     44076     44077     44078     44079
     44078     44080     44079     44080     44081     44082     44081     44083
     44082     44083     44084     44085     44084     44086     44085     44086
     44087     44088     44087     44089     44088     44089     44090     44091
     44090     44092     44091     44092     44093     44094     44093     44095
     44094     44095     44096     44097     44096     44098     44097     44098
     44099     44100     44099     44101     44100     44101     44102     44103
     44102     44104     44103     44104     44105     44106     44105     44107
     44106     44107     44108     44109     44108     44110     44109     44110
     44111     44112     44111     44113     44112     44113     44114     44115
     44114     44116     44115     44116     44117     44118     44117     44119
     44118     44119     44120     44121     44120     44122     44121     44122
     44123     44124     44123     44125     44124     44125     44126     44127
     44126     44128     44127     44128     44129     44130     44129     44131
     44130     44131     44132     44133     44132     44134     44133     44134
     44135     44136     44135     44137     44136     44137     44138     44139
     44138     44140     44139     44140     44141     44142     44141     44143
     44142     44143     44144     44145     44144     44146     44145     44146
     44147     44148     44147     44149     44148     44149     44150     44151
     44150     44152     44151     44152     44153     44154     44153     44155
     44154     44155     44156     44157     44156     44158     44157     44158
     44159     44160     44159     44161     44160     44161     44162     44163
     44162     44164     44163     44164     44165     44166     44165     44167
     44166     44167     44168     44169     44168     44170     44169     44170
     44171     44172     44171     44173     44172     44173     44174     44175
     44174     44176     44175     44176     44177     44178     44177     44179
     44178     44179     44180     44181     44180     44182     44181     44182
     44183     44184     44183     44185     44184     44185     44186     44187
     44186     44188     44187     44188     44189     44190     44189     44191
     44190     44191     44192     44193     44192     44194     44193     44194
     44195     44196     44195     44197     44196     44197     44198     44199
     44198     44200     44199     44200     44201     44202     44201     44203
     44202     44203     44204     44205     44204     44206     44205     44206
     44207     44208     44207     44209     44208     44209     44210     44211
     44210     44212     44211     44212     44213     44214     44213     44215
     44214     44215     44216     44217     44216     44218     44217     44218
     44219     44220     44219     44221     44220     44221     44222     44223
     44222     44224     44223     44224     44225     44226     44225     44227
     44226     44227     44228     44229     44228     44230     44229     44230
     44231     44232     44231     44233     44232     44233     44234     44235
     44234     44236     44235     44236     44237     44238     44237     44239
     44238     44239     44240     44241     44240     44242     44241     44242
     44243     44244     44243     44245     44244     44245     44246     44247
     44246     44248     44247     44248     44249     44250     44249     44251
     44250     44251     44252     44253     44252     44254     44253     44254
     44255     44256     44255     44257     44256     44257     44258     44259
     44258     44260     44259     44260     44261     44262     44261     44263
     44262     44263     44264     44265     44264     44266     44265     44266
     44267     44268     44267     44269     44268     44269     44270     44271
     44270     44272     44271     44272     44273     44274     44273     44275
     44274     44275     44276     44277     44276     44278     44277     44278
     44279     44280     44279     44281     44280     44281     44282     44283
     44282     44284     44283     44284     44285     44286     44285     44287
     44286     44287     44288     44289     44288     44290     44289     44290
     44291     44292     44291     44293     44292     44293     44294     44295
     44294     44296     44295     44296     44297     44298     44297     44299
     44298     44299     44300     44301     44300     44302     44301     44302
     44303     44304     44303     44305     44304     44305     44306     44307
     44306     44308     44307     44308     44309     44310     44309     44311
     44310     44311     44312     44313     44312     44314     44313     44314
     44315     44316     44315     44317     44316     44317     44318     44319
     44318     44320     44319     44320     44321     44322     44321     44323
     44322     44323     44324     44325     44324     44326     44325     44326
     44327     44328     44327     44329     44328     44329     44330     44331
     44330     44332     44331     44332     44333     44334     44333     44335
     44334     44335     44336     44337     44336     44338     44337     44338
     44339     44340     44339     44341     44340     44341     44342     44343
     44342     44344     44343     44344     44345     44346     44345     44347
     44346     44347     44348     44349     44348     44350     44349     44350
     44351     44352     44351     44353     44352     44353     44354     44355
     44354     44356     44355     44356     44357     44358     44357     44359
     44358     44359     44360     44361     44360     44362     44361     44362
     44363     44364     44363     44365     44364     44365     44366     44367
     44366     44368     44367     44368     44369     44370     44369     44371
     44370     44371     44372     44373     44372     44374     44373     44374
     44375     44376     44375     44377     44376     44377     44378     44379
     44378     44380     44379     44380     44381     44382     44381     44383
     44382     44383     44384     44385     44384     44386     44385     44386
     44387     44388     44387     44389     44388     44389     44390     44391
     44390     44392     44391     44392     44393     44394     44393     44395
     44394     44395     44396     44397     44396     44398     44397     44398
     44399     44400     44399     44401     44400     44401     44402     44403
     44402     44404     44403     44404     44405     44406     44405     44407
     44406     44407     44408     44409     44408     44410     44409     44410
     44411     44412     44411     44413     44412     44413     44414     44415
     44414     44416     44415     44416     44417     44418     44417     44419
     44418     44419     44420     44421     44420     44422     44421     44422
     44423     44424     44423     44425     44424     44425     44426     44427
     44426     44428     44427     44428     44429     44430     44429     44431
     44430     44431     44432     44433     44432     44434     44433     44434
     44435     44436     44435     44437     44436     44437     44438     44439
     44438     44440     44439     44440     44441     44442     44441     44443
     44442     44443     44444     44445     44444     44446     44445     44446
     44447     44448     44447     44449     44448     44449     44450     44451
     44450     44452     44451     44452     44453     44454     44453     44455
     44454     44455     44456     44457     44456     44458     44457     44458
     44459     44460     44459     44461     44460     44461     44462     44463
     44462     44464     44463     44464     44465     44466     44465     44467
     44466     44467     44468     44469     44468     44470     44469     44470
     44471     44472     44471     44473     44472     44473     44474     44475
     44474     44476     44475     44476     44477     44478     44477     44479
     44478     44479     44480     44481     44480     44482     44481     44482
     44483     44484     44483     44485     44484     44485     44486     44487
     44486     44488     44487     44488     44489     44490     44489     44491
     44490     44491     44492     44493     44492     44494     44493     44494
     44495     44496     44495     44497     44496     44497     44498     44499
     44498     44500     44499     44500     44501     44502     44501     44503
     44502     44503     44504     44505     44504     44506     44505     44506
     44507     44508     44507     44509     44508     44509     44510     44511
     44510     44512     44511     44512     44513     44514     44513     44515
     44514     44515     44516     44517     44516     44518     44517     44518
     44519     44520     44519     44521     44520     44521     44522     44523
     44522     44524     44523     44524     44525     44526     44525     44527
     44526     44527     44528     44529     44528     44530     44529     44530
     44531     44532     44531     44533     44532     44533     44534     44535
     44534     44536     44535     44536     44537     44538     44537     44539
     44538     44539     44540     44541     44540     44542     44541     44542
     44543     44544     44543     44545     44544     44545     44546     44547
     44546     44548     44547     44548     44549     44550     44549     44551
     44550     44551     44552     44553     44552     44554     44553     44554
     44555     44556     44555     44557     44556     44557     44558     44559
     44558     44560     44559     44560     44561     44562     44561     44563
     44562     44563     44564     44565     44564     44566     44565     44566
     44567     44568     44567     44569     44568     44569     44570     44571
     44570     44572     44571     44572     44573     44574     44573     44575
     44574     44575     44576     44577     44576     44578     44577     44578
     44579     44580     44579     44581     44580     44581     44582     44583
     44582     44584     44583     44584     44585     44586     44585     44587
     44586     44587     44588     44589     44588     44590     44589     44590
     44591     44592     44591     44593     44592     44593     44594     44595
     44594     44596     44595     44596     44597     44598     44597     44599
     44598     44599     44600     44601     44600     44602     44601     44602
     44603     44604     44603     44605     44604     44605     44606     44607
     44606     44608     44607     44608     44609     44610     44609     44611
     44610     44611     44612     44613     44612     44614     44613     44614
     44615     44616     44615     44617     44616     44617     44618     44619
     44618     44620     44619     44620     44621     44622     44621     44623
     44622     44623     44624     44625     44624     44626     44625     44626
     44627     44628     44627     44629     44628     44629     44630     44631
     44630     44632     44631     44632     44633     44634     44633     44635
     44634     44635     44636     44637     44636     44638     44637     44638
     44639     44640     44639     44641     44640     44641     44642     44643
     44642     44644     44643     44644     44645     44646     44645     44647
     44646     44647     44648     44649     44648     44650     44649     44650
     44651     44652     44651     44653     44652     44653     44654     44655
     44654     44656     44655     44656     44657     44658     44657     44659
     44658     44659     44660     44661     44660     44662     44661     44662
     44663     44664     44663     44665     44664     44665     44666     44667
     44666     44668     44667     44668     44669     44670     44669     44671
     44670     44671     44672     44673     44672     44674     44673     44674
     44675     44676     44675     44677     44676     44677     44678     44679
     44678     44680     44679     44680     44681     44682     44681     44683
     44682     44683     44684     44685     44684     44686     44685     44686
     44687     44688     44687     44689     44688     44689     44690     44691
     44690     44692     44691     44692     44693     44694     44693     44695
     44694     44695     44696     44697     44696     44698     44697     44698
     44699     44700     44699     44701     44700     44701     44702     44703
     44702     44704     44703     44704     44705     44706     44705     44707
     44706     44707     44708     44709     44708     44710     44709     44710
     44711     44712     44711     44713     44712     44713     44714     44715
     44714     44716     44715     44716     44717     44718     44717     44719
     44718     44719     44720     44721     44720     44722     44721     44722
     44723     44724     44723     44725     44724     44725     44726     44727
     44726     44728     44727     44728     44729     44730     44729     44731
     44730     44731     44732     44733     44732     44734     44733     44734
     44735     44736     44735     44737     44736     44737     44738     44739
     44738     44740     44739     44740     44741     44742     44741     44743
     44742     44743     44744     44745     44744     44746     44745     44746
     44747     44748     44747     44749     44748     44749     44750     44751
     44750     44752     44751     44752     44753     44754     44753     44755
     44754     44755     44756     44757     44756     44758     44757     44758
     44759     44760     44759     44761     44760     44761     44762     44763
     44762     44764     44763     44764     44765     44766     44765     44767
     44766     44767     44768     44769     44768     44770     44769     44770
     44771     44772     44771     44773     44772     44773     44774     44775
     44774     44776     44775     44776     44777     44778     44777     44779
     44778     44779     44780     44781     44780     44782     44781     44782
     44783     44784     44783     44785     44784     44785     44786     44787
     44786     44788     44787     44788     44789     44790     44789     44791
     44790     44791     44792     44793     44792     44794     44793     44794
     44795     44796     44795     44797     44796     44797     44798     44799
     44798     44800     44799     44800     44801     44802     44801     44803
     44802     44803     44804     44805     44804     44806     44805     44806
     44807     44808     44807     44809     44808     44809     44810     44811
     44810     44812     44811     44812     44813     44814     44813     44815
     44814     44815     44816     44817     44816     44818     44817     44818
     44819     44820     44819     44821     44820     44821     44822     44823
     44822     44824     44823     44824     44825     44826     44825     44827
     44826     44827     44828     44829     44828     44830     44829     44830
     44831     44832     44831     44833     44832     44833     44834     44835
     44834     44836     44835     44836     44837     44838     44837     44839
     44838     44839     44840     44841     44840     44842     44841     44842
     44843     44844     44843     44845     44844     44845     44846     44847
     44846     44848     44847     44848     44849     44850     44849     44851
     44850     44851     44852     44853     44852     44854     44853     44854
     44855     44856     44855     44857     44856     44857     44858     44859
     44858     44860     44859     44860     44861     44862     44861     44863
     44862     44863     44864     44865     44864     44866     44865     44866
     44867     44868     44867     44869     44868     44869     44870     44871
     44870     44872     44871     44872     44873     44874     44873     44875
     44874     44875     44876     44877     44876     44878     44877     44878
     44879     44880     44879     44881     44880     44881     44882     44883
     44882     44884     44883     44884     44885     44886     44885     44887
     44886     44887     44888     44889     44888     44890     44889     44890
     44891     44892     44891     44893     44892     44893     44894     44895
     44894     44896     44895     44896     44897     44898     44897     44899
     44898     44899     44900     44901     44900     44902     44901     44902
     44903     44904     44903     44905     44904     44905     44906     44907
     44906     44908     44907     44908     44909     44910     44909     44911
     44910     44911     44912     44913     44912     44914     44913     44914
     44915     44916     44915     44917     44916     44917     44918     44919
     44918     44920     44919     44920     44921     44922     44921     44923
     44922     44923     44924     44925     44924     44926     44925     44926
     44927     44928     44927     44929     44928     44929     44930     44931
     44930     44932     44931     44932     44933     44934     44933     44935
     44934     44935     44936     44937     44936     44938     44937     44938
     44939     44940     44939     44941     44940     44941     44942     44943
     44942     44944     44943     44944     44945     44946     44945     44947
     44946     44947     44948     44949     44948     44950     44949     44950
     44951     44952     44951     44953     44952     44953     44954     44955
     44954     44956     44955     44956     44957     44958     44957     44959
     44958     44959     44960     44961     44960     44962     44961     44962
     44963     44964     44963     44965     44964     44965     44966     44967
     44966     44968     44967     44968     44969     44970     44969     44971
     44970     44971     44972     44973     44972     44974     44973     44974
     44975     44976     44975     44977     44976     44977     44978     44979
     44978     44980     44979     44980     44981     44982     44981     44983
     44982     44983     44984     44985     44984     44986     44985     44986
     44987     44988     44987     44989     44988     44989     44990     44991
     44990     44992     44991     44992     44993     44994     44993     44995
     44994     44995     44996     44997     44996     44998     44997     44998
     44999     45000     44999     45001     45000     45001     45002     45003
     45002     45004     45003     45004     45005     45006     45005     45007
     45006     45007     45008     45009     45008     45010     45009     45010
     45011     45012     45011     45013     45012     45013     45014     45015
     45014     45016     45015     45016     45017     45018     45017     45019
     45018     45019     45020     45021     45020     45022     45021     45022
     45023     45024     45023     45025     45024     45025     45026     45027
     45026     45028     45027     45028     45029     45030     45029     45031
     45030     45031     45032     45033     45032     45034     45033     45034
     45035     45036     45035     45037     45036     45037     45038     45039
     45038     45040     45039     45040     45041     45042     45041     45043
     45042     45043     45044     45045     45044     45046     45045     45046
     45047     45048     45047     45049     45048     45049     45050     45051
     45050     45052     45051     45052     45053     45054     45053     45055
     45054     45055     45056     45057     45056     45058     45057     45058
     45059     45060     45059     45061     45060     45061     45062     45063
     45062     45064     45063     45064     45065     45066     45065     45067
     45066     45067     45068     45069     45068     45070     45069     45070
     45071     45072     45071     45073     45072     45073     45074     45075
     45074     45076     45075     45076     45077     45078     45077     45079
     45078     45079     45080     45081     45080     45082     45081     45082
     45083     45084     45083     45085     45084     45085     45086     45087
     45086     45088     45087     45088     45089     45090     45089     45091
     45090     45091     45092     45093     45092     45094     45093     45094
     45095     45096     45095     45097     45096     45097     45098     45099
     45098     45100     45099     45100     45101     45102     45101     45103
     45102     45103     45104     45105     45104     45106     45105     45106
     45107     45108     45107     45109     45108     45109     45110     45111
     45110     45112     45111     45112     45113     45114     45113     45115
     45114     45115     45116     45117     45116     45118     45117     45118
     45119     45120     45119     45121     45120     45121     45122     45123
     45122     45124     45123     45124     45125     45126     45125     45127
     45126     45127     45128     45129     45128     45130     45129     45130
     45131     45132     45131     45133     45132     45133     45134     45135
     45134     45136     45135     45136     45137     45138     45137     45139
     45138     45139     45140     45141     45140     45142     45141     45142
     45143     45144     45143     45145     45144     45145     45146     45147
     45146     45148     45147     45148     45149     45150     45149     45151
     45150     45151     45152     45153     45152     45154     45153     45154
     45155     45156     45155     45157     45156     45157     45158     45159
     45158     45160     45159     45160     45161     45162     45161     45163
     45162     45163     45164     45165     45164     45166     45165     45166
     45167     45168     45167     45169     45168     45169     45170     45171
     45170     45172     45171     45172     45173     45174     45173     45175
     45174     45175     45176     45177     45176     45178     45177     45178
     45179     45180     45179     45181     45180     45181     45182     45183
     45182     45184     45183     45184     45185     45186     45185     45187
     45186     45187     45188     45189     45188     45190     45189     45190
     45191     45192     45191     45193     45192     45193     45194     45195
     45194     45196     45195     45196     45197     45198     45197     45199
     45198     45199     45200     45201     45200     45202     45201     45202
     45203     45204     45203     45205     45204     45205     45206     45207
     45206     45208     45207     45208     45209     45210     45209     45211
     45210     45211     45212     45213     45212     45214     45213     45214
     45215     45216     45215     45217     45216     45217     45218     45219
     45218     45220     45219     45220     45221     45222     45221     45223
     45222     45223     45224     45225     45224     45226     45225     45226
     45227     45228     45227     45229     45228     45229     45230     45231
     45230     45232     45231     45232     45233     45234     45233     45235
     45234     45235     45236     45237     45236     45238     45237     45238
     45239     45240     45239     45241     45240     45241     45242     45243
     45242     45244     45243     45244     45245     45246     45245     45247
     45246     45247     45248     45249     45248     45250     45249     45250
     45251     45252     45251     45253     45252     45253     45254     45255
     45254     45256     45255     45256     45257     45258     45257     45259
     45258     45259     45260     45261     45260     45262     45261     45262
     45263     45264     45263     45265     45264     45265     45266     45267
     45266     45268     45267     45268     45269     45270     45269     45271
     45270     45271     45272     45273     45272     45274     45273     45274
     45275     45276     45275     45277     45276     45277     45278     45279
     45278     45280     45279     45280     45281     45282     45281     45283
     45282     45283     45284     45285     45284     45286     45285     45286
     45287     45288     45287     45289     45288     45289     45290     45291
     45290     45292     45291     45292     45293     45294     45293     45295
     45294     45295     45296     45297     45296     45298     45297     45298
     45299     45300     45299     45301     45300     45301     45302     45303
     45302     45304     45303     45304     45305     45306     45305     45307
     45306     45307     45308     45309     45308     45310     45309     45310
     45311     45312     45311     45313     45312     45313     45314     45315
     45314     45316     45315     45316     45317     45318     45317     45319
     45318     45319     45320     45321     45320     45322     45321     45322
     45323     45324     45323     45325     45324     45325     45326     45327
     45326     45328     45327     45328     45329     45330     45329     45331
     45330     45331     45332     45333     45332     45334     45333     45334
     45335     45336     45335     45337     45336     45337     45338     45339
     45338     45340     45339     45340     45341     45342     45341     45343
     45342     45343     45344     45345     45344     45346     45345     45346
     45347     45348     45347     45349     45348     45349     45350     45351
     45350     45352     45351     45352     45353     45354     45353     45355
     45354     45355     45356     45357     45356     45358     45357     45358
     45359     45360     45359     45361     45360     45361     45362     45363
     45362     45364     45363     45364     45365     45366     45365     45367
     45366     45367     45368     45369     45368     45370     45369     45370
     45371     45372     45371     45373     45372     45373     45374     45375
     45374     45376     45375     45376     45377     45378     45377     45379
     45378     45379     45380     45381     45380     45382     45381     45382
     45383     45384     45383     45385     45384     45385     45386     45387
     45386     45388     45387     45388     45389     45390     45389     45391
     45390     45391     45392     45393     45392     45394     45393     45394
     45395     45396     45395     45397     45396     45397     45398     45399
     45398     45400     45399     45400     45401     45402     45401     45403
     45402     45403     45404     45405     45404     45406     45405     45406
     45407     45408     45407     45409     45408     45409     45410     45411
     45410     45412     45411     45412     45413     45414     45413     45415
     45414     45415     45416     45417     45416     45418     45417     45418
     45419     45420     45419     45421     45420     45421     45422     45423
     45422     45424     45423     45424     45425     45426     45425     45427
     45426     45427     45428     45429     45428     45430     45429     45430
     45431     45432     45431     45433     45432     45433     45434     45435
     45434     45436     45435     45436     45437     45438     45437     45439
     45438     45439     45440     45441     45440     45442     45441     45442
     45443     45444     45443     45445     45444     45445     45446     45447
     45446     45448     45447     45448     45449     45450     45449     45451
     45450     45451     45452     45453     45452     45454     45453     45454
     45455     45456     45455     45457     45456     45457     45458     45459
     45458     45460     45459     45460     45461     45462     45461     45463
     45462     45463     45464     45465     45464     45466     45465     45466
     45467     45468     45467     45469     45468     45469     45470     45471
     45470     45472     45471     45472     45473     45474     45473     45475
     45474     45475     45476     45477     45476     45478     45477     45478
     45479     45480     45479     45481     45480     45481     45482     45483
     45482     45484     45483     45484     45485     45486     45485     45487
     45486     45487     45488     45489     45488     45490     45489     45490
     45491     45492     45491     45493     45492     45493     45494     45495
     45494     45496     45495     45496     45497     45498     45497     45499
     45498     45499     45500     45501     45500     45502     45501     45502
     45503     45504     45503     45505     45504     45505     45506     45507
     45506     45508     45507     45508     45509     45510     45509     45511
     45510     45511     45512     45513     45512     45514     45513     45514
     45515     45516     45515     45517     45516     45517     45518     45519
     45518     45520     45519     45520     45521     45522     45521     45523
     45522     45523     45524     45525     45524     45526     45525     45526
     45527     45528     45527     45529     45528     45529     45530     45531
     45530     45532     45531     45532     45533     45534     45533     45535
     45534     45535     45536     45537     45536     45538     45537     45538
     45539     45540     45539     45541     45540     45541     45542     45543
     45542     45544     45543     45544     45545     45546     45545     45547
     45546     45547     45548     45549     45548     45550     45549     45550
     45551     45552     45551     45553     45552     45553     45554     45555
     45554     45556     45555     45556     45557     45558     45557     45559
     45558     45559     45560     45561     45560     45562     45561     45562
     45563     45564     45563     45565     45564     45565     45566     45567
     45566     45568     45567     45568     45569     45570     45569     45571
     45570     45571     45572     45573     45572     45574     45573     45574
     45575     45576     45575     45577     45576     45577     45578     45579
     45578     45580     45579     45580     45581     45582     45581     45583
     45582     45583     45584     45585     45584     45586     45585     45586
     45587     45588     45587     45589     45588     45589     45590     45591
     45590     45592     45591     45592     45593     45594     45593     45595
     45594     45595     45596     45597     45596     45598     45597     45598
     45599     45600     45599     45601     45600     45601     45602     45603
     45602     45604     45603     45604     45605     45606     45605     45607
     45606     45607     45608     45609     45608     45610     45609     45610
     45611     45612     45611     45613     45612     45613     45614     45615
     45614     45616     45615     45616     45617     45618     45617     45619
     45618     45619     45620     45621     45620     45622     45621     45622
     45623     45624     45623     45625     45624     45625     45626     45627
     45626     45628     45627     45628     45629     45630     45629     45631
     45630     45631     45632     45633     45632     45634     45633     45634
     45635     45636     45635     45637     45636     45637     45638     45639
     45638     45640     45639     45640     45641     45642     45641     45643
     45642     45643     45644     45645     45644     45646     45645     45646
     45647     45648     45647     45649     45648     45649     45650     45651
     45650     45652     45651     45652     45653     45654     45653     45655
     45654     45655     45656     45657     45656     45658     45657     45658
     45659     45660     45659     45661     45660     45661     45662     45663
     45662     45664     45663     45664     45665     45666     45665     45667
     45666     45667     45668     45669     45668     45670     45669     45670
     45671     45672     45671     45673     45672     45673     45674     45675
     45674     45676     45675     45676     45677     45678     45677     45679
     45678     45679     45680     45681     45680     45682     45681     45682
     45683     45684     45683     45685     45684     45685     45686     45687
     45686     45688     45687     45688     45689     45690     45689     45691
     45690     45691     45692     45693     45692     45694     45693     45694
     45695     45696     45695     45697     45696     45697     45698     45699
     45698     45700     45699     45700     45701     45702     45701     45703
     45702     45703     45704     45705     45704     45706     45705     45706
     45707     45708     45707     45709     45708     45709     45710     45711
     45710     45712     45711     45712     45713     45714     45713     45715
     45714     45715     45716     45717     45716     45718     45717     45718
     45719     45720     45719     45721     45720     45721     45722     45723
     45722     45724     45723     45724     45725     45726     45725     45727
     45726     45727     45728     45729     45728     45730     45729     45730
     45731     45732     45731     45733     45732     45733     45734     45735
     45734     45736     45735     45736     45737     45738     45737     45739
     45738     45739     45740     45741     45740     45742     45741     45742
     45743     45744     45743     45745     45744     45745     45746     45747
     45746     45748     45747     45748     45749     45750     45749     45751
     45750     45751     45752     45753     45752     45754     45753     45754
     45755     45756     45755     45757     45756     45757     45758     45759
     45758     45760     45759     45760     45761     45762     45761     45763
     45762     45763     45764     45765     45764     45766     45765     45766
     45767     45768     45767     45769     45768     45769     45770     45771
     45770     45772     45771     45772     45773     45774     45773     45775
     45774     45775     45776     45777     45776     45778     45777     45778
     45779     45780     45779     45781     45780     45781     45782     45783
     45782     45784     45783     45784     45785     45786     45785     45787
     45786     45787     45788     45789     45788     45790     45789     45790
     45791     45792     45791     45793     45792     45793     45794     45795
     45794     45796     45795     45796     45797     45798     45797     45799
     45798     45799     45800     45801     45800     45802     45801     45802
     45803     45804     45803     45805     45804     45805     45806     45807
     45806     45808     45807     45808     45809     45810     45809     45811
     45810     45811     45812     45813     45812     45814     45813     45814
     45815     45816     45815     45817     45816     45817     45818     45819
     45818     45820     45819     45820     45821     45822     45821     45823
     45822     45823     45824     45825     45824     45826     45825     45826
     45827     45828     45827     45829     45828     45829     45830     45831
     45830     45832     45831     45832     45833     45834     45833     45835
     45834     45835     45836     45837     45836     45838     45837     45838
     45839     45840     45839     45841     45840     45841     45842     45843
     45842     45844     45843     45844     45845     45846     45845     45847
     45846     45847     45848     45849     45848     45850     45849     45850
     45851     45852     45851     45853     45852     45853     45854     45855
     45854     45856     45855     45856     45857     45858     45857     45859
     45858     45859     45860     45861     45860     45862     45861     45862
     45863     45864     45863     45865     45864     45865     45866     45867
     45866     45868     45867     45868     45869     45870     45869     45871
     45870     45871     45872     45873     45872     45874     45873     45874
     45875     45876     45875     45877     45876     45877     45878     45879
     45878     45880     45879     45880     45881     45882     45881     45883
     45882     45883     45884     45885     45884     45886     45885     45886
     45887     45888     45887     45889     45888     45889     45890     45891
     45890     45892     45891     45892     45893     45894     45893     45895
     45894     45895     45896     45897     45896     45898     45897     45898
     45899     45900     45899     45901     45900     45901     45902     45903
     45902     45904     45903     45904     45905     45906     45905     45907
     45906     45907     45908     45909     45908     45910     45909     45910
     45911     45912     45911     45913     45912     45913     45914     45915
     45914     45916     45915     45916     45917     45918     45917     45919
     45918     45919     45920     45921     45920     45922     45921     45922
     45923     45924     45923     45925     45924     45925     45926     45927
     45926     45928     45927     45928     45929     45930     45929     45931
     45930     45931     45932     45933     45932     45934     45933     45934
     45935     45936     45935     45937     45936     45937     45938     45939
     45938     45940     45939     45940     45941     45942     45941     45943
     45942     45943     45944     45945     45944     45946     45945     45946
     45947     45948     45947     45949     45948     45949     45950     45951
     45950     45952     45951     45952     45953     45954     45953     45955
     45954     45955     45956     45957     45956     45958     45957     45958
     45959     45960     45959     45961     45960     45961     45962     45963
     45962     45964     45963     45964     45965     45966     45965     45967
     45966     45967     45968     45969     45968     45970     45969     45970
     45971     45972     45971     45973     45972     45973     45974     45975
     45974     45976     45975     45976     45977     45978     45977     45979
     45978     45979     45980     45981     45980     45982     45981     45982
     45983     45984     45983     45985     45984     45985     45986     45987
     45986     45988     45987     45988     45989     45990     45989     45991
     45990     45991     45992     45993     45992     45994     45993     45994
     45995     45996     45995     45997     45996     45997     45998     45999
     45998     46000     45999     46000     46001     46002     46001     46003
     46002     46003     46004     46005     46004     46006     46005     46006
     46007     46008     46007     46009     46008     46009     46010     46011
     46010     46012     46011     46012     46013     46014     46013     46015
     46014     46015     46016     46017     46016     46018     46017     46018
     46019     46020     46019     46021     46020     46021     46022     46023
     46022     46024     46023     46024     46025     46026     46025     46027
     46026     46027     46028     46029     46028     46030     46029     46030
     46031     46032     46031     46033     46032     46033     46034     46035
     46034     46036     46035     46036     46037     46038     46037     46039
     46038     46039     46040     46041     46040     46042     46041     46042
     46043     46044     46043     46045     46044     46045     46046     46047
     46046     46048     46047     46048     46049     46050     46049     46051
     46050     46051     46052     46053     46052     46054     46053     46054
     46055     46056     46055     46057     46056     46057     46058     46059
     46058     46060     46059     46060     46061     46062     46061     46063
     46062     46063     46064     46065     46064     46066     46065     46066
     46067     46068     46067     46069     46068     46069     46070     46071
     46070     46072     46071     46072     46073     46074     46073     46075
     46074     46075     46076     46077     46076     46078     46077     46078
     46079     46080     46079     46081     46080     46081     46082     46083
     46082     46084     46083     46084     46085     46086     46085     46087
     46086     46087     46088     46089     46088     46090     46089     46090
     46091     46092     46091     46093     46092     46093     46094     46095
     46094     46096     46095     46096     46097     46098     46097     46099
     46098     46099     46100     46101     46100     46102     46101     46102
     46103     46104     46103     46105     46104     46105     46106     46107
     46106     46108     46107     46108     46109     46110     46109     46111
     46110     46111     46112     46113     46112     46114     46113     46114
     46115     46116     46115     46117     46116     46117     46118     46119
     46118     46120     46119     46120     46121     46122     46121     46123
     46122     46123     46124     46125     46124     46126     46125     46126
     46127     46128     46127     46129     46128     46129     46130     46131
     46130     46132     46131     46132     46133     46134     46133     46135
     46134     46135     46136     46137     46136     46138     46137     46138
     46139     46140     46139     46141     46140     46141     46142     46143
     46142     46144     46143     46144     46145     46146     46145     46147
     46146     46147     46148     46149     46148     46150     46149     46150
     46151     46152     46151     46153     46152     46153     46154     46155
     46154     46156     46155     46156     46157     46158     46157     46159
     46158     46159     46160     46161     46160     46162     46161     46162
     46163     46164     46163     46165     46164     46165     46166     46167
     46166     46168     46167     46168     46169     46170     46169     46171
     46170     46171     46172     46173     46172     46174     46173     46174
     46175     46176     46175     46177     46176     46177     46178     46179
     46178     46180     46179     46180     46181     46182     46181     46183
     46182     46183     46184     46185     46184     46186     46185     46186
     46187     46188     46187     46189     46188     46189     46190     46191
     46190     46192     46191     46192     46193     46194     46193     46195
     46194     46195     46196     46197     46196     46198     46197     46198
     46199     46200     46199     46201     46200     46201     46202     46203
     46202     46204     46203     46204     46205     46206     46205     46207
     46206     46207     46208     46209     46208     46210     46209     46210
     46211     46212     46211     46213     46212     46213     46214     46215
     46214     46216     46215     46216     46217     46218     46217     46219
     46218     46219     46220     46221     46220     46222     46221     46222
     46223     46224     46223     46225     46224     46225     46226     46227
     46226     46228     46227     46228     46229     46230     46229     46231
     46230     46231     46232     46233     46232     46234     46233     46234
     46235     46236     46235     46237     46236     46237     46238     46239
     46238     46240     46239     46240     46241     46242     46241     46243
     46242     46243     46244     46245     46244     46246     46245     46246
     46247     46248     46247     46249     46248     46249     46250     46251
     46250     46252     46251     46252     46253     46254     46253     46255
     46254     46255     46256     46257     46256     46258     46257     46258
     46259     46260     46259     46261     46260     46261     46262     46263
     46262     46264     46263     46264     46265     46266     46265     46267
     46266     46267     46268     46269     46268     46270     46269     46270
     46271     46272     46271     46273     46272     46273     46274     46275
     46274     46276     46275     46276     46277     46278     46277     46279
     46278     46279     46280     46281     46280     46282     46281     46282
     46283     46284     46283     46285     46284     46285     46286     46287
     46286     46288     46287     46288     46289     46290     46289     46291
     46290     46291     46292     46293     46292     46294     46293     46294
     46295     46296     46295     46297     46296     46297     46298     46299
     46298     46300     46299     46300     46301     46302     46301     46303
     46302     46303     46304     46305     46304     46306     46305     46306
     46307     46308     46307     46309     46308     46309     46310     46311
     46310     46312     46311     46312     46313     46314     46313     46315
     46314     46315     46316     46317     46316     46318     46317     46318
     46319     46320     46319     46321     46320     46321     46322     46323
     46322     46324     46323     46324     46325     46326     46325     46327
     46326     46327     46328     46329     46328     46330     46329     46330
     46331     46332     46331     46333     46332     46333     46334     46335
     46334     46336     46335     46336     46337     46338     46337     46339
     46338     46339     46340     46341     46340     46342     46341     46342
     46343     46344     46343     46345     46344     46345     46346     46347
     46346     46348     46347     46348     46349     46350     46349     46351
     46350     46351     46352     46353     46352     46354     46353     46354
     46355     46356     46355     46357     46356     46357     46358     46359
     46358     46360     46359     46360     46361     46362     46361     46363
     46362     46363     46364     46365     46364     46366     46365     46366
     46367     46368     46367     46369     46368     46369     46370     46371
     46370     46372     46371     46372     46373     46374     46373     46375
     46374     46375     46376     46377     46376     46378     46377     46378
     46379     46380     46379     46381     46380     46381     46382     46383
     46382     46384     46383     46384     46385     46386     46385     46387
     46386     46387     46388     46389     46388     46390     46389     46390
     46391     46392     46391     46393     46392     46393     46394     46395
     46394     46396     46395     46396     46397     46398     46397     46399
     46398     46399     46400     46401     46400     46402     46401     46402
     46403     46404     46403     46405     46404     46405     46406     46407
     46406     46408     46407     46408     46409     46410     46409     46411
     46410     46411     46412     46413     46412     46414     46413     46414
     46415     46416     46415     46417     46416     46417     46418     46419
     46418     46420     46419     46420     46421     46422     46421     46423
     46422     46423     46424     46425     46424     46426     46425     46426
     46427     46428     46427     46429     46428     46429     46430     46431
     46430     46432     46431     46432     46433     46434     46433     46435
     46434     46435     46436     46437     46436     46438     46437     46438
     46439     46440     46439     46441     46440     46441     46442     46443
     46442     46444     46443     46444     46445     46446     46445     46447
     46446     46447     46448     46449     46448     46450     46449     46450
     46451     46452     46451     46453     46452     46453     46454     46455
     46454     46456     46455     46456     46457     46458     46457     46459
     46458     46459     46460     46461     46460     46462     46461     46462
     46463     46464     46463     46465     46464     46465     46466     46467
     46466     46468     46467     46468     46469     46470     46469     46471
     46470     46471     46472     46473     46472     46474     46473     46474
     46475     46476     46475     46477     46476     46477     46478     46479
     46478     46480     46479     46480     46481     46482     46481     46483
     46482     46483     46484     46485     46484     46486     46485     46486
     46487     46488     46487     46489     46488     46489     46490     46491
     46490     46492     46491     46492     46493     46494     46493     46495
     46494     46495     46496     46497     46496     46498     46497     46498
     46499     46500     46499     46501     46500     46501     46502     46503
     46502     46504     46503     46504     46505     46506     46505     46507
     46506     46507     46508     46509     46508     46510     46509     46510
     46511     46512     46511     46513     46512     46513     46514     46515
     46514     46516     46515     46516     46517     46518     46517     46519
     46518     46519     46520     46521     46520     46522     46521     46522
     46523     46524     46523     46525     46524     46525     46526     46527
     46526     46528     46527     46528     46529     46530     46529     46531
     46530     46531     46532     46533     46532     46534     46533     46534
     46535     46536     46535     46537     46536     46537     46538     46539
     46538     46540     46539     46540     46541     46542     46541     46543
     46542     46543     46544     46545     46544     46546     46545     46546
     46547     46548     46547     46549     46548     46549     46550     46551
     46550     46552     46551     46552     46553     46554     46553     46555
     46554     46555     46556     46557     46556     46558     46557     46558
     46559     46560     46559     46561     46560     46561     46562     46563
     46562     46564     46563     46564     46565     46566     46565     46567
     46566     46567     46568     46569     46568     46570     46569     46570
     46571     46572     46571     46573     46572     46573     46574     46575
     46574     46576     46575     46576     46577     46578     46577     46579
     46578     46579     46580     46581     46580     46582     46581     46582
     46583     46584     46583     46585     46584     46585     46586     46587
     46586     46588     46587     46588     46589     46590     46589     46591
     46590     46591     46592     46593     46592     46594     46593     46594
     46595     46596     46595     46597     46596     46597     46598     46599
     46598     46600     46599     46600     46601     46602     46601     46603
     46602     46603     46604     46605     46604     46606     46605     46606
     46607     46608     46607     46609     46608     46609     46610     46611
     46610     46612     46611     46612     46613     46614     46613     46615
     46614     46615     46616     46617     46616     46618     46617     46618
     46619     46620     46619     46621     46620     46621     46622     46623
     46622     46624     46623     46624     46625     46626     46625     46627
     46626     46627     46628     46629     46628     46630     46629     46630
     46631     46632     46631     46633     46632     46633     46634     46635
     46634     46636     46635     46636     46637     46638     46637     46639
     46638     46639     46640     46641     46640     46642     46641     46642
     46643     46644     46643     46645     46644     46645     46646     46647
     46646     46648     46647     46648     46649     46650     46649     46651
     46650     46651     46652     46653     46652     46654     46653     46654
     46655     46656     46655     46657     46656     46657     46658     46659
     46658     46660     46659     46660     46661     46662     46661     46663
     46662     46663     46664     46665     46664     46666     46665     46666
     46667     46668     46667     46669     46668     46669     46670     46671
     46670     46672     46671     46672     46673     46674     46673     46675
     46674     46675     46676     46677     46676     46678     46677     46678
     46679     46680     46679     46681     46680     46681     46682     46683
     46682     46684     46683     46684     46685     46686     46685     46687
     46686     46687     46688     46689     46688     46690     46689     46690
     46691     46692     46691     46693     46692     46693     46694     46695
     46694     46696     46695     46696     46697     46698     46697     46699
     46698     46699     46700     46701     46700     46702     46701     46702
     46703     46704     46703     46705     46704     46705     46706     46707
     46706     46708     46707     46708     46709     46710     46709     46711
     46710     46711     46712     46713     46712     46714     46713     46714
     46715     46716     46715     46717     46716     46717     46718     46719
     46718     46720     46719     46720     46721     46722     46721     46723
     46722     46723     46724     46725     46724     46726     46725     46726
     46727     46728     46727     46729     46728     46729     46730     46731
     46730     46732     46731     46732     46733     46734     46733     46735
     46734     46735     46736     46737     46736     46738     46737     46738
     46739     46740     46739     46741     46740     46741     46742     46743
     46742     46744     46743     46744     46745     46746     46745     46747
     46746     46747     46748     46749     46748     46750     46749     46750
     46751     46752     46751     46753     46752     46753     46754     46755
     46754     46756     46755     46756     46757     46758     46757     46759
     46758     46759     46760     46761     46760     46762     46761     46762
     46763     46764     46763     46765     46764     46765     46766     46767
     46766     46768     46767     46768     46769     46770     46769     46771
     46770     46771     46772     46773     46772     46774     46773     46774
     46775     46776     46775     46777     46776     46777     46778     46779
     46778     46780     46779     46780     46781     46782     46781     46783
     46782     46783     46784     46785     46784     46786     46785     46786
     46787     46788     46787     46789     46788     46789     46790     46791
     46790     46792     46791     46792     46793     46794     46793     46795
     46794     46795     46796     46797     46796     46798     46797     46798
     46799     46800     46799     46801     46800     46801     46802     46803
     46802     46804     46803     46804     46805     46806     46805     46807
     46806     46807     46808     46809     46808     46810     46809     46810
     46811     46812     46811     46813     46812     46813     46814     46815
     46814     46816     46815     46816     46817     46818     46817     46819
     46818     46819     46820     46821     46820     46822     46821     46822
     46823     46824     46823     46825     46824     46825     46826     46827
     46826     46828     46827     46828     46829     46830     46829     46831
     46830     46831     46832     46833     46832     46834     46833     46834
     46835     46836     46835     46837     46836     46837     46838     46839
     46838     46840     46839     46840     46841     46842     46841     46843
     46842     46843     46844     46845     46844     46846     46845     46846
     46847     46848     46847     46849     46848     46849     46850     46851
     46850     46852     46851     46852     46853     46854     46853     46855
     46854     46855     46856     46857     46856     46858     46857     46858
     46859     46860     46859     46861     46860     46861     46862     46863
     46862     46864     46863     46864     46865     46866     46865     46867
     46866     46867     46868     46869     46868     46870     46869     46870
     46871     46872     46871     46873     46872     46873     46874     46875
     46874     46876     46875     46876     46877     46878     46877     46879
     46878     46879     46880     46881     46880     46882     46881     46882
     46883     46884     46883     46885     46884     46885     46886     46887
     46886     46888     46887     46888     46889     46890     46889     46891
     46890     46891     46892     46893     46892     46894     46893     46894
     46895     46896     46895     46897     46896     46897     46898     46899
     46898     46900     46899     46900     46901     46902     46901     46903
     46902     46903     46904     46905     46904     46906     46905     46906
     46907     46908     46907     46909     46908     46909     46910     46911
     46910     46912     46911     46912     46913     46914     46913     46915
     46914     46915     46916     46917     46916     46918     46917     46918
     46919     46920     46919     46921     46920     46921     46922     46923
     46922     46924     46923     46924     46925     46926     46925     46927
     46926     46927     46928     46929     46928     46930     46929     46930
     46931     46932     46931     46933     46932     46933     46934     46935
     46934     46936     46935     46936     46937     46938     46937     46939
     46938     46939     46940     46941     46940     46942     46941     46942
     46943     46944     46943     46945     46944     46945     46946     46947
     46946     46948     46947     46948     46949     46950     46949     46951
     46950     46951     46952     46953     46952     46954     46953     46954
     46955     46956     46955     46957     46956     46957     46958     46959
     46958     46960     46959     46960     46961     46962     46961     46963
     46962     46963     46964     46965     46964     46966     46965     46966
     46967     46968     46967     46969     46968     46969     46970     46971
     46970     46972     46971     46972     46973     46974     46973     46975
     46974     46975     46976     46977     46976     46978     46977     46978
     46979     46980     46979     46981     46980     46981     46982     46983
     46982     46984     46983     46984     46985     46986     46985     46987
     46986     46987     46988     46989     46988     46990     46989     46990
     46991     46992     46991     46993     46992     46993     46994     46995
     46994     46996     46995     46996     46997     46998     46997     46999
     46998     46999     47000     47001     47000     47002     47001     47002
     47003     47004     47003     47005     47004     47005     47006     47007
     47006     47008     47007     47008     47009     47010     47009     47011
     47010     47011     47012     47013     47012     47014     47013     47014
     47015     47016     47015     47017     47016     47017     47018     47019
     47018     47020     47019     47020     47021     47022     47021     47023
     47022     47023     47024     47025     47024     47026     47025     47026
     47027     47028     47027     47029     47028     47029     47030     47031
     47030     47032     47031     47032     47033     47034     47033     47035
     47034     47035     47036     47037     47036     47038     47037     47038
     47039     47040     47039     47041     47040     47041     47042     47043
     47042     47044     47043     47044     47045     47046     47045     47047
     47046     47047     47048     47049     47048     47050     47049     47050
     47051     47052     47051     47053     47052     47053     47054     47055
     47054     47056     47055     47056     47057     47058     47057     47059
     47058     47059     47060     47061     47060     47062     47061     47062
     47063     47064     47063     47065     47064     47065     47066     47067
     47066     47068     47067     47068     47069     47070     47069     47071
     47070     47071     47072     47073     47072     47074     47073     47074
     47075     47076     47075     47077     47076     47077     47078     47079
     47078     47080     47079     47080     47081     47082     47081     47083
     47082     47083     47084     47085     47084     47086     47085     47086
     47087     47088     47087     47089     47088     47089     47090     47091
     47090     47092     47091     47092     47093     47094     47093     47095
     47094     47095     47096     47097     47096     47098     47097     47098
     47099     47100     47099     47101     47100     47101     47102     47103
     47102     47104     47103     47104     47105     47106     47105     47107
     47106     47107     47108     47109     47108     47110     47109     47110
     47111     47112     47111     47113     47112     47113     47114     47115
     47114     47116     47115     47116     47117     47118     47117     47119
     47118     47119     47120     47121     47120     47122     47121     47122
     47123     47124     47123     47125     47124     47125     47126     47127
     47126     47128     47127     47128     47129     47130     47129     47131
     47130     47131     47132     47133     47132     47134     47133     47134
     47135     47136     47135     47137     47136     47137     47138     47139
     47138     47140     47139     47140     47141     47142     47141     47143
     47142     47143     47144     47145     47144     47146     47145     47146
     47147     47148     47147     47149     47148     47149     47150     47151
     47150     47152     47151     47152     47153     47154     47153     47155
     47154     47155     47156     47157     47156     47158     47157     47158
     47159     47160     47159     47161     47160     47161     47162     47163
     47162     47164     47163     47164     47165     47166     47165     47167
     47166     47167     47168     47169     47168     47170     47169     47170
     47171     47172     47171     47173     47172     47173     47174     47175
     47174     47176     47175     47176     47177     47178     47177     47179
     47178     47179     47180     47181     47180     47182     47181     47182
     47183     47184     47183     47185     47184     47185     47186     47187
     47186     47188     47187     47188     47189     47190     47189     47191
     47190     47191     47192     47193     47192     47194     47193     47194
     47195     47196     47195     47197     47196     47197     47198     47199
     47198     47200     47199     47200     47201     47202     47201     47203
     47202     47203     47204     47205     47204     47206     47205     47206
     47207     47208     47207     47209     47208     47209     47210     47211
     47210     47212     47211     47212     47213     47214     47213     47215
     47214     47215     47216     47217     47216     47218     47217     47218
     47219     47220     47219     47221     47220     47221     47222     47223
     47222     47224     47223     47224     47225     47226     47225     47227
     47226     47227     47228     47229     47228     47230     47229     47230
     47231     47232     47231     47233     47232     47233     47234     47235
     47234     47236     47235     47236     47237     47238     47237     47239
     47238     47239     47240     47241     47240     47242     47241     47242
     47243     47244     47243     47245     47244     47245     47246     47247
     47246     47248     47247     47248     47249     47250     47249     47251
     47250     47251     47252     47253     47252     47254     47253     47254
     47255     47256     47255     47257     47256     47257     47258     47259
     47258     47260     47259     47260     47261     47262     47261     47263
     47262     47263     47264     47265     47264     47266     47265     47266
     47267     47268     47267     47269     47268     47269     47270     47271
     47270     47272     47271     47272     47273     47274     47273     47275
     47274     47275     47276     47277     47276     47278     47277     47278
     47279     47280     47279     47281     47280     47281     47282     47283
     47282     47284     47283     47284     47285     47286     47285     47287
     47286     47287     47288     47289     47288     47290     47289     47290
     47291     47292     47291     47293     47292     47293     47294     47295
     47294     47296     47295     47296     47297     47298     47297     47299
     47298     47299     47300     47301     47300     47302     47301     47302
     47303     47304     47303     47305     47304     47305     47306     47307
     47306     47308     47307     47308     47309     47310     47309     47311
     47310     47311     47312     47313     47312     47314     47313     47314
     47315     47316     47315     47317     47316     47317     47318     47319
     47318     47320     47319     47320     47321     47322     47321     47323
     47322     47323     47324     47325     47324     47326     47325     47326
     47327     47328     47327     47329     47328     47329     47330     47331
     47330     47332     47331     47332     47333     47334     47333     47335
     47334     47335     47336     47337     47336     47338     47337     47338
     47339     47340     47339     47341     47340     47341     47342     47343
     47342     47344     47343     47344     47345     47346     47345     47347
     47346     47347     47348     47349     47348     47350     47349     47350
     47351     47352     47351     47353     47352     47353     47354     47355
     47354     47356     47355     47356     47357     47358     47357     47359
     47358     47359     47360     47361     47360     47362     47361     47362
     47363     47364     47363     47365     47364     47365     47366     47367
     47366     47368     47367     47368     47369     47370     47369     47371
     47370     47371     47372     47373     47372     47374     47373     47374
     47375     47376     47375     47377     47376     47377     47378     47379
     47378     47380     47379     47380     47381     47382     47381     47383
     47382     47383     47384     47385     47384     47386     47385     47386
     47387     47388     47387     47389     47388     47389     47390     47391
     47390     47392     47391     47392     47393     47394     47393     47395
     47394     47395     47396     47397     47396     47398     47397     47398
     47399     47400     47399     47401     47400     47401     47402     47403
     47402     47404     47403     47404     47405     47406     47405     47407
     47406     47407     47408     47409     47408     47410     47409     47410
     47411     47412     47411     47413     47412     47413     47414     47415
     47414     47416     47415     47416     47417     47418     47417     47419
     47418     47419     47420     47421     47420     47422     47421     47422
     47423     47424     47423     47425     47424     47425     47426     47427
     47426     47428     47427     47428     47429     47430     47429     47431
     47430     47431     47432     47433     47432     47434     47433     47434
     47435     47436     47435     47437     47436     47437     47438     47439
     47438     47440     47439     47440     47441     47442     47441     47443
     47442     47443     47444     47445     47444     47446     47445     47446
     47447     47448     47447     47449     47448     47449     47450     47451
     47450     47452     47451     47452     47453     47454     47453     47455
     47454     47455     47456     47457     47456     47458     47457     47458
     47459     47460     47459     47461     47460     47461     47462     47463
     47462     47464     47463     47464     47465     47466     47465     47467
     47466     47467     47468     47469     47468     47470     47469     47470
     47471     47472     47471     47473     47472     47473     47474     47475
     47474     47476     47475     47476     47477     47478     47477     47479
     47478     47479     47480     47481     47480     47482     47481     47482
     47483     47484     47483     47485     47484     47485     47486     47487
     47486     47488     47487     47488     47489     47490     47489     47491
     47490     47491     47492     47493     47492     47494     47493     47494
     47495     47496     47495     47497     47496     47497     47498     47499
     47498     47500     47499     47500     47501     47502     47501     47503
     47502     47503     47504     47505     47504     47506     47505     47506
     47507     47508     47507     47509     47508     47509     47510     47511
     47510     47512     47511     47512     47513     47514     47513     47515
     47514     47515     47516     47517     47516     47518     47517     47518
     47519     47520     47519     47521     47520     47521     47522     47523
     47522     47524     47523     47524     47525     47526     47525     47527
     47526     47527     47528     47529     47528     47530     47529     47530
     47531     47532     47531     47533     47532     47533     47534     47535
     47534     47536     47535     47536     47537     47538     47537     47539
     47538     47539     47540     47541     47540     47542     47541     47542
     47543     47544     47543     47545     47544     47545     47546     47547
     47546     47548     47547     47548     47549     47550     47549     47551
     47550     47551     47552     47553     47552     47554     47553     47554
     47555     47556     47555     47557     47556     47557     47558     47559
     47558     47560     47559     47560     47561     47562     47561     47563
     47562     47563     47564     47565     47564     47566     47565     47566
     47567     47568     47567     47569     47568     47569     47570     47571
     47570     47572     47571     47572     47573     47574     47573     47575
     47574     47575     47576     47577     47576     47578     47577     47578
     47579     47580     47579     47581     47580     47581     47582     47583
     47582     47584     47583     47584     47585     47586     47585     47587
     47586     47587     47588     47589     47588     47590     47589     47590
     47591     47592     47591     47593     47592     47593     47594     47595
     47594     47596     47595     47596     47597     47598     47597     47599
     47598     47599     47600     47601     47600     47602     47601     47602
     47603     47604     47603     47605     47604     47605     47606     47607
     47606     47608     47607     47608     47609     47610     47609     47611
     47610     47611     47612     47613     47612     47614     47613     47614
     47615     47616     47615     47617     47616     47617     47618     47619
     47618     47620     47619     47620     47621     47622     47621     47623
     47622     47623     47624     47625     47624     47626     47625     47626
     47627     47628     47627     47629     47628     47629     47630     47631
     47630     47632     47631     47632     47633     47634     47633     47635
     47634     47635     47636     47637     47636     47638     47637     47638
     47639     47640     47639     47641     47640     47641     47642     47643
     47642     47644     47643     47644     47645     47646     47645     47647
     47646     47647     47648     47649     47648     47650     47649     47650
     47651     47652     47651     47653     47652     47653     47654     47655
     47654     47656     47655     47656     47657     47658     47657     47659
     47658     47659     47660     47661     47660     47662     47661     47662
     47663     47664     47663     47665     47664     47665     47666     47667
     47666     47668     47667     47668     47669     47670     47669     47671
     47670     47671     47672     47673     47672     47674     47673     47674
     47675     47676     47675     47677     47676     47677     47678     47679
     47678     47680     47679     47680     47681     47682     47681     47683
     47682     47683     47684     47685     47684     47686     47685     47686
     47687     47688     47687     47689     47688     47689     47690     47691
     47690     47692     47691     47692     47693     47694     47693     47695
     47694     47695     47696     47697     47696     47698     47697     47698
     47699     47700     47699     47701     47700     47701     47702     47703
     47702     47704     47703     47704     47705     47706     47705     47707
     47706     47707     47708     47709     47708     47710     47709     47710
     47711     47712     47711     47713     47712     47713     47714     47715
     47714     47716     47715     47716     47717     47718     47717     47719
     47718     47719     47720     47721     47720     47722     47721     47722
     47723     47724     47723     47725     47724     47725     47726     47727
     47726     47728     47727     47728     47729     47730     47729     47731
     47730     47731     47732     47733     47732     47734     47733     47734
     47735     47736     47735     47737     47736     47737     47738     47739
     47738     47740     47739     47740     47741     47742     47741     47743
     47742     47743     47744     47745     47744     47746     47745     47746
     47747     47748     47747     47749     47748     47749     47750     47751
     47750     47752     47751     47752     47753     47754     47753     47755
     47754     47755     47756     47757     47756     47758     47757     47758
     47759     47760     47759     47761     47760     47761     47762     47763
     47762     47764     47763     47764     47765     47766     47765     47767
     47766     47767     47768     47769     47768     47770     47769     47770
     47771     47772     47771     47773     47772     47773     47774     47775
     47774     47776     47775     47776     47777     47778     47777     47779
     47778     47779     47780     47781     47780     47782     47781     47782
     47783     47784     47783     47785     47784     47785     47786     47787
     47786     47788     47787     47788     47789     47790     47789     47791
     47790     47791     47792     47793     47792     47794     47793     47794
     47795     47796     47795     47797     47796     47797     47798     47799
     47798     47800     47799     47800     47801     47802     47801     47803
     47802     47803     47804     47805     47804     47806     47805     47806
     47807     47808     47807     47809     47808     47809     47810     47811
     47810     47812     47811     47812     47813     47814     47813     47815
     47814     47815     47816     47817     47816     47818     47817     47818
     47819     47820     47819     47821     47820     47821     47822     47823
     47822     47824     47823     47824     47825     47826     47825     47827
     47826     47827     47828     47829     47828     47830     47829     47830
     47831     47832     47831     47833     47832     47833     47834     47835
     47834     47836     47835     47836     47837     47838     47837     47839
     47838     47839     47840     47841     47840     47842     47841     47842
     47843     47844     47843     47845     47844     47845     47846     47847
     47846     47848     47847     47848     47849     47850     47849     47851
     47850     47851     47852     47853     47852     47854     47853     47854
     47855     47856     47855     47857     47856     47857     47858     47859
     47858     47860     47859     47860     47861     47862     47861     47863
     47862     47863     47864     47865     47864     47866     47865     47866
     47867     47868     47867     47869     47868     47869     47870     47871
     47870     47872     47871     47872     47873     47874     47873     47875
     47874     47875     47876     47877     47876     47878     47877     47878
     47879     47880     47879     47881     47880     47881     47882     47883
     47882     47884     47883     47884     47885     47886     47885     47887
     47886     47887     47888     47889     47888     47890     47889     47890
     47891     47892     47891     47893     47892     47893     47894     47895
     47894     47896     47895     47896     47897     47898     47897     47899
     47898     47899     47900     47901     47900     47902     47901     47902
     47903     47904     47903     47905     47904     47905     47906     47907
     47906     47908     47907     47908     47909     47910     47909     47911
     47910     47911     47912     47913     47912     47914     47913     47914
     47915     47916     47915     47917     47916     47917     47918     47919
     47918     47920     47919     47920     47921     47922     47921     47923
     47922     47923     47924     47925     47924     47926     47925     47926
     47927     47928     47927     47929     47928     47929     47930     47931
     47930     47932     47931     47932     47933     47934     47933     47935
     47934     47935     47936     47937     47936     47938     47937     47938
     47939     47940     47939     47941     47940     47941     47942     47943
     47942     47944     47943     47944     47945     47946     47945     47947
     47946     47947     47948     47949     47948     47950     47949     47950
     47951     47952     47951     47953     47952     47953     47954     47955
     47954     47956     47955     47956     47957     47958     47957     47959
     47958     47959     47960     47961     47960     47962     47961     47962
     47963     47964     47963     47965     47964     47965     47966     47967
     47966     47968     47967     47968     47969     47970     47969     47971
     47970     47971     47972     47973     47972     47974     47973     47974
     47975     47976     47975     47977     47976     47977     47978     47979
     47978     47980     47979     47980     47981     47982     47981     47983
     47982     47983     47984     47985     47984     47986     47985     47986
     47987     47988     47987     47989     47988     47989     47990     47991
     47990     47992     47991     47992     47993     47994     47993     47995
     47994     47995     47996     47997     47996     47998     47997     47998
     47999     48000     47999     48001     48000     48001     48002     48003
     48002     48004     48003     48004     48005     48006     48005     48007
     48006     48007     48008     48009     48008     48010     48009     48010
     48011     48012     48011     48013     48012     48013     48014     48015
     48014     48016     48015     48016     48017     48018     48017     48019
     48018     48019     48020     48021     48020     48022     48021     48022
     48023     48024     48023     48025     48024     48025     48026     48027
     48026     48028     48027     48028     48029     48030     48029     48031
     48030     48031     48032     48033     48032     48034     48033     48034
     48035     48036     48035     48037     48036     48037     48038     48039
     48038     48040     48039     48040     48041     48042     48041     48043
     48042     48043     48044     48045     48044     48046     48045     48046
     48047     48048     48047     48049     48048     48049     48050     48051
     48050     48052     48051     48052     48053     48054     48053     48055
     48054     48055     48056     48057     48056     48058     48057     48058
     48059     48060     48059     48061     48060     48061     48062     48063
     48062     48064     48063     48064     48065     48066     48065     48067
     48066     48067     48068     48069     48068     48070     48069     48070
     48071     48072     48071     48073     48072     48073     48074     48075
     48074     48076     48075     48076     48077     48078     48077     48079
     48078     48079     48080     48081     48080     48082     48081     48082
     48083     48084     48083     48085     48084     48085     48086     48087
     48086     48088     48087     48088     48089     48090     48089     48091
     48090     48091     48092     48093     48092     48094     48093     48094
     48095     48096     48095     48097     48096     48097     48098     48099
     48098     48100     48099     48100     48101     48102     48101     48103
     48102     48103     48104     48105     48104     48106     48105     48106
     48107     48108     48107     48109     48108     48109     48110     48111
     48110     48112     48111     48112     48113     48114     48113     48115
     48114     48115     48116     48117     48116     48118     48117     48118
     48119     48120     48119     48121     48120     48121     48122     48123
     48122     48124     48123     48124     48125     48126     48125     48127
     48126     48127     48128     48129     48128     48130     48129     48130
     48131     48132     48131     48133     48132     48133     48134     48135
     48134     48136     48135     48136     48137     48138     48137     48139
     48138     48139     48140     48141     48140     48142     48141     48142
     48143     48144     48143     48145     48144     48145     48146     48147
     48146     48148     48147     48148     48149     48150     48149     48151
     48150     48151     48152     48153     48152     48154     48153     48154
     48155     48156     48155     48157     48156     48157     48158     48159
     48158     48160     48159     48160     48161     48162     48161     48163
     48162     48163     48164     48165     48164     48166     48165     48166
     48167     48168     48167     48169     48168     48169     48170     48171
     48170     48172     48171     48172     48173     48174     48173     48175
     48174     48175     48176     48177     48176     48178     48177     48178
     48179     48180     48179     48181     48180     48181     48182     48183
     48182     48184     48183     48184     48185     48186     48185     48187
     48186     48187     48188     48189     48188     48190     48189     48190
     48191     48192     48191     48193     48192     48193     48194     48195
     48194     48196     48195     48196     48197     48198     48197     48199
     48198     48199     48200     48201     48200     48202     48201     48202
     48203     48204     48203     48205     48204     48205     48206     48207
     48206     48208     48207     48208     48209     48210     48209     48211
     48210     48211     48212     48213     48212     48214     48213     48214
     48215     48216     48215     48217     48216     48217     48218     48219
     48218     48220     48219     48220     48221     48222     48221     48223
     48222     48223     48224     48225     48224     48226     48225     48226
     48227     48228     48227     48229     48228     48229     48230     48231
     48230     48232     48231     48232     48233     48234     48233     48235
     48234     48235     48236     48237     48236     48238     48237     48238
     48239     48240     48239     48241     48240     48241     48242     48243
     48242     48244     48243     48244     48245     48246     48245     48247
     48246     48247     48248     48249     48248     48250     48249     48250
     48251     48252     48251     48253     48252     48253     48254     48255
     48254     48256     48255     48256     48257     48258     48257     48259
     48258     48259     48260     48261     48260     48262     48261     48262
     48263     48264     48263     48265     48264     48265     48266     48267
     48266     48268     48267     48268     48269     48270     48269     48271
     48270     48271     48272     48273     48272     48274     48273     48274
     48275     48276     48275     48277     48276     48277     48278     48279
     48278     48280     48279     48280     48281     48282     48281     48283
     48282     48283     48284     48285     48284     48286     48285     48286
     48287     48288     48287     48289     48288     48289     48290     48291
     48290     48292     48291     48292     48293     48294     48293     48295
     48294     48295     48296     48297     48296     48298     48297     48298
     48299     48300     48299     48301     48300     48301     48302     48303
     48302     48304     48303     48304     48305     48306     48305     48307
     48306     48307     48308     48309     48308     48310     48309     48310
     48311     48312     48311     48313     48312     48313     48314     48315
     48314     48316     48315     48316     48317     48318     48317     48319
     48318     48319     48320     48321     48320     48322     48321     48322
     48323     48324     48323     48325     48324     48325     48326     48327
     48326     48328     48327     48328     48329     48330     48329     48331
     48330     48331     48332     48333     48332     48334     48333     48334
     48335     48336     48335     48337     48336     48337     48338     48339
     48338     48340     48339     48340     48341     48342     48341     48343
     48342     48343     48344     48345     48344     48346     48345     48346
     48347     48348     48347     48349     48348     48349     48350     48351
     48350     48352     48351     48352     48353     48354     48353     48355
     48354     48355     48356     48357     48356     48358     48357     48358
     48359     48360     48359     48361     48360     48361     48362     48363
     48362     48364     48363     48364     48365     48366     48365     48367
     48366     48367     48368     48369     48368     48370     48369     48370
     48371     48372     48371     48373     48372     48373     48374     48375
     48374     48376     48375     48376     48377     48378     48377     48379
     48378     48379     48380     48381     48380     48382     48381     48382
     48383     48384     48383     48385     48384     48385     48386     48387
     48386     48388     48387     48388     48389     48390     48389     48391
     48390     48391     48392     48393     48392     48394     48393     48394
     48395     48396     48395     48397     48396     48397     48398     48399
     48398     48400     48399     48400     48401     48402     48401     48403
     48402     48403     48404     48405     48404     48406     48405     48406
     48407     48408     48407     48409     48408     48409     48410     48411
     48410     48412     48411     48412     48413     48414     48413     48415
     48414     48415     48416     48417     48416     48418     48417     48418
     48419     48420     48419     48421     48420     48421     48422     48423
     48422     48424     48423     48424     48425     48426     48425     48427
     48426     48427     48428     48429     48428     48430     48429     48430
     48431     48432     48431     48433     48432     48433     48434     48435
     48434     48436     48435     48436     48437     48438     48437     48439
     48438     48439     48440     48441     48440     48442     48441     48442
     48443     48444     48443     48445     48444     48445     48446     48447
     48446     48448     48447     48448     48449     48450     48449     48451
     48450     48451     48452     48453     48452     48454     48453     48454
     48455     48456     48455     48457     48456     48457     48458     48459
     48458     48460     48459     48460     48461     48462     48461     48463
     48462     48463     48464     48465     48464     48466     48465     48466
     48467     48468     48467     48469     48468     48469     48470     48471
     48470     48472     48471     48472     48473     48474     48473     48475
     48474     48475     48476     48477     48476     48478     48477     48478
     48479     48480     48479     48481     48480     48481     48482     48483
     48482     48484     48483     48484     48485     48486     48485     48487
     48486     48487     48488     48489     48488     48490     48489     48490
     48491     48492     48491     48493     48492     48493     48494     48495
     48494     48496     48495     48496     48497     48498     48497     48499
     48498     48499     48500     48501     48500     48502     48501     48502
     48503     48504     48503     48505     48504     48505     48506     48507
     48506     48508     48507     48508     48509     48510     48509     48511
     48510     48511     48512     48513     48512     48514     48513     48514
     48515     48516     48515     48517     48516     48517     48518     48519
     48518     48520     48519     48520     48521     48522     48521     48523
     48522     48523     48524     48525     48524     48526     48525     48526
     48527     48528     48527     48529     48528     48529     48530     48531
     48530     48532     48531     48532     48533     48534     48533     48535
     48534     48535     48536     48537     48536     48538     48537     48538
     48539     48540     48539     48541     48540     48541     48542     48543
     48542     48544     48543     48544     48545     48546     48545     48547
     48546     48547     48548     48549     48548     48550     48549     48550
     48551     48552     48551     48553     48552     48553     48554     48555
     48554     48556     48555     48556     48557     48558     48557     48559
     48558     48559     48560     48561     48560     48562     48561     48562
     48563     48564     48563     48565     48564     48565     48566     48567
     48566     48568     48567     48568     48569     48570     48569     48571
     48570     48571     48572     48573     48572     48574     48573     48574
     48575     48576     48575     48577     48576     48577     48578     48579
     48578     48580     48579     48580     48581     48582     48581     48583
     48582     48583     48584     48585     48584     48586     48585     48586
     48587     48588     48587     48589     48588     48589     48590     48591
     48590     48592     48591     48592     48593     48594     48593     48595
     48594     48595     48596     48597     48596     48598     48597     48598
     48599     48600     48599     48601     48600     48601     48602     48603
     48602     48604     48603     48604     48605     48606     48605     48607
     48606     48607     48608     48609     48608     48610     48609     48610
     48611     48612     48611     48613     48612     48613     48614     48615
     48614     48616     48615     48616     48617     48618     48617     48619
     48618     48619     48620     48621     48620     48622     48621     48622
     48623     48624     48623     48625     48624     48625     48626     48627
     48626     48628     48627     48628     48629     48630     48629     48631
     48630     48631     48632     48633     48632     48634     48633     48634
     48635     48636     48635     48637     48636     48637     48638     48639
     48638     48640     48639     48640     48641     48642     48641     48643
     48642     48643     48644     48645     48644     48646     48645     48646
     48647     48648     48647     48649     48648     48649     48650     48651
     48650     48652     48651     48652     48653     48654     48653     48655
     48654     48655     48656     48657     48656     48658     48657     48658
     48659     48660     48659     48661     48660     48661     48662     48663
     48662     48664     48663     48664     48665     48666     48665     48667
     48666     48667     48668     48669     48668     48670     48669     48670
     48671     48672     48671     48673     48672     48673     48674     48675
     48674     48676     48675     48676     48677     48678     48677     48679
     48678     48679     48680     48681     48680     48682     48681     48682
     48683     48684     48683     48685     48684     48685     48686     48687
     48686     48688     48687     48688     48689     48690     48689     48691
     48690     48691     48692     48693     48692     48694     48693     48694
     48695     48696     48695     48697     48696     48697     48698     48699
     48698     48700     48699     48700     48701     48702     48701     48703
     48702     48703     48704     48705     48704     48706     48705     48706
     48707     48708     48707     48709     48708     48709     48710     48711
     48710     48712     48711     48712     48713     48714     48713     48715
     48714     48715     48716     48717     48716     48718     48717     48718
     48719     48720     48719     48721     48720     48721     48722     48723
     48722     48724     48723     48724     48725     48726     48725     48727
     48726     48727     48728     48729     48728     48730     48729     48730
     48731     48732     48731     48733     48732     48733     48734     48735
     48734     48736     48735     48736     48737     48738     48737     48739
     48738     48739     48740     48741     48740     48742     48741     48742
     48743     48744     48743     48745     48744     48745     48746     48747
     48746     48748     48747     48748     48749     48750     48749     48751
     48750     48751     48752     48753     48752     48754     48753     48754
     48755     48756     48755     48757     48756     48757     48758     48759
     48758     48760     48759     48760     48761     48762     48761     48763
     48762     48763     48764     48765     48764     48766     48765     48766
     48767     48768     48767     48769     48768     48769     48770     48771
     48770     48772     48771     48772     48773     48774     48773     48775
     48774     48775     48776     48777     48776     48778     48777     48778
     48779     48780     48779     48781     48780     48781     48782     48783
     48782     48784     48783     48784     48785     48786     48785     48787
     48786     48787     48788     48789     48788     48790     48789     48790
     48791     48792     48791     48793     48792     48793     48794     48795
     48794     48796     48795     48796     48797     48798     48797     48799
     48798     48799     48800     48801     48800     48802     48801     48802
     48803     48804     48803     48805     48804     48805     48806     48807
     48806     48808     48807     48808     48809     48810     48809     48811
     48810     48811     48812     48813     48812     48814     48813     48814
     48815     48816     48815     48817     48816     48817     48818     48819
     48818     48820     48819     48820     48821     48822     48821     48823
     48822     48823     48824     48825     48824     48826     48825     48826
     48827     48828     48827     48829     48828     48829     48830     48831
     48830     48832     48831     48832     48833     48834     48833     48835
     48834     48835     48836     48837     48836     48838     48837     48838
     48839     48840     48839     48841     48840     48841     48842     48843
     48842     48844     48843     48844     48845     48846     48845     48847
     48846     48847     48848     48849     48848     48850     48849     48850
     48851     48852     48851     48853     48852     48853     48854     48855
     48854     48856     48855     48856     48857     48858     48857     48859
     48858     48859     48860     48861     48860     48862     48861     48862
     48863     48864     48863     48865     48864     48865     48866     48867
     48866     48868     48867     48868     48869     48870     48869     48871
     48870     48871     48872     48873     48872     48874     48873     48874
     48875     48876     48875     48877     48876     48877     48878     48879
     48878     48880     48879     48880     48881     48882     48881     48883
     48882     48883     48884     48885     48884     48886     48885     48886
     48887     48888     48887     48889     48888     48889     48890     48891
     48890     48892     48891     48892     48893     48894     48893     48895
     48894     48895     48896     48897     48896     48898     48897     48898
     48899     48900     48899     48901     48900     48901     48902     48903
     48902     48904     48903     48904     48905     48906     48905     48907
     48906     48907     48908     48909     48908     48910     48909     48910
     48911     48912     48911     48913     48912     48913     48914     48915
     48914     48916     48915     48916     48917     48918     48917     48919
     48918     48919     48920     48921     48920     48922     48921     48922
     48923     48924     48923     48925     48924     48925     48926     48927
     48926     48928     48927     48928     48929     48930     48929     48931
     48930     48931     48932     48933     48932     48934     48933     48934
     48935     48936     48935     48937     48936     48937     48938     48939
     48938     48940     48939     48940     48941     48942     48941     48943
     48942     48943     48944     48945     48944     48946     48945     48946
     48947     48948     48947     48949     48948     48949     48950     48951
     48950     48952     48951     48952     48953     48954     48953     48955
     48954     48955     48956     48957     48956     48958     48957     48958
     48959     48960     48959     48961     48960     48961     48962     48963
     48962     48964     48963     48964     48965     48966     48965     48967
     48966     48967     48968     48969     48968     48970     48969     48970
     48971     48972     48971     48973     48972     48973     48974     48975
     48974     48976     48975     48976     48977     48978     48977     48979
     48978     48979     48980     48981     48980     48982     48981     48982
     48983     48984     48983     48985     48984     48985     48986     48987
     48986     48988     48987     48988     48989     48990     48989     48991
     48990     48991     48992     48993     48992     48994     48993     48994
     48995     48996     48995     48997     48996     48997     48998     48999
     48998     49000     48999     49000     49001     49002     49001     49003
     49002     49003     49004     49005     49004     49006     49005     49006
     49007     49008     49007     49009     49008     49009     49010     49011
     49010     49012     49011     49012     49013     49014     49013     49015
     49014     49015     49016     49017     49016     49018     49017     49018
     49019     49020     49019     49021     49020     49021     49022     49023
     49022     49024     49023     49024     49025     49026     49025     49027
     49026     49027     49028     49029     49028     49030     49029     49030
     49031     49032     49031     49033     49032     49033     49034     49035
     49034     49036     49035     49036     49037     49038     49037     49039
     49038     49039     49040     49041     49040     49042     49041     49042
     49043     49044     49043     49045     49044     49045     49046     49047
     49046     49048     49047     49048     49049     49050     49049     49051
     49050     49051     49052     49053     49052     49054     49053     49054
     49055     49056     49055     49057     49056     49057     49058     49059
     49058     49060     49059     49060     49061     49062     49061     49063
     49062     49063     49064     49065     49064     49066     49065     49066
     49067     49068     49067     49069     49068     49069     49070     49071
     49070     49072     49071     49072     49073     49074     49073     49075
     49074     49075     49076     49077     49076     49078     49077     49078
     49079     49080     49079     49081     49080     49081     49082     49083
     49082     49084     49083     49084     49085     49086     49085     49087
     49086     49087     49088     49089     49088     49090     49089     49090
     49091     49092     49091     49093     49092     49093     49094     49095
     49094     49096     49095     49096     49097     49098     49097     49099
     49098     49099     49100     49101     49100     49102     49101     49102
     49103     49104     49103     49105     49104     49105     49106     49107
     49106     49108     49107     49108     49109     49110     49109     49111
     49110     49111     49112     49113     49112     49114     49113     49114
     49115     49116     49115     49117     49116     49117     49118     49119
     49118     49120     49119     49120     49121     49122     49121     49123
     49122     49123     49124     49125     49124     49126     49125     49126
     49127     49128     49127     49129     49128     49129     49130     49131
     49130     49132     49131     49132     49133     49134     49133     49135
     49134     49135     49136     49137     49136     49138     49137     49138
     49139     49140     49139     49141     49140     49141     49142     49143
     49142     49144     49143     49144     49145     49146     49145     49147
     49146     49147     49148     49149     49148     49150     49149     49150
     49151     49152     49151     49153     49152     49153     49154     49155
     49154     49156     49155     49156     49157     49158     49157     49159
     49158     49159     49160     49161     49160     49162     49161     49162
     49163     49164     49163     49165     49164     49165     49166     49167
     49166     49168     49167     49168     49169     49170     49169     49171
     49170     49171     49172     49173     49172     49174     49173     49174
     49175     49176     49175     49177     49176     49177     49178     49179
     49178     49180     49179     49180     49181     49182     49181     49183
     49182     49183     49184     49185     49184     49186     49185     49186
     49187     49188     49187     49189     49188     49189     49190     49191
     49190     49192     49191     49192     49193     49194     49193     49195
     49194     49195     49196     49197     49196     49198     49197     49198
     49199     49200     49199     49201     49200     49201     49202     49203
     49202     49204     49203     49204     49205     49206     49205     49207
     49206     49207     49208     49209     49208     49210     49209     49210
     49211     49212     49211     49213     49212     49213     49214     49215
     49214     49216     49215     49216     49217     49218     49217     49219
     49218     49219     49220     49221     49220     49222     49221     49222
     49223     49224     49223     49225     49224     49225     49226     49227
     49226     49228     49227     49228     49229     49230     49229     49231
     49230     49231     49232     49233     49232     49234     49233     49234
     49235     49236     49235     49237     49236     49237     49238     49239
     49238     49240     49239     49240     49241     49242     49241     49243
     49242     49243     49244     49245     49244     49246     49245     49246
     49247     49248     49247     49249     49248     49249     49250     49251
     49250     49252     49251     49252     49253     49254     49253     49255
     49254     49255     49256     49257     49256     49258     49257     49258
     49259     49260     49259     49261     49260     49261     49262     49263
     49262     49264     49263     49264     49265     49266     49265     49267
     49266     49267     49268     49269     49268     49270     49269     49270
     49271     49272     49271     49273     49272     49273     49274     49275
     49274     49276     49275     49276     49277     49278     49277     49279
     49278     49279     49280     49281     49280     49282     49281     49282
     49283     49284     49283     49285     49284     49285     49286     49287
     49286     49288     49287     49288     49289     49290     49289     49291
     49290     49291     49292     49293     49292     49294     49293     49294
     49295     49296     49295     49297     49296     49297     49298     49299
     49298     49300     49299     49300     49301     49302     49301     49303
     49302     49303     49304     49305     49304     49306     49305     49306
     49307     49308     49307     49309     49308     49309     49310     49311
     49310     49312     49311     49312     49313     49314     49313     49315
     49314     49315     49316     49317     49316     49318     49317     49318
     49319     49320     49319     49321     49320     49321     49322     49323
     49322     49324     49323     49324     49325     49326     49325     49327
     49326     49327     49328     49329     49328     49330     49329     49330
     49331     49332     49331     49333     49332     49333     49334     49335
     49334     49336     49335     49336     49337     49338     49337     49339
     49338     49339     49340     49341     49340     49342     49341     49342
     49343     49344     49343     49345     49344     49345     49346     49347
     49346     49348     49347     49348     49349     49350     49349     49351
     49350     49351     49352     49353     49352     49354     49353     49354
     49355     49356     49355     49357     49356     49357     49358     49359
     49358     49360     49359     49360     49361     49362     49361     49363
     49362     49363     49364     49365     49364     49366     49365     49366
     49367     49368     49367     49369     49368     49369     49370     49371
     49370     49372     49371     49372     49373     49374     49373     49375
     49374     49375     49376     49377     49376     49378     49377     49378
     49379     49380     49379     49381     49380     49381     49382     49383
     49382     49384     49383     49384     49385     49386     49385     49387
     49386     49387     49388     49389     49388     49390     49389     49390
     49391     49392     49391     49393     49392     49393     49394     49395
     49394     49396     49395     49396     49397     49398     49397     49399
     49398     49399     49400     49401     49400     49402     49401     49402
     49403     49404     49403     49405     49404     49405     49406     49407
     49406     49408     49407     49408     49409     49410     49409     49411
     49410     49411     49412     49413     49412     49414     49413     49414
     49415     49416     49415     49417     49416     49417     49418     49419
     49418     49420     49419     49420     49421     49422     49421     49423
     49422     49423     49424     49425     49424     49426     49425     49426
     49427     49428     49427     49429     49428     49429     49430     49431
     49430     49432     49431     49432     49433     49434     49433     49435
     49434     49435     49436     49437     49436     49438     49437     49438
     49439     49440     49439     49441     49440     49441     49442     49443
     49442     49444     49443     49444     49445     49446     49445     49447
     49446     49447     49448     49449     49448     49450     49449     49450
     49451     49452     49451     49453     49452     49453     49454     49455
     49454     49456     49455     49456     49457     49458     49457     49459
     49458     49459     49460     49461     49460     49462     49461     49462
     49463     49464     49463     49465     49464     49465     49466     49467
     49466     49468     49467     49468     49469     49470     49469     49471
     49470     49471     49472     49473     49472     49474     49473     49474
     49475     49476     49475     49477     49476     49477     49478     49479
     49478     49480     49479     49480     49481     49482     49481     49483
     49482     49483     49484     49485     49484     49486     49485     49486
     49487     49488     49487     49489     49488     49489     49490     49491
     49490     49492     49491     49492     49493     49494     49493     49495
     49494     49495     49496     49497     49496     49498     49497     49498
     49499     49500     49499     49501     49500     49501     49502     49503
     49502     49504     49503     49504     49505     49506     49505     49507
     49506     49507     49508     49509     49508     49510     49509     49510
     49511     49512     49511     49513     49512     49513     49514     49515
     49514     49516     49515     49516     49517     49518     49517     49519
     49518     49519     49520     49521     49520     49522     49521     49522
     49523     49524     49523     49525     49524     49525     49526     49527
     49526     49528     49527     49528     49529     49530     49529     49531
     49530     49531     49532     49533     49532     49534     49533     49534
     49535     49536     49535     49537     49536     49537     49538     49539
     49538     49540     49539     49540     49541     49542     49541     49543
     49542     49543     49544     49545     49544     49546     49545     49546
     49547     49548     49547     49549     49548     49549     49550     49551
     49550     49552     49551     49552     49553     49554     49553     49555
     49554     49555     49556     49557     49556     49558     49557     49558
     49559     49560     49559     49561     49560     49561     49562     49563
     49562     49564     49563     49564     49565     49566     49565     49567
     49566     49567     49568     49569     49568     49570     49569     49570
     49571     49572     49571     49573     49572     49573     49574     49575
     49574     49576     49575     49576     49577     49578     49577     49579
     49578     49579     49580     49581     49580     49582     49581     49582
     49583     49584     49583     49585     49584     49585     49586     49587
     49586     49588     49587     49588     49589     49590     49589     49591
     49590     49591     49592     49593     49592     49594     49593     49594
     49595     49596     49595     49597     49596     49597     49598     49599
     49598     49600     49599     49600     49601     49602     49601     49603
     49602     49603     49604     49605     49604     49606     49605     49606
     49607     49608     49607     49609     49608     49609     49610     49611
     49610     49612     49611     49612     49613     49614     49613     49615
     49614     49615     49616     49617     49616     49618     49617     49618
     49619     49620     49619     49621     49620     49621     49622     49623
     49622     49624     49623     49624     49625     49626     49625     49627
     49626     49627     49628     49629     49628     49630     49629     49630
     49631     49632     49631     49633     49632     49633     49634     49635
     49634     49636     49635     49636     49637     49638     49637     49639
     49638     49639     49640     49641     49640     49642     49641     49642
     49643     49644     49643     49645     49644     49645     49646     49647
     49646     49648     49647     49648     49649     49650     49649     49651
     49650     49651     49652     49653     49652     49654     49653     49654
     49655     49656     49655     49657     49656     49657     49658     49659
     49658     49660     49659     49660     49661     49662     49661     49663
     49662     49663     49664     49665     49664     49666     49665     49666
     49667     49668     49667     49669     49668     49669     49670     49671
     49670     49672     49671     49672     49673     49674     49673     49675
     49674     49675     49676     49677     49676     49678     49677     49678
     49679     49680     49679     49681     49680     49681     49682     49683
     49682     49684     49683     49684     49685     49686     49685     49687
     49686     49687     49688     49689     49688     49690     49689     49690
     49691     49692     49691     49693     49692     49693     49694     49695
     49694     49696     49695     49696     49697     49698     49697     49699
     49698     49699     49700     49701     49700     49702     49701     49702
     49703     49704     49703     49705     49704     49705     49706     49707
     49706     49708     49707     49708     49709     49710     49709     49711
     49710     49711     49712     49713     49712     49714     49713     49714
     49715     49716     49715     49717     49716     49717     49718     49719
     49718     49720     49719     49720     49721     49722     49721     49723
     49722     49723     49724     49725     49724     49726     49725     49726
     49727     49728     49727     49729     49728     49729     49730     49731
     49730     49732     49731     49732     49733     49734     49733     49735
     49734     49735     49736     49737     49736     49738     49737     49738
     49739     49740     49739     49741     49740     49741     49742     49743
     49742     49744     49743     49744     49745     49746     49745     49747
     49746     49747     49748     49749     49748     49750     49749     49750
     49751     49752     49751     49753     49752     49753     49754     49755
     49754     49756     49755     49756     49757     49758     49757     49759
     49758     49759     49760     49761     49760     49762     49761     49762
     49763     49764     49763     49765     49764     49765     49766     49767
     49766     49768     49767     49768     49769     49770     49769     49771
     49770     49771     49772     49773     49772     49774     49773     49774
     49775     49776     49775     49777     49776     49777     49778     49779
     49778     49780     49779     49780     49781     49782     49781     49783
     49782     49783     49784     49785     49784     49786     49785     49786
     49787     49788     49787     49789     49788     49789     49790     49791
     49790     49792     49791     49792     49793     49794     49793     49795
     49794     49795     49796     49797     49796     49798     49797     49798
     49799     49800     49799     49801     49800     49801     49802     49803
     49802     49804     49803     49804     49805     49806     49805     49807
     49806     49807     49808     49809     49808     49810     49809     49810
     49811     49812     49811     49813     49812     49813     49814     49815
     49814     49816     49815     49816     49817     49818     49817     49819
     49818     49819     49820     49821     49820     49822     49821     49822
     49823     49824     49823     49825     49824     49825     49826     49827
     49826     49828     49827     49828     49829     49830     49829     49831
     49830     49831     49832     49833     49832     49834     49833     49834
     49835     49836     49835     49837     49836     49837     49838     49839
     49838     49840     49839     49840     49841     49842     49841     49843
     49842     49843     49844     49845     49844     49846     49845     49846
     49847     49848     49847     49849     49848     49849     49850     49851
     49850     49852     49851     49852     49853     49854     49853     49855
     49854     49855     49856     49857     49856     49858     49857     49858
     49859     49860     49859     49861     49860     49861     49862     49863
     49862     49864     49863     49864     49865     49866     49865     49867
     49866     49867     49868     49869     49868     49870     49869     49870
     49871     49872     49871     49873     49872     49873     49874     49875
     49874     49876     49875     49876     49877     49878     49877     49879
     49878     49879     49880     49881     49880     49882     49881     49882
     49883     49884     49883     49885     49884     49885     49886     49887
     49886     49888     49887     49888     49889     49890     49889     49891
     49890     49891     49892     49893     49892     49894     49893     49894
     49895     49896     49895     49897     49896     49897     49898     49899
     49898     49900     49899     49900     49901     49902     49901     49903
     49902     49903     49904     49905     49904     49906     49905     49906
     49907     49908     49907     49909     49908     49909     49910     49911
     49910     49912     49911     49912     49913     49914     49913     49915
     49914     49915     49916     49917     49916     49918     49917     49918
     49919     49920     49919     49921     49920     49921     49922     49923
     49922     49924     49923     49924     49925     49926     49925     49927
     49926     49927     49928     49929     49928     49930     49929     49930
     49931     49932     49931     49933     49932     49933     49934     49935
     49934     49936     49935     49936     49937     49938     49937     49939
     49938     49939     49940     49941     49940     49942     49941     49942
     49943     49944     49943     49945     49944     49945     49946     49947
     49946     49948     49947     49948     49949     49950     49949     49951
     49950     49951     49952     49953     49952     49954     49953     49954
     49955     49956     49955     49957     49956     49957     49958     49959
     49958     49960     49959     49960     49961     49962     49961     49963
     49962     49963     49964     49965     49964     49966     49965     49966
     49967     49968     49967     49969     49968     49969     49970     49971
     49970     49972     49971     49972     49973     49974     49973     49975
     49974     49975     49976     49977     49976     49978     49977     49978
     49979     49980     49979     49981     49980     49981     49982     49983
     49982     49984     49983     49984     49985     49986     49985     49987
     49986     49987     49988     49989     49988     49990     49989     49990
     49991     49992     49991     49993     49992     49993     49994     49995
     49994     49996     49995     49996     49997     49998     49997     49999
     49998     49999     50000     50001     50000     50002     50001     50002
     50003     50004     50003     50005     50004     50005     50006     50007
     50006     50008     50007     50008     50009     50010     50009     50011
     50010     50011     50012     50013     50012     50014     50013     50014
     50015     50016     50015     50017     50016     50017     50018     50019
     50018     50020     50019     50020     50021     50022     50021     50023
     50022     50023     50024     50025     50024     50026     50025     50026
     50027     50028     50027     50029     50028     50029     50030     50031
     50030     50032     50031     50032     50033     50034     50033     50035
     50034     50035     50036     50037     50036     50038     50037     50038
     50039     50040     50039     50041     50040     50041     50042     50043
     50042     50044     50043     50044     50045     50046     50045     50047
     50046     50047     50048     50049     50048     50050     50049     50050
     50051     50052     50051     50053     50052     50053     50054     50055
     50054     50056     50055     50056     50057     50058     50057     50059
     50058     50059     50060     50061     50060     50062     50061     50062
     50063     50064     50063     50065     50064     50065     50066     50067
     50066     50068     50067     50068     50069     50070     50069     50071
     50070     50071     50072     50073     50072     50074     50073     50074
     50075     50076     50075     50077     50076     50077     50078     50079
     50078     50080     50079     50080     50081     50082     50081     50083
     50082     50083     50084     50085     50084     50086     50085     50086
     50087     50088     50087     50089     50088     50089     50090     50091
     50090     50092     50091     50092     50093     50094     50093     50095
     50094     50095     50096     50097     50096     50098     50097     50098
     50099     50100     50099     50101     50100     50101     50102     50103
     50102     50104     50103     50104     50105     50106     50105     50107
     50106     50107     50108     50109     50108     50110     50109     50110
     50111     50112     50111     50113     50112     50113     50114     50115
     50114     50116     50115     50116     50117     50118     50117     50119
     50118     50119     50120     50121     50120     50122     50121     50122
     50123     50124     50123     50125     50124     50125     50126     50127
     50126     50128     50127     50128     50129     50130     50129     50131
     50130     50131     50132     50133     50132     50134     50133     50134
     50135     50136     50135     50137     50136     50137     50138     50139
     50138     50140     50139     50140     50141     50142     50141     50143
     50142     50143     50144     50145     50144     50146     50145     50146
     50147     50148     50147     50149     50148     50149     50150     50151
     50150     50152     50151     50152     50153     50154     50153     50155
     50154     50155     50156     50157     50156     50158     50157     50158
     50159     50160     50159     50161     50160     50161     50162     50163
     50162     50164     50163     50164     50165     50166     50165     50167
     50166     50167     50168     50169     50168     50170     50169     50170
     50171     50172     50171     50173     50172     50173     50174     50175
     50174     50176     50175     50176     50177     50178     50177     50179
     50178     50179     50180     50181     50180     50182     50181     50182
     50183     50184     50183     50185     50184     50185     50186     50187
     50186     50188     50187     50188     50189     50190     50189     50191
     50190     50191     50192     50193     50192     50194     50193     50194
     50195     50196     50195     50197     50196     50197     50198     50199
     50198     50200     50199     50200     50201     50202     50201     50203
     50202     50203     50204     50205     50204     50206     50205     50206
     50207     50208     50207     50209     50208     50209     50210     50211
     50210     50212     50211     50212     50213     50214     50213     50215
     50214     50215     50216     50217     50216     50218     50217     50218
     50219     50220     50219     50221     50220     50221     50222     50223
     50222     50224     50223     50224     50225     50226     50225     50227
     50226     50227     50228     50229     50228     50230     50229     50230
     50231     50232     50231     50233     50232     50233     50234     50235
     50234     50236     50235     50236     50237     50238     50237     50239
     50238     50239     50240     50241     50240     50242     50241     50242
     50243     50244     50243     50245     50244     50245     50246     50247
     50246     50248     50247     50248     50249     50250     50249     50251
     50250     50251     50252     50253     50252     50254     50253     50254
     50255     50256     50255     50257     50256     50257     50258     50259
     50258     50260     50259     50260     50261     50262     50261     50263
     50262     50263     50264     50265     50264     50266     50265     50266
     50267     50268     50267     50269     50268     50269     50270     50271
     50270     50272     50271     50272     50273     50274     50273     50275
     50274     50275     50276     50277     50276     50278     50277     50278
     50279     50280     50279     50281     50280     50281     50282     50283
     50282     50284     50283     50284     50285     50286     50285     50287
     50286     50287     50288     50289     50288     50290     50289     50290
     50291     50292     50291     50293     50292     50293     50294     50295
     50294     50296     50295     50296     50297     50298     50297     50299
     50298     50299     50300     50301     50300     50302     50301     50302
     50303     50304     50303     50305     50304     50305     50306     50307
     50306     50308     50307     50308     50309     50310     50309     50311
     50310     50311     50312     50313     50312     50314     50313     50314
     50315     50316     50315     50317     50316     50317     50318     50319
     50318     50320     50319     50320     50321     50322     50321     50323
     50322     50323     50324     50325     50324     50326     50325     50326
     50327     50328     50327     50329     50328     50329     50330     50331
     50330     50332     50331     50332     50333     50334     50333     50335
     50334     50335     50336     50337     50336     50338     50337     50338
     50339     50340     50339     50341     50340     50341     50342     50343
     50342     50344     50343     50344     50345     50346     50345     50347
     50346     50347     50348     50349     50348     50350     50349     50350
     50351     50352     50351     50353     50352     50353     50354     50355
     50354     50356     50355     50356     50357     50358     50357     50359
     50358     50359     50360     50361     50360     50362     50361     50362
     50363     50364     50363     50365     50364     50365     50366     50367
     50366     50368     50367     50368     50369     50370     50369     50371
     50370     50371     50372     50373     50372     50374     50373     50374
     50375     50376     50375     50377     50376     50377     50378     50379
     50378     50380     50379     50380     50381     50382     50381     50383
     50382     50383     50384     50385     50384     50386     50385     50386
     50387     50388     50387     50389     50388     50389     50390     50391
     50390     50392     50391     50392     50393     50394     50393     50395
     50394     50395     50396     50397     50396     50398     50397     50398
     50399     50400     50399     50401     50400     50401     50402     50403
     50402     50404     50403     50404     50405     50406     50405     50407
     50406     50407     50408     50409     50408     50410     50409     50410
     50411     50412     50411     50413     50412     50413     50414     50415
     50414     50416     50415     50416     50417     50418     50417     50419
     50418     50419     50420     50421     50420     50422     50421     50422
     50423     50424     50423     50425     50424     50425     50426     50427
     50426     50428     50427     50428     50429     50430     50429     50431
     50430     50431     50432     50433     50432     50434     50433     50434
     50435     50436     50435     50437     50436     50437     50438     50439
     50438     50440     50439     50440     50441     50442     50441     50443
     50442     50443     50444     50445     50444     50446     50445     50446
     50447     50448     50447     50449     50448     50449     50450     50451
     50450     50452     50451     50452     50453     50454     50453     50455
     50454     50455     50456     50457     50456     50458     50457     50458
     50459     50460     50459     50461     50460     50461     50462     50463
     50462     50464     50463     50464     50465     50466     50465     50467
     50466     50467     50468     50469     50468     50470     50469     50470
     50471     50472     50471     50473     50472     50473     50474     50475
     50474     50476     50475     50476     50477     50478     50477     50479
     50478     50479     50480     50481     50480     50482     50481     50482
     50483     50484     50483     50485     50484     50485     50486     50487
     50486     50488     50487     50488     50489     50490     50489     50491
     50490     50491     50492     50493     50492     50494     50493     50494
     50495     50496     50495     50497     50496     50497     50498     50499
     50498     50500     50499     50500     50501     50502     50501     50503
     50502     50503     50504     50505     50504     50506     50505     50506
     50507     50508     50507     50509     50508     50509     50510     50511
     50510     50512     50511     50512     50513     50514     50513     50515
     50514     50515     50516     50517     50516     50518     50517     50518
     50519     50520     50519     50521     50520     50521     50522     50523
     50522     50524     50523     50524     50525     50526     50525     50527
     50526     50527     50528     50529     50528     50530     50529     50530
     50531     50532     50531     50533     50532     50533     50534     50535
     50534     50536     50535     50536     50537     50538     50537     50539
     50538     50539     50540     50541     50540     50542     50541     50542
     50543     50544     50543     50545     50544     50545     50546     50547
     50546     50548     50547     50548     50549     50550     50549     50551
     50550     50551     50552     50553     50552     50554     50553     50554
     50555     50556     50555     50557     50556     50557     50558     50559
     50558     50560     50559     50560     50561     50562     50561     50563
     50562     50563     50564     50565     50564     50566     50565     50566
     50567     50568     50567     50569     50568     50569     50570     50571
     50570     50572     50571     50572     50573     50574     50573     50575
     50574     50575     50576     50577     50576     50578     50577     50578
     50579     50580     50579     50581     50580     50581     50582     50583
     50582     50584     50583     50584     50585     50586     50585     50587
     50586     50587     50588     50589     50588     50590     50589     50590
     50591     50592     50591     50593     50592     50593     50594     50595
     50594     50596     50595     50596     50597     50598     50597     50599
     50598     50599     50600     50601     50600     50602     50601     50602
     50603     50604     50603     50605     50604     50605     50606     50607
     50606     50608     50607     50608     50609     50610     50609     50611
     50610     50611     50612     50613     50612     50614     50613     50614
     50615     50616     50615     50617     50616     50617     50618     50619
     50618     50620     50619     50620     50621     50622     50621     50623
     50622     50623     50624     50625     50624     50626     50625     50626
     50627     50628     50627     50629     50628     50629     50630     50631
     50630     50632     50631     50632     50633     50634     50633     50635
     50634     50635     50636     50637     50636     50638     50637     50638
     50639     50640     50639     50641     50640     50641     50642     50643
     50642     50644     50643     50644     50645     50646     50645     50647
     50646     50647     50648     50649     50648     50650     50649     50650
     50651     50652     50651     50653     50652     50653     50654     50655
     50654     50656     50655     50656     50657     50658     50657     50659
     50658     50659     50660     50661     50660     50662     50661     50662
     50663     50664     50663     50665     50664     50665     50666     50667
     50666     50668     50667     50668     50669     50670     50669     50671
     50670     50671     50672     50673     50672     50674     50673     50674
     50675     50676     50675     50677     50676     50677     50678     50679
     50678     50680     50679     50680     50681     50682     50681     50683
     50682     50683     50684     50685     50684     50686     50685     50686
     50687     50688     50687     50689     50688     50689     50690     50691
     50690     50692     50691     50692     50693     50694     50693     50695
     50694     50695     50696     50697     50696     50698     50697     50698
     50699     50700     50699     50701     50700     50701     50702     50703
     50702     50704     50703     50704     50705     50706     50705     50707
     50706     50707     50708     50709     50708     50710     50709     50710
     50711     50712     50711     50713     50712     50713     50714     50715
     50714     50716     50715     50716     50717     50718     50717     50719
     50718     50719     50720     50721     50720     50722     50721     50722
     50723     50724     50723     50725     50724     50725     50726     50727
     50726     50728     50727     50728     50729     50730     50729     50731
     50730     50731     50732     50733     50732     50734     50733     50734
     50735     50736     50735     50737     50736     50737     50738     50739
     50738     50740     50739     50740     50741     50742     50741     50743
     50742     50743     50744     50745     50744     50746     50745     50746
     50747     50748     50747     50749     50748     50749     50750     50751
     50750     50752     50751     50752     50753     50754     50753     50755
     50754     50755     50756     50757     50756     50758     50757     50758
     50759     50760     50759     50761     50760     50761     50762     50763
     50762     50764     50763     50764     50765     50766     50765     50767
     50766     50767     50768     50769     50768     50770     50769     50770
     50771     50772     50771     50773     50772     50773     50774     50775
     50774     50776     50775     50776     50777     50778     50777     50779
     50778     50779     50780     50781     50780     50782     50781     50782
     50783     50784     50783     50785     50784     50785     50786     50787
     50786     50788     50787     50788     50789     50790     50789     50791
     50790     50791     50792     50793     50792     50794     50793     50794
     50795     50796     50795     50797     50796     50797     50798     50799
     50798     50800     50799     50800     50801     50802     50801     50803
     50802     50803     50804     50805     50804     50806     50805     50806
     50807     50808     50807     50809     50808     50809     50810     50811
     50810     50812     50811     50812     50813     50814     50813     50815
     50814     50815     50816     50817     50816     50818     50817     50818
     50819     50820     50819     50821     50820     50821     50822     50823
     50822     50824     50823     50824     50825     50826     50825     50827
     50826     50827     50828     50829     50828     50830     50829     50830
     50831     50832     50831     50833     50832     50833     50834     50835
     50834     50836     50835     50836     50837     50838     50837     50839
     50838     50839     50840     50841     50840     50842     50841     50842
     50843     50844     50843     50845     50844     50845     50846     50847
     50846     50848     50847     50848     50849     50850     50849     50851
     50850     50851     50852     50853     50852     50854     50853     50854
     50855     50856     50855     50857     50856     50857     50858     50859
     50858     50860     50859     50860     50861     50862     50861     50863
     50862     50863     50864     50865     50864     50866     50865     50866
     50867     50868     50867     50869     50868     50869     50870     50871
     50870     50872     50871     50872     50873     50874     50873     50875
     50874     50875     50876     50877     50876     50878     50877     50878
     50879     50880     50879     50881     50880     50881     50882     50883
     50882     50884     50883     50884     50885     50886     50885     50887
     50886     50887     50888     50889     50888     50890     50889     50890
     50891     50892     50891     50893     50892     50893     50894     50895
     50894     50896     50895     50896     50897     50898     50897     50899
     50898     50899     50900     50901     50900     50902     50901     50902
     50903     50904     50903     50905     50904     50905     50906     50907
     50906     50908     50907     50908     50909     50910     50909     50911
     50910     50911     50912     50913     50912     50914     50913     50914
     50915     50916     50915     50917     50916     50917     50918     50919
     50918     50920     50919     50920     50921     50922     50921     50923
     50922     50923     50924     50925     50924     50926     50925     50926
     50927     50928     50927     50929     50928     50929     50930     50931
     50930     50932     50931     50932     50933     50934     50933     50935
     50934     50935     50936     50937     50936     50938     50937     50938
     50939     50940     50939     50941     50940     50941     50942     50943
     50942     50944     50943     50944     50945     50946     50945     50947
     50946     50947     50948     50949     50948     50950     50949     50950
     50951     50952     50951     50953     50952     50953     50954     50955
     50954     50956     50955     50956     50957     50958     50957     50959
     50958     50959     50960     50961     50960     50962     50961     50962
     50963     50964     50963     50965     50964     50965     50966     50967
     50966     50968     50967     50968     50969     50970     50969     50971
     50970     50971     50972     50973     50972     50974     50973     50974
     50975     50976     50975     50977     50976     50977     50978     50979
     50978     50980     50979     50980     50981     50982     50981     50983
     50982     50983     50984     50985     50984     50986     50985     50986
     50987     50988     50987     50989     50988     50989     50990     50991
     50990     50992     50991     50992     50993     50994     50993     50995
     50994     50995     50996     50997     50996     50998     50997     50998
     50999     51000     50999     51001     51000     51001     51002     51003
     51002     51004     51003     51004     51005     51006     51005     51007
     51006     51007     51008     51009     51008     51010     51009     51010
     51011     51012     51011     51013     51012     51013     51014     51015
     51014     51016     51015     51016     51017     51018     51017     51019
     51018     51019     51020     51021     51020     51022     51021     51022
     51023     51024     51023     51025     51024     51025     51026     51027
     51026     51028     51027     51028     51029     51030     51029     51031
     51030     51031     51032     51033     51032     51034     51033     51034
     51035     51036     51035     51037     51036     51037     51038     51039
     51038     51040     51039     51040     51041     51042     51041     51043
     51042     51043     51044     51045     51044     51046     51045     51046
     51047     51048     51047     51049     51048     51049     51050     51051
     51050     51052     51051     51052     51053     51054     51053     51055
     51054     51055     51056     51057     51056     51058     51057     51058
     51059     51060     51059     51061     51060     51061     51062     51063
     51062     51064     51063     51064     51065     51066     51065     51067
     51066     51067     51068     51069     51068     51070     51069     51070
     51071     51072     51071     51073     51072     51073     51074     51075
     51074     51076     51075     51076     51077     51078     51077     51079
     51078     51079     51080     51081     51080     51082     51081     51082
     51083     51084     51083     51085     51084     51085     51086     51087
     51086     51088     51087     51088     51089     51090     51089     51091
     51090     51091     51092     51093     51092     51094     51093     51094
     51095     51096     51095     51097     51096     51097     51098     51099
     51098     51100     51099     51100     51101     51102     51101     51103
     51102     51103     51104     51105     51104     51106     51105     51106
     51107     51108     51107     51109     51108     51109     51110     51111
     51110     51112     51111     51112     51113     51114     51113     51115
     51114     51115     51116     51117     51116     51118     51117     51118
     51119     51120     51119     51121     51120     51121     51122     51123
     51122     51124     51123     51124     51125     51126     51125     51127
     51126     51127     51128     51129     51128     51130     51129     51130
     51131     51132     51131     51133     51132     51133     51134     51135
     51134     51136     51135     51136     51137     51138     51137     51139
     51138     51139     51140     51141     51140     51142     51141     51142
     51143     51144     51143     51145     51144     51145     51146     51147
     51146     51148     51147     51148     51149     51150     51149     51151
     51150     51151     51152     51153     51152     51154     51153     51154
     51155     51156     51155     51157     51156     51157     51158     51159
     51158     51160     51159     51160     51161     51162     51161     51163
     51162     51163     51164     51165     51164     51166     51165     51166
     51167     51168     51167     51169     51168     51169     51170     51171
     51170     51172     51171     51172     51173     51174     51173     51175
     51174     51175     51176     51177     51176     51178     51177     51178
     51179     51180     51179     51181     51180     51181     51182     51183
     51182     51184     51183     51184     51185     51186     51185     51187
     51186     51187     51188     51189     51188     51190     51189     51190
     51191     51192     51191     51193     51192     51193     51194     51195
     51194     51196     51195     51196     51197     51198     51197     51199
     51198     51199     51200     51201     51200     51202     51201     51202
     51203     51204     51203     51205     51204     51205     51206     51207
     51206     51208     51207     51208     51209     51210     51209     51211
     51210     51211     51212     51213     51212     51214     51213     51214
     51215     51216     51215     51217     51216     51217     51218     51219
     51218     51220     51219     51220     51221     51222     51221     51223
     51222     51223     51224     51225     51224     51226     51225     51226
     51227     51228     51227     51229     51228     51229     51230     51231
     51230     51232     51231     51232     51233     51234     51233     51235
     51234     51235     51236     51237     51236     51238     51237     51238
     51239     51240     51239     51241     51240     51241     51242     51243
     51242     51244     51243     51244     51245     51246     51245     51247
     51246     51247     51248     51249     51248     51250     51249     51250
     51251     51252     51251     51253     51252     51253     51254     51255
     51254     51256     51255     51256     51257     51258     51257     51259
     51258     51259     51260     51261     51260     51262     51261     51262
     51263     51264     51263     51265     51264     51265     51266     51267
     51266     51268     51267     51268     51269     51270     51269     51271
     51270     51271     51272     51273     51272     51274     51273     51274
     51275     51276     51275     51277     51276     51277     51278     51279
     51278     51280     51279     51280     51281     51282     51281     51283
     51282     51283     51284     51285     51284     51286     51285     51286
     51287     51288     51287     51289     51288     51289     51290     51291
     51290     51292     51291     51292     51293     51294     51293     51295
     51294     51295     51296     51297     51296     51298     51297     51298
     51299     51300     51299     51301     51300     51301     51302     51303
     51302     51304     51303     51304     51305     51306     51305     51307
     51306     51307     51308     51309     51308     51310     51309     51310
     51311     51312     51311     51313     51312     51313     51314     51315
     51314     51316     51315     51316     51317     51318     51317     51319
     51318     51319     51320     51321     51320     51322     51321     51322
     51323     51324     51323     51325     51324     51325     51326     51327
     51326     51328     51327     51328     51329     51330     51329     51331
     51330     51331     51332     51333     51332     51334     51333     51334
     51335     51336     51335     51337     51336     51337     51338     51339
     51338     51340     51339     51340     51341     51342     51341     51343
     51342     51343     51344     51345     51344     51346     51345     51346
     51347     51348     51347     51349     51348     51349     51350     51351
     51350     51352     51351     51352     51353     51354     51353     51355
     51354     51355     51356     51357     51356     51358     51357     51358
     51359     51360     51359     51361     51360     51361     51362     51363
     51362     51364     51363     51364     51365     51366     51365     51367
     51366     51367     51368     51369     51368     51370     51369     51370
     51371     51372     51371     51373     51372     51373     51374     51375
     51374     51376     51375     51376     51377     51378     51377     51379
     51378     51379     51380     51381     51380     51382     51381     51382
     51383     51384     51383     51385     51384     51385     51386     51387
     51386     51388     51387     51388     51389     51390     51389     51391
     51390     51391     51392     51393     51392     51394     51393     51394
     51395     51396     51395     51397     51396     51397     51398     51399
     51398     51400     51399     51400     51401     51402     51401     51403
     51402     51403     51404     51405     51404     51406     51405     51406
     51407     51408     51407     51409     51408     51409     51410     51411
     51410     51412     51411     51412     51413     51414     51413     51415
     51414     51415     51416     51417     51416     51418     51417     51418
     51419     51420     51419     51421     51420     51421     51422     51423
     51422     51424     51423     51424     51425     51426     51425     51427
     51426     51427     51428     51429     51428     51430     51429     51430
     51431     51432     51431     51433     51432     51433     51434     51435
     51434     51436     51435     51436     51437     51438     51437     51439
     51438     51439     51440     51441     51440     51442     51441     51442
     51443     51444     51443     51445     51444     51445     51446     51447
     51446     51448     51447     51448     51449     51450     51449     51451
     51450     51451     51452     51453     51452     51454     51453     51454
     51455     51456     51455     51457     51456     51457     51458     51459
     51458     51460     51459     51460     51461     51462     51461     51463
     51462     51463     51464     51465     51464     51466     51465     51466
     51467     51468     51467     51469     51468     51469     51470     51471
     51470     51472     51471     51472     51473     51474     51473     51475
     51474     51475     51476     51477     51476     51478     51477     51478
     51479     51480     51479     51481     51480     51481     51482     51483
     51482     51484     51483     51484     51485     51486     51485     51487
     51486     51487     51488     51489     51488     51490     51489     51490
     51491     51492     51491     51493     51492     51493     51494     51495
     51494     51496     51495     51496     51497     51498     51497     51499
     51498     51499     51500     51501     51500     51502     51501     51502
     51503     51504     51503     51505     51504     51505     51506     51507
     51506     51508     51507     51508     51509     51510     51509     51511
     51510     51511     51512     51513     51512     51514     51513     51514
     51515     51516     51515     51517     51516     51517     51518     51519
     51518     51520     51519     51520     51521     51522     51521     51523
     51522     51523     51524     51525     51524     51526     51525     51526
     51527     51528     51527     51529     51528     51529     51530     51531
     51530     51532     51531     51532     51533     51534     51533     51535
     51534     51535     51536     51537     51536     51538     51537     51538
     51539     51540     51539     51541     51540     51541     51542     51543
     51542     51544     51543     51544     51545     51546     51545     51547
     51546     51547     51548     51549     51548     51550     51549     51550
     51551     51552     51551     51553     51552     51553     51554     51555
     51554     51556     51555     51556     51557     51558     51557     51559
     51558     51559     51560     51561     51560     51562     51561     51562
     51563     51564     51563     51565     51564     51565     51566     51567
     51566     51568     51567     51568     51569     51570     51569     51571
     51570     51571     51572     51573     51572     51574     51573     51574
     51575     51576     51575     51577     51576     51577     51578     51579
     51578     51580     51579     51580     51581     51582     51581     51583
     51582     51583     51584     51585     51584     51586     51585     51586
     51587     51588     51587     51589     51588     51589     51590     51591
     51590     51592     51591     51592     51593     51594     51593     51595
     51594     51595     51596     51597     51596     51598     51597     51598
     51599     51600     51599     51601     51600     51601     51602     51603
     51602     51604     51603     51604     51605     51606     51605     51607
     51606     51607     51608     51609     51608     51610     51609     51610
     51611     51612     51611     51613     51612     51613     51614     51615
     51614     51616     51615     51616     51617     51618     51617     51619
     51618     51619     51620     51621     51620     51622     51621     51622
     51623     51624     51623     51625     51624     51625     51626     51627
     51626     51628     51627     51628     51629     51630     51629     51631
     51630     51631     51632     51633     51632     51634     51633     51634
     51635     51636     51635     51637     51636     51637     51638     51639
     51638     51640     51639     51640     51641     51642     51641     51643
     51642     51643     51644     51645     51644     51646     51645     51646
     51647     51648     51647     51649     51648     51649     51650     51651
     51650     51652     51651     51652     51653     51654     51653     51655
     51654     51655     51656     51657     51656     51658     51657     51658
     51659     51660     51659     51661     51660     51661     51662     51663
     51662     51664     51663     51664     51665     51666     51665     51667
     51666     51667     51668     51669     51668     51670     51669     51670
     51671     51672     51671     51673     51672     51673     51674     51675
     51674     51676     51675     51676     51677     51678     51677     51679
     51678     51679     51680     51681     51680     51682     51681     51682
     51683     51684     51683     51685     51684     51685     51686     51687
     51686     51688     51687     51688     51689     51690     51689     51691
     51690     51691     51692     51693     51692     51694     51693     51694
     51695     51696     51695     51697     51696     51697     51698     51699
     51698     51700     51699     51700     51701     51702     51701     51703
     51702     51703     51704     51705     51704     51706     51705     51706
     51707     51708     51707     51709     51708     51709     51710     51711
     51710     51712     51711     51712     51713     51714     51713     51715
     51714     51715     51716     51717     51716     51718     51717     51718
     51719     51720     51719     51721     51720     51721     51722     51723
     51722     51724     51723     51724     51725     51726     51725     51727
     51726     51727     51728     51729     51728     51730     51729     51730
     51731     51732     51731     51733     51732     51733     51734     51735
     51734     51736     51735     51736     51737     51738     51737     51739
     51738     51739     51740     51741     51740     51742     51741     51742
     51743     51744     51743     51745     51744     51745     51746     51747
     51746     51748     51747     51748     51749     51750     51749     51751
     51750     51751     51752     51753     51752     51754     51753     51754
     51755     51756     51755     51757     51756     51757     51758     51759
     51758     51760     51759     51760     51761     51762     51761     51763
     51762     51763     51764     51765     51764     51766     51765     51766
     51767     51768     51767     51769     51768     51769     51770     51771
     51770     51772     51771     51772     51773     51774     51773     51775
     51774     51775     51776     51777     51776     51778     51777     51778
     51779     51780     51779     51781     51780     51781     51782     51783
     51782     51784     51783     51784     51785     51786     51785     51787
     51786     51787     51788     51789     51788     51790     51789     51790
     51791     51792     51791     51793     51792     51793     51794     51795
     51794     51796     51795     51796     51797     51798     51797     51799
     51798     51799     51800     51801     51800     51802     51801     51802
     51803     51804     51803     51805     51804     51805     51806     51807
     51806     51808     51807     51808     51809     51810     51809     51811
     51810     51811     51812     51813     51812     51814     51813     51814
     51815     51816     51815     51817     51816     51817     51818     51819
     51818     51820     51819     51820     51821     51822     51821     51823
     51822     51823     51824     51825     51824     51826     51825     51826
     51827     51828     51827     51829     51828     51829     51830     51831
     51830     51832     51831     51832     51833     51834     51833     51835
     51834     51835     51836     51837     51836     51838     51837     51838
     51839     51840     51839     51841     51840     51841     51842     51843
     51842     51844     51843     51844     51845     51846     51845     51847
     51846     51847     51848     51849     51848     51850     51849     51850
     51851     51852     51851     51853     51852     51853     51854     51855
     51854     51856     51855     51856     51857     51858     51857     51859
     51858     51859     51860     51861     51860     51862     51861     51862
     51863     51864     51863     51865     51864     51865     51866     51867
     51866     51868     51867     51868     51869     51870     51869     51871
     51870     51871     51872     51873     51872     51874     51873     51874
     51875     51876     51875     51877     51876     51877     51878     51879
     51878     51880     51879     51880     51881     51882     51881     51883
     51882     51883     51884     51885     51884     51886     51885     51886
     51887     51888     51887     51889     51888     51889     51890     51891
     51890     51892     51891     51892     51893     51894     51893     51895
     51894     51895     51896     51897     51896     51898     51897     51898
     51899     51900     51899     51901     51900     51901     51902     51903
     51902     51904     51903     51904     51905     51906     51905     51907
     51906     51907     51908     51909     51908     51910     51909     51910
     51911     51912     51911     51913     51912     51913     51914     51915
     51914     51916     51915     51916     51917     51918     51917     51919
     51918     51919     51920     51921     51920     51922     51921     51922
     51923     51924     51923     51925     51924     51925     51926     51927
     51926     51928     51927     51928     51929     51930     51929     51931
     51930     51931     51932     51933     51932     51934     51933     51934
     51935     51936     51935     51937     51936     51937     51938     51939
     51938     51940     51939     51940     51941     51942     51941     51943
     51942     51943     51944     51945     51944     51946     51945     51946
     51947     51948     51947     51949     51948     51949     51950     51951
     51950     51952     51951     51952     51953     51954     51953     51955
     51954     51955     51956     51957     51956     51958     51957     51958
     51959     51960     51959     51961     51960     51961     51962     51963
     51962     51964     51963     51964     51965     51966     51965     51967
     51966     51967     51968     51969     51968     51970     51969     51970
     51971     51972     51971     51973     51972     51973     51974     51975
     51974     51976     51975     51976     51977     51978     51977     51979
     51978     51979     51980     51981     51980     51982     51981     51982
     51983     51984     51983     51985     51984     51985     51986     51987
     51986     51988     51987     51988     51989     51990     51989     51991
     51990     51991     51992     51993     51992     51994     51993     51994
     51995     51996     51995     51997     51996     51997     51998     51999
     51998     52000     51999     52000     52001     52002     52001     52003
     52002     52003     52004     52005     52004     52006     52005     52006
     52007     52008     52007     52009     52008     52009     52010     52011
     52010     52012     52011     52012     52013     52014     52013     52015
     52014     52015     52016     52017     52016     52018     52017     52018
     52019     52020     52019     52021     52020     52021     52022     52023
     52022     52024     52023     52024     52025     52026     52025     52027
     52026     52027     52028     52029     52028     52030     52029     52030
     52031     52032     52031     52033     52032     52033     52034     52035
     52034     52036     52035     52036     52037     52038     52037     52039
     52038     52039     52040     52041     52040     52042     52041     52042
     52043     52044     52043     52045     52044     52045     52046     52047
     52046     52048     52047     52048     52049     52050     52049     52051
     52050     52051     52052     52053     52052     52054     52053     52054
     52055     52056     52055     52057     52056     52057     52058     52059
     52058     52060     52059     52060     52061     52062     52061     52063
     52062     52063     52064     52065     52064     52066     52065     52066
     52067     52068     52067     52069     52068     52069     52070     52071
     52070     52072     52071     52072     52073     52074     52073     52075
     52074     52075     52076     52077     52076     52078     52077     52078
     52079     52080     52079     52081     52080     52081     52082     52083
     52082     52084     52083     52084     52085     52086     52085     52087
     52086     52087     52088     52089     52088     52090     52089     52090
     52091     52092     52091     52093     52092     52093     52094     52095
     52094     52096     52095     52096     52097     52098     52097     52099
     52098     52099     52100     52101     52100     52102     52101     52102
     52103     52104     52103     52105     52104     52105     52106     52107
     52106     52108     52107     52108     52109     52110     52109     52111
     52110     52111     52112     52113     52112     52114     52113     52114
     52115     52116     52115     52117     52116     52117     52118     52119
     52118     52120     52119     52120     52121     52122     52121     52123
     52122     52123     52124     52125     52124     52126     52125     52126
     52127     52128     52127     52129     52128     52129     52130     52131
     52130     52132     52131     52132     52133     52134     52133     52135
     52134     52135     52136     52137     52136     52138     52137     52138
     52139     52140     52139     52141     52140     52141     52142     52143
     52142     52144     52143     52144     52145     52146     52145     52147
     52146     52147     52148     52149     52148     52150     52149     52150
     52151     52152     52151     52153     52152     52153     52154     52155
     52154     52156     52155     52156     52157     52158     52157     52159
     52158     52159     52160     52161     52160     52162     52161     52162
     52163     52164     52163     52165     52164     52165     52166     52167
     52166     52168     52167     52168     52169     52170     52169     52171
     52170     52171     52172     52173     52172     52174     52173     52174
     52175     52176     52175     52177     52176     52177     52178     52179
     52178     52180     52179     52180     52181     52182     52181     52183
     52182     52183     52184     52185     52184     52186     52185     52186
     52187     52188     52187     52189     52188     52189     52190     52191
     52190     52192     52191     52192     52193     52194     52193     52195
     52194     52195     52196     52197     52196     52198     52197     52198
     52199     52200     52199     52201     52200     52201     52202     52203
     52202     52204     52203     52204     52205     52206     52205     52207
     52206     52207     52208     52209     52208     52210     52209     52210
     52211     52212     52211     52213     52212     52213     52214     52215
     52214     52216     52215     52216     52217     52218     52217     52219
     52218     52219     52220     52221     52220     52222     52221     52222
     52223     52224     52223     52225     52224     52225     52226     52227
     52226     52228     52227     52228     52229     52230     52229     52231
     52230     52231     52232     52233     52232     52234     52233     52234
     52235     52236     52235     52237     52236     52237     52238     52239
     52238     52240     52239     52240     52241     52242     52241     52243
     52242     52243     52244     52245     52244     52246     52245     52246
     52247     52248     52247     52249     52248     52249     52250     52251
     52250     52252     52251     52252     52253     52254     52253     52255
     52254     52255     52256     52257     52256     52258     52257     52258
     52259     52260     52259     52261     52260     52261     52262     52263
     52262     52264     52263     52264     52265     52266     52265     52267
     52266     52267     52268     52269     52268     52270     52269     52270
     52271     52272     52271     52273     52272     52273     52274     52275
     52274     52276     52275     52276     52277     52278     52277     52279
     52278     52279     52280     52281     52280     52282     52281     52282
     52283     52284     52283     52285     52284     52285     52286     52287
     52286     52288     52287     52288     52289     52290     52289     52291
     52290     52291     52292     52293     52292     52294     52293     52294
     52295     52296     52295     52297     52296     52297     52298     52299
     52298     52300     52299     52300     52301     52302     52301     52303
     52302     52303     52304     52305     52304     52306     52305     52306
     52307     52308     52307     52309     52308     52309     52310     52311
     52310     52312     52311     52312     52313     52314     52313     52315
     52314     52315     52316     52317     52316     52318     52317     52318
     52319     52320     52319     52321     52320     52321     52322     52323
     52322     52324     52323     52324     52325     52326     52325     52327
     52326     52327     52328     52329     52328     52330     52329     52330
     52331     52332     52331     52333     52332     52333     52334     52335
     52334     52336     52335     52336     52337     52338     52337     52339
     52338     52339     52340     52341     52340     52342     52341     52342
     52343     52344     52343     52345     52344     52345     52346     52347
     52346     52348     52347     52348     52349     52350     52349     52351
     52350     52351     52352     52353     52352     52354     52353     52354
     52355     52356     52355     52357     52356     52357     52358     52359
     52358     52360     52359     52360     52361     52362     52361     52363
     52362     52363     52364     52365     52364     52366     52365     52366
     52367     52368     52367     52369     52368     52369     52370     52371
     52370     52372     52371     52372     52373     52374     52373     52375
     52374     52375     52376     52377     52376     52378     52377     52378
     52379     52380     52379     52381     52380     52381     52382     52383
     52382     52384     52383     52384     52385     52386     52385     52387
     52386     52387     52388     52389     52388     52390     52389     52390
     52391     52392     52391     52393     52392     52393     52394     52395
     52394     52396     52395     52396     52397     52398     52397     52399
     52398     52399     52400     52401     52400     52402     52401     52402
     52403     52404     52403     52405     52404     52405     52406     52407
     52406     52408     52407     52408     52409     52410     52409     52411
     52410     52411     52412     52413     52412     52414     52413     52414
     52415     52416     52415     52417     52416     52417     52418     52419
     52418     52420     52419     52420     52421     52422     52421     52423
     52422     52423     52424     52425     52424     52426     52425     52426
     52427     52428     52427     52429     52428     52429     52430     52431
     52430     52432     52431     52432     52433     52434     52433     52435
     52434     52435     52436     52437     52436     52438     52437     52438
     52439     52440     52439     52441     52440     52441     52442     52443
     52442     52444     52443     52444     52445     52446     52445     52447
     52446     52447     52448     52449     52448     52450     52449     52450
     52451     52452     52451     52453     52452     52453     52454     52455
     52454     52456     52455     52456     52457     52458     52457     52459
     52458     52459     52460     52461     52460     52462     52461     52462
     52463     52464     52463     52465     52464     52465     52466     52467
     52466     52468     52467     52468     52469     52470     52469     52471
     52470     52471     52472     52473     52472     52474     52473     52474
     52475     52476     52475     52477     52476     52477     52478     52479
     52478     52480     52479     52480     52481     52482     52481     52483
     52482     52483     52484     52485     52484     52486     52485     52486
     52487     52488     52487     52489     52488     52489     52490     52491
     52490     52492     52491     52492     52493     52494     52493     52495
     52494     52495     52496     52497     52496     52498     52497     52498
     52499     52500     52499     52501     52500     52501     52502     52503
     52502     52504     52503     52504     52505     52506     52505     52507
     52506     52507     52508     52509     52508     52510     52509     52510
     52511     52512     52511     52513     52512     52513     52514     52515
     52514     52516     52515     52516     52517     52518     52517     52519
     52518     52519     52520     52521     52520     52522     52521     52522
     52523     52524     52523     52525     52524     52525     52526     52527
     52526     52528     52527     52528     52529     52530     52529     52531
     52530     52531     52532     52533     52532     52534     52533     52534
     52535     52536     52535     52537     52536     52537     52538     52539
     52538     52540     52539     52540     52541     52542     52541     52543
     52542     52543     52544     52545     52544     52546     52545     52546
     52547     52548     52547     52549     52548     52549     52550     52551
     52550     52552     52551     52552     52553     52554     52553     52555
     52554     52555     52556     52557     52556     52558     52557     52558
     52559     52560     52559     52561     52560     52561     52562     52563
     52562     52564     52563     52564     52565     52566     52565     52567
     52566     52567     52568     52569     52568     52570     52569     52570
     52571     52572     52571     52573     52572     52573     52574     52575
     52574     52576     52575     52576     52577     52578     52577     52579
     52578     52579     52580     52581     52580     52582     52581     52582
     52583     52584     52583     52585     52584     52585     52586     52587
     52586     52588     52587     52588     52589     52590     52589     52591
     52590     52591     52592     52593     52592     52594     52593     52594
     52595     52596     52595     52597     52596     52597     52598     52599
     52598     52600     52599     52600     52601     52602     52601     52603
     52602     52603     52604     52605     52604     52606     52605     52606
     52607     52608     52607     52609     52608     52609     52610     52611
     52610     52612     52611     52612     52613     52614     52613     52615
     52614     52615     52616     52617     52616     52618     52617     52618
     52619     52620     52619     52621     52620     52621     52622     52623
     52622     52624     52623     52624     52625     52626     52625     52627
     52626     52627     52628     52629     52628     52630     52629     52630
     52631     52632     52631     52633     52632     52633     52634     52635
     52634     52636     52635     52636     52637     52638     52637     52639
     52638     52639     52640     52641     52640     52642     52641     52642
     52643     52644     52643     52645     52644     52645     52646     52647
     52646     52648     52647     52648     52649     52650     52649     52651
     52650     52651     52652     52653     52652     52654     52653     52654
     52655     52656     52655     52657     52656     52657     52658     52659
     52658     52660     52659     52660     52661     52662     52661     52663
     52662     52663     52664     52665     52664     52666     52665     52666
     52667     52668     52667     52669     52668     52669     52670     52671
     52670     52672     52671     52672     52673     52674     52673     52675
     52674     52675     52676     52677     52676     52678     52677     52678
     52679     52680     52679     52681     52680     52681     52682     52683
     52682     52684     52683     52684     52685     52686     52685     52687
     52686     52687     52688     52689     52688     52690     52689     52690
     52691     52692     52691     52693     52692     52693     52694     52695
     52694     52696     52695     52696     52697     52698     52697     52699
     52698     52699     52700     52701     52700     52702     52701     52702
     52703     52704     52703     52705     52704     52705     52706     52707
     52706     52708     52707     52708     52709     52710     52709     52711
     52710     52711     52712     52713     52712     52714     52713     52714
     52715     52716     52715     52717     52716     52717     52718     52719
     52718     52720     52719     52720     52721     52722     52721     52723
     52722     52723     52724     52725     52724     52726     52725     52726
     52727     52728     52727     52729     52728     52729     52730     52731
     52730     52732     52731     52732     52733     52734     52733     52735
     52734     52735     52736     52737     52736     52738     52737     52738
     52739     52740     52739     52741     52740     52741     52742     52743
     52742     52744     52743     52744     52745     52746     52745     52747
     52746     52747     52748     52749     52748     52750     52749     52750
     52751     52752     52751     52753     52752     52753     52754     52755
     52754     52756     52755     52756     52757     52758     52757     52759
     52758     52759     52760     52761     52760     52762     52761     52762
     52763     52764     52763     52765     52764     52765     52766     52767
     52766     52768     52767     52768     52769     52770     52769     52771
     52770     52771     52772     52773     52772     52774     52773     52774
     52775     52776     52775     52777     52776     52777     52778     52779
     52778     52780     52779     52780     52781     52782     52781     52783
     52782     52783     52784     52785     52784     52786     52785     52786
     52787     52788     52787     52789     52788     52789     52790     52791
     52790     52792     52791     52792     52793     52794     52793     52795
     52794     52795     52796     52797     52796     52798     52797     52798
     52799     52800     52799     52801     52800     52801     52802     52803
     52802     52804     52803     52804     52805     52806     52805     52807
     52806     52807     52808     52809     52808     52810     52809     52810
     52811     52812     52811     52813     52812     52813     52814     52815
     52814     52816     52815     52816     52817     52818     52817     52819
     52818     52819     52820     52821     52820     52822     52821     52822
     52823     52824     52823     52825     52824     52825     52826     52827
     52826     52828     52827     52828     52829     52830     52829     52831
     52830     52831     52832     52833     52832     52834     52833     52834
     52835     52836     52835     52837     52836     52837     52838     52839
     52838     52840     52839     52840     52841     52842     52841     52843
     52842     52843     52844     52845     52844     52846     52845     52846
     52847     52848     52847     52849     52848     52849     52850     52851
     52850     52852     52851     52852     52853     52854     52853     52855
     52854     52855     52856     52857     52856     52858     52857     52858
     52859     52860     52859     52861     52860     52861     52862     52863
     52862     52864     52863     52864     52865     52866     52865     52867
     52866     52867     52868     52869     52868     52870     52869     52870
     52871     52872     52871     52873     52872     52873     52874     52875
     52874     52876     52875     52876     52877     52878     52877     52879
     52878     52879     52880     52881     52880     52882     52881     52882
     52883     52884     52883     52885     52884     52885     52886     52887
     52886     52888     52887     52888     52889     52890     52889     52891
     52890     52891     52892     52893     52892     52894     52893     52894
     52895     52896     52895     52897     52896     52897     52898     52899
     52898     52900     52899     52900     52901     52902     52901     52903
     52902     52903     52904     52905     52904     52906     52905     52906
     52907     52908     52907     52909     52908     52909     52910     52911
     52910     52912     52911     52912     52913     52914     52913     52915
     52914     52915     52916     52917     52916     52918     52917     52918
     52919     52920     52919     52921     52920     52921     52922     52923
     52922     52924     52923     52924     52925     52926     52925     52927
     52926     52927     52928     52929     52928     52930     52929     52930
     52931     52932     52931     52933     52932     52933     52934     52935
     52934     52936     52935     52936     52937     52938     52937     52939
     52938     52939     52940     52941     52940     52942     52941     52942
     52943     52944     52943     52945     52944     52945     52946     52947
     52946     52948     52947     52948     52949     52950     52949     52951
     52950     52951     52952     52953     52952     52954     52953     52954
     52955     52956     52955     52957     52956     52957     52958     52959
     52958     52960     52959     52960     52961     52962     52961     52963
     52962     52963     52964     52965     52964     52966     52965     52966
     52967     52968     52967     52969     52968     52969     52970     52971
     52970     52972     52971     52972     52973     52974     52973     52975
     52974     52975     52976     52977     52976     52978     52977     52978
     52979     52980     52979     52981     52980     52981     52982     52983
     52982     52984     52983     52984     52985     52986     52985     52987
     52986     52987     52988     52989     52988     52990     52989     52990
     52991     52992     52991     52993     52992     52993     52994     52995
     52994     52996     52995     52996     52997     52998     52997     52999
     52998     52999     53000     53001     53000     53002     53001     53002
     53003     53004     53003     53005     53004     53005     53006     53007
     53006     53008     53007     53008     53009     53010     53009     53011
     53010     53011     53012     53013     53012     53014     53013     53014
     53015     53016     53015     53017     53016     53017     53018     53019
     53018     53020     53019     53020     53021     53022     53021     53023
     53022     53023     53024     53025     53024     53026     53025     53026
     53027     53028     53027     53029     53028     53029     53030     53031
     53030     53032     53031     53032     53033     53034     53033     53035
     53034     53035     53036     53037     53036     53038     53037     53038
     53039     53040     53039     53041     53040     53041     53042     53043
     53042     53044     53043     53044     53045     53046     53045     53047
     53046     53047     53048     53049     53048     53050     53049     53050
     53051     53052     53051     53053     53052     53053     53054     53055
     53054     53056     53055     53056     53057     53058     53057     53059
     53058     53059     53060     53061     53060     53062     53061     53062
     53063     53064     53063     53065     53064     53065     53066     53067
     53066     53068     53067     53068     53069     53070     53069     53071
     53070     53071     53072     53073     53072     53074     53073     53074
     53075     53076     53075     53077     53076     53077     53078     53079
     53078     53080     53079     53080     53081     53082     53081     53083
     53082     53083     53084     53085     53084     53086     53085     53086
     53087     53088     53087     53089     53088     53089     53090     53091
     53090     53092     53091     53092     53093     53094     53093     53095
     53094     53095     53096     53097     53096     53098     53097     53098
     53099     53100     53099     53101     53100     53101     53102     53103
     53102     53104     53103     53104     53105     53106     53105     53107
     53106     53107     53108     53109     53108     53110     53109     53110
     53111     53112     53111     53113     53112     53113     53114     53115
     53114     53116     53115     53116     53117     53118     53117     53119
     53118     53119     53120     53121     53120     53122     53121     53122
     53123     53124     53123     53125     53124     53125     53126     53127
     53126     53128     53127     53128     53129     53130     53129     53131
     53130     53131     53132     53133     53132     53134     53133     53134
     53135     53136     53135     53137     53136     53137     53138     53139
     53138     53140     53139     53140     53141     53142     53141     53143
     53142     53143     53144     53145     53144     53146     53145     53146
     53147     53148     53147     53149     53148     53149     53150     53151
     53150     53152     53151     53152     53153     53154     53153     53155
     53154     53155     53156     53157     53156     53158     53157     53158
     53159     53160     53159     53161     53160     53161     53162     53163
     53162     53164     53163     53164     53165     53166     53165     53167
     53166     53167     53168     53169     53168     53170     53169     53170
     53171     53172     53171     53173     53172     53173     53174     53175
     53174     53176     53175     53176     53177     53178     53177     53179
     53178     53179     53180     53181     53180     53182     53181     53182
     53183     53184     53183     53185     53184     53185     53186     53187
     53186     53188     53187     53188     53189     53190     53189     53191
     53190     53191     53192     53193     53192     53194     53193     53194
     53195     53196     53195     53197     53196     53197     53198     53199
     53198     53200     53199     53200     53201     53202     53201     53203
     53202     53203     53204     53205     53204     53206     53205     53206
     53207     53208     53207     53209     53208     53209     53210     53211
     53210     53212     53211     53212     53213     53214     53213     53215
     53214     53215     53216     53217     53216     53218     53217     53218
     53219     53220     53219     53221     53220     53221     53222     53223
     53222     53224     53223     53224     53225     53226     53225     53227
     53226     53227     53228     53229     53228     53230     53229     53230
     53231     53232     53231     53233     53232     53233     53234     53235
     53234     53236     53235     53236     53237     53238     53237     53239
     53238     53239     53240     53241     53240     53242     53241     53242
     53243     53244     53243     53245     53244     53245     53246     53247
     53246     53248     53247     53248     53249     53250     53249     53251
     53250     53251     53252     53253     53252     53254     53253     53254
     53255     53256     53255     53257     53256     53257     53258     53259
     53258     53260     53259     53260     53261     53262     53261     53263
     53262     53263     53264     53265     53264     53266     53265     53266
     53267     53268     53267     53269     53268     53269     53270     53271
     53270     53272     53271     53272     53273     53274     53273     53275
     53274     53275     53276     53277     53276     53278     53277     53278
     53279     53280     53279     53281     53280     53281     53282     53283
     53282     53284     53283     53284     53285     53286     53285     53287
     53286     53287     53288     53289     53288     53290     53289     53290
     53291     53292     53291     53293     53292     53293     53294     53295
     53294     53296     53295     53296     53297     53298     53297     53299
     53298     53299     53300     53301     53300     53302     53301     53302
     53303     53304     53303     53305     53304     53305     53306     53307
     53306     53308     53307     53308     53309     53310     53309     53311
     53310     53311     53312     53313     53312     53314     53313     53314
     53315     53316     53315     53317     53316     53317     53318     53319
     53318     53320     53319     53320     53321     53322     53321     53323
     53322     53323     53324     53325     53324     53326     53325     53326
     53327     53328     53327     53329     53328     53329     53330     53331
     53330     53332     53331     53332     53333     53334     53333     53335
     53334     53335     53336     53337     53336     53338     53337     53338
     53339     53340     53339     53341     53340     53341     53342     53343
     53342     53344     53343     53344     53345     53346     53345     53347
     53346     53347     53348     53349     53348     53350     53349     53350
     53351     53352     53351     53353     53352     53353     53354     53355
     53354     53356     53355     53356     53357     53358     53357     53359
     53358     53359     53360     53361     53360     53362     53361     53362
     53363     53364     53363     53365     53364     53365     53366     53367
     53366     53368     53367     53368     53369     53370     53369     53371
     53370     53371     53372     53373     53372     53374     53373     53374
     53375     53376     53375     53377     53376     53377     53378     53379
     53378     53380     53379     53380     53381     53382     53381     53383
     53382     53383     53384     53385     53384     53386     53385     53386
     53387     53388     53387     53389     53388     53389     53390     53391
     53390     53392     53391     53392     53393     53394     53393     53395
     53394     53395     53396     53397     53396     53398     53397     53398
     53399     53400     53399     53401     53400     53401     53402     53403
     53402     53404     53403     53404     53405     53406     53405     53407
     53406     53407     53408     53409     53408     53410     53409     53410
     53411     53412     53411     53413     53412     53413     53414     53415
     53414     53416     53415     53416     53417     53418     53417     53419
     53418     53419     53420     53421     53420     53422     53421     53422
     53423     53424     53423     53425     53424     53425     53426     53427
     53426     53428     53427     53428     53429     53430     53429     53431
     53430     53431     53432     53433     53432     53434     53433     53434
     53435     53436     53435     53437     53436     53437     53438     53439
     53438     53440     53439     53440     53441     53442     53441     53443
     53442     53443     53444     53445     53444     53446     53445     53446
     53447     53448     53447     53449     53448     53449     53450     53451
     53450     53452     53451     53452     53453     53454     53453     53455
     53454     53455     53456     53457     53456     53458     53457     53458
     53459     53460     53459     53461     53460     53461     53462     53463
     53462     53464     53463     53464     53465     53466     53465     53467
     53466     53467     53468     53469     53468     53470     53469     53470
     53471     53472     53471     53473     53472     53473     53474     53475
     53474     53476     53475     53476     53477     53478     53477     53479
     53478     53479     53480     53481     53480     53482     53481     53482
     53483     53484     53483     53485     53484     53485     53486     53487
     53486     53488     53487     53488     53489     53490     53489     53491
     53490     53491     53492     53493     53492     53494     53493     53494
     53495     53496     53495     53497     53496     53497     53498     53499
     53498     53500     53499     53500     53501     53502     53501     53503
     53502     53503     53504     53505     53504     53506     53505     53506
     53507     53508     53507     53509     53508     53509     53510     53511
     53510     53512     53511     53512     53513     53514     53513     53515
     53514     53515     53516     53517     53516     53518     53517     53518
     53519     53520     53519     53521     53520     53521     53522     53523
     53522     53524     53523     53524     53525     53526     53525     53527
     53526     53527     53528     53529     53528     53530     53529     53530
     53531     53532     53531     53533     53532     53533     53534     53535
     53534     53536     53535     53536     53537     53538     53537     53539
     53538     53539     53540     53541     53540     53542     53541     53542
     53543     53544     53543     53545     53544     53545     53546     53547
     53546     53548     53547     53548     53549     53550     53549     53551
     53550     53551     53552     53553     53552     53554     53553     53554
     53555     53556     53555     53557     53556     53557     53558     53559
     53558     53560     53559     53560     53561     53562     53561     53563
     53562     53563     53564     53565     53564     53566     53565     53566
     53567     53568     53567     53569     53568     53569     53570     53571
     53570     53572     53571     53572     53573     53574     53573     53575
     53574     53575     53576     53577     53576     53578     53577     53578
     53579     53580     53579     53581     53580     53581     53582     53583
     53582     53584     53583     53584     53585     53586     53585     53587
     53586     53587     53588     53589     53588     53590     53589     53590
     53591     53592     53591     53593     53592     53593     53594     53595
     53594     53596     53595     53596     53597     53598     53597     53599
     53598     53599     53600     53601     53600     53602     53601     53602
     53603     53604     53603     53605     53604     53605     53606     53607
     53606     53608     53607     53608     53609     53610     53609     53611
     53610     53611     53612     53613     53612     53614     53613     53614
     53615     53616     53615     53617     53616     53617     53618     53619
     53618     53620     53619     53620     53621     53622     53621     53623
     53622     53623     53624     53625     53624     53626     53625     53626
     53627     53628     53627     53629     53628     53629     53630     53631
     53630     53632     53631     53632     53633     53634     53633     53635
     53634     53635     53636     53637     53636     53638     53637     53638
     53639     53640     53639     53641     53640     53641     53642     53643
     53642     53644     53643     53644     53645     53646     53645     53647
     53646     53647     53648     53649     53648     53650     53649     53650
     53651     53652     53651     53653     53652     53653     53654     53655
     53654     53656     53655     53656     53657     53658     53657     53659
     53658     53659     53660     53661     53660     53662     53661     53662
     53663     53664     53663     53665     53664     53665     53666     53667
     53666     53668     53667     53668     53669     53670     53669     53671
     53670     53671     53672     53673     53672     53674     53673     53674
     53675     53676     53675     53677     53676     53677     53678     53679
     53678     53680     53679     53680     53681     53682     53681     53683
     53682     53683     53684     53685     53684     53686     53685     53686
     53687     53688     53687     53689     53688     53689     53690     53691
     53690     53692     53691     53692     53693     53694     53693     53695
     53694     53695     53696     53697     53696     53698     53697     53698
     53699     53700     53699     53701     53700     53701     53702     53703
     53702     53704     53703     53704     53705     53706     53705     53707
     53706     53707     53708     53709     53708     53710     53709     53710
     53711     53712     53711     53713     53712     53713     53714     53715
     53714     53716     53715     53716     53717     53718     53717     53719
     53718     53719     53720     53721     53720     53722     53721     53722
     53723     53724     53723     53725     53724     53725     53726     53727
     53726     53728     53727     53728     53729     53730     53729     53731
     53730     53731     53732     53733     53732     53734     53733     53734
     53735     53736     53735     53737     53736     53737     53738     53739
     53738     53740     53739     53740     53741     53742     53741     53743
     53742     53743     53744     53745     53744     53746     53745     53746
     53747     53748     53747     53749     53748     53749     53750     53751
     53750     53752     53751     53752     53753     53754     53753     53755
     53754     53755     53756     53757     53756     53758     53757     53758
     53759     53760     53759     53761     53760     53761     53762     53763
     53762     53764     53763     53764     53765     53766     53765     53767
     53766     53767     53768     53769     53768     53770     53769     53770
     53771     53772     53771     53773     53772     53773     53774     53775
     53774     53776     53775     53776     53777     53778     53777     53779
     53778     53779     53780     53781     53780     53782     53781     53782
     53783     53784     53783     53785     53784     53785     53786     53787
     53786     53788     53787     53788     53789     53790     53789     53791
     53790     53791     53792     53793     53792     53794     53793     53794
     53795     53796     53795     53797     53796     53797     53798     53799
     53798     53800     53799     53800     53801     53802     53801     53803
     53802     53803     53804     53805     53804     53806     53805     53806
     53807     53808     53807     53809     53808     53809     53810     53811
     53810     53812     53811     53812     53813     53814     53813     53815
     53814     53815     53816     53817     53816     53818     53817     53818
     53819     53820     53819     53821     53820     53821     53822     53823
     53822     53824     53823     53824     53825     53826     53825     53827
     53826     53827     53828     53829     53828     53830     53829     53830
     53831     53832     53831     53833     53832     53833     53834     53835
     53834     53836     53835     53836     53837     53838     53837     53839
     53838     53839     53840     53841     53840     53842     53841     53842
     53843     53844     53843     53845     53844     53845     53846     53847
     53846     53848     53847     53848     53849     53850     53849     53851
     53850     53851     53852     53853     53852     53854     53853     53854
     53855     53856     53855     53857     53856     53857     53858     53859
     53858     53860     53859     53860     53861     53862     53861     53863
     53862     53863     53864     53865     53864     53866     53865     53866
     53867     53868     53867     53869     53868     53869     53870     53871
     53870     53872     53871     53872     53873     53874     53873     53875
     53874     53875     53876     53877     53876     53878     53877     53878
     53879     53880     53879     53881     53880     53881     53882     53883
     53882     53884     53883     53884     53885     53886     53885     53887
     53886     53887     53888     53889     53888     53890     53889     53890
     53891     53892     53891     53893     53892     53893     53894     53895
     53894     53896     53895     53896     53897     53898     53897     53899
     53898     53899     53900     53901     53900     53902     53901     53902
     53903     53904     53903     53905     53904     53905     53906     53907
     53906     53908     53907     53908     53909     53910     53909     53911
     53910     53911     53912     53913     53912     53914     53913     53914
     53915     53916     53915     53917     53916     53917     53918     53919
     53918     53920     53919     53920     53921     53922     53921     53923
     53922     53923     53924     53925     53924     53926     53925     53926
     53927     53928     53927     53929     53928     53929     53930     53931
     53930     53932     53931     53932     53933     53934     53933     53935
     53934     53935     53936     53937     53936     53938     53937     53938
     53939     53940     53939     53941     53940     53941     53942     53943
     53942     53944     53943     53944     53945     53946     53945     53947
     53946     53947     53948     53949     53948     53950     53949     53950
     53951     53952     53951     53953     53952     53953     53954     53955
     53954     53956     53955     53956     53957     53958     53957     53959
     53958     53959     53960     53961     53960     53962     53961     53962
     53963     53964     53963     53965     53964     53965     53966     53967
     53966     53968     53967     53968     53969     53970     53969     53971
     53970     53971     53972     53973     53972     53974     53973     53974
     53975     53976     53975     53977     53976     53977     53978     53979
     53978     53980     53979     53980     53981     53982     53981     53983
     53982     53983     53984     53985     53984     53986     53985     53986
     53987     53988     53987     53989     53988     53989     53990     53991
     53990     53992     53991     53992     53993     53994     53993     53995
     53994     53995     53996     53997     53996     53998     53997     53998
     53999     54000     53999     54001     54000     54001     54002     54003
     54002     54004     54003     54004     54005     54006     54005     54007
     54006     54007     54008     54009     54008     54010     54009     54010
     54011     54012     54011     54013     54012     54013     54014     54015
     54014     54016     54015     54016     54017     54018     54017     54019
     54018     54019     54020     54021     54020     54022     54021     54022
     54023     54024     54023     54025     54024     54025     54026     54027
     54026     54028     54027     54028     54029     54030     54029     54031
     54030     54031     54032     54033     54032     54034     54033     54034
     54035     54036     54035     54037     54036     54037     54038     54039
     54038     54040     54039     54040     54041     54042     54041     54043
     54042     54043     54044     54045     54044     54046     54045     54046
     54047     54048     54047     54049     54048     54049     54050     54051
     54050     54052     54051     54052     54053     54054     54053     54055
     54054     54055     54056     54057     54056     54058     54057     54058
     54059     54060     54059     54061     54060     54061     54062     54063
     54062     54064     54063     54064     54065     54066     54065     54067
     54066     54067     54068     54069     54068     54070     54069     54070
     54071     54072     54071     54073     54072     54073     54074     54075
     54074     54076     54075     54076     54077     54078     54077     54079
     54078     54079     54080     54081     54080     54082     54081     54082
     54083     54084     54083     54085     54084     54085     54086     54087
     54086     54088     54087     54088     54089     54090     54089     54091
     54090     54091     54092     54093     54092     54094     54093     54094
     54095     54096     54095     54097     54096     54097     54098     54099
     54098     54100     54099     54100     54101     54102     54101     54103
     54102     54103     54104     54105     54104     54106     54105     54106
     54107     54108     54107     54109     54108     54109     54110     54111
     54110     54112     54111     54112     54113     54114     54113     54115
     54114     54115     54116     54117     54116     54118     54117     54118
     54119     54120     54119     54121     54120     54121     54122     54123
     54122     54124     54123     54124     54125     54126     54125     54127
     54126     54127     54128     54129     54128     54130     54129     54130
     54131     54132     54131     54133     54132     54133     54134     54135
     54134     54136     54135     54136     54137     54138     54137     54139
     54138     54139     54140     54141     54140     54142     54141     54142
     54143     54144     54143     54145     54144     54145     54146     54147
     54146     54148     54147     54148     54149     54150     54149     54151
     54150     54151     54152     54153     54152     54154     54153     54154
     54155     54156     54155     54157     54156     54157     54158     54159
     54158     54160     54159     54160     54161     54162     54161     54163
     54162     54163     54164     54165     54164     54166     54165     54166
     54167     54168     54167     54169     54168     54169     54170     54171
     54170     54172     54171     54172     54173     54174     54173     54175
     54174     54175     54176     54177     54176     54178     54177     54178
     54179     54180     54179     54181     54180     54181     54182     54183
     54182     54184     54183     54184     54185     54186     54185     54187
     54186     54187     54188     54189     54188     54190     54189     54190
     54191     54192     54191     54193     54192     54193     54194     54195
     54194     54196     54195     54196     54197     54198     54197     54199
     54198     54199     54200     54201     54200     54202     54201     54202
     54203     54204     54203     54205     54204     54205     54206     54207
     54206     54208     54207     54208     54209     54210     54209     54211
     54210     54211     54212     54213     54212     54214     54213     54214
     54215     54216     54215     54217     54216     54217     54218     54219
     54218     54220     54219     54220     54221     54222     54221     54223
     54222     54223     54224     54225     54224     54226     54225     54226
     54227     54228     54227     54229     54228     54229     54230     54231
     54230     54232     54231     54232     54233     54234     54233     54235
     54234     54235     54236     54237     54236     54238     54237     54238
     54239     54240     54239     54241     54240     54241     54242     54243
     54242     54244     54243     54244     54245     54246     54245     54247
     54246     54247     54248     54249     54248     54250     54249     54250
     54251     54252     54251     54253     54252     54253     54254     54255
     54254     54256     54255     54256     54257     54258     54257     54259
     54258     54259     54260     54261     54260     54262     54261     54262
     54263     54264     54263     54265     54264     54265     54266     54267
     54266     54268     54267     54268     54269     54270     54269     54271
     54270     54271     54272     54273     54272     54274     54273     54274
     54275     54276     54275     54277     54276     54277     54278     54279
     54278     54280     54279     54280     54281     54282     54281     54283
     54282     54283     54284     54285     54284     54286     54285     54286
     54287     54288     54287     54289     54288     54289     54290     54291
     54290     54292     54291     54292     54293     54294     54293     54295
     54294     54295     54296     54297     54296     54298     54297     54298
     54299     54300     54299     54301     54300     54301     54302     54303
     54302     54304     54303     54304     54305     54306     54305     54307
     54306     54307     54308     54309     54308     54310     54309     54310
     54311     54312     54311     54313     54312     54313     54314     54315
     54314     54316     54315     54316     54317     54318     54317     54319
     54318     54319     54320     54321     54320     54322     54321     54322
     54323     54324     54323     54325     54324     54325     54326     54327
     54326     54328     54327     54328     54329     54330     54329     54331
     54330     54331     54332     54333     54332     54334     54333     54334
     54335     54336     54335     54337     54336     54337     54338     54339
     54338     54340     54339     54340     54341     54342     54341     54343
     54342     54343     54344     54345     54344     54346     54345     54346
     54347     54348     54347     54349     54348     54349     54350     54351
     54350     54352     54351     54352     54353     54354     54353     54355
     54354     54355     54356     54357     54356     54358     54357     54358
     54359     54360     54359     54361     54360     54361     54362     54363
     54362     54364     54363     54364     54365     54366     54365     54367
     54366     54367     54368     54369     54368     54370     54369     54370
     54371     54372     54371     54373     54372     54373     54374     54375
     54374     54376     54375     54376     54377     54378     54377     54379
     54378     54379     54380     54381     54380     54382     54381     54382
     54383     54384     54383     54385     54384     54385     54386     54387
     54386     54388     54387     54388     54389     54390     54389     54391
     54390     54391     54392     54393     54392     54394     54393     54394
     54395     54396     54395     54397     54396     54397     54398     54399
     54398     54400     54399     54400     54401     54402     54401     54403
     54402     54403     54404     54405     54404     54406     54405     54406
     54407     54408     54407     54409     54408     54409     54410     54411
     54410     54412     54411     54412     54413     54414     54413     54415
     54414     54415     54416     54417     54416     54418     54417     54418
     54419     54420     54419     54421     54420     54421     54422     54423
     54422     54424     54423     54424     54425     54426     54425     54427
     54426     54427     54428     54429     54428     54430     54429     54430
     54431     54432     54431     54433     54432     54433     54434     54435
     54434     54436     54435     54436     54437     54438     54437     54439
     54438     54439     54440     54441     54440     54442     54441     54442
     54443     54444     54443     54445     54444     54445     54446     54447
     54446     54448     54447     54448     54449     54450     54449     54451
     54450     54451     54452     54453     54452     54454     54453     54454
     54455     54456     54455     54457     54456     54457     54458     54459
     54458     54460     54459     54460     54461     54462     54461     54463
     54462     54463     54464     54465     54464     54466     54465     54466
     54467     54468     54467     54469     54468     54469     54470     54471
     54470     54472     54471     54472     54473     54474     54473     54475
     54474     54475     54476     54477     54476     54478     54477     54478
     54479     54480     54479     54481     54480     54481     54482     54483
     54482     54484     54483     54484     54485     54486     54485     54487
     54486     54487     54488     54489     54488     54490     54489     54490
     54491     54492     54491     54493     54492     54493     54494     54495
     54494     54496     54495     54496     54497     54498     54497     54499
     54498     54499     54500     54501     54500     54502     54501     54502
     54503     54504     54503     54505     54504     54505     54506     54507
     54506     54508     54507     54508     54509     54510     54509     54511
     54510     54511     54512     54513     54512     54514     54513     54514
     54515     54516     54515     54517     54516     54517     54518     54519
     54518     54520     54519     54520     54521     54522     54521     54523
     54522     54523     54524     54525     54524     54526     54525     54526
     54527     54528     54527     54529     54528     54529     54530     54531
     54530     54532     54531     54532     54533     54534     54533     54535
     54534     54535     54536     54537     54536     54538     54537     54538
     54539     54540     54539     54541     54540     54541     54542     54543
     54542     54544     54543     54544     54545     54546     54545     54547
     54546     54547     54548     54549     54548     54550     54549     54550
     54551     54552     54551     54553     54552     54553     54554     54555
     54554     54556     54555     54556     54557     54558     54557     54559
     54558     54559     54560     54561     54560     54562     54561     54562
     54563     54564     54563     54565     54564     54565     54566     54567
     54566     54568     54567     54568     54569     54570     54569     54571
     54570     54571     54572     54573     54572     54574     54573     54574
     54575     54576     54575     54577     54576     54577     54578     54579
     54578     54580     54579     54580     54581     54582     54581     54583
     54582     54583     54584     54585     54584     54586     54585     54586
     54587     54588     54587     54589     54588     54589     54590     54591
     54590     54592     54591     54592     54593     54594     54593     54595
     54594     54595     54596     54597     54596     54598     54597     54598
     54599     54600     54599     54601     54600     54601     54602     54603
     54602     54604     54603     54604     54605     54606     54605     54607
     54606     54607     54608     54609     54608     54610     54609     54610
     54611     54612     54611     54613     54612     54613     54614     54615
     54614     54616     54615     54616     54617     54618     54617     54619
     54618     54619     54620     54621     54620     54622     54621     54622
     54623     54624     54623     54625     54624     54625     54626     54627
     54626     54628     54627     54628     54629     54630     54629     54631
     54630     54631     54632     54633     54632     54634     54633     54634
     54635     54636     54635     54637     54636     54637     54638     54639
     54638     54640     54639     54640     54641     54642     54641     54643
     54642     54643     54644     54645     54644     54646     54645     54646
     54647     54648     54647     54649     54648     54649     54650     54651
     54650     54652     54651     54652     54653     54654     54653     54655
     54654     54655     54656     54657     54656     54658     54657     54658
     54659     54660     54659     54661     54660     54661     54662     54663
     54662     54664     54663     54664     54665     54666     54665     54667
     54666     54667     54668     54669     54668     54670     54669     54670
     54671     54672     54671     54673     54672     54673     54674     54675
     54674     54676     54675     54676     54677     54678     54677     54679
     54678     54679     54680     54681     54680     54682     54681     54682
     54683     54684     54683     54685     54684     54685     54686     54687
     54686     54688     54687     54688     54689     54690     54689     54691
     54690     54691     54692     54693     54692     54694     54693     54694
     54695     54696     54695     54697     54696     54697     54698     54699
     54698     54700     54699     54700     54701     54702     54701     54703
     54702     54703     54704     54705     54704     54706     54705     54706
     54707     54708     54707     54709     54708     54709     54710     54711
     54710     54712     54711     54712     54713     54714     54713     54715
     54714     54715     54716     54717     54716     54718     54717     54718
     54719     54720     54719     54721     54720     54721     54722     54723
     54722     54724     54723     54724     54725     54726     54725     54727
     54726     54727     54728     54729     54728     54730     54729     54730
     54731     54732     54731     54733     54732     54733     54734     54735
     54734     54736     54735     54736     54737     54738     54737     54739
     54738     54739     54740     54741     54740     54742     54741     54742
     54743     54744     54743     54745     54744     54745     54746     54747
     54746     54748     54747     54748     54749     54750     54749     54751
     54750     54751     54752     54753     54752     54754     54753     54754
     54755     54756     54755     54757     54756     54757     54758     54759
     54758     54760     54759     54760     54761     54762     54761     54763
     54762     54763     54764     54765     54764     54766     54765     54766
     54767     54768     54767     54769     54768     54769     54770     54771
     54770     54772     54771     54772     54773     54774     54773     54775
     54774     54775     54776     54777     54776     54778     54777     54778
     54779     54780     54779     54781     54780     54781     54782     54783
     54782     54784     54783     54784     54785     54786     54785     54787
     54786     54787     54788     54789     54788     54790     54789     54790
     54791     54792     54791     54793     54792     54793     54794     54795
     54794     54796     54795     54796     54797     54798     54797     54799
     54798     54799     54800     54801     54800     54802     54801     54802
     54803     54804     54803     54805     54804     54805     54806     54807
     54806     54808     54807     54808     54809     54810     54809     54811
     54810     54811     54812     54813     54812     54814     54813     54814
     54815     54816     54815     54817     54816     54817     54818     54819
     54818     54820     54819     54820     54821     54822     54821     54823
     54822     54823     54824     54825     54824     54826     54825     54826
     54827     54828     54827     54829     54828     54829     54830     54831
     54830     54832     54831     54832     54833     54834     54833     54835
     54834     54835     54836     54837     54836     54838     54837     54838
     54839     54840     54839     54841     54840     54841     54842     54843
     54842     54844     54843     54844     54845     54846     54845     54847
     54846     54847     54848     54849     54848     54850     54849     54850
     54851     54852     54851     54853     54852     54853     54854     54855
     54854     54856     54855     54856     54857     54858     54857     54859
     54858     54859     54860     54861     54860     54862     54861     54862
     54863     54864     54863     54865     54864     54865     54866     54867
     54866     54868     54867     54868     54869     54870     54869     54871
     54870     54871     54872     54873     54872     54874     54873     54874
     54875     54876     54875     54877     54876     54877     54878     54879
     54878     54880     54879     54880     54881     54882     54881     54883
     54882     54883     54884     54885     54884     54886     54885     54886
     54887     54888     54887     54889     54888     54889     54890     54891
     54890     54892     54891     54892     54893     54894     54893     54895
     54894     54895     54896     54897     54896     54898     54897     54898
     54899     54900     54899     54901     54900     54901     54902     54903
     54902     54904     54903     54904     54905     54906     54905     54907
     54906     54907     54908     54909     54908     54910     54909     54910
     54911     54912     54911     54913     54912     54913     54914     54915
     54914     54916     54915     54916     54917     54918     54917     54919
     54918     54919     54920     54921     54920     54922     54921     54922
     54923     54924     54923     54925     54924     54925     54926     54927
     54926     54928     54927     54928     54929     54930     54929     54931
     54930     54931     54932     54933     54932     54934     54933     54934
     54935     54936     54935     54937     54936     54937     54938     54939
     54938     54940     54939     54940     54941     54942     54941     54943
     54942     54943     54944     54945     54944     54946     54945     54946
     54947     54948     54947     54949     54948     54949     54950     54951
     54950     54952     54951     54952     54953     54954     54953     54955
     54954     54955     54956     54957     54956     54958     54957     54958
     54959     54960     54959     54961     54960     54961     54962     54963
     54962     54964     54963     54964     54965     54966     54965     54967
     54966     54967     54968     54969     54968     54970     54969     54970
     54971     54972     54971     54973     54972     54973     54974     54975
     54974     54976     54975     54976     54977     54978     54977     54979
     54978     54979     54980     54981     54980     54982     54981     54982
     54983     54984     54983     54985     54984     54985     54986     54987
     54986     54988     54987     54988     54989     54990     54989     54991
     54990     54991     54992     54993     54992     54994     54993     54994
     54995     54996     54995     54997     54996     54997     54998     54999
     54998     55000     54999     55000     55001     55002     55001     55003
     55002     55003     55004     55005     55004     55006     55005     55006
     55007     55008     55007     55009     55008     55009     55010     55011
     55010     55012     55011     55012     55013     55014     55013     55015
     55014     55015     55016     55017     55016     55018     55017     55018
     55019     55020     55019     55021     55020     55021     55022     55023
     55022     55024     55023     55024     55025     55026     55025     55027
     55026     55027     55028     55029     55028     55030     55029     55030
     55031     55032     55031     55033     55032     55033     55034     55035
     55034     55036     55035     55036     55037     55038     55037     55039
     55038     55039     55040     55041     55040     55042     55041     55042
     55043     55044     55043     55045     55044     55045     55046     55047
     55046     55048     55047     55048     55049     55050     55049     55051
     55050     55051     55052     55053     55052     55054     55053     55054
     55055     55056     55055     55057     55056     55057     55058     55059
     55058     55060     55059     55060     55061     55062     55061     55063
     55062     55063     55064     55065     55064     55066     55065     55066
     55067     55068     55067     55069     55068     55069     55070     55071
     55070     55072     55071     55072     55073     55074     55073     55075
     55074     55075     55076     55077     55076     55078     55077     55078
     55079     55080     55079     55081     55080     55081     55082     55083
     55082     55084     55083     55084     55085     55086     55085     55087
     55086     55087     55088     55089     55088     55090     55089     55090
     55091     55092     55091     55093     55092     55093     55094     55095
     55094     55096     55095     55096     55097     55098     55097     55099
     55098     55099     55100     55101     55100     55102     55101     55102
     55103     55104     55103     55105     55104     55105     55106     55107
     55106     55108     55107     55108     55109     55110     55109     55111
     55110     55111     55112     55113     55112     55114     55113     55114
     55115     55116     55115     55117     55116     55117     55118     55119
     55118     55120     55119     55120     55121     55122     55121     55123
     55122     55123     55124     55125     55124     55126     55125     55126
     55127     55128     55127     55129     55128     55129     55130     55131
     55130     55132     55131     55132     55133     55134     55133     55135
     55134     55135     55136     55137     55136     55138     55137     55138
     55139     55140     55139     55141     55140     55141     55142     55143
     55142     55144     55143     55144     55145     55146     55145     55147
     55146     55147     55148     55149     55148     55150     55149     55150
     55151     55152     55151     55153     55152     55153     55154     55155
     55154     55156     55155     55156     55157     55158     55157     55159
     55158     55159     55160     55161     55160     55162     55161     55162
     55163     55164     55163     55165     55164     55165     55166     55167
     55166     55168     55167     55168     55169     55170     55169     55171
     55170     55171     55172     55173     55172     55174     55173     55174
     55175     55176     55175     55177     55176     55177     55178     55179
     55178     55180     55179     55180     55181     55182     55181     55183
     55182     55183     55184     55185     55184     55186     55185     55186
     55187     55188     55187     55189     55188     55189     55190     55191
     55190     55192     55191     55192     55193     55194     55193     55195
     55194     55195     55196     55197     55196     55198     55197     55198
     55199     55200     55199     55201     55200     55201     55202     55203
     55202     55204     55203     55204     55205     55206     55205     55207
     55206     55207     55208     55209     55208     55210     55209     55210
     55211     55212     55211     55213     55212     55213     55214     55215
     55214     55216     55215     55216     55217     55218     55217     55219
     55218     55219     55220     55221     55220     55222     55221     55222
     55223     55224     55223     55225     55224     55225     55226     55227
     55226     55228     55227     55228     55229     55230     55229     55231
     55230     55231     55232     55233     55232     55234     55233     55234
     55235     55236     55235     55237     55236     55237     55238     55239
     55238     55240     55239     55240     55241     55242     55241     55243
     55242     55243     55244     55245     55244     55246     55245     55246
     55247     55248     55247     55249     55248     55249     55250     55251
     55250     55252     55251     55252     55253     55254     55253     55255
     55254     55255     55256     55257     55256     55258     55257     55258
     55259     55260     55259     55261     55260     55261     55262     55263
     55262     55264     55263     55264     55265     55266     55265     55267
     55266     55267     55268     55269     55268     55270     55269     55270
     55271     55272     55271     55273     55272     55273     55274     55275
     55274     55276     55275     55276     55277     55278     55277     55279
     55278     55279     55280     55281     55280     55282     55281     55282
     55283     55284     55283     55285     55284     55285     55286     55287
     55286     55288     55287     55288     55289     55290     55289     55291
     55290     55291     55292     55293     55292     55294     55293     55294
     55295     55296     55295     55297     55296     55297     55298     55299
     55298     55300     55299     55300     55301     55302     55301     55303
     55302     55303     55304     55305     55304     55306     55305     55306
     55307     55308     55307     55309     55308     55309     55310     55311
     55310     55312     55311     55312     55313     55314     55313     55315
     55314     55315     55316     55317     55316     55318     55317     55318
     55319     55320     55319     55321     55320     55321     55322     55323
     55322     55324     55323     55324     55325     55326     55325     55327
     55326     55327     55328     55329     55328     55330     55329     55330
     55331     55332     55331     55333     55332     55333     55334     55335
     55334     55336     55335     55336     55337     55338     55337     55339
     55338     55339     55340     55341     55340     55342     55341     55342
     55343     55344     55343     55345     55344     55345     55346     55347
     55346     55348     55347     55348     55349     55350     55349     55351
     55350     55351     55352     55353     55352     55354     55353     55354
     55355     55356     55355     55357     55356     55357     55358     55359
     55358     55360     55359     55360     55361     55362     55361     55363
     55362     55363     55364     55365     55364     55366     55365     55366
     55367     55368     55367     55369     55368     55369     55370     55371
     55370     55372     55371     55372     55373     55374     55373     55375
     55374     55375     55376     55377     55376     55378     55377     55378
     55379     55380     55379     55381     55380     55381     55382     55383
     55382     55384     55383     55384     55385     55386     55385     55387
     55386     55387     55388     55389     55388     55390     55389     55390
     55391     55392     55391     55393     55392     55393     55394     55395
     55394     55396     55395     55396     55397     55398     55397     55399
     55398     55399     55400     55401     55400     55402     55401     55402
     55403     55404     55403     55405     55404     55405     55406     55407
     55406     55408     55407     55408     55409     55410     55409     55411
     55410     55411     55412     55413     55412     55414     55413     55414
     55415     55416     55415     55417     55416     55417     55418     55419
     55418     55420     55419     55420     55421     55422     55421     55423
     55422     55423     55424     55425     55424     55426     55425     55426
     55427     55428     55427     55429     55428     55429     55430     55431
     55430     55432     55431     55432     55433     55434     55433     55435
     55434     55435     55436     55437     55436     55438     55437     55438
     55439     55440     55439     55441     55440     55441     55442     55443
     55442     55444     55443     55444     55445     55446     55445     55447
     55446     55447     55448     55449     55448     55450     55449     55450
     55451     55452     55451     55453     55452     55453     55454     55455
     55454     55456     55455     55456     55457     55458     55457     55459
     55458     55459     55460     55461     55460     55462     55461     55462
     55463     55464     55463     55465     55464     55465     55466     55467
     55466     55468     55467     55468     55469     55470     55469     55471
     55470     55471     55472     55473     55472     55474     55473     55474
     55475     55476     55475     55477     55476     55477     55478     55479
     55478     55480     55479     55480     55481     55482     55481     55483
     55482     55483     55484     55485     55484     55486     55485     55486
     55487     55488     55487     55489     55488     55489     55490     55491
     55490     55492     55491     55492     55493     55494     55493     55495
     55494     55495     55496     55497     55496     55498     55497     55498
     55499     55500     55499     55501     55500     55501     55502     55503
     55502     55504     55503     55504     55505     55506     55505     55507
     55506     55507     55508     55509     55508     55510     55509     55510
     55511     55512     55511     55513     55512     55513     55514     55515
     55514     55516     55515     55516     55517     55518     55517     55519
     55518     55519     55520     55521     55520     55522     55521     55522
     55523     55524     55523     55525     55524     55525     55526     55527
     55526     55528     55527     55528     55529     55530     55529     55531
     55530     55531     55532     55533     55532     55534     55533     55534
     55535     55536     55535     55537     55536     55537     55538     55539
     55538     55540     55539     55540     55541     55542     55541     55543
     55542     55543     55544     55545     55544     55546     55545     55546
     55547     55548     55547     55549     55548     55549     55550     55551
     55550     55552     55551     55552     55553     55554     55553     55555
     55554     55555     55556     55557     55556     55558     55557     55558
     55559     55560     55559     55561     55560     55561     55562     55563
     55562     55564     55563     55564     55565     55566     55565     55567
     55566     55567     55568     55569     55568     55570     55569     55570
     55571     55572     55571     55573     55572     55573     55574     55575
     55574     55576     55575     55576     55577     55578     55577     55579
     55578     55579     55580     55581     55580     55582     55581     55582
     55583     55584     55583     55585     55584     55585     55586     55587
     55586     55588     55587     55588     55589     55590     55589     55591
     55590     55591     55592     55593     55592     55594     55593     55594
     55595     55596     55595     55597     55596     55597     55598     55599
     55598     55600     55599     55600     55601     55602     55601     55603
     55602     55603     55604     55605     55604     55606     55605     55606
     55607     55608     55607     55609     55608     55609     55610     55611
     55610     55612     55611     55612     55613     55614     55613     55615
     55614     55615     55616     55617     55616     55618     55617     55618
     55619     55620     55619     55621     55620     55621     55622     55623
     55622     55624     55623     55624     55625     55626     55625     55627
     55626     55627     55628     55629     55628     55630     55629     55630
     55631     55632     55631     55633     55632     55633     55634     55635
     55634     55636     55635     55636     55637     55638     55637     55639
     55638     55639     55640     55641     55640     55642     55641     55642
     55643     55644     55643     55645     55644     55645     55646     55647
     55646     55648     55647     55648     55649     55650     55649     55651
     55650     55651     55652     55653     55652     55654     55653     55654
     55655     55656     55655     55657     55656     55657     55658     55659
     55658     55660     55659     55660     55661     55662     55661     55663
     55662     55663     55664     55665     55664     55666     55665     55666
     55667     55668     55667     55669     55668     55669     55670     55671
     55670     55672     55671     55672     55673     55674     55673     55675
     55674     55675     55676     55677     55676     55678     55677     55678
     55679     55680     55679     55681     55680     55681     55682     55683
     55682     55684     55683     55684     55685     55686     55685     55687
     55686     55687     55688     55689     55688     55690     55689     55690
     55691     55692     55691     55693     55692     55693     55694     55695
     55694     55696     55695     55696     55697     55698     55697     55699
     55698     55699     55700     55701     55700     55702     55701     55702
     55703     55704     55703     55705     55704     55705     55706     55707
     55706     55708     55707     55708     55709     55710     55709     55711
     55710     55711     55712     55713     55712     55714     55713     55714
     55715     55716     55715     55717     55716     55717     55718     55719
     55718     55720     55719     55720     55721     55722     55721     55723
     55722     55723     55724     55725     55724     55726     55725     55726
     55727     55728     55727     55729     55728     55729     55730     55731
     55730     55732     55731     55732     55733     55734     55733     55735
     55734     55735     55736     55737     55736     55738     55737     55738
     55739     55740     55739     55741     55740     55741     55742     55743
     55742     55744     55743     55744     55745     55746     55745     55747
     55746     55747     55748     55749     55748     55750     55749     55750
     55751     55752     55751     55753     55752     55753     55754     55755
     55754     55756     55755     55756     55757     55758     55757     55759
     55758     55759     55760     55761     55760     55762     55761     55762
     55763     55764     55763     55765     55764     55765     55766     55767
     55766     55768     55767     55768     55769     55770     55769     55771
     55770     55771     55772     55773     55772     55774     55773     55774
     55775     55776     55775     55777     55776     55777     55778     55779
     55778     55780     55779     55780     55781     55782     55781     55783
     55782     55783     55784     55785     55784     55786     55785     55786
     55787     55788     55787     55789     55788     55789     55790     55791
     55790     55792     55791     55792     55793     55794     55793     55795
     55794     55795     55796     55797     55796     55798     55797     55798
     55799     55800     55799     55801     55800     55801     55802     55803
     55802     55804     55803     55804     55805     55806     55805     55807
     55806     55807     55808     55809     55808     55810     55809     55810
     55811     55812     55811     55813     55812     55813     55814     55815
     55814     55816     55815     55816     55817     55818     55817     55819
     55818     55819     55820     55821     55820     55822     55821     55822
     55823     55824     55823     55825     55824     55825     55826     55827
     55826     55828     55827     55828     55829     55830     55829     55831
     55830     55831     55832     55833     55832     55834     55833     55834
     55835     55836     55835     55837     55836     55837     55838     55839
     55838     55840     55839     55840     55841     55842     55841     55843
     55842     55843     55844     55845     55844     55846     55845     55846
     55847     55848     55847     55849     55848     55849     55850     55851
     55850     55852     55851     55852     55853     55854     55853     55855
     55854     55855     55856     55857     55856     55858     55857     55858
     55859     55860     55859     55861     55860     55861     55862     55863
     55862     55864     55863     55864     55865     55866     55865     55867
     55866     55867     55868     55869     55868     55870     55869     55870
     55871     55872     55871     55873     55872     55873     55874     55875
     55874     55876     55875     55876     55877     55878     55877     55879
     55878     55879     55880     55881     55880     55882     55881     55882
     55883     55884     55883     55885     55884     55885     55886     55887
     55886     55888     55887     55888     55889     55890     55889     55891
     55890     55891     55892     55893     55892     55894     55893     55894
     55895     55896     55895     55897     55896     55897     55898     55899
     55898     55900     55899     55900     55901     55902     55901     55903
     55902     55903     55904     55905     55904     55906     55905     55906
     55907     55908     55907     55909     55908     55909     55910     55911
     55910     55912     55911     55912     55913     55914     55913     55915
     55914     55915     55916     55917     55916     55918     55917     55918
     55919     55920     55919     55921     55920     55921     55922     55923
     55922     55924     55923     55924     55925     55926     55925     55927
     55926     55927     55928     55929     55928     55930     55929     55930
     55931     55932     55931     55933     55932     55933     55934     55935
     55934     55936     55935     55936     55937     55938     55937     55939
     55938     55939     55940     55941     55940     55942     55941     55942
     55943     55944     55943     55945     55944     55945     55946     55947
     55946     55948     55947     55948     55949     55950     55949     55951
     55950     55951     55952     55953     55952     55954     55953     55954
     55955     55956     55955     55957     55956     55957     55958     55959
     55958     55960     55959     55960     55961     55962     55961     55963
     55962     55963     55964     55965     55964     55966     55965     55966
     55967     55968     55967     55969     55968     55969     55970     55971
     55970     55972     55971     55972     55973     55974     55973     55975
     55974     55975     55976     55977     55976     55978     55977     55978
     55979     55980     55979     55981     55980     55981     55982     55983
     55982     55984     55983     55984     55985     55986     55985     55987
     55986     55987     55988     55989     55988     55990     55989     55990
     55991     55992     55991     55993     55992     55993     55994     55995
     55994     55996     55995     55996     55997     55998     55997     55999
     55998     55999     56000     56001     56000     56002     56001     56002
     56003     56004     56003     56005     56004     56005     56006     56007
     56006     56008     56007     56008     56009     56010     56009     56011
     56010     56011     56012     56013     56012     56014     56013     56014
     56015     56016     56015     56017     56016     56017     56018     56019
     56018     56020     56019     56020     56021     56022     56021     56023
     56022     56023     56024     56025     56024     56026     56025     56026
     56027     56028     56027     56029     56028     56029     56030     56031
     56030     56032     56031     56032     56033     56034     56033     56035
     56034     56035     56036     56037     56036     56038     56037     56038
     56039     56040     56039     56041     56040     56041     56042     56043
     56042     56044     56043     56044     56045     56046     56045     56047
     56046     56047     56048     56049     56048     56050     56049     56050
     56051     56052     56051     56053     56052     56053     56054     56055
     56054     56056     56055     56056     56057     56058     56057     56059
     56058     56059     56060     56061     56060     56062     56061     56062
     56063     56064     56063     56065     56064     56065     56066     56067
     56066     56068     56067     56068     56069     56070     56069     56071
     56070     56071     56072     56073     56072     56074     56073     56074
     56075     56076     56075     56077     56076     56077     56078     56079
     56078     56080     56079     56080     56081     56082     56081     56083
     56082     56083     56084     56085     56084     56086     56085     56086
     56087     56088     56087     56089     56088     56089     56090     56091
     56090     56092     56091     56092     56093     56094     56093     56095
     56094     56095     56096     56097     56096     56098     56097     56098
     56099     56100     56099     56101     56100     56101     56102     56103
     56102     56104     56103     56104     56105     56106     56105     56107
     56106     56107     56108     56109     56108     56110     56109     56110
     56111     56112     56111     56113     56112     56113     56114     56115
     56114     56116     56115     56116     56117     56118     56117     56119
     56118     56119     56120     56121     56120     56122     56121     56122
     56123     56124     56123     56125     56124     56125     56126     56127
     56126     56128     56127     56128     56129     56130     56129     56131
     56130     56131     56132     56133     56132     56134     56133     56134
     56135     56136     56135     56137     56136     56137     56138     56139
     56138     56140     56139     56140     56141     56142     56141     56143
     56142     56143     56144     56145     56144     56146     56145     56146
     56147     56148     56147     56149     56148     56149     56150     56151
     56150     56152     56151     56152     56153     56154     56153     56155
     56154     56155     56156     56157     56156     56158     56157     56158
     56159     56160     56159     56161     56160     56161     56162     56163
     56162     56164     56163     56164     56165     56166     56165     56167
     56166     56167     56168     56169     56168     56170     56169     56170
     56171     56172     56171     56173     56172     56173     56174     56175
     56174     56176     56175     56176     56177     56178     56177     56179
     56178     56179     56180     56181     56180     56182     56181     56182
     56183     56184     56183     56185     56184     56185     56186     56187
     56186     56188     56187     56188     56189     56190     56189     56191
     56190     56191     56192     56193     56192     56194     56193     56194
     56195     56196     56195     56197     56196     56197     56198     56199
     56198     56200     56199     56200     56201     56202     56201     56203
     56202     56203     56204     56205     56204     56206     56205     56206
     56207     56208     56207     56209     56208     56209     56210     56211
     56210     56212     56211     56212     56213     56214     56213     56215
     56214     56215     56216     56217     56216     56218     56217     56218
     56219     56220     56219     56221     56220     56221     56222     56223
     56222     56224     56223     56224     56225     56226     56225     56227
     56226     56227     56228     56229     56228     56230     56229     56230
     56231     56232     56231     56233     56232     56233     56234     56235
     56234     56236     56235     56236     56237     56238     56237     56239
     56238     56239     56240     56241     56240     56242     56241     56242
     56243     56244     56243     56245     56244     56245     56246     56247
     56246     56248     56247     56248     56249     56250     56249     56251
     56250     56251     56252     56253     56252     56254     56253     56254
     56255     56256     56255     56257     56256     56257     56258     56259
     56258     56260     56259     56260     56261     56262     56261     56263
     56262     56263     56264     56265     56264     56266     56265     56266
     56267     56268     56267     56269     56268     56269     56270     56271
     56270     56272     56271     56272     56273     56274     56273     56275
     56274     56275     56276     56277     56276     56278     56277     56278
     56279     56280     56279     56281     56280     56281     56282     56283
     56282     56284     56283     56284     56285     56286     56285     56287
     56286     56287     56288     56289     56288     56290     56289     56290
     56291     56292     56291     56293     56292     56293     56294     56295
     56294     56296     56295     56296     56297     56298     56297     56299
     56298     56299     56300     56301     56300     56302     56301     56302
     56303     56304     56303     56305     56304     56305     56306     56307
     56306     56308     56307     56308     56309     56310     56309     56311
     56310     56311     56312     56313     56312     56314     56313     56314
     56315     56316     56315     56317     56316     56317     56318     56319
     56318     56320     56319     56320     56321     56322     56321     56323
     56322     56323     56324     56325     56324     56326     56325     56326
     56327     56328     56327     56329     56328     56329     56330     56331
     56330     56332     56331     56332     56333     56334     56333     56335
     56334     56335     56336     56337     56336     56338     56337     56338
     56339     56340     56339     56341     56340     56341     56342     56343
     56342     56344     56343     56344     56345     56346     56345     56347
     56346     56347     56348     56349     56348     56350     56349     56350
     56351     56352     56351     56353     56352     56353     56354     56355
     56354     56356     56355     56356     56357     56358     56357     56359
     56358     56359     56360     56361     56360     56362     56361     56362
     56363     56364     56363     56365     56364     56365     56366     56367
     56366     56368     56367     56368     56369     56370     56369     56371
     56370     56371     56372     56373     56372     56374     56373     56374
     56375     56376     56375     56377     56376     56377     56378     56379
     56378     56380     56379     56380     56381     56382     56381     56383
     56382     56383     56384     56385     56384     56386     56385     56386
     56387     56388     56387     56389     56388     56389     56390     56391
     56390     56392     56391     56392     56393     56394     56393     56395
     56394     56395     56396     56397     56396     56398     56397     56398
     56399     56400     56399     56401     56400     56401     56402     56403
     56402     56404     56403     56404     56405     56406     56405     56407
     56406     56407     56408     56409     56408     56410     56409     56410
     56411     56412     56411     56413     56412     56413     56414     56415
     56414     56416     56415     56416     56417     56418     56417     56419
     56418     56419     56420     56421     56420     56422     56421     56422
     56423     56424     56423     56425     56424     56425     56426     56427
     56426     56428     56427     56428     56429     56430     56429     56431
     56430     56431     56432     56433     56432     56434     56433     56434
     56435     56436     56435     56437     56436     56437     56438     56439
     56438     56440     56439     56440     56441     56442     56441     56443
     56442     56443     56444     56445     56444     56446     56445     56446
     56447     56448     56447     56449     56448     56449     56450     56451
     56450     56452     56451     56452     56453     56454     56453     56455
     56454     56455     56456     56457     56456     56458     56457     56458
     56459     56460     56459     56461     56460     56461     56462     56463
     56462     56464     56463     56464     56465     56466     56465     56467
     56466     56467     56468     56469     56468     56470     56469     56470
     56471     56472     56471     56473     56472     56473     56474     56475
     56474     56476     56475     56476     56477     56478     56477     56479
     56478     56479     56480     56481     56480     56482     56481     56482
     56483     56484     56483     56485     56484     56485     56486     56487
     56486     56488     56487     56488     56489     56490     56489     56491
     56490     56491     56492     56493     56492     56494     56493     56494
     56495     56496     56495     56497     56496     56497     56498     56499
     56498     56500     56499     56500     56501     56502     56501     56503
     56502     56503     56504     56505     56504     56506     56505     56506
     56507     56508     56507     56509     56508     56509     56510     56511
     56510     56512     56511     56512     56513     56514     56513     56515
     56514     56515     56516     56517     56516     56518     56517     56518
     56519     56520     56519     56521     56520     56521     56522     56523
     56522     56524     56523     56524     56525     56526     56525     56527
     56526     56527     56528     56529     56528     56530     56529     56530
     56531     56532     56531     56533     56532     56533     56534     56535
     56534     56536     56535     56536     56537     56538     56537     56539
     56538     56539     56540     56541     56540     56542     56541     56542
     56543     56544     56543     56545     56544     56545     56546     56547
     56546     56548     56547     56548     56549     56550     56549     56551
     56550     56551     56552     56553     56552     56554     56553     56554
     56555     56556     56555     56557     56556     56557     56558     56559
     56558     56560     56559     56560     56561     56562     56561     56563
     56562     56563     56564     56565     56564     56566     56565     56566
     56567     56568     56567     56569     56568     56569     56570     56571
     56570     56572     56571     56572     56573     56574     56573     56575
     56574     56575     56576     56577     56576     56578     56577     56578
     56579     56580     56579     56581     56580     56581     56582     56583
     56582     56584     56583     56584     56585     56586     56585     56587
     56586     56587     56588     56589     56588     56590     56589     56590
     56591     56592     56591     56593     56592     56593     56594     56595
     56594     56596     56595     56596     56597     56598     56597     56599
     56598     56599     56600     56601     56600     56602     56601     56602
     56603     56604     56603     56605     56604     56605     56606     56607
     56606     56608     56607     56608     56609     56610     56609     56611
     56610     56611     56612     56613     56612     56614     56613     56614
     56615     56616     56615     56617     56616     56617     56618     56619
     56618     56620     56619     56620     56621     56622     56621     56623
     56622     56623     56624     56625     56624     56626     56625     56626
     56627     56628     56627     56629     56628     56629     56630     56631
     56630     56632     56631     56632     56633     56634     56633     56635
     56634     56635     56636     56637     56636     56638     56637     56638
     56639     56640     56639     56641     56640     56641     56642     56643
     56642     56644     56643     56644     56645     56646     56645     56647
     56646     56647     56648     56649     56648     56650     56649     56650
     56651     56652     56651     56653     56652     56653     56654     56655
     56654     56656     56655     56656     56657     56658     56657     56659
     56658     56659     56660     56661     56660     56662     56661     56662
     56663     56664     56663     56665     56664     56665     56666     56667
     56666     56668     56667     56668     56669     56670     56669     56671
     56670     56671     56672     56673     56672     56674     56673     56674
     56675     56676     56675     56677     56676     56677     56678     56679
     56678     56680     56679     56680     56681     56682     56681     56683
     56682     56683     56684     56685     56684     56686     56685     56686
     56687     56688     56687     56689     56688     56689     56690     56691
     56690     56692     56691     56692     56693     56694     56693     56695
     56694     56695     56696     56697     56696     56698     56697     56698
     56699     56700     56699     56701     56700     56701     56702     56703
     56702     56704     56703     56704     56705     56706     56705     56707
     56706     56707     56708     56709     56708     56710     56709     56710
     56711     56712     56711     56713     56712     56713     56714     56715
     56714     56716     56715     56716     56717     56718     56717     56719
     56718     56719     56720     56721     56720     56722     56721     56722
     56723     56724     56723     56725     56724     56725     56726     56727
     56726     56728     56727     56728     56729     56730     56729     56731
     56730     56731     56732     56733     56732     56734     56733     56734
     56735     56736     56735     56737     56736     56737     56738     56739
     56738     56740     56739     56740     56741     56742     56741     56743
     56742     56743     56744     56745     56744     56746     56745     56746
     56747     56748     56747     56749     56748     56749     56750     56751
     56750     56752     56751     56752     56753     56754     56753     56755
     56754     56755     56756     56757     56756     56758     56757     56758
     56759     56760     56759     56761     56760     56761     56762     56763
     56762     56764     56763     56764     56765     56766     56765     56767
     56766     56767     56768     56769     56768     56770     56769     56770
     56771     56772     56771     56773     56772     56773     56774     56775
     56774     56776     56775     56776     56777     56778     56777     56779
     56778     56779     56780     56781     56780     56782     56781     56782
     56783     56784     56783     56785     56784     56785     56786     56787
     56786     56788     56787     56788     56789     56790     56789     56791
     56790     56791     56792     56793     56792     56794     56793     56794
     56795     56796     56795     56797     56796     56797     56798     56799
     56798     56800     56799     56800     56801     56802     56801     56803
     56802     56803     56804     56805     56804     56806     56805     56806
     56807     56808     56807     56809     56808     56809     56810     56811
     56810     56812     56811     56812     56813     56814     56813     56815
     56814     56815     56816     56817     56816     56818     56817     56818
     56819     56820     56819     56821     56820     56821     56822     56823
     56822     56824     56823     56824     56825     56826     56825     56827
     56826     56827     56828     56829     56828     56830     56829     56830
     56831     56832     56831     56833     56832     56833     56834     56835
     56834     56836     56835     56836     56837     56838     56837     56839
     56838     56839     56840     56841     56840     56842     56841     56842
     56843     56844     56843     56845     56844     56845     56846     56847
     56846     56848     56847     56848     56849     56850     56849     56851
     56850     56851     56852     56853     56852     56854     56853     56854
     56855     56856     56855     56857     56856     56857     56858     56859
     56858     56860     56859     56860     56861     56862     56861     56863
     56862     56863     56864     56865     56864     56866     56865     56866
     56867     56868     56867     56869     56868     56869     56870     56871
     56870     56872     56871     56872     56873     56874     56873     56875
     56874     56875     56876     56877     56876     56878     56877     56878
     56879     56880     56879     56881     56880     56881     56882     56883
     56882     56884     56883     56884     56885     56886     56885     56887
     56886     56887     56888     56889     56888     56890     56889     56890
     56891     56892     56891     56893     56892     56893     56894     56895
     56894     56896     56895     56896     56897     56898     56897     56899
     56898     56899     56900     56901     56900     56902     56901     56902
     56903     56904     56903     56905     56904     56905     56906     56907
     56906     56908     56907     56908     56909     56910     56909     56911
     56910     56911     56912     56913     56912     56914     56913     56914
     56915     56916     56915     56917     56916     56917     56918     56919
     56918     56920     56919     56920     56921     56922     56921     56923
     56922     56923     56924     56925     56924     56926     56925     56926
     56927     56928     56927     56929     56928     56929     56930     56931
     56930     56932     56931     56932     56933     56934     56933     56935
     56934     56935     56936     56937     56936     56938     56937     56938
     56939     56940     56939     56941     56940     56941     56942     56943
     56942     56944     56943     56944     56945     56946     56945     56947
     56946     56947     56948     56949     56948     56950     56949     56950
     56951     56952     56951     56953     56952     56953     56954     56955
     56954     56956     56955     56956     56957     56958     56957     56959
     56958     56959     56960     56961     56960     56962     56961     56962
     56963     56964     56963     56965     56964     56965     56966     56967
     56966     56968     56967     56968     56969     56970     56969     56971
     56970     56971     56972     56973     56972     56974     56973     56974
     56975     56976     56975     56977     56976     56977     56978     56979
     56978     56980     56979     56980     56981     56982     56981     56983
     56982     56983     56984     56985     56984     56986     56985     56986
     56987     56988     56987     56989     56988     56989     56990     56991
     56990     56992     56991     56992     56993     56994     56993     56995
     56994     56995     56996     56997     56996     56998     56997     56998
     56999     57000     56999     57001     57000     57001     57002     57003
     57002     57004     57003     57004     57005     57006     57005     57007
     57006     57007     57008     57009     57008     57010     57009     57010
     57011     57012     57011     57013     57012     57013     57014     57015
     57014     57016     57015     57016     57017     57018     57017     57019
     57018     57019     57020     57021     57020     57022     57021     57022
     57023     57024     57023     57025     57024     57025     57026     57027
     57026     57028     57027     57028     57029     57030     57029     57031
     57030     57031     57032     57033     57032     57034     57033     57034
     57035     57036     57035     57037     57036     57037     57038     57039
     57038     57040     57039     57040     57041     57042     57041     57043
     57042     57043     57044     57045     57044     57046     57045     57046
     57047     57048     57047     57049     57048     57049     57050     57051
     57050     57052     57051     57052     57053     57054     57053     57055
     57054     57055     57056     57057     57056     57058     57057     57058
     57059     57060     57059     57061     57060     57061     57062     57063
     57062     57064     57063     57064     57065     57066     57065     57067
     57066     57067     57068     57069     57068     57070     57069     57070
     57071     57072     57071     57073     57072     57073     57074     57075
     57074     57076     57075     57076     57077     57078     57077     57079
     57078     57079     57080     57081     57080     57082     57081     57082
     57083     57084     57083     57085     57084     57085     57086     57087
     57086     57088     57087     57088     57089     57090     57089     57091
     57090     57091     57092     57093     57092     57094     57093     57094
     57095     57096     57095     57097     57096     57097     57098     57099
     57098     57100     57099     57100     57101     57102     57101     57103
     57102     57103     57104     57105     57104     57106     57105     57106
     57107     57108     57107     57109     57108     57109     57110     57111
     57110     57112     57111     57112     57113     57114     57113     57115
     57114     57115     57116     57117     57116     57118     57117     57118
     57119     57120     57119     57121     57120     57121     57122     57123
     57122     57124     57123     57124     57125     57126     57125     57127
     57126     57127     57128     57129     57128     57130     57129     57130
     57131     57132     57131     57133     57132     57133     57134     57135
     57134     57136     57135     57136     57137     57138     57137     57139
     57138     57139     57140     57141     57140     57142     57141     57142
     57143     57144     57143     57145     57144     57145     57146     57147
     57146     57148     57147     57148     57149     57150     57149     57151
     57150     57151     57152     57153     57152     57154     57153     57154
     57155     57156     57155     57157     57156     57157     57158     57159
     57158     57160     57159     57160     57161     57162     57161     57163
     57162     57163     57164     57165     57164     57166     57165     57166
     57167     57168     57167     57169     57168     57169     57170     57171
     57170     57172     57171     57172     57173     57174     57173     57175
     57174     57175     57176     57177     57176     57178     57177     57178
     57179     57180     57179     57181     57180     57181     57182     57183
     57182     57184     57183     57184     57185     57186     57185     57187
     57186     57187     57188     57189     57188     57190     57189     57190
     57191     57192     57191     57193     57192     57193     57194     57195
     57194     57196     57195     57196     57197     57198     57197     57199
     57198     57199     57200     57201     57200     57202     57201     57202
     57203     57204     57203     57205     57204     57205     57206     57207
     57206     57208     57207     57208     57209     57210     57209     57211
     57210     57211     57212     57213     57212     57214     57213     57214
     57215     57216     57215     57217     57216     57217     57218     57219
     57218     57220     57219     57220     57221     57222     57221     57223
     57222     57223     57224     57225     57224     57226     57225     57226
     57227     57228     57227     57229     57228     57229     57230     57231
     57230     57232     57231     57232     57233     57234     57233     57235
     57234     57235     57236     57237     57236     57238     57237     57238
     57239     57240     57239     57241     57240     57241     57242     57243
     57242     57244     57243     57244     57245     57246     57245     57247
     57246     57247     57248     57249     57248     57250     57249     57250
     57251     57252     57251     57253     57252     57253     57254     57255
     57254     57256     57255     57256     57257     57258     57257     57259
     57258     57259     57260     57261     57260     57262     57261     57262
     57263     57264     57263     57265     57264     57265     57266     57267
     57266     57268     57267     57268     57269     57270     57269     57271
     57270     57271     57272     57273     57272     57274     57273     57274
     57275     57276     57275     57277     57276     57277     57278     57279
     57278     57280     57279     57280     57281     57282     57281     57283
     57282     57283     57284     57285     57284     57286     57285     57286
     57287     57288     57287     57289     57288     57289     57290     57291
     57290     57292     57291     57292     57293     57294     57293     57295
     57294     57295     57296     57297     57296     57298     57297     57298
     57299     57300     57299     57301     57300     57301     57302     57303
     57302     57304     57303     57304     57305     57306     57305     57307
     57306     57307     57308     57309     57308     57310     57309     57310
     57311     57312     57311     57313     57312     57313     57314     57315
     57314     57316     57315     57316     57317     57318     57317     57319
     57318     57319     57320     57321     57320     57322     57321     57322
     57323     57324     57323     57325     57324     57325     57326     57327
     57326     57328     57327     57328     57329     57330     57329     57331
     57330     57331     57332     57333     57332     57334     57333     57334
     57335     57336     57335     57337     57336     57337     57338     57339
     57338     57340     57339     57340     57341     57342     57341     57343
     57342     57343     57344     57345     57344     57346     57345     57346
     57347     57348     57347     57349     57348     57349     57350     57351
     57350     57352     57351     57352     57353     57354     57353     57355
     57354     57355     57356     57357     57356     57358     57357     57358
     57359     57360     57359     57361     57360     57361     57362     57363
     57362     57364     57363     57364     57365     57366     57365     57367
     57366     57367     57368     57369     57368     57370     57369     57370
     57371     57372     57371     57373     57372     57373     57374     57375
     57374     57376     57375     57376     57377     57378     57377     57379
     57378     57379     57380     57381     57380     57382     57381     57382
     57383     57384     57383     57385     57384     57385     57386     57387
     57386     57388     57387     57388     57389     57390     57389     57391
     57390     57391     57392     57393     57392     57394     57393     57394
     57395     57396     57395     57397     57396     57397     57398     57399
     57398     57400     57399     57400     57401     57402     57401     57403
     57402     57403     57404     57405     57404     57406     57405     57406
     57407     57408     57407     57409     57408     57409     57410     57411
     57410     57412     57411     57412     57413     57414     57413     57415
     57414     57415     57416     57417     57416     57418     57417     57418
     57419     57420     57419     57421     57420     57421     57422     57423
     57422     57424     57423     57424     57425     57426     57425     57427
     57426     57427     57428     57429     57428     57430     57429     57430
     57431     57432     57431     57433     57432     57433     57434     57435
     57434     57436     57435     57436     57437     57438     57437     57439
     57438     57439     57440     57441     57440     57442     57441     57442
     57443     57444     57443     57445     57444     57445     57446     57447
     57446     57448     57447     57448     57449     57450     57449     57451
     57450     57451     57452     57453     57452     57454     57453     57454
     57455     57456     57455     57457     57456     57457     57458     57459
     57458     57460     57459     57460     57461     57462     57461     57463
     57462     57463     57464     57465     57464     57466     57465     57466
     57467     57468     57467     57469     57468     57469     57470     57471
     57470     57472     57471     57472     57473     57474     57473     57475
     57474     57475     57476     57477     57476     57478     57477     57478
     57479     57480     57479     57481     57480     57481     57482     57483
     57482     57484     57483     57484     57485     57486     57485     57487
     57486     57487     57488     57489     57488     57490     57489     57490
     57491     57492     57491     57493     57492     57493     57494     57495
     57494     57496     57495     57496     57497     57498     57497     57499
     57498     57499     57500     57501     57500     57502     57501     57502
     57503     57504     57503     57505     57504     57505     57506     57507
     57506     57508     57507     57508     57509     57510     57509     57511
     57510     57511     57512     57513     57512     57514     57513     57514
     57515     57516     57515     57517     57516     57517     57518     57519
     57518     57520     57519     57520     57521     57522     57521     57523
     57522     57523     57524     57525     57524     57526     57525     57526
     57527     57528     57527     57529     57528     57529     57530     57531
     57530     57532     57531     57532     57533     57534     57533     57535
     57534     57535     57536     57537     57536     57538     57537     57538
     57539     57540     57539     57541     57540     57541     57542     57543
     57542     57544     57543     57544     57545     57546     57545     57547
     57546     57547     57548     57549     57548     57550     57549     57550
     57551     57552     57551     57553     57552     57553     57554     57555
     57554     57556     57555     57556     57557     57558     57557     57559
     57558     57559     57560     57561     57560     57562     57561     57562
     57563     57564     57563     57565     57564     57565     57566     57567
     57566     57568     57567     57568     57569     57570     57569     57571
     57570     57571     57572     57573     57572     57574     57573     57574
     57575     57576     57575     57577     57576     57577     57578     57579
     57578     57580     57579     57580     57581     57582     57581     57583
     57582     57583     57584     57585     57584     57586     57585     57586
     57587     57588     57587     57589     57588     57589     57590     57591
     57590     57592     57591     57592     57593     57594     57593     57595
     57594     57595     57596     57597     57596     57598     57597     57598
     57599     57600     57599     57601     57600     57601     57602     57603
     57602     57604     57603     57604     57605     57606     57605     57607
     57606     57607     57608     57609     57608     57610     57609     57610
     57611     57612     57611     57613     57612     57613     57614     57615
     57614     57616     57615     57616     57617     57618     57617     57619
     57618     57619     57620     57621     57620     57622     57621     57622
     57623     57624     57623     57625     57624     57625     57626     57627
     57626     57628     57627     57628     57629     57630     57629     57631
     57630     57631     57632     57633     57632     57634     57633     57634
     57635     57636     57635     57637     57636     57637     57638     57639
     57638     57640     57639     57640     57641     57642     57641     57643
     57642     57643     57644     57645     57644     57646     57645     57646
     57647     57648     57647     57649     57648     57649     57650     57651
     57650     57652     57651     57652     57653     57654     57653     57655
     57654     57655     57656     57657     57656     57658     57657     57658
     57659     57660     57659     57661     57660     57661     57662     57663
     57662     57664     57663     57664     57665     57666     57665     57667
     57666     57667     57668     57669     57668     57670     57669     57670
     57671     57672     57671     57673     57672     57673     57674     57675
     57674     57676     57675     57676     57677     57678     57677     57679
     57678     57679     57680     57681     57680     57682     57681     57682
     57683     57684     57683     57685     57684     57685     57686     57687
     57686     57688     57687     57688     57689     57690     57689     57691
     57690     57691     57692     57693     57692     57694     57693     57694
     57695     57696     57695     57697     57696     57697     57698     57699
     57698     57700     57699     57700     57701     57702     57701     57703
     57702     57703     57704     57705     57704     57706     57705     57706
     57707     57708     57707     57709     57708     57709     57710     57711
     57710     57712     57711     57712     57713     57714     57713     57715
     57714     57715     57716     57717     57716     57718     57717     57718
     57719     57720     57719     57721     57720     57721     57722     57723
     57722     57724     57723     57724     57725     57726     57725     57727
     57726     57727     57728     57729     57728     57730     57729     57730
     57731     57732     57731     57733     57732     57733     57734     57735
     57734     57736     57735     57736     57737     57738     57737     57739
     57738     57739     57740     57741     57740     57742     57741     57742
     57743     57744     57743     57745     57744     57745     57746     57747
     57746     57748     57747     57748     57749     57750     57749     57751
     57750     57751     57752     57753     57752     57754     57753     57754
     57755     57756     57755     57757     57756     57757     57758     57759
     57758     57760     57759     57760     57761     57762     57761     57763
     57762     57763     57764     57765     57764     57766     57765     57766
     57767     57768     57767     57769     57768     57769     57770     57771
     57770     57772     57771     57772     57773     57774     57773     57775
     57774     57775     57776     57777     57776     57778     57777     57778
     57779     57780     57779     57781     57780     57781     57782     57783
     57782     57784     57783     57784     57785     57786     57785     57787
     57786     57787     57788     57789     57788     57790     57789     57790
     57791     57792     57791     57793     57792     57793     57794     57795
     57794     57796     57795     57796     57797     57798     57797     57799
     57798     57799     57800     57801     57800     57802     57801     57802
     57803     57804     57803     57805     57804     57805     57806     57807
     57806     57808     57807     57808     57809     57810     57809     57811
     57810     57811     57812     57813     57812     57814     57813     57814
     57815     57816     57815     57817     57816     57817     57818     57819
     57818     57820     57819     57820     57821     57822     57821     57823
     57822     57823     57824     57825     57824     57826     57825     57826
     57827     57828     57827     57829     57828     57829     57830     57831
     57830     57832     57831     57832     57833     57834     57833     57835
     57834     57835     57836     57837     57836     57838     57837     57838
     57839     57840     57839     57841     57840     57841     57842     57843
     57842     57844     57843     57844     57845     57846     57845     57847
     57846     57847     57848     57849     57848     57850     57849     57850
     57851     57852     57851     57853     57852     57853     57854     57855
     57854     57856     57855     57856     57857     57858     57857     57859
     57858     57859     57860     57861     57860     57862     57861     57862
     57863     57864     57863     57865     57864     57865     57866     57867
     57866     57868     57867     57868     57869     57870     57869     57871
     57870     57871     57872     57873     57872     57874     57873     57874
     57875     57876     57875     57877     57876     57877     57878     57879
     57878     57880     57879     57880     57881     57882     57881     57883
     57882     57883     57884     57885     57884     57886     57885     57886
     57887     57888     57887     57889     57888     57889     57890     57891
     57890     57892     57891     57892     57893     57894     57893     57895
     57894     57895     57896     57897     57896     57898     57897     57898
     57899     57900     57899     57901     57900     57901     57902     57903
     57902     57904     57903     57904     57905     57906     57905     57907
     57906     57907     57908     57909     57908     57910     57909     57910
     57911     57912     57911     57913     57912     57913     57914     57915
     57914     57916     57915     57916     57917     57918     57917     57919
     57918     57919     57920     57921     57920     57922     57921     57922
     57923     57924     57923     57925     57924     57925     57926     57927
     57926     57928     57927     57928     57929     57930     57929     57931
     57930     57931     57932     57933     57932     57934     57933     57934
     57935     57936     57935     57937     57936     57937     57938     57939
     57938     57940     57939     57940     57941     57942     57941     57943
     57942     57943     57944     57945     57944     57946     57945     57946
     57947     57948     57947     57949     57948     57949     57950     57951
     57950     57952     57951     57952     57953     57954     57953     57955
     57954     57955     57956     57957     57956     57958     57957     57958
     57959     57960     57959     57961     57960     57961     57962     57963
     57962     57964     57963     57964     57965     57966     57965     57967
     57966     57967     57968     57969     57968     57970     57969     57970
     57971     57972     57971     57973     57972     57973     57974     57975
     57974     57976     57975     57976     57977     57978     57977     57979
     57978     57979     57980     57981     57980     57982     57981     57982
     57983     57984     57983     57985     57984     57985     57986     57987
     57986     57988     57987     57988     57989     57990     57989     57991
     57990     57991     57992     57993     57992     57994     57993     57994
     57995     57996     57995     57997     57996     57997     57998     57999
     57998     58000     57999     58000     58001     58002     58001     58003
     58002     58003     58004     58005     58004     58006     58005     58006
     58007     58008     58007     58009     58008     58009     58010     58011
     58010     58012     58011     58012     58013     58014     58013     58015
     58014     58015     58016     58017     58016     58018     58017     58018
     58019     58020     58019     58021     58020     58021     58022     58023
     58022     58024     58023     58024     58025     58026     58025     58027
     58026     58027     58028     58029     58028     58030     58029     58030
     58031     58032     58031     58033     58032     58033     58034     58035
     58034     58036     58035     58036     58037     58038     58037     58039
     58038     58039     58040     58041     58040     58042     58041     58042
     58043     58044     58043     58045     58044     58045     58046     58047
     58046     58048     58047     58048     58049     58050     58049     58051
     58050     58051     58052     58053     58052     58054     58053     58054
     58055     58056     58055     58057     58056     58057     58058     58059
     58058     58060     58059     58060     58061     58062     58061     58063
     58062     58063     58064     58065     58064     58066     58065     58066
     58067     58068     58067     58069     58068     58069     58070     58071
     58070     58072     58071     58072     58073     58074     58073     58075
     58074     58075     58076     58077     58076     58078     58077     58078
     58079     58080     58079     58081     58080     58081     58082     58083
     58082     58084     58083     58084     58085     58086     58085     58087
     58086     58087     58088     58089     58088     58090     58089     58090
     58091     58092     58091     58093     58092     58093     58094     58095
     58094     58096     58095     58096     58097     58098     58097     58099
     58098     58099     58100     58101     58100     58102     58101     58102
     58103     58104     58103     58105     58104     58105     58106     58107
     58106     58108     58107     58108     58109     58110     58109     58111
     58110     58111     58112     58113     58112     58114     58113     58114
     58115     58116     58115     58117     58116     58117     58118     58119
     58118     58120     58119     58120     58121     58122     58121     58123
     58122     58123     58124     58125     58124     58126     58125     58126
     58127     58128     58127     58129     58128     58129     58130     58131
     58130     58132     58131     58132     58133     58134     58133     58135
     58134     58135     58136     58137     58136     58138     58137     58138
     58139     58140     58139     58141     58140     58141     58142     58143
     58142     58144     58143     58144     58145     58146     58145     58147
     58146     58147     58148     58149     58148     58150     58149     58150
     58151     58152     58151     58153     58152     58153     58154     58155
     58154     58156     58155     58156     58157     58158     58157     58159
     58158     58159     58160     58161     58160     58162     58161     58162
     58163     58164     58163     58165     58164     58165     58166     58167
     58166     58168     58167     58168     58169     58170     58169     58171
     58170     58171     58172     58173     58172     58174     58173     58174
     58175     58176     58175     58177     58176     58177     58178     58179
     58178     58180     58179     58180     58181     58182     58181     58183
     58182     58183     58184     58185     58184     58186     58185     58186
     58187     58188     58187     58189     58188     58189     58190     58191
     58190     58192     58191     58192     58193     58194     58193     58195
     58194     58195     58196     58197     58196     58198     58197     58198
     58199     58200     58199     58201     58200     58201     58202     58203
     58202     58204     58203     58204     58205     58206     58205     58207
     58206     58207     58208     58209     58208     58210     58209     58210
     58211     58212     58211     58213     58212     58213     58214     58215
     58214     58216     58215     58216     58217     58218     58217     58219
     58218     58219     58220     58221     58220     58222     58221     58222
     58223     58224     58223     58225     58224     58225     58226     58227
     58226     58228     58227     58228     58229     58230     58229     58231
     58230     58231     58232     58233     58232     58234     58233     58234
     58235     58236     58235     58237     58236     58237     58238     58239
     58238     58240     58239     58240     58241     58242     58241     58243
     58242     58243     58244     58245     58244     58246     58245     58246
     58247     58248     58247     58249     58248     58249     58250     58251
     58250     58252     58251     58252     58253     58254     58253     58255
     58254     58255     58256     58257     58256     58258     58257     58258
     58259     58260     58259     58261     58260     58261     58262     58263
     58262     58264     58263     58264     58265     58266     58265     58267
     58266     58267     58268     58269     58268     58270     58269     58270
     58271     58272     58271     58273     58272     58273     58274     58275
     58274     58276     58275     58276     58277     58278     58277     58279
     58278     58279     58280     58281     58280     58282     58281     58282
     58283     58284     58283     58285     58284     58285     58286     58287
     58286     58288     58287     58288     58289     58290     58289     58291
     58290     58291     58292     58293     58292     58294     58293     58294
     58295     58296     58295     58297     58296     58297     58298     58299
     58298     58300     58299     58300     58301     58302     58301     58303
     58302     58303     58304     58305     58304     58306     58305     58306
     58307     58308     58307     58309     58308     58309     58310     58311
     58310     58312     58311     58312     58313     58314     58313     58315
     58314     58315     58316     58317     58316     58318     58317     58318
     58319     58320     58319     58321     58320     58321     58322     58323
     58322     58324     58323     58324     58325     58326     58325     58327
     58326     58327     58328     58329     58328     58330     58329     58330
     58331     58332     58331     58333     58332     58333     58334     58335
     58334     58336     58335     58336     58337     58338     58337     58339
     58338     58339     58340     58341     58340     58342     58341     58342
     58343     58344     58343     58345     58344     58345     58346     58347
     58346     58348     58347     58348     58349     58350     58349     58351
     58350     58351     58352     58353     58352     58354     58353     58354
     58355     58356     58355     58357     58356     58357     58358     58359
     58358     58360     58359     58360     58361     58362     58361     58363
     58362     58363     58364     58365     58364     58366     58365     58366
     58367     58368     58367     58369     58368     58369     58370     58371
     58370     58372     58371     58372     58373     58374     58373     58375
     58374     58375     58376     58377     58376     58378     58377     58378
     58379     58380     58379     58381     58380     58381     58382     58383
     58382     58384     58383     58384     58385     58386     58385     58387
     58386     58387     58388     58389     58388     58390     58389     58390
     58391     58392     58391     58393     58392     58393     58394     58395
     58394     58396     58395     58396     58397     58398     58397     58399
     58398     58399     58400     58401     58400     58402     58401     58402
     58403     58404     58403     58405     58404     58405     58406     58407
     58406     58408     58407     58408     58409     58410     58409     58411
     58410     58411     58412     58413     58412     58414     58413     58414
     58415     58416     58415     58417     58416     58417     58418     58419
     58418     58420     58419     58420     58421     58422     58421     58423
     58422     58423     58424     58425     58424     58426     58425     58426
     58427     58428     58427     58429     58428     58429     58430     58431
     58430     58432     58431     58432     58433     58434     58433     58435
     58434     58435     58436     58437     58436     58438     58437     58438
     58439     58440     58439     58441     58440     58441     58442     58443
     58442     58444     58443     58444     58445     58446     58445     58447
     58446     58447     58448     58449     58448     58450     58449     58450
     58451     58452     58451     58453     58452     58453     58454     58455
     58454     58456     58455     58456     58457     58458     58457     58459
     58458     58459     58460     58461     58460     58462     58461     58462
     58463     58464     58463     58465     58464     58465     58466     58467
     58466     58468     58467     58468     58469     58470     58469     58471
     58470     58471     58472     58473     58472     58474     58473     58474
     58475     58476     58475     58477     58476     58477     58478     58479
     58478     58480     58479     58480     58481     58482     58481     58483
     58482     58483     58484     58485     58484     58486     58485     58486
     58487     58488     58487     58489     58488     58489     58490     58491
     58490     58492     58491     58492     58493     58494     58493     58495
     58494     58495     58496     58497     58496     58498     58497     58498
     58499     58500     58499     58501     58500     58501     58502     58503
     58502     58504     58503     58504     58505     58506     58505     58507
     58506     58507     58508     58509     58508     58510     58509     58510
     58511     58512     58511     58513     58512     58513     58514     58515
     58514     58516     58515     58516     58517     58518     58517     58519
     58518     58519     58520     58521     58520     58522     58521     58522
     58523     58524     58523     58525     58524     58525     58526     58527
     58526     58528     58527     58528     58529     58530     58529     58531
     58530     58531     58532     58533     58532     58534     58533     58534
     58535     58536     58535     58537     58536     58537     58538     58539
     58538     58540     58539     58540     58541     58542     58541     58543
     58542     58543     58544     58545     58544     58546     58545     58546
     58547     58548     58547     58549     58548     58549     58550     58551
     58550     58552     58551     58552     58553     58554     58553     58555
     58554     58555     58556     58557     58556     58558     58557     58558
     58559     58560     58559     58561     58560     58561     58562     58563
     58562     58564     58563     58564     58565     58566     58565     58567
     58566     58567     58568     58569     58568     58570     58569     58570
     58571     58572     58571     58573     58572     58573     58574     58575
     58574     58576     58575     58576     58577     58578     58577     58579
     58578     58579     58580     58581     58580     58582     58581     58582
     58583     58584     58583     58585     58584     58585     58586     58587
     58586     58588     58587     58588     58589     58590     58589     58591
     58590     58591     58592     58593     58592     58594     58593     58594
     58595     58596     58595     58597     58596     58597     58598     58599
     58598     58600     58599     58600     58601     58602     58601     58603
     58602     58603     58604     58605     58604     58606     58605     58606
     58607     58608     58607     58609     58608     58609     58610     58611
     58610     58612     58611     58612     58613     58614     58613     58615
     58614     58615     58616     58617     58616     58618     58617     58618
     58619     58620     58619     58621     58620     58621     58622     58623
     58622     58624     58623     58624     58625     58626     58625     58627
     58626     58627     58628     58629     58628     58630     58629     58630
     58631     58632     58631     58633     58632     58633     58634     58635
     58634     58636     58635     58636     58637     58638     58637     58639
     58638     58639     58640     58641     58640     58642     58641     58642
     58643     58644     58643     58645     58644     58645     58646     58647
     58646     58648     58647     58648     58649     58650     58649     58651
     58650     58651     58652     58653     58652     58654     58653     58654
     58655     58656     58655     58657     58656     58657     58658     58659
     58658     58660     58659     58660     58661     58662     58661     58663
     58662     58663     58664     58665     58664     58666     58665     58666
     58667     58668     58667     58669     58668     58669     58670     58671
     58670     58672     58671     58672     58673     58674     58673     58675
     58674     58675     58676     58677     58676     58678     58677     58678
     58679     58680     58679     58681     58680     58681     58682     58683
     58682     58684     58683     58684     58685     58686     58685     58687
     58686     58687     58688     58689     58688     58690     58689     58690
     58691     58692     58691     58693     58692     58693     58694     58695
     58694     58696     58695     58696     58697     58698     58697     58699
     58698     58699     58700     58701     58700     58702     58701     58702
     58703     58704     58703     58705     58704     58705     58706     58707
     58706     58708     58707     58708     58709     58710     58709     58711
     58710     58711     58712     58713     58712     58714     58713     58714
     58715     58716     58715     58717     58716     58717     58718     58719
     58718     58720     58719     58720     58721     58722     58721     58723
     58722     58723     58724     58725     58724     58726     58725     58726
     58727     58728     58727     58729     58728     58729     58730     58731
     58730     58732     58731     58732     58733     58734     58733     58735
     58734     58735     58736     58737     58736     58738     58737     58738
     58739     58740     58739     58741     58740     58741     58742     58743
     58742     58744     58743     58744     58745     58746     58745     58747
     58746     58747     58748     58749     58748     58750     58749     58750
     58751     58752     58751     58753     58752     58753     58754     58755
     58754     58756     58755     58756     58757     58758     58757     58759
     58758     58759     58760     58761     58760     58762     58761     58762
     58763     58764     58763     58765     58764     58765     58766     58767
     58766     58768     58767     58768     58769     58770     58769     58771
     58770     58771     58772     58773     58772     58774     58773     58774
     58775     58776     58775     58777     58776     58777     58778     58779
     58778     58780     58779     58780     58781     58782     58781     58783
     58782     58783     58784     58785     58784     58786     58785     58786
     58787     58788     58787     58789     58788     58789     58790     58791
     58790     58792     58791     58792     58793     58794     58793     58795
     58794     58795     58796     58797     58796     58798     58797     58798
     58799     58800     58799     58801     58800     58801     58802     58803
     58802     58804     58803     58804     58805     58806     58805     58807
     58806     58807     58808     58809     58808     58810     58809     58810
     58811     58812     58811     58813     58812     58813     58814     58815
     58814     58816     58815     58816     58817     58818     58817     58819
     58818     58819     58820     58821     58820     58822     58821     58822
     58823     58824     58823     58825     58824     58825     58826     58827
     58826     58828     58827     58828     58829     58830     58829     58831
     58830     58831     58832     58833     58832     58834     58833     58834
     58835     58836     58835     58837     58836     58837     58838     58839
     58838     58840     58839     58840     58841     58842     58841     58843
     58842     58843     58844     58845     58844     58846     58845     58846
     58847     58848     58847     58849     58848     58849     58850     58851
     58850     58852     58851     58852     58853     58854     58853     58855
     58854     58855     58856     58857     58856     58858     58857     58858
     58859     58860     58859     58861     58860     58861     58862     58863
     58862     58864     58863     58864     58865     58866     58865     58867
     58866     58867     58868     58869     58868     58870     58869     58870
     58871     58872     58871     58873     58872     58873     58874     58875
     58874     58876     58875     58876     58877     58878     58877     58879
     58878     58879     58880     58881     58880     58882     58881     58882
     58883     58884     58883     58885     58884     58885     58886     58887
     58886     58888     58887     58888     58889     58890     58889     58891
     58890     58891     58892     58893     58892     58894     58893     58894
     58895     58896     58895     58897     58896     58897     58898     58899
     58898     58900     58899     58900     58901     58902     58901     58903
     58902     58903     58904     58905     58904     58906     58905     58906
     58907     58908     58907     58909     58908     58909     58910     58911
     58910     58912     58911     58912     58913     58914     58913     58915
     58914     58915     58916     58917     58916     58918     58917     58918
     58919     58920     58919     58921     58920     58921     58922     58923
     58922     58924     58923     58924     58925     58926     58925     58927
     58926     58927     58928     58929     58928     58930     58929     58930
     58931     58932     58931     58933     58932     58933     58934     58935
     58934     58936     58935     58936     58937     58938     58937     58939
     58938     58939     58940     58941     58940     58942     58941     58942
     58943     58944     58943     58945     58944     58945     58946     58947
     58946     58948     58947     58948     58949     58950     58949     58951
     58950     58951     58952     58953     58952     58954     58953     58954
     58955     58956     58955     58957     58956     58957     58958     58959
     58958     58960     58959     58960     58961     58962     58961     58963
     58962     58963     58964     58965     58964     58966     58965     58966
     58967     58968     58967     58969     58968     58969     58970     58971
     58970     58972     58971     58972     58973     58974     58973     58975
     58974     58975     58976     58977     58976     58978     58977     58978
     58979     58980     58979     58981     58980     58981     58982     58983
     58982     58984     58983     58984     58985     58986     58985     58987
     58986     58987     58988     58989     58988     58990     58989     58990
     58991     58992     58991     58993     58992     58993     58994     58995
     58994     58996     58995     58996     58997     58998     58997     58999
     58998     58999     59000     59001     59000     59002     59001     59002
     59003     59004     59003     59005     59004     59005     59006     59007
     59006     59008     59007     59008     59009     59010     59009     59011
     59010     59011     59012     59013     59012     59014     59013     59014
     59015     59016     59015     59017     59016     59017     59018     59019
     59018     59020     59019     59020     59021     59022     59021     59023
     59022     59023     59024     59025     59024     59026     59025     59026
     59027     59028     59027     59029     59028     59029     59030     59031
     59030     59032     59031     59032     59033     59034     59033     59035
     59034     59035     59036     59037     59036     59038     59037     59038
     59039     59040     59039     59041     59040     59041     59042     59043
     59042     59044     59043     59044     59045     59046     59045     59047
     59046     59047     59048     59049     59048     59050     59049     59050
     59051     59052     59051     59053     59052     59053     59054     59055
     59054     59056     59055     59056     59057     59058     59057     59059
     59058     59059     59060     59061     59060     59062     59061     59062
     59063     59064     59063     59065     59064     59065     59066     59067
     59066     59068     59067     59068     59069     59070     59069     59071
     59070     59071     59072     59073     59072     59074     59073     59074
     59075     59076     59075     59077     59076     59077     59078     59079
     59078     59080     59079     59080     59081     59082     59081     59083
     59082     59083     59084     59085     59084     59086     59085     59086
     59087     59088     59087     59089     59088     59089     59090     59091
     59090     59092     59091     59092     59093     59094     59093     59095
     59094     59095     59096     59097     59096     59098     59097     59098
     59099     59100     59099     59101     59100     59101     59102     59103
     59102     59104     59103     59104     59105     59106     59105     59107
     59106     59107     59108     59109     59108     59110     59109     59110
     59111     59112     59111     59113     59112     59113     59114     59115
     59114     59116     59115     59116     59117     59118     59117     59119
     59118     59119     59120     59121     59120     59122     59121     59122
     59123     59124     59123     59125     59124     59125     59126     59127
     59126     59128     59127     59128     59129     59130     59129     59131
     59130     59131     59132     59133     59132     59134     59133     59134
     59135     59136     59135     59137     59136     59137     59138     59139
     59138     59140     59139     59140     59141     59142     59141     59143
     59142     59143     59144     59145     59144     59146     59145     59146
     59147     59148     59147     59149     59148     59149     59150     59151
     59150     59152     59151     59152     59153     59154     59153     59155
     59154     59155     59156     59157     59156     59158     59157     59158
     59159     59160     59159     59161     59160     59161     59162     59163
     59162     59164     59163     59164     59165     59166     59165     59167
     59166     59167     59168     59169     59168     59170     59169     59170
     59171     59172     59171     59173     59172     59173     59174     59175
     59174     59176     59175     59176     59177     59178     59177     59179
     59178     59179     59180     59181     59180     59182     59181     59182
     59183     59184     59183     59185     59184     59185     59186     59187
     59186     59188     59187     59188     59189     59190     59189     59191
     59190     59191     59192     59193     59192     59194     59193     59194
     59195     59196     59195     59197     59196     59197     59198     59199
     59198     59200     59199     59200     59201     59202     59201     59203
     59202     59203     59204     59205     59204     59206     59205     59206
     59207     59208     59207     59209     59208     59209     59210     59211
     59210     59212     59211     59212     59213     59214     59213     59215
     59214     59215     59216     59217     59216     59218     59217     59218
     59219     59220     59219     59221     59220     59221     59222     59223
     59222     59224     59223     59224     59225     59226     59225     59227
     59226     59227     59228     59229     59228     59230     59229     59230
     59231     59232     59231     59233     59232     59233     59234     59235
     59234     59236     59235     59236     59237     59238     59237     59239
     59238     59239     59240     59241     59240     59242     59241     59242
     59243     59244     59243     59245     59244     59245     59246     59247
     59246     59248     59247     59248     59249     59250     59249     59251
     59250     59251     59252     59253     59252     59254     59253     59254
     59255     59256     59255     59257     59256     59257     59258     59259
     59258     59260     59259     59260     59261     59262     59261     59263
     59262     59263     59264     59265     59264     59266     59265     59266
     59267     59268     59267     59269     59268     59269     59270     59271
     59270     59272     59271     59272     59273     59274     59273     59275
     59274     59275     59276     59277     59276     59278     59277     59278
     59279     59280     59279     59281     59280     59281     59282     59283
     59282     59284     59283     59284     59285     59286     59285     59287
     59286     59287     59288     59289     59288     59290     59289     59290
     59291     59292     59291     59293     59292     59293     59294     59295
     59294     59296     59295     59296     59297     59298     59297     59299
     59298     59299     59300     59301     59300     59302     59301     59302
     59303     59304     59303     59305     59304     59305     59306     59307
     59306     59308     59307     59308     59309     59310     59309     59311
     59310     59311     59312     59313     59312     59314     59313     59314
     59315     59316     59315     59317     59316     59317     59318     59319
     59318     59320     59319     59320     59321     59322     59321     59323
     59322     59323     59324     59325     59324     59326     59325     59326
     59327     59328     59327     59329     59328     59329     59330     59331
     59330     59332     59331     59332     59333     59334     59333     59335
     59334     59335     59336     59337     59336     59338     59337     59338
     59339     59340     59339     59341     59340     59341     59342     59343
     59342     59344     59343     59344     59345     59346     59345     59347
     59346     59347     59348     59349     59348     59350     59349     59350
     59351     59352     59351     59353     59352     59353     59354     59355
     59354     59356     59355     59356     59357     59358     59357     59359
     59358     59359     59360     59361     59360     59362     59361     59362
     59363     59364     59363     59365     59364     59365     59366     59367
     59366     59368     59367     59368     59369     59370     59369     59371
     59370     59371     59372     59373     59372     59374     59373     59374
     59375     59376     59375     59377     59376     59377     59378     59379
     59378     59380     59379     59380     59381     59382     59381     59383
     59382     59383     59384     59385     59384     59386     59385     59386
     59387     59388     59387     59389     59388     59389     59390     59391
     59390     59392     59391     59392     59393     59394     59393     59395
     59394     59395     59396     59397     59396     59398     59397     59398
     59399     59400     59399     59401     59400     59401     59402     59403
     59402     59404     59403     59404     59405     59406     59405     59407
     59406     59407     59408     59409     59408     59410     59409     59410
     59411     59412     59411     59413     59412     59413     59414     59415
     59414     59416     59415     59416     59417     59418     59417     59419
     59418     59419     59420     59421     59420     59422     59421     59422
     59423     59424     59423     59425     59424     59425     59426     59427
     59426     59428     59427     59428     59429     59430     59429     59431
     59430     59431     59432     59433     59432     59434     59433     59434
     59435     59436     59435     59437     59436     59437     59438     59439
     59438     59440     59439     59440     59441     59442     59441     59443
     59442     59443     59444     59445     59444     59446     59445     59446
     59447     59448     59447     59449     59448     59449     59450     59451
     59450     59452     59451     59452     59453     59454     59453     59455
     59454     59455     59456     59457     59456     59458     59457     59458
     59459     59460     59459     59461     59460     59461     59462     59463
     59462     59464     59463     59464     59465     59466     59465     59467
     59466     59467     59468     59469     59468     59470     59469     59470
     59471     59472     59471     59473     59472     59473     59474     59475
     59474     59476     59475     59476     59477     59478     59477     59479
     59478     59479     59480     59481     59480     59482     59481     59482
     59483     59484     59483     59485     59484     59485     59486     59487
     59486     59488     59487     59488     59489     59490     59489     59491
     59490     59491     59492     59493     59492     59494     59493     59494
     59495     59496     59495     59497     59496     59497     59498     59499
     59498     59500     59499     59500     59501     59502     59501     59503
     59502     59503     59504     59505     59504     59506     59505     59506
     59507     59508     59507     59509     59508     59509     59510     59511
     59510     59512     59511     59512     59513     59514     59513     59515
     59514     59515     59516     59517     59516     59518     59517     59518
     59519     59520     59519     59521     59520     59521     59522     59523
     59522     59524     59523     59524     59525     59526     59525     59527
     59526     59527     59528     59529     59528     59530     59529     59530
     59531     59532     59531     59533     59532     59533     59534     59535
     59534     59536     59535     59536     59537     59538     59537     59539
     59538     59539     59540     59541     59540     59542     59541     59542
     59543     59544     59543     59545     59544     59545     59546     59547
     59546     59548     59547     59548     59549     59550     59549     59551
     59550     59551     59552     59553     59552     59554     59553     59554
     59555     59556     59555     59557     59556     59557     59558     59559
     59558     59560     59559     59560     59561     59562     59561     59563
     59562     59563     59564     59565     59564     59566     59565     59566
     59567     59568     59567     59569     59568     59569     59570     59571
     59570     59572     59571     59572     59573     59574     59573     59575
     59574     59575     59576     59577     59576     59578     59577     59578
     59579     59580     59579     59581     59580     59581     59582     59583
     59582     59584     59583     59584     59585     59586     59585     59587
     59586     59587     59588     59589     59588     59590     59589     59590
     59591     59592     59591     59593     59592     59593     59594     59595
     59594     59596     59595     59596     59597     59598     59597     59599
     59598     59599     59600     59601     59600     59602     59601     59602
     59603     59604     59603     59605     59604     59605     59606     59607
     59606     59608     59607     59608     59609     59610     59609     59611
     59610     59611     59612     59613     59612     59614     59613     59614
     59615     59616     59615     59617     59616     59617     59618     59619
     59618     59620     59619     59620     59621     59622     59621     59623
     59622     59623     59624     59625     59624     59626     59625     59626
     59627     59628     59627     59629     59628     59629     59630     59631
     59630     59632     59631     59632     59633     59634     59633     59635
     59634     59635     59636     59637     59636     59638     59637     59638
     59639     59640     59639     59641     59640     59641     59642     59643
     59642     59644     59643     59644     59645     59646     59645     59647
     59646     59647     59648     59649     59648     59650     59649     59650
     59651     59652     59651     59653     59652     59653     59654     59655
     59654     59656     59655     59656     59657     59658     59657     59659
     59658     59659     59660     59661     59660     59662     59661     59662
     59663     59664     59663     59665     59664     59665     59666     59667
     59666     59668     59667     59668     59669     59670     59669     59671
     59670     59671     59672     59673     59672     59674     59673     59674
     59675     59676     59675     59677     59676     59677     59678     59679
     59678     59680     59679     59680     59681     59682     59681     59683
     59682     59683     59684     59685     59684     59686     59685     59686
     59687     59688     59687     59689     59688     59689     59690     59691
     59690     59692     59691     59692     59693     59694     59693     59695
     59694     59695     59696     59697     59696     59698     59697     59698
     59699     59700     59699     59701     59700     59701     59702     59703
     59702     59704     59703     59704     59705     59706     59705     59707
     59706     59707     59708     59709     59708     59710     59709     59710
     59711     59712     59711     59713     59712     59713     59714     59715
     59714     59716     59715     59716     59717     59718     59717     59719
     59718     59719     59720     59721     59720     59722     59721     59722
     59723     59724     59723     59725     59724     59725     59726     59727
     59726     59728     59727     59728     59729     59730     59729     59731
     59730     59731     59732     59733     59732     59734     59733     59734
     59735     59736     59735     59737     59736     59737     59738     59739
     59738     59740     59739     59740     59741     59742     59741     59743
     59742     59743     59744     59745     59744     59746     59745     59746
     59747     59748     59747     59749     59748     59749     59750     59751
     59750     59752     59751     59752     59753     59754     59753     59755
     59754     59755     59756     59757     59756     59758     59757     59758
     59759     59760     59759     59761     59760     59761     59762     59763
     59762     59764     59763     59764     59765     59766     59765     59767
     59766     59767     59768     59769     59768     59770     59769     59770
     59771     59772     59771     59773     59772     59773     59774     59775
     59774     59776     59775     59776     59777     59778     59777     59779
     59778     59779     59780     59781     59780     59782     59781     59782
     59783     59784     59783     59785     59784     59785     59786     59787
     59786     59788     59787     59788     59789     59790     59789     59791
     59790     59791     59792     59793     59792     59794     59793     59794
     59795     59796     59795     59797     59796     59797     59798     59799
     59798     59800     59799     59800     59801     59802     59801     59803
     59802     59803     59804     59805     59804     59806     59805     59806
     59807     59808     59807     59809     59808     59809     59810     59811
     59810     59812     59811     59812     59813     59814     59813     59815
     59814     59815     59816     59817     59816     59818     59817     59818
     59819     59820     59819     59821     59820     59821     59822     59823
     59822     59824     59823     59824     59825     59826     59825     59827
     59826     59827     59828     59829     59828     59830     59829     59830
     59831     59832     59831     59833     59832     59833     59834     59835
     59834     59836     59835     59836     59837     59838     59837     59839
     59838     59839     59840     59841     59840     59842     59841     59842
     59843     59844     59843     59845     59844     59845     59846     59847
     59846     59848     59847     59848     59849     59850     59849     59851
     59850     59851     59852     59853     59852     59854     59853     59854
     59855     59856     59855     59857     59856     59857     59858     59859
     59858     59860     59859     59860     59861     59862     59861     59863
     59862     59863     59864     59865     59864     59866     59865     59866
     59867     59868     59867     59869     59868     59869     59870     59871
     59870     59872     59871     59872     59873     59874     59873     59875
     59874     59875     59876     59877     59876     59878     59877     59878
     59879     59880     59879     59881     59880     59881     59882     59883
     59882     59884     59883     59884     59885     59886     59885     59887
     59886     59887     59888     59889     59888     59890     59889     59890
     59891     59892     59891     59893     59892     59893     59894     59895
     59894     59896     59895     59896     59897     59898     59897     59899
     59898     59899     59900     59901     59900     59902     59901     59902
     59903     59904     59903     59905     59904     59905     59906     59907
     59906     59908     59907     59908     59909     59910     59909     59911
     59910     59911     59912     59913     59912     59914     59913     59914
     59915     59916     59915     59917     59916     59917     59918     59919
     59918     59920     59919     59920     59921     59922     59921     59923
     59922     59923     59924     59925     59924     59926     59925     59926
     59927     59928     59927     59929     59928     59929     59930     59931
     59930     59932     59931     59932     59933     59934     59933     59935
     59934     59935     59936     59937     59936     59938     59937     59938
     59939     59940     59939     59941     59940     59941     59942     59943
     59942     59944     59943     59944     59945     59946     59945     59947
     59946     59947     59948     59949     59948     59950     59949     59950
     59951     59952     59951     59953     59952     59953     59954     59955
     59954     59956     59955     59956     59957     59958     59957     59959
     59958     59959     59960     59961     59960     59962     59961     59962
     59963     59964     59963     59965     59964     59965     59966     59967
     59966     59968     59967     59968     59969     59970     59969     59971
     59970     59971     59972     59973     59972     59974     59973     59974
     59975     59976     59975     59977     59976     59977     59978     59979
     59978     59980     59979     59980     59981     59982     59981     59983
     59982     59983     59984     59985     59984     59986     59985     59986
     59987     59988     59987     59989     59988     59989     59990     59991
     59990     59992     59991     59992     59993     59994     59993     59995
     59994     59995     59996     59997     59996     59998     59997     59998
     59999     60000     59999     60001     60000     60001     60002     60003
     60002     60004     60003     60004     60005     60006     60005     60007
     60006     60007     60008     60009     60008     60010     60009     60010
     60011     60012     60011     60013     60012     60013     60014     60015
     60014     60016     60015     60016     60017     60018     60017     60019
     60018     60019     60020     60021     60020     60022     60021     60022
     60023     60024     60023     60025     60024     60025     60026     60027
     60026     60028     60027     60028     60029     60030     60029     60031
     60030     60031     60032     60033     60032     60034     60033     60034
     60035     60036     60035     60037     60036     60037     60038     60039
     60038     60040     60039     60040     60041     60042     60041     60043
     60042     60043     60044     60045     60044     60046     60045     60046
     60047     60048     60047     60049     60048     60049     60050     60051
     60050     60052     60051     60052     60053     60054     60053     60055
     60054     60055     60056     60057     60056     60058     60057     60058
     60059     60060     60059     60061     60060     60061     60062     60063
     60062     60064     60063     60064     60065     60066     60065     60067
     60066     60067     60068     60069     60068     60070     60069     60070
     60071     60072     60071     60073     60072     60073     60074     60075
     60074     60076     60075     60076     60077     60078     60077     60079
     60078     60079     60080     60081     60080     60082     60081     60082
     60083     60084     60083     60085     60084     60085     60086     60087
     60086     60088     60087     60088     60089     60090     60089     60091
     60090     60091     60092     60093     60092     60094     60093     60094
     60095     60096     60095     60097     60096     60097     60098     60099
     60098     60100     60099     60100     60101     60102     60101     60103
     60102     60103     60104     60105     60104     60106     60105     60106
     60107     60108     60107     60109     60108     60109     60110     60111
     60110     60112     60111     60112     60113     60114     60113     60115
     60114     60115     60116     60117     60116     60118     60117     60118
     60119     60120     60119     60121     60120     60121     60122     60123
     60122     60124     60123     60124     60125     60126     60125     60127
     60126     60127     60128     60129     60128     60130     60129     60130
     60131     60132     60131     60133     60132     60133     60134     60135
     60134     60136     60135     60136     60137     60138     60137     60139
     60138     60139     60140     60141     60140     60142     60141     60142
     60143     60144     60143     60145     60144     60145     60146     60147
     60146     60148     60147     60148     60149     60150     60149     60151
     60150     60151     60152     60153     60152     60154     60153     60154
     60155     60156     60155     60157     60156     60157     60158     60159
     60158     60160     60159     60160     60161     60162     60161     60163
     60162     60163     60164     60165     60164     60166     60165     60166
     60167     60168     60167     60169     60168     60169     60170     60171
     60170     60172     60171     60172     60173     60174     60173     60175
     60174     60175     60176     60177     60176     60178     60177     60178
     60179     60180     60179     60181     60180     60181     60182     60183
     60182     60184     60183     60184     60185     60186     60185     60187
     60186     60187     60188     60189     60188     60190     60189     60190
     60191     60192     60191     60193     60192     60193     60194     60195
     60194     60196     60195     60196     60197     60198     60197     60199
     60198     60199     60200     60201     60200     60202     60201     60202
     60203     60204     60203     60205     60204     60205     60206     60207
     60206     60208     60207     60208     60209     60210     60209     60211
     60210     60211     60212     60213     60212     60214     60213     60214
     60215     60216     60215     60217     60216     60217     60218     60219
     60218     60220     60219     60220     60221     60222     60221     60223
     60222     60223     60224     60225     60224     60226     60225     60226
     60227     60228     60227     60229     60228     60229     60230     60231
     60230     60232     60231     60232     60233     60234     60233     60235
     60234     60235     60236     60237     60236     60238     60237     60238
     60239     60240     60239     60241     60240     60241     60242     60243
     60242     60244     60243     60244     60245     60246     60245     60247
     60246     60247     60248     60249     60248     60250     60249     60250
     60251     60252     60251     60253     60252     60253     60254     60255
     60254     60256     60255     60256     60257     60258     60257     60259
     60258     60259     60260     60261     60260     60262     60261     60262
     60263     60264     60263     60265     60264     60265     60266     60267
     60266     60268     60267     60268     60269     60270     60269     60271
     60270     60271     60272     60273     60272     60274     60273     60274
     60275     60276     60275     60277     60276     60277     60278     60279
     60278     60280     60279     60280     60281     60282     60281     60283
     60282     60283     60284     60285     60284     60286     60285     60286
     60287     60288     60287     60289     60288     60289     60290     60291
     60290     60292     60291     60292     60293     60294     60293     60295
     60294     60295     60296     60297     60296     60298     60297     60298
     60299     60300     60299     60301     60300     60301     60302     60303
     60302     60304     60303     60304     60305     60306     60305     60307
     60306     60307     60308     60309     60308     60310     60309     60310
     60311     60312     60311     60313     60312     60313     60314     60315
     60314     60316     60315     60316     60317     60318     60317     60319
     60318     60319     60320     60321     60320     60322     60321     60322
     60323     60324     60323     60325     60324     60325     60326     60327
     60326     60328     60327     60328     60329     60330     60329     60331
     60330     60331     60332     60333     60332     60334     60333     60334
     60335     60336     60335     60337     60336     60337     60338     60339
     60338     60340     60339     60340     60341     60342     60341     60343
     60342     60343     60344     60345     60344     60346     60345     60346
     60347     60348     60347     60349     60348     60349     60350     60351
     60350     60352     60351     60352     60353     60354     60353     60355
     60354     60355     60356     60357     60356     60358     60357     60358
     60359     60360     60359     60361     60360     60361     60362     60363
     60362     60364     60363     60364     60365     60366     60365     60367
     60366     60367     60368     60369     60368     60370     60369     60370
     60371     60372     60371     60373     60372     60373     60374     60375
     60374     60376     60375     60376     60377     60378     60377     60379
     60378     60379     60380     60381     60380     60382     60381     60382
     60383     60384     60383     60385     60384     60385     60386     60387
     60386     60388     60387     60388     60389     60390     60389     60391
     60390     60391     60392     60393     60392     60394     60393     60394
     60395     60396     60395     60397     60396     60397     60398     60399
     60398     60400     60399     60400     60401     60402     60401     60403
     60402     60403     60404     60405     60404     60406     60405     60406
     60407     60408     60407     60409     60408     60409     60410     60411
     60410     60412     60411     60412     60413     60414     60413     60415
     60414     60415     60416     60417     60416     60418     60417     60418
     60419     60420     60419     60421     60420     60421     60422     60423
     60422     60424     60423     60424     60425     60426     60425     60427
     60426     60427     60428     60429     60428     60430     60429     60430
     60431     60432     60431     60433     60432     60433     60434     60435
     60434     60436     60435     60436     60437     60438     60437     60439
     60438     60439     60440     60441     60440     60442     60441     60442
     60443     60444     60443     60445     60444     60445     60446     60447
     60446     60448     60447     60448     60449     60450     60449     60451
     60450     60451     60452     60453     60452     60454     60453     60454
     60455     60456     60455     60457     60456     60457     60458     60459
     60458     60460     60459     60460     60461     60462     60461     60463
     60462     60463     60464     60465     60464     60466     60465     60466
     60467     60468     60467     60469     60468     60469     60470     60471
     60470     60472     60471     60472     60473     60474     60473     60475
     60474     60475     60476     60477     60476     60478     60477     60478
     60479     60480     60479     60481     60480     60481     60482     60483
     60482     60484     60483     60484     60485     60486     60485     60487
     60486     60487     60488     60489     60488     60490     60489     60490
     60491     60492     60491     60493     60492     60493     60494     60495
     60494     60496     60495     60496     60497     60498     60497     60499
     60498     60499     60500     60501     60500     60502     60501     60502
     60503     60504     60503     60505     60504     60505     60506     60507
     60506     60508     60507     60508     60509     60510     60509     60511
     60510     60511     60512     60513     60512     60514     60513     60514
     60515     60516     60515     60517     60516     60517     60518     60519
     60518     60520     60519     60520     60521     60522     60521     60523
     60522     60523     60524     60525     60524     60526     60525     60526
     60527     60528     60527     60529     60528     60529     60530     60531
     60530     60532     60531     60532     60533     60534     60533     60535
     60534     60535     60536     60537     60536     60538     60537     60538
     60539     60540     60539     60541     60540     60541     60542     60543
     60542     60544     60543     60544     60545     60546     60545     60547
     60546     60547     60548     60549     60548     60550     60549     60550
     60551     60552     60551     60553     60552     60553     60554     60555
     60554     60556     60555     60556     60557     60558     60557     60559
     60558     60559     60560     60561     60560     60562     60561     60562
     60563     60564     60563     60565     60564     60565     60566     60567
     60566     60568     60567     60568     60569     60570     60569     60571
     60570     60571     60572     60573     60572     60574     60573     60574
     60575     60576     60575     60577     60576     60577     60578     60579
     60578     60580     60579     60580     60581     60582     60581     60583
     60582     60583     60584     60585     60584     60586     60585     60586
     60587     60588     60587     60589     60588     60589     60590     60591
     60590     60592     60591     60592     60593     60594     60593     60595
     60594     60595     60596     60597     60596     60598     60597     60598
     60599     60600     60599     60601     60600     60601     60602     60603
     60602     60604     60603     60604     60605     60606     60605     60607
     60606     60607     60608     60609     60608     60610     60609     60610
     60611     60612     60611     60613     60612     60613     60614     60615
     60614     60616     60615     60616     60617     60618     60617     60619
     60618     60619     60620     60621     60620     60622     60621     60622
     60623     60624     60623     60625     60624     60625     60626     60627
     60626     60628     60627     60628     60629     60630     60629     60631
     60630     60631     60632     60633     60632     60634     60633     60634
     60635     60636     60635     60637     60636     60637     60638     60639
     60638     60640     60639     60640     60641     60642     60641     60643
     60642     60643     60644     60645     60644     60646     60645     60646
     60647     60648     60647     60649     60648     60649     60650     60651
     60650     60652     60651     60652     60653     60654     60653     60655
     60654     60655     60656     60657     60656     60658     60657     60658
     60659     60660     60659     60661     60660     60661     60662     60663
     60662     60664     60663     60664     60665     60666     60665     60667
     60666     60667     60668     60669     60668     60670     60669     60670
     60671     60672     60671     60673     60672     60673     60674     60675
     60674     60676     60675     60676     60677     60678     60677     60679
     60678     60679     60680     60681     60680     60682     60681     60682
     60683     60684     60683     60685     60684     60685     60686     60687
     60686     60688     60687     60688     60689     60690     60689     60691
     60690     60691     60692     60693     60692     60694     60693     60694
     60695     60696     60695     60697     60696     60697     60698     60699
     60698     60700     60699     60700     60701     60702     60701     60703
     60702     60703     60704     60705     60704     60706     60705     60706
     60707     60708     60707     60709     60708     60709     60710     60711
     60710     60712     60711     60712     60713     60714     60713     60715
     60714     60715     60716     60717     60716     60718     60717     60718
     60719     60720     60719     60721     60720     60721     60722     60723
     60722     60724     60723     60724     60725     60726     60725     60727
     60726     60727     60728     60729     60728     60730     60729     60730
     60731     60732     60731     60733     60732     60733     60734     60735
     60734     60736     60735     60736     60737     60738     60737     60739
     60738     60739     60740     60741     60740     60742     60741     60742
     60743     60744     60743     60745     60744     60745     60746     60747
     60746     60748     60747     60748     60749     60750     60749     60751
     60750     60751     60752     60753     60752     60754     60753     60754
     60755     60756     60755     60757     60756     60757     60758     60759
     60758     60760     60759     60760     60761     60762     60761     60763
     60762     60763     60764     60765     60764     60766     60765     60766
     60767     60768     60767     60769     60768     60769     60770     60771
     60770     60772     60771     60772     60773     60774     60773     60775
     60774     60775     60776     60777     60776     60778     60777     60778
     60779     60780     60779     60781     60780     60781     60782     60783
     60782     60784     60783     60784     60785     60786     60785     60787
     60786     60787     60788     60789     60788     60790     60789     60790
     60791     60792     60791     60793     60792     60793     60794     60795
     60794     60796     60795     60796     60797     60798     60797     60799
     60798     60799     60800     60801     60800     60802     60801     60802
     60803     60804     60803     60805     60804     60805     60806     60807
     60806     60808     60807     60808     60809     60810     60809     60811
     60810     60811     60812     60813     60812     60814     60813     60814
     60815     60816     60815     60817     60816     60817     60818     60819
     60818     60820     60819     60820     60821     60822     60821     60823
     60822     60823     60824     60825     60824     60826     60825     60826
     60827     60828     60827     60829     60828     60829     60830     60831
     60830     60832     60831     60832     60833     60834     60833     60835
     60834     60835     60836     60837     60836     60838     60837     60838
     60839     60840     60839     60841     60840     60841     60842     60843
     60842     60844     60843     60844     60845     60846     60845     60847
     60846     60847     60848     60849     60848     60850     60849     60850
     60851     60852     60851     60853     60852     60853     60854     60855
     60854     60856     60855     60856     60857     60858     60857     60859
     60858     60859     60860     60861     60860     60862     60861     60862
     60863     60864     60863     60865     60864     60865     60866     60867
     60866     60868     60867     60868     60869     60870     60869     60871
     60870     60871     60872     60873     60872     60874     60873     60874
     60875     60876     60875     60877     60876     60877     60878     60879
     60878     60880     60879     60880     60881     60882     60881     60883
     60882     60883     60884     60885     60884     60886     60885     60886
     60887     60888     60887     60889     60888     60889     60890     60891
     60890     60892     60891     60892     60893     60894     60893     60895
     60894     60895     60896     60897     60896     60898     60897     60898
     60899     60900     60899     60901     60900     60901     60902     60903
     60902     60904     60903     60904     60905     60906     60905     60907
     60906     60907     60908     60909     60908     60910     60909     60910
     60911     60912     60911     60913     60912     60913     60914     60915
     60914     60916     60915     60916     60917     60918     60917     60919
     60918     60919     60920     60921     60920     60922     60921     60922
     60923     60924     60923     60925     60924     60925     60926     60927
     60926     60928     60927     60928     60929     60930     60929     60931
     60930     60931     60932     60933     60932     60934     60933     60934
     60935     60936     60935     60937     60936     60937     60938     60939
     60938     60940     60939     60940     60941     60942     60941     60943
     60942     60943     60944     60945     60944     60946     60945     60946
     60947     60948     60947     60949     60948     60949     60950     60951
     60950     60952     60951     60952     60953     60954     60953     60955
     60954     60955     60956     60957     60956     60958     60957     60958
     60959     60960     60959     60961     60960     60961     60962     60963
     60962     60964     60963     60964     60965     60966     60965     60967
     60966     60967     60968     60969     60968     60970     60969     60970
     60971     60972     60971     60973     60972     60973     60974     60975
     60974     60976     60975     60976     60977     60978     60977     60979
     60978     60979     60980     60981     60980     60982     60981     60982
     60983     60984     60983     60985     60984     60985     60986     60987
     60986     60988     60987     60988     60989     60990     60989     60991
     60990     60991     60992     60993     60992     60994     60993     60994
     60995     60996     60995     60997     60996     60997     60998     60999
     60998     61000     60999     61000     61001     61002     61001     61003
     61002     61003     61004     61005     61004     61006     61005     61006
     61007     61008     61007     61009     61008     61009     61010     61011
     61010     61012     61011     61012     61013     61014     61013     61015
     61014     61015     61016     61017     61016     61018     61017     61018
     61019     61020     61019     61021     61020     61021     61022     61023
     61022     61024     61023     61024     61025     61026     61025     61027
     61026     61027     61028     61029     61028     61030     61029     61030
     61031     61032     61031     61033     61032     61033     61034     61035
     61034     61036     61035     61036     61037     61038     61037     61039
     61038     61039     61040     61041     61040     61042     61041     61042
     61043     61044     61043     61045     61044     61045     61046     61047
     61046     61048     61047     61048     61049     61050     61049     61051
     61050     61051     61052     61053     61052     61054     61053     61054
     61055     61056     61055     61057     61056     61057     61058     61059
     61058     61060     61059     61060     61061     61062     61061     61063
     61062     61063     61064     61065     61064     61066     61065     61066
     61067     61068     61067     61069     61068     61069     61070     61071
     61070     61072     61071     61072     61073     61074     61073     61075
     61074     61075     61076     61077     61076     61078     61077     61078
     61079     61080     61079     61081     61080     61081     61082     61083
     61082     61084     61083     61084     61085     61086     61085     61087
     61086     61087     61088     61089     61088     61090     61089     61090
     61091     61092     61091     61093     61092     61093     61094     61095
     61094     61096     61095     61096     61097     61098     61097     61099
     61098     61099     61100     61101     61100     61102     61101     61102
     61103     61104     61103     61105     61104     61105     61106     61107
     61106     61108     61107     61108     61109     61110     61109     61111
     61110     61111     61112     61113     61112     61114     61113     61114
     61115     61116     61115     61117     61116     61117     61118     61119
     61118     61120     61119     61120     61121     61122     61121     61123
     61122     61123     61124     61125     61124     61126     61125     61126
     61127     61128     61127     61129     61128     61129     61130     61131
     61130     61132     61131     61132     61133     61134     61133     61135
     61134     61135     61136     61137     61136     61138     61137     61138
     61139     61140     61139     61141     61140     61141     61142     61143
     61142     61144     61143     61144     61145     61146     61145     61147
     61146     61147     61148     61149     61148     61150     61149     61150
     61151     61152     61151     61153     61152     61153     61154     61155
     61154     61156     61155     61156     61157     61158     61157     61159
     61158     61159     61160     61161     61160     61162     61161     61162
     61163     61164     61163     61165     61164     61165     61166     61167
     61166     61168     61167     61168     61169     61170     61169     61171
     61170     61171     61172     61173     61172     61174     61173     61174
     61175     61176     61175     61177     61176     61177     61178     61179
     61178     61180     61179     61180     61181     61182     61181     61183
     61182     61183     61184     61185     61184     61186     61185     61186
     61187     61188     61187     61189     61188     61189     61190     61191
     61190     61192     61191     61192     61193     61194     61193     61195
     61194     61195     61196     61197     61196     61198     61197     61198
     61199     61200     61199     61201     61200     61201     61202     61203
     61202     61204     61203     61204     61205     61206     61205     61207
     61206     61207     61208     61209     61208     61210     61209     61210
     61211     61212     61211     61213     61212     61213     61214     61215
     61214     61216     61215     61216     61217     61218     61217     61219
     61218     61219     61220     61221     61220     61222     61221     61222
     61223     61224     61223     61225     61224     61225     61226     61227
     61226     61228     61227     61228     61229     61230     61229     61231
     61230     61231     61232     61233     61232     61234     61233     61234
     61235     61236     61235     61237     61236     61237     61238     61239
     61238     61240     61239     61240     61241     61242     61241     61243
     61242     61243     61244     61245     61244     61246     61245     61246
     61247     61248     61247     61249     61248     61249     61250     61251
     61250     61252     61251     61252     61253     61254     61253     61255
     61254     61255     61256     61257     61256     61258     61257     61258
     61259     61260     61259     61261     61260     61261     61262     61263
     61262     61264     61263     61264     61265     61266     61265     61267
     61266     61267     61268     61269     61268     61270     61269     61270
     61271     61272     61271     61273     61272     61273     61274     61275
     61274     61276     61275     61276     61277     61278     61277     61279
     61278     61279     61280     61281     61280     61282     61281     61282
     61283     61284     61283     61285     61284     61285     61286     61287
     61286     61288     61287     61288     61289     61290     61289     61291
     61290     61291     61292     61293     61292     61294     61293     61294
     61295     61296     61295     61297     61296     61297     61298     61299
     61298     61300     61299     61300     61301     61302     61301     61303
     61302     61303     61304     61305     61304     61306     61305     61306
     61307     61308     61307     61309     61308     61309     61310     61311
     61310     61312     61311     61312     61313     61314     61313     61315
     61314     61315     61316     61317     61316     61318     61317     61318
     61319     61320     61319     61321     61320     61321     61322     61323
     61322     61324     61323     61324     61325     61326     61325     61327
     61326     61327     61328     61329     61328     61330     61329     61330
     61331     61332     61331     61333     61332     61333     61334     61335
     61334     61336     61335     61336     61337     61338     61337     61339
     61338     61339     61340     61341     61340     61342     61341     61342
     61343     61344     61343     61345     61344     61345     61346     61347
     61346     61348     61347     61348     61349     61350     61349     61351
     61350     61351     61352     61353     61352     61354     61353     61354
     61355     61356     61355     61357     61356     61357     61358     61359
     61358     61360     61359     61360     61361     61362     61361     61363
     61362     61363     61364     61365     61364     61366     61365     61366
     61367     61368     61367     61369     61368     61369     61370     61371
     61370     61372     61371     61372     61373     61374     61373     61375
     61374     61375     61376     61377     61376     61378     61377     61378
     61379     61380     61379     61381     61380     61381     61382     61383
     61382     61384     61383     61384     61385     61386     61385     61387
     61386     61387     61388     61389     61388     61390     61389     61390
     61391     61392     61391     61393     61392     61393     61394     61395
     61394     61396     61395     61396     61397     61398     61397     61399
     61398     61399     61400     61401     61400     61402     61401     61402
     61403     61404     61403     61405     61404     61405     61406     61407
     61406     61408     61407     61408     61409     61410     61409     61411
     61410     61411     61412     61413     61412     61414     61413     61414
     61415     61416     61415     61417     61416     61417     61418     61419
     61418     61420     61419     61420     61421     61422     61421     61423
     61422     61423     61424     61425     61424     61426     61425     61426
     61427     61428     61427     61429     61428     61429     61430     61431
     61430     61432     61431     61432     61433     61434     61433     61435
     61434     61435     61436     61437     61436     61438     61437     61438
     61439     61440     61439     61441     61440     61441     61442     61443
     61442     61444     61443     61444     61445     61446     61445     61447
     61446     61447     61448     61449     61448     61450     61449     61450
     61451     61452     61451     61453     61452     61453     61454     61455
     61454     61456     61455     61456     61457     61458     61457     61459
     61458     61459     61460     61461     61460     61462     61461     61462
     61463     61464     61463     61465     61464     61465     61466     61467
     61466     61468     61467     61468     61469     61470     61469     61471
     61470     61471     61472     61473     61472     61474     61473     61474
     61475     61476     61475     61477     61476     61477     61478     61479
     61478     61480     61479     61480     61481     61482     61481     61483
     61482     61483     61484     61485     61484     61486     61485     61486
     61487     61488     61487     61489     61488     61489     61490     61491
     61490     61492     61491     61492     61493     61494     61493     61495
     61494     61495     61496     61497     61496     61498     61497     61498
     61499     61500     61499     61501     61500     61501     61502     61503
     61502     61504     61503     61504     61505     61506     61505     61507
     61506     61507     61508     61509     61508     61510     61509     61510
     61511     61512     61511     61513     61512     61513     61514     61515
     61514     61516     61515     61516     61517     61518     61517     61519
     61518     61519     61520     61521     61520     61522     61521     61522
     61523     61524     61523     61525     61524     61525     61526     61527
     61526     61528     61527     61528     61529     61530     61529     61531
     61530     61531     61532     61533     61532     61534     61533     61534
     61535     61536     61535     61537     61536     61537     61538     61539
     61538     61540     61539     61540     61541     61542     61541     61543
     61542     61543     61544     61545     61544     61546     61545     61546
     61547     61548     61547     61549     61548     61549     61550     61551
     61550     61552     61551     61552     61553     61554     61553     61555
     61554     61555     61556     61557     61556     61558     61557     61558
     61559     61560     61559     61561     61560     61561     61562     61563
     61562     61564     61563     61564     61565     61566     61565     61567
     61566     61567     61568     61569     61568     61570     61569     61570
     61571     61572     61571     61573     61572     61573     61574     61575
     61574     61576     61575     61576     61577     61578     61577     61579
     61578     61579     61580     61581     61580     61582     61581     61582
     61583     61584     61583     61585     61584     61585     61586     61587
     61586     61588     61587     61588     61589     61590     61589     61591
     61590     61591     61592     61593     61592     61594     61593     61594
     61595     61596     61595     61597     61596     61597     61598     61599
     61598     61600     61599     61600     61601     61602     61601     61603
     61602     61603     61604     61605     61604     61606     61605     61606
     61607     61608     61607     61609     61608     61609     61610     61611
     61610     61612     61611     61612     61613     61614     61613     61615
     61614     61615     61616     61617     61616     61618     61617     61618
     61619     61620     61619     61621     61620     61621     61622     61623
     61622     61624     61623     61624     61625     61626     61625     61627
     61626     61627     61628     61629     61628     61630     61629     61630
     61631     61632     61631     61633     61632     61633     61634     61635
     61634     61636     61635     61636     61637     61638     61637     61639
     61638     61639     61640     61641     61640     61642     61641     61642
     61643     61644     61643     61645     61644     61645     61646     61647
     61646     61648     61647     61648     61649     61650     61649     61651
     61650     61651     61652     61653     61652     61654     61653     61654
     61655     61656     61655     61657     61656     61657     61658     61659
     61658     61660     61659     61660     61661     61662     61661     61663
     61662     61663     61664     61665     61664     61666     61665     61666
     61667     61668     61667     61669     61668     61669     61670     61671
     61670     61672     61671     61672     61673     61674     61673     61675
     61674     61675     61676     61677     61676     61678     61677     61678
     61679     61680     61679     61681     61680     61681     61682     61683
     61682     61684     61683     61684     61685     61686     61685     61687
     61686     61687     61688     61689     61688     61690     61689     61690
     61691     61692     61691     61693     61692     61693     61694     61695
     61694     61696     61695     61696     61697     61698     61697     61699
     61698     61699     61700     61701     61700     61702     61701     61702
     61703     61704     61703     61705     61704     61705     61706     61707
     61706     61708     61707     61708     61709     61710     61709     61711
     61710     61711     61712     61713     61712     61714     61713     61714
     61715     61716     61715     61717     61716     61717     61718     61719
     61718     61720     61719     61720     61721     61722     61721     61723
     61722     61723     61724     61725     61724     61726     61725     61726
     61727     61728     61727     61729     61728     61729     61730     61731
     61730     61732     61731     61732     61733     61734     61733     61735
     61734     61735     61736     61737     61736     61738     61737     61738
     61739     61740     61739     61741     61740     61741     61742     61743
     61742     61744     61743     61744     61745     61746     61745     61747
     61746     61747     61748     61749     61748     61750     61749     61750
     61751     61752     61751     61753     61752     61753     61754     61755
     61754     61756     61755     61756     61757     61758     61757     61759
     61758     61759     61760     61761     61760     61762     61761     61762
     61763     61764     61763     61765     61764     61765     61766     61767
     61766     61768     61767     61768     61769     61770     61769     61771
     61770     61771     61772     61773     61772     61774     61773     61774
     61775     61776     61775     61777     61776     61777     61778     61779
     61778     61780     61779     61780     61781     61782     61781     61783
     61782     61783     61784     61785     61784     61786     61785     61786
     61787     61788     61787     61789     61788     61789     61790     61791
     61790     61792     61791     61792     61793     61794     61793     61795
     61794     61795     61796     61797     61796     61798     61797     61798
     61799     61800     61799     61801     61800     61801     61802     61803
     61802     61804     61803     61804     61805     61806     61805     61807
     61806     61807     61808     61809     61808     61810     61809     61810
     61811     61812     61811     61813     61812     61813     61814     61815
     61814     61816     61815     61816     61817     61818     61817     61819
     61818     61819     61820     61821     61820     61822     61821     61822
     61823     61824     61823     61825     61824     61825     61826     61827
     61826     61828     61827     61828     61829     61830     61829     61831
     61830     61831     61832     61833     61832     61834     61833     61834
     61835     61836     61835     61837     61836     61837     61838     61839
     61838     61840     61839     61840     61841     61842     61841     61843
     61842     61843     61844     61845     61844     61846     61845     61846
     61847     61848     61847     61849     61848     61849     61850     61851
     61850     61852     61851     61852     61853     61854     61853     61855
     61854     61855     61856     61857     61856     61858     61857     61858
     61859     61860     61859     61861     61860     61861     61862     61863
     61862     61864     61863     61864     61865     61866     61865     61867
     61866     61867     61868     61869     61868     61870     61869     61870
     61871     61872     61871     61873     61872     61873     61874     61875
     61874     61876     61875     61876     61877     61878     61877     61879
     61878     61879     61880     61881     61880     61882     61881     61882
     61883     61884     61883     61885     61884     61885     61886     61887
     61886     61888     61887     61888     61889     61890     61889     61891
     61890     61891     61892     61893     61892     61894     61893     61894
     61895     61896     61895     61897     61896     61897     61898     61899
     61898     61900     61899     61900     61901     61902     61901     61903
     61902     61903     61904     61905     61904     61906     61905     61906
     61907     61908     61907     61909     61908     61909     61910     61911
     61910     61912     61911     61912     61913     61914     61913     61915
     61914     61915     61916     61917     61916     61918     61917     61918
     61919     61920     61919     61921     61920     61921     61922     61923
     61922     61924     61923     61924     61925     61926     61925     61927
     61926     61927     61928     61929     61928     61930     61929     61930
     61931     61932     61931     61933     61932     61933     61934     61935
     61934     61936     61935     61936     61937     61938     61937     61939
     61938     61939     61940     61941     61940     61942     61941     61942
     61943     61944     61943     61945     61944     61945     61946     61947
     61946     61948     61947     61948     61949     61950     61949     61951
     61950     61951     61952     61953     61952     61954     61953     61954
     61955     61956     61955     61957     61956     61957     61958     61959
     61958     61960     61959     61960     61961     61962     61961     61963
     61962     61963     61964     61965     61964     61966     61965     61966
     61967     61968     61967     61969     61968     61969     61970     61971
     61970     61972     61971     61972     61973     61974     61973     61975
     61974     61975     61976     61977     61976     61978     61977     61978
     61979     61980     61979     61981     61980     61981     61982     61983
     61982     61984     61983     61984     61985     61986     61985     61987
     61986     61987     61988     61989     61988     61990     61989     61990
     61991     61992     61991     61993     61992     61993     61994     61995
     61994     61996     61995     61996     61997     61998     61997     61999
     61998     61999     62000     62001     62000     62002     62001     62002
     62003     62004     62003     62005     62004     62005     62006     62007
     62006     62008     62007     62008     62009     62010     62009     62011
     62010     62011     62012     62013     62012     62014     62013     62014
     62015     62016     62015     62017     62016     62017     62018     62019
     62018     62020     62019     62020     62021     62022     62021     62023
     62022     62023     62024     62025     62024     62026     62025     62026
     62027     62028     62027     62029     62028     62029     62030     62031
     62030     62032     62031     62032     62033     62034     62033     62035
     62034     62035     62036     62037     62036     62038     62037     62038
     62039     62040     62039     62041     62040     62041     62042     62043
     62042     62044     62043     62044     62045     62046     62045     62047
     62046     62047     62048     62049     62048     62050     62049     62050
     62051     62052     62051     62053     62052     62053     62054     62055
     62054     62056     62055     62056     62057     62058     62057     62059
     62058     62059     62060     62061     62060     62062     62061     62062
     62063     62064     62063     62065     62064     62065     62066     62067
     62066     62068     62067     62068     62069     62070     62069     62071
     62070     62071     62072     62073     62072     62074     62073     62074
     62075     62076     62075     62077     62076     62077     62078     62079
     62078     62080     62079     62080     62081     62082     62081     62083
     62082     62083     62084     62085     62084     62086     62085     62086
     62087     62088     62087     62089     62088     62089     62090     62091
     62090     62092     62091     62092     62093     62094     62093     62095
     62094     62095     62096     62097     62096     62098     62097     62098
     62099     62100     62099     62101     62100     62101     62102     62103
     62102     62104     62103     62104     62105     62106     62105     62107
     62106     62107     62108     62109     62108     62110     62109     62110
     62111     62112     62111     62113     62112     62113     62114     62115
     62114     62116     62115     62116     62117     62118     62117     62119
     62118     62119     62120     62121     62120     62122     62121     62122
     62123     62124     62123     62125     62124     62125     62126     62127
     62126     62128     62127     62128     62129     62130     62129     62131
     62130     62131     62132     62133     62132     62134     62133     62134
     62135     62136     62135     62137     62136     62137     62138     62139
     62138     62140     62139     62140     62141     62142     62141     62143
     62142     62143     62144     62145     62144     62146     62145     62146
     62147     62148     62147     62149     62148     62149     62150     62151
     62150     62152     62151     62152     62153     62154     62153     62155
     62154     62155     62156     62157     62156     62158     62157     62158
     62159     62160     62159     62161     62160     62161     62162     62163
     62162     62164     62163     62164     62165     62166     62165     62167
     62166     62167     62168     62169     62168     62170     62169     62170
     62171     62172     62171     62173     62172     62173     62174     62175
     62174     62176     62175     62176     62177     62178     62177     62179
     62178     62179     62180     62181     62180     62182     62181     62182
     62183     62184     62183     62185     62184     62185     62186     62187
     62186     62188     62187     62188     62189     62190     62189     62191
     62190     62191     62192     62193     62192     62194     62193     62194
     62195     62196     62195     62197     62196     62197     62198     62199
     62198     62200     62199     62200     62201     62202     62201     62203
     62202     62203     62204     62205     62204     62206     62205     62206
     62207     62208     62207     62209     62208     62209     62210     62211
     62210     62212     62211     62212     62213     62214     62213     62215
     62214     62215     62216     62217     62216     62218     62217     62218
     62219     62220     62219     62221     62220     62221     62222     62223
     62222     62224     62223     62224     62225     62226     62225     62227
     62226     62227     62228     62229     62228     62230     62229     62230
     62231     62232     62231     62233     62232     62233     62234     62235
     62234     62236     62235     62236     62237     62238     62237     62239
     62238     62239     62240     62241     62240     62242     62241     62242
     62243     62244     62243     62245     62244     62245     62246     62247
     62246     62248     62247     62248     62249     62250     62249     62251
     62250     62251     62252     62253     62252     62254     62253     62254
     62255     62256     62255     62257     62256     62257     62258     62259
     62258     62260     62259     62260     62261     62262     62261     62263
     62262     62263     62264     62265     62264     62266     62265     62266
     62267     62268     62267     62269     62268     62269     62270     62271
     62270     62272     62271     62272     62273     62274     62273     62275
     62274     62275     62276     62277     62276     62278     62277     62278
     62279     62280     62279     62281     62280     62281     62282     62283
     62282     62284     62283     62284     62285     62286     62285     62287
     62286     62287     62288     62289     62288     62290     62289     62290
     62291     62292     62291     62293     62292     62293     62294     62295
     62294     62296     62295     62296     62297     62298     62297     62299
     62298     62299     62300     62301     62300     62302     62301     62302
     62303     62304     62303     62305     62304     62305     62306     62307
     62306     62308     62307     62308     62309     62310     62309     62311
     62310     62311     62312     62313     62312     62314     62313     62314
     62315     62316     62315     62317     62316     62317     62318     62319
     62318     62320     62319     62320     62321     62322     62321     62323
     62322     62323     62324     62325     62324     62326     62325     62326
     62327     62328     62327     62329     62328     62329     62330     62331
     62330     62332     62331     62332     62333     62334     62333     62335
     62334     62335     62336     62337     62336     62338     62337     62338
     62339     62340     62339     62341     62340     62341     62342     62343
     62342     62344     62343     62344     62345     62346     62345     62347
     62346     62347     62348     62349     62348     62350     62349     62350
     62351     62352     62351     62353     62352     62353     62354     62355
     62354     62356     62355     62356     62357     62358     62357     62359
     62358     62359     62360     62361     62360     62362     62361     62362
     62363     62364     62363     62365     62364     62365     62366     62367
     62366     62368     62367     62368     62369     62370     62369     62371
     62370     62371     62372     62373     62372     62374     62373     62374
     62375     62376     62375     62377     62376     62377     62378     62379
     62378     62380     62379     62380     62381     62382     62381     62383
     62382     62383     62384     62385     62384     62386     62385     62386
     62387     62388     62387     62389     62388     62389     62390     62391
     62390     62392     62391     62392     62393     62394     62393     62395
     62394     62395     62396     62397     62396     62398     62397     62398
     62399     62400     62399     62401     62400     62401     62402     62403
     62402     62404     62403     62404     62405     62406     62405     62407
     62406     62407     62408     62409     62408     62410     62409     62410
     62411     62412     62411     62413     62412     62413     62414     62415
     62414     62416     62415     62416     62417     62418     62417     62419
     62418     62419     62420     62421     62420     62422     62421     62422
     62423     62424     62423     62425     62424     62425     62426     62427
     62426     62428     62427     62428     62429     62430     62429     62431
     62430     62431     62432     62433     62432     62434     62433     62434
     62435     62436     62435     62437     62436     62437     62438     62439
     62438     62440     62439     62440     62441     62442     62441     62443
     62442     62443     62444     62445     62444     62446     62445     62446
     62447     62448     62447     62449     62448     62449     62450     62451
     62450     62452     62451     62452     62453     62454     62453     62455
     62454     62455     62456     62457     62456     62458     62457     62458
     62459     62460     62459     62461     62460     62461     62462     62463
     62462     62464     62463     62464     62465     62466     62465     62467
     62466     62467     62468     62469     62468     62470     62469     62470
     62471     62472     62471     62473     62472     62473     62474     62475
     62474     62476     62475     62476     62477     62478     62477     62479
     62478     62479     62480     62481     62480     62482     62481     62482
     62483     62484     62483     62485     62484     62485     62486     62487
     62486     62488     62487     62488     62489     62490     62489     62491
     62490     62491     62492     62493     62492     62494     62493     62494
     62495     62496     62495     62497     62496     62497     62498     62499
     62498     62500     62499     62500     62501     62502     62501     62503
     62502     62503     62504     62505     62504     62506     62505     62506
     62507     62508     62507     62509     62508     62509     62510     62511
     62510     62512     62511     62512     62513     62514     62513     62515
     62514     62515     62516     62517     62516     62518     62517     62518
     62519     62520     62519     62521     62520     62521     62522     62523
     62522     62524     62523     62524     62525     62526     62525     62527
     62526     62527     62528     62529     62528     62530     62529     62530
     62531     62532     62531     62533     62532     62533     62534     62535
     62534     62536     62535     62536     62537     62538     62537     62539
     62538     62539     62540     62541     62540     62542     62541     62542
     62543     62544     62543     62545     62544     62545     62546     62547
     62546     62548     62547     62548     62549     62550     62549     62551
     62550     62551     62552     62553     62552     62554     62553     62554
     62555     62556     62555     62557     62556     62557     62558     62559
     62558     62560     62559     62560     62561     62562     62561     62563
     62562     62563     62564     62565     62564     62566     62565     62566
     62567     62568     62567     62569     62568     62569     62570     62571
     62570     62572     62571     62572     62573     62574     62573     62575
     62574     62575     62576     62577     62576     62578     62577     62578
     62579     62580     62579     62581     62580     62581     62582     62583
     62582     62584     62583     62584     62585     62586     62585     62587
     62586     62587     62588     62589     62588     62590     62589     62590
     62591     62592     62591     62593     62592     62593     62594     62595
     62594     62596     62595     62596     62597     62598     62597     62599
     62598     62599     62600     62601     62600     62602     62601     62602
     62603     62604     62603     62605     62604     62605     62606     62607
     62606     62608     62607     62608     62609     62610     62609     62611
     62610     62611     62612     62613     62612     62614     62613     62614
     62615     62616     62615     62617     62616     62617     62618     62619
     62618     62620     62619     62620     62621     62622     62621     62623
     62622     62623     62624     62625     62624     62626     62625     62626
     62627     62628     62627     62629     62628     62629     62630     62631
     62630     62632     62631     62632     62633     62634     62633     62635
     62634     62635     62636     62637     62636     62638     62637     62638
     62639     62640     62639     62641     62640     62641     62642     62643
     62642     62644     62643     62644     62645     62646     62645     62647
     62646     62647     62648     62649     62648     62650     62649     62650
     62651     62652     62651     62653     62652     62653     62654     62655
     62654     62656     62655     62656     62657     62658     62657     62659
     62658     62659     62660     62661     62660     62662     62661     62662
     62663     62664     62663     62665     62664     62665     62666     62667
     62666     62668     62667     62668     62669     62670     62669     62671
     62670     62671     62672     62673     62672     62674     62673     62674
     62675     62676     62675     62677     62676     62677     62678     62679
     62678     62680     62679     62680     62681     62682     62681     62683
     62682     62683     62684     62685     62684     62686     62685     62686
     62687     62688     62687     62689     62688     62689     62690     62691
     62690     62692     62691     62692     62693     62694     62693     62695
     62694     62695     62696     62697     62696     62698     62697     62698
     62699     62700     62699     62701     62700     62701     62702     62703
     62702     62704     62703     62704     62705     62706     62705     62707
     62706     62707     62708     62709     62708     62710     62709     62710
     62711     62712     62711     62713     62712     62713     62714     62715
     62714     62716     62715     62716     62717     62718     62717     62719
     62718     62719     62720     62721     62720     62722     62721     62722
     62723     62724     62723     62725     62724     62725     62726     62727
     62726     62728     62727     62728     62729     62730     62729     62731
     62730     62731     62732     62733     62732     62734     62733     62734
     62735     62736     62735     62737     62736     62737     62738     62739
     62738     62740     62739     62740     62741     62742     62741     62743
     62742     62743     62744     62745     62744     62746     62745     62746
     62747     62748     62747     62749     62748     62749     62750     62751
     62750     62752     62751     62752     62753     62754     62753     62755
     62754     62755     62756     62757     62756     62758     62757     62758
     62759     62760     62759     62761     62760     62761     62762     62763
     62762     62764     62763     62764     62765     62766     62765     62767
     62766     62767     62768     62769     62768     62770     62769     62770
     62771     62772     62771     62773     62772     62773     62774     62775
     62774     62776     62775     62776     62777     62778     62777     62779
     62778     62779     62780     62781     62780     62782     62781     62782
     62783     62784     62783     62785     62784     62785     62786     62787
     62786     62788     62787     62788     62789     62790     62789     62791
     62790     62791     62792     62793     62792     62794     62793     62794
     62795     62796     62795     62797     62796     62797     62798     62799
     62798     62800     62799     62800     62801     62802     62801     62803
     62802     62803     62804     62805     62804     62806     62805     62806
     62807     62808     62807     62809     62808     62809     62810     62811
     62810     62812     62811     62812     62813     62814     62813     62815
     62814     62815     62816     62817     62816     62818     62817     62818
     62819     62820     62819     62821     62820     62821     62822     62823
     62822     62824     62823     62824     62825     62826     62825     62827
     62826     62827     62828     62829     62828     62830     62829     62830
     62831     62832     62831     62833     62832     62833     62834     62835
     62834     62836     62835     62836     62837     62838     62837     62839
     62838     62839     62840     62841     62840     62842     62841     62842
     62843     62844     62843     62845     62844     62845     62846     62847
     62846     62848     62847     62848     62849     62850     62849     62851
     62850     62851     62852     62853     62852     62854     62853     62854
     62855     62856     62855     62857     62856     62857     62858     62859
     62858     62860     62859     62860     62861     62862     62861     62863
     62862     62863     62864     62865     62864     62866     62865     62866
     62867     62868     62867     62869     62868     62869     62870     62871
     62870     62872     62871     62872     62873     62874     62873     62875
     62874     62875     62876     62877     62876     62878     62877     62878
     62879     62880     62879     62881     62880     62881     62882     62883
     62882     62884     62883     62884     62885     62886     62885     62887
     62886     62887     62888     62889     62888     62890     62889     62890
     62891     62892     62891     62893     62892     62893     62894     62895
     62894     62896     62895     62896     62897     62898     62897     62899
     62898     62899     62900     62901     62900     62902     62901     62902
     62903     62904     62903     62905     62904     62905     62906     62907
     62906     62908     62907     62908     62909     62910     62909     62911
     62910     62911     62912     62913     62912     62914     62913     62914
     62915     62916     62915     62917     62916     62917     62918     62919
     62918     62920     62919     62920     62921     62922     62921     62923
     62922     62923     62924     62925     62924     62926     62925     62926
     62927     62928     62927     62929     62928     62929     62930     62931
     62930     62932     62931     62932     62933     62934     62933     62935
     62934     62935     62936     62937     62936     62938     62937     62938
     62939     62940     62939     62941     62940     62941     62942     62943
     62942     62944     62943     62944     62945     62946     62945     62947
     62946     62947     62948     62949     62948     62950     62949     62950
     62951     62952     62951     62953     62952     62953     62954     62955
     62954     62956     62955     62956     62957     62958     62957     62959
     62958     62959     62960     62961     62960     62962     62961     62962
     62963     62964     62963     62965     62964     62965     62966     62967
     62966     62968     62967     62968     62969     62970     62969     62971
     62970     62971     62972     62973     62972     62974     62973     62974
     62975     62976     62975     62977     62976     62977     62978     62979
     62978     62980     62979     62980     62981     62982     62981     62983
     62982     62983     62984     62985     62984     62986     62985     62986
     62987     62988     62987     62989     62988     62989     62990     62991
     62990     62992     62991     62992     62993     62994     62993     62995
     62994     62995     62996     62997     62996     62998     62997     62998
     62999     63000     62999     63001     63000     63001     63002     63003
     63002     63004     63003     63004     63005     63006     63005     63007
     63006     63007     63008     63009     63008     63010     63009     63010
     63011     63012     63011     63013     63012     63013     63014     63015
     63014     63016     63015     63016     63017     63018     63017     63019
     63018     63019     63020     63021     63020     63022     63021     63022
     63023     63024     63023     63025     63024     63025     63026     63027
     63026     63028     63027     63028     63029     63030     63029     63031
     63030     63031     63032     63033     63032     63034     63033     63034
     63035     63036     63035     63037     63036     63037     63038     63039
     63038     63040     63039     63040     63041     63042     63041     63043
     63042     63043     63044     63045     63044     63046     63045     63046
     63047     63048     63047     63049     63048     63049     63050     63051
     63050     63052     63051     63052     63053     63054     63053     63055
     63054     63055     63056     63057     63056     63058     63057     63058
     63059     63060     63059     63061     63060     63061     63062     63063
     63062     63064     63063     63064     63065     63066     63065     63067
     63066     63067     63068     63069     63068     63070     63069     63070
     63071     63072     63071     63073     63072     63073     63074     63075
     63074     63076     63075     63076     63077     63078     63077     63079
     63078     63079     63080     63081     63080     63082     63081     63082
     63083     63084     63083     63085     63084     63085     63086     63087
     63086     63088     63087     63088     63089     63090     63089     63091
     63090     63091     63092     63093     63092     63094     63093     63094
     63095     63096     63095     63097     63096     63097     63098     63099
     63098     63100     63099     63100     63101     63102     63101     63103
     63102     63103     63104     63105     63104     63106     63105     63106
     63107     63108     63107     63109     63108     63109     63110     63111
     63110     63112     63111     63112     63113     63114     63113     63115
     63114     63115     63116     63117     63116     63118     63117     63118
     63119     63120     63119     63121     63120     63121     63122     63123
     63122     63124     63123     63124     63125     63126     63125     63127
     63126     63127     63128     63129     63128     63130     63129     63130
     63131     63132     63131     63133     63132     63133     63134     63135
     63134     63136     63135     63136     63137     63138     63137     63139
     63138     63139     63140     63141     63140     63142     63141     63142
     63143     63144     63143     63145     63144     63145     63146     63147
     63146     63148     63147     63148     63149     63150     63149     63151
     63150     63151     63152     63153     63152     63154     63153     63154
     63155     63156     63155     63157     63156     63157     63158     63159
     63158     63160     63159     63160     63161     63162     63161     63163
     63162     63163     63164     63165     63164     63166     63165     63166
     63167     63168     63167     63169     63168     63169     63170     63171
     63170     63172     63171     63172     63173     63174     63173     63175
     63174     63175     63176     63177     63176     63178     63177     63178
     63179     63180     63179     63181     63180     63181     63182     63183
     63182     63184     63183     63184     63185     63186     63185     63187
     63186     63187     63188     63189     63188     63190     63189     63190
     63191     63192     63191     63193     63192     63193     63194     63195
     63194     63196     63195     63196     63197     63198     63197     63199
     63198     63199     63200     63201     63200     63202     63201     63202
     63203     63204     63203     63205     63204     63205     63206     63207
     63206     63208     63207     63208     63209     63210     63209     63211
     63210     63211     63212     63213     63212     63214     63213     63214
     63215     63216     63215     63217     63216     63217     63218     63219
     63218     63220     63219     63220     63221     63222     63221     63223
     63222     63223     63224     63225     63224     63226     63225     63226
     63227     63228     63227     63229     63228     63229     63230     63231
     63230     63232     63231     63232     63233     63234     63233     63235
     63234     63235     63236     63237     63236     63238     63237     63238
     63239     63240     63239     63241     63240     63241     63242     63243
     63242     63244     63243     63244     63245     63246     63245     63247
     63246     63247     63248     63249     63248     63250     63249     63250
     63251     63252     63251     63253     63252     63253     63254     63255
     63254     63256     63255     63256     63257     63258     63257     63259
     63258     63259     63260     63261     63260     63262     63261     63262
     63263     63264     63263     63265     63264     63265     63266     63267
     63266     63268     63267     63268     63269     63270     63269     63271
     63270     63271     63272     63273     63272     63274     63273     63274
     63275     63276     63275     63277     63276     63277     63278     63279
     63278     63280     63279     63280     63281     63282     63281     63283
     63282     63283     63284     63285     63284     63286     63285     63286
     63287     63288     63287     63289     63288     63289     63290     63291
     63290     63292     63291     63292     63293     63294     63293     63295
     63294     63295     63296     63297     63296     63298     63297     63298
     63299     63300     63299     63301     63300     63301     63302     63303
     63302     63304     63303     63304     63305     63306     63305     63307
     63306     63307     63308     63309     63308     63310     63309     63310
     63311     63312     63311     63313     63312     63313     63314     63315
     63314     63316     63315     63316     63317     63318     63317     63319
     63318     63319     63320     63321     63320     63322     63321     63322
     63323     63324     63323     63325     63324     63325     63326     63327
     63326     63328     63327     63328     63329     63330     63329     63331
     63330     63331     63332     63333     63332     63334     63333     63334
     63335     63336     63335     63337     63336     63337     63338     63339
     63338     63340     63339     63340     63341     63342     63341     63343
     63342     63343     63344     63345     63344     63346     63345     63346
     63347     63348     63347     63349     63348     63349     63350     63351
     63350     63352     63351     63352     63353     63354     63353     63355
     63354     63355     63356     63357     63356     63358     63357     63358
     63359     63360     63359     63361     63360     63361     63362     63363
     63362     63364     63363     63364     63365     63366     63365     63367
     63366     63367     63368     63369     63368     63370     63369     63370
     63371     63372     63371     63373     63372     63373     63374     63375
     63374     63376     63375     63376     63377     63378     63377     63379
     63378     63379     63380     63381     63380     63382     63381     63382
     63383     63384     63383     63385     63384     63385     63386     63387
     63386     63388     63387     63388     63389     63390     63389     63391
     63390     63391     63392     63393     63392     63394     63393     63394
     63395     63396     63395     63397     63396     63397     63398     63399
     63398     63400     63399     63400     63401     63402     63401     63403
     63402     63403     63404     63405     63404     63406     63405     63406
     63407     63408     63407     63409     63408     63409     63410     63411
     63410     63412     63411     63412     63413     63414     63413     63415
     63414     63415     63416     63417     63416     63418     63417     63418
     63419     63420     63419     63421     63420     63421     63422     63423
     63422     63424     63423     63424     63425     63426     63425     63427
     63426     63427     63428     63429     63428     63430     63429     63430
     63431     63432     63431     63433     63432     63433     63434     63435
     63434     63436     63435     63436     63437     63438     63437     63439
     63438     63439     63440     63441     63440     63442     63441     63442
     63443     63444     63443     63445     63444     63445     63446     63447
     63446     63448     63447     63448     63449     63450     63449     63451
     63450     63451     63452     63453     63452     63454     63453     63454
     63455     63456     63455     63457     63456     63457     63458     63459
     63458     63460     63459     63460     63461     63462     63461     63463
     63462     63463     63464     63465     63464     63466     63465     63466
     63467     63468     63467     63469     63468     63469     63470     63471
     63470     63472     63471     63472     63473     63474     63473     63475
     63474     63475     63476     63477     63476     63478     63477     63478
     63479     63480     63479     63481     63480     63481     63482     63483
     63482     63484     63483     63484     63485     63486     63485     63487
     63486     63487     63488     63489     63488     63490     63489     63490
     63491     63492     63491     63493     63492     63493     63494     63495
     63494     63496     63495     63496     63497     63498     63497     63499
     63498     63499     63500     63501     63500     63502     63501     63502
     63503     63504     63503     63505     63504     63505     63506     63507
     63506     63508     63507     63508     63509     63510     63509     63511
     63510     63511     63512     63513     63512     63514     63513     63514
     63515     63516     63515     63517     63516     63517     63518     63519
     63518     63520     63519     63520     63521     63522     63521     63523
     63522     63523     63524     63525     63524     63526     63525     63526
     63527     63528     63527     63529     63528     63529     63530     63531
     63530     63532     63531     63532     63533     63534     63533     63535
     63534     63535     63536     63537     63536     63538     63537     63538
     63539     63540     63539     63541     63540     63541     63542     63543
     63542     63544     63543     63544     63545     63546     63545     63547
     63546     63547     63548     63549     63548     63550     63549     63550
     63551     63552     63551     63553     63552     63553     63554     63555
     63554     63556     63555     63556     63557     63558     63557     63559
     63558     63559     63560     63561     63560     63562     63561     63562
     63563     63564     63563     63565     63564     63565     63566     63567
     63566     63568     63567     63568     63569     63570     63569     63571
     63570     63571     63572     63573     63572     63574     63573     63574
     63575     63576     63575     63577     63576     63577     63578     63579
     63578     63580     63579     63580     63581     63582     63581     63583
     63582     63583     63584     63585     63584     63586     63585     63586
     63587     63588     63587     63589     63588     63589     63590     63591
     63590     63592     63591     63592     63593     63594     63593     63595
     63594     63595     63596     63597     63596     63598     63597     63598
     63599     63600     63599     63601     63600     63601     63602     63603
     63602     63604     63603     63604     63605     63606     63605     63607
     63606     63607     63608     63609     63608     63610     63609     63610
     63611     63612     63611     63613     63612     63613     63614     63615
     63614     63616     63615     63616     63617     63618     63617     63619
     63618     63619     63620     63621     63620     63622     63621     63622
     63623     63624     63623     63625     63624     63625     63626     63627
     63626     63628     63627     63628     63629     63630     63629     63631
     63630     63631     63632     63633     63632     63634     63633     63634
     63635     63636     63635     63637     63636     63637     63638     63639
     63638     63640     63639     63640     63641     63642     63641     63643
     63642     63643     63644     63645     63644     63646     63645     63646
     63647     63648     63647     63649     63648     63649     63650     63651
     63650     63652     63651     63652     63653     63654     63653     63655
     63654     63655     63656     63657     63656     63658     63657     63658
     63659     63660     63659     63661     63660     63661     63662     63663
     63662     63664     63663     63664     63665     63666     63665     63667
     63666     63667     63668     63669     63668     63670     63669     63670
     63671     63672     63671     63673     63672     63673     63674     63675
     63674     63676     63675     63676     63677     63678     63677     63679
     63678     63679     63680     63681     63680     63682     63681     63682
     63683     63684     63683     63685     63684     63685     63686     63687
     63686     63688     63687     63688     63689     63690     63689     63691
     63690     63691     63692     63693     63692     63694     63693     63694
     63695     63696     63695     63697     63696     63697     63698     63699
     63698     63700     63699     63700     63701     63702     63701     63703
     63702     63703     63704     63705     63704     63706     63705     63706
     63707     63708     63707     63709     63708     63709     63710     63711
     63710     63712     63711     63712     63713     63714     63713     63715
     63714     63715     63716     63717     63716     63718     63717     63718
     63719     63720     63719     63721     63720     63721     63722     63723
     63722     63724     63723     63724     63725     63726     63725     63727
     63726     63727     63728     63729     63728     63730     63729     63730
     63731     63732     63731     63733     63732     63733     63734     63735
     63734     63736     63735     63736     63737     63738     63737     63739
     63738     63739     63740     63741     63740     63742     63741     63742
     63743     63744     63743     63745     63744     63745     63746     63747
     63746     63748     63747     63748     63749     63750     63749     63751
     63750     63751     63752     63753     63752     63754     63753     63754
     63755     63756     63755     63757     63756     63757     63758     63759
     63758     63760     63759     63760     63761     63762     63761     63763
     63762     63763     63764     63765     63764     63766     63765     63766
     63767     63768     63767     63769     63768     63769     63770     63771
     63770     63772     63771     63772     63773     63774     63773     63775
     63774     63775     63776     63777     63776     63778     63777     63778
     63779     63780     63779     63781     63780     63781     63782     63783
     63782     63784     63783     63784     63785     63786     63785     63787
     63786     63787     63788     63789     63788     63790     63789     63790
     63791     63792     63791     63793     63792     63793     63794     63795
     63794     63796     63795     63796     63797     63798     63797     63799
     63798     63799     63800     63801     63800     63802     63801     63802
     63803     63804     63803     63805     63804     63805     63806     63807
     63806     63808     63807     63808     63809     63810     63809     63811
     63810     63811     63812     63813     63812     63814     63813     63814
     63815     63816     63815     63817     63816     63817     63818     63819
     63818     63820     63819     63820     63821     63822     63821     63823
     63822     63823     63824     63825     63824     63826     63825     63826
     63827     63828     63827     63829     63828     63829     63830     63831
     63830     63832     63831     63832     63833     63834     63833     63835
     63834     63835     63836     63837     63836     63838     63837     63838
     63839     63840     63839     63841     63840     63841     63842     63843
     63842     63844     63843     63844     63845     63846     63845     63847
     63846     63847     63848     63849     63848     63850     63849     63850
     63851     63852     63851     63853     63852     63853     63854     63855
     63854     63856     63855     63856     63857     63858     63857     63859
     63858     63859     63860     63861     63860     63862     63861     63862
     63863     63864     63863     63865     63864     63865     63866     63867
     63866     63868     63867     63868     63869     63870     63869     63871
     63870     63871     63872     63873     63872     63874     63873     63874
     63875     63876     63875     63877     63876     63877     63878     63879
     63878     63880     63879     63880     63881     63882     63881     63883
     63882     63883     63884     63885     63884     63886     63885     63886
     63887     63888     63887     63889     63888     63889     63890     63891
     63890     63892     63891     63892     63893     63894     63893     63895
     63894     63895     63896     63897     63896     63898     63897     63898
     63899     63900     63899     63901     63900     63901     63902     63903
     63902     63904     63903     63904     63905     63906     63905     63907
     63906     63907     63908     63909     63908     63910     63909     63910
     63911     63912     63911     63913     63912     63913     63914     63915
     63914     63916     63915     63916     63917     63918     63917     63919
     63918     63919     63920     63921     63920     63922     63921     63922
     63923     63924     63923     63925     63924     63925     63926     63927
     63926     63928     63927     63928     63929     63930     63929     63931
     63930     63931     63932     63933     63932     63934     63933     63934
     63935     63936     63935     63937     63936     63937     63938     63939
     63938     63940     63939     63940     63941     63942     63941     63943
     63942     63943     63944     63945     63944     63946     63945     63946
     63947     63948     63947     63949     63948     63949     63950     63951
     63950     63952     63951     63952     63953     63954     63953     63955
     63954     63955     63956     63957     63956     63958     63957     63958
     63959     63960     63959     63961     63960     63961     63962     63963
     63962     63964     63963     63964     63965     63966     63965     63967
     63966     63967     63968     63969     63968     63970     63969     63970
     63971     63972     63971     63973     63972     63973     63974     63975
     63974     63976     63975     63976     63977     63978     63977     63979
     63978     63979     63980     63981     63980     63982     63981     63982
     63983     63984     63983     63985     63984     63985     63986     63987
     63986     63988     63987     63988     63989     63990     63989     63991
     63990     63991     63992     63993     63992     63994     63993     63994
     63995     63996     63995     63997     63996     63997     63998     63999
     63998     64000     63999     64000     64001     64002     64001     64003
     64002     64003     64004     64005     64004     64006     64005     64006
     64007     64008     64007     64009     64008     64009     64010     64011
     64010     64012     64011     64012     64013     64014     64013     64015
     64014     64015     64016     64017     64016     64018     64017     64018
     64019     64020     64019     64021     64020     64021     64022     64023
     64022     64024     64023     64024     64025     64026     64025     64027
     64026     64027     64028     64029     64028     64030     64029     64030
     64031     64032     64031     64033     64032     64033     64034     64035
     64034     64036     64035     64036     64037     64038     64037     64039
     64038     64039     64040     64041     64040     64042     64041     64042
     64043     64044     64043     64045     64044     64045     64046     64047
     64046     64048     64047     64048     64049     64050     64049     64051
     64050     64051     64052     64053     64052     64054     64053     64054
     64055     64056     64055     64057     64056     64057     64058     64059
     64058     64060     64059     64060     64061     64062     64061     64063
     64062     64063     64064     64065     64064     64066     64065     64066
     64067     64068     64067     64069     64068     64069     64070     64071
     64070     64072     64071     64072     64073     64074     64073     64075
     64074     64075     64076     64077     64076     64078     64077     64078
     64079     64080     64079     64081     64080     64081     64082     64083
     64082     64084     64083     64084     64085     64086     64085     64087
     64086     64087     64088     64089     64088     64090     64089     64090
     64091     64092     64091     64093     64092     64093     64094     64095
     64094     64096     64095     64096     64097     64098     64097     64099
     64098     64099     64100     64101     64100     64102     64101     64102
     64103     64104     64103     64105     64104     64105     64106     64107
     64106     64108     64107     64108     64109     64110     64109     64111
     64110     64111     64112     64113     64112     64114     64113     64114
     64115     64116     64115     64117     64116     64117     64118     64119
     64118     64120     64119     64120     64121     64122     64121     64123
     64122     64123     64124     64125     64124     64126     64125     64126
     64127     64128     64127     64129     64128     64129     64130     64131
     64130     64132     64131     64132     64133     64134     64133     64135
     64134     64135     64136     64137     64136     64138     64137     64138
     64139     64140     64139     64141     64140     64141     64142     64143
     64142     64144     64143     64144     64145     64146     64145     64147
     64146     64147     64148     64149     64148     64150     64149     64150
     64151     64152     64151     64153     64152     64153     64154     64155
     64154     64156     64155     64156     64157     64158     64157     64159
     64158     64159     64160     64161     64160     64162     64161     64162
     64163     64164     64163     64165     64164     64165     64166     64167
     64166     64168     64167     64168     64169     64170     64169     64171
     64170     64171     64172     64173     64172     64174     64173     64174
     64175     64176     64175     64177     64176     64177     64178     64179
     64178     64180     64179     64180     64181     64182     64181     64183
     64182     64183     64184     64185     64184     64186     64185     64186
     64187     64188     64187     64189     64188     64189     64190     64191
     64190     64192     64191     64192     64193     64194     64193     64195
     64194     64195     64196     64197     64196     64198     64197     64198
     64199     64200     64199     64201     64200     64201     64202     64203
     64202     64204     64203     64204     64205     64206     64205     64207
     64206     64207     64208     64209     64208     64210     64209     64210
     64211     64212     64211     64213     64212     64213     64214     64215
     64214     64216     64215     64216     64217     64218     64217     64219
     64218     64219     64220     64221     64220     64222     64221     64222
     64223     64224     64223     64225     64224     64225     64226     64227
     64226     64228     64227     64228     64229     64230     64229     64231
     64230     64231     64232     64233     64232     64234     64233     64234
     64235     64236     64235     64237     64236     64237     64238     64239
     64238     64240     64239     64240     64241     64242     64241     64243
     64242     64243     64244     64245     64244     64246     64245     64246
     64247     64248     64247     64249     64248     64249     64250     64251
     64250     64252     64251     64252     64253     64254     64253     64255
     64254     64255     64256     64257     64256     64258     64257     64258
     64259     64260     64259     64261     64260     64261     64262     64263
     64262     64264     64263     64264     64265     64266     64265     64267
     64266     64267     64268     64269     64268     64270     64269     64270
     64271     64272     64271     64273     64272     64273     64274     64275
     64274     64276     64275     64276     64277     64278     64277     64279
     64278     64279     64280     64281     64280     64282     64281     64282
     64283     64284     64283     64285     64284     64285     64286     64287
     64286     64288     64287     64288     64289     64290     64289     64291
     64290     64291     64292     64293     64292     64294     64293     64294
     64295     64296     64295     64297     64296     64297     64298     64299
     64298     64300     64299     64300     64301     64302     64301     64303
     64302     64303     64304     64305     64304     64306     64305     64306
     64307     64308     64307     64309     64308     64309     64310     64311
     64310     64312     64311     64312     64313     64314     64313     64315
     64314     64315     64316     64317     64316     64318     64317     64318
     64319     64320     64319     64321     64320     64321     64322     64323
     64322     64324     64323     64324     64325     64326     64325     64327
     64326     64327     64328     64329     64328     64330     64329     64330
     64331     64332     64331     64333     64332     64333     64334     64335
     64334     64336     64335     64336     64337     64338     64337     64339
     64338     64339     64340     64341     64340     64342     64341     64342
     64343     64344     64343     64345     64344     64345     64346     64347
     64346     64348     64347     64348     64349     64350     64349     64351
     64350     64351     64352     64353     64352     64354     64353     64354
     64355     64356     64355     64357     64356     64357     64358     64359
     64358     64360     64359     64360     64361     64362     64361     64363
     64362     64363     64364     64365     64364     64366     64365     64366
     64367     64368     64367     64369     64368     64369     64370     64371
     64370     64372     64371     64372     64373     64374     64373     64375
     64374     64375     64376     64377     64376     64378     64377     64378
     64379     64380     64379     64381     64380     64381     64382     64383
     64382     64384     64383     64384     64385     64386     64385     64387
     64386     64387     64388     64389     64388     64390     64389     64390
     64391     64392     64391     64393     64392     64393     64394     64395
     64394     64396     64395     64396     64397     64398     64397     64399
     64398     64399     64400     64401     64400     64402     64401     64402
     64403     64404     64403     64405     64404     64405     64406     64407
     64406     64408     64407     64408     64409     64410     64409     64411
     64410     64411     64412     64413     64412     64414     64413     64414
     64415     64416     64415     64417     64416     64417     64418     64419
     64418     64420     64419     64420     64421     64422     64421     64423
     64422     64423     64424     64425     64424     64426     64425     64426
     64427     64428     64427     64429     64428     64429     64430     64431
     64430     64432     64431     64432     64433     64434     64433     64435
     64434     64435     64436     64437     64436     64438     64437     64438
     64439     64440     64439     64441     64440     64441     64442     64443
     64442     64444     64443     64444     64445     64446     64445     64447
     64446     64447     64448     64449     64448     64450     64449     64450
     64451     64452     64451     64453     64452     64453     64454     64455
     64454     64456     64455     64456     64457     64458     64457     64459
     64458     64459     64460     64461     64460     64462     64461     64462
     64463     64464     64463     64465     64464     64465     64466     64467
     64466     64468     64467     64468     64469     64470     64469     64471
     64470     64471     64472     64473     64472     64474     64473     64474
     64475     64476     64475     64477     64476     64477     64478     64479
     64478     64480     64479     64480     64481     64482     64481     64483
     64482     64483     64484     64485     64484     64486     64485     64486
     64487     64488     64487     64489     64488     64489     64490     64491
     64490     64492     64491     64492     64493     64494     64493     64495
     64494     64495     64496     64497     64496     64498     64497     64498
     64499     64500     64499     64501     64500     64501     64502     64503
     64502     64504     64503     64504     64505     64506     64505     64507
     64506     64507     64508     64509     64508     64510     64509     64510
     64511     64512     64511     64513     64512     64513     64514     64515
     64514     64516     64515     64516     64517     64518     64517     64519
     64518     64519     64520     64521     64520     64522     64521     64522
     64523     64524     64523     64525     64524     64525     64526     64527
     64526     64528     64527     64528     64529     64530     64529     64531
     64530     64531     64532     64533     64532     64534     64533     64534
     64535     64536     64535     64537     64536     64537     64538     64539
     64538     64540     64539     64540     64541     64542     64541     64543
     64542     64543     64544     64545     64544     64546     64545     64546
     64547     64548     64547     64549     64548     64549     64550     64551
     64550     64552     64551     64552     64553     64554     64553     64555
     64554     64555     64556     64557     64556     64558     64557     64558
     64559     64560     64559     64561     64560     64561     64562     64563
     64562     64564     64563     64564     64565     64566     64565     64567
     64566     64567     64568     64569     64568     64570     64569     64570
     64571     64572     64571     64573     64572     64573     64574     64575
     64574     64576     64575     64576     64577     64578     64577     64579
     64578     64579     64580     64581     64580     64582     64581     64582
     64583     64584     64583     64585     64584     64585     64586     64587
     64586     64588     64587     64588     64589     64590     64589     64591
     64590     64591     64592     64593     64592     64594     64593     64594
     64595     64596     64595     64597     64596     64597     64598     64599
     64598     64600     64599     64600     64601     64602     64601     64603
     64602     64603     64604     64605     64604     64606     64605     64606
     64607     64608     64607     64609     64608     64609     64610     64611
     64610     64612     64611     64612     64613     64614     64613     64615
     64614     64615     64616     64617     64616     64618     64617     64618
     64619     64620     64619     64621     64620     64621     64622     64623
     64622     64624     64623     64624     64625     64626     64625     64627
     64626     64627     64628     64629     64628     64630     64629     64630
     64631     64632     64631     64633     64632     64633     64634     64635
     64634     64636     64635     64636     64637     64638     64637     64639
     64638     64639     64640     64641     64640     64642     64641     64642
     64643     64644     64643     64645     64644     64645     64646     64647
     64646     64648     64647     64648     64649     64650     64649     64651
     64650     64651     64652     64653     64652     64654     64653     64654
     64655     64656     64655     64657     64656     64657     64658     64659
     64658     64660     64659     64660     64661     64662     64661     64663
     64662     64663     64664     64665     64664     64666     64665     64666
     64667     64668     64667     64669     64668     64669     64670     64671
     64670     64672     64671     64672     64673     64674     64673     64675
     64674     64675     64676     64677     64676     64678     64677     64678
     64679     64680     64679     64681     64680     64681     64682     64683
     64682     64684     64683     64684     64685     64686     64685     64687
     64686     64687     64688     64689     64688     64690     64689     64690
     64691     64692     64691     64693     64692     64693     64694     64695
     64694     64696     64695     64696     64697     64698     64697     64699
     64698     64699     64700     64701     64700     64702     64701     64702
     64703     64704     64703     64705     64704     64705     64706     64707
     64706     64708     64707     64708     64709     64710     64709     64711
     64710     64711     64712     64713     64712     64714     64713     64714
     64715     64716     64715     64717     64716     64717     64718     64719
     64718     64720     64719     64720     64721     64722     64721     64723
     64722     64723     64724     64725     64724     64726     64725     64726
     64727     64728     64727     64729     64728     64729     64730     64731
     64730     64732     64731     64732     64733     64734     64733     64735
     64734     64735     64736     64737     64736     64738     64737     64738
     64739     64740     64739     64741     64740     64741     64742     64743
     64742     64744     64743     64744     64745     64746     64745     64747
     64746     64747     64748     64749     64748     64750     64749     64750
     64751     64752     64751     64753     64752     64753     64754     64755
     64754     64756     64755     64756     64757     64758     64757     64759
     64758     64759     64760     64761     64760     64762     64761     64762
     64763     64764     64763     64765     64764     64765     64766     64767
     64766     64768     64767     64768     64769     64770     64769     64771
     64770     64771     64772     64773     64772     64774     64773     64774
     64775     64776     64775     64777     64776     64777     64778     64779
     64778     64780     64779     64780     64781     64782     64781     64783
     64782     64783     64784     64785     64784     64786     64785     64786
     64787     64788     64787     64789     64788     64789     64790     64791
     64790     64792     64791     64792     64793     64794     64793     64795
     64794     64795     64796     64797     64796     64798     64797     64798
     64799     64800     64799     64801     64800     64801     64802     64803
     64802     64804     64803     64804     64805     64806     64805     64807
     64806     64807     64808     64809     64808     64810     64809     64810
     64811     64812     64811     64813     64812     64813     64814     64815
     64814     64816     64815     64816     64817     64818     64817     64819
     64818     64819     64820     64821     64820     64822     64821     64822
     64823     64824     64823     64825     64824     64825     64826     64827
     64826     64828     64827     64828     64829     64830     64829     64831
     64830     64831     64832     64833     64832     64834     64833     64834
     64835     64836     64835     64837     64836     64837     64838     64839
     64838     64840     64839     64840     64841     64842     64841     64843
     64842     64843     64844     64845     64844     64846     64845     64846
     64847     64848     64847     64849     64848     64849     64850     64851
     64850     64852     64851     64852     64853     64854     64853     64855
     64854     64855     64856     64857     64856     64858     64857     64858
     64859     64860     64859     64861     64860     64861     64862     64863
     64862     64864     64863     64864     64865     64866     64865     64867
     64866     64867     64868     64869     64868     64870     64869     64870
     64871     64872     64871     64873     64872     64873     64874     64875
     64874     64876     64875     64876     64877     64878     64877     64879
     64878     64879     64880     64881     64880     64882     64881     64882
     64883     64884     64883     64885     64884     64885     64886     64887
     64886     64888     64887     64888     64889     64890     64889     64891
     64890     64891     64892     64893     64892     64894     64893     64894
     64895     64896     64895     64897     64896     64897     64898     64899
     64898     64900     64899     64900     64901     64902     64901     64903
     64902     64903     64904     64905     64904     64906     64905     64906
     64907     64908     64907     64909     64908     64909     64910     64911
     64910     64912     64911     64912     64913     64914     64913     64915
     64914     64915     64916     64917     64916     64918     64917     64918
     64919     64920     64919     64921     64920     64921     64922     64923
     64922     64924     64923     64924     64925     64926     64925     64927
     64926     64927     64928     64929     64928     64930     64929     64930
     64931     64932     64931     64933     64932     64933     64934     64935
     64934     64936     64935     64936     64937     64938     64937     64939
     64938     64939     64940     64941     64940     64942     64941     64942
     64943     64944     64943     64945     64944     64945     64946     64947
     64946     64948     64947     64948     64949     64950     64949     64951
     64950     64951     64952     64953     64952     64954     64953     64954
     64955     64956     64955     64957     64956     64957     64958     64959
     64958     64960     64959     64960     64961     64962     64961     64963
     64962     64963     64964     64965     64964     64966     64965     64966
     64967     64968     64967     64969     64968     64969     64970     64971
     64970     64972     64971     64972     64973     64974     64973     64975
     64974     64975     64976     64977     64976     64978     64977     64978
     64979     64980     64979     64981     64980     64981     64982     64983
     64982     64984     64983     64984     64985     64986     64985     64987
     64986     64987     64988     64989     64988     64990     64989     64990
     64991     64992     64991     64993     64992     64993     64994     64995
     64994     64996     64995     64996     64997     64998     64997     64999
     64998     64999     65000     65001     65000     65002     65001     65002
     65003     65004     65003     65005     65004     65005     65006     65007
     65006     65008     65007     65008     65009     65010     65009     65011
     65010     65011     65012     65013     65012     65014     65013     65014
     65015     65016     65015     65017     65016     65017     65018     65019
     65018     65020     65019     65020     65021     65022     65021     65023
     65022     65023     65024     65025     65024     65026     65025     65026
     65027     65028     65027     65029     65028     65029     65030     65031
     65030     65032     65031     65032     65033     65034     65033     65035
     65034     65035     65036     65037     65036     65038     65037     65038
     65039     65040     65039     65041     65040     65041     65042     65043
     65042     65044     65043     65044     65045     65046     65045     65047
     65046     65047     65048     65049     65048     65050     65049     65050
     65051     65052     65051     65053     65052     65053     65054     65055
     65054     65056     65055     65056     65057     65058     65057     65059
     65058     65059     65060     65061     65060     65062     65061     65062
     65063     65064     65063     65065     65064     65065     65066     65067
     65066     65068     65067     65068     65069     65070     65069     65071
     65070     65071     65072     65073     65072     65074     65073     65074
     65075     65076     65075     65077     65076     65077     65078     65079
     65078     65080     65079     65080     65081     65082     65081     65083
     65082     65083     65084     65085     65084     65086     65085     65086
     65087     65088     65087     65089     65088     65089     65090     65091
     65090     65092     65091     65092     65093     65094     65093     65095
     65094     65095     65096     65097     65096     65098     65097     65098
     65099     65100     65099     65101     65100     65101     65102     65103
     65102     65104     65103     65104     65105     65106     65105     65107
     65106     65107     65108     65109     65108     65110     65109     65110
     65111     65112     65111     65113     65112     65113     65114     65115
     65114     65116     65115     65116     65117     65118     65117     65119
     65118     65119     65120     65121     65120     65122     65121     65122
     65123     65124     65123     65125     65124     65125     65126     65127
     65126     65128     65127     65128     65129     65130     65129     65131
     65130     65131     65132     65133     65132     65134     65133     65134
     65135     65136     65135     65137     65136     65137     65138     65139
     65138     65140     65139     65140     65141     65142     65141     65143
     65142     65143     65144     65145     65144     65146     65145     65146
     65147     65148     65147     65149     65148     65149     65150     65151
     65150     65152     65151     65152     65153     65154     65153     65155
     65154     65155     65156     65157     65156     65158     65157     65158
     65159     65160     65159     65161     65160     65161     65162     65163
     65162     65164     65163     65164     65165     65166     65165     65167
     65166     65167     65168     65169     65168     65170     65169     65170
     65171     65172     65171     65173     65172     65173     65174     65175
     65174     65176     65175     65176     65177     65178     65177     65179
     65178     65179     65180     65181     65180     65182     65181     65182
     65183     65184     65183     65185     65184     65185     65186     65187
     65186     65188     65187     65188     65189     65190     65189     65191
     65190     65191     65192     65193     65192     65194     65193     65194
     65195     65196     65195     65197     65196     65197     65198     65199
     65198     65200     65199     65200     65201     65202     65201     65203
     65202     65203     65204     65205     65204     65206     65205     65206
     65207     65208     65207     65209     65208     65209     65210     65211
     65210     65212     65211     65212     65213     65214     65213     65215
     65214     65215     65216     65217     65216     65218     65217     65218
     65219     65220     65219     65221     65220     65221     65222     65223
     65222     65224     65223     65224     65225     65226     65225     65227
     65226     65227     65228     65229     65228     65230     65229     65230
     65231     65232     65231     65233     65232     65233     65234     65235
     65234     65236     65235     65236     65237     65238     65237     65239
     65238     65239     65240     65241     65240     65242     65241     65242
     65243     65244     65243     65245     65244     65245     65246     65247
     65246     65248     65247     65248     65249     65250     65249     65251
     65250     65251     65252     65253     65252     65254     65253     65254
     65255     65256     65255     65257     65256     65257     65258     65259
     65258     65260     65259     65260     65261     65262     65261     65263
     65262     65263     65264     65265     65264     65266     65265     65266
     65267     65268     65267     65269     65268     65269     65270     65271
     65270     65272     65271     65272     65273     65274     65273     65275
     65274     65275     65276     65277     65276     65278     65277     65278
     65279     65280     65279     65281     65280     65281     65282     65283
     65282     65284     65283     65284     65285     65286     65285     65287
     65286     65287     65288     65289     65288     65290     65289     65290
     65291     65292     65291     65293     65292     65293     65294     65295
     65294     65296     65295     65296     65297     65298     65297     65299
     65298     65299     65300     65301     65300     65302     65301     65302
     65303     65304     65303     65305     65304     65305     65306     65307
     65306     65308     65307     65308     65309     65310     65309     65311
     65310     65311     65312     65313     65312     65314     65313     65314
     65315     65316     65315     65317     65316     65317     65318     65319
     65318     65320     65319     65320     65321     65322     65321     65323
     65322     65323     65324     65325     65324     65326     65325     65326
     65327     65328     65327     65329     65328     65329     65330     65331
     65330     65332     65331     65332     65333     65334     65333     65335
     65334     65335     65336     65337     65336     65338     65337     65338
     65339     65340     65339     65341     65340     65341     65342     65343
     65342     65344     65343     65344     65345     65346     65345     65347
     65346     65347     65348     65349     65348     65350     65349     65350
     65351     65352     65351     65353     65352     65353     65354     65355
     65354     65356     65355     65356     65357     65358     65357     65359
     65358     65359     65360     65361     65360     65362     65361     65362
     65363     65364     65363     65365     65364     65365     65366     65367
     65366     65368     65367     65368     65369     65370     65369     65371
     65370     65371     65372     65373     65372     65374     65373     65374
     65375     65376     65375     65377     65376     65377     65378     65379
     65378     65380     65379     65380     65381     65382     65381     65383
     65382     65383     65384     65385     65384     65386     65385     65386
     65387     65388     65387     65389     65388     65389     65390     65391
     65390     65392     65391     65392     65393     65394     65393     65395
     65394     65395     65396     65397     65396     65398     65397     65398
     65399     65400     65399     65401     65400     65401     65402     65403
     65402     65404     65403     65404     65405     65406     65405     65407
     65406     65407     65408     65409     65408     65410     65409     65410
     65411     65412     65411     65413     65412     65413     65414     65415
     65414     65416     65415     65416     65417     65418     65417     65419
     65418     65419     65420     65421     65420     65422     65421     65422
     65423     65424     65423     65425     65424     65425     65426     65427
     65426     65428     65427     65428     65429     65430     65429     65431
     65430     65431     65432     65433     65432     65434     65433     65434
     65435     65436     65435     65437     65436     65437     65438     65439
     65438     65440     65439     65440     65441     65442     65441     65443
     65442     65443     65444     65445     65444     65446     65445     65446
     65447     65448     65447     65449     65448     65449     65450     65451
     65450     65452     65451     65452     65453     65454     65453     65455
     65454     65455     65456     65457     65456     65458     65457     65458
     65459     65460     65459     65461     65460     65461     65462     65463
     65462     65464     65463     65464     65465     65466     65465     65467
     65466     65467     65468     65469     65468     65470     65469     65470
     65471     65472     65471     65473     65472     65473     65474     65475
     65474     65476     65475     65476     65477     65478     65477     65479
     65478     65479     65480     65481     65480     65482     65481     65482
     65483     65484     65483     65485     65484     65485     65486     65487
     65486     65488     65487     65488     65489     65490     65489     65491
     65490     65491     65492     65493     65492     65494     65493     65494
     65495     65496     65495     65497     65496     65497     65498     65499
     65498     65500     65499     65500     65501     65502     65501     65503
     65502     65503     65504     65505     65504     65506     65505     65506
     65507     65508     65507     65509     65508     65509     65510     65511
     65510     65512     65511     65512     65513     65514     65513     65515
     65514     65515     65516     65517     65516     65518     65517     65518
     65519     65520     65519     65521     65520     65521     65522     65523
     65522     65524     65523     65524     65525     65526     65525     65527
     65526     65527     65528     65529     65528     65530     65529     65530
     65531     65532     65531     65533     65532     65533     65534     65535
     65534     65536     65535     65536     65537     65538     65537     65539
     65538     65539     65540     65541     65540     65542     65541     65542
     65543     65544     65543     65545     65544     65545     65546     65547
     65546     65548     65547     65548     65549     65550     65549     65551
     65550     65551     65552     65553     65552     65554     65553     65554
     65555     65556     65555     65557     65556     65557     65558     65559
     65558     65560     65559     65560     65561     65562     65561     65563
     65562     65563     65564     65565     65564     65566     65565     65566
     65567     65568     65567     65569     65568     65569     65570     65571
     65570     65572     65571     65572     65573     65574     65573     65575
     65574     65575     65576     65577     65576     65578     65577     65578
     65579     65580     65579     65581     65580     65581     65582     65583
     65582     65584     65583     65584     65585     65586     65585     65587
     65586     65587     65588     65589     65588     65590     65589     65590
     65591     65592     65591     65593     65592     65593     65594     65595
     65594     65596     65595     65596     65597     65598     65597     65599
     65598     65599     65600     65601     65600     65602     65601     65602
     65603     65604     65603     65605     65604     65605     65606     65607
     65606     65608     65607     65608     65609     65610     65609     65611
     65610     65611     65612     65613     65612     65614     65613     65614
     65615     65616     65615     65617     65616     65617     65618     65619
     65618     65620     65619     65620     65621     65622     65621     65623
     65622     65623     65624     65625     65624     65626     65625     65626
     65627     65628     65627     65629     65628     65629     65630     65631
     65630     65632     65631     65632     65633     65634     65633     65635
     65634     65635     65636     65637     65636     65638     65637     65638
     65639     65640     65639     65641     65640     65641     65642     65643
     65642     65644     65643     65644     65645     65646     65645     65647
     65646     65647     65648     65649     65648     65650     65649     65650
     65651     65652     65651     65653     65652     65653     65654     65655
     65654     65656     65655     65656     65657     65658     65657     65659
     65658     65659     65660     65661     65660     65662     65661     65662
     65663     65664     65663     65665     65664     65665     65666     65667
     65666     65668     65667     65668     65669     65670     65669     65671
     65670     65671     65672     65673     65672     65674     65673     65674
     65675     65676     65675     65677     65676     65677     65678     65679
     65678     65680     65679     65680     65681     65682     65681     65683
     65682     65683     65684     65685     65684     65686     65685     65686
     65687     65688     65687     65689     65688     65689     65690     65691
     65690     65692     65691     65692     65693     65694     65693     65695
     65694     65695     65696     65697     65696     65698     65697     65698
     65699     65700     65699     65701     65700     65701     65702     65703
     65702     65704     65703     65704     65705     65706     65705     65707
     65706     65707     65708     65709     65708     65710     65709     65710
     65711     65712     65711     65713     65712     65713     65714     65715
     65714     65716     65715     65716     65717     65718     65717     65719
     65718     65719     65720     65721     65720     65722     65721     65722
     65723     65724     65723     65725     65724     65725     65726     65727
     65726     65728     65727     65728     65729     65730     65729     65731
     65730     65731     65732     65733     65732     65734     65733     65734
     65735     65736     65735     65737     65736     65737     65738     65739
     65738     65740     65739     65740     65741     65742     65741     65743
     65742     65743     65744     65745     65744     65746     65745     65746
     65747     65748     65747     65749     65748     65749     65750     65751
     65750     65752     65751     65752     65753     65754     65753     65755
     65754     65755     65756     65757     65756     65758     65757     65758
     65759     65760     65759     65761     65760     65761     65762     65763
     65762     65764     65763     65764     65765     65766     65765     65767
     65766     65767     65768     65769     65768     65770     65769     65770
     65771     65772     65771     65773     65772     65773     65774     65775
     65774     65776     65775     65776     65777     65778     65777     65779
     65778     65779     65780     65781     65780     65782     65781     65782
     65783     65784     65783     65785     65784     65785     65786     65787
     65786     65788     65787     65788     65789     65790     65789     65791
     65790     65791     65792     65793     65792     65794     65793     65794
     65795     65796     65795     65797     65796     65797     65798     65799
     65798     65800     65799     65800     65801     65802     65801     65803
     65802     65803     65804     65805     65804     65806     65805     65806
     65807     65808     65807     65809     65808     65809     65810     65811
     65810     65812     65811     65812     65813     65814     65813     65815
     65814     65815     65816     65817     65816     65818     65817     65818
     65819     65820     65819     65821     65820     65821     65822     65823
     65822     65824     65823     65824     65825     65826     65825     65827
     65826     65827     65828     65829     65828     65830     65829     65830
     65831     65832     65831     65833     65832     65833     65834     65835
     65834     65836     65835     65836     65837     65838     65837     65839
     65838     65839     65840     65841     65840     65842     65841     65842
     65843     65844     65843     65845     65844     65845     65846     65847
     65846     65848     65847     65848     65849     65850     65849     65851
     65850     65851     65852     65853     65852     65854     65853     65854
     65855     65856     65855     65857     65856     65857     65858     65859
     65858     65860     65859     65860     65861     65862     65861     65863
     65862     65863     65864     65865     65864     65866     65865     65866
     65867     65868     65867     65869     65868     65869     65870     65871
     65870     65872     65871     65872     65873     65874     65873     65875
     65874     65875     65876     65877     65876     65878     65877     65878
     65879     65880     65879     65881     65880     65881     65882     65883
     65882     65884     65883     65884     65885     65886     65885     65887
     65886     65887     65888     65889     65888     65890     65889     65890
     65891     65892     65891     65893     65892     65893     65894     65895
     65894     65896     65895     65896     65897     65898     65897     65899
     65898     65899     65900     65901     65900     65902     65901     65902
     65903     65904     65903     65905     65904     65905     65906     65907
     65906     65908     65907     65908     65909     65910     65909     65911
     65910     65911     65912     65913     65912     65914     65913     65914
     65915     65916     65915     65917     65916     65917     65918     65919
     65918     65920     65919     65920     65921     65922     65921     65923
     65922     65923     65924     65925     65924     65926     65925     65926
     65927     65928     65927     65929     65928     65929     65930     65931
     65930     65932     65931     65932     65933     65934     65933     65935
     65934     65935     65936     65937     65936     65938     65937     65938
     65939     65940     65939     65941     65940     65941     65942     65943
     65942     65944     65943     65944     65945     65946     65945     65947
     65946     65947     65948     65949     65948     65950     65949     65950
     65951     65952     65951     65953     65952     65953     65954     65955
     65954     65956     65955     65956     65957     65958     65957     65959
     65958     65959     65960     65961     65960     65962     65961     65962
     65963     65964     65963     65965     65964     65965     65966     65967
     65966     65968     65967     65968     65969     65970     65969     65971
     65970     65971     65972     65973     65972     65974     65973     65974
     65975     65976     65975     65977     65976     65977     65978     65979
     65978     65980     65979     65980     65981     65982     65981     65983
     65982     65983     65984     65985     65984     65986     65985     65986
     65987     65988     65987     65989     65988     65989     65990     65991
     65990     65992     65991     65992     65993     65994     65993     65995
     65994     65995     65996     65997     65996     65998     65997     65998
     65999     66000     65999     66001     66000     66001     66002     66003
     66002     66004     66003     66004     66005     66006     66005     66007
     66006     66007     66008     66009     66008     66010     66009     66010
     66011     66012     66011     66013     66012     66013     66014     66015
     66014     66016     66015     66016     66017     66018     66017     66019
     66018     66019     66020     66021     66020     66022     66021     66022
     66023     66024     66023     66025     66024     66025     66026     66027
     66026     66028     66027     66028     66029     66030     66029     66031
     66030     66031     66032     66033     66032     66034     66033     66034
     66035     66036     66035     66037     66036     66037     66038     66039
     66038     66040     66039     66040     66041     66042     66041     66043
     66042     66043     66044     66045     66044     66046     66045     66046
     66047     66048     66047     66049     66048     66049     66050     66051
     66050     66052     66051     66052     66053     66054     66053     66055
     66054     66055     66056     66057     66056     66058     66057     66058
     66059     66060     66059     66061     66060     66061     66062     66063
     66062     66064     66063     66064     66065     66066     66065     66067
     66066     66067     66068     66069     66068     66070     66069     66070
     66071     66072     66071     66073     66072     66073     66074     66075
     66074     66076     66075     66076     66077     66078     66077     66079
     66078     66079     66080     66081     66080     66082     66081     66082
     66083     66084     66083     66085     66084     66085     66086     66087
     66086     66088     66087     66088     66089     66090     66089     66091
     66090     66091     66092     66093     66092     66094     66093     66094
     66095     66096     66095     66097     66096     66097     66098     66099
     66098     66100     66099     66100     66101     66102     66101     66103
     66102     66103     66104     66105     66104     66106     66105     66106
     66107     66108     66107     66109     66108     66109     66110     66111
     66110     66112     66111     66112     66113     66114     66113     66115
     66114     66115     66116     66117     66116     66118     66117     66118
     66119     66120     66119     66121     66120     66121     66122     66123
     66122     66124     66123     66124     66125     66126     66125     66127
     66126     66127     66128     66129     66128     66130     66129     66130
     66131     66132     66131     66133     66132     66133     66134     66135
     66134     66136     66135     66136     66137     66138     66137     66139
     66138     66139     66140     66141     66140     66142     66141     66142
     66143     66144     66143     66145     66144     66145     66146     66147
     66146     66148     66147     66148     66149     66150     66149     66151
     66150     66151     66152     66153     66152     66154     66153     66154
     66155     66156     66155     66157     66156     66157     66158     66159
     66158     66160     66159     66160     66161     66162     66161     66163
     66162     66163     66164     66165     66164     66166     66165     66166
     66167     66168     66167     66169     66168     66169     66170     66171
     66170     66172     66171     66172     66173     66174     66173     66175
     66174     66175     66176     66177     66176     66178     66177     66178
     66179     66180     66179     66181     66180     66181     66182     66183
     66182     66184     66183     66184     66185     66186     66185     66187
     66186     66187     66188     66189     66188     66190     66189     66190
     66191     66192     66191     66193     66192     66193     66194     66195
     66194     66196     66195     66196     66197     66198     66197     66199
     66198     66199     66200     66201     66200     66202     66201     66202
     66203     66204     66203     66205     66204     66205     66206     66207
     66206     66208     66207     66208     66209     66210     66209     66211
     66210     66211     66212     66213     66212     66214     66213     66214
     66215     66216     66215     66217     66216     66217     66218     66219
     66218     66220     66219     66220     66221     66222     66221     66223
     66222     66223     66224     66225     66224     66226     66225     66226
     66227     66228     66227     66229     66228     66229     66230     66231
     66230     66232     66231     66232     66233     66234     66233     66235
     66234     66235     66236     66237     66236     66238     66237     66238
     66239     66240     66239     66241     66240     66241     66242     66243
     66242     66244     66243     66244     66245     66246     66245     66247
     66246     66247     66248     66249     66248     66250     66249     66250
     66251     66252     66251     66253     66252     66253     66254     66255
     66254     66256     66255     66256     66257     66258     66257     66259
     66258     66259     66260     66261     66260     66262     66261     66262
     66263     66264     66263     66265     66264     66265     66266     66267
     66266     66268     66267     66268     66269     66270     66269     66271
     66270     66271     66272     66273     66272     66274     66273     66274
     66275     66276     66275     66277     66276     66277     66278     66279
     66278     66280     66279     66280     66281     66282     66281     66283
     66282     66283     66284     66285     66284     66286     66285     66286
     66287     66288     66287     66289     66288     66289     66290     66291
     66290     66292     66291     66292     66293     66294     66293     66295
     66294     66295     66296     66297     66296     66298     66297     66298
     66299     66300     66299     66301     66300     66301     66302     66303
     66302     66304     66303     66304     66305     66306     66305     66307
     66306     66307     66308     66309     66308     66310     66309     66310
     66311     66312     66311     66313     66312     66313     66314     66315
     66314     66316     66315     66316     66317     66318     66317     66319
     66318     66319     66320     66321     66320     66322     66321     66322
     66323     66324     66323     66325     66324     66325     66326     66327
     66326     66328     66327     66328     66329     66330     66329     66331
     66330     66331     66332     66333     66332     66334     66333     66334
     66335     66336     66335     66337     66336     66337     66338     66339
     66338     66340     66339     66340     66341     66342     66341     66343
     66342     66343     66344     66345     66344     66346     66345     66346
     66347     66348     66347     66349     66348     66349     66350     66351
     66350     66352     66351     66352     66353     66354     66353     66355
     66354     66355     66356     66357     66356     66358     66357     66358
     66359     66360     66359     66361     66360     66361     66362     66363
     66362     66364     66363     66364     66365     66366     66365     66367
     66366     66367     66368     66369     66368     66370     66369     66370
     66371     66372     66371     66373     66372     66373     66374     66375
     66374     66376     66375     66376     66377     66378     66377     66379
     66378     66379     66380     66381     66380     66382     66381     66382
     66383     66384     66383     66385     66384     66385     66386     66387
     66386     66388     66387     66388     66389     66390     66389     66391
     66390     66391     66392     66393     66392     66394     66393     66394
     66395     66396     66395     66397     66396     66397     66398     66399
     66398     66400     66399     66400     66401     66402     66401     66403
     66402     66403     66404     66405     66404     66406     66405     66406
     66407     66408     66407     66409     66408     66409     66410     66411
     66410     66412     66411     66412     66413     66414     66413     66415
     66414     66415     66416     66417     66416     66418     66417     66418
     66419     66420     66419     66421     66420     66421     66422     66423
     66422     66424     66423     66424     66425     66426     66425     66427
     66426     66427     66428     66429     66428     66430     66429     66430
     66431     66432     66431     66433     66432     66433     66434     66435
     66434     66436     66435     66436     66437     66438     66437     66439
     66438     66439     66440     66441     66440     66442     66441     66442
     66443     66444     66443     66445     66444     66445     66446     66447
     66446     66448     66447     66448     66449     66450     66449     66451
     66450     66451     66452     66453     66452     66454     66453     66454
     66455     66456     66455     66457     66456     66457     66458     66459
     66458     66460     66459     66460     66461     66462     66461     66463
     66462     66463     66464     66465     66464     66466     66465     66466
     66467     66468     66467     66469     66468     66469     66470     66471
     66470     66472     66471     66472     66473     66474     66473     66475
     66474     66475     66476     66477     66476     66478     66477     66478
     66479     66480     66479     66481     66480     66481     66482     66483
     66482     66484     66483     66484     66485     66486     66485     66487
     66486     66487     66488     66489     66488     66490     66489     66490
     66491     66492     66491     66493     66492     66493     66494     66495
     66494     66496     66495     66496     66497     66498     66497     66499
     66498     66499     66500     66501     66500     66502     66501     66502
     66503     66504     66503     66505     66504     66505     66506     66507
     66506     66508     66507     66508     66509     66510     66509     66511
     66510     66511     66512     66513     66512     66514     66513     66514
     66515     66516     66515     66517     66516     66517     66518     66519
     66518     66520     66519     66520     66521     66522     66521     66523
     66522     66523     66524     66525     66524     66526     66525     66526
     66527     66528     66527     66529     66528     66529     66530     66531
     66530     66532     66531     66532     66533     66534     66533     66535
     66534     66535     66536     66537     66536     66538     66537     66538
     66539     66540     66539     66541     66540     66541     66542     66543
     66542     66544     66543     66544     66545     66546     66545     66547
     66546     66547     66548     66549     66548     66550     66549     66550
     66551     66552     66551     66553     66552     66553     66554     66555
     66554     66556     66555     66556     66557     66558     66557     66559
     66558     66559     66560     66561     66560     66562     66561     66562
     66563     66564     66563     66565     66564     66565     66566     66567
     66566     66568     66567     66568     66569     66570     66569     66571
     66570     66571     66572     66573     66572     66574     66573     66574
     66575     66576     66575     66577     66576     66577     66578     66579
     66578     66580     66579     66580     66581     66582     66581     66583
     66582     66583     66584     66585     66584     66586     66585     66586
     66587     66588     66587     66589     66588     66589     66590     66591
     66590     66592     66591     66592     66593     66594     66593     66595
     66594     66595     66596     66597     66596     66598     66597     66598
     66599     66600     66599     66601     66600     66601     66602     66603
     66602     66604     66603     66604     66605     66606     66605     66607
     66606     66607     66608     66609     66608     66610     66609     66610
     66611     66612     66611     66613     66612     66613     66614     66615
     66614     66616     66615     66616     66617     66618     66617     66619
     66618     66619     66620     66621     66620     66622     66621     66622
     66623     66624     66623     66625     66624     66625     66626     66627
     66626     66628     66627     66628     66629     66630     66629     66631
     66630     66631     66632     66633     66632     66634     66633     66634
     66635     66636     66635     66637     66636     66637     66638     66639
     66638     66640     66639     66640     66641     66642     66641     66643
     66642     66643     66644     66645     66644     66646     66645     66646
     66647     66648     66647     66649     66648     66649     66650     66651
     66650     66652     66651     66652     66653     66654     66653     66655
     66654     66655     66656     66657     66656     66658     66657     66658
     66659     66660     66659     66661     66660     66661     66662     66663
     66662     66664     66663     66664     66665     66666     66665     66667
     66666     66667     66668     66669     66668     66670     66669     66670
     66671     66672     66671     66673     66672     66673     66674     66675
     66674     66676     66675     66676     66677     66678     66677     66679
     66678     66679     66680     66681     66680     66682     66681     66682
     66683     66684     66683     66685     66684     66685     66686     66687
     66686     66688     66687     66688     66689     66690     66689     66691
     66690     66691     66692     66693     66692     66694     66693     66694
     66695     66696     66695     66697     66696     66697     66698     66699
     66698     66700     66699     66700     66701     66702     66701     66703
     66702     66703     66704     66705     66704     66706     66705     66706
     66707     66708     66707     66709     66708     66709     66710     66711
     66710     66712     66711     66712     66713     66714     66713     66715
     66714     66715     66716     66717     66716     66718     66717     66718
     66719     66720     66719     66721     66720     66721     66722     66723
     66722     66724     66723     66724     66725     66726     66725     66727
     66726     66727     66728     66729     66728     66730     66729     66730
     66731     66732     66731     66733     66732     66733     66734     66735
     66734     66736     66735     66736     66737     66738     66737     66739
     66738     66739     66740     66741     66740     66742     66741     66742
     66743     66744     66743     66745     66744     66745     66746     66747
     66746     66748     66747     66748     66749     66750     66749     66751
     66750     66751     66752     66753     66752     66754     66753     66754
     66755     66756     66755     66757     66756     66757     66758     66759
     66758     66760     66759     66760     66761     66762     66761     66763
     66762     66763     66764     66765     66764     66766     66765     66766
     66767     66768     66767     66769     66768     66769     66770     66771
     66770     66772     66771     66772     66773     66774     66773     66775
     66774     66775     66776     66777     66776     66778     66777     66778
     66779     66780     66779     66781     66780     66781     66782     66783
     66782     66784     66783     66784     66785     66786     66785     66787
     66786     66787     66788     66789     66788     66790     66789     66790
     66791     66792     66791     66793     66792     66793     66794     66795
     66794     66796     66795     66796     66797     66798     66797     66799
     66798     66799     66800     66801     66800     66802     66801     66802
     66803     66804     66803     66805     66804     66805     66806     66807
     66806     66808     66807     66808     66809     66810     66809     66811
     66810     66811     66812     66813     66812     66814     66813     66814
     66815     66816     66815     66817     66816     66817     66818     66819
     66818     66820     66819     66820     66821     66822     66821     66823
     66822     66823     66824     66825     66824     66826     66825     66826
     66827     66828     66827     66829     66828     66829     66830     66831
     66830     66832     66831     66832     66833     66834     66833     66835
     66834     66835     66836     66837     66836     66838     66837     66838
     66839     66840     66839     66841     66840     66841     66842     66843
     66842     66844     66843     66844     66845     66846     66845     66847
     66846     66847     66848     66849     66848     66850     66849     66850
     66851     66852     66851     66853     66852     66853     66854     66855
     66854     66856     66855     66856     66857     66858     66857     66859
     66858     66859     66860     66861     66860     66862     66861     66862
     66863     66864     66863     66865     66864     66865     66866     66867
     66866     66868     66867     66868     66869     66870     66869     66871
     66870     66871     66872     66873     66872     66874     66873     66874
     66875     66876     66875     66877     66876     66877     66878     66879
     66878     66880     66879     66880     66881     66882     66881     66883
     66882     66883     66884     66885     66884     66886     66885     66886
     66887     66888     66887     66889     66888     66889     66890     66891
     66890     66892     66891     66892     66893     66894     66893     66895
     66894     66895     66896     66897     66896     66898     66897     66898
     66899     66900     66899     66901     66900     66901     66902     66903
     66902     66904     66903     66904     66905     66906     66905     66907
     66906     66907     66908     66909     66908     66910     66909     66910
     66911     66912     66911     66913     66912     66913     66914     66915
     66914     66916     66915     66916     66917     66918     66917     66919
     66918     66919     66920     66921     66920     66922     66921     66922
     66923     66924     66923     66925     66924     66925     66926     66927
     66926     66928     66927     66928     66929     66930     66929     66931
     66930     66931     66932     66933     66932     66934     66933     66934
     66935     66936     66935     66937     66936     66937     66938     66939
     66938     66940     66939     66940     66941     66942     66941     66943
     66942     66943     66944     66945     66944     66946     66945     66946
     66947     66948     66947     66949     66948     66949     66950     66951
     66950     66952     66951     66952     66953     66954     66953     66955
     66954     66955     66956     66957     66956     66958     66957     66958
     66959     66960     66959     66961     66960     66961     66962     66963
     66962     66964     66963     66964     66965     66966     66965     66967
     66966     66967     66968     66969     66968     66970     66969     66970
     66971     66972     66971     66973     66972     66973     66974     66975
     66974     66976     66975     66976     66977     66978     66977     66979
     66978     66979     66980     66981     66980     66982     66981     66982
     66983     66984     66983     66985     66984     66985     66986     66987
     66986     66988     66987     66988     66989     66990     66989     66991
     66990     66991     66992     66993     66992     66994     66993     66994
     66995     66996     66995     66997     66996     66997     66998     66999
     66998     67000     66999     67000     67001     67002     67001     67003
     67002     67003     67004     67005     67004     67006     67005     67006
     67007     67008     67007     67009     67008     67009     67010     67011
     67010     67012     67011     67012     67013     67014     67013     67015
     67014     67015     67016     67017     67016     67018     67017     67018
     67019     67020     67019     67021     67020     67021     67022     67023
     67022     67024     67023     67024     67025     67026     67025     67027
     67026     67027     67028     67029     67028     67030     67029     67030
     67031     67032     67031     67033     67032     67033     67034     67035
     67034     67036     67035     67036     67037     67038     67037     67039
     67038     67039     67040     67041     67040     67042     67041     67042
     67043     67044     67043     67045     67044     67045     67046     67047
     67046     67048     67047     67048     67049     67050     67049     67051
     67050     67051     67052     67053     67052     67054     67053     67054
     67055     67056     67055     67057     67056     67057     67058     67059
     67058     67060     67059     67060     67061     67062     67061     67063
     67062     67063     67064     67065     67064     67066     67065     67066
     67067     67068     67067     67069     67068     67069     67070     67071
     67070     67072     67071     67072     67073     67074     67073     67075
     67074     67075     67076     67077     67076     67078     67077     67078
     67079     67080     67079     67081     67080     67081     67082     67083
     67082     67084     67083     67084     67085     67086     67085     67087
     67086     67087     67088     67089     67088     67090     67089     67090
     67091     67092     67091     67093     67092     67093     67094     67095
     67094     67096     67095     67096     67097     67098     67097     67099
     67098     67099     67100     67101     67100     67102     67101     67102
     67103     67104     67103     67105     67104     67105     67106     67107
     67106     67108     67107     67108     67109     67110     67109     67111
     67110     67111     67112     67113     67112     67114     67113     67114
     67115     67116     67115     67117     67116     67117     67118     67119
     67118     67120     67119     67120     67121     67122     67121     67123
     67122     67123     67124     67125     67124     67126     67125     67126
     67127     67128     67127     67129     67128     67129     67130     67131
     67130     67132     67131     67132     67133     67134     67133     67135
     67134     67135     67136     67137     67136     67138     67137     67138
     67139     67140     67139     67141     67140     67141     67142     67143
     67142     67144     67143     67144     67145     67146     67145     67147
     67146     67147     67148     67149     67148     67150     67149     67150
     67151     67152     67151     67153     67152     67153     67154     67155
     67154     67156     67155     67156     67157     67158     67157     67159
     67158     67159     67160     67161     67160     67162     67161     67162
     67163     67164     67163     67165     67164     67165     67166     67167
     67166     67168     67167     67168     67169     67170     67169     67171
     67170     67171     67172     67173     67172     67174     67173     67174
     67175     67176     67175     67177     67176     67177     67178     67179
     67178     67180     67179     67180     67181     67182     67181     67183
     67182     67183     67184     67185     67184     67186     67185     67186
     67187     67188     67187     67189     67188     67189     67190     67191
     67190     67192     67191     67192     67193     67194     67193     67195
     67194     67195     67196     67197     67196     67198     67197     67198
     67199     67200     67199     67201     67200     67201     67202     67203
     67202     67204     67203     67204     67205     67206     67205     67207
     67206     67207     67208     67209     67208     67210     67209     67210
     67211     67212     67211     67213     67212     67213     67214     67215
     67214     67216     67215     67216     67217     67218     67217     67219
     67218     67219     67220     67221     67220     67222     67221     67222
     67223     67224     67223     67225     67224     67225     67226     67227
     67226     67228     67227     67228     67229     67230     67229     67231
     67230     67231     67232     67233     67232     67234     67233     67234
     67235     67236     67235     67237     67236     67237     67238     67239
     67238     67240     67239     67240     67241     67242     67241     67243
     67242     67243     67244     67245     67244     67246     67245     67246
     67247     67248     67247     67249     67248     67249     67250     67251
     67250     67252     67251     67252     67253     67254     67253     67255
     67254     67255     67256     67257     67256     67258     67257     67258
     67259     67260     67259     67261     67260     67261     67262     67263
     67262     67264     67263     67264     67265     67266     67265     67267
     67266     67267     67268     67269     67268     67270     67269     67270
     67271     67272     67271     67273     67272     67273     67274     67275
     67274     67276     67275     67276     67277     67278     67277     67279
     67278     67279     67280     67281     67280     67282     67281     67282
     67283     67284     67283     67285     67284     67285     67286     67287
     67286     67288     67287     67288     67289     67290     67289     67291
     67290     67291     67292     67293     67292     67294     67293     67294
     67295     67296     67295     67297     67296     67297     67298     67299
     67298     67300     67299     67300     67301     67302     67301     67303
     67302     67303     67304     67305     67304     67306     67305     67306
     67307     67308     67307     67309     67308     67309     67310     67311
     67310     67312     67311     67312     67313     67314     67313     67315
     67314     67315     67316     67317     67316     67318     67317     67318
     67319     67320     67319     67321     67320     67321     67322     67323
     67322     67324     67323     67324     67325     67326     67325     67327
     67326     67327     67328     67329     67328     67330     67329     67330
     67331     67332     67331     67333     67332     67333     67334     67335
     67334     67336     67335     67336     67337     67338     67337     67339
     67338     67339     67340     67341     67340     67342     67341     67342
     67343     67344     67343     67345     67344     67345     67346     67347
     67346     67348     67347     67348     67349     67350     67349     67351
     67350     67351     67352     67353     67352     67354     67353     67354
     67355     67356     67355     67357     67356     67357     67358     67359
     67358     67360     67359     67360     67361     67362     67361     67363
     67362     67363     67364     67365     67364     67366     67365     67366
     67367     67368     67367     67369     67368     67369     67370     67371
     67370     67372     67371     67372     67373     67374     67373     67375
     67374     67375     67376     67377     67376     67378     67377     67378
     67379     67380     67379     67381     67380     67381     67382     67383
     67382     67384     67383     67384     67385     67386     67385     67387
     67386     67387     67388     67389     67388     67390     67389     67390
     67391     67392     67391     67393     67392     67393     67394     67395
     67394     67396     67395     67396     67397     67398     67397     67399
     67398     67399     67400     67401     67400     67402     67401     67402
     67403     67404     67403     67405     67404     67405     67406     67407
     67406     67408     67407     67408     67409     67410     67409     67411
     67410     67411     67412     67413     67412     67414     67413     67414
     67415     67416     67415     67417     67416     67417     67418     67419
     67418     67420     67419     67420     67421     67422     67421     67423
     67422     67423     67424     67425     67424     67426     67425     67426
     67427     67428     67427     67429     67428     67429     67430     67431
     67430     67432     67431     67432     67433     67434     67433     67435
     67434     67435     67436     67437     67436     67438     67437     67438
     67439     67440     67439     67441     67440     67441     67442     67443
     67442     67444     67443     67444     67445     67446     67445     67447
     67446     67447     67448     67449     67448     67450     67449     67450
     67451     67452     67451     67453     67452     67453     67454     67455
     67454     67456     67455     67456     67457     67458     67457     67459
     67458     67459     67460     67461     67460     67462     67461     67462
     67463     67464     67463     67465     67464     67465     67466     67467
     67466     67468     67467     67468     67469     67470     67469     67471
     67470     67471     67472     67473     67472     67474     67473     67474
     67475     67476     67475     67477     67476     67477     67478     67479
     67478     67480     67479     67480     67481     67482     67481     67483
     67482     67483     67484     67485     67484     67486     67485     67486
     67487     67488     67487     67489     67488     67489     67490     67491
     67490     67492     67491     67492     67493     67494     67493     67495
     67494     67495     67496     67497     67496     67498     67497     67498
     67499     67500     67499     67501     67500     67501     67502     67503
     67502     67504     67503     67504     67505     67506     67505     67507
     67506     67507     67508     67509     67508     67510     67509     67510
     67511     67512     67511     67513     67512     67513     67514     67515
     67514     67516     67515     67516     67517     67518     67517     67519
     67518     67519     67520     67521     67520     67522     67521     67522
     67523     67524     67523     67525     67524     67525     67526     67527
     67526     67528     67527     67528     67529     67530     67529     67531
     67530     67531     67532     67533     67532     67534     67533     67534
     67535     67536     67535     67537     67536     67537     67538     67539
     67538     67540     67539     67540     67541     67542     67541     67543
     67542     67543     67544     67545     67544     67546     67545     67546
     67547     67548     67547     67549     67548     67549     67550     67551
     67550     67552     67551     67552     67553     67554     67553     67555
     67554     67555     67556     67557     67556     67558     67557     67558
     67559     67560     67559     67561     67560     67561     67562     67563
     67562     67564     67563     67564     67565     67566     67565     67567
     67566     67567     67568     67569     67568     67570     67569     67570
     67571     67572     67571     67573     67572     67573     67574     67575
     67574     67576     67575     67576     67577     67578     67577     67579
     67578     67579     67580     67581     67580     67582     67581     67582
     67583     67584     67583     67585     67584     67585     67586     67587
     67586     67588     67587     67588     67589     67590     67589     67591
     67590     67591     67592     67593     67592     67594     67593     67594
     67595     67596     67595     67597     67596     67597     67598     67599
     67598     67600     67599     67600     67601     67602     67601     67603
     67602     67603     67604     67605     67604     67606     67605     67606
     67607     67608     67607     67609     67608     67609     67610     67611
     67610     67612     67611     67612     67613     67614     67613     67615
     67614     67615     67616     67617     67616     67618     67617     67618
     67619     67620     67619     67621     67620     67621     67622     67623
     67622     67624     67623     67624     67625     67626     67625     67627
     67626     67627     67628     67629     67628     67630     67629     67630
     67631     67632     67631     67633     67632     67633     67634     67635
     67634     67636     67635     67636     67637     67638     67637     67639
     67638     67639     67640     67641     67640     67642     67641     67642
     67643     67644     67643     67645     67644     67645     67646     67647
     67646     67648     67647     67648     67649     67650     67649     67651
     67650     67651     67652     67653     67652     67654     67653     67654
     67655     67656     67655     67657     67656     67657     67658     67659
     67658     67660     67659     67660     67661     67662     67661     67663
     67662     67663     67664     67665     67664     67666     67665     67666
     67667     67668     67667     67669     67668     67669     67670     67671
     67670     67672     67671     67672     67673     67674     67673     67675
     67674     67675     67676     67677     67676     67678     67677     67678
     67679     67680     67679     67681     67680     67681     67682     67683
     67682     67684     67683     67684     67685     67686     67685     67687
     67686     67687     67688     67689     67688     67690     67689     67690
     67691     67692     67691     67693     67692     67693     67694     67695
     67694     67696     67695     67696     67697     67698     67697     67699
     67698     67699     67700     67701     67700     67702     67701     67702
     67703     67704     67703     67705     67704     67705     67706     67707
     67706     67708     67707     67708     67709     67710     67709     67711
     67710     67711     67712     67713     67712     67714     67713     67714
     67715     67716     67715     67717     67716     67717     67718     67719
     67718     67720     67719     67720     67721     67722     67721     67723
     67722     67723     67724     67725     67724     67726     67725     67726
     67727     67728     67727     67729     67728     67729     67730     67731
     67730     67732     67731     67732     67733     67734     67733     67735
     67734     67735     67736     67737     67736     67738     67737     67738
     67739     67740     67739     67741     67740     67741     67742     67743
     67742     67744     67743     67744     67745     67746     67745     67747
     67746     67747     67748     67749     67748     67750     67749     67750
     67751     67752     67751     67753     67752     67753     67754     67755
     67754     67756     67755     67756     67757     67758     67757     67759
     67758     67759     67760     67761     67760     67762     67761     67762
     67763     67764     67763     67765     67764     67765     67766     67767
     67766     67768     67767     67768     67769     67770     67769     67771
     67770     67771     67772     67773     67772     67774     67773     67774
     67775     67776     67775     67777     67776     67777     67778     67779
     67778     67780     67779     67780     67781     67782     67781     67783
     67782     67783     67784     67785     67784     67786     67785     67786
     67787     67788     67787     67789     67788     67789     67790     67791
     67790     67792     67791     67792     67793     67794     67793     67795
     67794     67795     67796     67797     67796     67798     67797     67798
     67799     67800     67799     67801     67800     67801     67802     67803
     67802     67804     67803     67804     67805     67806     67805     67807
     67806     67807     67808     67809     67808     67810     67809     67810
     67811     67812     67811     67813     67812     67813     67814     67815
     67814     67816     67815     67816     67817     67818     67817     67819
     67818     67819     67820     67821     67820     67822     67821     67822
     67823     67824     67823     67825     67824     67825     67826     67827
     67826     67828     67827     67828     67829     67830     67829     67831
     67830     67831     67832     67833     67832     67834     67833     67834
     67835     67836     67835     67837     67836     67837     67838     67839
     67838     67840     67839     67840     67841     67842     67841     67843
     67842     67843     67844     67845     67844     67846     67845     67846
     67847     67848     67847     67849     67848     67849     67850     67851
     67850     67852     67851     67852     67853     67854     67853     67855
     67854     67855     67856     67857     67856     67858     67857     67858
     67859     67860     67859     67861     67860     67861     67862     67863
     67862     67864     67863     67864     67865     67866     67865     67867
     67866     67867     67868     67869     67868     67870     67869     67870
     67871     67872     67871     67873     67872     67873     67874     67875
     67874     67876     67875     67876     67877     67878     67877     67879
     67878     67879     67880     67881     67880     67882     67881     67882
     67883     67884     67883     67885     67884     67885     67886     67887
     67886     67888     67887     67888     67889     67890     67889     67891
     67890     67891     67892     67893     67892     67894     67893     67894
     67895     67896     67895     67897     67896     67897     67898     67899
     67898     67900     67899     67900     67901     67902     67901     67903
     67902     67903     67904     67905     67904     67906     67905     67906
     67907     67908     67907     67909     67908     67909     67910     67911
     67910     67912     67911     67912     67913     67914     67913     67915
     67914     67915     67916     67917     67916     67918     67917     67918
     67919     67920     67919     67921     67920     67921     67922     67923
     67922     67924     67923     67924     67925     67926     67925     67927
     67926     67927     67928     67929     67928     67930     67929     67930
     67931     67932     67931     67933     67932     67933     67934     67935
     67934     67936     67935     67936     67937     67938     67937     67939
     67938     67939     67940     67941     67940     67942     67941     67942
     67943     67944     67943     67945     67944     67945     67946     67947
     67946     67948     67947     67948     67949     67950     67949     67951
     67950     67951     67952     67953     67952     67954     67953     67954
     67955     67956     67955     67957     67956     67957     67958     67959
     67958     67960     67959     67960     67961     67962     67961     67963
     67962     67963     67964     67965     67964     67966     67965     67966
     67967     67968     67967     67969     67968     67969     67970     67971
     67970     67972     67971     67972     67973     67974     67973     67975
     67974     67975     67976     67977     67976     67978     67977     67978
     67979     67980     67979     67981     67980     67981     67982     67983
     67982     67984     67983     67984     67985     67986     67985     67987
     67986     67987     67988     67989     67988     67990     67989     67990
     67991     67992     67991     67993     67992     67993     67994     67995
     67994     67996     67995     67996     67997     67998     67997     67999
     67998     67999     68000     68001     68000     68002     68001     68002
     68003     68004     68003     68005     68004     68005     68006     68007
     68006     68008     68007     68008     68009     68010     68009     68011
     68010     68011     68012     68013     68012     68014     68013     68014
     68015     68016     68015     68017     68016     68017     68018     68019
     68018     68020     68019     68020     68021     68022     68021     68023
     68022     68023     68024     68025     68024     68026     68025     68026
     68027     68028     68027     68029     68028     68029     68030     68031
     68030     68032     68031     68032     68033     68034     68033     68035
     68034     68035     68036     68037     68036     68038     68037     68038
     68039     68040     68039     68041     68040     68041     68042     68043
     68042     68044     68043     68044     68045     68046     68045     68047
     68046     68047     68048     68049     68048     68050     68049     68050
     68051     68052     68051     68053     68052     68053     68054     68055
     68054     68056     68055     68056     68057     68058     68057     68059
     68058     68059     68060     68061     68060     68062     68061     68062
     68063     68064     68063     68065     68064     68065     68066     68067
     68066     68068     68067     68068     68069     68070     68069     68071
     68070     68071     68072     68073     68072     68074     68073     68074
     68075     68076     68075     68077     68076     68077     68078     68079
     68078     68080     68079     68080     68081     68082     68081     68083
     68082     68083     68084     68085     68084     68086     68085     68086
     68087     68088     68087     68089     68088     68089     68090     68091
     68090     68092     68091     68092     68093     68094     68093     68095
     68094     68095     68096     68097     68096     68098     68097     68098
     68099     68100     68099     68101     68100     68101     68102     68103
     68102     68104     68103     68104     68105     68106     68105     68107
     68106     68107     68108     68109     68108     68110     68109     68110
     68111     68112     68111     68113     68112     68113     68114     68115
     68114     68116     68115     68116     68117     68118     68117     68119
     68118     68119     68120     68121     68120     68122     68121     68122
     68123     68124     68123     68125     68124     68125     68126     68127
     68126     68128     68127     68128     68129     68130     68129     68131
     68130     68131     68132     68133     68132     68134     68133     68134
     68135     68136     68135     68137     68136     68137     68138     68139
     68138     68140     68139     68140     68141     68142     68141     68143
     68142     68143     68144     68145     68144     68146     68145     68146
     68147     68148     68147     68149     68148     68149     68150     68151
     68150     68152     68151     68152     68153     68154     68153     68155
     68154     68155     68156     68157     68156     68158     68157     68158
     68159     68160     68159     68161     68160     68161     68162     68163
     68162     68164     68163     68164     68165     68166     68165     68167
     68166     68167     68168     68169     68168     68170     68169     68170
     68171     68172     68171     68173     68172     68173     68174     68175
     68174     68176     68175     68176     68177     68178     68177     68179
     68178     68179     68180     68181     68180     68182     68181     68182
     68183     68184     68183     68185     68184     68185     68186     68187
     68186     68188     68187     68188     68189     68190     68189     68191
     68190     68191     68192     68193     68192     68194     68193     68194
     68195     68196     68195     68197     68196     68197     68198     68199
     68198     68200     68199     68200     68201     68202     68201     68203
     68202     68203     68204     68205     68204     68206     68205     68206
     68207     68208     68207     68209     68208     68209     68210     68211
     68210     68212     68211     68212     68213     68214     68213     68215
     68214     68215     68216     68217     68216     68218     68217     68218
     68219     68220     68219     68221     68220     68221     68222     68223
     68222     68224     68223     68224     68225     68226     68225     68227
     68226     68227     68228     68229     68228     68230     68229     68230
     68231     68232     68231     68233     68232     68233     68234     68235
     68234     68236     68235     68236     68237     68238     68237     68239
     68238     68239     68240     68241     68240     68242     68241     68242
     68243     68244     68243     68245     68244     68245     68246     68247
     68246     68248     68247     68248     68249     68250     68249     68251
     68250     68251     68252     68253     68252     68254     68253     68254
     68255     68256     68255     68257     68256     68257     68258     68259
     68258     68260     68259     68260     68261     68262     68261     68263
     68262     68263     68264     68265     68264     68266     68265     68266
     68267     68268     68267     68269     68268     68269     68270     68271
     68270     68272     68271     68272     68273     68274     68273     68275
     68274     68275     68276     68277     68276     68278     68277     68278
     68279     68280     68279     68281     68280     68281     68282     68283
     68282     68284     68283     68284     68285     68286     68285     68287
     68286     68287     68288     68289     68288     68290     68289     68290
     68291     68292     68291     68293     68292     68293     68294     68295
     68294     68296     68295     68296     68297     68298     68297     68299
     68298     68299     68300     68301     68300     68302     68301     68302
     68303     68304     68303     68305     68304     68305     68306     68307
     68306     68308     68307     68308     68309     68310     68309     68311
     68310     68311     68312     68313     68312     68314     68313     68314
     68315     68316     68315     68317     68316     68317     68318     68319
     68318     68320     68319     68320     68321     68322     68321     68323
     68322     68323     68324     68325     68324     68326     68325     68326
     68327     68328     68327     68329     68328     68329     68330     68331
     68330     68332     68331     68332     68333     68334     68333     68335
     68334     68335     68336     68337     68336     68338     68337     68338
     68339     68340     68339     68341     68340     68341     68342     68343
     68342     68344     68343     68344     68345     68346     68345     68347
     68346     68347     68348     68349     68348     68350     68349     68350
     68351     68352     68351     68353     68352     68353     68354     68355
     68354     68356     68355     68356     68357     68358     68357     68359
     68358     68359     68360     68361     68360     68362     68361     68362
     68363     68364     68363     68365     68364     68365     68366     68367
     68366     68368     68367     68368     68369     68370     68369     68371
     68370     68371     68372     68373     68372     68374     68373     68374
     68375     68376     68375     68377     68376     68377     68378     68379
     68378     68380     68379     68380     68381     68382     68381     68383
     68382     68383     68384     68385     68384     68386     68385     68386
     68387     68388     68387     68389     68388     68389     68390     68391
     68390     68392     68391     68392     68393     68394     68393     68395
     68394     68395     68396     68397     68396     68398     68397     68398
     68399     68400     68399     68401     68400     68401     68402     68403
     68402     68404     68403     68404     68405     68406     68405     68407
     68406     68407     68408     68409     68408     68410     68409     68410
     68411     68412     68411     68413     68412     68413     68414     68415
     68414     68416     68415     68416     68417     68418     68417     68419
     68418     68419     68420     68421     68420     68422     68421     68422
     68423     68424     68423     68425     68424     68425     68426     68427
     68426     68428     68427     68428     68429     68430     68429     68431
     68430     68431     68432     68433     68432     68434     68433     68434
     68435     68436     68435     68437     68436     68437     68438     68439
     68438     68440     68439     68440     68441     68442     68441     68443
     68442     68443     68444     68445     68444     68446     68445     68446
     68447     68448     68447     68449     68448     68449     68450     68451
     68450     68452     68451     68452     68453     68454     68453     68455
     68454     68455     68456     68457     68456     68458     68457     68458
     68459     68460     68459     68461     68460     68461     68462     68463
     68462     68464     68463     68464     68465     68466     68465     68467
     68466     68467     68468     68469     68468     68470     68469     68470
     68471     68472     68471     68473     68472     68473     68474     68475
     68474     68476     68475     68476     68477     68478     68477     68479
     68478     68479     68480     68481     68480     68482     68481     68482
     68483     68484     68483     68485     68484     68485     68486     68487
     68486     68488     68487     68488     68489     68490     68489     68491
     68490     68491     68492     68493     68492     68494     68493     68494
     68495     68496     68495     68497     68496     68497     68498     68499
     68498     68500     68499     68500     68501     68502     68501     68503
     68502     68503     68504     68505     68504     68506     68505     68506
     68507     68508     68507     68509     68508     68509     68510     68511
     68510     68512     68511     68512     68513     68514     68513     68515
     68514     68515     68516     68517     68516     68518     68517     68518
     68519     68520     68519     68521     68520     68521     68522     68523
     68522     68524     68523     68524     68525     68526     68525     68527
     68526     68527     68528     68529     68528     68530     68529     68530
     68531     68532     68531     68533     68532     68533     68534     68535
     68534     68536     68535     68536     68537     68538     68537     68539
     68538     68539     68540     68541     68540     68542     68541     68542
     68543     68544     68543     68545     68544     68545     68546     68547
     68546     68548     68547     68548     68549     68550     68549     68551
     68550     68551     68552     68553     68552     68554     68553     68554
     68555     68556     68555     68557     68556     68557     68558     68559
     68558     68560     68559     68560     68561     68562     68561     68563
     68562     68563     68564     68565     68564     68566     68565     68566
     68567     68568     68567     68569     68568     68569     68570     68571
     68570     68572     68571     68572     68573     68574     68573     68575
     68574     68575     68576     68577     68576     68578     68577     68578
     68579     68580     68579     68581     68580     68581     68582     68583
     68582     68584     68583     68584     68585     68586     68585     68587
     68586     68587     68588     68589     68588     68590     68589     68590
     68591     68592     68591     68593     68592     68593     68594     68595
     68594     68596     68595     68596     68597     68598     68597     68599
     68598     68599     68600     68601     68600     68602     68601     68602
     68603     68604     68603     68605     68604     68605     68606     68607
     68606     68608     68607     68608     68609     68610     68609     68611
     68610     68611     68612     68613     68612     68614     68613     68614
     68615     68616     68615     68617     68616     68617     68618     68619
     68618     68620     68619     68620     68621     68622     68621     68623
     68622     68623     68624     68625     68624     68626     68625     68626
     68627     68628     68627     68629     68628     68629     68630     68631
     68630     68632     68631     68632     68633     68634     68633     68635
     68634     68635     68636     68637     68636     68638     68637     68638
     68639     68640     68639     68641     68640     68641     68642     68643
     68642     68644     68643     68644     68645     68646     68645     68647
     68646     68647     68648     68649     68648     68650     68649     68650
     68651     68652     68651     68653     68652     68653     68654     68655
     68654     68656     68655     68656     68657     68658     68657     68659
     68658     68659     68660     68661     68660     68662     68661     68662
     68663     68664     68663     68665     68664     68665     68666     68667
     68666     68668     68667     68668     68669     68670     68669     68671
     68670     68671     68672     68673     68672     68674     68673     68674
     68675     68676     68675     68677     68676     68677     68678     68679
     68678     68680     68679     68680     68681     68682     68681     68683
     68682     68683     68684     68685     68684     68686     68685     68686
     68687     68688     68687     68689     68688     68689     68690     68691
     68690     68692     68691     68692     68693     68694     68693     68695
     68694     68695     68696     68697     68696     68698     68697     68698
     68699     68700     68699     68701     68700     68701     68702     68703
     68702     68704     68703     68704     68705     68706     68705     68707
     68706     68707     68708     68709     68708     68710     68709     68710
     68711     68712     68711     68713     68712     68713     68714     68715
     68714     68716     68715     68716     68717     68718     68717     68719
     68718     68719     68720     68721     68720     68722     68721     68722
     68723     68724     68723     68725     68724     68725     68726     68727
     68726     68728     68727     68728     68729     68730     68729     68731
     68730     68731     68732     68733     68732     68734     68733     68734
     68735     68736     68735     68737     68736     68737     68738     68739
     68738     68740     68739     68740     68741     68742     68741     68743
     68742     68743     68744     68745     68744     68746     68745     68746
     68747     68748     68747     68749     68748     68749     68750     68751
     68750     68752     68751     68752     68753     68754     68753     68755
     68754     68755     68756     68757     68756     68758     68757     68758
     68759     68760     68759     68761     68760     68761     68762     68763
     68762     68764     68763     68764     68765     68766     68765     68767
     68766     68767     68768     68769     68768     68770     68769     68770
     68771     68772     68771     68773     68772     68773     68774     68775
     68774     68776     68775     68776     68777     68778     68777     68779
     68778     68779     68780     68781     68780     68782     68781     68782
     68783     68784     68783     68785     68784     68785     68786     68787
     68786     68788     68787     68788     68789     68790     68789     68791
     68790     68791     68792     68793     68792     68794     68793     68794
     68795     68796     68795     68797     68796     68797     68798     68799
     68798     68800     68799     68800     68801     68802     68801     68803
     68802     68803     68804     68805     68804     68806     68805     68806
     68807     68808     68807     68809     68808     68809     68810     68811
     68810     68812     68811     68812     68813     68814     68813     68815
     68814     68815     68816     68817     68816     68818     68817     68818
     68819     68820     68819     68821     68820     68821     68822     68823
     68822     68824     68823     68824     68825     68826     68825     68827
     68826     68827     68828     68829     68828     68830     68829     68830
     68831     68832     68831     68833     68832     68833     68834     68835
     68834     68836     68835     68836     68837     68838     68837     68839
     68838     68839     68840     68841     68840     68842     68841     68842
     68843     68844     68843     68845     68844     68845     68846     68847
     68846     68848     68847     68848     68849     68850     68849     68851
     68850     68851     68852     68853     68852     68854     68853     68854
     68855     68856     68855     68857     68856     68857     68858     68859
     68858     68860     68859     68860     68861     68862     68861     68863
     68862     68863     68864     68865     68864     68866     68865     68866
     68867     68868     68867     68869     68868     68869     68870     68871
     68870     68872     68871     68872     68873     68874     68873     68875
     68874     68875     68876     68877     68876     68878     68877     68878
     68879     68880     68879     68881     68880     68881     68882     68883
     68882     68884     68883     68884     68885     68886     68885     68887
     68886     68887     68888     68889     68888     68890     68889     68890
     68891     68892     68891     68893     68892     68893     68894     68895
     68894     68896     68895     68896     68897     68898     68897     68899
     68898     68899     68900     68901     68900     68902     68901     68902
     68903     68904     68903     68905     68904     68905     68906     68907
     68906     68908     68907     68908     68909     68910     68909     68911
     68910     68911     68912     68913     68912     68914     68913     68914
     68915     68916     68915     68917     68916     68917     68918     68919
     68918     68920     68919     68920     68921     68922     68921     68923
     68922     68923     68924     68925     68924     68926     68925     68926
     68927     68928     68927     68929     68928     68929     68930     68931
     68930     68932     68931     68932     68933     68934     68933     68935
     68934     68935     68936     68937     68936     68938     68937     68938
     68939     68940     68939     68941     68940     68941     68942     68943
     68942     68944     68943     68944     68945     68946     68945     68947
     68946     68947     68948     68949     68948     68950     68949     68950
     68951     68952     68951     68953     68952     68953     68954     68955
     68954     68956     68955     68956     68957     68958     68957     68959
     68958     68959     68960     68961     68960     68962     68961     68962
     68963     68964     68963     68965     68964     68965     68966     68967
     68966     68968     68967     68968     68969     68970     68969     68971
     68970     68971     68972     68973     68972     68974     68973     68974
     68975     68976     68975     68977     68976     68977     68978     68979
     68978     68980     68979     68980     68981     68982     68981     68983
     68982     68983     68984     68985     68984     68986     68985     68986
     68987     68988     68987     68989     68988     68989     68990     68991
     68990     68992     68991     68992     68993     68994     68993     68995
     68994     68995     68996     68997     68996     68998     68997     68998
     68999     69000     68999     69001     69000     69001     69002     69003
     69002     69004     69003     69004     69005     69006     69005     69007
     69006     69007     69008     69009     69008     69010     69009     69010
     69011     69012     69011     69013     69012     69013     69014     69015
     69014     69016     69015     69016     69017     69018     69017     69019
     69018     69019     69020     69021     69020     69022     69021     69022
     69023     69024     69023     69025     69024     69025     69026     69027
     69026     69028     69027     69028     69029     69030     69029     69031
     69030     69031     69032     69033     69032     69034     69033     69034
     69035     69036     69035     69037     69036     69037     69038     69039
     69038     69040     69039     69040     69041     69042     69041     69043
     69042     69043     69044     69045     69044     69046     69045     69046
     69047     69048     69047     69049     69048     69049     69050     69051
     69050     69052     69051     69052     69053     69054     69053     69055
     69054     69055     69056     69057     69056     69058     69057     69058
     69059     69060     69059     69061     69060     69061     69062     69063
     69062     69064     69063     69064     69065     69066     69065     69067
     69066     69067     69068     69069     69068     69070     69069     69070
     69071     69072     69071     69073     69072     69073     69074     69075
     69074     69076     69075     69076     69077     69078     69077     69079
     69078     69079     69080     69081     69080     69082     69081     69082
     69083     69084     69083     69085     69084     69085     69086     69087
     69086     69088     69087     69088     69089     69090     69089     69091
     69090     69091     69092     69093     69092     69094     69093     69094
     69095     69096     69095     69097     69096     69097     69098     69099
     69098     69100     69099     69100     69101     69102     69101     69103
     69102     69103     69104     69105     69104     69106     69105     69106
     69107     69108     69107     69109     69108     69109     69110     69111
     69110     69112     69111     69112     69113     69114     69113     69115
     69114     69115     69116     69117     69116     69118     69117     69118
     69119     69120     69119     69121     69120     69121     69122     69123
     69122     69124     69123     69124     69125     69126     69125     69127
     69126     69127     69128     69129     69128     69130     69129     69130
     69131     69132     69131     69133     69132     69133     69134     69135
     69134     69136     69135     69136     69137     69138     69137     69139
     69138     69139     69140     69141     69140     69142     69141     69142
     69143     69144     69143     69145     69144     69145     69146     69147
     69146     69148     69147     69148     69149     69150     69149     69151
     69150     69151     69152     69153     69152     69154     69153     69154
     69155     69156     69155     69157     69156     69157     69158     69159
     69158     69160     69159     69160     69161     69162     69161     69163
     69162     69163     69164     69165     69164     69166     69165     69166
     69167     69168     69167     69169     69168     69169     69170     69171
     69170     69172     69171     69172     69173     69174     69173     69175
     69174     69175     69176     69177     69176     69178     69177     69178
     69179     69180     69179     69181     69180     69181     69182     69183
     69182     69184     69183     69184     69185     69186     69185     69187
     69186     69187     69188     69189     69188     69190     69189     69190
     69191     69192     69191     69193     69192     69193     69194     69195
     69194     69196     69195     69196     69197     69198     69197     69199
     69198     69199     69200     69201     69200     69202     69201     69202
     69203     69204     69203     69205     69204     69205     69206     69207
     69206     69208     69207     69208     69209     69210     69209     69211
     69210     69211     69212     69213     69212     69214     69213     69214
     69215     69216     69215     69217     69216     69217     69218     69219
     69218     69220     69219     69220     69221     69222     69221     69223
     69222     69223     69224     69225     69224     69226     69225     69226
     69227     69228     69227     69229     69228     69229     69230     69231
     69230     69232     69231     69232     69233     69234     69233     69235
     69234     69235     69236     69237     69236     69238     69237     69238
     69239     69240     69239     69241     69240     69241     69242     69243
     69242     69244     69243     69244     69245     69246     69245     69247
     69246     69247     69248     69249     69248     69250     69249     69250
     69251     69252     69251     69253     69252     69253     69254     69255
     69254     69256     69255     69256     69257     69258     69257     69259
     69258     69259     69260     69261     69260     69262     69261     69262
     69263     69264     69263     69265     69264     69265     69266     69267
     69266     69268     69267     69268     69269     69270     69269     69271
     69270     69271     69272     69273     69272     69274     69273     69274
     69275     69276     69275     69277     69276     69277     69278     69279
     69278     69280     69279     69280     69281     69282     69281     69283
     69282     69283     69284     69285     69284     69286     69285     69286
     69287     69288     69287     69289     69288     69289     69290     69291
     69290     69292     69291     69292     69293     69294     69293     69295
     69294     69295     69296     69297     69296     69298     69297     69298
     69299     69300     69299     69301     69300     69301     69302     69303
     69302     69304     69303     69304     69305     69306     69305     69307
     69306     69307     69308     69309     69308     69310     69309     69310
     69311     69312     69311     69313     69312     69313     69314     69315
     69314     69316     69315     69316     69317     69318     69317     69319
     69318     69319     69320     69321     69320     69322     69321     69322
     69323     69324     69323     69325     69324     69325     69326     69327
     69326     69328     69327     69328     69329     69330     69329     69331
     69330     69331     69332     69333     69332     69334     69333     69334
     69335     69336     69335     69337     69336     69337     69338     69339
     69338     69340     69339     69340     69341     69342     69341     69343
     69342     69343     69344     69345     69344     69346     69345     69346
     69347     69348     69347     69349     69348     69349     69350     69351
     69350     69352     69351     69352     69353     69354     69353     69355
     69354     69355     69356     69357     69356     69358     69357     69358
     69359     69360     69359     69361     69360     69361     69362     69363
     69362     69364     69363     69364     69365     69366     69365     69367
     69366     69367     69368     69369     69368     69370     69369     69370
     69371     69372     69371     69373     69372     69373     69374     69375
     69374     69376     69375     69376     69377     69378     69377     69379
     69378     69379     69380     69381     69380     69382     69381     69382
     69383     69384     69383     69385     69384     69385     69386     69387
     69386     69388     69387     69388     69389     69390     69389     69391
     69390     69391     69392     69393     69392     69394     69393     69394
     69395     69396     69395     69397     69396     69397     69398     69399
     69398     69400     69399     69400     69401     69402     69401     69403
     69402     69403     69404     69405     69404     69406     69405     69406
     69407     69408     69407     69409     69408     69409     69410     69411
     69410     69412     69411     69412     69413     69414     69413     69415
     69414     69415     69416     69417     69416     69418     69417     69418
     69419     69420     69419     69421     69420     69421     69422     69423
     69422     69424     69423     69424     69425     69426     69425     69427
     69426     69427     69428     69429     69428     69430     69429     69430
     69431     69432     69431     69433     69432     69433     69434     69435
     69434     69436     69435     69436     69437     69438     69437     69439
     69438     69439     69440     69441     69440     69442     69441     69442
     69443     69444     69443     69445     69444     69445     69446     69447
     69446     69448     69447     69448     69449     69450     69449     69451
     69450     69451     69452     69453     69452     69454     69453     69454
     69455     69456     69455     69457     69456     69457     69458     69459
     69458     69460     69459     69460     69461     69462     69461     69463
     69462     69463     69464     69465     69464     69466     69465     69466
     69467     69468     69467     69469     69468     69469     69470     69471
     69470     69472     69471     69472     69473     69474     69473     69475
     69474     69475     69476     69477     69476     69478     69477     69478
     69479     69480     69479     69481     69480     69481     69482     69483
     69482     69484     69483     69484     69485     69486     69485     69487
     69486     69487     69488     69489     69488     69490     69489     69490
     69491     69492     69491     69493     69492     69493     69494     69495
     69494     69496     69495     69496     69497     69498     69497     69499
     69498     69499     69500     69501     69500     69502     69501     69502
     69503     69504     69503     69505     69504     69505     69506     69507
     69506     69508     69507     69508     69509     69510     69509     69511
     69510     69511     69512     69513     69512     69514     69513     69514
     69515     69516     69515     69517     69516     69517     69518     69519
     69518     69520     69519     69520     69521     69522     69521     69523
     69522     69523     69524     69525     69524     69526     69525     69526
     69527     69528     69527     69529     69528     69529     69530     69531
     69530     69532     69531     69532     69533     69534     69533     69535
     69534     69535     69536     69537     69536     69538     69537     69538
     69539     69540     69539     69541     69540     69541     69542     69543
     69542     69544     69543     69544     69545     69546     69545     69547
     69546     69547     69548     69549     69548     69550     69549     69550
     69551     69552     69551     69553     69552     69553     69554     69555
     69554     69556     69555     69556     69557     69558     69557     69559
     69558     69559     69560     69561     69560     69562     69561     69562
     69563     69564     69563     69565     69564     69565     69566     69567
     69566     69568     69567     69568     69569     69570     69569     69571
     69570     69571     69572     69573     69572     69574     69573     69574
     69575     69576     69575     69577     69576     69577     69578     69579
     69578     69580     69579     69580     69581     69582     69581     69583
     69582     69583     69584     69585     69584     69586     69585     69586
     69587     69588     69587     69589     69588     69589     69590     69591
     69590     69592     69591     69592     69593     69594     69593     69595
     69594     69595     69596     69597     69596     69598     69597     69598
     69599     69600     69599     69601     69600     69601     69602     69603
     69602     69604     69603     69604     69605     69606     69605     69607
     69606     69607     69608     69609     69608     69610     69609     69610
     69611     69612     69611     69613     69612     69613     69614     69615
     69614     69616     69615     69616     69617     69618     69617     69619
     69618     69619     69620     69621     69620     69622     69621     69622
     69623     69624     69623     69625     69624     69625     69626     69627
     69626     69628     69627     69628     69629     69630     69629     69631
     69630     69631     69632     69633     69632     69634     69633     69634
     69635     69636     69635     69637     69636     69637     69638     69639
     69638     69640     69639     69640     69641     69642     69641     69643
     69642     69643     69644     69645     69644     69646     69645     69646
     69647     69648     69647     69649     69648     69649     69650     69651
     69650     69652     69651     69652     69653     69654     69653     69655
     69654     69655     69656     69657     69656     69658     69657     69658
     69659     69660     69659     69661     69660     69661     69662     69663
     69662     69664     69663     69664     69665     69666     69665     69667
     69666     69667     69668     69669     69668     69670     69669     69670
     69671     69672     69671     69673     69672     69673     69674     69675
     69674     69676     69675     69676     69677     69678     69677     69679
     69678     69679     69680     69681     69680     69682     69681     69682
     69683     69684     69683     69685     69684     69685     69686     69687
     69686     69688     69687     69688     69689     69690     69689     69691
     69690     69691     69692     69693     69692     69694     69693     69694
     69695     69696     69695     69697     69696     69697     69698     69699
     69698     69700     69699     69700     69701     69702     69701     69703
     69702     69703     69704     69705     69704     69706     69705     69706
     69707     69708     69707     69709     69708     69709     69710     69711
     69710     69712     69711     69712     69713     69714     69713     69715
     69714     69715     69716     69717     69716     69718     69717     69718
     69719     69720     69719     69721     69720     69721     69722     69723
     69722     69724     69723     69724     69725     69726     69725     69727
     69726     69727     69728     69729     69728     69730     69729     69730
     69731     69732     69731     69733     69732     69733     69734     69735
     69734     69736     69735     69736     69737     69738     69737     69739
     69738     69739     69740     69741     69740     69742     69741     69742
     69743     69744     69743     69745     69744     69745     69746     69747
     69746     69748     69747     69748     69749     69750     69749     69751
     69750     69751     69752     69753     69752     69754     69753     69754
     69755     69756     69755     69757     69756     69757     69758     69759
     69758     69760     69759     69760     69761     69762     69761     69763
     69762     69763     69764     69765     69764     69766     69765     69766
     69767     69768     69767     69769     69768     69769     69770     69771
     69770     69772     69771     69772     69773     69774     69773     69775
     69774     69775     69776     69777     69776     69778     69777     69778
     69779     69780     69779     69781     69780     69781     69782     69783
     69782     69784     69783     69784     69785     69786     69785     69787
     69786     69787     69788     69789     69788     69790     69789     69790
     69791     69792     69791     69793     69792     69793     69794     69795
     69794     69796     69795     69796     69797     69798     69797     69799
     69798     69799     69800     69801     69800     69802     69801     69802
     69803     69804     69803     69805     69804     69805     69806     69807
     69806     69808     69807     69808     69809     69810     69809     69811
     69810     69811     69812     69813     69812     69814     69813     69814
     69815     69816     69815     69817     69816     69817     69818     69819
     69818     69820     69819     69820     69821     69822     69821     69823
     69822     69823     69824     69825     69824     69826     69825     69826
     69827     69828     69827     69829     69828     69829     69830     69831
     69830     69832     69831     69832     69833     69834     69833     69835
     69834     69835     69836     69837     69836     69838     69837     69838
     69839     69840     69839     69841     69840     69841     69842     69843
     69842     69844     69843     69844     69845     69846     69845     69847
     69846     69847     69848     69849     69848     69850     69849     69850
     69851     69852     69851     69853     69852     69853     69854     69855
     69854     69856     69855     69856     69857     69858     69857     69859
     69858     69859     69860     69861     69860     69862     69861     69862
     69863     69864     69863     69865     69864     69865     69866     69867
     69866     69868     69867     69868     69869     69870     69869     69871
     69870     69871     69872     69873     69872     69874     69873     69874
     69875     69876     69875     69877     69876     69877     69878     69879
     69878     69880     69879     69880     69881     69882     69881     69883
     69882     69883     69884     69885     69884     69886     69885     69886
     69887     69888     69887     69889     69888     69889     69890     69891
     69890     69892     69891     69892     69893     69894     69893     69895
     69894     69895     69896     69897     69896     69898     69897     69898
     69899     69900     69899     69901     69900     69901     69902     69903
     69902     69904     69903     69904     69905     69906     69905     69907
     69906     69907     69908     69909     69908     69910     69909     69910
     69911     69912     69911     69913     69912     69913     69914     69915
     69914     69916     69915     69916     69917     69918     69917     69919
     69918     69919     69920     69921     69920     69922     69921     69922
     69923     69924     69923     69925     69924     69925     69926     69927
     69926     69928     69927     69928     69929     69930     69929     69931
     69930     69931     69932     69933     69932     69934     69933     69934
     69935     69936     69935     69937     69936     69937     69938     69939
     69938     69940     69939     69940     69941     69942     69941     69943
     69942     69943     69944     69945     69944     69946     69945     69946
     69947     69948     69947     69949     69948     69949     69950     69951
     69950     69952     69951     69952     69953     69954     69953     69955
     69954     69955     69956     69957     69956     69958     69957     69958
     69959     69960     69959     69961     69960     69961     69962     69963
     69962     69964     69963     69964     69965     69966     69965     69967
     69966     69967     69968     69969     69968     69970     69969     69970
     69971     69972     69971     69973     69972     69973     69974     69975
     69974     69976     69975     69976     69977     69978     69977     69979
     69978     69979     69980     69981     69980     69982     69981     69982
     69983     69984     69983     69985     69984     69985     69986     69987
     69986     69988     69987     69988     69989     69990     69989     69991
     69990     69991     69992     69993     69992     69994     69993     69994
     69995     69996     69995     69997     69996     69997     69998     69999
     69998     70000     69999     70000     70001     70002     70001     70003
     70002     70003     70004     70005     70004     70006     70005     70006
     70007     70008     70007     70009     70008     70009     70010     70011
     70010     70012     70011     70012     70013     70014     70013     70015
     70014     70015     70016     70017     70016     70018     70017     70018
     70019     70020     70019     70021     70020     70021     70022     70023
     70022     70024     70023     70024     70025     70026     70025     70027
     70026     70027     70028     70029     70028     70030     70029     70030
     70031     70032     70031     70033     70032     70033     70034     70035
     70034     70036     70035     70036     70037     70038     70037     70039
     70038     70039     70040     70041     70040     70042     70041     70042
     70043     70044     70043     70045     70044     70045     70046     70047
     70046     70048     70047     70048     70049     70050     70049     70051
     70050     70051     70052     70053     70052     70054     70053     70054
     70055     70056     70055     70057     70056     70057     70058     70059
     70058     70060     70059     70060     70061     70062     70061     70063
     70062     70063     70064     70065     70064     70066     70065     70066
     70067     70068     70067     70069     70068     70069     70070     70071
     70070     70072     70071     70072     70073     70074     70073     70075
     70074     70075     70076     70077     70076     70078     70077     70078
     70079     70080     70079     70081     70080     70081     70082     70083
     70082     70084     70083     70084     70085     70086     70085     70087
     70086     70087     70088     70089     70088     70090     70089     70090
     70091     70092     70091     70093     70092     70093     70094     70095
     70094     70096     70095     70096     70097     70098     70097     70099
     70098     70099     70100     70101     70100     70102     70101     70102
     70103     70104     70103     70105     70104     70105     70106     70107
     70106     70108     70107     70108     70109     70110     70109     70111
     70110     70111     70112     70113     70112     70114     70113     70114
     70115     70116     70115     70117     70116     70117     70118     70119
     70118     70120     70119     70120     70121     70122     70121     70123
     70122     70123     70124     70125     70124     70126     70125     70126
     70127     70128     70127     70129     70128     70129     70130     70131
     70130     70132     70131     70132     70133     70134     70133     70135
     70134     70135     70136     70137     70136     70138     70137     70138
     70139     70140     70139     70141     70140     70141     70142     70143
     70142     70144     70143     70144     70145     70146     70145     70147
     70146     70147     70148     70149     70148     70150     70149     70150
     70151     70152     70151     70153     70152     70153     70154     70155
     70154     70156     70155     70156     70157     70158     70157     70159
     70158     70159     70160     70161     70160     70162     70161     70162
     70163     70164     70163     70165     70164     70165     70166     70167
     70166     70168     70167     70168     70169     70170     70169     70171
     70170     70171     70172     70173     70172     70174     70173     70174
     70175     70176     70175     70177     70176     70177     70178     70179
     70178     70180     70179     70180     70181     70182     70181     70183
     70182     70183     70184     70185     70184     70186     70185     70186
     70187     70188     70187     70189     70188     70189     70190     70191
     70190     70192     70191     70192     70193     70194     70193     70195
     70194     70195     70196     70197     70196     70198     70197     70198
     70199     70200     70199     70201     70200     70201     70202     70203
     70202     70204     70203     70204     70205     70206     70205     70207
     70206     70207     70208     70209     70208     70210     70209     70210
     70211     70212     70211     70213     70212     70213     70214     70215
     70214     70216     70215     70216     70217     70218     70217     70219
     70218     70219     70220     70221     70220     70222     70221     70222
     70223     70224     70223     70225     70224     70225     70226     70227
     70226     70228     70227     70228     70229     70230     70229     70231
     70230     70231     70232     70233     70232     70234     70233     70234
     70235     70236     70235     70237     70236     70237     70238     70239
     70238     70240     70239     70240     70241     70242     70241     70243
     70242     70243     70244     70245     70244     70246     70245     70246
     70247     70248     70247     70249     70248     70249     70250     70251
     70250     70252     70251     70252     70253     70254     70253     70255
     70254     70255     70256     70257     70256     70258     70257     70258
     70259     70260     70259     70261     70260     70261     70262     70263
     70262     70264     70263     70264     70265     70266     70265     70267
     70266     70267     70268     70269     70268     70270     70269     70270
     70271     70272     70271     70273     70272     70273     70274     70275
     70274     70276     70275     70276     70277     70278     70277     70279
     70278     70279     70280     70281     70280     70282     70281     70282
     70283     70284     70283     70285     70284     70285     70286     70287
     70286     70288     70287     70288     70289     70290     70289     70291
     70290     70291     70292     70293     70292     70294     70293     70294
     70295     70296     70295     70297     70296     70297     70298     70299
     70298     70300     70299     70300     70301     70302     70301     70303
     70302     70303     70304     70305     70304     70306     70305     70306
     70307     70308     70307     70309     70308     70309     70310     70311
     70310     70312     70311     70312     70313     70314     70313     70315
     70314     70315     70316     70317     70316     70318     70317     70318
     70319     70320     70319     70321     70320     70321     70322     70323
     70322     70324     70323     70324     70325     70326     70325     70327
     70326     70327     70328     70329     70328     70330     70329     70330
     70331     70332     70331     70333     70332     70333     70334     70335
     70334     70336     70335     70336     70337     70338     70337     70339
     70338     70339     70340     70341     70340     70342     70341     70342
     70343     70344     70343     70345     70344     70345     70346     70347
     70346     70348     70347     70348     70349     70350     70349     70351
     70350     70351     70352     70353     70352     70354     70353     70354
     70355     70356     70355     70357     70356     70357     70358     70359
     70358     70360     70359     70360     70361     70362     70361     70363
     70362     70363     70364     70365     70364     70366     70365     70366
     70367     70368     70367     70369     70368     70369     70370     70371
     70370     70372     70371     70372     70373     70374     70373     70375
     70374     70375     70376     70377     70376     70378     70377     70378
     70379     70380     70379     70381     70380     70381     70382     70383
     70382     70384     70383     70384     70385     70386     70385     70387
     70386     70387     70388     70389     70388     70390     70389     70390
     70391     70392     70391     70393     70392     70393     70394     70395
     70394     70396     70395     70396     70397     70398     70397     70399
     70398     70399     70400     70401     70400     70402     70401     70402
     70403     70404     70403     70405     70404     70405     70406     70407
     70406     70408     70407     70408     70409     70410     70409     70411
     70410     70411     70412     70413     70412     70414     70413     70414
     70415     70416     70415     70417     70416     70417     70418     70419
     70418     70420     70419     70420     70421     70422     70421     70423
     70422     70423     70424     70425     70424     70426     70425     70426
     70427     70428     70427     70429     70428     70429     70430     70431
     70430     70432     70431     70432     70433     70434     70433     70435
     70434     70435     70436     70437     70436     70438     70437     70438
     70439     70440     70439     70441     70440     70441     70442     70443
     70442     70444     70443     70444     70445     70446     70445     70447
     70446     70447     70448     70449     70448     70450     70449     70450
     70451     70452     70451     70453     70452     70453     70454     70455
     70454     70456     70455     70456     70457     70458     70457     70459
     70458     70459     70460     70461     70460     70462     70461     70462
     70463     70464     70463     70465     70464     70465     70466     70467
     70466     70468     70467     70468     70469     70470     70469     70471
     70470     70471     70472     70473     70472     70474     70473     70474
     70475     70476     70475     70477     70476     70477     70478     70479
     70478     70480     70479     70480     70481     70482     70481     70483
     70482     70483     70484     70485     70484     70486     70485     70486
     70487     70488     70487     70489     70488     70489     70490     70491
     70490     70492     70491     70492     70493     70494     70493     70495
     70494     70495     70496     70497     70496     70498     70497     70498
     70499     70500     70499     70501     70500     70501     70502     70503
     70502     70504     70503     70504     70505     70506     70505     70507
     70506     70507     70508     70509     70508     70510     70509     70510
     70511     70512     70511     70513     70512     70513     70514     70515
     70514     70516     70515     70516     70517     70518     70517     70519
     70518     70519     70520     70521     70520     70522     70521     70522
     70523     70524     70523     70525     70524     70525     70526     70527
     70526     70528     70527     70528     70529     70530     70529     70531
     70530     70531     70532     70533     70532     70534     70533     70534
     70535     70536     70535     70537     70536     70537     70538     70539
     70538     70540     70539     70540     70541     70542     70541     70543
     70542     70543     70544     70545     70544     70546     70545     70546
     70547     70548     70547     70549     70548     70549     70550     70551
     70550     70552     70551     70552     70553     70554     70553     70555
     70554     70555     70556     70557     70556     70558     70557     70558
     70559     70560     70559     70561     70560     70561     70562     70563
     70562     70564     70563     70564     70565     70566     70565     70567
     70566     70567     70568     70569     70568     70570     70569     70570
     70571     70572     70571     70573     70572     70573     70574     70575
     70574     70576     70575     70576     70577     70578     70577     70579
     70578     70579     70580     70581     70580     70582     70581     70582
     70583     70584     70583     70585     70584     70585     70586     70587
     70586     70588     70587     70588     70589     70590     70589     70591
     70590     70591     70592     70593     70592     70594     70593     70594
     70595     70596     70595     70597     70596     70597     70598     70599
     70598     70600     70599     70600     70601     70602     70601     70603
     70602     70603     70604     70605     70604     70606     70605     70606
     70607     70608     70607     70609     70608     70609     70610     70611
     70610     70612     70611     70612     70613     70614     70613     70615
     70614     70615     70616     70617     70616     70618     70617     70618
     70619     70620     70619     70621     70620     70621     70622     70623
     70622     70624     70623     70624     70625     70626     70625     70627
     70626     70627     70628     70629     70628     70630     70629     70630
     70631     70632     70631     70633     70632     70633     70634     70635
     70634     70636     70635     70636     70637     70638     70637     70639
     70638     70639     70640     70641     70640     70642     70641     70642
     70643     70644     70643     70645     70644     70645     70646     70647
     70646     70648     70647     70648     70649     70650     70649     70651
     70650     70651     70652     70653     70652     70654     70653     70654
     70655     70656     70655     70657     70656     70657     70658     70659
     70658     70660     70659     70660     70661     70662     70661     70663
     70662     70663     70664     70665     70664     70666     70665     70666
     70667     70668     70667     70669     70668     70669     70670     70671
     70670     70672     70671     70672     70673     70674     70673     70675
     70674     70675     70676     70677     70676     70678     70677     70678
     70679     70680     70679     70681     70680     70681     70682     70683
     70682     70684     70683     70684     70685     70686     70685     70687
     70686     70687     70688     70689     70688     70690     70689     70690
     70691     70692     70691     70693     70692     70693     70694     70695
     70694     70696     70695     70696     70697     70698     70697     70699
     70698     70699     70700     70701     70700     70702     70701     70702
     70703     70704     70703     70705     70704     70705     70706     70707
     70706     70708     70707     70708     70709     70710     70709     70711
     70710     70711     70712     70713     70712     70714     70713     70714
     70715     70716     70715     70717     70716     70717     70718     70719
     70718     70720     70719     70720     70721     70722     70721     70723
     70722     70723     70724     70725     70724     70726     70725     70726
     70727     70728     70727     70729     70728     70729     70730     70731
     70730     70732     70731     70732     70733     70734     70733     70735
     70734     70735     70736     70737     70736     70738     70737     70738
     70739     70740     70739     70741     70740     70741     70742     70743
     70742     70744     70743     70744     70745     70746     70745     70747
     70746     70747     70748     70749     70748     70750     70749     70750
     70751     70752     70751     70753     70752     70753     70754     70755
     70754     70756     70755     70756     70757     70758     70757     70759
     70758     70759     70760     70761     70760     70762     70761     70762
     70763     70764     70763     70765     70764     70765     70766     70767
     70766     70768     70767     70768     70769     70770     70769     70771
     70770     70771     70772     70773     70772     70774     70773     70774
     70775     70776     70775     70777     70776     70777     70778     70779
     70778     70780     70779     70780     70781     70782     70781     70783
     70782     70783     70784     70785     70784     70786     70785     70786
     70787     70788     70787     70789     70788     70789     70790     70791
     70790     70792     70791     70792     70793     70794     70793     70795
     70794     70795     70796     70797     70796     70798     70797     70798
     70799     70800     70799     70801     70800     70801     70802     70803
     70802     70804     70803     70804     70805     70806     70805     70807
     70806     70807     70808     70809     70808     70810     70809     70810
     70811     70812     70811     70813     70812     70813     70814     70815
     70814     70816     70815     70816     70817     70818     70817     70819
     70818     70819     70820     70821     70820     70822     70821     70822
     70823     70824     70823     70825     70824     70825     70826     70827
     70826     70828     70827     70828     70829     70830     70829     70831
     70830     70831     70832     70833     70832     70834     70833     70834
     70835     70836     70835     70837     70836     70837     70838     70839
     70838     70840     70839     70840     70841     70842     70841     70843
     70842     70843     70844     70845     70844     70846     70845     70846
     70847     70848     70847     70849     70848     70849     70850     70851
     70850     70852     70851     70852     70853     70854     70853     70855
     70854     70855     70856     70857     70856     70858     70857     70858
     70859     70860     70859     70861     70860     70861     70862     70863
     70862     70864     70863     70864     70865     70866     70865     70867
     70866     70867     70868     70869     70868     70870     70869     70870
     70871     70872     70871     70873     70872     70873     70874     70875
     70874     70876     70875     70876     70877     70878     70877     70879
     70878     70879     70880     70881     70880     70882     70881     70882
     70883     70884     70883     70885     70884     70885     70886     70887
     70886     70888     70887     70888     70889     70890     70889     70891
     70890     70891     70892     70893     70892     70894     70893     70894
     70895     70896     70895     70897     70896     70897     70898     70899
     70898     70900     70899     70900     70901     70902     70901     70903
     70902     70903     70904     70905     70904     70906     70905     70906
     70907     70908     70907     70909     70908     70909     70910     70911
     70910     70912     70911     70912     70913     70914     70913     70915
     70914     70915     70916     70917     70916     70918     70917     70918
     70919     70920     70919     70921     70920     70921     70922     70923
     70922     70924     70923     70924     70925     70926     70925     70927
     70926     70927     70928     70929     70928     70930     70929     70930
     70931     70932     70931     70933     70932     70933     70934     70935
     70934     70936     70935     70936     70937     70938     70937     70939
     70938     70939     70940     70941     70940     70942     70941     70942
     70943     70944     70943     70945     70944     70945     70946     70947
     70946     70948     70947     70948     70949     70950     70949     70951
     70950     70951     70952     70953     70952     70954     70953     70954
     70955     70956     70955     70957     70956     70957     70958     70959
     70958     70960     70959     70960     70961     70962     70961     70963
     70962     70963     70964     70965     70964     70966     70965     70966
     70967     70968     70967     70969     70968     70969     70970     70971
     70970     70972     70971     70972     70973     70974     70973     70975
     70974     70975     70976     70977     70976     70978     70977     70978
     70979     70980     70979     70981     70980     70981     70982     70983
     70982     70984     70983     70984     70985     70986     70985     70987
     70986     70987     70988     70989     70988     70990     70989     70990
     70991     70992     70991     70993     70992     70993     70994     70995
     70994     70996     70995     70996     70997     70998     70997     70999
     70998     70999     71000     71001     71000     71002     71001     71002
     71003     71004     71003     71005     71004     71005     71006     71007
     71006     71008     71007     71008     71009     71010     71009     71011
     71010     71011     71012     71013     71012     71014     71013     71014
     71015     71016     71015     71017     71016     71017     71018     71019
     71018     71020     71019     71020     71021     71022     71021     71023
     71022     71023     71024     71025     71024     71026     71025     71026
     71027     71028     71027     71029     71028     71029     71030     71031
     71030     71032     71031     71032     71033     71034     71033     71035
     71034     71035     71036     71037     71036     71038     71037     71038
     71039     71040     71039     71041     71040     71041     71042     71043
     71042     71044     71043     71044     71045     71046     71045     71047
     71046     71047     71048     71049     71048     71050     71049     71050
     71051     71052     71051     71053     71052     71053     71054     71055
     71054     71056     71055     71056     71057     71058     71057     71059
     71058     71059     71060     71061     71060     71062     71061     71062
     71063     71064     71063     71065     71064     71065     71066     71067
     71066     71068     71067     71068     71069     71070     71069     71071
     71070     71071     71072     71073     71072     71074     71073     71074
     71075     71076     71075     71077     71076     71077     71078     71079
     71078     71080     71079     71080     71081     71082     71081     71083
     71082     71083     71084     71085     71084     71086     71085     71086
     71087     71088     71087     71089     71088     71089     71090     71091
     71090     71092     71091     71092     71093     71094     71093     71095
     71094     71095     71096     71097     71096     71098     71097     71098
     71099     71100     71099     71101     71100     71101     71102     71103
     71102     71104     71103     71104     71105     71106     71105     71107
     71106     71107     71108     71109     71108     71110     71109     71110
     71111     71112     71111     71113     71112     71113     71114     71115
     71114     71116     71115     71116     71117     71118     71117     71119
     71118     71119     71120     71121     71120     71122     71121     71122
     71123     71124     71123     71125     71124     71125     71126     71127
     71126     71128     71127     71128     71129     71130     71129     71131
     71130     71131     71132     71133     71132     71134     71133     71134
     71135     71136     71135     71137     71136     71137     71138     71139
     71138     71140     71139     71140     71141     71142     71141     71143
     71142     71143     71144     71145     71144     71146     71145     71146
     71147     71148     71147     71149     71148     71149     71150     71151
     71150     71152     71151     71152     71153     71154     71153     71155
     71154     71155     71156     71157     71156     71158     71157     71158
     71159     71160     71159     71161     71160     71161     71162     71163
     71162     71164     71163     71164     71165     71166     71165     71167
     71166     71167     71168     71169     71168     71170     71169     71170
     71171     71172     71171     71173     71172     71173     71174     71175
     71174     71176     71175     71176     71177     71178     71177     71179
     71178     71179     71180     71181     71180     71182     71181     71182
     71183     71184     71183     71185     71184     71185     71186     71187
     71186     71188     71187     71188     71189     71190     71189     71191
     71190     71191     71192     71193     71192     71194     71193     71194
     71195     71196     71195     71197     71196     71197     71198     71199
     71198     71200     71199     71200     71201     71202     71201     71203
     71202     71203     71204     71205     71204     71206     71205     71206
     71207     71208     71207     71209     71208     71209     71210     71211
     71210     71212     71211     71212     71213     71214     71213     71215
     71214     71215     71216     71217     71216     71218     71217     71218
     71219     71220     71219     71221     71220     71221     71222     71223
     71222     71224     71223     71224     71225     71226     71225     71227
     71226     71227     71228     71229     71228     71230     71229     71230
     71231     71232     71231     71233     71232     71233     71234     71235
     71234     71236     71235     71236     71237     71238     71237     71239
     71238     71239     71240     71241     71240     71242     71241     71242
     71243     71244     71243     71245     71244     71245     71246     71247
     71246     71248     71247     71248     71249     71250     71249     71251
     71250     71251     71252     71253     71252     71254     71253     71254
     71255     71256     71255     71257     71256     71257     71258     71259
     71258     71260     71259     71260     71261     71262     71261     71263
     71262     71263     71264     71265     71264     71266     71265     71266
     71267     71268     71267     71269     71268     71269     71270     71271
     71270     71272     71271     71272     71273     71274     71273     71275
     71274     71275     71276     71277     71276     71278     71277     71278
     71279     71280     71279     71281     71280     71281     71282     71283
     71282     71284     71283     71284     71285     71286     71285     71287
     71286     71287     71288     71289     71288     71290     71289     71290
     71291     71292     71291     71293     71292     71293     71294     71295
     71294     71296     71295     71296     71297     71298     71297     71299
     71298     71299     71300     71301     71300     71302     71301     71302
     71303     71304     71303     71305     71304     71305     71306     71307
     71306     71308     71307     71308     71309     71310     71309     71311
     71310     71311     71312     71313     71312     71314     71313     71314
     71315     71316     71315     71317     71316     71317     71318     71319
     71318     71320     71319     71320     71321     71322     71321     71323
     71322     71323     71324     71325     71324     71326     71325     71326
     71327     71328     71327     71329     71328     71329     71330     71331
     71330     71332     71331     71332     71333     71334     71333     71335
     71334     71335     71336     71337     71336     71338     71337     71338
     71339     71340     71339     71341     71340     71341     71342     71343
     71342     71344     71343     71344     71345     71346     71345     71347
     71346     71347     71348     71349     71348     71350     71349     71350
     71351     71352     71351     71353     71352     71353     71354     71355
     71354     71356     71355     71356     71357     71358     71357     71359
     71358     71359     71360     71361     71360     71362     71361     71362
     71363     71364     71363     71365     71364     71365     71366     71367
     71366     71368     71367     71368     71369     71370     71369     71371
     71370     71371     71372     71373     71372     71374     71373     71374
     71375     71376     71375     71377     71376     71377     71378     71379
     71378     71380     71379     71380     71381     71382     71381     71383
     71382     71383     71384     71385     71384     71386     71385     71386
     71387     71388     71387     71389     71388     71389     71390     71391
     71390     71392     71391     71392     71393     71394     71393     71395
     71394     71395     71396     71397     71396     71398     71397     71398
     71399     71400     71399     71401     71400     71401     71402     71403
     71402     71404     71403     71404     71405     71406     71405     71407
     71406     71407     71408     71409     71408     71410     71409     71410
     71411     71412     71411     71413     71412     71413     71414     71415
     71414     71416     71415     71416     71417     71418     71417     71419
     71418     71419     71420     71421     71420     71422     71421     71422
     71423     71424     71423     71425     71424     71425     71426     71427
     71426     71428     71427     71428     71429     71430     71429     71431
     71430     71431     71432     71433     71432     71434     71433     71434
     71435     71436     71435     71437     71436     71437     71438     71439
     71438     71440     71439     71440     71441     71442     71441     71443
     71442     71443     71444     71445     71444     71446     71445     71446
     71447     71448     71447     71449     71448     71449     71450     71451
     71450     71452     71451     71452     71453     71454     71453     71455
     71454     71455     71456     71457     71456     71458     71457     71458
     71459     71460     71459     71461     71460     71461     71462     71463
     71462     71464     71463     71464     71465     71466     71465     71467
     71466     71467     71468     71469     71468     71470     71469     71470
     71471     71472     71471     71473     71472     71473     71474     71475
     71474     71476     71475     71476     71477     71478     71477     71479
     71478     71479     71480     71481     71480     71482     71481     71482
     71483     71484     71483     71485     71484     71485     71486     71487
     71486     71488     71487     71488     71489     71490     71489     71491
     71490     71491     71492     71493     71492     71494     71493     71494
     71495     71496     71495     71497     71496     71497     71498     71499
     71498     71500     71499     71500     71501     71502     71501     71503
     71502     71503     71504     71505     71504     71506     71505     71506
     71507     71508     71507     71509     71508     71509     71510     71511
     71510     71512     71511     71512     71513     71514     71513     71515
     71514     71515     71516     71517     71516     71518     71517     71518
     71519     71520     71519     71521     71520     71521     71522     71523
     71522     71524     71523     71524     71525     71526     71525     71527
     71526     71527     71528     71529     71528     71530     71529     71530
     71531     71532     71531     71533     71532     71533     71534     71535
     71534     71536     71535     71536     71537     71538     71537     71539
     71538     71539     71540     71541     71540     71542     71541     71542
     71543     71544     71543     71545     71544     71545     71546     71547
     71546     71548     71547     71548     71549     71550     71549     71551
     71550     71551     71552     71553     71552     71554     71553     71554
     71555     71556     71555     71557     71556     71557     71558     71559
     71558     71560     71559     71560     71561     71562     71561     71563
     71562     71563     71564     71565     71564     71566     71565     71566
     71567     71568     71567     71569     71568     71569     71570     71571
     71570     71572     71571     71572     71573     71574     71573     71575
     71574     71575     71576     71577     71576     71578     71577     71578
     71579     71580     71579     71581     71580     71581     71582     71583
     71582     71584     71583     71584     71585     71586     71585     71587
     71586     71587     71588     71589     71588     71590     71589     71590
     71591     71592     71591     71593     71592     71593     71594     71595
     71594     71596     71595     71596     71597     71598     71597     71599
     71598     71599     71600     71601     71600     71602     71601     71602
     71603     71604     71603     71605     71604     71605     71606     71607
     71606     71608     71607     71608     71609     71610     71609     71611
     71610     71611     71612     71613     71612     71614     71613     71614
     71615     71616     71615     71617     71616     71617     71618     71619
     71618     71620     71619     71620     71621     71622     71621     71623
     71622     71623     71624     71625     71624     71626     71625     71626
     71627     71628     71627     71629     71628     71629     71630     71631
     71630     71632     71631     71632     71633     71634     71633     71635
     71634     71635     71636     71637     71636     71638     71637     71638
     71639     71640     71639     71641     71640     71641     71642     71643
     71642     71644     71643     71644     71645     71646     71645     71647
     71646     71647     71648     71649     71648     71650     71649     71650
     71651     71652     71651     71653     71652     71653     71654     71655
     71654     71656     71655     71656     71657     71658     71657     71659
     71658     71659     71660     71661     71660     71662     71661     71662
     71663     71664     71663     71665     71664     71665     71666     71667
     71666     71668     71667     71668     71669     71670     71669     71671
     71670     71671     71672     71673     71672     71674     71673     71674
     71675     71676     71675     71677     71676     71677     71678     71679
     71678     71680     71679     71680     71681     71682     71681     71683
     71682     71683     71684     71685     71684     71686     71685     71686
     71687     71688     71687     71689     71688     71689     71690     71691
     71690     71692     71691     71692     71693     71694     71693     71695
     71694     71695     71696     71697     71696     71698     71697     71698
     71699     71700     71699     71701     71700     71701     71702     71703
     71702     71704     71703     71704     71705     71706     71705     71707
     71706     71707     71708     71709     71708     71710     71709     71710
     71711     71712     71711     71713     71712     71713     71714     71715
     71714     71716     71715     71716     71717     71718     71717     71719
     71718     71719     71720     71721     71720     71722     71721     71722
     71723     71724     71723     71725     71724     71725     71726     71727
     71726     71728     71727     71728     71729     71730     71729     71731
     71730     71731     71732     71733     71732     71734     71733     71734
     71735     71736     71735     71737     71736     71737     71738     71739
     71738     71740     71739     71740     71741     71742     71741     71743
     71742     71743     71744     71745     71744     71746     71745     71746
     71747     71748     71747     71749     71748     71749     71750     71751
     71750     71752     71751     71752     71753     71754     71753     71755
     71754     71755     71756     71757     71756     71758     71757     71758
     71759     71760     71759     71761     71760     71761     71762     71763
     71762     71764     71763     71764     71765     71766     71765     71767
     71766     71767     71768     71769     71768     71770     71769     71770
     71771     71772     71771     71773     71772     71773     71774     71775
     71774     71776     71775     71776     71777     71778     71777     71779
     71778     71779     71780     71781     71780     71782     71781     71782
     71783     71784     71783     71785     71784     71785     71786     71787
     71786     71788     71787     71788     71789     71790     71789     71791
     71790     71791     71792     71793     71792     71794     71793     71794
     71795     71796     71795     71797     71796     71797     71798     71799
     71798     71800     71799     71800     71801     71802     71801     71803
     71802     71803     71804     71805     71804     71806     71805     71806
     71807     71808     71807     71809     71808     71809     71810     71811
     71810     71812     71811     71812     71813     71814     71813     71815
     71814     71815     71816     71817     71816     71818     71817     71818
     71819     71820     71819     71821     71820     71821     71822     71823
     71822     71824     71823     71824     71825     71826     71825     71827
     71826     71827     71828     71829     71828     71830     71829     71830
     71831     71832     71831     71833     71832     71833     71834     71835
     71834     71836     71835     71836     71837     71838     71837     71839
     71838     71839     71840     71841     71840     71842     71841     71842
     71843     71844     71843     71845     71844     71845     71846     71847
     71846     71848     71847     71848     71849     71850     71849     71851
     71850     71851     71852     71853     71852     71854     71853     71854
     71855     71856     71855     71857     71856     71857     71858     71859
     71858     71860     71859     71860     71861     71862     71861     71863
     71862     71863     71864     71865     71864     71866     71865     71866
     71867     71868     71867     71869     71868     71869     71870     71871
     71870     71872     71871     71872     71873     71874     71873     71875
     71874     71875     71876     71877     71876     71878     71877     71878
     71879     71880     71879     71881     71880     71881     71882     71883
     71882     71884     71883     71884     71885     71886     71885     71887
     71886     71887     71888     71889     71888     71890     71889     71890
     71891     71892     71891     71893     71892     71893     71894     71895
     71894     71896     71895     71896     71897     71898     71897     71899
     71898     71899     71900     71901     71900     71902     71901     71902
     71903     71904     71903     71905     71904     71905     71906     71907
     71906     71908     71907     71908     71909     71910     71909     71911
     71910     71911     71912     71913     71912     71914     71913     71914
     71915     71916     71915     71917     71916     71917     71918     71919
     71918     71920     71919     71920     71921     71922     71921     71923
     71922     71923     71924     71925     71924     71926     71925     71926
     71927     71928     71927     71929     71928     71929     71930     71931
     71930     71932     71931     71932     71933     71934     71933     71935
     71934     71935     71936     71937     71936     71938     71937     71938
     71939     71940     71939     71941     71940     71941     71942     71943
     71942     71944     71943     71944     71945     71946     71945     71947
     71946     71947     71948     71949     71948     71950     71949     71950
     71951     71952     71951     71953     71952     71953     71954     71955
     71954     71956     71955     71956     71957     71958     71957     71959
     71958     71959     71960     71961     71960     71962     71961     71962
     71963     71964     71963     71965     71964     71965     71966     71967
     71966     71968     71967     71968     71969     71970     71969     71971
     71970     71971     71972     71973     71972     71974     71973     71974
     71975     71976     71975     71977     71976     71977     71978     71979
     71978     71980     71979     71980     71981     71982     71981     71983
     71982     71983     71984     71985     71984     71986     71985     71986
     71987     71988     71987     71989     71988     71989     71990     71991
     71990     71992     71991     71992     71993     71994     71993     71995
     71994     71995     71996     71997     71996     71998     71997     71998
     71999     72000     71999     72001     72000     72001     72002     72003
     72002     72004     72003     72004     72005     72006     72005     72007
     72006     72007     72008     72009     72008     72010     72009     72010
     72011     72012     72011     72013     72012     72013     72014     72015
     72014     72016     72015     72016     72017     72018     72017     72019
     72018     72019     72020     72021     72020     72022     72021     72022
     72023     72024     72023     72025     72024     72025     72026     72027
     72026     72028     72027     72028     72029     72030     72029     72031
     72030     72031     72032     72033     72032     72034     72033     72034
     72035     72036     72035     72037     72036     72037     72038     72039
     72038     72040     72039     72040     72041     72042     72041     72043
     72042     72043     72044     72045     72044     72046     72045     72046
     72047     72048     72047     72049     72048     72049     72050     72051
     72050     72052     72051     72052     72053     72054     72053     72055
     72054     72055     72056     72057     72056     72058     72057     72058
     72059     72060     72059     72061     72060     72061     72062     72063
     72062     72064     72063     72064     72065     72066     72065     72067
     72066     72067     72068     72069     72068     72070     72069     72070
     72071     72072     72071     72073     72072     72073     72074     72075
     72074     72076     72075     72076     72077     72078     72077     72079
     72078     72079     72080     72081     72080     72082     72081     72082
     72083     72084     72083     72085     72084     72085     72086     72087
     72086     72088     72087     72088     72089     72090     72089     72091
     72090     72091     72092     72093     72092     72094     72093     72094
     72095     72096     72095     72097     72096     72097     72098     72099
     72098     72100     72099     72100     72101     72102     72101     72103
     72102     72103     72104     72105     72104     72106     72105     72106
     72107     72108     72107     72109     72108     72109     72110     72111
     72110     72112     72111     72112     72113     72114     72113     72115
     72114     72115     72116     72117     72116     72118     72117     72118
     72119     72120     72119     72121     72120     72121     72122     72123
     72122     72124     72123     72124     72125     72126     72125     72127
     72126     72127     72128     72129     72128     72130     72129     72130
     72131     72132     72131     72133     72132     72133     72134     72135
     72134     72136     72135     72136     72137     72138     72137     72139
     72138     72139     72140     72141     72140     72142     72141     72142
     72143     72144     72143     72145     72144     72145     72146     72147
     72146     72148     72147     72148     72149     72150     72149     72151
     72150     72151     72152     72153     72152     72154     72153     72154
     72155     72156     72155     72157     72156     72157     72158     72159
     72158     72160     72159     72160     72161     72162     72161     72163
     72162     72163     72164     72165     72164     72166     72165     72166
     72167     72168     72167     72169     72168     72169     72170     72171
     72170     72172     72171     72172     72173     72174     72173     72175
     72174     72175     72176     72177     72176     72178     72177     72178
     72179     72180     72179     72181     72180     72181     72182     72183
     72182     72184     72183     72184     72185     72186     72185     72187
     72186     72187     72188     72189     72188     72190     72189     72190
     72191     72192     72191     72193     72192     72193     72194     72195
     72194     72196     72195     72196     72197     72198     72197     72199
     72198     72199     72200     72201     72200     72202     72201     72202
     72203     72204     72203     72205     72204     72205     72206     72207
     72206     72208     72207     72208     72209     72210     72209     72211
     72210     72211     72212     72213     72212     72214     72213     72214
     72215     72216     72215     72217     72216     72217     72218     72219
     72218     72220     72219     72220     72221     72222     72221     72223
     72222     72223     72224     72225     72224     72226     72225     72226
     72227     72228     72227     72229     72228     72229     72230     72231
     72230     72232     72231     72232     72233     72234     72233     72235
     72234     72235     72236     72237     72236     72238     72237     72238
     72239     72240     72239     72241     72240     72241     72242     72243
     72242     72244     72243     72244     72245     72246     72245     72247
     72246     72247     72248     72249     72248     72250     72249     72250
     72251     72252     72251     72253     72252     72253     72254     72255
     72254     72256     72255     72256     72257     72258     72257     72259
     72258     72259     72260     72261     72260     72262     72261     72262
     72263     72264     72263     72265     72264     72265     72266     72267
     72266     72268     72267     72268     72269     72270     72269     72271
     72270     72271     72272     72273     72272     72274     72273     72274
     72275     72276     72275     72277     72276     72277     72278     72279
     72278     72280     72279     72280     72281     72282     72281     72283
     72282     72283     72284     72285     72284     72286     72285     72286
     72287     72288     72287     72289     72288     72289     72290     72291
     72290     72292     72291     72292     72293     72294     72293     72295
     72294     72295     72296     72297     72296     72298     72297     72298
     72299     72300     72299     72301     72300     72301     72302     72303
     72302     72304     72303     72304     72305     72306     72305     72307
     72306     72307     72308     72309     72308     72310     72309     72310
     72311     72312     72311     72313     72312     72313     72314     72315
     72314     72316     72315     72316     72317     72318     72317     72319
     72318     72319     72320     72321     72320     72322     72321     72322
     72323     72324     72323     72325     72324     72325     72326     72327
     72326     72328     72327     72328     72329     72330     72329     72331
     72330     72331     72332     72333     72332     72334     72333     72334
     72335     72336     72335     72337     72336     72337     72338     72339
     72338     72340     72339     72340     72341     72342     72341     72343
     72342     72343     72344     72345     72344     72346     72345     72346
     72347     72348     72347     72349     72348     72349     72350     72351
     72350     72352     72351     72352     72353     72354     72353     72355
     72354     72355     72356     72357     72356     72358     72357     72358
     72359     72360     72359     72361     72360     72361     72362     72363
     72362     72364     72363     72364     72365     72366     72365     72367
     72366     72367     72368     72369     72368     72370     72369     72370
     72371     72372     72371     72373     72372     72373     72374     72375
     72374     72376     72375     72376     72377     72378     72377     72379
     72378     72379     72380     72381     72380     72382     72381     72382
     72383     72384     72383     72385     72384     72385     72386     72387
     72386     72388     72387     72388     72389     72390     72389     72391
     72390     72391     72392     72393     72392     72394     72393     72394
     72395     72396     72395     72397     72396     72397     72398     72399
     72398     72400     72399     72400     72401     72402     72401     72403
     72402     72403     72404     72405     72404     72406     72405     72406
     72407     72408     72407     72409     72408     72409     72410     72411
     72410     72412     72411     72412     72413     72414     72413     72415
     72414     72415     72416     72417     72416     72418     72417     72418
     72419     72420     72419     72421     72420     72421     72422     72423
     72422     72424     72423     72424     72425     72426     72425     72427
     72426     72427     72428     72429     72428     72430     72429     72430
     72431     72432     72431     72433     72432     72433     72434     72435
     72434     72436     72435     72436     72437     72438     72437     72439
     72438     72439     72440     72441     72440     72442     72441     72442
     72443     72444     72443     72445     72444     72445     72446     72447
     72446     72448     72447     72448     72449     72450     72449     72451
     72450     72451     72452     72453     72452     72454     72453     72454
     72455     72456     72455     72457     72456     72457     72458     72459
     72458     72460     72459     72460     72461     72462     72461     72463
     72462     72463     72464     72465     72464     72466     72465     72466
     72467     72468     72467     72469     72468     72469     72470     72471
     72470     72472     72471     72472     72473     72474     72473     72475
     72474     72475     72476     72477     72476     72478     72477     72478
     72479     72480     72479     72481     72480     72481     72482     72483
     72482     72484     72483     72484     72485     72486     72485     72487
     72486     72487     72488     72489     72488     72490     72489     72490
     72491     72492     72491     72493     72492     72493     72494     72495
     72494     72496     72495     72496     72497     72498     72497     72499
     72498     72499     72500     72501     72500     72502     72501     72502
     72503     72504     72503     72505     72504     72505     72506     72507
     72506     72508     72507     72508     72509     72510     72509     72511
     72510     72511     72512     72513     72512     72514     72513     72514
     72515     72516     72515     72517     72516     72517     72518     72519
     72518     72520     72519     72520     72521     72522     72521     72523
     72522     72523     72524     72525     72524     72526     72525     72526
     72527     72528     72527     72529     72528     72529     72530     72531
     72530     72532     72531     72532     72533     72534     72533     72535
     72534     72535     72536     72537     72536     72538     72537     72538
     72539     72540     72539     72541     72540     72541     72542     72543
     72542     72544     72543     72544     72545     72546     72545     72547
     72546     72547     72548     72549     72548     72550     72549     72550
     72551     72552     72551     72553     72552     72553     72554     72555
     72554     72556     72555     72556     72557     72558     72557     72559
     72558     72559     72560     72561     72560     72562     72561     72562
     72563     72564     72563     72565     72564     72565     72566     72567
     72566     72568     72567     72568     72569     72570     72569     72571
     72570     72571     72572     72573     72572     72574     72573     72574
     72575     72576     72575     72577     72576     72577     72578     72579
     72578     72580     72579     72580     72581     72582     72581     72583
     72582     72583     72584     72585     72584     72586     72585     72586
     72587     72588     72587     72589     72588     72589     72590     72591
     72590     72592     72591     72592     72593     72594     72593     72595
     72594     72595     72596     72597     72596     72598     72597     72598
     72599     72600     72599     72601     72600     72601     72602     72603
     72602     72604     72603     72604     72605     72606     72605     72607
     72606     72607     72608     72609     72608     72610     72609     72610
     72611     72612     72611     72613     72612     72613     72614     72615
     72614     72616     72615     72616     72617     72618     72617     72619
     72618     72619     72620     72621     72620     72622     72621     72622
     72623     72624     72623     72625     72624     72625     72626     72627
     72626     72628     72627     72628     72629     72630     72629     72631
     72630     72631     72632     72633     72632     72634     72633     72634
     72635     72636     72635     72637     72636     72637     72638     72639
     72638     72640     72639     72640     72641     72642     72641     72643
     72642     72643     72644     72645     72644     72646     72645     72646
     72647     72648     72647     72649     72648     72649     72650     72651
     72650     72652     72651     72652     72653     72654     72653     72655
     72654     72655     72656     72657     72656     72658     72657     72658
     72659     72660     72659     72661     72660     72661     72662     72663
     72662     72664     72663     72664     72665     72666     72665     72667
     72666     72667     72668     72669     72668     72670     72669     72670
     72671     72672     72671     72673     72672     72673     72674     72675
     72674     72676     72675     72676     72677     72678     72677     72679
     72678     72679     72680     72681     72680     72682     72681     72682
     72683     72684     72683     72685     72684     72685     72686     72687
     72686     72688     72687     72688     72689     72690     72689     72691
     72690     72691     72692     72693     72692     72694     72693     72694
     72695     72696     72695     72697     72696     72697     72698     72699
     72698     72700     72699     72700     72701     72702     72701     72703
     72702     72703     72704     72705     72704     72706     72705     72706
     72707     72708     72707     72709     72708     72709     72710     72711
     72710     72712     72711     72712     72713     72714     72713     72715
     72714     72715     72716     72717     72716     72718     72717     72718
     72719     72720     72719     72721     72720     72721     72722     72723
     72722     72724     72723     72724     72725     72726     72725     72727
     72726     72727     72728     72729     72728     72730     72729     72730
     72731     72732     72731     72733     72732     72733     72734     72735
     72734     72736     72735     72736     72737     72738     72737     72739
     72738     72739     72740     72741     72740     72742     72741     72742
     72743     72744     72743     72745     72744     72745     72746     72747
     72746     72748     72747     72748     72749     72750     72749     72751
     72750     72751     72752     72753     72752     72754     72753     72754
     72755     72756     72755     72757     72756     72757     72758     72759
     72758     72760     72759     72760     72761     72762     72761     72763
     72762     72763     72764     72765     72764     72766     72765     72766
     72767     72768     72767     72769     72768     72769     72770     72771
     72770     72772     72771     72772     72773     72774     72773     72775
     72774     72775     72776     72777     72776     72778     72777     72778
     72779     72780     72779     72781     72780     72781     72782     72783
     72782     72784     72783     72784     72785     72786     72785     72787
     72786     72787     72788     72789     72788     72790     72789     72790
     72791     72792     72791     72793     72792     72793     72794     72795
     72794     72796     72795     72796     72797     72798     72797     72799
     72798     72799     72800     72801     72800     72802     72801     72802
     72803     72804     72803     72805     72804     72805     72806     72807
     72806     72808     72807     72808     72809     72810     72809     72811
     72810     72811     72812     72813     72812     72814     72813     72814
     72815     72816     72815     72817     72816     72817     72818     72819
     72818     72820     72819     72820     72821     72822     72821     72823
     72822     72823     72824     72825     72824     72826     72825     72826
     72827     72828     72827     72829     72828     72829     72830     72831
     72830     72832     72831     72832     72833     72834     72833     72835
     72834     72835     72836     72837     72836     72838     72837     72838
     72839     72840     72839     72841     72840     72841     72842     72843
     72842     72844     72843     72844     72845     72846     72845     72847
     72846     72847     72848     72849     72848     72850     72849     72850
     72851     72852     72851     72853     72852     72853     72854     72855
     72854     72856     72855     72856     72857     72858     72857     72859
     72858     72859     72860     72861     72860     72862     72861     72862
     72863     72864     72863     72865     72864     72865     72866     72867
     72866     72868     72867     72868     72869     72870     72869     72871
     72870     72871     72872     72873     72872     72874     72873     72874
     72875     72876     72875     72877     72876     72877     72878     72879
     72878     72880     72879     72880     72881     72882     72881     72883
     72882     72883     72884     72885     72884     72886     72885     72886
     72887     72888     72887     72889     72888     72889     72890     72891
     72890     72892     72891     72892     72893     72894     72893     72895
     72894     72895     72896     72897     72896     72898     72897     72898
     72899     72900     72899     72901     72900     72901     72902     72903
     72902     72904     72903     72904     72905     72906     72905     72907
     72906     72907     72908     72909     72908     72910     72909     72910
     72911     72912     72911     72913     72912     72913     72914     72915
     72914     72916     72915     72916     72917     72918     72917     72919
     72918     72919     72920     72921     72920     72922     72921     72922
     72923     72924     72923     72925     72924     72925     72926     72927
     72926     72928     72927     72928     72929     72930     72929     72931
     72930     72931     72932     72933     72932     72934     72933     72934
     72935     72936     72935     72937     72936     72937     72938     72939
     72938     72940     72939     72940     72941     72942     72941     72943
     72942     72943     72944     72945     72944     72946     72945     72946
     72947     72948     72947     72949     72948     72949     72950     72951
     72950     72952     72951     72952     72953     72954     72953     72955
     72954     72955     72956     72957     72956     72958     72957     72958
     72959     72960     72959     72961     72960     72961     72962     72963
     72962     72964     72963     72964     72965     72966     72965     72967
     72966     72967     72968     72969     72968     72970     72969     72970
     72971     72972     72971     72973     72972     72973     72974     72975
     72974     72976     72975     72976     72977     72978     72977     72979
     72978     72979     72980     72981     72980     72982     72981     72982
     72983     72984     72983     72985     72984     72985     72986     72987
     72986     72988     72987     72988     72989     72990     72989     72991
     72990     72991     72992     72993     72992     72994     72993     72994
     72995     72996     72995     72997     72996     72997     72998     72999
     72998     73000     72999     73000     73001     73002     73001     73003
     73002     73003     73004     73005     73004     73006     73005     73006
     73007     73008     73007     73009     73008     73009     73010     73011
     73010     73012     73011     73012     73013     73014     73013     73015
     73014     73015     73016     73017     73016     73018     73017     73018
     73019     73020     73019     73021     73020     73021     73022     73023
     73022     73024     73023     73024     73025     73026     73025     73027
     73026     73027     73028     73029     73028     73030     73029     73030
     73031     73032     73031     73033     73032     73033     73034     73035
     73034     73036     73035     73036     73037     73038     73037     73039
     73038     73039     73040     73041     73040     73042     73041     73042
     73043     73044     73043     73045     73044     73045     73046     73047
     73046     73048     73047     73048     73049     73050     73049     73051
     73050     73051     73052     73053     73052     73054     73053     73054
     73055     73056     73055     73057     73056     73057     73058     73059
     73058     73060     73059     73060     73061     73062     73061     73063
     73062     73063     73064     73065     73064     73066     73065     73066
     73067     73068     73067     73069     73068     73069     73070     73071
     73070     73072     73071     73072     73073     73074     73073     73075
     73074     73075     73076     73077     73076     73078     73077     73078
     73079     73080     73079     73081     73080     73081     73082     73083
     73082     73084     73083     73084     73085     73086     73085     73087
     73086     73087     73088     73089     73088     73090     73089     73090
     73091     73092     73091     73093     73092     73093     73094     73095
     73094     73096     73095     73096     73097     73098     73097     73099
     73098     73099     73100     73101     73100     73102     73101     73102
     73103     73104     73103     73105     73104     73105     73106     73107
     73106     73108     73107     73108     73109     73110     73109     73111
     73110     73111     73112     73113     73112     73114     73113     73114
     73115     73116     73115     73117     73116     73117     73118     73119
     73118     73120     73119     73120     73121     73122     73121     73123
     73122     73123     73124     73125     73124     73126     73125     73126
     73127     73128     73127     73129     73128     73129     73130     73131
     73130     73132     73131     73132     73133     73134     73133     73135
     73134     73135     73136     73137     73136     73138     73137     73138
     73139     73140     73139     73141     73140     73141     73142     73143
     73142     73144     73143     73144     73145     73146     73145     73147
     73146     73147     73148     73149     73148     73150     73149     73150
     73151     73152     73151     73153     73152     73153     73154     73155
     73154     73156     73155     73156     73157     73158     73157     73159
     73158     73159     73160     73161     73160     73162     73161     73162
     73163     73164     73163     73165     73164     73165     73166     73167
     73166     73168     73167     73168     73169     73170     73169     73171
     73170     73171     73172     73173     73172     73174     73173     73174
     73175     73176     73175     73177     73176     73177     73178     73179
     73178     73180     73179     73180     73181     73182     73181     73183
     73182     73183     73184     73185     73184     73186     73185     73186
     73187     73188     73187     73189     73188     73189     73190     73191
     73190     73192     73191     73192     73193     73194     73193     73195
     73194     73195     73196     73197     73196     73198     73197     73198
     73199     73200     73199     73201     73200     73201     73202     73203
     73202     73204     73203     73204     73205     73206     73205     73207
     73206     73207     73208     73209     73208     73210     73209     73210
     73211     73212     73211     73213     73212     73213     73214     73215
     73214     73216     73215     73216     73217     73218     73217     73219
     73218     73219     73220     73221     73220     73222     73221     73222
     73223     73224     73223     73225     73224     73225     73226     73227
     73226     73228     73227     73228     73229     73230     73229     73231
     73230     73231     73232     73233     73232     73234     73233     73234
     73235     73236     73235     73237     73236     73237     73238     73239
     73238     73240     73239     73240     73241     73242     73241     73243
     73242     73243     73244     73245     73244     73246     73245     73246
     73247     73248     73247     73249     73248     73249     73250     73251
     73250     73252     73251     73252     73253     73254     73253     73255
     73254     73255     73256     73257     73256     73258     73257     73258
     73259     73260     73259     73261     73260     73261     73262     73263
     73262     73264     73263     73264     73265     73266     73265     73267
     73266     73267     73268     73269     73268     73270     73269     73270
     73271     73272     73271     73273     73272     73273     73274     73275
     73274     73276     73275     73276     73277     73278     73277     73279
     73278     73279     73280     73281     73280     73282     73281     73282
     73283     73284     73283     73285     73284     73285     73286     73287
     73286     73288     73287     73288     73289     73290     73289     73291
     73290     73291     73292     73293     73292     73294     73293     73294
     73295     73296     73295     73297     73296     73297     73298     73299
     73298     73300     73299     73300     73301     73302     73301     73303
     73302     73303     73304     73305     73304     73306     73305     73306
     73307     73308     73307     73309     73308     73309     73310     73311
     73310     73312     73311     73312     73313     73314     73313     73315
     73314     73315     73316     73317     73316     73318     73317     73318
     73319     73320     73319     73321     73320     73321     73322     73323
     73322     73324     73323     73324     73325     73326     73325     73327
     73326     73327     73328     73329     73328     73330     73329     73330
     73331     73332     73331     73333     73332     73333     73334     73335
     73334     73336     73335     73336     73337     73338     73337     73339
     73338     73339     73340     73341     73340     73342     73341     73342
     73343     73344     73343     73345     73344     73345     73346     73347
     73346     73348     73347     73348     73349     73350     73349     73351
     73350     73351     73352     73353     73352     73354     73353     73354
     73355     73356     73355     73357     73356     73357     73358     73359
     73358     73360     73359     73360     73361     73362     73361     73363
     73362     73363     73364     73365     73364     73366     73365     73366
     73367     73368     73367     73369     73368     73369     73370     73371
     73370     73372     73371     73372     73373     73374     73373     73375
     73374     73375     73376     73377     73376     73378     73377     73378
     73379     73380     73379     73381     73380     73381     73382     73383
     73382     73384     73383     73384     73385     73386     73385     73387
     73386     73387     73388     73389     73388     73390     73389     73390
     73391     73392     73391     73393     73392     73393     73394     73395
     73394     73396     73395     73396     73397     73398     73397     73399
     73398     73399     73400     73401     73400     73402     73401     73402
     73403     73404     73403     73405     73404     73405     73406     73407
     73406     73408     73407     73408     73409     73410     73409     73411
     73410     73411     73412     73413     73412     73414     73413     73414
     73415     73416     73415     73417     73416     73417     73418     73419
     73418     73420     73419     73420     73421     73422     73421     73423
     73422     73423     73424     73425     73424     73426     73425     73426
     73427     73428     73427     73429     73428     73429     73430     73431
     73430     73432     73431     73432     73433     73434     73433     73435
     73434     73435     73436     73437     73436     73438     73437     73438
     73439     73440     73439     73441     73440     73441     73442     73443
     73442     73444     73443     73444     73445     73446     73445     73447
     73446     73447     73448     73449     73448     73450     73449     73450
     73451     73452     73451     73453     73452     73453     73454     73455
     73454     73456     73455     73456     73457     73458     73457     73459
     73458     73459     73460     73461     73460     73462     73461     73462
     73463     73464     73463     73465     73464     73465     73466     73467
     73466     73468     73467     73468     73469     73470     73469     73471
     73470     73471     73472     73473     73472     73474     73473     73474
     73475     73476     73475     73477     73476     73477     73478     73479
     73478     73480     73479     73480     73481     73482     73481     73483
     73482     73483     73484     73485     73484     73486     73485     73486
     73487     73488     73487     73489     73488     73489     73490     73491
     73490     73492     73491     73492     73493     73494     73493     73495
     73494     73495     73496     73497     73496     73498     73497     73498
     73499     73500     73499     73501     73500     73501     73502     73503
     73502     73504     73503     73504     73505     73506     73505     73507
     73506     73507     73508     73509     73508     73510     73509     73510
     73511     73512     73511     73513     73512     73513     73514     73515
     73514     73516     73515     73516     73517     73518     73517     73519
     73518     73519     73520     73521     73520     73522     73521     73522
     73523     73524     73523     73525     73524     73525     73526     73527
     73526     73528     73527     73528     73529     73530     73529     73531
     73530     73531     73532     73533     73532     73534     73533     73534
     73535     73536     73535     73537     73536     73537     73538     73539
     73538     73540     73539     73540     73541     73542     73541     73543
     73542     73543     73544     73545     73544     73546     73545     73546
     73547     73548     73547     73549     73548     73549     73550     73551
     73550     73552     73551     73552     73553     73554     73553     73555
     73554     73555     73556     73557     73556     73558     73557     73558
     73559     73560     73559     73561     73560     73561     73562     73563
     73562     73564     73563     73564     73565     73566     73565     73567
     73566     73567     73568     73569     73568     73570     73569     73570
     73571     73572     73571     73573     73572     73573     73574     73575
     73574     73576     73575     73576     73577     73578     73577     73579
     73578     73579     73580     73581     73580     73582     73581     73582
     73583     73584     73583     73585     73584     73585     73586     73587
     73586     73588     73587     73588     73589     73590     73589     73591
     73590     73591     73592     73593     73592     73594     73593     73594
     73595     73596     73595     73597     73596     73597     73598     73599
     73598     73600     73599     73600     73601     73602     73601     73603
     73602     73603     73604     73605     73604     73606     73605     73606
     73607     73608     73607     73609     73608     73609     73610     73611
     73610     73612     73611     73612     73613     73614     73613     73615
     73614     73615     73616     73617     73616     73618     73617     73618
     73619     73620     73619     73621     73620     73621     73622     73623
     73622     73624     73623     73624     73625     73626     73625     73627
     73626     73627     73628     73629     73628     73630     73629     73630
     73631     73632     73631     73633     73632     73633     73634     73635
     73634     73636     73635     73636     73637     73638     73637     73639
     73638     73639     73640     73641     73640     73642     73641     73642
     73643     73644     73643     73645     73644     73645     73646     73647
     73646     73648     73647     73648     73649     73650     73649     73651
     73650     73651     73652     73653     73652     73654     73653     73654
     73655     73656     73655     73657     73656     73657     73658     73659
     73658     73660     73659     73660     73661     73662     73661     73663
     73662     73663     73664     73665     73664     73666     73665     73666
     73667     73668     73667     73669     73668     73669     73670     73671
     73670     73672     73671     73672     73673     73674     73673     73675
     73674     73675     73676     73677     73676     73678     73677     73678
     73679     73680     73679     73681     73680     73681     73682     73683
     73682     73684     73683     73684     73685     73686     73685     73687
     73686     73687     73688     73689     73688     73690     73689     73690
     73691     73692     73691     73693     73692     73693     73694     73695
     73694     73696     73695     73696     73697     73698     73697     73699
     73698     73699     73700     73701     73700     73702     73701     73702
     73703     73704     73703     73705     73704     73705     73706     73707
     73706     73708     73707     73708     73709     73710     73709     73711
     73710     73711     73712     73713     73712     73714     73713     73714
     73715     73716     73715     73717     73716     73717     73718     73719
     73718     73720     73719     73720     73721     73722     73721     73723
     73722     73723     73724     73725     73724     73726     73725     73726
     73727     73728     73727     73729     73728     73729     73730     73731
     73730     73732     73731     73732     73733     73734     73733     73735
     73734     73735     73736     73737     73736     73738     73737     73738
     73739     73740     73739     73741     73740     73741     73742     73743
     73742     73744     73743     73744     73745     73746     73745     73747
     73746     73747     73748     73749     73748     73750     73749     73750
     73751     73752     73751     73753     73752     73753     73754     73755
     73754     73756     73755     73756     73757     73758     73757     73759
     73758     73759     73760     73761     73760     73762     73761     73762
     73763     73764     73763     73765     73764     73765     73766     73767
     73766     73768     73767     73768     73769     73770     73769     73771
     73770     73771     73772     73773     73772     73774     73773     73774
     73775     73776     73775     73777     73776     73777     73778     73779
     73778     73780     73779     73780     73781     73782     73781     73783
     73782     73783     73784     73785     73784     73786     73785     73786
     73787     73788     73787     73789     73788     73789     73790     73791
     73790     73792     73791     73792     73793     73794     73793     73795
     73794     73795     73796     73797     73796     73798     73797     73798
     73799     73800     73799     73801     73800     73801     73802     73803
     73802     73804     73803     73804     73805     73806     73805     73807
     73806     73807     73808     73809     73808     73810     73809     73810
     73811     73812     73811     73813     73812     73813     73814     73815
     73814     73816     73815     73816     73817     73818     73817     73819
     73818     73819     73820     73821     73820     73822     73821     73822
     73823     73824     73823     73825     73824     73825     73826     73827
     73826     73828     73827     73828     73829     73830     73829     73831
     73830     73831     73832     73833     73832     73834     73833     73834
     73835     73836     73835     73837     73836     73837     73838     73839
     73838     73840     73839     73840     73841     73842     73841     73843
     73842     73843     73844     73845     73844     73846     73845     73846
     73847     73848     73847     73849     73848     73849     73850     73851
     73850     73852     73851     73852     73853     73854     73853     73855
     73854     73855     73856     73857     73856     73858     73857     73858
     73859     73860     73859     73861     73860     73861     73862     73863
     73862     73864     73863     73864     73865     73866     73865     73867
     73866     73867     73868     73869     73868     73870     73869     73870
     73871     73872     73871     73873     73872     73873     73874     73875
     73874     73876     73875     73876     73877     73878     73877     73879
     73878     73879     73880     73881     73880     73882     73881     73882
     73883     73884     73883     73885     73884     73885     73886     73887
     73886     73888     73887     73888     73889     73890     73889     73891
     73890     73891     73892     73893     73892     73894     73893     73894
     73895     73896     73895     73897     73896     73897     73898     73899
     73898     73900     73899     73900     73901     73902     73901     73903
     73902     73903     73904     73905     73904     73906     73905     73906
     73907     73908     73907     73909     73908     73909     73910     73911
     73910     73912     73911     73912     73913     73914     73913     73915
     73914     73915     73916     73917     73916     73918     73917     73918
     73919     73920     73919     73921     73920     73921     73922     73923
     73922     73924     73923     73924     73925     73926     73925     73927
     73926     73927     73928     73929     73928     73930     73929     73930
     73931     73932     73931     73933     73932     73933     73934     73935
     73934     73936     73935     73936     73937     73938     73937     73939
     73938     73939     73940     73941     73940     73942     73941     73942
     73943     73944     73943     73945     73944     73945     73946     73947
     73946     73948     73947     73948     73949     73950     73949     73951
     73950     73951     73952     73953     73952     73954     73953     73954
     73955     73956     73955     73957     73956     73957     73958     73959
     73958     73960     73959     73960     73961     73962     73961     73963
     73962     73963     73964     73965     73964     73966     73965     73966
     73967     73968     73967     73969     73968     73969     73970     73971
     73970     73972     73971     73972     73973     73974     73973     73975
     73974     73975     73976     73977     73976     73978     73977     73978
     73979     73980     73979     73981     73980     73981     73982     73983
     73982     73984     73983     73984     73985     73986     73985     73987
     73986     73987     73988     73989     73988     73990     73989     73990
     73991     73992     73991     73993     73992     73993     73994     73995
     73994     73996     73995     73996     73997     73998     73997     73999
     73998     73999     74000     74001     74000     74002     74001     74002
     74003     74004     74003     74005     74004     74005     74006     74007
     74006     74008     74007     74008     74009     74010     74009     74011
     74010     74011     74012     74013     74012     74014     74013     74014
     74015     74016     74015     74017     74016     74017     74018     74019
     74018     74020     74019     74020     74021     74022     74021     74023
     74022     74023     74024     74025     74024     74026     74025     74026
     74027     74028     74027     74029     74028     74029     74030     74031
     74030     74032     74031     74032     74033     74034     74033     74035
     74034     74035     74036     74037     74036     74038     74037     74038
     74039     74040     74039     74041     74040     74041     74042     74043
     74042     74044     74043     74044     74045     74046     74045     74047
     74046     74047     74048     74049     74048     74050     74049     74050
     74051     74052     74051     74053     74052     74053     74054     74055
     74054     74056     74055     74056     74057     74058     74057     74059
     74058     74059     74060     74061     74060     74062     74061     74062
     74063     74064     74063     74065     74064     74065     74066     74067
     74066     74068     74067     74068     74069     74070     74069     74071
     74070     74071     74072     74073     74072     74074     74073     74074
     74075     74076     74075     74077     74076     74077     74078     74079
     74078     74080     74079     74080     74081     74082     74081     74083
     74082     74083     74084     74085     74084     74086     74085     74086
     74087     74088     74087     74089     74088     74089     74090     74091
     74090     74092     74091     74092     74093     74094     74093     74095
     74094     74095     74096     74097     74096     74098     74097     74098
     74099     74100     74099     74101     74100     74101     74102     74103
     74102     74104     74103     74104     74105     74106     74105     74107
     74106     74107     74108     74109     74108     74110     74109     74110
     74111     74112     74111     74113     74112     74113     74114     74115
     74114     74116     74115     74116     74117     74118     74117     74119
     74118     74119     74120     74121     74120     74122     74121     74122
     74123     74124     74123     74125     74124     74125     74126     74127
     74126     74128     74127     74128     74129     74130     74129     74131
     74130     74131     74132     74133     74132     74134     74133     74134
     74135     74136     74135     74137     74136     74137     74138     74139
     74138     74140     74139     74140     74141     74142     74141     74143
     74142     74143     74144     74145     74144     74146     74145     74146
     74147     74148     74147     74149     74148     74149     74150     74151
     74150     74152     74151     74152     74153     74154     74153     74155
     74154     74155     74156     74157     74156     74158     74157     74158
     74159     74160     74159     74161     74160     74161     74162     74163
     74162     74164     74163     74164     74165     74166     74165     74167
     74166     74167     74168     74169     74168     74170     74169     74170
     74171     74172     74171     74173     74172     74173     74174     74175
     74174     74176     74175     74176     74177     74178     74177     74179
     74178     74179     74180     74181     74180     74182     74181     74182
     74183     74184     74183     74185     74184     74185     74186     74187
     74186     74188     74187     74188     74189     74190     74189     74191
     74190     74191     74192     74193     74192     74194     74193     74194
     74195     74196     74195     74197     74196     74197     74198     74199
     74198     74200     74199     74200     74201     74202     74201     74203
     74202     74203     74204     74205     74204     74206     74205     74206
     74207     74208     74207     74209     74208     74209     74210     74211
     74210     74212     74211     74212     74213     74214     74213     74215
     74214     74215     74216     74217     74216     74218     74217     74218
     74219     74220     74219     74221     74220     74221     74222     74223
     74222     74224     74223     74224     74225     74226     74225     74227
     74226     74227     74228     74229     74228     74230     74229     74230
     74231     74232     74231     74233     74232     74233     74234     74235
     74234     74236     74235     74236     74237     74238     74237     74239
     74238     74239     74240     74241     74240     74242     74241     74242
     74243     74244     74243     74245     74244     74245     74246     74247
     74246     74248     74247     74248     74249     74250     74249     74251
     74250     74251     74252     74253     74252     74254     74253     74254
     74255     74256     74255     74257     74256     74257     74258     74259
     74258     74260     74259     74260     74261     74262     74261     74263
     74262     74263     74264     74265     74264     74266     74265     74266
     74267     74268     74267     74269     74268     74269     74270     74271
     74270     74272     74271     74272     74273     74274     74273     74275
     74274     74275     74276     74277     74276     74278     74277     74278
     74279     74280     74279     74281     74280     74281     74282     74283
     74282     74284     74283     74284     74285     74286     74285     74287
     74286     74287     74288     74289     74288     74290     74289     74290
     74291     74292     74291     74293     74292     74293     74294     74295
     74294     74296     74295     74296     74297     74298     74297     74299
     74298     74299     74300     74301     74300     74302     74301     74302
     74303     74304     74303     74305     74304     74305     74306     74307
     74306     74308     74307     74308     74309     74310     74309     74311
     74310     74311     74312     74313     74312     74314     74313     74314
     74315     74316     74315     74317     74316     74317     74318     74319
     74318     74320     74319     74320     74321     74322     74321     74323
     74322     74323     74324     74325     74324     74326     74325     74326
     74327     74328     74327     74329     74328     74329     74330     74331
     74330     74332     74331     74332     74333     74334     74333     74335
     74334     74335     74336     74337     74336     74338     74337     74338
     74339     74340     74339     74341     74340     74341     74342     74343
     74342     74344     74343     74344     74345     74346     74345     74347
     74346     74347     74348     74349     74348     74350     74349     74350
     74351     74352     74351     74353     74352     74353     74354     74355
     74354     74356     74355     74356     74357     74358     74357     74359
     74358     74359     74360     74361     74360     74362     74361     74362
     74363     74364     74363     74365     74364     74365     74366     74367
     74366     74368     74367     74368     74369     74370     74369     74371
     74370     74371     74372     74373     74372     74374     74373     74374
     74375     74376     74375     74377     74376     74377     74378     74379
     74378     74380     74379     74380     74381     74382     74381     74383
     74382     74383     74384     74385     74384     74386     74385     74386
     74387     74388     74387     74389     74388     74389     74390     74391
     74390     74392     74391     74392     74393     74394     74393     74395
     74394     74395     74396     74397     74396     74398     74397     74398
     74399     74400     74399     74401     74400     74401     74402     74403
     74402     74404     74403     74404     74405     74406     74405     74407
     74406     74407     74408     74409     74408     74410     74409     74410
     74411     74412     74411     74413     74412     74413     74414     74415
     74414     74416     74415     74416     74417     74418     74417     74419
     74418     74419     74420     74421     74420     74422     74421     74422
     74423     74424     74423     74425     74424     74425     74426     74427
     74426     74428     74427     74428     74429     74430     74429     74431
     74430     74431     74432     74433     74432     74434     74433     74434
     74435     74436     74435     74437     74436     74437     74438     74439
     74438     74440     74439     74440     74441     74442     74441     74443
     74442     74443     74444     74445     74444     74446     74445     74446
     74447     74448     74447     74449     74448     74449     74450     74451
     74450     74452     74451     74452     74453     74454     74453     74455
     74454     74455     74456     74457     74456     74458     74457     74458
     74459     74460     74459     74461     74460     74461     74462     74463
     74462     74464     74463     74464     74465     74466     74465     74467
     74466     74467     74468     74469     74468     74470     74469     74470
     74471     74472     74471     74473     74472     74473     74474     74475
     74474     74476     74475     74476     74477     74478     74477     74479
     74478     74479     74480     74481     74480     74482     74481     74482
     74483     74484     74483     74485     74484     74485     74486     74487
     74486     74488     74487     74488     74489     74490     74489     74491
     74490     74491     74492     74493     74492     74494     74493     74494
     74495     74496     74495     74497     74496     74497     74498     74499
     74498     74500     74499     74500     74501     74502     74501     74503
     74502     74503     74504     74505     74504     74506     74505     74506
     74507     74508     74507     74509     74508     74509     74510     74511
     74510     74512     74511     74512     74513     74514     74513     74515
     74514     74515     74516     74517     74516     74518     74517     74518
     74519     74520     74519     74521     74520     74521     74522     74523
     74522     74524     74523     74524     74525     74526     74525     74527
     74526     74527     74528     74529     74528     74530     74529     74530
     74531     74532     74531     74533     74532     74533     74534     74535
     74534     74536     74535     74536     74537     74538     74537     74539
     74538     74539     74540     74541     74540     74542     74541     74542
     74543     74544     74543     74545     74544     74545     74546     74547
     74546     74548     74547     74548     74549     74550     74549     74551
     74550     74551     74552     74553     74552     74554     74553     74554
     74555     74556     74555     74557     74556     74557     74558     74559
     74558     74560     74559     74560     74561     74562     74561     74563
     74562     74563     74564     74565     74564     74566     74565     74566
     74567     74568     74567     74569     74568     74569     74570     74571
     74570     74572     74571     74572     74573     74574     74573     74575
     74574     74575     74576     74577     74576     74578     74577     74578
     74579     74580     74579     74581     74580     74581     74582     74583
     74582     74584     74583     74584     74585     74586     74585     74587
     74586     74587     74588     74589     74588     74590     74589     74590
     74591     74592     74591     74593     74592     74593     74594     74595
     74594     74596     74595     74596     74597     74598     74597     74599
     74598     74599     74600     74601     74600     74602     74601     74602
     74603     74604     74603     74605     74604     74605     74606     74607
     74606     74608     74607     74608     74609     74610     74609     74611
     74610     74611     74612     74613     74612     74614     74613     74614
     74615     74616     74615     74617     74616     74617     74618     74619
     74618     74620     74619     74620     74621     74622     74621     74623
     74622     74623     74624     74625     74624     74626     74625     74626
     74627     74628     74627     74629     74628     74629     74630     74631
     74630     74632     74631     74632     74633     74634     74633     74635
     74634     74635     74636     74637     74636     74638     74637     74638
     74639     74640     74639     74641     74640     74641     74642     74643
     74642     74644     74643     74644     74645     74646     74645     74647
     74646     74647     74648     74649     74648     74650     74649     74650
     74651     74652     74651     74653     74652     74653     74654     74655
     74654     74656     74655     74656     74657     74658     74657     74659
     74658     74659     74660     74661     74660     74662     74661     74662
     74663     74664     74663     74665     74664     74665     74666     74667
     74666     74668     74667     74668     74669     74670     74669     74671
     74670     74671     74672     74673     74672     74674     74673     74674
     74675     74676     74675     74677     74676     74677     74678     74679
     74678     74680     74679     74680     74681     74682     74681     74683
     74682     74683     74684     74685     74684     74686     74685     74686
     74687     74688     74687     74689     74688     74689     74690     74691
     74690     74692     74691     74692     74693     74694     74693     74695
     74694     74695     74696     74697     74696     74698     74697     74698
     74699     74700     74699     74701     74700     74701     74702     74703
     74702     74704     74703     74704     74705     74706     74705     74707
     74706     74707     74708     74709     74708     74710     74709     74710
     74711     74712     74711     74713     74712     74713     74714     74715
     74714     74716     74715     74716     74717     74718     74717     74719
     74718     74719     74720     74721     74720     74722     74721     74722
     74723     74724     74723     74725     74724     74725     74726     74727
     74726     74728     74727     74728     74729     74730     74729     74731
     74730     74731     74732     74733     74732     74734     74733     74734
     74735     74736     74735     74737     74736     74737     74738     74739
     74738     74740     74739     74740     74741     74742     74741     74743
     74742     74743     74744     74745     74744     74746     74745     74746
     74747     74748     74747     74749     74748     74749     74750     74751
     74750     74752     74751     74752     74753     74754     74753     74755
     74754     74755     74756     74757     74756     74758     74757     74758
     74759     74760     74759     74761     74760     74761     74762     74763
     74762     74764     74763     74764     74765     74766     74765     74767
     74766     74767     74768     74769     74768     74770     74769     74770
     74771     74772     74771     74773     74772     74773     74774     74775
     74774     74776     74775     74776     74777     74778     74777     74779
     74778     74779     74780     74781     74780     74782     74781     74782
     74783     74784     74783     74785     74784     74785     74786     74787
     74786     74788     74787     74788     74789     74790     74789     74791
     74790     74791     74792     74793     74792     74794     74793     74794
     74795     74796     74795     74797     74796     74797     74798     74799
     74798     74800     74799     74800     74801     74802     74801     74803
     74802     74803     74804     74805     74804     74806     74805     74806
     74807     74808     74807     74809     74808     74809     74810     74811
     74810     74812     74811     74812     74813     74814     74813     74815
     74814     74815     74816     74817     74816     74818     74817     74818
     74819     74820     74819     74821     74820     74821     74822     74823
     74822     74824     74823     74824     74825     74826     74825     74827
     74826     74827     74828     74829     74828     74830     74829     74830
     74831     74832     74831     74833     74832     74833     74834     74835
     74834     74836     74835     74836     74837     74838     74837     74839
     74838     74839     74840     74841     74840     74842     74841     74842
     74843     74844     74843     74845     74844     74845     74846     74847
     74846     74848     74847     74848     74849     74850     74849     74851
     74850     74851     74852     74853     74852     74854     74853     74854
     74855     74856     74855     74857     74856     74857     74858     74859
     74858     74860     74859     74860     74861     74862     74861     74863
     74862     74863     74864     74865     74864     74866     74865     74866
     74867     74868     74867     74869     74868     74869     74870     74871
     74870     74872     74871     74872     74873     74874     74873     74875
     74874     74875     74876     74877     74876     74878     74877     74878
     74879     74880     74879     74881     74880     74881     74882     74883
     74882     74884     74883     74884     74885     74886     74885     74887
     74886     74887     74888     74889     74888     74890     74889     74890
     74891     74892     74891     74893     74892     74893     74894     74895
     74894     74896     74895     74896     74897     74898     74897     74899
     74898     74899     74900     74901     74900     74902     74901     74902
     74903     74904     74903     74905     74904     74905     74906     74907
     74906     74908     74907     74908     74909     74910     74909     74911
     74910     74911     74912     74913     74912     74914     74913     74914
     74915     74916     74915     74917     74916     74917     74918     74919
     74918     74920     74919     74920     74921     74922     74921     74923
     74922     74923     74924     74925     74924     74926     74925     74926
     74927     74928     74927     74929     74928     74929     74930     74931
     74930     74932     74931     74932     74933     74934     74933     74935
     74934     74935     74936     74937     74936     74938     74937     74938
     74939     74940     74939     74941     74940     74941     74942     74943
     74942     74944     74943     74944     74945     74946     74945     74947
     74946     74947     74948     74949     74948     74950     74949     74950
     74951     74952     74951     74953     74952     74953     74954     74955
     74954     74956     74955     74956     74957     74958     74957     74959
     74958     74959     74960     74961     74960     74962     74961     74962
     74963     74964     74963     74965     74964     74965     74966     74967
     74966     74968     74967     74968     74969     74970     74969     74971
     74970     74971     74972     74973     74972     74974     74973     74974
     74975     74976     74975     74977     74976     74977     74978     74979
     74978     74980     74979     74980     74981     74982     74981     74983
     74982     74983     74984     74985     74984     74986     74985     74986
     74987     74988     74987     74989     74988     74989     74990     74991
     74990     74992     74991     74992     74993     74994     74993     74995
     74994     74995     74996     74997     74996     74998     74997     74998
     74999     75000     74999     75001     75000     75001     75002     75003
     75002     75004     75003     75004     75005     75006     75005     75007
     75006     75007     75008     75009     75008     75010     75009     75010
     75011     75012     75011     75013     75012     75013     75014     75015
     75014     75016     75015     75016     75017     75018     75017     75019
     75018     75019     75020     75021     75020     75022     75021     75022
     75023     75024     75023     75025     75024     75025     75026     75027
     75026     75028     75027     75028     75029     75030     75029     75031
     75030     75031     75032     75033     75032     75034     75033     75034
     75035     75036     75035     75037     75036     75037     75038     75039
     75038     75040     75039     75040     75041     75042     75041     75043
     75042     75043     75044     75045     75044     75046     75045     75046
     75047     75048     75047     75049     75048     75049     75050     75051
     75050     75052     75051     75052     75053     75054     75053     75055
     75054     75055     75056     75057     75056     75058     75057     75058
     75059     75060     75059     75061     75060     75061     75062     75063
     75062     75064     75063     75064     75065     75066     75065     75067
     75066     75067     75068     75069     75068     75070     75069     75070
     75071     75072     75071     75073     75072     75073     75074     75075
     75074     75076     75075     75076     75077     75078     75077     75079
     75078     75079     75080     75081     75080     75082     75081     75082
     75083     75084     75083     75085     75084     75085     75086     75087
     75086     75088     75087     75088     75089     75090     75089     75091
     75090     75091     75092     75093     75092     75094     75093     75094
     75095     75096     75095     75097     75096     75097     75098     75099
     75098     75100     75099     75100     75101     75102     75101     75103
     75102     75103     75104     75105     75104     75106     75105     75106
     75107     75108     75107     75109     75108     75109     75110     75111
     75110     75112     75111     75112     75113     75114     75113     75115
     75114     75115     75116     75117     75116     75118     75117     75118
     75119     75120     75119     75121     75120     75121     75122     75123
     75122     75124     75123     75124     75125     75126     75125     75127
     75126     75127     75128     75129     75128     75130     75129     75130
     75131     75132     75131     75133     75132     75133     75134     75135
     75134     75136     75135     75136     75137     75138     75137     75139
     75138     75139     75140     75141     75140     75142     75141     75142
     75143     75144     75143     75145     75144     75145     75146     75147
     75146     75148     75147     75148     75149     75150     75149     75151
     75150     75151     75152     75153     75152     75154     75153     75154
     75155     75156     75155     75157     75156     75157     75158     75159
     75158     75160     75159     75160     75161     75162     75161     75163
     75162     75163     75164     75165     75164     75166     75165     75166
     75167     75168     75167     75169     75168     75169     75170     75171
     75170     75172     75171     75172     75173     75174     75173     75175
     75174     75175     75176     75177     75176     75178     75177     75178
     75179     75180     75179     75181     75180     75181     75182     75183
     75182     75184     75183     75184     75185     75186     75185     75187
     75186     75187     75188     75189     75188     75190     75189     75190
     75191     75192     75191     75193     75192     75193     75194     75195
     75194     75196     75195     75196     75197     75198     75197     75199
     75198     75199     75200     75201     75200     75202     75201     75202
     75203     75204     75203     75205     75204     75205     75206     75207
     75206     75208     75207     75208     75209     75210     75209     75211
     75210     75211     75212     75213     75212     75214     75213     75214
     75215     75216     75215     75217     75216     75217     75218     75219
     75218     75220     75219     75220     75221     75222     75221     75223
     75222     75223     75224     75225     75224     75226     75225     75226
     75227     75228     75227     75229     75228     75229     75230     75231
     75230     75232     75231     75232     75233     75234     75233     75235
     75234     75235     75236     75237     75236     75238     75237     75238
     75239     75240     75239     75241     75240     75241     75242     75243
     75242     75244     75243     75244     75245     75246     75245     75247
     75246     75247     75248     75249     75248     75250     75249     75250
     75251     75252     75251     75253     75252     75253     75254     75255
     75254     75256     75255     75256     75257     75258     75257     75259
     75258     75259     75260     75261     75260     75262     75261     75262
     75263     75264     75263     75265     75264     75265     75266     75267
     75266     75268     75267     75268     75269     75270     75269     75271
     75270     75271     75272     75273     75272     75274     75273     75274
     75275     75276     75275     75277     75276     75277     75278     75279
     75278     75280     75279     75280     75281     75282     75281     75283
     75282     75283     75284     75285     75284     75286     75285     75286
     75287     75288     75287     75289     75288     75289     75290     75291
     75290     75292     75291     75292     75293     75294     75293     75295
     75294     75295     75296     75297     75296     75298     75297     75298
     75299     75300     75299     75301     75300     75301     75302     75303
     75302     75304     75303     75304     75305     75306     75305     75307
     75306     75307     75308     75309     75308     75310     75309     75310
     75311     75312     75311     75313     75312     75313     75314     75315
     75314     75316     75315     75316     75317     75318     75317     75319
     75318     75319     75320     75321     75320     75322     75321     75322
     75323     75324     75323     75325     75324     75325     75326     75327
     75326     75328     75327     75328     75329     75330     75329     75331
     75330     75331     75332     75333     75332     75334     75333     75334
     75335     75336     75335     75337     75336     75337     75338     75339
     75338     75340     75339     75340     75341     75342     75341     75343
     75342     75343     75344     75345     75344     75346     75345     75346
     75347     75348     75347     75349     75348     75349     75350     75351
     75350     75352     75351     75352     75353     75354     75353     75355
     75354     75355     75356     75357     75356     75358     75357     75358
     75359     75360     75359     75361     75360     75361     75362     75363
     75362     75364     75363     75364     75365     75366     75365     75367
     75366     75367     75368     75369     75368     75370     75369     75370
     75371     75372     75371     75373     75372     75373     75374     75375
     75374     75376     75375     75376     75377     75378     75377     75379
     75378     75379     75380     75381     75380     75382     75381     75382
     75383     75384     75383     75385     75384     75385     75386     75387
     75386     75388     75387     75388     75389     75390     75389     75391
     75390     75391     75392     75393     75392     75394     75393     75394
     75395     75396     75395     75397     75396     75397     75398     75399
     75398     75400     75399     75400     75401     75402     75401     75403
     75402     75403     75404     75405     75404     75406     75405     75406
     75407     75408     75407     75409     75408     75409     75410     75411
     75410     75412     75411     75412     75413     75414     75413     75415
     75414     75415     75416     75417     75416     75418     75417     75418
     75419     75420     75419     75421     75420     75421     75422     75423
     75422     75424     75423     75424     75425     75426     75425     75427
     75426     75427     75428     75429     75428     75430     75429     75430
     75431     75432     75431     75433     75432     75433     75434     75435
     75434     75436     75435     75436     75437     75438     75437     75439
     75438     75439     75440     75441     75440     75442     75441     75442
     75443     75444     75443     75445     75444     75445     75446     75447
     75446     75448     75447     75448     75449     75450     75449     75451
     75450     75451     75452     75453     75452     75454     75453     75454
     75455     75456     75455     75457     75456     75457     75458     75459
     75458     75460     75459     75460     75461     75462     75461     75463
     75462     75463     75464     75465     75464     75466     75465     75466
     75467     75468     75467     75469     75468     75469     75470     75471
     75470     75472     75471     75472     75473     75474     75473     75475
     75474     75475     75476     75477     75476     75478     75477     75478
     75479     75480     75479     75481     75480     75481     75482     75483
     75482     75484     75483     75484     75485     75486     75485     75487
     75486     75487     75488     75489     75488     75490     75489     75490
     75491     75492     75491     75493     75492     75493     75494     75495
     75494     75496     75495     75496     75497     75498     75497     75499
     75498     75499     75500     75501     75500     75502     75501     75502
     75503     75504     75503     75505     75504     75505     75506     75507
     75506     75508     75507     75508     75509     75510     75509     75511
     75510     75511     75512     75513     75512     75514     75513     75514
     75515     75516     75515     75517     75516     75517     75518     75519
     75518     75520     75519     75520     75521     75522     75521     75523
     75522     75523     75524     75525     75524     75526     75525     75526
     75527     75528     75527     75529     75528     75529     75530     75531
     75530     75532     75531     75532     75533     75534     75533     75535
     75534     75535     75536     75537     75536     75538     75537     75538
     75539     75540     75539     75541     75540     75541     75542     75543
     75542     75544     75543     75544     75545     75546     75545     75547
     75546     75547     75548     75549     75548     75550     75549     75550
     75551     75552     75551     75553     75552     75553     75554     75555
     75554     75556     75555     75556     75557     75558     75557     75559
     75558     75559     75560     75561     75560     75562     75561     75562
     75563     75564     75563     75565     75564     75565     75566     75567
     75566     75568     75567     75568     75569     75570     75569     75571
     75570     75571     75572     75573     75572     75574     75573     75574
     75575     75576     75575     75577     75576     75577     75578     75579
     75578     75580     75579     75580     75581     75582     75581     75583
     75582     75583     75584     75585     75584     75586     75585     75586
     75587     75588     75587     75589     75588     75589     75590     75591
     75590     75592     75591     75592     75593     75594     75593     75595
     75594     75595     75596     75597     75596     75598     75597     75598
     75599     75600     75599     75601     75600     75601     75602     75603
     75602     75604     75603     75604     75605     75606     75605     75607
     75606     75607     75608     75609     75608     75610     75609     75610
     75611     75612     75611     75613     75612     75613     75614     75615
     75614     75616     75615     75616     75617     75618     75617     75619
     75618     75619     75620     75621     75620     75622     75621     75622
     75623     75624     75623     75625     75624     75625     75626     75627
     75626     75628     75627     75628     75629     75630     75629     75631
     75630     75631     75632     75633     75632     75634     75633     75634
     75635     75636     75635     75637     75636     75637     75638     75639
     75638     75640     75639     75640     75641     75642     75641     75643
     75642     75643     75644     75645     75644     75646     75645     75646
     75647     75648     75647     75649     75648     75649     75650     75651
     75650     75652     75651     75652     75653     75654     75653     75655
     75654     75655     75656     75657     75656     75658     75657     75658
     75659     75660     75659     75661     75660     75661     75662     75663
     75662     75664     75663     75664     75665     75666     75665     75667
     75666     75667     75668     75669     75668     75670     75669     75670
     75671     75672     75671     75673     75672     75673     75674     75675
     75674     75676     75675     75676     75677     75678     75677     75679
     75678     75679     75680     75681     75680     75682     75681     75682
     75683     75684     75683     75685     75684     75685     75686     75687
     75686     75688     75687     75688     75689     75690     75689     75691
     75690     75691     75692     75693     75692     75694     75693     75694
     75695     75696     75695     75697     75696     75697     75698     75699
     75698     75700     75699     75700     75701     75702     75701     75703
     75702     75703     75704     75705     75704     75706     75705     75706
     75707     75708     75707     75709     75708     75709     75710     75711
     75710     75712     75711     75712     75713     75714     75713     75715
     75714     75715     75716     75717     75716     75718     75717     75718
     75719     75720     75719     75721     75720     75721     75722     75723
     75722     75724     75723     75724     75725     75726     75725     75727
     75726     75727     75728     75729     75728     75730     75729     75730
     75731     75732     75731     75733     75732     75733     75734     75735
     75734     75736     75735     75736     75737     75738     75737     75739
     75738     75739     75740     75741     75740     75742     75741     75742
     75743     75744     75743     75745     75744     75745     75746     75747
     75746     75748     75747     75748     75749     75750     75749     75751
     75750     75751     75752     75753     75752     75754     75753     75754
     75755     75756     75755     75757     75756     75757     75758     75759
     75758     75760     75759     75760     75761     75762     75761     75763
     75762     75763     75764     75765     75764     75766     75765     75766
     75767     75768     75767     75769     75768     75769     75770     75771
     75770     75772     75771     75772     75773     75774     75773     75775
     75774     75775     75776     75777     75776     75778     75777     75778
     75779     75780     75779     75781     75780     75781     75782     75783
     75782     75784     75783     75784     75785     75786     75785     75787
     75786     75787     75788     75789     75788     75790     75789     75790
     75791     75792     75791     75793     75792     75793     75794     75795
     75794     75796     75795     75796     75797     75798     75797     75799
     75798     75799     75800     75801     75800     75802     75801     75802
     75803     75804     75803     75805     75804     75805     75806     75807
     75806     75808     75807     75808     75809     75810     75809     75811
     75810     75811     75812     75813     75812     75814     75813     75814
     75815     75816     75815     75817     75816     75817     75818     75819
     75818     75820     75819     75820     75821     75822     75821     75823
     75822     75823     75824     75825     75824     75826     75825     75826
     75827     75828     75827     75829     75828     75829     75830     75831
     75830     75832     75831     75832     75833     75834     75833     75835
     75834     75835     75836     75837     75836     75838     75837     75838
     75839     75840     75839     75841     75840     75841     75842     75843
     75842     75844     75843     75844     75845     75846     75845     75847
     75846     75847     75848     75849     75848     75850     75849     75850
     75851     75852     75851     75853     75852     75853     75854     75855
     75854     75856     75855     75856     75857     75858     75857     75859
     75858     75859     75860     75861     75860     75862     75861     75862
     75863     75864     75863     75865     75864     75865     75866     75867
     75866     75868     75867     75868     75869     75870     75869     75871
     75870     75871     75872     75873     75872     75874     75873     75874
     75875     75876     75875     75877     75876     75877     75878     75879
     75878     75880     75879     75880     75881     75882     75881     75883
     75882     75883     75884     75885     75884     75886     75885     75886
     75887     75888     75887     75889     75888     75889     75890     75891
     75890     75892     75891     75892     75893     75894     75893     75895
     75894     75895     75896     75897     75896     75898     75897     75898
     75899     75900     75899     75901     75900     75901     75902     75903
     75902     75904     75903     75904     75905     75906     75905     75907
     75906     75907     75908     75909     75908     75910     75909     75910
     75911     75912     75911     75913     75912     75913     75914     75915
     75914     75916     75915     75916     75917     75918     75917     75919
     75918     75919     75920     75921     75920     75922     75921     75922
     75923     75924     75923     75925     75924     75925     75926     75927
     75926     75928     75927     75928     75929     75930     75929     75931
     75930     75931     75932     75933     75932     75934     75933     75934
     75935     75936     75935     75937     75936     75937     75938     75939
     75938     75940     75939     75940     75941     75942     75941     75943
     75942     75943     75944     75945     75944     75946     75945     75946
     75947     75948     75947     75949     75948     75949     75950     75951
     75950     75952     75951     75952     75953     75954     75953     75955
     75954     75955     75956     75957     75956     75958     75957     75958
     75959     75960     75959     75961     75960     75961     75962     75963
     75962     75964     75963     75964     75965     75966     75965     75967
     75966     75967     75968     75969     75968     75970     75969     75970
     75971     75972     75971     75973     75972     75973     75974     75975
     75974     75976     75975     75976     75977     75978     75977     75979
     75978     75979     75980     75981     75980     75982     75981     75982
     75983     75984     75983     75985     75984     75985     75986     75987
     75986     75988     75987     75988     75989     75990     75989     75991
     75990     75991     75992     75993     75992     75994     75993     75994
     75995     75996     75995     75997     75996     75997     75998     75999
     75998     76000     75999     76000     76001     76002     76001     76003
     76002     76003     76004     76005     76004     76006     76005     76006
     76007     76008     76007     76009     76008     76009     76010     76011
     76010     76012     76011     76012     76013     76014     76013     76015
     76014     76015     76016     76017     76016     76018     76017     76018
     76019     76020     76019     76021     76020     76021     76022     76023
     76022     76024     76023     76024     76025     76026     76025     76027
     76026     76027     76028     76029     76028     76030     76029     76030
     76031     76032     76031     76033     76032     76033     76034     76035
     76034     76036     76035     76036     76037     76038     76037     76039
     76038     76039     76040     76041     76040     76042     76041     76042
     76043     76044     76043     76045     76044     76045     76046     76047
     76046     76048     76047     76048     76049     76050     76049     76051
     76050     76051     76052     76053     76052     76054     76053     76054
     76055     76056     76055     76057     76056     76057     76058     76059
     76058     76060     76059     76060     76061     76062     76061     76063
     76062     76063     76064     76065     76064     76066     76065     76066
     76067     76068     76067     76069     76068     76069     76070     76071
     76070     76072     76071     76072     76073     76074     76073     76075
     76074     76075     76076     76077     76076     76078     76077     76078
     76079     76080     76079     76081     76080     76081     76082     76083
     76082     76084     76083     76084     76085     76086     76085     76087
     76086     76087     76088     76089     76088     76090     76089     76090
     76091     76092     76091     76093     76092     76093     76094     76095
     76094     76096     76095     76096     76097     76098     76097     76099
     76098     76099     76100     76101     76100     76102     76101     76102
     76103     76104     76103     76105     76104     76105     76106     76107
     76106     76108     76107     76108     76109     76110     76109     76111
     76110     76111     76112     76113     76112     76114     76113     76114
     76115     76116     76115     76117     76116     76117     76118     76119
     76118     76120     76119     76120     76121     76122     76121     76123
     76122     76123     76124     76125     76124     76126     76125     76126
     76127     76128     76127     76129     76128     76129     76130     76131
     76130     76132     76131     76132     76133     76134     76133     76135
     76134     76135     76136     76137     76136     76138     76137     76138
     76139     76140     76139     76141     76140     76141     76142     76143
     76142     76144     76143     76144     76145     76146     76145     76147
     76146     76147     76148     76149     76148     76150     76149     76150
     76151     76152     76151     76153     76152     76153     76154     76155
     76154     76156     76155     76156     76157     76158     76157     76159
     76158     76159     76160     76161     76160     76162     76161     76162
     76163     76164     76163     76165     76164     76165     76166     76167
     76166     76168     76167     76168     76169     76170     76169     76171
     76170     76171     76172     76173     76172     76174     76173     76174
     76175     76176     76175     76177     76176     76177     76178     76179
     76178     76180     76179     76180     76181     76182     76181     76183
     76182     76183     76184     76185     76184     76186     76185     76186
     76187     76188     76187     76189     76188     76189     76190     76191
     76190     76192     76191     76192     76193     76194     76193     76195
     76194     76195     76196     76197     76196     76198     76197     76198
     76199     76200     76199     76201     76200     76201     76202     76203
     76202     76204     76203     76204     76205     76206     76205     76207
     76206     76207     76208     76209     76208     76210     76209     76210
     76211     76212     76211     76213     76212     76213     76214     76215
     76214     76216     76215     76216     76217     76218     76217     76219
     76218     76219     76220     76221     76220     76222     76221     76222
     76223     76224     76223     76225     76224     76225     76226     76227
     76226     76228     76227     76228     76229     76230     76229     76231
     76230     76231     76232     76233     76232     76234     76233     76234
     76235     76236     76235     76237     76236     76237     76238     76239
     76238     76240     76239     76240     76241     76242     76241     76243
     76242     76243     76244     76245     76244     76246     76245     76246
     76247     76248     76247     76249     76248     76249     76250     76251
     76250     76252     76251     76252     76253     76254     76253     76255
     76254     76255     76256     76257     76256     76258     76257     76258
     76259     76260     76259     76261     76260     76261     76262     76263
     76262     76264     76263     76264     76265     76266     76265     76267
     76266     76267     76268     76269     76268     76270     76269     76270
     76271     76272     76271     76273     76272     76273     76274     76275
     76274     76276     76275     76276     76277     76278     76277     76279
     76278     76279     76280     76281     76280     76282     76281     76282
     76283     76284     76283     76285     76284     76285     76286     76287
     76286     76288     76287     76288     76289     76290     76289     76291
     76290     76291     76292     76293     76292     76294     76293     76294
     76295     76296     76295     76297     76296     76297     76298     76299
     76298     76300     76299     76300     76301     76302     76301     76303
     76302     76303     76304     76305     76304     76306     76305     76306
     76307     76308     76307     76309     76308     76309     76310     76311
     76310     76312     76311     76312     76313     76314     76313     76315
     76314     76315     76316     76317     76316     76318     76317     76318
     76319     76320     76319     76321     76320     76321     76322     76323
     76322     76324     76323     76324     76325     76326     76325     76327
     76326     76327     76328     76329     76328     76330     76329     76330
     76331     76332     76331     76333     76332     76333     76334     76335
     76334     76336     76335     76336     76337     76338     76337     76339
     76338     76339     76340     76341     76340     76342     76341     76342
     76343     76344     76343     76345     76344     76345     76346     76347
     76346     76348     76347     76348     76349     76350     76349     76351
     76350     76351     76352     76353     76352     76354     76353     76354
     76355     76356     76355     76357     76356     76357     76358     76359
     76358     76360     76359     76360     76361     76362     76361     76363
     76362     76363     76364     76365     76364     76366     76365     76366
     76367     76368     76367     76369     76368     76369     76370     76371
     76370     76372     76371     76372     76373     76374     76373     76375
     76374     76375     76376     76377     76376     76378     76377     76378
     76379     76380     76379     76381     76380     76381     76382     76383
     76382     76384     76383     76384     76385     76386     76385     76387
     76386     76387     76388     76389     76388     76390     76389     76390
     76391     76392     76391     76393     76392     76393     76394     76395
     76394     76396     76395     76396     76397     76398     76397     76399
     76398     76399     76400     76401     76400     76402     76401     76402
     76403     76404     76403     76405     76404     76405     76406     76407
     76406     76408     76407     76408     76409     76410     76409     76411
     76410     76411     76412     76413     76412     76414     76413     76414
     76415     76416     76415     76417     76416     76417     76418     76419
     76418     76420     76419     76420     76421     76422     76421     76423
     76422     76423     76424     76425     76424     76426     76425     76426
     76427     76428     76427     76429     76428     76429     76430     76431
     76430     76432     76431     76432     76433     76434     76433     76435
     76434     76435     76436     76437     76436     76438     76437     76438
     76439     76440     76439     76441     76440     76441     76442     76443
     76442     76444     76443     76444     76445     76446     76445     76447
     76446     76447     76448     76449     76448     76450     76449     76450
     76451     76452     76451     76453     76452     76453     76454     76455
     76454     76456     76455     76456     76457     76458     76457     76459
     76458     76459     76460     76461     76460     76462     76461     76462
     76463     76464     76463     76465     76464     76465     76466     76467
     76466     76468     76467     76468     76469     76470     76469     76471
     76470     76471     76472     76473     76472     76474     76473     76474
     76475     76476     76475     76477     76476     76477     76478     76479
     76478     76480     76479     76480     76481     76482     76481     76483
     76482     76483     76484     76485     76484     76486     76485     76486
     76487     76488     76487     76489     76488     76489     76490     76491
     76490     76492     76491     76492     76493     76494     76493     76495
     76494     76495     76496     76497     76496     76498     76497     76498
     76499     76500     76499     76501     76500     76501     76502     76503
     76502     76504     76503     76504     76505     76506     76505     76507
     76506     76507     76508     76509     76508     76510     76509     76510
     76511     76512     76511     76513     76512     76513     76514     76515
     76514     76516     76515     76516     76517     76518     76517     76519
     76518     76519     76520     76521     76520     76522     76521     76522
     76523     76524     76523     76525     76524     76525     76526     76527
     76526     76528     76527     76528     76529     76530     76529     76531
     76530     76531     76532     76533     76532     76534     76533     76534
     76535     76536     76535     76537     76536     76537     76538     76539
     76538     76540     76539     76540     76541     76542     76541     76543
     76542     76543     76544     76545     76544     76546     76545     76546
     76547     76548     76547     76549     76548     76549     76550     76551
     76550     76552     76551     76552     76553     76554     76553     76555
     76554     76555     76556     76557     76556     76558     76557     76558
     76559     76560     76559     76561     76560     76561     76562     76563
     76562     76564     76563     76564     76565     76566     76565     76567
     76566     76567     76568     76569     76568     76570     76569     76570
     76571     76572     76571     76573     76572     76573     76574     76575
     76574     76576     76575     76576     76577     76578     76577     76579
     76578     76579     76580     76581     76580     76582     76581     76582
     76583     76584     76583     76585     76584     76585     76586     76587
     76586     76588     76587     76588     76589     76590     76589     76591
     76590     76591     76592     76593     76592     76594     76593     76594
     76595     76596     76595     76597     76596     76597     76598     76599
     76598     76600     76599     76600     76601     76602     76601     76603
     76602     76603     76604     76605     76604     76606     76605     76606
     76607     76608     76607     76609     76608     76609     76610     76611
     76610     76612     76611     76612     76613     76614     76613     76615
     76614     76615     76616     76617     76616     76618     76617     76618
     76619     76620     76619     76621     76620     76621     76622     76623
     76622     76624     76623     76624     76625     76626     76625     76627
     76626     76627     76628     76629     76628     76630     76629     76630
     76631     76632     76631     76633     76632     76633     76634     76635
     76634     76636     76635     76636     76637     76638     76637     76639
     76638     76639     76640     76641     76640     76642     76641     76642
     76643     76644     76643     76645     76644     76645     76646     76647
     76646     76648     76647     76648     76649     76650     76649     76651
     76650     76651     76652     76653     76652     76654     76653     76654
     76655     76656     76655     76657     76656     76657     76658     76659
     76658     76660     76659     76660     76661     76662     76661     76663
     76662     76663     76664     76665     76664     76666     76665     76666
     76667     76668     76667     76669     76668     76669     76670     76671
     76670     76672     76671     76672     76673     76674     76673     76675
     76674     76675     76676     76677     76676     76678     76677     76678
     76679     76680     76679     76681     76680     76681     76682     76683
     76682     76684     76683     76684     76685     76686     76685     76687
     76686     76687     76688     76689     76688     76690     76689     76690
     76691     76692     76691     76693     76692     76693     76694     76695
     76694     76696     76695     76696     76697     76698     76697     76699
     76698     76699     76700     76701     76700     76702     76701     76702
     76703     76704     76703     76705     76704     76705     76706     76707
     76706     76708     76707     76708     76709     76710     76709     76711
     76710     76711     76712     76713     76712     76714     76713     76714
     76715     76716     76715     76717     76716     76717     76718     76719
     76718     76720     76719     76720     76721     76722     76721     76723
     76722     76723     76724     76725     76724     76726     76725     76726
     76727     76728     76727     76729     76728     76729     76730     76731
     76730     76732     76731     76732     76733     76734     76733     76735
     76734     76735     76736     76737     76736     76738     76737     76738
     76739     76740     76739     76741     76740     76741     76742     76743
     76742     76744     76743     76744     76745     76746     76745     76747
     76746     76747     76748     76749     76748     76750     76749     76750
     76751     76752     76751     76753     76752     76753     76754     76755
     76754     76756     76755     76756     76757     76758     76757     76759
     76758     76759     76760     76761     76760     76762     76761     76762
     76763     76764     76763     76765     76764     76765     76766     76767
     76766     76768     76767     76768     76769     76770     76769     76771
     76770     76771     76772     76773     76772     76774     76773     76774
     76775     76776     76775     76777     76776     76777     76778     76779
     76778     76780     76779     76780     76781     76782     76781     76783
     76782     76783     76784     76785     76784     76786     76785     76786
     76787     76788     76787     76789     76788     76789     76790     76791
     76790     76792     76791     76792     76793     76794     76793     76795
     76794     76795     76796     76797     76796     76798     76797     76798
     76799     76800     76799     76801     76800     76801     76802     76803
     76802     76804     76803     76804     76805     76806     76805     76807
     76806     76807     76808     76809     76808     76810     76809     76810
     76811     76812     76811     76813     76812     76813     76814     76815
     76814     76816     76815     76816     76817     76818     76817     76819
     76818     76819     76820     76821     76820     76822     76821     76822
     76823     76824     76823     76825     76824     76825     76826     76827
     76826     76828     76827     76828     76829     76830     76829     76831
     76830     76831     76832     76833     76832     76834     76833     76834
     76835     76836     76835     76837     76836     76837     76838     76839
     76838     76840     76839     76840     76841     76842     76841     76843
     76842     76843     76844     76845     76844     76846     76845     76846
     76847     76848     76847     76849     76848     76849     76850     76851
     76850     76852     76851     76852     76853     76854     76853     76855
     76854     76855     76856     76857     76856     76858     76857     76858
     76859     76860     76859     76861     76860     76861     76862     76863
     76862     76864     76863     76864     76865     76866     76865     76867
     76866     76867     76868     76869     76868     76870     76869     76870
     76871     76872     76871     76873     76872     76873     76874     76875
     76874     76876     76875     76876     76877     76878     76877     76879
     76878     76879     76880     76881     76880     76882     76881     76882
     76883     76884     76883     76885     76884     76885     76886     76887
     76886     76888     76887     76888     76889     76890     76889     76891
     76890     76891     76892     76893     76892     76894     76893     76894
     76895     76896     76895     76897     76896     76897     76898     76899
     76898     76900     76899     76900     76901     76902     76901     76903
     76902     76903     76904     76905     76904     76906     76905     76906
     76907     76908     76907     76909     76908     76909     76910     76911
     76910     76912     76911     76912     76913     76914     76913     76915
     76914     76915     76916     76917     76916     76918     76917     76918
     76919     76920     76919     76921     76920     76921     76922     76923
     76922     76924     76923     76924     76925     76926     76925     76927
     76926     76927     76928     76929     76928     76930     76929     76930
     76931     76932     76931     76933     76932     76933     76934     76935
     76934     76936     76935     76936     76937     76938     76937     76939
     76938     76939     76940     76941     76940     76942     76941     76942
     76943     76944     76943     76945     76944     76945     76946     76947
     76946     76948     76947     76948     76949     76950     76949     76951
     76950     76951     76952     76953     76952     76954     76953     76954
     76955     76956     76955     76957     76956     76957     76958     76959
     76958     76960     76959     76960     76961     76962     76961     76963
     76962     76963     76964     76965     76964     76966     76965     76966
     76967     76968     76967     76969     76968     76969     76970     76971
     76970     76972     76971     76972     76973     76974     76973     76975
     76974     76975     76976     76977     76976     76978     76977     76978
     76979     76980     76979     76981     76980     76981     76982     76983
     76982     76984     76983     76984     76985     76986     76985     76987
     76986     76987     76988     76989     76988     76990     76989     76990
     76991     76992     76991     76993     76992     76993     76994     76995
     76994     76996     76995     76996     76997     76998     76997     76999
     76998     76999     77000     77001     77000     77002     77001     77002
     77003     77004     77003     77005     77004     77005     77006     77007
     77006     77008     77007     77008     77009     77010     77009     77011
     77010     77011     77012     77013     77012     77014     77013     77014
     77015     77016     77015     77017     77016     77017     77018     77019
     77018     77020     77019     77020     77021     77022     77021     77023
     77022     77023     77024     77025     77024     77026     77025     77026
     77027     77028     77027     77029     77028     77029     77030     77031
     77030     77032     77031     77032     77033     77034     77033     77035
     77034     77035     77036     77037     77036     77038     77037     77038
     77039     77040     77039     77041     77040     77041     77042     77043
     77042     77044     77043     77044     77045     77046     77045     77047
     77046     77047     77048     77049     77048     77050     77049     77050
     77051     77052     77051     77053     77052     77053     77054     77055
     77054     77056     77055     77056     77057     77058     77057     77059
     77058     77059     77060     77061     77060     77062     77061     77062
     77063     77064     77063     77065     77064     77065     77066     77067
     77066     77068     77067     77068     77069     77070     77069     77071
     77070     77071     77072     77073     77072     77074     77073     77074
     77075     77076     77075     77077     77076     77077     77078     77079
     77078     77080     77079     77080     77081     77082     77081     77083
     77082     77083     77084     77085     77084     77086     77085     77086
     77087     77088     77087     77089     77088     77089     77090     77091
     77090     77092     77091     77092     77093     77094     77093     77095
     77094     77095     77096     77097     77096     77098     77097     77098
     77099     77100     77099     77101     77100     77101     77102     77103
     77102     77104     77103     77104     77105     77106     77105     77107
     77106     77107     77108     77109     77108     77110     77109     77110
     77111     77112     77111     77113     77112     77113     77114     77115
     77114     77116     77115     77116     77117     77118     77117     77119
     77118     77119     77120     77121     77120     77122     77121     77122
     77123     77124     77123     77125     77124     77125     77126     77127
     77126     77128     77127     77128     77129     77130     77129     77131
     77130     77131     77132     77133     77132     77134     77133     77134
     77135     77136     77135     77137     77136     77137     77138     77139
     77138     77140     77139     77140     77141     77142     77141     77143
     77142     77143     77144     77145     77144     77146     77145     77146
     77147     77148     77147     77149     77148     77149     77150     77151
     77150     77152     77151     77152     77153     77154     77153     77155
     77154     77155     77156     77157     77156     77158     77157     77158
     77159     77160     77159     77161     77160     77161     77162     77163
     77162     77164     77163     77164     77165     77166     77165     77167
     77166     77167     77168     77169     77168     77170     77169     77170
     77171     77172     77171     77173     77172     77173     77174     77175
     77174     77176     77175     77176     77177     77178     77177     77179
     77178     77179     77180     77181     77180     77182     77181     77182
     77183     77184     77183     77185     77184     77185     77186     77187
     77186     77188     77187     77188     77189     77190     77189     77191
     77190     77191     77192     77193     77192     77194     77193     77194
     77195     77196     77195     77197     77196     77197     77198     77199
     77198     77200     77199     77200     77201     77202     77201     77203
     77202     77203     77204     77205     77204     77206     77205     77206
     77207     77208     77207     77209     77208     77209     77210     77211
     77210     77212     77211     77212     77213     77214     77213     77215
     77214     77215     77216     77217     77216     77218     77217     77218
     77219     77220     77219     77221     77220     77221     77222     77223
     77222     77224     77223     77224     77225     77226     77225     77227
     77226     77227     77228     77229     77228     77230     77229     77230
     77231     77232     77231     77233     77232     77233     77234     77235
     77234     77236     77235     77236     77237     77238     77237     77239
     77238     77239     77240     77241     77240     77242     77241     77242
     77243     77244     77243     77245     77244     77245     77246     77247
     77246     77248     77247     77248     77249     77250     77249     77251
     77250     77251     77252     77253     77252     77254     77253     77254
     77255     77256     77255     77257     77256     77257     77258     77259
     77258     77260     77259     77260     77261     77262     77261     77263
     77262     77263     77264     77265     77264     77266     77265     77266
     77267     77268     77267     77269     77268     77269     77270     77271
     77270     77272     77271     77272     77273     77274     77273     77275
     77274     77275     77276     77277     77276     77278     77277     77278
     77279     77280     77279     77281     77280     77281     77282     77283
     77282     77284     77283     77284     77285     77286     77285     77287
     77286     77287     77288     77289     77288     77290     77289     77290
     77291     77292     77291     77293     77292     77293     77294     77295
     77294     77296     77295     77296     77297     77298     77297     77299
     77298     77299     77300     77301     77300     77302     77301     77302
     77303     77304     77303     77305     77304     77305     77306     77307
     77306     77308     77307     77308     77309     77310     77309     77311
     77310     77311     77312     77313     77312     77314     77313     77314
     77315     77316     77315     77317     77316     77317     77318     77319
     77318     77320     77319     77320     77321     77322     77321     77323
     77322     77323     77324     77325     77324     77326     77325     77326
     77327     77328     77327     77329     77328     77329     77330     77331
     77330     77332     77331     77332     77333     77334     77333     77335
     77334     77335     77336     77337     77336     77338     77337     77338
     77339     77340     77339     77341     77340     77341     77342     77343
     77342     77344     77343     77344     77345     77346     77345     77347
     77346     77347     77348     77349     77348     77350     77349     77350
     77351     77352     77351     77353     77352     77353     77354     77355
     77354     77356     77355     77356     77357     77358     77357     77359
     77358     77359     77360     77361     77360     77362     77361     77362
     77363     77364     77363     77365     77364     77365     77366     77367
     77366     77368     77367     77368     77369     77370     77369     77371
     77370     77371     77372     77373     77372     77374     77373     77374
     77375     77376     77375     77377     77376     77377     77378     77379
     77378     77380     77379     77380     77381     77382     77381     77383
     77382     77383     77384     77385     77384     77386     77385     77386
     77387     77388     77387     77389     77388     77389     77390     77391
     77390     77392     77391     77392     77393     77394     77393     77395
     77394     77395     77396     77397     77396     77398     77397     77398
     77399     77400     77399     77401     77400     77401     77402     77403
     77402     77404     77403     77404     77405     77406     77405     77407
     77406     77407     77408     77409     77408     77410     77409     77410
     77411     77412     77411     77413     77412     77413     77414     77415
     77414     77416     77415     77416     77417     77418     77417     77419
     77418     77419     77420     77421     77420     77422     77421     77422
     77423     77424     77423     77425     77424     77425     77426     77427
     77426     77428     77427     77428     77429     77430     77429     77431
     77430     77431     77432     77433     77432     77434     77433     77434
     77435     77436     77435     77437     77436     77437     77438     77439
     77438     77440     77439     77440     77441     77442     77441     77443
     77442     77443     77444     77445     77444     77446     77445     77446
     77447     77448     77447     77449     77448     77449     77450     77451
     77450     77452     77451     77452     77453     77454     77453     77455
     77454     77455     77456     77457     77456     77458     77457     77458
     77459     77460     77459     77461     77460     77461     77462     77463
     77462     77464     77463     77464     77465     77466     77465     77467
     77466     77467     77468     77469     77468     77470     77469     77470
     77471     77472     77471     77473     77472     77473     77474     77475
     77474     77476     77475     77476     77477     77478     77477     77479
     77478     77479     77480     77481     77480     77482     77481     77482
     77483     77484     77483     77485     77484     77485     77486     77487
     77486     77488     77487     77488     77489     77490     77489     77491
     77490     77491     77492     77493     77492     77494     77493     77494
     77495     77496     77495     77497     77496     77497     77498     77499
     77498     77500     77499     77500     77501     77502     77501     77503
     77502     77503     77504     77505     77504     77506     77505     77506
     77507     77508     77507     77509     77508     77509     77510     77511
     77510     77512     77511     77512     77513     77514     77513     77515
     77514     77515     77516     77517     77516     77518     77517     77518
     77519     77520     77519     77521     77520     77521     77522     77523
     77522     77524     77523     77524     77525     77526     77525     77527
     77526     77527     77528     77529     77528     77530     77529     77530
     77531     77532     77531     77533     77532     77533     77534     77535
     77534     77536     77535     77536     77537     77538     77537     77539
     77538     77539     77540     77541     77540     77542     77541     77542
     77543     77544     77543     77545     77544     77545     77546     77547
     77546     77548     77547     77548     77549     77550     77549     77551
     77550     77551     77552     77553     77552     77554     77553     77554
     77555     77556     77555     77557     77556     77557     77558     77559
     77558     77560     77559     77560     77561     77562     77561     77563
     77562     77563     77564     77565     77564     77566     77565     77566
     77567     77568     77567     77569     77568     77569     77570     77571
     77570     77572     77571     77572     77573     77574     77573     77575
     77574     77575     77576     77577     77576     77578     77577     77578
     77579     77580     77579     77581     77580     77581     77582     77583
     77582     77584     77583     77584     77585     77586     77585     77587
     77586     77587     77588     77589     77588     77590     77589     77590
     77591     77592     77591     77593     77592     77593     77594     77595
     77594     77596     77595     77596     77597     77598     77597     77599
     77598     77599     77600     77601     77600     77602     77601     77602
     77603     77604     77603     77605     77604     77605     77606     77607
     77606     77608     77607     77608     77609     77610     77609     77611
     77610     77611     77612     77613     77612     77614     77613     77614
     77615     77616     77615     77617     77616     77617     77618     77619
     77618     77620     77619     77620     77621     77622     77621     77623
     77622     77623     77624     77625     77624     77626     77625     77626
     77627     77628     77627     77629     77628     77629     77630     77631
     77630     77632     77631     77632     77633     77634     77633     77635
     77634     77635     77636     77637     77636     77638     77637     77638
     77639     77640     77639     77641     77640     77641     77642     77643
     77642     77644     77643     77644     77645     77646     77645     77647
     77646     77647     77648     77649     77648     77650     77649     77650
     77651     77652     77651     77653     77652     77653     77654     77655
     77654     77656     77655     77656     77657     77658     77657     77659
     77658     77659     77660     77661     77660     77662     77661     77662
     77663     77664     77663     77665     77664     77665     77666     77667
     77666     77668     77667     77668     77669     77670     77669     77671
     77670     77671     77672     77673     77672     77674     77673     77674
     77675     77676     77675     77677     77676     77677     77678     77679
     77678     77680     77679     77680     77681     77682     77681     77683
     77682     77683     77684     77685     77684     77686     77685     77686
     77687     77688     77687     77689     77688     77689     77690     77691
     77690     77692     77691     77692     77693     77694     77693     77695
     77694     77695     77696     77697     77696     77698     77697     77698
     77699     77700     77699     77701     77700     77701     77702     77703
     77702     77704     77703     77704     77705     77706     77705     77707
     77706     77707     77708     77709     77708     77710     77709     77710
     77711     77712     77711     77713     77712     77713     77714     77715
     77714     77716     77715     77716     77717     77718     77717     77719
     77718     77719     77720     77721     77720     77722     77721     77722
     77723     77724     77723     77725     77724     77725     77726     77727
     77726     77728     77727     77728     77729     77730     77729     77731
     77730     77731     77732     77733     77732     77734     77733     77734
     77735     77736     77735     77737     77736     77737     77738     77739
     77738     77740     77739     77740     77741     77742     77741     77743
     77742     77743     77744     77745     77744     77746     77745     77746
     77747     77748     77747     77749     77748     77749     77750     77751
     77750     77752     77751     77752     77753     77754     77753     77755
     77754     77755     77756     77757     77756     77758     77757     77758
     77759     77760     77759     77761     77760     77761     77762     77763
     77762     77764     77763     77764     77765     77766     77765     77767
     77766     77767     77768     77769     77768     77770     77769     77770
     77771     77772     77771     77773     77772     77773     77774     77775
     77774     77776     77775     77776     77777     77778     77777     77779
     77778     77779     77780     77781     77780     77782     77781     77782
     77783     77784     77783     77785     77784     77785     77786     77787
     77786     77788     77787     77788     77789     77790     77789     77791
     77790     77791     77792     77793     77792     77794     77793     77794
     77795     77796     77795     77797     77796     77797     77798     77799
     77798     77800     77799     77800     77801     77802     77801     77803
     77802     77803     77804     77805     77804     77806     77805     77806
     77807     77808     77807     77809     77808     77809     77810     77811
     77810     77812     77811     77812     77813     77814     77813     77815
     77814     77815     77816     77817     77816     77818     77817     77818
     77819     77820     77819     77821     77820     77821     77822     77823
     77822     77824     77823     77824     77825     77826     77825     77827
     77826     77827     77828     77829     77828     77830     77829     77830
     77831     77832     77831     77833     77832     77833     77834     77835
     77834     77836     77835     77836     77837     77838     77837     77839
     77838     77839     77840     77841     77840     77842     77841     77842
     77843     77844     77843     77845     77844     77845     77846     77847
     77846     77848     77847     77848     77849     77850     77849     77851
     77850     77851     77852     77853     77852     77854     77853     77854
     77855     77856     77855     77857     77856     77857     77858     77859
     77858     77860     77859     77860     77861     77862     77861     77863
     77862     77863     77864     77865     77864     77866     77865     77866
     77867     77868     77867     77869     77868     77869     77870     77871
     77870     77872     77871     77872     77873     77874     77873     77875
     77874     77875     77876     77877     77876     77878     77877     77878
     77879     77880     77879     77881     77880     77881     77882     77883
     77882     77884     77883     77884     77885     77886     77885     77887
     77886     77887     77888     77889     77888     77890     77889     77890
     77891     77892     77891     77893     77892     77893     77894     77895
     77894     77896     77895     77896     77897     77898     77897     77899
     77898     77899     77900     77901     77900     77902     77901     77902
     77903     77904     77903     77905     77904     77905     77906     77907
     77906     77908     77907     77908     77909     77910     77909     77911
     77910     77911     77912     77913     77912     77914     77913     77914
     77915     77916     77915     77917     77916     77917     77918     77919
     77918     77920     77919     77920     77921     77922     77921     77923
     77922     77923     77924     77925     77924     77926     77925     77926
     77927     77928     77927     77929     77928     77929     77930     77931
     77930     77932     77931     77932     77933     77934     77933     77935
     77934     77935     77936     77937     77936     77938     77937     77938
     77939     77940     77939     77941     77940     77941     77942     77943
     77942     77944     77943     77944     77945     77946     77945     77947
     77946     77947     77948     77949     77948     77950     77949     77950
     77951     77952     77951     77953     77952     77953     77954     77955
     77954     77956     77955     77956     77957     77958     77957     77959
     77958     77959     77960     77961     77960     77962     77961     77962
     77963     77964     77963     77965     77964     77965     77966     77967
     77966     77968     77967     77968     77969     77970     77969     77971
     77970     77971     77972     77973     77972     77974     77973     77974
     77975     77976     77975     77977     77976     77977     77978     77979
     77978     77980     77979     77980     77981     77982     77981     77983
     77982     77983     77984     77985     77984     77986     77985     77986
     77987     77988     77987     77989     77988     77989     77990     77991
     77990     77992     77991     77992     77993     77994     77993     77995
     77994     77995     77996     77997     77996     77998     77997     77998
     77999     78000     77999     78001     78000     78001     78002     78003
     78002     78004     78003     78004     78005     78006     78005     78007
     78006     78007     78008     78009     78008     78010     78009     78010
     78011     78012     78011     78013     78012     78013     78014     78015
     78014     78016     78015     78016     78017     78018     78017     78019
     78018     78019     78020     78021     78020     78022     78021     78022
     78023     78024     78023     78025     78024     78025     78026     78027
     78026     78028     78027     78028     78029     78030     78029     78031
     78030     78031     78032     78033     78032     78034     78033     78034
     78035     78036     78035     78037     78036     78037     78038     78039
     78038     78040     78039     78040     78041     78042     78041     78043
     78042     78043     78044     78045     78044     78046     78045     78046
     78047     78048     78047     78049     78048     78049     78050     78051
     78050     78052     78051     78052     78053     78054     78053     78055
     78054     78055     78056     78057     78056     78058     78057     78058
     78059     78060     78059     78061     78060     78061     78062     78063
     78062     78064     78063     78064     78065     78066     78065     78067
     78066     78067     78068     78069     78068     78070     78069     78070
     78071     78072     78071     78073     78072     78073     78074     78075
     78074     78076     78075     78076     78077     78078     78077     78079
     78078     78079     78080     78081     78080     78082     78081     78082
     78083     78084     78083     78085     78084     78085     78086     78087
     78086     78088     78087     78088     78089     78090     78089     78091
     78090     78091     78092     78093     78092     78094     78093     78094
     78095     78096     78095     78097     78096     78097     78098     78099
     78098     78100     78099     78100     78101     78102     78101     78103
     78102     78103     78104     78105     78104     78106     78105     78106
     78107     78108     78107     78109     78108     78109     78110     78111
     78110     78112     78111     78112     78113     78114     78113     78115
     78114     78115     78116     78117     78116     78118     78117     78118
     78119     78120     78119     78121     78120     78121     78122     78123
     78122     78124     78123     78124     78125     78126     78125     78127
     78126     78127     78128     78129     78128     78130     78129     78130
     78131     78132     78131     78133     78132     78133     78134     78135
     78134     78136     78135     78136     78137     78138     78137     78139
     78138     78139     78140     78141     78140     78142     78141     78142
     78143     78144     78143     78145     78144     78145     78146     78147
     78146     78148     78147     78148     78149     78150     78149     78151
     78150     78151     78152     78153     78152     78154     78153     78154
     78155     78156     78155     78157     78156     78157     78158     78159
     78158     78160     78159     78160     78161     78162     78161     78163
     78162     78163     78164     78165     78164     78166     78165     78166
     78167     78168     78167     78169     78168     78169     78170     78171
     78170     78172     78171     78172     78173     78174     78173     78175
     78174     78175     78176     78177     78176     78178     78177     78178
     78179     78180     78179     78181     78180     78181     78182     78183
     78182     78184     78183     78184     78185     78186     78185     78187
     78186     78187     78188     78189     78188     78190     78189     78190
     78191     78192     78191     78193     78192     78193     78194     78195
     78194     78196     78195     78196     78197     78198     78197     78199
     78198     78199     78200     78201     78200     78202     78201     78202
     78203     78204     78203     78205     78204     78205     78206     78207
     78206     78208     78207     78208     78209     78210     78209     78211
     78210     78211     78212     78213     78212     78214     78213     78214
     78215     78216     78215     78217     78216     78217     78218     78219
     78218     78220     78219     78220     78221     78222     78221     78223
     78222     78223     78224     78225     78224     78226     78225     78226
     78227     78228     78227     78229     78228     78229     78230     78231
     78230     78232     78231     78232     78233     78234     78233     78235
     78234     78235     78236     78237     78236     78238     78237     78238
     78239     78240     78239     78241     78240     78241     78242     78243
     78242     78244     78243     78244     78245     78246     78245     78247
     78246     78247     78248     78249     78248     78250     78249     78250
     78251     78252     78251     78253     78252     78253     78254     78255
     78254     78256     78255     78256     78257     78258     78257     78259
     78258     78259     78260     78261     78260     78262     78261     78262
     78263     78264     78263     78265     78264     78265     78266     78267
     78266     78268     78267     78268     78269     78270     78269     78271
     78270     78271     78272     78273     78272     78274     78273     78274
     78275     78276     78275     78277     78276     78277     78278     78279
     78278     78280     78279     78280     78281     78282     78281     78283
     78282     78283     78284     78285     78284     78286     78285     78286
     78287     78288     78287     78289     78288     78289     78290     78291
     78290     78292     78291     78292     78293     78294     78293     78295
     78294     78295     78296     78297     78296     78298     78297     78298
     78299     78300     78299     78301     78300     78301     78302     78303
     78302     78304     78303     78304     78305     78306     78305     78307
     78306     78307     78308     78309     78308     78310     78309     78310
     78311     78312     78311     78313     78312     78313     78314     78315
     78314     78316     78315     78316     78317     78318     78317     78319
     78318     78319     78320     78321     78320     78322     78321     78322
     78323     78324     78323     78325     78324     78325     78326     78327
     78326     78328     78327     78328     78329     78330     78329     78331
     78330     78331     78332     78333     78332     78334     78333     78334
     78335     78336     78335     78337     78336     78337     78338     78339
     78338     78340     78339     78340     78341     78342     78341     78343
     78342     78343     78344     78345     78344     78346     78345     78346
     78347     78348     78347     78349     78348     78349     78350     78351
     78350     78352     78351     78352     78353     78354     78353     78355
     78354     78355     78356     78357     78356     78358     78357     78358
     78359     78360     78359     78361     78360     78361     78362     78363
     78362     78364     78363     78364     78365     78366     78365     78367
     78366     78367     78368     78369     78368     78370     78369     78370
     78371     78372     78371     78373     78372     78373     78374     78375
     78374     78376     78375     78376     78377     78378     78377     78379
     78378     78379     78380     78381     78380     78382     78381     78382
     78383     78384     78383     78385     78384     78385     78386     78387
     78386     78388     78387     78388     78389     78390     78389     78391
     78390     78391     78392     78393     78392     78394     78393     78394
     78395     78396     78395     78397     78396     78397     78398     78399
     78398     78400     78399     78400     78401     78402     78401     78403
     78402     78403     78404     78405     78404     78406     78405     78406
     78407     78408     78407     78409     78408     78409     78410     78411
     78410     78412     78411     78412     78413     78414     78413     78415
     78414     78415     78416     78417     78416     78418     78417     78418
     78419     78420     78419     78421     78420     78421     78422     78423
     78422     78424     78423     78424     78425     78426     78425     78427
     78426     78427     78428     78429     78428     78430     78429     78430
     78431     78432     78431     78433     78432     78433     78434     78435
     78434     78436     78435     78436     78437     78438     78437     78439
     78438     78439     78440     78441     78440     78442     78441     78442
     78443     78444     78443     78445     78444     78445     78446     78447
     78446     78448     78447     78448     78449     78450     78449     78451
     78450     78451     78452     78453     78452     78454     78453     78454
     78455     78456     78455     78457     78456     78457     78458     78459
     78458     78460     78459     78460     78461     78462     78461     78463
     78462     78463     78464     78465     78464     78466     78465     78466
     78467     78468     78467     78469     78468     78469     78470     78471
     78470     78472     78471     78472     78473     78474     78473     78475
     78474     78475     78476     78477     78476     78478     78477     78478
     78479     78480     78479     78481     78480     78481     78482     78483
     78482     78484     78483     78484     78485     78486     78485     78487
     78486     78487     78488     78489     78488     78490     78489     78490
     78491     78492     78491     78493     78492     78493     78494     78495
     78494     78496     78495     78496     78497     78498     78497     78499
     78498     78499     78500     78501     78500     78502     78501     78502
     78503     78504     78503     78505     78504     78505     78506     78507
     78506     78508     78507     78508     78509     78510     78509     78511
     78510     78511     78512     78513     78512     78514     78513     78514
     78515     78516     78515     78517     78516     78517     78518     78519
     78518     78520     78519     78520     78521     78522     78521     78523
     78522     78523     78524     78525     78524     78526     78525     78526
     78527     78528     78527     78529     78528     78529     78530     78531
     78530     78532     78531     78532     78533     78534     78533     78535
     78534     78535     78536     78537     78536     78538     78537     78538
     78539     78540     78539     78541     78540     78541     78542     78543
     78542     78544     78543     78544     78545     78546     78545     78547
     78546     78547     78548     78549     78548     78550     78549     78550
     78551     78552     78551     78553     78552     78553     78554     78555
     78554     78556     78555     78556     78557     78558     78557     78559
     78558     78559     78560     78561     78560     78562     78561     78562
     78563     78564     78563     78565     78564     78565     78566     78567
     78566     78568     78567     78568     78569     78570     78569     78571
     78570     78571     78572     78573     78572     78574     78573     78574
     78575     78576     78575     78577     78576     78577     78578     78579
     78578     78580     78579     78580     78581     78582     78581     78583
     78582     78583     78584     78585     78584     78586     78585     78586
     78587     78588     78587     78589     78588     78589     78590     78591
     78590     78592     78591     78592     78593     78594     78593     78595
     78594     78595     78596     78597     78596     78598     78597     78598
     78599     78600     78599     78601     78600     78601     78602     78603
     78602     78604     78603     78604     78605     78606     78605     78607
     78606     78607     78608     78609     78608     78610     78609     78610
     78611     78612     78611     78613     78612     78613     78614     78615
     78614     78616     78615     78616     78617     78618     78617     78619
     78618     78619     78620     78621     78620     78622     78621     78622
     78623     78624     78623     78625     78624     78625     78626     78627
     78626     78628     78627     78628     78629     78630     78629     78631
     78630     78631     78632     78633     78632     78634     78633     78634
     78635     78636     78635     78637     78636     78637     78638     78639
     78638     78640     78639     78640     78641     78642     78641     78643
     78642     78643     78644     78645     78644     78646     78645     78646
     78647     78648     78647     78649     78648     78649     78650     78651
     78650     78652     78651     78652     78653     78654     78653     78655
     78654     78655     78656     78657     78656     78658     78657     78658
     78659     78660     78659     78661     78660     78661     78662     78663
     78662     78664     78663     78664     78665     78666     78665     78667
     78666     78667     78668     78669     78668     78670     78669     78670
     78671     78672     78671     78673     78672     78673     78674     78675
     78674     78676     78675     78676     78677     78678     78677     78679
     78678     78679     78680     78681     78680     78682     78681     78682
     78683     78684     78683     78685     78684     78685     78686     78687
     78686     78688     78687     78688     78689     78690     78689     78691
     78690     78691     78692     78693     78692     78694     78693     78694
     78695     78696     78695     78697     78696     78697     78698     78699
     78698     78700     78699     78700     78701     78702     78701     78703
     78702     78703     78704     78705     78704     78706     78705     78706
     78707     78708     78707     78709     78708     78709     78710     78711
     78710     78712     78711     78712     78713     78714     78713     78715
     78714     78715     78716     78717     78716     78718     78717     78718
     78719     78720     78719     78721     78720     78721     78722     78723
     78722     78724     78723     78724     78725     78726     78725     78727
     78726     78727     78728     78729     78728     78730     78729     78730
     78731     78732     78731     78733     78732     78733     78734     78735
     78734     78736     78735     78736     78737     78738     78737     78739
     78738     78739     78740     78741     78740     78742     78741     78742
     78743     78744     78743     78745     78744     78745     78746     78747
     78746     78748     78747     78748     78749     78750     78749     78751
     78750     78751     78752     78753     78752     78754     78753     78754
     78755     78756     78755     78757     78756     78757     78758     78759
     78758     78760     78759     78760     78761     78762     78761     78763
     78762     78763     78764     78765     78764     78766     78765     78766
     78767     78768     78767     78769     78768     78769     78770     78771
     78770     78772     78771     78772     78773     78774     78773     78775
     78774     78775     78776     78777     78776     78778     78777     78778
     78779     78780     78779     78781     78780     78781     78782     78783
     78782     78784     78783     78784     78785     78786     78785     78787
     78786     78787     78788     78789     78788     78790     78789     78790
     78791     78792     78791     78793     78792     78793     78794     78795
     78794     78796     78795     78796     78797     78798     78797     78799
     78798     78799     78800     78801     78800     78802     78801     78802
     78803     78804     78803     78805     78804     78805     78806     78807
     78806     78808     78807     78808     78809     78810     78809     78811
     78810     78811     78812     78813     78812     78814     78813     78814
     78815     78816     78815     78817     78816     78817     78818     78819
     78818     78820     78819     78820     78821     78822     78821     78823
     78822     78823     78824     78825     78824     78826     78825     78826
     78827     78828     78827     78829     78828     78829     78830     78831
     78830     78832     78831     78832     78833     78834     78833     78835
     78834     78835     78836     78837     78836     78838     78837     78838
     78839     78840     78839     78841     78840     78841     78842     78843
     78842     78844     78843     78844     78845     78846     78845     78847
     78846     78847     78848     78849     78848     78850     78849     78850
     78851     78852     78851     78853     78852     78853     78854     78855
     78854     78856     78855     78856     78857     78858     78857     78859
     78858     78859     78860     78861     78860     78862     78861     78862
     78863     78864     78863     78865     78864     78865     78866     78867
     78866     78868     78867     78868     78869     78870     78869     78871
     78870     78871     78872     78873     78872     78874     78873     78874
     78875     78876     78875     78877     78876     78877     78878     78879
     78878     78880     78879     78880     78881     78882     78881     78883
     78882     78883     78884     78885     78884     78886     78885     78886
     78887     78888     78887     78889     78888     78889     78890     78891
     78890     78892     78891     78892     78893     78894     78893     78895
     78894     78895     78896     78897     78896     78898     78897     78898
     78899     78900     78899     78901     78900     78901     78902     78903
     78902     78904     78903     78904     78905     78906     78905     78907
     78906     78907     78908     78909     78908     78910     78909     78910
     78911     78912     78911     78913     78912     78913     78914     78915
     78914     78916     78915     78916     78917     78918     78917     78919
     78918     78919     78920     78921     78920     78922     78921     78922
     78923     78924     78923     78925     78924     78925     78926     78927
     78926     78928     78927     78928     78929     78930     78929     78931
     78930     78931     78932     78933     78932     78934     78933     78934
     78935     78936     78935     78937     78936     78937     78938     78939
     78938     78940     78939     78940     78941     78942     78941     78943
     78942     78943     78944     78945     78944     78946     78945     78946
     78947     78948     78947     78949     78948     78949     78950     78951
     78950     78952     78951     78952     78953     78954     78953     78955
     78954     78955     78956     78957     78956     78958     78957     78958
     78959     78960     78959     78961     78960     78961     78962     78963
     78962     78964     78963     78964     78965     78966     78965     78967
     78966     78967     78968     78969     78968     78970     78969     78970
     78971     78972     78971     78973     78972     78973     78974     78975
     78974     78976     78975     78976     78977     78978     78977     78979
     78978     78979     78980     78981     78980     78982     78981     78982
     78983     78984     78983     78985     78984     78985     78986     78987
     78986     78988     78987     78988     78989     78990     78989     78991
     78990     78991     78992     78993     78992     78994     78993     78994
     78995     78996     78995     78997     78996     78997     78998     78999
     78998     79000     78999     79000     79001     79002     79001     79003
     79002     79003     79004     79005     79004     79006     79005     79006
     79007     79008     79007     79009     79008     79009     79010     79011
     79010     79012     79011     79012     79013     79014     79013     79015
     79014     79015     79016     79017     79016     79018     79017     79018
     79019     79020     79019     79021     79020     79021     79022     79023
     79022     79024     79023     79024     79025     79026     79025     79027
     79026     79027     79028     79029     79028     79030     79029     79030
     79031     79032     79031     79033     79032     79033     79034     79035
     79034     79036     79035     79036     79037     79038     79037     79039
     79038     79039     79040     79041     79040     79042     79041     79042
     79043     79044     79043     79045     79044     79045     79046     79047
     79046     79048     79047     79048     79049     79050     79049     79051
     79050     79051     79052     79053     79052     79054     79053     79054
     79055     79056     79055     79057     79056     79057     79058     79059
     79058     79060     79059     79060     79061     79062     79061     79063
     79062     79063     79064     79065     79064     79066     79065     79066
     79067     79068     79067     79069     79068     79069     79070     79071
     79070     79072     79071     79072     79073     79074     79073     79075
     79074     79075     79076     79077     79076     79078     79077     79078
     79079     79080     79079     79081     79080     79081     79082     79083
     79082     79084     79083     79084     79085     79086     79085     79087
     79086     79087     79088     79089     79088     79090     79089     79090
     79091     79092     79091     79093     79092     79093     79094     79095
     79094     79096     79095     79096     79097     79098     79097     79099
     79098     79099     79100     79101     79100     79102     79101     79102
     79103     79104     79103     79105     79104     79105     79106     79107
     79106     79108     79107     79108     79109     79110     79109     79111
     79110     79111     79112     79113     79112     79114     79113     79114
     79115     79116     79115     79117     79116     79117     79118     79119
     79118     79120     79119     79120     79121     79122     79121     79123
     79122     79123     79124     79125     79124     79126     79125     79126
     79127     79128     79127     79129     79128     79129     79130     79131
     79130     79132     79131     79132     79133     79134     79133     79135
     79134     79135     79136     79137     79136     79138     79137     79138
     79139     79140     79139     79141     79140     79141     79142     79143
     79142     79144     79143     79144     79145     79146     79145     79147
     79146     79147     79148     79149     79148     79150     79149     79150
     79151     79152     79151     79153     79152     79153     79154     79155
     79154     79156     79155     79156     79157     79158     79157     79159
     79158     79159     79160     79161     79160     79162     79161     79162
     79163     79164     79163     79165     79164     79165     79166     79167
     79166     79168     79167     79168     79169     79170     79169     79171
     79170     79171     79172     79173     79172     79174     79173     79174
     79175     79176     79175     79177     79176     79177     79178     79179
     79178     79180     79179     79180     79181     79182     79181     79183
     79182     79183     79184     79185     79184     79186     79185     79186
     79187     79188     79187     79189     79188     79189     79190     79191
     79190     79192     79191     79192     79193     79194     79193     79195
     79194     79195     79196     79197     79196     79198     79197     79198
     79199     79200     79199     79201     79200     79201     79202     79203
     79202     79204     79203     79204     79205     79206     79205     79207
     79206     79207     79208     79209     79208     79210     79209     79210
     79211     79212     79211     79213     79212     79213     79214     79215
     79214     79216     79215     79216     79217     79218     79217     79219
     79218     79219     79220     79221     79220     79222     79221     79222
     79223     79224     79223     79225     79224     79225     79226     79227
     79226     79228     79227     79228     79229     79230     79229     79231
     79230     79231     79232     79233     79232     79234     79233     79234
     79235     79236     79235     79237     79236     79237     79238     79239
     79238     79240     79239     79240     79241     79242     79241     79243
     79242     79243     79244     79245     79244     79246     79245     79246
     79247     79248     79247     79249     79248     79249     79250     79251
     79250     79252     79251     79252     79253     79254     79253     79255
     79254     79255     79256     79257     79256     79258     79257     79258
     79259     79260     79259     79261     79260     79261     79262     79263
     79262     79264     79263     79264     79265     79266     79265     79267
     79266     79267     79268     79269     79268     79270     79269     79270
     79271     79272     79271     79273     79272     79273     79274     79275
     79274     79276     79275     79276     79277     79278     79277     79279
     79278     79279     79280     79281     79280     79282     79281     79282
     79283     79284     79283     79285     79284     79285     79286     79287
     79286     79288     79287     79288     79289     79290     79289     79291
     79290     79291     79292     79293     79292     79294     79293     79294
     79295     79296     79295     79297     79296     79297     79298     79299
     79298     79300     79299     79300     79301     79302     79301     79303
     79302     79303     79304     79305     79304     79306     79305     79306
     79307     79308     79307     79309     79308     79309     79310     79311
     79310     79312     79311     79312     79313     79314     79313     79315
     79314     79315     79316     79317     79316     79318     79317     79318
     79319     79320     79319     79321     79320     79321     79322     79323
     79322     79324     79323     79324     79325     79326     79325     79327
     79326     79327     79328     79329     79328     79330     79329     79330
     79331     79332     79331     79333     79332     79333     79334     79335
     79334     79336     79335     79336     79337     79338     79337     79339
     79338     79339     79340     79341     79340     79342     79341     79342
     79343     79344     79343     79345     79344     79345     79346     79347
     79346     79348     79347     79348     79349     79350     79349     79351
     79350     79351     79352     79353     79352     79354     79353     79354
     79355     79356     79355     79357     79356     79357     79358     79359
     79358     79360     79359     79360     79361     79362     79361     79363
     79362     79363     79364     79365     79364     79366     79365     79366
     79367     79368     79367     79369     79368     79369     79370     79371
     79370     79372     79371     79372     79373     79374     79373     79375
     79374     79375     79376     79377     79376     79378     79377     79378
     79379     79380     79379     79381     79380     79381     79382     79383
     79382     79384     79383     79384     79385     79386     79385     79387
     79386     79387     79388     79389     79388     79390     79389     79390
     79391     79392     79391     79393     79392     79393     79394     79395
     79394     79396     79395     79396     79397     79398     79397     79399
     79398     79399     79400     79401     79400     79402     79401     79402
     79403     79404     79403     79405     79404     79405     79406     79407
     79406     79408     79407     79408     79409     79410     79409     79411
     79410     79411     79412     79413     79412     79414     79413     79414
     79415     79416     79415     79417     79416     79417     79418     79419
     79418     79420     79419     79420     79421     79422     79421     79423
     79422     79423     79424     79425     79424     79426     79425     79426
     79427     79428     79427     79429     79428     79429     79430     79431
     79430     79432     79431     79432     79433     79434     79433     79435
     79434     79435     79436     79437     79436     79438     79437     79438
     79439     79440     79439     79441     79440     79441     79442     79443
     79442     79444     79443     79444     79445     79446     79445     79447
     79446     79447     79448     79449     79448     79450     79449     79450
     79451     79452     79451     79453     79452     79453     79454     79455
     79454     79456     79455     79456     79457     79458     79457     79459
     79458     79459     79460     79461     79460     79462     79461     79462
     79463     79464     79463     79465     79464     79465     79466     79467
     79466     79468     79467     79468     79469     79470     79469     79471
     79470     79471     79472     79473     79472     79474     79473     79474
     79475     79476     79475     79477     79476     79477     79478     79479
     79478     79480     79479     79480     79481     79482     79481     79483
     79482     79483     79484     79485     79484     79486     79485     79486
     79487     79488     79487     79489     79488     79489     79490     79491
     79490     79492     79491     79492     79493     79494     79493     79495
     79494     79495     79496     79497     79496     79498     79497     79498
     79499     79500     79499     79501     79500     79501     79502     79503
     79502     79504     79503     79504     79505     79506     79505     79507
     79506     79507     79508     79509     79508     79510     79509     79510
     79511     79512     79511     79513     79512     79513     79514     79515
     79514     79516     79515     79516     79517     79518     79517     79519
     79518     79519     79520     79521     79520     79522     79521     79522
     79523     79524     79523     79525     79524     79525     79526     79527
     79526     79528     79527     79528     79529     79530     79529     79531
     79530     79531     79532     79533     79532     79534     79533     79534
     79535     79536     79535     79537     79536     79537     79538     79539
     79538     79540     79539     79540     79541     79542     79541     79543
     79542     79543     79544     79545     79544     79546     79545     79546
     79547     79548     79547     79549     79548     79549     79550     79551
     79550     79552     79551     79552     79553     79554     79553     79555
     79554     79555     79556     79557     79556     79558     79557     79558
     79559     79560     79559     79561     79560     79561     79562     79563
     79562     79564     79563     79564     79565     79566     79565     79567
     79566     79567     79568     79569     79568     79570     79569     79570
     79571     79572     79571     79573     79572     79573     79574     79575
     79574     79576     79575     79576     79577     79578     79577     79579
     79578     79579     79580     79581     79580     79582     79581     79582
     79583     79584     79583     79585     79584     79585     79586     79587
     79586     79588     79587     79588     79589     79590     79589     79591
     79590     79591     79592     79593     79592     79594     79593     79594
     79595     79596     79595     79597     79596     79597     79598     79599
     79598     79600     79599     79600     79601     79602     79601     79603
     79602     79603     79604     79605     79604     79606     79605     79606
     79607     79608     79607     79609     79608     79609     79610     79611
     79610     79612     79611     79612     79613     79614     79613     79615
     79614     79615     79616     79617     79616     79618     79617     79618
     79619     79620     79619     79621     79620     79621     79622     79623
     79622     79624     79623     79624     79625     79626     79625     79627
     79626     79627     79628     79629     79628     79630     79629     79630
     79631     79632     79631     79633     79632     79633     79634     79635
     79634     79636     79635     79636     79637     79638     79637     79639
     79638     79639     79640     79641     79640     79642     79641     79642
     79643     79644     79643     79645     79644     79645     79646     79647
     79646     79648     79647     79648     79649     79650     79649     79651
     79650     79651     79652     79653     79652     79654     79653     79654
     79655     79656     79655     79657     79656     79657     79658     79659
     79658     79660     79659     79660     79661     79662     79661     79663
     79662     79663     79664     79665     79664     79666     79665     79666
     79667     79668     79667     79669     79668     79669     79670     79671
     79670     79672     79671     79672     79673     79674     79673     79675
     79674     79675     79676     79677     79676     79678     79677     79678
     79679     79680     79679     79681     79680     79681     79682     79683
     79682     79684     79683     79684     79685     79686     79685     79687
     79686     79687     79688     79689     79688     79690     79689     79690
     79691     79692     79691     79693     79692     79693     79694     79695
     79694     79696     79695     79696     79697     79698     79697     79699
     79698     79699     79700     79701     79700     79702     79701     79702
     79703     79704     79703     79705     79704     79705     79706     79707
     79706     79708     79707     79708     79709     79710     79709     79711
     79710     79711     79712     79713     79712     79714     79713     79714
     79715     79716     79715     79717     79716     79717     79718     79719
     79718     79720     79719     79720     79721     79722     79721     79723
     79722     79723     79724     79725     79724     79726     79725     79726
     79727     79728     79727     79729     79728     79729     79730     79731
     79730     79732     79731     79732     79733     79734     79733     79735
     79734     79735     79736     79737     79736     79738     79737     79738
     79739     79740     79739     79741     79740     79741     79742     79743
     79742     79744     79743     79744     79745     79746     79745     79747
     79746     79747     79748     79749     79748     79750     79749     79750
     79751     79752     79751     79753     79752     79753     79754     79755
     79754     79756     79755     79756     79757     79758     79757     79759
     79758     79759     79760     79761     79760     79762     79761     79762
     79763     79764     79763     79765     79764     79765     79766     79767
     79766     79768     79767     79768     79769     79770     79769     79771
     79770     79771     79772     79773     79772     79774     79773     79774
     79775     79776     79775     79777     79776     79777     79778     79779
     79778     79780     79779     79780     79781     79782     79781     79783
     79782     79783     79784     79785     79784     79786     79785     79786
     79787     79788     79787     79789     79788     79789     79790     79791
     79790     79792     79791     79792     79793     79794     79793     79795
     79794     79795     79796     79797     79796     79798     79797     79798
     79799     79800     79799     79801     79800     79801     79802     79803
     79802     79804     79803     79804     79805     79806     79805     79807
     79806     79807     79808     79809     79808     79810     79809     79810
     79811     79812     79811     79813     79812     79813     79814     79815
     79814     79816     79815     79816     79817     79818     79817     79819
     79818     79819     79820     79821     79820     79822     79821     79822
     79823     79824     79823     79825     79824     79825     79826     79827
     79826     79828     79827     79828     79829     79830     79829     79831
     79830     79831     79832     79833     79832     79834     79833     79834
     79835     79836     79835     79837     79836     79837     79838     79839
     79838     79840     79839     79840     79841     79842     79841     79843
     79842     79843     79844     79845     79844     79846     79845     79846
     79847     79848     79847     79849     79848     79849     79850     79851
     79850     79852     79851     79852     79853     79854     79853     79855
     79854     79855     79856     79857     79856     79858     79857     79858
     79859     79860     79859     79861     79860     79861     79862     79863
     79862     79864     79863     79864     79865     79866     79865     79867
     79866     79867     79868     79869     79868     79870     79869     79870
     79871     79872     79871     79873     79872     79873     79874     79875
     79874     79876     79875     79876     79877     79878     79877     79879
     79878     79879     79880     79881     79880     79882     79881     79882
     79883     79884     79883     79885     79884     79885     79886     79887
     79886     79888     79887     79888     79889     79890     79889     79891
     79890     79891     79892     79893     79892     79894     79893     79894
     79895     79896     79895     79897     79896     79897     79898     79899
     79898     79900     79899     79900     79901     79902     79901     79903
     79902     79903     79904     79905     79904     79906     79905     79906
     79907     79908     79907     79909     79908     79909     79910     79911
     79910     79912     79911     79912     79913     79914     79913     79915
     79914     79915     79916     79917     79916     79918     79917     79918
     79919     79920     79919     79921     79920     79921     79922     79923
     79922     79924     79923     79924     79925     79926     79925     79927
     79926     79927     79928     79929     79928     79930     79929     79930
     79931     79932     79931     79933     79932     79933     79934     79935
     79934     79936     79935     79936     79937     79938     79937     79939
     79938     79939     79940     79941     79940     79942     79941     79942
     79943     79944     79943     79945     79944     79945     79946     79947
     79946     79948     79947     79948     79949     79950     79949     79951
     79950     79951     79952     79953     79952     79954     79953     79954
     79955     79956     79955     79957     79956     79957     79958     79959
     79958     79960     79959     79960     79961     79962     79961     79963
     79962     79963     79964     79965     79964     79966     79965     79966
     79967     79968     79967     79969     79968     79969     79970     79971
     79970     79972     79971     79972     79973     79974     79973     79975
     79974     79975     79976     79977     79976     79978     79977     79978
     79979     79980     79979     79981     79980     79981     79982     79983
     79982     79984     79983     79984     79985     79986     79985     79987
     79986     79987     79988     79989     79988     79990     79989     79990
     79991     79992     79991     79993     79992     79993     79994     79995
     79994     79996     79995     79996     79997     79998     79997     79999
     79998     79999     80000     80001     80000     80002     80001     80002
     80003     80004     80003     80005     80004     80005     80006     80007
     80006     80008     80007     80008     80009     80010     80009     80011
     80010     80011     80012     80013     80012     80014     80013     80014
     80015     80016     80015     80017     80016     80017     80018     80019
     80018     80020     80019     80020     80021     80022     80021     80023
     80022     80023     80024     80025     80024     80026     80025     80026
     80027     80028     80027     80029     80028     80029     80030     80031
     80030     80032     80031     80032     80033     80034     80033     80035
     80034     80035     80036     80037     80036     80038     80037     80038
     80039     80040     80039     80041     80040     80041     80042     80043
     80042     80044     80043     80044     80045     80046     80045     80047
     80046     80047     80048     80049     80048     80050     80049     80050
     80051     80052     80051     80053     80052     80053     80054     80055
     80054     80056     80055     80056     80057     80058     80057     80059
     80058     80059     80060     80061     80060     80062     80061     80062
     80063     80064     80063     80065     80064     80065     80066     80067
     80066     80068     80067     80068     80069     80070     80069     80071
     80070     80071     80072     80073     80072     80074     80073     80074
     80075     80076     80075     80077     80076     80077     80078     80079
     80078     80080     80079     80080     80081     80082     80081     80083
     80082     80083     80084     80085     80084     80086     80085     80086
     80087     80088     80087     80089     80088     80089     80090     80091
     80090     80092     80091     80092     80093     80094     80093     80095
     80094     80095     80096     80097     80096     80098     80097     80098
     80099     80100     80099     80101     80100     80101     80102     80103
     80102     80104     80103     80104     80105     80106     80105     80107
     80106     80107     80108     80109     80108     80110     80109     80110
     80111     80112     80111     80113     80112     80113     80114     80115
     80114     80116     80115     80116     80117     80118     80117     80119
     80118     80119     80120     80121     80120     80122     80121     80122
     80123     80124     80123     80125     80124     80125     80126     80127
     80126     80128     80127     80128     80129     80130     80129     80131
     80130     80131     80132     80133     80132     80134     80133     80134
     80135     80136     80135     80137     80136     80137     80138     80139
     80138     80140     80139     80140     80141     80142     80141     80143
     80142     80143     80144     80145     80144     80146     80145     80146
     80147     80148     80147     80149     80148     80149     80150     80151
     80150     80152     80151     80152     80153     80154     80153     80155
     80154     80155     80156     80157     80156     80158     80157     80158
     80159     80160     80159     80161     80160     80161     80162     80163
     80162     80164     80163     80164     80165     80166     80165     80167
     80166     80167     80168     80169     80168     80170     80169     80170
     80171     80172     80171     80173     80172     80173     80174     80175
     80174     80176     80175     80176     80177     80178     80177     80179
     80178     80179     80180     80181     80180     80182     80181     80182
     80183     80184     80183     80185     80184     80185     80186     80187
     80186     80188     80187     80188     80189     80190     80189     80191
     80190     80191     80192     80193     80192     80194     80193     80194
     80195     80196     80195     80197     80196     80197     80198     80199
     80198     80200     80199     80200     80201     80202     80201     80203
     80202     80203     80204     80205     80204     80206     80205     80206
     80207     80208     80207     80209     80208     80209     80210     80211
     80210     80212     80211     80212     80213     80214     80213     80215
     80214     80215     80216     80217     80216     80218     80217     80218
     80219     80220     80219     80221     80220     80221     80222     80223
     80222     80224     80223     80224     80225     80226     80225     80227
     80226     80227     80228     80229     80228     80230     80229     80230
     80231     80232     80231     80233     80232     80233     80234     80235
     80234     80236     80235     80236     80237     80238     80237     80239
     80238     80239     80240     80241     80240     80242     80241     80242
     80243     80244     80243     80245     80244     80245     80246     80247
     80246     80248     80247     80248     80249     80250     80249     80251
     80250     80251     80252     80253     80252     80254     80253     80254
     80255     80256     80255     80257     80256     80257     80258     80259
     80258     80260     80259     80260     80261     80262     80261     80263
     80262     80263     80264     80265     80264     80266     80265     80266
     80267     80268     80267     80269     80268     80269     80270     80271
     80270     80272     80271     80272     80273     80274     80273     80275
     80274     80275     80276     80277     80276     80278     80277     80278
     80279     80280     80279     80281     80280     80281     80282     80283
     80282     80284     80283     80284     80285     80286     80285     80287
     80286     80287     80288     80289     80288     80290     80289     80290
     80291     80292     80291     80293     80292     80293     80294     80295
     80294     80296     80295     80296     80297     80298     80297     80299
     80298     80299     80300     80301     80300     80302     80301     80302
     80303     80304     80303     80305     80304     80305     80306     80307
     80306     80308     80307     80308     80309     80310     80309     80311
     80310     80311     80312     80313     80312     80314     80313     80314
     80315     80316     80315     80317     80316     80317     80318     80319
     80318     80320     80319     80320     80321     80322     80321     80323
     80322     80323     80324     80325     80324     80326     80325     80326
     80327     80328     80327     80329     80328     80329     80330     80331
     80330     80332     80331     80332     80333     80334     80333     80335
     80334     80335     80336     80337     80336     80338     80337     80338
     80339     80340     80339     80341     80340     80341     80342     80343
     80342     80344     80343     80344     80345     80346     80345     80347
     80346     80347     80348     80349     80348     80350     80349     80350
     80351     80352     80351     80353     80352     80353     80354     80355
     80354     80356     80355     80356     80357     80358     80357     80359
     80358     80359     80360     80361     80360     80362     80361     80362
     80363     80364     80363     80365     80364     80365     80366     80367
     80366     80368     80367     80368     80369     80370     80369     80371
     80370     80371     80372     80373     80372     80374     80373     80374
     80375     80376     80375     80377     80376     80377     80378     80379
     80378     80380     80379     80380     80381     80382     80381     80383
     80382     80383     80384     80385     80384     80386     80385     80386
     80387     80388     80387     80389     80388     80389     80390     80391
     80390     80392     80391     80392     80393     80394     80393     80395
     80394     80395     80396     80397     80396     80398     80397     80398
     80399     80400     80399     80401     80400     80401     80402     80403
     80402     80404     80403     80404     80405     80406     80405     80407
     80406     80407     80408     80409     80408     80410     80409     80410
     80411     80412     80411     80413     80412     80413     80414     80415
     80414     80416     80415     80416     80417     80418     80417     80419
     80418     80419     80420     80421     80420     80422     80421     80422
     80423     80424     80423     80425     80424     80425     80426     80427
     80426     80428     80427     80428     80429     80430     80429     80431
     80430     80431     80432     80433     80432     80434     80433     80434
     80435     80436     80435     80437     80436     80437     80438     80439
     80438     80440     80439     80440     80441     80442     80441     80443
     80442     80443     80444     80445     80444     80446     80445     80446
     80447     80448     80447     80449     80448     80449     80450     80451
     80450     80452     80451     80452     80453     80454     80453     80455
     80454     80455     80456     80457     80456     80458     80457     80458
     80459     80460     80459     80461     80460     80461     80462     80463
     80462     80464     80463     80464     80465     80466     80465     80467
     80466     80467     80468     80469     80468     80470     80469     80470
     80471     80472     80471     80473     80472     80473     80474     80475
     80474     80476     80475     80476     80477     80478     80477     80479
     80478     80479     80480     80481     80480     80482     80481     80482
     80483     80484     80483     80485     80484     80485     80486     80487
     80486     80488     80487     80488     80489     80490     80489     80491
     80490     80491     80492     80493     80492     80494     80493     80494
     80495     80496     80495     80497     80496     80497     80498     80499
     80498     80500     80499     80500     80501     80502     80501     80503
     80502     80503     80504     80505     80504     80506     80505     80506
     80507     80508     80507     80509     80508     80509     80510     80511
     80510     80512     80511     80512     80513     80514     80513     80515
     80514     80515     80516     80517     80516     80518     80517     80518
     80519     80520     80519     80521     80520     80521     80522     80523
     80522     80524     80523     80524     80525     80526     80525     80527
     80526     80527     80528     80529     80528     80530     80529     80530
     80531     80532     80531     80533     80532     80533     80534     80535
     80534     80536     80535     80536     80537     80538     80537     80539
     80538     80539     80540     80541     80540     80542     80541     80542
     80543     80544     80543     80545     80544     80545     80546     80547
     80546     80548     80547     80548     80549     80550     80549     80551
     80550     80551     80552     80553     80552     80554     80553     80554
     80555     80556     80555     80557     80556     80557     80558     80559
     80558     80560     80559     80560     80561     80562     80561     80563
     80562     80563     80564     80565     80564     80566     80565     80566
     80567     80568     80567     80569     80568     80569     80570     80571
     80570     80572     80571     80572     80573     80574     80573     80575
     80574     80575     80576     80577     80576     80578     80577     80578
     80579     80580     80579     80581     80580     80581     80582     80583
     80582     80584     80583     80584     80585     80586     80585     80587
     80586     80587     80588     80589     80588     80590     80589     80590
     80591     80592     80591     80593     80592     80593     80594     80595
     80594     80596     80595     80596     80597     80598     80597     80599
     80598     80599     80600     80601     80600     80602     80601     80602
     80603     80604     80603     80605     80604     80605     80606     80607
     80606     80608     80607     80608     80609     80610     80609     80611
     80610     80611     80612     80613     80612     80614     80613     80614
     80615     80616     80615     80617     80616     80617     80618     80619
     80618     80620     80619     80620     80621     80622     80621     80623
     80622     80623     80624     80625     80624     80626     80625     80626
     80627     80628     80627     80629     80628     80629     80630     80631
     80630     80632     80631     80632     80633     80634     80633     80635
     80634     80635     80636     80637     80636     80638     80637     80638
     80639     80640     80639     80641     80640     80641     80642     80643
     80642     80644     80643     80644     80645     80646     80645     80647
     80646     80647     80648     80649     80648     80650     80649     80650
     80651     80652     80651     80653     80652     80653     80654     80655
     80654     80656     80655     80656     80657     80658     80657     80659
     80658     80659     80660     80661     80660     80662     80661     80662
     80663     80664     80663     80665     80664     80665     80666     80667
     80666     80668     80667     80668     80669     80670     80669     80671
     80670     80671     80672     80673     80672     80674     80673     80674
     80675     80676     80675     80677     80676     80677     80678     80679
     80678     80680     80679     80680     80681     80682     80681     80683
     80682     80683     80684     80685     80684     80686     80685     80686
     80687     80688     80687     80689     80688     80689     80690     80691
     80690     80692     80691     80692     80693     80694     80693     80695
     80694     80695     80696     80697     80696     80698     80697     80698
     80699     80700     80699     80701     80700     80701     80702     80703
     80702     80704     80703     80704     80705     80706     80705     80707
     80706     80707     80708     80709     80708     80710     80709     80710
     80711     80712     80711     80713     80712     80713     80714     80715
     80714     80716     80715     80716     80717     80718     80717     80719
     80718     80719     80720     80721     80720     80722     80721     80722
     80723     80724     80723     80725     80724     80725     80726     80727
     80726     80728     80727     80728     80729     80730     80729     80731
     80730     80731     80732     80733     80732     80734     80733     80734
     80735     80736     80735     80737     80736     80737     80738     80739
     80738     80740     80739     80740     80741     80742     80741     80743
     80742     80743     80744     80745     80744     80746     80745     80746
     80747     80748     80747     80749     80748     80749     80750     80751
     80750     80752     80751     80752     80753     80754     80753     80755
     80754     80755     80756     80757     80756     80758     80757     80758
     80759     80760     80759     80761     80760     80761     80762     80763
     80762     80764     80763     80764     80765     80766     80765     80767
     80766     80767     80768     80769     80768     80770     80769     80770
     80771     80772     80771     80773     80772     80773     80774     80775
     80774     80776     80775     80776     80777     80778     80777     80779
     80778     80779     80780     80781     80780     80782     80781     80782
     80783     80784     80783     80785     80784     80785     80786     80787
     80786     80788     80787     80788     80789     80790     80789     80791
     80790     80791     80792     80793     80792     80794     80793     80794
     80795     80796     80795     80797     80796     80797     80798     80799
     80798     80800     80799     80800     80801     80802     80801     80803
     80802     80803     80804     80805     80804     80806     80805     80806
     80807     80808     80807     80809     80808     80809     80810     80811
     80810     80812     80811     80812     80813     80814     80813     80815
     80814     80815     80816     80817     80816     80818     80817     80818
     80819     80820     80819     80821     80820     80821     80822     80823
     80822     80824     80823     80824     80825     80826     80825     80827
     80826     80827     80828     80829     80828     80830     80829     80830
     80831     80832     80831     80833     80832     80833     80834     80835
     80834     80836     80835     80836     80837     80838     80837     80839
     80838     80839     80840     80841     80840     80842     80841     80842
     80843     80844     80843     80845     80844     80845     80846     80847
     80846     80848     80847     80848     80849     80850     80849     80851
     80850     80851     80852     80853     80852     80854     80853     80854
     80855     80856     80855     80857     80856     80857     80858     80859
     80858     80860     80859     80860     80861     80862     80861     80863
     80862     80863     80864     80865     80864     80866     80865     80866
     80867     80868     80867     80869     80868     80869     80870     80871
     80870     80872     80871     80872     80873     80874     80873     80875
     80874     80875     80876     80877     80876     80878     80877     80878
     80879     80880     80879     80881     80880     80881     80882     80883
     80882     80884     80883     80884     80885     80886     80885     80887
     80886     80887     80888     80889     80888     80890     80889     80890
     80891     80892     80891     80893     80892     80893     80894     80895
     80894     80896     80895     80896     80897     80898     80897     80899
     80898     80899     80900     80901     80900     80902     80901     80902
     80903     80904     80903     80905     80904     80905     80906     80907
     80906     80908     80907     80908     80909     80910     80909     80911
     80910     80911     80912     80913     80912     80914     80913     80914
     80915     80916     80915     80917     80916     80917     80918     80919
     80918     80920     80919     80920     80921     80922     80921     80923
     80922     80923     80924     80925     80924     80926     80925     80926
     80927     80928     80927     80929     80928     80929     80930     80931
     80930     80932     80931     80932     80933     80934     80933     80935
     80934     80935     80936     80937     80936     80938     80937     80938
     80939     80940     80939     80941     80940     80941     80942     80943
     80942     80944     80943     80944     80945     80946     80945     80947
     80946     80947     80948     80949     80948     80950     80949     80950
     80951     80952     80951     80953     80952     80953     80954     80955
     80954     80956     80955     80956     80957     80958     80957     80959
     80958     80959     80960     80961     80960     80962     80961     80962
     80963     80964     80963     80965     80964     80965     80966     80967
     80966     80968     80967     80968     80969     80970     80969     80971
     80970     80971     80972     80973     80972     80974     80973     80974
     80975     80976     80975     80977     80976     80977     80978     80979
     80978     80980     80979     80980     80981     80982     80981     80983
     80982     80983     80984     80985     80984     80986     80985     80986
     80987     80988     80987     80989     80988     80989     80990     80991
     80990     80992     80991     80992     80993     80994     80993     80995
     80994     80995     80996     80997     80996     80998     80997     80998
     80999     81000     80999     81001     81000     81001     81002     81003
     81002     81004     81003     81004     81005     81006     81005     81007
     81006     81007     81008     81009     81008     81010     81009     81010
     81011     81012     81011     81013     81012     81013     81014     81015
     81014     81016     81015     81016     81017     81018     81017     81019
     81018     81019     81020     81021     81020     81022     81021     81022
     81023     81024     81023     81025     81024     81025     81026     81027
     81026     81028     81027     81028     81029     81030     81029     81031
     81030     81031     81032     81033     81032     81034     81033     81034
     81035     81036     81035     81037     81036     81037     81038     81039
     81038     81040     81039     81040     81041     81042     81041     81043
     81042     81043     81044     81045     81044     81046     81045     81046
     81047     81048     81047     81049     81048     81049     81050     81051
     81050     81052     81051     81052     81053     81054     81053     81055
     81054     81055     81056     81057     81056     81058     81057     81058
     81059     81060     81059     81061     81060     81061     81062     81063
     81062     81064     81063     81064     81065     81066     81065     81067
     81066     81067     81068     81069     81068     81070     81069     81070
     81071     81072     81071     81073     81072     81073     81074     81075
     81074     81076     81075     81076     81077     81078     81077     81079
     81078     81079     81080     81081     81080     81082     81081     81082
     81083     81084     81083     81085     81084     81085     81086     81087
     81086     81088     81087     81088     81089     81090     81089     81091
     81090     81091     81092     81093     81092     81094     81093     81094
     81095     81096     81095     81097     81096     81097     81098     81099
     81098     81100     81099     81100     81101     81102     81101     81103
     81102     81103     81104     81105     81104     81106     81105     81106
     81107     81108     81107     81109     81108     81109     81110     81111
     81110     81112     81111     81112     81113     81114     81113     81115
     81114     81115     81116     81117     81116     81118     81117     81118
     81119     81120     81119     81121     81120     81121     81122     81123
     81122     81124     81123     81124     81125     81126     81125     81127
     81126     81127     81128     81129     81128     81130     81129     81130
     81131     81132     81131     81133     81132     81133     81134     81135
     81134     81136     81135     81136     81137     81138     81137     81139
     81138     81139     81140     81141     81140     81142     81141     81142
     81143     81144     81143     81145     81144     81145     81146     81147
     81146     81148     81147     81148     81149     81150     81149     81151
     81150     81151     81152     81153     81152     81154     81153     81154
     81155     81156     81155     81157     81156     81157     81158     81159
     81158     81160     81159     81160     81161     81162     81161     81163
     81162     81163     81164     81165     81164     81166     81165     81166
     81167     81168     81167     81169     81168     81169     81170     81171
     81170     81172     81171     81172     81173     81174     81173     81175
     81174     81175     81176     81177     81176     81178     81177     81178
     81179     81180     81179     81181     81180     81181     81182     81183
     81182     81184     81183     81184     81185     81186     81185     81187
     81186     81187     81188     81189     81188     81190     81189     81190
     81191     81192     81191     81193     81192     81193     81194     81195
     81194     81196     81195     81196     81197     81198     81197     81199
     81198     81199     81200     81201     81200     81202     81201     81202
     81203     81204     81203     81205     81204     81205     81206     81207
     81206     81208     81207     81208     81209     81210     81209     81211
     81210     81211     81212     81213     81212     81214     81213     81214
     81215     81216     81215     81217     81216     81217     81218     81219
     81218     81220     81219     81220     81221     81222     81221     81223
     81222     81223     81224     81225     81224     81226     81225     81226
     81227     81228     81227     81229     81228     81229     81230     81231
     81230     81232     81231     81232     81233     81234     81233     81235
     81234     81235     81236     81237     81236     81238     81237     81238
     81239     81240     81239     81241     81240     81241     81242     81243
     81242     81244     81243     81244     81245     81246     81245     81247
     81246     81247     81248     81249     81248     81250     81249     81250
     81251     81252     81251     81253     81252     81253     81254     81255
     81254     81256     81255     81256     81257     81258     81257     81259
     81258     81259     81260     81261     81260     81262     81261     81262
     81263     81264     81263     81265     81264     81265     81266     81267
     81266     81268     81267     81268     81269     81270     81269     81271
     81270     81271     81272     81273     81272     81274     81273     81274
     81275     81276     81275     81277     81276     81277     81278     81279
     81278     81280     81279     81280     81281     81282     81281     81283
     81282     81283     81284     81285     81284     81286     81285     81286
     81287     81288     81287     81289     81288     81289     81290     81291
     81290     81292     81291     81292     81293     81294     81293     81295
     81294     81295     81296     81297     81296     81298     81297     81298
     81299     81300     81299     81301     81300     81301     81302     81303
     81302     81304     81303     81304     81305     81306     81305     81307
     81306     81307     81308     81309     81308     81310     81309     81310
     81311     81312     81311     81313     81312     81313     81314     81315
     81314     81316     81315     81316     81317     81318     81317     81319
     81318     81319     81320     81321     81320     81322     81321     81322
     81323     81324     81323     81325     81324     81325     81326     81327
     81326     81328     81327     81328     81329     81330     81329     81331
     81330     81331     81332     81333     81332     81334     81333     81334
     81335     81336     81335     81337     81336     81337     81338     81339
     81338     81340     81339     81340     81341     81342     81341     81343
     81342     81343     81344     81345     81344     81346     81345     81346
     81347     81348     81347     81349     81348     81349     81350     81351
     81350     81352     81351     81352     81353     81354     81353     81355
     81354     81355     81356     81357     81356     81358     81357     81358
     81359     81360     81359     81361     81360     81361     81362     81363
     81362     81364     81363     81364     81365     81366     81365     81367
     81366     81367     81368     81369     81368     81370     81369     81370
     81371     81372     81371     81373     81372     81373     81374     81375
     81374     81376     81375     81376     81377     81378     81377     81379
     81378     81379     81380     81381     81380     81382     81381     81382
     81383     81384     81383     81385     81384     81385     81386     81387
     81386     81388     81387     81388     81389     81390     81389     81391
     81390     81391     81392     81393     81392     81394     81393     81394
     81395     81396     81395     81397     81396     81397     81398     81399
     81398     81400     81399     81400     81401     81402     81401     81403
     81402     81403     81404     81405     81404     81406     81405     81406
     81407     81408     81407     81409     81408     81409     81410     81411
     81410     81412     81411     81412     81413     81414     81413     81415
     81414     81415     81416     81417     81416     81418     81417     81418
     81419     81420     81419     81421     81420     81421     81422     81423
     81422     81424     81423     81424     81425     81426     81425     81427
     81426     81427     81428     81429     81428     81430     81429     81430
     81431     81432     81431     81433     81432     81433     81434     81435
     81434     81436     81435     81436     81437     81438     81437     81439
     81438     81439     81440     81441     81440     81442     81441     81442
     81443     81444     81443     81445     81444     81445     81446     81447
     81446     81448     81447     81448     81449     81450     81449     81451
     81450     81451     81452     81453     81452     81454     81453     81454
     81455     81456     81455     81457     81456     81457     81458     81459
     81458     81460     81459     81460     81461     81462     81461     81463
     81462     81463     81464     81465     81464     81466     81465     81466
     81467     81468     81467     81469     81468     81469     81470     81471
     81470     81472     81471     81472     81473     81474     81473     81475
     81474     81475     81476     81477     81476     81478     81477     81478
     81479     81480     81479     81481     81480     81481     81482     81483
     81482     81484     81483     81484     81485     81486     81485     81487
     81486     81487     81488     81489     81488     81490     81489     81490
     81491     81492     81491     81493     81492     81493     81494     81495
     81494     81496     81495     81496     81497     81498     81497     81499
     81498     81499     81500     81501     81500     81502     81501     81502
     81503     81504     81503     81505     81504     81505     81506     81507
     81506     81508     81507     81508     81509     81510     81509     81511
     81510     81511     81512     81513     81512     81514     81513     81514
     81515     81516     81515     81517     81516     81517     81518     81519
     81518     81520     81519     81520     81521     81522     81521     81523
     81522     81523     81524     81525     81524     81526     81525     81526
     81527     81528     81527     81529     81528     81529     81530     81531
     81530     81532     81531     81532     81533     81534     81533     81535
     81534     81535     81536     81537     81536     81538     81537     81538
     81539     81540     81539     81541     81540     81541     81542     81543
     81542     81544     81543     81544     81545     81546     81545     81547
     81546     81547     81548     81549     81548     81550     81549     81550
     81551     81552     81551     81553     81552     81553     81554     81555
     81554     81556     81555     81556     81557     81558     81557     81559
     81558     81559     81560     81561     81560     81562     81561     81562
     81563     81564     81563     81565     81564     81565     81566     81567
     81566     81568     81567     81568     81569     81570     81569     81571
     81570     81571     81572     81573     81572     81574     81573     81574
     81575     81576     81575     81577     81576     81577     81578     81579
     81578     81580     81579     81580     81581     81582     81581     81583
     81582     81583     81584     81585     81584     81586     81585     81586
     81587     81588     81587     81589     81588     81589     81590     81591
     81590     81592     81591     81592     81593     81594     81593     81595
     81594     81595     81596     81597     81596     81598     81597     81598
     81599     81600     81599     81601     81600     81601     81602     81603
     81602     81604     81603     81604     81605     81606     81605     81607
     81606     81607     81608     81609     81608     81610     81609     81610
     81611     81612     81611     81613     81612     81613     81614     81615
     81614     81616     81615     81616     81617     81618     81617     81619
     81618     81619     81620     81621     81620     81622     81621     81622
     81623     81624     81623     81625     81624     81625     81626     81627
     81626     81628     81627     81628     81629     81630     81629     81631
     81630     81631     81632     81633     81632     81634     81633     81634
     81635     81636     81635     81637     81636     81637     81638     81639
     81638     81640     81639     81640     81641     81642     81641     81643
     81642     81643     81644     81645     81644     81646     81645     81646
     81647     81648     81647     81649     81648     81649     81650     81651
     81650     81652     81651     81652     81653     81654     81653     81655
     81654     81655     81656     81657     81656     81658     81657     81658
     81659     81660     81659     81661     81660     81661     81662     81663
     81662     81664     81663     81664     81665     81666     81665     81667
     81666     81667     81668     81669     81668     81670     81669     81670
     81671     81672     81671     81673     81672     81673     81674     81675
     81674     81676     81675     81676     81677     81678     81677     81679
     81678     81679     81680     81681     81680     81682     81681     81682
     81683     81684     81683     81685     81684     81685     81686     81687
     81686     81688     81687     81688     81689     81690     81689     81691
     81690     81691     81692     81693     81692     81694     81693     81694
     81695     81696     81695     81697     81696     81697     81698     81699
     81698     81700     81699     81700     81701     81702     81701     81703
     81702     81703     81704     81705     81704     81706     81705     81706
     81707     81708     81707     81709     81708     81709     81710     81711
     81710     81712     81711     81712     81713     81714     81713     81715
     81714     81715     81716     81717     81716     81718     81717     81718
     81719     81720     81719     81721     81720     81721     81722     81723
     81722     81724     81723     81724     81725     81726     81725     81727
     81726     81727     81728     81729     81728     81730     81729     81730
     81731     81732     81731     81733     81732     81733     81734     81735
     81734     81736     81735     81736     81737     81738     81737     81739
     81738     81739     81740     81741     81740     81742     81741     81742
     81743     81744     81743     81745     81744     81745     81746     81747
     81746     81748     81747     81748     81749     81750     81749     81751
     81750     81751     81752     81753     81752     81754     81753     81754
     81755     81756     81755     81757     81756     81757     81758     81759
     81758     81760     81759     81760     81761     81762     81761     81763
     81762     81763     81764     81765     81764     81766     81765     81766
     81767     81768     81767     81769     81768     81769     81770     81771
     81770     81772     81771     81772     81773     81774     81773     81775
     81774     81775     81776     81777     81776     81778     81777     81778
     81779     81780     81779     81781     81780     81781     81782     81783
     81782     81784     81783     81784     81785     81786     81785     81787
     81786     81787     81788     81789     81788     81790     81789     81790
     81791     81792     81791     81793     81792     81793     81794     81795
     81794     81796     81795     81796     81797     81798     81797     81799
     81798     81799     81800     81801     81800     81802     81801     81802
     81803     81804     81803     81805     81804     81805     81806     81807
     81806     81808     81807     81808     81809     81810     81809     81811
     81810     81811     81812     81813     81812     81814     81813     81814
     81815     81816     81815     81817     81816     81817     81818     81819
     81818     81820     81819     81820     81821     81822     81821     81823
     81822     81823     81824     81825     81824     81826     81825     81826
     81827     81828     81827     81829     81828     81829     81830     81831
     81830     81832     81831     81832     81833     81834     81833     81835
     81834     81835     81836     81837     81836     81838     81837     81838
     81839     81840     81839     81841     81840     81841     81842     81843
     81842     81844     81843     81844     81845     81846     81845     81847
     81846     81847     81848     81849     81848     81850     81849     81850
     81851     81852     81851     81853     81852     81853     81854     81855
     81854     81856     81855     81856     81857     81858     81857     81859
     81858     81859     81860     81861     81860     81862     81861     81862
     81863     81864     81863     81865     81864     81865     81866     81867
     81866     81868     81867     81868     81869     81870     81869     81871
     81870     81871     81872     81873     81872     81874     81873     81874
     81875     81876     81875     81877     81876     81877     81878     81879
     81878     81880     81879     81880     81881     81882     81881     81883
     81882     81883     81884     81885     81884     81886     81885     81886
     81887     81888     81887     81889     81888     81889     81890     81891
     81890     81892     81891     81892     81893     81894     81893     81895
     81894     81895     81896     81897     81896     81898     81897     81898
     81899     81900     81899     81901     81900     81901     81902     81903
     81902     81904     81903     81904     81905     81906     81905     81907
     81906     81907     81908     81909     81908     81910     81909     81910
     81911     81912     81911     81913     81912     81913     81914     81915
     81914     81916     81915     81916     81917     81918     81917     81919
     81918     81919     81920     81921     81920     81922     81921     81922
     81923     81924     81923     81925     81924     81925     81926     81927
     81926     81928     81927     81928     81929     81930     81929     81931
     81930     81931     81932     81933     81932     81934     81933     81934
     81935     81936     81935     81937     81936     81937     81938     81939
     81938     81940     81939     81940     81941     81942     81941     81943
     81942     81943     81944     81945     81944     81946     81945     81946
     81947     81948     81947     81949     81948     81949     81950     81951
     81950     81952     81951     81952     81953     81954     81953     81955
     81954     81955     81956     81957     81956     81958     81957     81958
     81959     81960     81959     81961     81960     81961     81962     81963
     81962     81964     81963     81964     81965     81966     81965     81967
     81966     81967     81968     81969     81968     81970     81969     81970
     81971     81972     81971     81973     81972     81973     81974     81975
     81974     81976     81975     81976     81977     81978     81977     81979
     81978     81979     81980     81981     81980     81982     81981     81982
     81983     81984     81983     81985     81984     81985     81986     81987
     81986     81988     81987     81988     81989     81990     81989     81991
     81990     81991     81992     81993     81992     81994     81993     81994
     81995     81996     81995     81997     81996     81997     81998     81999
     81998     82000     81999     82000     82001     82002     82001     82003
     82002     82003     82004     82005     82004     82006     82005     82006
     82007     82008     82007     82009     82008     82009     82010     82011
     82010     82012     82011     82012     82013     82014     82013     82015
     82014     82015     82016     82017     82016     82018     82017     82018
     82019     82020     82019     82021     82020     82021     82022     82023
     82022     82024     82023     82024     82025     82026     82025     82027
     82026     82027     82028     82029     82028     82030     82029     82030
     82031     82032     82031     82033     82032     82033     82034     82035
     82034     82036     82035     82036     82037     82038     82037     82039
     82038     82039     82040     82041     82040     82042     82041     82042
     82043     82044     82043     82045     82044     82045     82046     82047
     82046     82048     82047     82048     82049     82050     82049     82051
     82050     82051     82052     82053     82052     82054     82053     82054
     82055     82056     82055     82057     82056     82057     82058     82059
     82058     82060     82059     82060     82061     82062     82061     82063
     82062     82063     82064     82065     82064     82066     82065     82066
     82067     82068     82067     82069     82068     82069     82070     82071
     82070     82072     82071     82072     82073     82074     82073     82075
     82074     82075     82076     82077     82076     82078     82077     82078
     82079     82080     82079     82081     82080     82081     82082     82083
     82082     82084     82083     82084     82085     82086     82085     82087
     82086     82087     82088     82089     82088     82090     82089     82090
     82091     82092     82091     82093     82092     82093     82094     82095
     82094     82096     82095     82096     82097     82098     82097     82099
     82098     82099     82100     82101     82100     82102     82101     82102
     82103     82104     82103     82105     82104     82105     82106     82107
     82106     82108     82107     82108     82109     82110     82109     82111
     82110     82111     82112     82113     82112     82114     82113     82114
     82115     82116     82115     82117     82116     82117     82118     82119
     82118     82120     82119     82120     82121     82122     82121     82123
     82122     82123     82124     82125     82124     82126     82125     82126
     82127     82128     82127     82129     82128     82129     82130     82131
     82130     82132     82131     82132     82133     82134     82133     82135
     82134     82135     82136     82137     82136     82138     82137     82138
     82139     82140     82139     82141     82140     82141     82142     82143
     82142     82144     82143     82144     82145     82146     82145     82147
     82146     82147     82148     82149     82148     82150     82149     82150
     82151     82152     82151     82153     82152     82153     82154     82155
     82154     82156     82155     82156     82157     82158     82157     82159
     82158     82159     82160     82161     82160     82162     82161     82162
     82163     82164     82163     82165     82164     82165     82166     82167
     82166     82168     82167     82168     82169     82170     82169     82171
     82170     82171     82172     82173     82172     82174     82173     82174
     82175     82176     82175     82177     82176     82177     82178     82179
     82178     82180     82179     82180     82181     82182     82181     82183
     82182     82183     82184     82185     82184     82186     82185     82186
     82187     82188     82187     82189     82188     82189     82190     82191
     82190     82192     82191     82192     82193     82194     82193     82195
     82194     82195     82196     82197     82196     82198     82197     82198
     82199     82200     82199     82201     82200     82201     82202     82203
     82202     82204     82203     82204     82205     82206     82205     82207
     82206     82207     82208     82209     82208     82210     82209     82210
     82211     82212     82211     82213     82212     82213     82214     82215
     82214     82216     82215     82216     82217     82218     82217     82219
     82218     82219     82220     82221     82220     82222     82221     82222
     82223     82224     82223     82225     82224     82225     82226     82227
     82226     82228     82227     82228     82229     82230     82229     82231
     82230     82231     82232     82233     82232     82234     82233     82234
     82235     82236     82235     82237     82236     82237     82238     82239
     82238     82240     82239     82240     82241     82242     82241     82243
     82242     82243     82244     82245     82244     82246     82245     82246
     82247     82248     82247     82249     82248     82249     82250     82251
     82250     82252     82251     82252     82253     82254     82253     82255
     82254     82255     82256     82257     82256     82258     82257     82258
     82259     82260     82259     82261     82260     82261     82262     82263
     82262     82264     82263     82264     82265     82266     82265     82267
     82266     82267     82268     82269     82268     82270     82269     82270
     82271     82272     82271     82273     82272     82273     82274     82275
     82274     82276     82275     82276     82277     82278     82277     82279
     82278     82279     82280     82281     82280     82282     82281     82282
     82283     82284     82283     82285     82284     82285     82286     82287
     82286     82288     82287     82288     82289     82290     82289     82291
     82290     82291     82292     82293     82292     82294     82293     82294
     82295     82296     82295     82297     82296     82297     82298     82299
     82298     82300     82299     82300     82301     82302     82301     82303
     82302     82303     82304     82305     82304     82306     82305     82306
     82307     82308     82307     82309     82308     82309     82310     82311
     82310     82312     82311     82312     82313     82314     82313     82315
     82314     82315     82316     82317     82316     82318     82317     82318
     82319     82320     82319     82321     82320     82321     82322     82323
     82322     82324     82323     82324     82325     82326     82325     82327
     82326     82327     82328     82329     82328     82330     82329     82330
     82331     82332     82331     82333     82332     82333     82334     82335
     82334     82336     82335     82336     82337     82338     82337     82339
     82338     82339     82340     82341     82340     82342     82341     82342
     82343     82344     82343     82345     82344     82345     82346     82347
     82346     82348     82347     82348     82349     82350     82349     82351
     82350     82351     82352     82353     82352     82354     82353     82354
     82355     82356     82355     82357     82356     82357     82358     82359
     82358     82360     82359     82360     82361     82362     82361     82363
     82362     82363     82364     82365     82364     82366     82365     82366
     82367     82368     82367     82369     82368     82369     82370     82371
     82370     82372     82371     82372     82373     82374     82373     82375
     82374     82375     82376     82377     82376     82378     82377     82378
     82379     82380     82379     82381     82380     82381     82382     82383
     82382     82384     82383     82384     82385     82386     82385     82387
     82386     82387     82388     82389     82388     82390     82389     82390
     82391     82392     82391     82393     82392     82393     82394     82395
     82394     82396     82395     82396     82397     82398     82397     82399
     82398     82399     82400     82401     82400     82402     82401     82402
     82403     82404     82403     82405     82404     82405     82406     82407
     82406     82408     82407     82408     82409     82410     82409     82411
     82410     82411     82412     82413     82412     82414     82413     82414
     82415     82416     82415     82417     82416     82417     82418     82419
     82418     82420     82419     82420     82421     82422     82421     82423
     82422     82423     82424     82425     82424     82426     82425     82426
     82427     82428     82427     82429     82428     82429     82430     82431
     82430     82432     82431     82432     82433     82434     82433     82435
     82434     82435     82436     82437     82436     82438     82437     82438
     82439     82440     82439     82441     82440     82441     82442     82443
     82442     82444     82443     82444     82445     82446     82445     82447
     82446     82447     82448     82449     82448     82450     82449     82450
     82451     82452     82451     82453     82452     82453     82454     82455
     82454     82456     82455     82456     82457     82458     82457     82459
     82458     82459     82460     82461     82460     82462     82461     82462
     82463     82464     82463     82465     82464     82465     82466     82467
     82466     82468     82467     82468     82469     82470     82469     82471
     82470     82471     82472     82473     82472     82474     82473     82474
     82475     82476     82475     82477     82476     82477     82478     82479
     82478     82480     82479     82480     82481     82482     82481     82483
     82482     82483     82484     82485     82484     82486     82485     82486
     82487     82488     82487     82489     82488     82489     82490     82491
     82490     82492     82491     82492     82493     82494     82493     82495
     82494     82495     82496     82497     82496     82498     82497     82498
     82499     82500     82499     82501     82500     82501     82502     82503
     82502     82504     82503     82504     82505     82506     82505     82507
     82506     82507     82508     82509     82508     82510     82509     82510
     82511     82512     82511     82513     82512     82513     82514     82515
     82514     82516     82515     82516     82517     82518     82517     82519
     82518     82519     82520     82521     82520     82522     82521     82522
     82523     82524     82523     82525     82524     82525     82526     82527
     82526     82528     82527     82528     82529     82530     82529     82531
     82530     82531     82532     82533     82532     82534     82533     82534
     82535     82536     82535     82537     82536     82537     82538     82539
     82538     82540     82539     82540     82541     82542     82541     82543
     82542     82543     82544     82545     82544     82546     82545     82546
     82547     82548     82547     82549     82548     82549     82550     82551
     82550     82552     82551     82552     82553     82554     82553     82555
     82554     82555     82556     82557     82556     82558     82557     82558
     82559     82560     82559     82561     82560     82561     82562     82563
     82562     82564     82563     82564     82565     82566     82565     82567
     82566     82567     82568     82569     82568     82570     82569     82570
     82571     82572     82571     82573     82572     82573     82574     82575
     82574     82576     82575     82576     82577     82578     82577     82579
     82578     82579     82580     82581     82580     82582     82581     82582
     82583     82584     82583     82585     82584     82585     82586     82587
     82586     82588     82587     82588     82589     82590     82589     82591
     82590     82591     82592     82593     82592     82594     82593     82594
     82595     82596     82595     82597     82596     82597     82598     82599
     82598     82600     82599     82600     82601     82602     82601     82603
     82602     82603     82604     82605     82604     82606     82605     82606
     82607     82608     82607     82609     82608     82609     82610     82611
     82610     82612     82611     82612     82613     82614     82613     82615
     82614     82615     82616     82617     82616     82618     82617     82618
     82619     82620     82619     82621     82620     82621     82622     82623
     82622     82624     82623     82624     82625     82626     82625     82627
     82626     82627     82628     82629     82628     82630     82629     82630
     82631     82632     82631     82633     82632     82633     82634     82635
     82634     82636     82635     82636     82637     82638     82637     82639
     82638     82639     82640     82641     82640     82642     82641     82642
     82643     82644     82643     82645     82644     82645     82646     82647
     82646     82648     82647     82648     82649     82650     82649     82651
     82650     82651     82652     82653     82652     82654     82653     82654
     82655     82656     82655     82657     82656     82657     82658     82659
     82658     82660     82659     82660     82661     82662     82661     82663
     82662     82663     82664     82665     82664     82666     82665     82666
     82667     82668     82667     82669     82668     82669     82670     82671
     82670     82672     82671     82672     82673     82674     82673     82675
     82674     82675     82676     82677     82676     82678     82677     82678
     82679     82680     82679     82681     82680     82681     82682     82683
     82682     82684     82683     82684     82685     82686     82685     82687
     82686     82687     82688     82689     82688     82690     82689     82690
     82691     82692     82691     82693     82692     82693     82694     82695
     82694     82696     82695     82696     82697     82698     82697     82699
     82698     82699     82700     82701     82700     82702     82701     82702
     82703     82704     82703     82705     82704     82705     82706     82707
     82706     82708     82707     82708     82709     82710     82709     82711
     82710     82711     82712     82713     82712     82714     82713     82714
     82715     82716     82715     82717     82716     82717     82718     82719
     82718     82720     82719     82720     82721     82722     82721     82723
     82722     82723     82724     82725     82724     82726     82725     82726
     82727     82728     82727     82729     82728     82729     82730     82731
     82730     82732     82731     82732     82733     82734     82733     82735
     82734     82735     82736     82737     82736     82738     82737     82738
     82739     82740     82739     82741     82740     82741     82742     82743
     82742     82744     82743     82744     82745     82746     82745     82747
     82746     82747     82748     82749     82748     82750     82749     82750
     82751     82752     82751     82753     82752     82753     82754     82755
     82754     82756     82755     82756     82757     82758     82757     82759
     82758     82759     82760     82761     82760     82762     82761     82762
     82763     82764     82763     82765     82764     82765     82766     82767
     82766     82768     82767     82768     82769     82770     82769     82771
     82770     82771     82772     82773     82772     82774     82773     82774
     82775     82776     82775     82777     82776     82777     82778     82779
     82778     82780     82779     82780     82781     82782     82781     82783
     82782     82783     82784     82785     82784     82786     82785     82786
     82787     82788     82787     82789     82788     82789     82790     82791
     82790     82792     82791     82792     82793     82794     82793     82795
     82794     82795     82796     82797     82796     82798     82797     82798
     82799     82800     82799     82801     82800     82801     82802     82803
     82802     82804     82803     82804     82805     82806     82805     82807
     82806     82807     82808     82809     82808     82810     82809     82810
     82811     82812     82811     82813     82812     82813     82814     82815
     82814     82816     82815     82816     82817     82818     82817     82819
     82818     82819     82820     82821     82820     82822     82821     82822
     82823     82824     82823     82825     82824     82825     82826     82827
     82826     82828     82827     82828     82829     82830     82829     82831
     82830     82831     82832     82833     82832     82834     82833     82834
     82835     82836     82835     82837     82836     82837     82838     82839
     82838     82840     82839     82840     82841     82842     82841     82843
     82842     82843     82844     82845     82844     82846     82845     82846
     82847     82848     82847     82849     82848     82849     82850     82851
     82850     82852     82851     82852     82853     82854     82853     82855
     82854     82855     82856     82857     82856     82858     82857     82858
     82859     82860     82859     82861     82860     82861     82862     82863
     82862     82864     82863     82864     82865     82866     82865     82867
     82866     82867     82868     82869     82868     82870     82869     82870
     82871     82872     82871     82873     82872     82873     82874     82875
     82874     82876     82875     82876     82877     82878     82877     82879
     82878     82879     82880     82881     82880     82882     82881     82882
     82883     82884     82883     82885     82884     82885     82886     82887
     82886     82888     82887     82888     82889     82890     82889     82891
     82890     82891     82892     82893     82892     82894     82893     82894
     82895     82896     82895     82897     82896     82897     82898     82899
     82898     82900     82899     82900     82901     82902     82901     82903
     82902     82903     82904     82905     82904     82906     82905     82906
     82907     82908     82907     82909     82908     82909     82910     82911
     82910     82912     82911     82912     82913     82914     82913     82915
     82914     82915     82916     82917     82916     82918     82917     82918
     82919     82920     82919     82921     82920     82921     82922     82923
     82922     82924     82923     82924     82925     82926     82925     82927
     82926     82927     82928     82929     82928     82930     82929     82930
     82931     82932     82931     82933     82932     82933     82934     82935
     82934     82936     82935     82936     82937     82938     82937     82939
     82938     82939     82940     82941     82940     82942     82941     82942
     82943     82944     82943     82945     82944     82945     82946     82947
     82946     82948     82947     82948     82949     82950     82949     82951
     82950     82951     82952     82953     82952     82954     82953     82954
     82955     82956     82955     82957     82956     82957     82958     82959
     82958     82960     82959     82960     82961     82962     82961     82963
     82962     82963     82964     82965     82964     82966     82965     82966
     82967     82968     82967     82969     82968     82969     82970     82971
     82970     82972     82971     82972     82973     82974     82973     82975
     82974     82975     82976     82977     82976     82978     82977     82978
     82979     82980     82979     82981     82980     82981     82982     82983
     82982     82984     82983     82984     82985     82986     82985     82987
     82986     82987     82988     82989     82988     82990     82989     82990
     82991     82992     82991     82993     82992     82993     82994     82995
     82994     82996     82995     82996     82997     82998     82997     82999
     82998     82999     83000     83001     83000     83002     83001     83002
     83003     83004     83003     83005     83004     83005     83006     83007
     83006     83008     83007     83008     83009     83010     83009     83011
     83010     83011     83012     83013     83012     83014     83013     83014
     83015     83016     83015     83017     83016     83017     83018     83019
     83018     83020     83019     83020     83021     83022     83021     83023
     83022     83023     83024     83025     83024     83026     83025     83026
     83027     83028     83027     83029     83028     83029     83030     83031
     83030     83032     83031     83032     83033     83034     83033     83035
     83034     83035     83036     83037     83036     83038     83037     83038
     83039     83040     83039     83041     83040     83041     83042     83043
     83042     83044     83043     83044     83045     83046     83045     83047
     83046     83047     83048     83049     83048     83050     83049     83050
     83051     83052     83051     83053     83052     83053     83054     83055
     83054     83056     83055     83056     83057     83058     83057     83059
     83058     83059     83060     83061     83060     83062     83061     83062
     83063     83064     83063     83065     83064     83065     83066     83067
     83066     83068     83067     83068     83069     83070     83069     83071
     83070     83071     83072     83073     83072     83074     83073     83074
     83075     83076     83075     83077     83076     83077     83078     83079
     83078     83080     83079     83080     83081     83082     83081     83083
     83082     83083     83084     83085     83084     83086     83085     83086
     83087     83088     83087     83089     83088     83089     83090     83091
     83090     83092     83091     83092     83093     83094     83093     83095
     83094     83095     83096     83097     83096     83098     83097     83098
     83099     83100     83099     83101     83100     83101     83102     83103
     83102     83104     83103     83104     83105     83106     83105     83107
     83106     83107     83108     83109     83108     83110     83109     83110
     83111     83112     83111     83113     83112     83113     83114     83115
     83114     83116     83115     83116     83117     83118     83117     83119
     83118     83119     83120     83121     83120     83122     83121     83122
     83123     83124     83123     83125     83124     83125     83126     83127
     83126     83128     83127     83128     83129     83130     83129     83131
     83130     83131     83132     83133     83132     83134     83133     83134
     83135     83136     83135     83137     83136     83137     83138     83139
     83138     83140     83139     83140     83141     83142     83141     83143
     83142     83143     83144     83145     83144     83146     83145     83146
     83147     83148     83147     83149     83148     83149     83150     83151
     83150     83152     83151     83152     83153     83154     83153     83155
     83154     83155     83156     83157     83156     83158     83157     83158
     83159     83160     83159     83161     83160     83161     83162     83163
     83162     83164     83163     83164     83165     83166     83165     83167
     83166     83167     83168     83169     83168     83170     83169     83170
     83171     83172     83171     83173     83172     83173     83174     83175
     83174     83176     83175     83176     83177     83178     83177     83179
     83178     83179     83180     83181     83180     83182     83181     83182
     83183     83184     83183     83185     83184     83185     83186     83187
     83186     83188     83187     83188     83189     83190     83189     83191
     83190     83191     83192     83193     83192     83194     83193     83194
     83195     83196     83195     83197     83196     83197     83198     83199
     83198     83200     83199     83200     83201     83202     83201     83203
     83202     83203     83204     83205     83204     83206     83205     83206
     83207     83208     83207     83209     83208     83209     83210     83211
     83210     83212     83211     83212     83213     83214     83213     83215
     83214     83215     83216     83217     83216     83218     83217     83218
     83219     83220     83219     83221     83220     83221     83222     83223
     83222     83224     83223     83224     83225     83226     83225     83227
     83226     83227     83228     83229     83228     83230     83229     83230
     83231     83232     83231     83233     83232     83233     83234     83235
     83234     83236     83235     83236     83237     83238     83237     83239
     83238     83239     83240     83241     83240     83242     83241     83242
     83243     83244     83243     83245     83244     83245     83246     83247
     83246     83248     83247     83248     83249     83250     83249     83251
     83250     83251     83252     83253     83252     83254     83253     83254
     83255     83256     83255     83257     83256     83257     83258     83259
     83258     83260     83259     83260     83261     83262     83261     83263
     83262     83263     83264     83265     83264     83266     83265     83266
     83267     83268     83267     83269     83268     83269     83270     83271
     83270     83272     83271     83272     83273     83274     83273     83275
     83274     83275     83276     83277     83276     83278     83277     83278
     83279     83280     83279     83281     83280     83281     83282     83283
     83282     83284     83283     83284     83285     83286     83285     83287
     83286     83287     83288     83289     83288     83290     83289     83290
     83291     83292     83291     83293     83292     83293     83294     83295
     83294     83296     83295     83296     83297     83298     83297     83299
     83298     83299     83300     83301     83300     83302     83301     83302
     83303     83304     83303     83305     83304     83305     83306     83307
     83306     83308     83307     83308     83309     83310     83309     83311
     83310     83311     83312     83313     83312     83314     83313     83314
     83315     83316     83315     83317     83316     83317     83318     83319
     83318     83320     83319     83320     83321     83322     83321     83323
     83322     83323     83324     83325     83324     83326     83325     83326
     83327     83328     83327     83329     83328     83329     83330     83331
     83330     83332     83331     83332     83333     83334     83333     83335
     83334     83335     83336     83337     83336     83338     83337     83338
     83339     83340     83339     83341     83340     83341     83342     83343
     83342     83344     83343     83344     83345     83346     83345     83347
     83346     83347     83348     83349     83348     83350     83349     83350
     83351     83352     83351     83353     83352     83353     83354     83355
     83354     83356     83355     83356     83357     83358     83357     83359
     83358     83359     83360     83361     83360     83362     83361     83362
     83363     83364     83363     83365     83364     83365     83366     83367
     83366     83368     83367     83368     83369     83370     83369     83371
     83370     83371     83372     83373     83372     83374     83373     83374
     83375     83376     83375     83377     83376     83377     83378     83379
     83378     83380     83379     83380     83381     83382     83381     83383
     83382     83383     83384     83385     83384     83386     83385     83386
     83387     83388     83387     83389     83388     83389     83390     83391
     83390     83392     83391     83392     83393     83394     83393     83395
     83394     83395     83396     83397     83396     83398     83397     83398
     83399     83400     83399     83401     83400     83401     83402     83403
     83402     83404     83403     83404     83405     83406     83405     83407
     83406     83407     83408     83409     83408     83410     83409     83410
     83411     83412     83411     83413     83412     83413     83414     83415
     83414     83416     83415     83416     83417     83418     83417     83419
     83418     83419     83420     83421     83420     83422     83421     83422
     83423     83424     83423     83425     83424     83425     83426     83427
     83426     83428     83427     83428     83429     83430     83429     83431
     83430     83431     83432     83433     83432     83434     83433     83434
     83435     83436     83435     83437     83436     83437     83438     83439
     83438     83440     83439     83440     83441     83442     83441     83443
     83442     83443     83444     83445     83444     83446     83445     83446
     83447     83448     83447     83449     83448     83449     83450     83451
     83450     83452     83451     83452     83453     83454     83453     83455
     83454     83455     83456     83457     83456     83458     83457     83458
     83459     83460     83459     83461     83460     83461     83462     83463
     83462     83464     83463     83464     83465     83466     83465     83467
     83466     83467     83468     83469     83468     83470     83469     83470
     83471     83472     83471     83473     83472     83473     83474     83475
     83474     83476     83475     83476     83477     83478     83477     83479
     83478     83479     83480     83481     83480     83482     83481     83482
     83483     83484     83483     83485     83484     83485     83486     83487
     83486     83488     83487     83488     83489     83490     83489     83491
     83490     83491     83492     83493     83492     83494     83493     83494
     83495     83496     83495     83497     83496     83497     83498     83499
     83498     83500     83499     83500     83501     83502     83501     83503
     83502     83503     83504     83505     83504     83506     83505     83506
     83507     83508     83507     83509     83508     83509     83510     83511
     83510     83512     83511     83512     83513     83514     83513     83515
     83514     83515     83516     83517     83516     83518     83517     83518
     83519     83520     83519     83521     83520     83521     83522     83523
     83522     83524     83523     83524     83525     83526     83525     83527
     83526     83527     83528     83529     83528     83530     83529     83530
     83531     83532     83531     83533     83532     83533     83534     83535
     83534     83536     83535     83536     83537     83538     83537     83539
     83538     83539     83540     83541     83540     83542     83541     83542
     83543     83544     83543     83545     83544     83545     83546     83547
     83546     83548     83547     83548     83549     83550     83549     83551
     83550     83551     83552     83553     83552     83554     83553     83554
     83555     83556     83555     83557     83556     83557     83558     83559
     83558     83560     83559     83560     83561     83562     83561     83563
     83562     83563     83564     83565     83564     83566     83565     83566
     83567     83568     83567     83569     83568     83569     83570     83571
     83570     83572     83571     83572     83573     83574     83573     83575
     83574     83575     83576     83577     83576     83578     83577     83578
     83579     83580     83579     83581     83580     83581     83582     83583
     83582     83584     83583     83584     83585     83586     83585     83587
     83586     83587     83588     83589     83588     83590     83589     83590
     83591     83592     83591     83593     83592     83593     83594     83595
     83594     83596     83595     83596     83597     83598     83597     83599
     83598     83599     83600     83601     83600     83602     83601     83602
     83603     83604     83603     83605     83604     83605     83606     83607
     83606     83608     83607     83608     83609     83610     83609     83611
     83610     83611     83612     83613     83612     83614     83613     83614
     83615     83616     83615     83617     83616     83617     83618     83619
     83618     83620     83619     83620     83621     83622     83621     83623
     83622     83623     83624     83625     83624     83626     83625     83626
     83627     83628     83627     83629     83628     83629     83630     83631
     83630     83632     83631     83632     83633     83634     83633     83635
     83634     83635     83636     83637     83636     83638     83637     83638
     83639     83640     83639     83641     83640     83641     83642     83643
     83642     83644     83643     83644     83645     83646     83645     83647
     83646     83647     83648     83649     83648     83650     83649     83650
     83651     83652     83651     83653     83652     83653     83654     83655
     83654     83656     83655     83656     83657     83658     83657     83659
     83658     83659     83660     83661     83660     83662     83661     83662
     83663     83664     83663     83665     83664     83665     83666     83667
     83666     83668     83667     83668     83669     83670     83669     83671
     83670     83671     83672     83673     83672     83674     83673     83674
     83675     83676     83675     83677     83676     83677     83678     83679
     83678     83680     83679     83680     83681     83682     83681     83683
     83682     83683     83684     83685     83684     83686     83685     83686
     83687     83688     83687     83689     83688     83689     83690     83691
     83690     83692     83691     83692     83693     83694     83693     83695
     83694     83695     83696     83697     83696     83698     83697     83698
     83699     83700     83699     83701     83700     83701     83702     83703
     83702     83704     83703     83704     83705     83706     83705     83707
     83706     83707     83708     83709     83708     83710     83709     83710
     83711     83712     83711     83713     83712     83713     83714     83715
     83714     83716     83715     83716     83717     83718     83717     83719
     83718     83719     83720     83721     83720     83722     83721     83722
     83723     83724     83723     83725     83724     83725     83726     83727
     83726     83728     83727     83728     83729     83730     83729     83731
     83730     83731     83732     83733     83732     83734     83733     83734
     83735     83736     83735     83737     83736     83737     83738     83739
     83738     83740     83739     83740     83741     83742     83741     83743
     83742     83743     83744     83745     83744     83746     83745     83746
     83747     83748     83747     83749     83748     83749     83750     83751
     83750     83752     83751     83752     83753     83754     83753     83755
     83754     83755     83756     83757     83756     83758     83757     83758
     83759     83760     83759     83761     83760     83761     83762     83763
     83762     83764     83763     83764     83765     83766     83765     83767
     83766     83767     83768     83769     83768     83770     83769     83770
     83771     83772     83771     83773     83772     83773     83774     83775
     83774     83776     83775     83776     83777     83778     83777     83779
     83778     83779     83780     83781     83780     83782     83781     83782
     83783     83784     83783     83785     83784     83785     83786     83787
     83786     83788     83787     83788     83789     83790     83789     83791
     83790     83791     83792     83793     83792     83794     83793     83794
     83795     83796     83795     83797     83796     83797     83798     83799
     83798     83800     83799     83800     83801     83802     83801     83803
     83802     83803     83804     83805     83804     83806     83805     83806
     83807     83808     83807     83809     83808     83809     83810     83811
     83810     83812     83811     83812     83813     83814     83813     83815
     83814     83815     83816     83817     83816     83818     83817     83818
     83819     83820     83819     83821     83820     83821     83822     83823
     83822     83824     83823     83824     83825     83826     83825     83827
     83826     83827     83828     83829     83828     83830     83829     83830
     83831     83832     83831     83833     83832     83833     83834     83835
     83834     83836     83835     83836     83837     83838     83837     83839
     83838     83839     83840     83841     83840     83842     83841     83842
     83843     83844     83843     83845     83844     83845     83846     83847
     83846     83848     83847     83848     83849     83850     83849     83851
     83850     83851     83852     83853     83852     83854     83853     83854
     83855     83856     83855     83857     83856     83857     83858     83859
     83858     83860     83859     83860     83861     83862     83861     83863
     83862     83863     83864     83865     83864     83866     83865     83866
     83867     83868     83867     83869     83868     83869     83870     83871
     83870     83872     83871     83872     83873     83874     83873     83875
     83874     83875     83876     83877     83876     83878     83877     83878
     83879     83880     83879     83881     83880     83881     83882     83883
     83882     83884     83883     83884     83885     83886     83885     83887
     83886     83887     83888     83889     83888     83890     83889     83890
     83891     83892     83891     83893     83892     83893     83894     83895
     83894     83896     83895     83896     83897     83898     83897     83899
     83898     83899     83900     83901     83900     83902     83901     83902
     83903     83904     83903     83905     83904     83905     83906     83907
     83906     83908     83907     83908     83909     83910     83909     83911
     83910     83911     83912     83913     83912     83914     83913     83914
     83915     83916     83915     83917     83916     83917     83918     83919
     83918     83920     83919     83920     83921     83922     83921     83923
     83922     83923     83924     83925     83924     83926     83925     83926
     83927     83928     83927     83929     83928     83929     83930     83931
     83930     83932     83931     83932     83933     83934     83933     83935
     83934     83935     83936     83937     83936     83938     83937     83938
     83939     83940     83939     83941     83940     83941     83942     83943
     83942     83944     83943     83944     83945     83946     83945     83947
     83946     83947     83948     83949     83948     83950     83949     83950
     83951     83952     83951     83953     83952     83953     83954     83955
     83954     83956     83955     83956     83957     83958     83957     83959
     83958     83959     83960     83961     83960     83962     83961     83962
     83963     83964     83963     83965     83964     83965     83966     83967
     83966     83968     83967     83968     83969     83970     83969     83971
     83970     83971     83972     83973     83972     83974     83973     83974
     83975     83976     83975     83977     83976     83977     83978     83979
     83978     83980     83979     83980     83981     83982     83981     83983
     83982     83983     83984     83985     83984     83986     83985     83986
     83987     83988     83987     83989     83988     83989     83990     83991
     83990     83992     83991     83992     83993     83994     83993     83995
     83994     83995     83996     83997     83996     83998     83997     83998
     83999     84000     83999     84001     84000     84001     84002     84003
     84002     84004     84003     84004     84005     84006     84005     84007
     84006     84007     84008     84009     84008     84010     84009     84010
     84011     84012     84011     84013     84012     84013     84014     84015
     84014     84016     84015     84016     84017     84018     84017     84019
     84018     84019     84020     84021     84020     84022     84021     84022
     84023     84024     84023     84025     84024     84025     84026     84027
     84026     84028     84027     84028     84029     84030     84029     84031
     84030     84031     84032     84033     84032     84034     84033     84034
     84035     84036     84035     84037     84036     84037     84038     84039
     84038     84040     84039     84040     84041     84042     84041     84043
     84042     84043     84044     84045     84044     84046     84045     84046
     84047     84048     84047     84049     84048     84049     84050     84051
     84050     84052     84051     84052     84053     84054     84053     84055
     84054     84055     84056     84057     84056     84058     84057     84058
     84059     84060     84059     84061     84060     84061     84062     84063
     84062     84064     84063     84064     84065     84066     84065     84067
     84066     84067     84068     84069     84068     84070     84069     84070
     84071     84072     84071     84073     84072     84073     84074     84075
     84074     84076     84075     84076     84077     84078     84077     84079
     84078     84079     84080     84081     84080     84082     84081     84082
     84083     84084     84083     84085     84084     84085     84086     84087
     84086     84088     84087     84088     84089     84090     84089     84091
     84090     84091     84092     84093     84092     84094     84093     84094
     84095     84096     84095     84097     84096     84097     84098     84099
     84098     84100     84099     84100     84101     84102     84101     84103
     84102     84103     84104     84105     84104     84106     84105     84106
     84107     84108     84107     84109     84108     84109     84110     84111
     84110     84112     84111     84112     84113     84114     84113     84115
     84114     84115     84116     84117     84116     84118     84117     84118
     84119     84120     84119     84121     84120     84121     84122     84123
     84122     84124     84123     84124     84125     84126     84125     84127
     84126     84127     84128     84129     84128     84130     84129     84130
     84131     84132     84131     84133     84132     84133     84134     84135
     84134     84136     84135     84136     84137     84138     84137     84139
     84138     84139     84140     84141     84140     84142     84141     84142
     84143     84144     84143     84145     84144     84145     84146     84147
     84146     84148     84147     84148     84149     84150     84149     84151
     84150     84151     84152     84153     84152     84154     84153     84154
     84155     84156     84155     84157     84156     84157     84158     84159
     84158     84160     84159     84160     84161     84162     84161     84163
     84162     84163     84164     84165     84164     84166     84165     84166
     84167     84168     84167     84169     84168     84169     84170     84171
     84170     84172     84171     84172     84173     84174     84173     84175
     84174     84175     84176     84177     84176     84178     84177     84178
     84179     84180     84179     84181     84180     84181     84182     84183
     84182     84184     84183     84184     84185     84186     84185     84187
     84186     84187     84188     84189     84188     84190     84189     84190
     84191     84192     84191     84193     84192     84193     84194     84195
     84194     84196     84195     84196     84197     84198     84197     84199
     84198     84199     84200     84201     84200     84202     84201     84202
     84203     84204     84203     84205     84204     84205     84206     84207
     84206     84208     84207     84208     84209     84210     84209     84211
     84210     84211     84212     84213     84212     84214     84213     84214
     84215     84216     84215     84217     84216     84217     84218     84219
     84218     84220     84219     84220     84221     84222     84221     84223
     84222     84223     84224     84225     84224     84226     84225     84226
     84227     84228     84227     84229     84228     84229     84230     84231
     84230     84232     84231     84232     84233     84234     84233     84235
     84234     84235     84236     84237     84236     84238     84237     84238
     84239     84240     84239     84241     84240     84241     84242     84243
     84242     84244     84243     84244     84245     84246     84245     84247
     84246     84247     84248     84249     84248     84250     84249     84250
     84251     84252     84251     84253     84252     84253     84254     84255
     84254     84256     84255     84256     84257     84258     84257     84259
     84258     84259     84260     84261     84260     84262     84261     84262
     84263     84264     84263     84265     84264     84265     84266     84267
     84266     84268     84267     84268     84269     84270     84269     84271
     84270     84271     84272     84273     84272     84274     84273     84274
     84275     84276     84275     84277     84276     84277     84278     84279
     84278     84280     84279     84280     84281     84282     84281     84283
     84282     84283     84284     84285     84284     84286     84285     84286
     84287     84288     84287     84289     84288     84289     84290     84291
     84290     84292     84291     84292     84293     84294     84293     84295
     84294     84295     84296     84297     84296     84298     84297     84298
     84299     84300     84299     84301     84300     84301     84302     84303
     84302     84304     84303     84304     84305     84306     84305     84307
     84306     84307     84308     84309     84308     84310     84309     84310
     84311     84312     84311     84313     84312     84313     84314     84315
     84314     84316     84315     84316     84317     84318     84317     84319
     84318     84319     84320     84321     84320     84322     84321     84322
     84323     84324     84323     84325     84324     84325     84326     84327
     84326     84328     84327     84328     84329     84330     84329     84331
     84330     84331     84332     84333     84332     84334     84333     84334
     84335     84336     84335     84337     84336     84337     84338     84339
     84338     84340     84339     84340     84341     84342     84341     84343
     84342     84343     84344     84345     84344     84346     84345     84346
     84347     84348     84347     84349     84348     84349     84350     84351
     84350     84352     84351     84352     84353     84354     84353     84355
     84354     84355     84356     84357     84356     84358     84357     84358
     84359     84360     84359     84361     84360     84361     84362     84363
     84362     84364     84363     84364     84365     84366     84365     84367
     84366     84367     84368     84369     84368     84370     84369     84370
     84371     84372     84371     84373     84372     84373     84374     84375
     84374     84376     84375     84376     84377     84378     84377     84379
     84378     84379     84380     84381     84380     84382     84381     84382
     84383     84384     84383     84385     84384     84385     84386     84387
     84386     84388     84387     84388     84389     84390     84389     84391
     84390     84391     84392     84393     84392     84394     84393     84394
     84395     84396     84395     84397     84396     84397     84398     84399
     84398     84400     84399     84400     84401     84402     84401     84403
     84402     84403     84404     84405     84404     84406     84405     84406
     84407     84408     84407     84409     84408     84409     84410     84411
     84410     84412     84411     84412     84413     84414     84413     84415
     84414     84415     84416     84417     84416     84418     84417     84418
     84419     84420     84419     84421     84420     84421     84422     84423
     84422     84424     84423     84424     84425     84426     84425     84427
     84426     84427     84428     84429     84428     84430     84429     84430
     84431     84432     84431     84433     84432     84433     84434     84435
     84434     84436     84435     84436     84437     84438     84437     84439
     84438     84439     84440     84441     84440     84442     84441     84442
     84443     84444     84443     84445     84444     84445     84446     84447
     84446     84448     84447     84448     84449     84450     84449     84451
     84450     84451     84452     84453     84452     84454     84453     84454
     84455     84456     84455     84457     84456     84457     84458     84459
     84458     84460     84459     84460     84461     84462     84461     84463
     84462     84463     84464     84465     84464     84466     84465     84466
     84467     84468     84467     84469     84468     84469     84470     84471
     84470     84472     84471     84472     84473     84474     84473     84475
     84474     84475     84476     84477     84476     84478     84477     84478
     84479     84480     84479     84481     84480     84481     84482     84483
     84482     84484     84483     84484     84485     84486     84485     84487
     84486     84487     84488     84489     84488     84490     84489     84490
     84491     84492     84491     84493     84492     84493     84494     84495
     84494     84496     84495     84496     84497     84498     84497     84499
     84498     84499     84500     84501     84500     84502     84501     84502
     84503     84504     84503     84505     84504     84505     84506     84507
     84506     84508     84507     84508     84509     84510     84509     84511
     84510     84511     84512     84513     84512     84514     84513     84514
     84515     84516     84515     84517     84516     84517     84518     84519
     84518     84520     84519     84520     84521     84522     84521     84523
     84522     84523     84524     84525     84524     84526     84525     84526
     84527     84528     84527     84529     84528     84529     84530     84531
     84530     84532     84531     84532     84533     84534     84533     84535
     84534     84535     84536     84537     84536     84538     84537     84538
     84539     84540     84539     84541     84540     84541     84542     84543
     84542     84544     84543     84544     84545     84546     84545     84547
     84546     84547     84548     84549     84548     84550     84549     84550
     84551     84552     84551     84553     84552     84553     84554     84555
     84554     84556     84555     84556     84557     84558     84557     84559
     84558     84559     84560     84561     84560     84562     84561     84562
     84563     84564     84563     84565     84564     84565     84566     84567
     84566     84568     84567     84568     84569     84570     84569     84571
     84570     84571     84572     84573     84572     84574     84573     84574
     84575     84576     84575     84577     84576     84577     84578     84579
     84578     84580     84579     84580     84581     84582     84581     84583
     84582     84583     84584     84585     84584     84586     84585     84586
     84587     84588     84587     84589     84588     84589     84590     84591
     84590     84592     84591     84592     84593     84594     84593     84595
     84594     84595     84596     84597     84596     84598     84597     84598
     84599     84600     84599     84601     84600     84601     84602     84603
     84602     84604     84603     84604     84605     84606     84605     84607
     84606     84607     84608     84609     84608     84610     84609     84610
     84611     84612     84611     84613     84612     84613     84614     84615
     84614     84616     84615     84616     84617     84618     84617     84619
     84618     84619     84620     84621     84620     84622     84621     84622
     84623     84624     84623     84625     84624     84625     84626     84627
     84626     84628     84627     84628     84629     84630     84629     84631
     84630     84631     84632     84633     84632     84634     84633     84634
     84635     84636     84635     84637     84636     84637     84638     84639
     84638     84640     84639     84640     84641     84642     84641     84643
     84642     84643     84644     84645     84644     84646     84645     84646
     84647     84648     84647     84649     84648     84649     84650     84651
     84650     84652     84651     84652     84653     84654     84653     84655
     84654     84655     84656     84657     84656     84658     84657     84658
     84659     84660     84659     84661     84660     84661     84662     84663
     84662     84664     84663     84664     84665     84666     84665     84667
     84666     84667     84668     84669     84668     84670     84669     84670
     84671     84672     84671     84673     84672     84673     84674     84675
     84674     84676     84675     84676     84677     84678     84677     84679
     84678     84679     84680     84681     84680     84682     84681     84682
     84683     84684     84683     84685     84684     84685     84686     84687
     84686     84688     84687     84688     84689     84690     84689     84691
     84690     84691     84692     84693     84692     84694     84693     84694
     84695     84696     84695     84697     84696     84697     84698     84699
     84698     84700     84699     84700     84701     84702     84701     84703
     84702     84703     84704     84705     84704     84706     84705     84706
     84707     84708     84707     84709     84708     84709     84710     84711
     84710     84712     84711     84712     84713     84714     84713     84715
     84714     84715     84716     84717     84716     84718     84717     84718
     84719     84720     84719     84721     84720     84721     84722     84723
     84722     84724     84723     84724     84725     84726     84725     84727
     84726     84727     84728     84729     84728     84730     84729     84730
     84731     84732     84731     84733     84732     84733     84734     84735
     84734     84736     84735     84736     84737     84738     84737     84739
     84738     84739     84740     84741     84740     84742     84741     84742
     84743     84744     84743     84745     84744     84745     84746     84747
     84746     84748     84747     84748     84749     84750     84749     84751
     84750     84751     84752     84753     84752     84754     84753     84754
     84755     84756     84755     84757     84756     84757     84758     84759
     84758     84760     84759     84760     84761     84762     84761     84763
     84762     84763     84764     84765     84764     84766     84765     84766
     84767     84768     84767     84769     84768     84769     84770     84771
     84770     84772     84771     84772     84773     84774     84773     84775
     84774     84775     84776     84777     84776     84778     84777     84778
     84779     84780     84779     84781     84780     84781     84782     84783
     84782     84784     84783     84784     84785     84786     84785     84787
     84786     84787     84788     84789     84788     84790     84789     84790
     84791     84792     84791     84793     84792     84793     84794     84795
     84794     84796     84795     84796     84797     84798     84797     84799
     84798     84799     84800     84801     84800     84802     84801     84802
     84803     84804     84803     84805     84804     84805     84806     84807
     84806     84808     84807     84808     84809     84810     84809     84811
     84810     84811     84812     84813     84812     84814     84813     84814
     84815     84816     84815     84817     84816     84817     84818     84819
     84818     84820     84819     84820     84821     84822     84821     84823
     84822     84823     84824     84825     84824     84826     84825     84826
     84827     84828     84827     84829     84828     84829     84830     84831
     84830     84832     84831     84832     84833     84834     84833     84835
     84834     84835     84836     84837     84836     84838     84837     84838
     84839     84840     84839     84841     84840     84841     84842     84843
     84842     84844     84843     84844     84845     84846     84845     84847
     84846     84847     84848     84849     84848     84850     84849     84850
     84851     84852     84851     84853     84852     84853     84854     84855
     84854     84856     84855     84856     84857     84858     84857     84859
     84858     84859     84860     84861     84860     84862     84861     84862
     84863     84864     84863     84865     84864     84865     84866     84867
     84866     84868     84867     84868     84869     84870     84869     84871
     84870     84871     84872     84873     84872     84874     84873     84874
     84875     84876     84875     84877     84876     84877     84878     84879
     84878     84880     84879     84880     84881     84882     84881     84883
     84882     84883     84884     84885     84884     84886     84885     84886
     84887     84888     84887     84889     84888     84889     84890     84891
     84890     84892     84891     84892     84893     84894     84893     84895
     84894     84895     84896     84897     84896     84898     84897     84898
     84899     84900     84899     84901     84900     84901     84902     84903
     84902     84904     84903     84904     84905     84906     84905     84907
     84906     84907     84908     84909     84908     84910     84909     84910
     84911     84912     84911     84913     84912     84913     84914     84915
     84914     84916     84915     84916     84917     84918     84917     84919
     84918     84919     84920     84921     84920     84922     84921     84922
     84923     84924     84923     84925     84924     84925     84926     84927
     84926     84928     84927     84928     84929     84930     84929     84931
     84930     84931     84932     84933     84932     84934     84933     84934
     84935     84936     84935     84937     84936     84937     84938     84939
     84938     84940     84939     84940     84941     84942     84941     84943
     84942     84943     84944     84945     84944     84946     84945     84946
     84947     84948     84947     84949     84948     84949     84950     84951
     84950     84952     84951     84952     84953     84954     84953     84955
     84954     84955     84956     84957     84956     84958     84957     84958
     84959     84960     84959     84961     84960     84961     84962     84963
     84962     84964     84963     84964     84965     84966     84965     84967
     84966     84967     84968     84969     84968     84970     84969     84970
     84971     84972     84971     84973     84972     84973     84974     84975
     84974     84976     84975     84976     84977     84978     84977     84979
     84978     84979     84980     84981     84980     84982     84981     84982
     84983     84984     84983     84985     84984     84985     84986     84987
     84986     84988     84987     84988     84989     84990     84989     84991
     84990     84991     84992     84993     84992     84994     84993     84994
     84995     84996     84995     84997     84996     84997     84998     84999
     84998     85000     84999     85000     85001     85002     85001     85003
     85002     85003     85004     85005     85004     85006     85005     85006
     85007     85008     85007     85009     85008     85009     85010     85011
     85010     85012     85011     85012     85013     85014     85013     85015
     85014     85015     85016     85017     85016     85018     85017     85018
     85019     85020     85019     85021     85020     85021     85022     85023
     85022     85024     85023     85024     85025     85026     85025     85027
     85026     85027     85028     85029     85028     85030     85029     85030
     85031     85032     85031     85033     85032     85033     85034     85035
     85034     85036     85035     85036     85037     85038     85037     85039
     85038     85039     85040     85041     85040     85042     85041     85042
     85043     85044     85043     85045     85044     85045     85046     85047
     85046     85048     85047     85048     85049     85050     85049     85051
     85050     85051     85052     85053     85052     85054     85053     85054
     85055     85056     85055     85057     85056     85057     85058     85059
     85058     85060     85059     85060     85061     85062     85061     85063
     85062     85063     85064     85065     85064     85066     85065     85066
     85067     85068     85067     85069     85068     85069     85070     85071
     85070     85072     85071     85072     85073     85074     85073     85075
     85074     85075     85076     85077     85076     85078     85077     85078
     85079     85080     85079     85081     85080     85081     85082     85083
     85082     85084     85083     85084     85085     85086     85085     85087
     85086     85087     85088     85089     85088     85090     85089     85090
     85091     85092     85091     85093     85092     85093     85094     85095
     85094     85096     85095     85096     85097     85098     85097     85099
     85098     85099     85100     85101     85100     85102     85101     85102
     85103     85104     85103     85105     85104     85105     85106     85107
     85106     85108     85107     85108     85109     85110     85109     85111
     85110     85111     85112     85113     85112     85114     85113     85114
     85115     85116     85115     85117     85116     85117     85118     85119
     85118     85120     85119     85120     85121     85122     85121     85123
     85122     85123     85124     85125     85124     85126     85125     85126
     85127     85128     85127     85129     85128     85129     85130     85131
     85130     85132     85131     85132     85133     85134     85133     85135
     85134     85135     85136     85137     85136     85138     85137     85138
     85139     85140     85139     85141     85140     85141     85142     85143
     85142     85144     85143     85144     85145     85146     85145     85147
     85146     85147     85148     85149     85148     85150     85149     85150
     85151     85152     85151     85153     85152     85153     85154     85155
     85154     85156     85155     85156     85157     85158     85157     85159
     85158     85159     85160     85161     85160     85162     85161     85162
     85163     85164     85163     85165     85164     85165     85166     85167
     85166     85168     85167     85168     85169     85170     85169     85171
     85170     85171     85172     85173     85172     85174     85173     85174
     85175     85176     85175     85177     85176     85177     85178     85179
     85178     85180     85179     85180     85181     85182     85181     85183
     85182     85183     85184     85185     85184     85186     85185     85186
     85187     85188     85187     85189     85188     85189     85190     85191
     85190     85192     85191     85192     85193     85194     85193     85195
     85194     85195     85196     85197     85196     85198     85197     85198
     85199     85200     85199     85201     85200     85201     85202     85203
     85202     85204     85203     85204     85205     85206     85205     85207
     85206     85207     85208     85209     85208     85210     85209     85210
     85211     85212     85211     85213     85212     85213     85214     85215
     85214     85216     85215     85216     85217     85218     85217     85219
     85218     85219     85220     85221     85220     85222     85221     85222
     85223     85224     85223     85225     85224     85225     85226     85227
     85226     85228     85227     85228     85229     85230     85229     85231
     85230     85231     85232     85233     85232     85234     85233     85234
     85235     85236     85235     85237     85236     85237     85238     85239
     85238     85240     85239     85240     85241     85242     85241     85243
     85242     85243     85244     85245     85244     85246     85245     85246
     85247     85248     85247     85249     85248     85249     85250     85251
     85250     85252     85251     85252     85253     85254     85253     85255
     85254     85255     85256     85257     85256     85258     85257     85258
     85259     85260     85259     85261     85260     85261     85262     85263
     85262     85264     85263     85264     85265     85266     85265     85267
     85266     85267     85268     85269     85268     85270     85269     85270
     85271     85272     85271     85273     85272     85273     85274     85275
     85274     85276     85275     85276     85277     85278     85277     85279
     85278     85279     85280     85281     85280     85282     85281     85282
     85283     85284     85283     85285     85284     85285     85286     85287
     85286     85288     85287     85288     85289     85290     85289     85291
     85290     85291     85292     85293     85292     85294     85293     85294
     85295     85296     85295     85297     85296     85297     85298     85299
     85298     85300     85299     85300     85301     85302     85301     85303
     85302     85303     85304     85305     85304     85306     85305     85306
     85307     85308     85307     85309     85308     85309     85310     85311
     85310     85312     85311     85312     85313     85314     85313     85315
     85314     85315     85316     85317     85316     85318     85317     85318
     85319     85320     85319     85321     85320     85321     85322     85323
     85322     85324     85323     85324     85325     85326     85325     85327
     85326     85327     85328     85329     85328     85330     85329     85330
     85331     85332     85331     85333     85332     85333     85334     85335
     85334     85336     85335     85336     85337     85338     85337     85339
     85338     85339     85340     85341     85340     85342     85341     85342
     85343     85344     85343     85345     85344     85345     85346     85347
     85346     85348     85347     85348     85349     85350     85349     85351
     85350     85351     85352     85353     85352     85354     85353     85354
     85355     85356     85355     85357     85356     85357     85358     85359
     85358     85360     85359     85360     85361     85362     85361     85363
     85362     85363     85364     85365     85364     85366     85365     85366
     85367     85368     85367     85369     85368     85369     85370     85371
     85370     85372     85371     85372     85373     85374     85373     85375
     85374     85375     85376     85377     85376     85378     85377     85378
     85379     85380     85379     85381     85380     85381     85382     85383
     85382     85384     85383     85384     85385     85386     85385     85387
     85386     85387     85388     85389     85388     85390     85389     85390
     85391     85392     85391     85393     85392     85393     85394     85395
     85394     85396     85395     85396     85397     85398     85397     85399
     85398     85399     85400     85401     85400     85402     85401     85402
     85403     85404     85403     85405     85404     85405     85406     85407
     85406     85408     85407     85408     85409     85410     85409     85411
     85410     85411     85412     85413     85412     85414     85413     85414
     85415     85416     85415     85417     85416     85417     85418     85419
     85418     85420     85419     85420     85421     85422     85421     85423
     85422     85423     85424     85425     85424     85426     85425     85426
     85427     85428     85427     85429     85428     85429     85430     85431
     85430     85432     85431     85432     85433     85434     85433     85435
     85434     85435     85436     85437     85436     85438     85437     85438
     85439     85440     85439     85441     85440     85441     85442     85443
     85442     85444     85443     85444     85445     85446     85445     85447
     85446     85447     85448     85449     85448     85450     85449     85450
     85451     85452     85451     85453     85452     85453     85454     85455
     85454     85456     85455     85456     85457     85458     85457     85459
     85458     85459     85460     85461     85460     85462     85461     85462
     85463     85464     85463     85465     85464     85465     85466     85467
     85466     85468     85467     85468     85469     85470     85469     85471
     85470     85471     85472     85473     85472     85474     85473     85474
     85475     85476     85475     85477     85476     85477     85478     85479
     85478     85480     85479     85480     85481     85482     85481     85483
     85482     85483     85484     85485     85484     85486     85485     85486
     85487     85488     85487     85489     85488     85489     85490     85491
     85490     85492     85491     85492     85493     85494     85493     85495
     85494     85495     85496     85497     85496     85498     85497     85498
     85499     85500     85499     85501     85500     85501     85502     85503
     85502     85504     85503     85504     85505     85506     85505     85507
     85506     85507     85508     85509     85508     85510     85509     85510
     85511     85512     85511     85513     85512     85513     85514     85515
     85514     85516     85515     85516     85517     85518     85517     85519
     85518     85519     85520     85521     85520     85522     85521     85522
     85523     85524     85523     85525     85524     85525     85526     85527
     85526     85528     85527     85528     85529     85530     85529     85531
     85530     85531     85532     85533     85532     85534     85533     85534
     85535     85536     85535     85537     85536     85537     85538     85539
     85538     85540     85539     85540     85541     85542     85541     85543
     85542     85543     85544     85545     85544     85546     85545     85546
     85547     85548     85547     85549     85548     85549     85550     85551
     85550     85552     85551     85552     85553     85554     85553     85555
     85554     85555     85556     85557     85556     85558     85557     85558
     85559     85560     85559     85561     85560     85561     85562     85563
     85562     85564     85563     85564     85565     85566     85565     85567
     85566     85567     85568     85569     85568     85570     85569     85570
     85571     85572     85571     85573     85572     85573     85574     85575
     85574     85576     85575     85576     85577     85578     85577     85579
     85578     85579     85580     85581     85580     85582     85581     85582
     85583     85584     85583     85585     85584     85585     85586     85587
     85586     85588     85587     85588     85589     85590     85589     85591
     85590     85591     85592     85593     85592     85594     85593     85594
     85595     85596     85595     85597     85596     85597     85598     85599
     85598     85600     85599     85600     85601     85602     85601     85603
     85602     85603     85604     85605     85604     85606     85605     85606
     85607     85608     85607     85609     85608     85609     85610     85611
     85610     85612     85611     85612     85613     85614     85613     85615
     85614     85615     85616     85617     85616     85618     85617     85618
     85619     85620     85619     85621     85620     85621     85622     85623
     85622     85624     85623     85624     85625     85626     85625     85627
     85626     85627     85628     85629     85628     85630     85629     85630
     85631     85632     85631     85633     85632     85633     85634     85635
     85634     85636     85635     85636     85637     85638     85637     85639
     85638     85639     85640     85641     85640     85642     85641     85642
     85643     85644     85643     85645     85644     85645     85646     85647
     85646     85648     85647     85648     85649     85650     85649     85651
     85650     85651     85652     85653     85652     85654     85653     85654
     85655     85656     85655     85657     85656     85657     85658     85659
     85658     85660     85659     85660     85661     85662     85661     85663
     85662     85663     85664     85665     85664     85666     85665     85666
     85667     85668     85667     85669     85668     85669     85670     85671
     85670     85672     85671     85672     85673     85674     85673     85675
     85674     85675     85676     85677     85676     85678     85677     85678
     85679     85680     85679     85681     85680     85681     85682     85683
     85682     85684     85683     85684     85685     85686     85685     85687
     85686     85687     85688     85689     85688     85690     85689     85690
     85691     85692     85691     85693     85692     85693     85694     85695
     85694     85696     85695     85696     85697     85698     85697     85699
     85698     85699     85700     85701     85700     85702     85701     85702
     85703     85704     85703     85705     85704     85705     85706     85707
     85706     85708     85707     85708     85709     85710     85709     85711
     85710     85711     85712     85713     85712     85714     85713     85714
     85715     85716     85715     85717     85716     85717     85718     85719
     85718     85720     85719     85720     85721     85722     85721     85723
     85722     85723     85724     85725     85724     85726     85725     85726
     85727     85728     85727     85729     85728     85729     85730     85731
     85730     85732     85731     85732     85733     85734     85733     85735
     85734     85735     85736     85737     85736     85738     85737     85738
     85739     85740     85739     85741     85740     85741     85742     85743
     85742     85744     85743     85744     85745     85746     85745     85747
     85746     85747     85748     85749     85748     85750     85749     85750
     85751     85752     85751     85753     85752     85753     85754     85755
     85754     85756     85755     85756     85757     85758     85757     85759
     85758     85759     85760     85761     85760     85762     85761     85762
     85763     85764     85763     85765     85764     85765     85766     85767
     85766     85768     85767     85768     85769     85770     85769     85771
     85770     85771     85772     85773     85772     85774     85773     85774
     85775     85776     85775     85777     85776     85777     85778     85779
     85778     85780     85779     85780     85781     85782     85781     85783
     85782     85783     85784     85785     85784     85786     85785     85786
     85787     85788     85787     85789     85788     85789     85790     85791
     85790     85792     85791     85792     85793     85794     85793     85795
     85794     85795     85796     85797     85796     85798     85797     85798
     85799     85800     85799     85801     85800     85801     85802     85803
     85802     85804     85803     85804     85805     85806     85805     85807
     85806     85807     85808     85809     85808     85810     85809     85810
     85811     85812     85811     85813     85812     85813     85814     85815
     85814     85816     85815     85816     85817     85818     85817     85819
     85818     85819     85820     85821     85820     85822     85821     85822
     85823     85824     85823     85825     85824     85825     85826     85827
     85826     85828     85827     85828     85829     85830     85829     85831
     85830     85831     85832     85833     85832     85834     85833     85834
     85835     85836     85835     85837     85836     85837     85838     85839
     85838     85840     85839     85840     85841     85842     85841     85843
     85842     85843     85844     85845     85844     85846     85845     85846
     85847     85848     85847     85849     85848     85849     85850     85851
     85850     85852     85851     85852     85853     85854     85853     85855
     85854     85855     85856     85857     85856     85858     85857     85858
     85859     85860     85859     85861     85860     85861     85862     85863
     85862     85864     85863     85864     85865     85866     85865     85867
     85866     85867     85868     85869     85868     85870     85869     85870
     85871     85872     85871     85873     85872     85873     85874     85875
     85874     85876     85875     85876     85877     85878     85877     85879
     85878     85879     85880     85881     85880     85882     85881     85882
     85883     85884     85883     85885     85884     85885     85886     85887
     85886     85888     85887     85888     85889     85890     85889     85891
     85890     85891     85892     85893     85892     85894     85893     85894
     85895     85896     85895     85897     85896     85897     85898     85899
     85898     85900     85899     85900     85901     85902     85901     85903
     85902     85903     85904     85905     85904     85906     85905     85906
     85907     85908     85907     85909     85908     85909     85910     85911
     85910     85912     85911     85912     85913     85914     85913     85915
     85914     85915     85916     85917     85916     85918     85917     85918
     85919     85920     85919     85921     85920     85921     85922     85923
     85922     85924     85923     85924     85925     85926     85925     85927
     85926     85927     85928     85929     85928     85930     85929     85930
     85931     85932     85931     85933     85932     85933     85934     85935
     85934     85936     85935     85936     85937     85938     85937     85939
     85938     85939     85940     85941     85940     85942     85941     85942
     85943     85944     85943     85945     85944     85945     85946     85947
     85946     85948     85947     85948     85949     85950     85949     85951
     85950     85951     85952     85953     85952     85954     85953     85954
     85955     85956     85955     85957     85956     85957     85958     85959
     85958     85960     85959     85960     85961     85962     85961     85963
     85962     85963     85964     85965     85964     85966     85965     85966
     85967     85968     85967     85969     85968     85969     85970     85971
     85970     85972     85971     85972     85973     85974     85973     85975
     85974     85975     85976     85977     85976     85978     85977     85978
     85979     85980     85979     85981     85980     85981     85982     85983
     85982     85984     85983     85984     85985     85986     85985     85987
     85986     85987     85988     85989     85988     85990     85989     85990
     85991     85992     85991     85993     85992     85993     85994     85995
     85994     85996     85995     85996     85997     85998     85997     85999
     85998     85999     86000     86001     86000     86002     86001     86002
     86003     86004     86003     86005     86004     86005     86006     86007
     86006     86008     86007     86008     86009     86010     86009     86011
     86010     86011     86012     86013     86012     86014     86013     86014
     86015     86016     86015     86017     86016     86017     86018     86019
     86018     86020     86019     86020     86021     86022     86021     86023
     86022     86023     86024     86025     86024     86026     86025     86026
     86027     86028     86027     86029     86028     86029     86030     86031
     86030     86032     86031     86032     86033     86034     86033     86035
     86034     86035     86036     86037     86036     86038     86037     86038
     86039     86040     86039     86041     86040     86041     86042     86043
     86042     86044     86043     86044     86045     86046     86045     86047
     86046     86047     86048     86049     86048     86050     86049     86050
     86051     86052     86051     86053     86052     86053     86054     86055
     86054     86056     86055     86056     86057     86058     86057     86059
     86058     86059     86060     86061     86060     86062     86061     86062
     86063     86064     86063     86065     86064     86065     86066     86067
     86066     86068     86067     86068     86069     86070     86069     86071
     86070     86071     86072     86073     86072     86074     86073     86074
     86075     86076     86075     86077     86076     86077     86078     86079
     86078     86080     86079     86080     86081     86082     86081     86083
     86082     86083     86084     86085     86084     86086     86085     86086
     86087     86088     86087     86089     86088     86089     86090     86091
     86090     86092     86091     86092     86093     86094     86093     86095
     86094     86095     86096     86097     86096     86098     86097     86098
     86099     86100     86099     86101     86100     86101     86102     86103
     86102     86104     86103     86104     86105     86106     86105     86107
     86106     86107     86108     86109     86108     86110     86109     86110
     86111     86112     86111     86113     86112     86113     86114     86115
     86114     86116     86115     86116     86117     86118     86117     86119
     86118     86119     86120     86121     86120     86122     86121     86122
     86123     86124     86123     86125     86124     86125     86126     86127
     86126     86128     86127     86128     86129     86130     86129     86131
     86130     86131     86132     86133     86132     86134     86133     86134
     86135     86136     86135     86137     86136     86137     86138     86139
     86138     86140     86139     86140     86141     86142     86141     86143
     86142     86143     86144     86145     86144     86146     86145     86146
     86147     86148     86147     86149     86148     86149     86150     86151
     86150     86152     86151     86152     86153     86154     86153     86155
     86154     86155     86156     86157     86156     86158     86157     86158
     86159     86160     86159     86161     86160     86161     86162     86163
     86162     86164     86163     86164     86165     86166     86165     86167
     86166     86167     86168     86169     86168     86170     86169     86170
     86171     86172     86171     86173     86172     86173     86174     86175
     86174     86176     86175     86176     86177     86178     86177     86179
     86178     86179     86180     86181     86180     86182     86181     86182
     86183     86184     86183     86185     86184     86185     86186     86187
     86186     86188     86187     86188     86189     86190     86189     86191
     86190     86191     86192     86193     86192     86194     86193     86194
     86195     86196     86195     86197     86196     86197     86198     86199
     86198     86200     86199     86200     86201     86202     86201     86203
     86202     86203     86204     86205     86204     86206     86205     86206
     86207     86208     86207     86209     86208     86209     86210     86211
     86210     86212     86211     86212     86213     86214     86213     86215
     86214     86215     86216     86217     86216     86218     86217     86218
     86219     86220     86219     86221     86220     86221     86222     86223
     86222     86224     86223     86224     86225     86226     86225     86227
     86226     86227     86228     86229     86228     86230     86229     86230
     86231     86232     86231     86233     86232     86233     86234     86235
     86234     86236     86235     86236     86237     86238     86237     86239
     86238     86239     86240     86241     86240     86242     86241     86242
     86243     86244     86243     86245     86244     86245     86246     86247
     86246     86248     86247     86248     86249     86250     86249     86251
     86250     86251     86252     86253     86252     86254     86253     86254
     86255     86256     86255     86257     86256     86257     86258     86259
     86258     86260     86259     86260     86261     86262     86261     86263
     86262     86263     86264     86265     86264     86266     86265     86266
     86267     86268     86267     86269     86268     86269     86270     86271
     86270     86272     86271     86272     86273     86274     86273     86275
     86274     86275     86276     86277     86276     86278     86277     86278
     86279     86280     86279     86281     86280     86281     86282     86283
     86282     86284     86283     86284     86285     86286     86285     86287
     86286     86287     86288     86289     86288     86290     86289     86290
     86291     86292     86291     86293     86292     86293     86294     86295
     86294     86296     86295     86296     86297     86298     86297     86299
     86298     86299     86300     86301     86300     86302     86301     86302
     86303     86304     86303     86305     86304     86305     86306     86307
     86306     86308     86307     86308     86309     86310     86309     86311
     86310     86311     86312     86313     86312     86314     86313     86314
     86315     86316     86315     86317     86316     86317     86318     86319
     86318     86320     86319     86320     86321     86322     86321     86323
     86322     86323     86324     86325     86324     86326     86325     86326
     86327     86328     86327     86329     86328     86329     86330     86331
     86330     86332     86331     86332     86333     86334     86333     86335
     86334     86335     86336     86337     86336     86338     86337     86338
     86339     86340     86339     86341     86340     86341     86342     86343
     86342     86344     86343     86344     86345     86346     86345     86347
     86346     86347     86348     86349     86348     86350     86349     86350
     86351     86352     86351     86353     86352     86353     86354     86355
     86354     86356     86355     86356     86357     86358     86357     86359
     86358     86359     86360     86361     86360     86362     86361     86362
     86363     86364     86363     86365     86364     86365     86366     86367
     86366     86368     86367     86368     86369     86370     86369     86371
     86370     86371     86372     86373     86372     86374     86373     86374
     86375     86376     86375     86377     86376     86377     86378     86379
     86378     86380     86379     86380     86381     86382     86381     86383
     86382     86383     86384     86385     86384     86386     86385     86386
     86387     86388     86387     86389     86388     86389     86390     86391
     86390     86392     86391     86392     86393     86394     86393     86395
     86394     86395     86396     86397     86396     86398     86397     86398
     86399     86400     86399     86401     86400     86401     86402     86403
     86402     86404     86403     86404     86405     86406     86405     86407
     86406     86407     86408     86409     86408     86410     86409     86410
     86411     86412     86411     86413     86412     86413     86414     86415
     86414     86416     86415     86416     86417     86418     86417     86419
     86418     86419     86420     86421     86420     86422     86421     86422
     86423     86424     86423     86425     86424     86425     86426     86427
     86426     86428     86427     86428     86429     86430     86429     86431
     86430     86431     86432     86433     86432     86434     86433     86434
     86435     86436     86435     86437     86436     86437     86438     86439
     86438     86440     86439     86440     86441     86442     86441     86443
     86442     86443     86444     86445     86444     86446     86445     86446
     86447     86448     86447     86449     86448     86449     86450     86451
     86450     86452     86451     86452     86453     86454     86453     86455
     86454     86455     86456     86457     86456     86458     86457     86458
     86459     86460     86459     86461     86460     86461     86462     86463
     86462     86464     86463     86464     86465     86466     86465     86467
     86466     86467     86468     86469     86468     86470     86469     86470
     86471     86472     86471     86473     86472     86473     86474     86475
     86474     86476     86475     86476     86477     86478     86477     86479
     86478     86479     86480     86481     86480     86482     86481     86482
     86483     86484     86483     86485     86484     86485     86486     86487
     86486     86488     86487     86488     86489     86490     86489     86491
     86490     86491     86492     86493     86492     86494     86493     86494
     86495     86496     86495     86497     86496     86497     86498     86499
     86498     86500     86499     86500     86501     86502     86501     86503
     86502     86503     86504     86505     86504     86506     86505     86506
     86507     86508     86507     86509     86508     86509     86510     86511
     86510     86512     86511     86512     86513     86514     86513     86515
     86514     86515     86516     86517     86516     86518     86517     86518
     86519     86520     86519     86521     86520     86521     86522     86523
     86522     86524     86523     86524     86525     86526     86525     86527
     86526     86527     86528     86529     86528     86530     86529     86530
     86531     86532     86531     86533     86532     86533     86534     86535
     86534     86536     86535     86536     86537     86538     86537     86539
     86538     86539     86540     86541     86540     86542     86541     86542
     86543     86544     86543     86545     86544     86545     86546     86547
     86546     86548     86547     86548     86549     86550     86549     86551
     86550     86551     86552     86553     86552     86554     86553     86554
     86555     86556     86555     86557     86556     86557     86558     86559
     86558     86560     86559     86560     86561     86562     86561     86563
     86562     86563     86564     86565     86564     86566     86565     86566
     86567     86568     86567     86569     86568     86569     86570     86571
     86570     86572     86571     86572     86573     86574     86573     86575
     86574     86575     86576     86577     86576     86578     86577     86578
     86579     86580     86579     86581     86580     86581     86582     86583
     86582     86584     86583     86584     86585     86586     86585     86587
     86586     86587     86588     86589     86588     86590     86589     86590
     86591     86592     86591     86593     86592     86593     86594     86595
     86594     86596     86595     86596     86597     86598     86597     86599
     86598     86599     86600     86601     86600     86602     86601     86602
     86603     86604     86603     86605     86604     86605     86606     86607
     86606     86608     86607     86608     86609     86610     86609     86611
     86610     86611     86612     86613     86612     86614     86613     86614
     86615     86616     86615     86617     86616     86617     86618     86619
     86618     86620     86619     86620     86621     86622     86621     86623
     86622     86623     86624     86625     86624     86626     86625     86626
     86627     86628     86627     86629     86628     86629     86630     86631
     86630     86632     86631     86632     86633     86634     86633     86635
     86634     86635     86636     86637     86636     86638     86637     86638
     86639     86640     86639     86641     86640     86641     86642     86643
     86642     86644     86643     86644     86645     86646     86645     86647
     86646     86647     86648     86649     86648     86650     86649     86650
     86651     86652     86651     86653     86652     86653     86654     86655
     86654     86656     86655     86656     86657     86658     86657     86659
     86658     86659     86660     86661     86660     86662     86661     86662
     86663     86664     86663     86665     86664     86665     86666     86667
     86666     86668     86667     86668     86669     86670     86669     86671
     86670     86671     86672     86673     86672     86674     86673     86674
     86675     86676     86675     86677     86676     86677     86678     86679
     86678     86680     86679     86680     86681     86682     86681     86683
     86682     86683     86684     86685     86684     86686     86685     86686
     86687     86688     86687     86689     86688     86689     86690     86691
     86690     86692     86691     86692     86693     86694     86693     86695
     86694     86695     86696     86697     86696     86698     86697     86698
     86699     86700     86699     86701     86700     86701     86702     86703
     86702     86704     86703     86704     86705     86706     86705     86707
     86706     86707     86708     86709     86708     86710     86709     86710
     86711     86712     86711     86713     86712     86713     86714     86715
     86714     86716     86715     86716     86717     86718     86717     86719
     86718     86719     86720     86721     86720     86722     86721     86722
     86723     86724     86723     86725     86724     86725     86726     86727
     86726     86728     86727     86728     86729     86730     86729     86731
     86730     86731     86732     86733     86732     86734     86733     86734
     86735     86736     86735     86737     86736     86737     86738     86739
     86738     86740     86739     86740     86741     86742     86741     86743
     86742     86743     86744     86745     86744     86746     86745     86746
     86747     86748     86747     86749     86748     86749     86750     86751
     86750     86752     86751     86752     86753     86754     86753     86755
     86754     86755     86756     86757     86756     86758     86757     86758
     86759     86760     86759     86761     86760     86761     86762     86763
     86762     86764     86763     86764     86765     86766     86765     86767
     86766     86767     86768     86769     86768     86770     86769     86770
     86771     86772     86771     86773     86772     86773     86774     86775
     86774     86776     86775     86776     86777     86778     86777     86779
     86778     86779     86780     86781     86780     86782     86781     86782
     86783     86784     86783     86785     86784     86785     86786     86787
     86786     86788     86787     86788     86789     86790     86789     86791
     86790     86791     86792     86793     86792     86794     86793     86794
     86795     86796     86795     86797     86796     86797     86798     86799
     86798     86800     86799     86800     86801     86802     86801     86803
     86802     86803     86804     86805     86804     86806     86805     86806
     86807     86808     86807     86809     86808     86809     86810     86811
     86810     86812     86811     86812     86813     86814     86813     86815
     86814     86815     86816     86817     86816     86818     86817     86818
     86819     86820     86819     86821     86820     86821     86822     86823
     86822     86824     86823     86824     86825     86826     86825     86827
     86826     86827     86828     86829     86828     86830     86829     86830
     86831     86832     86831     86833     86832     86833     86834     86835
     86834     86836     86835     86836     86837     86838     86837     86839
     86838     86839     86840     86841     86840     86842     86841     86842
     86843     86844     86843     86845     86844     86845     86846     86847
     86846     86848     86847     86848     86849     86850     86849     86851
     86850     86851     86852     86853     86852     86854     86853     86854
     86855     86856     86855     86857     86856     86857     86858     86859
     86858     86860     86859     86860     86861     86862     86861     86863
     86862     86863     86864     86865     86864     86866     86865     86866
     86867     86868     86867     86869     86868     86869     86870     86871
     86870     86872     86871     86872     86873     86874     86873     86875
     86874     86875     86876     86877     86876     86878     86877     86878
     86879     86880     86879     86881     86880     86881     86882     86883
     86882     86884     86883     86884     86885     86886     86885     86887
     86886     86887     86888     86889     86888     86890     86889     86890
     86891     86892     86891     86893     86892     86893     86894     86895
     86894     86896     86895     86896     86897     86898     86897     86899
     86898     86899     86900     86901     86900     86902     86901     86902
     86903     86904     86903     86905     86904     86905     86906     86907
     86906     86908     86907     86908     86909     86910     86909     86911
     86910     86911     86912     86913     86912     86914     86913     86914
     86915     86916     86915     86917     86916     86917     86918     86919
     86918     86920     86919     86920     86921     86922     86921     86923
     86922     86923     86924     86925     86924     86926     86925     86926
     86927     86928     86927     86929     86928     86929     86930     86931
     86930     86932     86931     86932     86933     86934     86933     86935
     86934     86935     86936     86937     86936     86938     86937     86938
     86939     86940     86939     86941     86940     86941     86942     86943
     86942     86944     86943     86944     86945     86946     86945     86947
     86946     86947     86948     86949     86948     86950     86949     86950
     86951     86952     86951     86953     86952     86953     86954     86955
     86954     86956     86955     86956     86957     86958     86957     86959
     86958     86959     86960     86961     86960     86962     86961     86962
     86963     86964     86963     86965     86964     86965     86966     86967
     86966     86968     86967     86968     86969     86970     86969     86971
     86970     86971     86972     86973     86972     86974     86973     86974
     86975     86976     86975     86977     86976     86977     86978     86979
     86978     86980     86979     86980     86981     86982     86981     86983
     86982     86983     86984     86985     86984     86986     86985     86986
     86987     86988     86987     86989     86988     86989     86990     86991
     86990     86992     86991     86992     86993     86994     86993     86995
     86994     86995     86996     86997     86996     86998     86997     86998
     86999     87000     86999     87001     87000     87001     87002     87003
     87002     87004     87003     87004     87005     87006     87005     87007
     87006     87007     87008     87009     87008     87010     87009     87010
     87011     87012     87011     87013     87012     87013     87014     87015
     87014     87016     87015     87016     87017     87018     87017     87019
     87018     87019     87020     87021     87020     87022     87021     87022
     87023     87024     87023     87025     87024     87025     87026     87027
     87026     87028     87027     87028     87029     87030     87029     87031
     87030     87031     87032     87033     87032     87034     87033     87034
     87035     87036     87035     87037     87036     87037     87038     87039
     87038     87040     87039     87040     87041     87042     87041     87043
     87042     87043     87044     87045     87044     87046     87045     87046
     87047     87048     87047     87049     87048     87049     87050     87051
     87050     87052     87051     87052     87053     87054     87053     87055
     87054     87055     87056     87057     87056     87058     87057     87058
     87059     87060     87059     87061     87060     87061     87062     87063
     87062     87064     87063     87064     87065     87066     87065     87067
     87066     87067     87068     87069     87068     87070     87069     87070
     87071     87072     87071     87073     87072     87073     87074     87075
     87074     87076     87075     87076     87077     87078     87077     87079
     87078     87079     87080     87081     87080     87082     87081     87082
     87083     87084     87083     87085     87084     87085     87086     87087
     87086     87088     87087     87088     87089     87090     87089     87091
     87090     87091     87092     87093     87092     87094     87093     87094
     87095     87096     87095     87097     87096     87097     87098     87099
     87098     87100     87099     87100     87101     87102     87101     87103
     87102     87103     87104     87105     87104     87106     87105     87106
     87107     87108     87107     87109     87108     87109     87110     87111
     87110     87112     87111     87112     87113     87114     87113     87115
     87114     87115     87116     87117     87116     87118     87117     87118
     87119     87120     87119     87121     87120     87121     87122     87123
     87122     87124     87123     87124     87125     87126     87125     87127
     87126     87127     87128     87129     87128     87130     87129     87130
     87131     87132     87131     87133     87132     87133     87134     87135
     87134     87136     87135     87136     87137     87138     87137     87139
     87138     87139     87140     87141     87140     87142     87141     87142
     87143     87144     87143     87145     87144     87145     87146     87147
     87146     87148     87147     87148     87149     87150     87149     87151
     87150     87151     87152     87153     87152     87154     87153     87154
     87155     87156     87155     87157     87156     87157     87158     87159
     87158     87160     87159     87160     87161     87162     87161     87163
     87162     87163     87164     87165     87164     87166     87165     87166
     87167     87168     87167     87169     87168     87169     87170     87171
     87170     87172     87171     87172     87173     87174     87173     87175
     87174     87175     87176     87177     87176     87178     87177     87178
     87179     87180     87179     87181     87180     87181     87182     87183
     87182     87184     87183     87184     87185     87186     87185     87187
     87186     87187     87188     87189     87188     87190     87189     87190
     87191     87192     87191     87193     87192     87193     87194     87195
     87194     87196     87195     87196     87197     87198     87197     87199
     87198     87199     87200     87201     87200     87202     87201     87202
     87203     87204     87203     87205     87204     87205     87206     87207
     87206     87208     87207     87208     87209     87210     87209     87211
     87210     87211     87212     87213     87212     87214     87213     87214
     87215     87216     87215     87217     87216     87217     87218     87219
     87218     87220     87219     87220     87221     87222     87221     87223
     87222     87223     87224     87225     87224     87226     87225     87226
     87227     87228     87227     87229     87228     87229     87230     87231
     87230     87232     87231     87232     87233     87234     87233     87235
     87234     87235     87236     87237     87236     87238     87237     87238
     87239     87240     87239     87241     87240     87241     87242     87243
     87242     87244     87243     87244     87245     87246     87245     87247
     87246     87247     87248     87249     87248     87250     87249     87250
     87251     87252     87251     87253     87252     87253     87254     87255
     87254     87256     87255     87256     87257     87258     87257     87259
     87258     87259     87260     87261     87260     87262     87261     87262
     87263     87264     87263     87265     87264     87265     87266     87267
     87266     87268     87267     87268     87269     87270     87269     87271
     87270     87271     87272     87273     87272     87274     87273     87274
     87275     87276     87275     87277     87276     87277     87278     87279
     87278     87280     87279     87280     87281     87282     87281     87283
     87282     87283     87284     87285     87284     87286     87285     87286
     87287     87288     87287     87289     87288     87289     87290     87291
     87290     87292     87291     87292     87293     87294     87293     87295
     87294     87295     87296     87297     87296     87298     87297     87298
     87299     87300     87299     87301     87300     87301     87302     87303
     87302     87304     87303     87304     87305     87306     87305     87307
     87306     87307     87308     87309     87308     87310     87309     87310
     87311     87312     87311     87313     87312     87313     87314     87315
     87314     87316     87315     87316     87317     87318     87317     87319
     87318     87319     87320     87321     87320     87322     87321     87322
     87323     87324     87323     87325     87324     87325     87326     87327
     87326     87328     87327     87328     87329     87330     87329     87331
     87330     87331     87332     87333     87332     87334     87333     87334
     87335     87336     87335     87337     87336     87337     87338     87339
     87338     87340     87339     87340     87341     87342     87341     87343
     87342     87343     87344     87345     87344     87346     87345     87346
     87347     87348     87347     87349     87348     87349     87350     87351
     87350     87352     87351     87352     87353     87354     87353     87355
     87354     87355     87356     87357     87356     87358     87357     87358
     87359     87360     87359     87361     87360     87361     87362     87363
     87362     87364     87363     87364     87365     87366     87365     87367
     87366     87367     87368     87369     87368     87370     87369     87370
     87371     87372     87371     87373     87372     87373     87374     87375
     87374     87376     87375     87376     87377     87378     87377     87379
     87378     87379     87380     87381     87380     87382     87381     87382
     87383     87384     87383     87385     87384     87385     87386     87387
     87386     87388     87387     87388     87389     87390     87389     87391
     87390     87391     87392     87393     87392     87394     87393     87394
     87395     87396     87395     87397     87396     87397     87398     87399
     87398     87400     87399     87400     87401     87402     87401     87403
     87402     87403     87404     87405     87404     87406     87405     87406
     87407     87408     87407     87409     87408     87409     87410     87411
     87410     87412     87411     87412     87413     87414     87413     87415
     87414     87415     87416     87417     87416     87418     87417     87418
     87419     87420     87419     87421     87420     87421     87422     87423
     87422     87424     87423     87424     87425     87426     87425     87427
     87426     87427     87428     87429     87428     87430     87429     87430
     87431     87432     87431     87433     87432     87433     87434     87435
     87434     87436     87435     87436     87437     87438     87437     87439
     87438     87439     87440     87441     87440     87442     87441     87442
     87443     87444     87443     87445     87444     87445     87446     87447
     87446     87448     87447     87448     87449     87450     87449     87451
     87450     87451     87452     87453     87452     87454     87453     87454
     87455     87456     87455     87457     87456     87457     87458     87459
     87458     87460     87459     87460     87461     87462     87461     87463
     87462     87463     87464     87465     87464     87466     87465     87466
     87467     87468     87467     87469     87468     87469     87470     87471
     87470     87472     87471     87472     87473     87474     87473     87475
     87474     87475     87476     87477     87476     87478     87477     87478
     87479     87480     87479     87481     87480     87481     87482     87483
     87482     87484     87483     87484     87485     87486     87485     87487
     87486     87487     87488     87489     87488     87490     87489     87490
     87491     87492     87491     87493     87492     87493     87494     87495
     87494     87496     87495     87496     87497     87498     87497     87499
     87498     87499     87500     87501     87500     87502     87501     87502
     87503     87504     87503     87505     87504     87505     87506     87507
     87506     87508     87507     87508     87509     87510     87509     87511
     87510     87511     87512     87513     87512     87514     87513     87514
     87515     87516     87515     87517     87516     87517     87518     87519
     87518     87520     87519     87520     87521     87522     87521     87523
     87522     87523     87524     87525     87524     87526     87525     87526
     87527     87528     87527     87529     87528     87529     87530     87531
     87530     87532     87531     87532     87533     87534     87533     87535
     87534     87535     87536     87537     87536     87538     87537     87538
     87539     87540     87539     87541     87540     87541     87542     87543
     87542     87544     87543     87544     87545     87546     87545     87547
     87546     87547     87548     87549     87548     87550     87549     87550
     87551     87552     87551     87553     87552     87553     87554     87555
     87554     87556     87555     87556     87557     87558     87557     87559
     87558     87559     87560     87561     87560     87562     87561     87562
     87563     87564     87563     87565     87564     87565     87566     87567
     87566     87568     87567     87568     87569     87570     87569     87571
     87570     87571     87572     87573     87572     87574     87573     87574
     87575     87576     87575     87577     87576     87577     87578     87579
     87578     87580     87579     87580     87581     87582     87581     87583
     87582     87583     87584     87585     87584     87586     87585     87586
     87587     87588     87587     87589     87588     87589     87590     87591
     87590     87592     87591     87592     87593     87594     87593     87595
     87594     87595     87596     87597     87596     87598     87597     87598
     87599     87600     87599     87601     87600     87601     87602     87603
     87602     87604     87603     87604     87605     87606     87605     87607
     87606     87607     87608     87609     87608     87610     87609     87610
     87611     87612     87611     87613     87612     87613     87614     87615
     87614     87616     87615     87616     87617     87618     87617     87619
     87618     87619     87620     87621     87620     87622     87621     87622
     87623     87624     87623     87625     87624     87625     87626     87627
     87626     87628     87627     87628     87629     87630     87629     87631
     87630     87631     87632     87633     87632     87634     87633     87634
     87635     87636     87635     87637     87636     87637     87638     87639
     87638     87640     87639     87640     87641     87642     87641     87643
     87642     87643     87644     87645     87644     87646     87645     87646
     87647     87648     87647     87649     87648     87649     87650     87651
     87650     87652     87651     87652     87653     87654     87653     87655
     87654     87655     87656     87657     87656     87658     87657     87658
     87659     87660     87659     87661     87660     87661     87662     87663
     87662     87664     87663     87664     87665     87666     87665     87667
     87666     87667     87668     87669     87668     87670     87669     87670
     87671     87672     87671     87673     87672     87673     87674     87675
     87674     87676     87675     87676     87677     87678     87677     87679
     87678     87679     87680     87681     87680     87682     87681     87682
     87683     87684     87683     87685     87684     87685     87686     87687
     87686     87688     87687     87688     87689     87690     87689     87691
     87690     87691     87692     87693     87692     87694     87693     87694
     87695     87696     87695     87697     87696     87697     87698     87699
     87698     87700     87699     87700     87701     87702     87701     87703
     87702     87703     87704     87705     87704     87706     87705     87706
     87707     87708     87707     87709     87708     87709     87710     87711
     87710     87712     87711     87712     87713     87714     87713     87715
     87714     87715     87716     87717     87716     87718     87717     87718
     87719     87720     87719     87721     87720     87721     87722     87723
     87722     87724     87723     87724     87725     87726     87725     87727
     87726     87727     87728     87729     87728     87730     87729     87730
     87731     87732     87731     87733     87732     87733     87734     87735
     87734     87736     87735     87736     87737     87738     87737     87739
     87738     87739     87740     87741     87740     87742     87741     87742
     87743     87744     87743     87745     87744     87745     87746     87747
     87746     87748     87747     87748     87749     87750     87749     87751
     87750     87751     87752     87753     87752     87754     87753     87754
     87755     87756     87755     87757     87756     87757     87758     87759
     87758     87760     87759     87760     87761     87762     87761     87763
     87762     87763     87764     87765     87764     87766     87765     87766
     87767     87768     87767     87769     87768     87769     87770     87771
     87770     87772     87771     87772     87773     87774     87773     87775
     87774     87775     87776     87777     87776     87778     87777     87778
     87779     87780     87779     87781     87780     87781     87782     87783
     87782     87784     87783     87784     87785     87786     87785     87787
     87786     87787     87788     87789     87788     87790     87789     87790
     87791     87792     87791     87793     87792     87793     87794     87795
     87794     87796     87795     87796     87797     87798     87797     87799
     87798     87799     87800     87801     87800     87802     87801     87802
     87803     87804     87803     87805     87804     87805     87806     87807
     87806     87808     87807     87808     87809     87810     87809     87811
     87810     87811     87812     87813     87812     87814     87813     87814
     87815     87816     87815     87817     87816     87817     87818     87819
     87818     87820     87819     87820     87821     87822     87821     87823
     87822     87823     87824     87825     87824     87826     87825     87826
     87827     87828     87827     87829     87828     87829     87830     87831
     87830     87832     87831     87832     87833     87834     87833     87835
     87834     87835     87836     87837     87836     87838     87837     87838
     87839     87840     87839     87841     87840     87841     87842     87843
     87842     87844     87843     87844     87845     87846     87845     87847
     87846     87847     87848     87849     87848     87850     87849     87850
     87851     87852     87851     87853     87852     87853     87854     87855
     87854     87856     87855     87856     87857     87858     87857     87859
     87858     87859     87860     87861     87860     87862     87861     87862
     87863     87864     87863     87865     87864     87865     87866     87867
     87866     87868     87867     87868     87869     87870     87869     87871
     87870     87871     87872     87873     87872     87874     87873     87874
     87875     87876     87875     87877     87876     87877     87878     87879
     87878     87880     87879     87880     87881     87882     87881     87883
     87882     87883     87884     87885     87884     87886     87885     87886
     87887     87888     87887     87889     87888     87889     87890     87891
     87890     87892     87891     87892     87893     87894     87893     87895
     87894     87895     87896     87897     87896     87898     87897     87898
     87899     87900     87899     87901     87900     87901     87902     87903
     87902     87904     87903     87904     87905     87906     87905     87907
     87906     87907     87908     87909     87908     87910     87909     87910
     87911     87912     87911     87913     87912     87913     87914     87915
     87914     87916     87915     87916     87917     87918     87917     87919
     87918     87919     87920     87921     87920     87922     87921     87922
     87923     87924     87923     87925     87924     87925     87926     87927
     87926     87928     87927     87928     87929     87930     87929     87931
     87930     87931     87932     87933     87932     87934     87933     87934
     87935     87936     87935     87937     87936     87937     87938     87939
     87938     87940     87939     87940     87941     87942     87941     87943
     87942     87943     87944     87945     87944     87946     87945     87946
     87947     87948     87947     87949     87948     87949     87950     87951
     87950     87952     87951     87952     87953     87954     87953     87955
     87954     87955     87956     87957     87956     87958     87957     87958
     87959     87960     87959     87961     87960     87961     87962     87963
     87962     87964     87963     87964     87965     87966     87965     87967
     87966     87967     87968     87969     87968     87970     87969     87970
     87971     87972     87971     87973     87972     87973     87974     87975
     87974     87976     87975     87976     87977     87978     87977     87979
     87978     87979     87980     87981     87980     87982     87981     87982
     87983     87984     87983     87985     87984     87985     87986     87987
     87986     87988     87987     87988     87989     87990     87989     87991
     87990     87991     87992     87993     87992     87994     87993     87994
     87995     87996     87995     87997     87996     87997     87998     87999
     87998     88000     87999     88000     88001     88002     88001     88003
     88002     88003     88004     88005     88004     88006     88005     88006
     88007     88008     88007     88009     88008     88009     88010     88011
     88010     88012     88011     88012     88013     88014     88013     88015
     88014     88015     88016     88017     88016     88018     88017     88018
     88019     88020     88019     88021     88020     88021     88022     88023
     88022     88024     88023     88024     88025     88026     88025     88027
     88026     88027     88028     88029     88028     88030     88029     88030
     88031     88032     88031     88033     88032     88033     88034     88035
     88034     88036     88035     88036     88037     88038     88037     88039
     88038     88039     88040     88041     88040     88042     88041     88042
     88043     88044     88043     88045     88044     88045     88046     88047
     88046     88048     88047     88048     88049     88050     88049     88051
     88050     88051     88052     88053     88052     88054     88053     88054
     88055     88056     88055     88057     88056     88057     88058     88059
     88058     88060     88059     88060     88061     88062     88061     88063
     88062     88063     88064     88065     88064     88066     88065     88066
     88067     88068     88067     88069     88068     88069     88070     88071
     88070     88072     88071     88072     88073     88074     88073     88075
     88074     88075     88076     88077     88076     88078     88077     88078
     88079     88080     88079     88081     88080     88081     88082     88083
     88082     88084     88083     88084     88085     88086     88085     88087
     88086     88087     88088     88089     88088     88090     88089     88090
     88091     88092     88091     88093     88092     88093     88094     88095
     88094     88096     88095     88096     88097     88098     88097     88099
     88098     88099     88100     88101     88100     88102     88101     88102
     88103     88104     88103     88105     88104     88105     88106     88107
     88106     88108     88107     88108     88109     88110     88109     88111
     88110     88111     88112     88113     88112     88114     88113     88114
     88115     88116     88115     88117     88116     88117     88118     88119
     88118     88120     88119     88120     88121     88122     88121     88123
     88122     88123     88124     88125     88124     88126     88125     88126
     88127     88128     88127     88129     88128     88129     88130     88131
     88130     88132     88131     88132     88133     88134     88133     88135
     88134     88135     88136     88137     88136     88138     88137     88138
     88139     88140     88139     88141     88140     88141     88142     88143
     88142     88144     88143     88144     88145     88146     88145     88147
     88146     88147     88148     88149     88148     88150     88149     88150
     88151     88152     88151     88153     88152     88153     88154     88155
     88154     88156     88155     88156     88157     88158     88157     88159
     88158     88159     88160     88161     88160     88162     88161     88162
     88163     88164     88163     88165     88164     88165     88166     88167
     88166     88168     88167     88168     88169     88170     88169     88171
     88170     88171     88172     88173     88172     88174     88173     88174
     88175     88176     88175     88177     88176     88177     88178     88179
     88178     88180     88179     88180     88181     88182     88181     88183
     88182     88183     88184     88185     88184     88186     88185     88186
     88187     88188     88187     88189     88188     88189     88190     88191
     88190     88192     88191     88192     88193     88194     88193     88195
     88194     88195     88196     88197     88196     88198     88197     88198
     88199     88200     88199     88201     88200     88201     88202     88203
     88202     88204     88203     88204     88205     88206     88205     88207
     88206     88207     88208     88209     88208     88210     88209     88210
     88211     88212     88211     88213     88212     88213     88214     88215
     88214     88216     88215     88216     88217     88218     88217     88219
     88218     88219     88220     88221     88220     88222     88221     88222
     88223     88224     88223     88225     88224     88225     88226     88227
     88226     88228     88227     88228     88229     88230     88229     88231
     88230     88231     88232     88233     88232     88234     88233     88234
     88235     88236     88235     88237     88236     88237     88238     88239
     88238     88240     88239     88240     88241     88242     88241     88243
     88242     88243     88244     88245     88244     88246     88245     88246
     88247     88248     88247     88249     88248     88249     88250     88251
     88250     88252     88251     88252     88253     88254     88253     88255
     88254     88255     88256     88257     88256     88258     88257     88258
     88259     88260     88259     88261     88260     88261     88262     88263
     88262     88264     88263     88264     88265     88266     88265     88267
     88266     88267     88268     88269     88268     88270     88269     88270
     88271     88272     88271     88273     88272     88273     88274     88275
     88274     88276     88275     88276     88277     88278     88277     88279
     88278     88279     88280     88281     88280     88282     88281     88282
     88283     88284     88283     88285     88284     88285     88286     88287
     88286     88288     88287     88288     88289     88290     88289     88291
     88290     88291     88292     88293     88292     88294     88293     88294
     88295     88296     88295     88297     88296     88297     88298     88299
     88298     88300     88299     88300     88301     88302     88301     88303
     88302     88303     88304     88305     88304     88306     88305     88306
     88307     88308     88307     88309     88308     88309     88310     88311
     88310     88312     88311     88312     88313     88314     88313     88315
     88314     88315     88316     88317     88316     88318     88317     88318
     88319     88320     88319     88321     88320     88321     88322     88323
     88322     88324     88323     88324     88325     88326     88325     88327
     88326     88327     88328     88329     88328     88330     88329     88330
     88331     88332     88331     88333     88332     88333     88334     88335
     88334     88336     88335     88336     88337     88338     88337     88339
     88338     88339     88340     88341     88340     88342     88341     88342
     88343     88344     88343     88345     88344     88345     88346     88347
     88346     88348     88347     88348     88349     88350     88349     88351
     88350     88351     88352     88353     88352     88354     88353     88354
     88355     88356     88355     88357     88356     88357     88358     88359
     88358     88360     88359     88360     88361     88362     88361     88363
     88362     88363     88364     88365     88364     88366     88365     88366
     88367     88368     88367     88369     88368     88369     88370     88371
     88370     88372     88371     88372     88373     88374     88373     88375
     88374     88375     88376     88377     88376     88378     88377     88378
     88379     88380     88379     88381     88380     88381     88382     88383
     88382     88384     88383     88384     88385     88386     88385     88387
     88386     88387     88388     88389     88388     88390     88389     88390
     88391     88392     88391     88393     88392     88393     88394     88395
     88394     88396     88395     88396     88397     88398     88397     88399
     88398     88399     88400     88401     88400     88402     88401     88402
     88403     88404     88403     88405     88404     88405     88406     88407
     88406     88408     88407     88408     88409     88410     88409     88411
     88410     88411     88412     88413     88412     88414     88413     88414
     88415     88416     88415     88417     88416     88417     88418     88419
     88418     88420     88419     88420     88421     88422     88421     88423
     88422     88423     88424     88425     88424     88426     88425     88426
     88427     88428     88427     88429     88428     88429     88430     88431
     88430     88432     88431     88432     88433     88434     88433     88435
     88434     88435     88436     88437     88436     88438     88437     88438
     88439     88440     88439     88441     88440     88441     88442     88443
     88442     88444     88443     88444     88445     88446     88445     88447
     88446     88447     88448     88449     88448     88450     88449     88450
     88451     88452     88451     88453     88452     88453     88454     88455
     88454     88456     88455     88456     88457     88458     88457     88459
     88458     88459     88460     88461     88460     88462     88461     88462
     88463     88464     88463     88465     88464     88465     88466     88467
     88466     88468     88467     88468     88469     88470     88469     88471
     88470     88471     88472     88473     88472     88474     88473     88474
     88475     88476     88475     88477     88476     88477     88478     88479
     88478     88480     88479     88480     88481     88482     88481     88483
     88482     88483     88484     88485     88484     88486     88485     88486
     88487     88488     88487     88489     88488     88489     88490     88491
     88490     88492     88491     88492     88493     88494     88493     88495
     88494     88495     88496     88497     88496     88498     88497     88498
     88499     88500     88499     88501     88500     88501     88502     88503
     88502     88504     88503     88504     88505     88506     88505     88507
     88506     88507     88508     88509     88508     88510     88509     88510
     88511     88512     88511     88513     88512     88513     88514     88515
     88514     88516     88515     88516     88517     88518     88517     88519
     88518     88519     88520     88521     88520     88522     88521     88522
     88523     88524     88523     88525     88524     88525     88526     88527
     88526     88528     88527     88528     88529     88530     88529     88531
     88530     88531     88532     88533     88532     88534     88533     88534
     88535     88536     88535     88537     88536     88537     88538     88539
     88538     88540     88539     88540     88541     88542     88541     88543
     88542     88543     88544     88545     88544     88546     88545     88546
     88547     88548     88547     88549     88548     88549     88550     88551
     88550     88552     88551     88552     88553     88554     88553     88555
     88554     88555     88556     88557     88556     88558     88557     88558
     88559     88560     88559     88561     88560     88561     88562     88563
     88562     88564     88563     88564     88565     88566     88565     88567
     88566     88567     88568     88569     88568     88570     88569     88570
     88571     88572     88571     88573     88572     88573     88574     88575
     88574     88576     88575     88576     88577     88578     88577     88579
     88578     88579     88580     88581     88580     88582     88581     88582
     88583     88584     88583     88585     88584     88585     88586     88587
     88586     88588     88587     88588     88589     88590     88589     88591
     88590     88591     88592     88593     88592     88594     88593     88594
     88595     88596     88595     88597     88596     88597     88598     88599
     88598     88600     88599     88600     88601     88602     88601     88603
     88602     88603     88604     88605     88604     88606     88605     88606
     88607     88608     88607     88609     88608     88609     88610     88611
     88610     88612     88611     88612     88613     88614     88613     88615
     88614     88615     88616     88617     88616     88618     88617     88618
     88619     88620     88619     88621     88620     88621     88622     88623
     88622     88624     88623     88624     88625     88626     88625     88627
     88626     88627     88628     88629     88628     88630     88629     88630
     88631     88632     88631     88633     88632     88633     88634     88635
     88634     88636     88635     88636     88637     88638     88637     88639
     88638     88639     88640     88641     88640     88642     88641     88642
     88643     88644     88643     88645     88644     88645     88646     88647
     88646     88648     88647     88648     88649     88650     88649     88651
     88650     88651     88652     88653     88652     88654     88653     88654
     88655     88656     88655     88657     88656     88657     88658     88659
     88658     88660     88659     88660     88661     88662     88661     88663
     88662     88663     88664     88665     88664     88666     88665     88666
     88667     88668     88667     88669     88668     88669     88670     88671
     88670     88672     88671     88672     88673     88674     88673     88675
     88674     88675     88676     88677     88676     88678     88677     88678
     88679     88680     88679     88681     88680     88681     88682     88683
     88682     88684     88683     88684     88685     88686     88685     88687
     88686     88687     88688     88689     88688     88690     88689     88690
     88691     88692     88691     88693     88692     88693     88694     88695
     88694     88696     88695     88696     88697     88698     88697     88699
     88698     88699     88700     88701     88700     88702     88701     88702
     88703     88704     88703     88705     88704     88705     88706     88707
     88706     88708     88707     88708     88709     88710     88709     88711
     88710     88711     88712     88713     88712     88714     88713     88714
     88715     88716     88715     88717     88716     88717     88718     88719
     88718     88720     88719     88720     88721     88722     88721     88723
     88722     88723     88724     88725     88724     88726     88725     88726
     88727     88728     88727     88729     88728     88729     88730     88731
     88730     88732     88731     88732     88733     88734     88733     88735
     88734     88735     88736     88737     88736     88738     88737     88738
     88739     88740     88739     88741     88740     88741     88742     88743
     88742     88744     88743     88744     88745     88746     88745     88747
     88746     88747     88748     88749     88748     88750     88749     88750
     88751     88752     88751     88753     88752     88753     88754     88755
     88754     88756     88755     88756     88757     88758     88757     88759
     88758     88759     88760     88761     88760     88762     88761     88762
     88763     88764     88763     88765     88764     88765     88766     88767
     88766     88768     88767     88768     88769     88770     88769     88771
     88770     88771     88772     88773     88772     88774     88773     88774
     88775     88776     88775     88777     88776     88777     88778     88779
     88778     88780     88779     88780     88781     88782     88781     88783
     88782     88783     88784     88785     88784     88786     88785     88786
     88787     88788     88787     88789     88788     88789     88790     88791
     88790     88792     88791     88792     88793     88794     88793     88795
     88794     88795     88796     88797     88796     88798     88797     88798
     88799     88800     88799     88801     88800     88801     88802     88803
     88802     88804     88803     88804     88805     88806     88805     88807
     88806     88807     88808     88809     88808     88810     88809     88810
     88811     88812     88811     88813     88812     88813     88814     88815
     88814     88816     88815     88816     88817     88818     88817     88819
     88818     88819     88820     88821     88820     88822     88821     88822
     88823     88824     88823     88825     88824     88825     88826     88827
     88826     88828     88827     88828     88829     88830     88829     88831
     88830     88831     88832     88833     88832     88834     88833     88834
     88835     88836     88835     88837     88836     88837     88838     88839
     88838     88840     88839     88840     88841     88842     88841     88843
     88842     88843     88844     88845     88844     88846     88845     88846
     88847     88848     88847     88849     88848     88849     88850     88851
     88850     88852     88851     88852     88853     88854     88853     88855
     88854     88855     88856     88857     88856     88858     88857     88858
     88859     88860     88859     88861     88860     88861     88862     88863
     88862     88864     88863     88864     88865     88866     88865     88867
     88866     88867     88868     88869     88868     88870     88869     88870
     88871     88872     88871     88873     88872     88873     88874     88875
     88874     88876     88875     88876     88877     88878     88877     88879
     88878     88879     88880     88881     88880     88882     88881     88882
     88883     88884     88883     88885     88884     88885     88886     88887
     88886     88888     88887     88888     88889     88890     88889     88891
     88890     88891     88892     88893     88892     88894     88893     88894
     88895     88896     88895     88897     88896     88897     88898     88899
     88898     88900     88899     88900     88901     88902     88901     88903
     88902     88903     88904     88905     88904     88906     88905     88906
     88907     88908     88907     88909     88908     88909     88910     88911
     88910     88912     88911     88912     88913     88914     88913     88915
     88914     88915     88916     88917     88916     88918     88917     88918
     88919     88920     88919     88921     88920     88921     88922     88923
     88922     88924     88923     88924     88925     88926     88925     88927
     88926     88927     88928     88929     88928     88930     88929     88930
     88931     88932     88931     88933     88932     88933     88934     88935
     88934     88936     88935     88936     88937     88938     88937     88939
     88938     88939     88940     88941     88940     88942     88941     88942
     88943     88944     88943     88945     88944     88945     88946     88947
     88946     88948     88947     88948     88949     88950     88949     88951
     88950     88951     88952     88953     88952     88954     88953     88954
     88955     88956     88955     88957     88956     88957     88958     88959
     88958     88960     88959     88960     88961     88962     88961     88963
     88962     88963     88964     88965     88964     88966     88965     88966
     88967     88968     88967     88969     88968     88969     88970     88971
     88970     88972     88971     88972     88973     88974     88973     88975
     88974     88975     88976     88977     88976     88978     88977     88978
     88979     88980     88979     88981     88980     88981     88982     88983
     88982     88984     88983     88984     88985     88986     88985     88987
     88986     88987     88988     88989     88988     88990     88989     88990
     88991     88992     88991     88993     88992     88993     88994     88995
     88994     88996     88995     88996     88997     88998     88997     88999
     88998     88999     89000     89001     89000     89002     89001     89002
     89003     89004     89003     89005     89004     89005     89006     89007
     89006     89008     89007     89008     89009     89010     89009     89011
     89010     89011     89012     89013     89012     89014     89013     89014
     89015     89016     89015     89017     89016     89017     89018     89019
     89018     89020     89019     89020     89021     89022     89021     89023
     89022     89023     89024     89025     89024     89026     89025     89026
     89027     89028     89027     89029     89028     89029     89030     89031
     89030     89032     89031     89032     89033     89034     89033     89035
     89034     89035     89036     89037     89036     89038     89037     89038
     89039     89040     89039     89041     89040     89041     89042     89043
     89042     89044     89043     89044     89045     89046     89045     89047
     89046     89047     89048     89049     89048     89050     89049     89050
     89051     89052     89051     89053     89052     89053     89054     89055
     89054     89056     89055     89056     89057     89058     89057     89059
     89058     89059     89060     89061     89060     89062     89061     89062
     89063     89064     89063     89065     89064     89065     89066     89067
     89066     89068     89067     89068     89069     89070     89069     89071
     89070     89071     89072     89073     89072     89074     89073     89074
     89075     89076     89075     89077     89076     89077     89078     89079
     89078     89080     89079     89080     89081     89082     89081     89083
     89082     89083     89084     89085     89084     89086     89085     89086
     89087     89088     89087     89089     89088     89089     89090     89091
     89090     89092     89091     89092     89093     89094     89093     89095
     89094     89095     89096     89097     89096     89098     89097     89098
     89099     89100     89099     89101     89100     89101     89102     89103
     89102     89104     89103     89104     89105     89106     89105     89107
     89106     89107     89108     89109     89108     89110     89109     89110
     89111     89112     89111     89113     89112     89113     89114     89115
     89114     89116     89115     89116     89117     89118     89117     89119
     89118     89119     89120     89121     89120     89122     89121     89122
     89123     89124     89123     89125     89124     89125     89126     89127
     89126     89128     89127     89128     89129     89130     89129     89131
     89130     89131     89132     89133     89132     89134     89133     89134
     89135     89136     89135     89137     89136     89137     89138     89139
     89138     89140     89139     89140     89141     89142     89141     89143
     89142     89143     89144     89145     89144     89146     89145     89146
     89147     89148     89147     89149     89148     89149     89150     89151
     89150     89152     89151     89152     89153     89154     89153     89155
     89154     89155     89156     89157     89156     89158     89157     89158
     89159     89160     89159     89161     89160     89161     89162     89163
     89162     89164     89163     89164     89165     89166     89165     89167
     89166     89167     89168     89169     89168     89170     89169     89170
     89171     89172     89171     89173     89172     89173     89174     89175
     89174     89176     89175     89176     89177     89178     89177     89179
     89178     89179     89180     89181     89180     89182     89181     89182
     89183     89184     89183     89185     89184     89185     89186     89187
     89186     89188     89187     89188     89189     89190     89189     89191
     89190     89191     89192     89193     89192     89194     89193     89194
     89195     89196     89195     89197     89196     89197     89198     89199
     89198     89200     89199     89200     89201     89202     89201     89203
     89202     89203     89204     89205     89204     89206     89205     89206
     89207     89208     89207     89209     89208     89209     89210     89211
     89210     89212     89211     89212     89213     89214     89213     89215
     89214     89215     89216     89217     89216     89218     89217     89218
     89219     89220     89219     89221     89220     89221     89222     89223
     89222     89224     89223     89224     89225     89226     89225     89227
     89226     89227     89228     89229     89228     89230     89229     89230
     89231     89232     89231     89233     89232     89233     89234     89235
     89234     89236     89235     89236     89237     89238     89237     89239
     89238     89239     89240     89241     89240     89242     89241     89242
     89243     89244     89243     89245     89244     89245     89246     89247
     89246     89248     89247     89248     89249     89250     89249     89251
     89250     89251     89252     89253     89252     89254     89253     89254
     89255     89256     89255     89257     89256     89257     89258     89259
     89258     89260     89259     89260     89261     89262     89261     89263
     89262     89263     89264     89265     89264     89266     89265     89266
     89267     89268     89267     89269     89268     89269     89270     89271
     89270     89272     89271     89272     89273     89274     89273     89275
     89274     89275     89276     89277     89276     89278     89277     89278
     89279     89280     89279     89281     89280     89281     89282     89283
     89282     89284     89283     89284     89285     89286     89285     89287
     89286     89287     89288     89289     89288     89290     89289     89290
     89291     89292     89291     89293     89292     89293     89294     89295
     89294     89296     89295     89296     89297     89298     89297     89299
     89298     89299     89300     89301     89300     89302     89301     89302
     89303     89304     89303     89305     89304     89305     89306     89307
     89306     89308     89307     89308     89309     89310     89309     89311
     89310     89311     89312     89313     89312     89314     89313     89314
     89315     89316     89315     89317     89316     89317     89318     89319
     89318     89320     89319     89320     89321     89322     89321     89323
     89322     89323     89324     89325     89324     89326     89325     89326
     89327     89328     89327     89329     89328     89329     89330     89331
     89330     89332     89331     89332     89333     89334     89333     89335
     89334     89335     89336     89337     89336     89338     89337     89338
     89339     89340     89339     89341     89340     89341     89342     89343
     89342     89344     89343     89344     89345     89346     89345     89347
     89346     89347     89348     89349     89348     89350     89349     89350
     89351     89352     89351     89353     89352     89353     89354     89355
     89354     89356     89355     89356     89357     89358     89357     89359
     89358     89359     89360     89361     89360     89362     89361     89362
     89363     89364     89363     89365     89364     89365     89366     89367
     89366     89368     89367     89368     89369     89370     89369     89371
     89370     89371     89372     89373     89372     89374     89373     89374
     89375     89376     89375     89377     89376     89377     89378     89379
     89378     89380     89379     89380     89381     89382     89381     89383
     89382     89383     89384     89385     89384     89386     89385     89386
     89387     89388     89387     89389     89388     89389     89390     89391
     89390     89392     89391     89392     89393     89394     89393     89395
     89394     89395     89396     89397     89396     89398     89397     89398
     89399     89400     89399     89401     89400     89401     89402     89403
     89402     89404     89403     89404     89405     89406     89405     89407
     89406     89407     89408     89409     89408     89410     89409     89410
     89411     89412     89411     89413     89412     89413     89414     89415
     89414     89416     89415     89416     89417     89418     89417     89419
     89418     89419     89420     89421     89420     89422     89421     89422
     89423     89424     89423     89425     89424     89425     89426     89427
     89426     89428     89427     89428     89429     89430     89429     89431
     89430     89431     89432     89433     89432     89434     89433     89434
     89435     89436     89435     89437     89436     89437     89438     89439
     89438     89440     89439     89440     89441     89442     89441     89443
     89442     89443     89444     89445     89444     89446     89445     89446
     89447     89448     89447     89449     89448     89449     89450     89451
     89450     89452     89451     89452     89453     89454     89453     89455
     89454     89455     89456     89457     89456     89458     89457     89458
     89459     89460     89459     89461     89460     89461     89462     89463
     89462     89464     89463     89464     89465     89466     89465     89467
     89466     89467     89468     89469     89468     89470     89469     89470
     89471     89472     89471     89473     89472     89473     89474     89475
     89474     89476     89475     89476     89477     89478     89477     89479
     89478     89479     89480     89481     89480     89482     89481     89482
     89483     89484     89483     89485     89484     89485     89486     89487
     89486     89488     89487     89488     89489     89490     89489     89491
     89490     89491     89492     89493     89492     89494     89493     89494
     89495     89496     89495     89497     89496     89497     89498     89499
     89498     89500     89499     89500     89501     89502     89501     89503
     89502     89503     89504     89505     89504     89506     89505     89506
     89507     89508     89507     89509     89508     89509     89510     89511
     89510     89512     89511     89512     89513     89514     89513     89515
     89514     89515     89516     89517     89516     89518     89517     89518
     89519     89520     89519     89521     89520     89521     89522     89523
     89522     89524     89523     89524     89525     89526     89525     89527
     89526     89527     89528     89529     89528     89530     89529     89530
     89531     89532     89531     89533     89532     89533     89534     89535
     89534     89536     89535     89536     89537     89538     89537     89539
     89538     89539     89540     89541     89540     89542     89541     89542
     89543     89544     89543     89545     89544     89545     89546     89547
     89546     89548     89547     89548     89549     89550     89549     89551
     89550     89551     89552     89553     89552     89554     89553     89554
     89555     89556     89555     89557     89556     89557     89558     89559
     89558     89560     89559     89560     89561     89562     89561     89563
     89562     89563     89564     89565     89564     89566     89565     89566
     89567     89568     89567     89569     89568     89569     89570     89571
     89570     89572     89571     89572     89573     89574     89573     89575
     89574     89575     89576     89577     89576     89578     89577     89578
     89579     89580     89579     89581     89580     89581     89582     89583
     89582     89584     89583     89584     89585     89586     89585     89587
     89586     89587     89588     89589     89588     89590     89589     89590
     89591     89592     89591     89593     89592     89593     89594     89595
     89594     89596     89595     89596     89597     89598     89597     89599
     89598     89599     89600     89601     89600     89602     89601     89602
     89603     89604     89603     89605     89604     89605     89606     89607
     89606     89608     89607     89608     89609     89610     89609     89611
     89610     89611     89612     89613     89612     89614     89613     89614
     89615     89616     89615     89617     89616     89617     89618     89619
     89618     89620     89619     89620     89621     89622     89621     89623
     89622     89623     89624     89625     89624     89626     89625     89626
     89627     89628     89627     89629     89628     89629     89630     89631
     89630     89632     89631     89632     89633     89634     89633     89635
     89634     89635     89636     89637     89636     89638     89637     89638
     89639     89640     89639     89641     89640     89641     89642     89643
     89642     89644     89643     89644     89645     89646     89645     89647
     89646     89647     89648     89649     89648     89650     89649     89650
     89651     89652     89651     89653     89652     89653     89654     89655
     89654     89656     89655     89656     89657     89658     89657     89659
     89658     89659     89660     89661     89660     89662     89661     89662
     89663     89664     89663     89665     89664     89665     89666     89667
     89666     89668     89667     89668     89669     89670     89669     89671
     89670     89671     89672     89673     89672     89674     89673     89674
     89675     89676     89675     89677     89676     89677     89678     89679
     89678     89680     89679     89680     89681     89682     89681     89683
     89682     89683     89684     89685     89684     89686     89685     89686
     89687     89688     89687     89689     89688     89689     89690     89691
     89690     89692     89691     89692     89693     89694     89693     89695
     89694     89695     89696     89697     89696     89698     89697     89698
     89699     89700     89699     89701     89700     89701     89702     89703
     89702     89704     89703     89704     89705     89706     89705     89707
     89706     89707     89708     89709     89708     89710     89709     89710
     89711     89712     89711     89713     89712     89713     89714     89715
     89714     89716     89715     89716     89717     89718     89717     89719
     89718     89719     89720     89721     89720     89722     89721     89722
     89723     89724     89723     89725     89724     89725     89726     89727
     89726     89728     89727     89728     89729     89730     89729     89731
     89730     89731     89732     89733     89732     89734     89733     89734
     89735     89736     89735     89737     89736     89737     89738     89739
     89738     89740     89739     89740     89741     89742     89741     89743
     89742     89743     89744     89745     89744     89746     89745     89746
     89747     89748     89747     89749     89748     89749     89750     89751
     89750     89752     89751     89752     89753     89754     89753     89755
     89754     89755     89756     89757     89756     89758     89757     89758
     89759     89760     89759     89761     89760     89761     89762     89763
     89762     89764     89763     89764     89765     89766     89765     89767
     89766     89767     89768     89769     89768     89770     89769     89770
     89771     89772     89771     89773     89772     89773     89774     89775
     89774     89776     89775     89776     89777     89778     89777     89779
     89778     89779     89780     89781     89780     89782     89781     89782
     89783     89784     89783     89785     89784     89785     89786     89787
     89786     89788     89787     89788     89789     89790     89789     89791
     89790     89791     89792     89793     89792     89794     89793     89794
     89795     89796     89795     89797     89796     89797     89798     89799
     89798     89800     89799     89800     89801     89802     89801     89803
     89802     89803     89804     89805     89804     89806     89805     89806
     89807     89808     89807     89809     89808     89809     89810     89811
     89810     89812     89811     89812     89813     89814     89813     89815
     89814     89815     89816     89817     89816     89818     89817     89818
     89819     89820     89819     89821     89820     89821     89822     89823
     89822     89824     89823     89824     89825     89826     89825     89827
     89826     89827     89828     89829     89828     89830     89829     89830
     89831     89832     89831     89833     89832     89833     89834     89835
     89834     89836     89835     89836     89837     89838     89837     89839
     89838     89839     89840     89841     89840     89842     89841     89842
     89843     89844     89843     89845     89844     89845     89846     89847
     89846     89848     89847     89848     89849     89850     89849     89851
     89850     89851     89852     89853     89852     89854     89853     89854
     89855     89856     89855     89857     89856     89857     89858     89859
     89858     89860     89859     89860     89861     89862     89861     89863
     89862     89863     89864     89865     89864     89866     89865     89866
     89867     89868     89867     89869     89868     89869     89870     89871
     89870     89872     89871     89872     89873     89874     89873     89875
     89874     89875     89876     89877     89876     89878     89877     89878
     89879     89880     89879     89881     89880     89881     89882     89883
     89882     89884     89883     89884     89885     89886     89885     89887
     89886     89887     89888     89889     89888     89890     89889     89890
     89891     89892     89891     89893     89892     89893     89894     89895
     89894     89896     89895     89896     89897     89898     89897     89899
     89898     89899     89900     89901     89900     89902     89901     89902
     89903     89904     89903     89905     89904     89905     89906     89907
     89906     89908     89907     89908     89909     89910     89909     89911
     89910     89911     89912     89913     89912     89914     89913     89914
     89915     89916     89915     89917     89916     89917     89918     89919
     89918     89920     89919     89920     89921     89922     89921     89923
     89922     89923     89924     89925     89924     89926     89925     89926
     89927     89928     89927     89929     89928     89929     89930     89931
     89930     89932     89931     89932     89933     89934     89933     89935
     89934     89935     89936     89937     89936     89938     89937     89938
     89939     89940     89939     89941     89940     89941     89942     89943
     89942     89944     89943     89944     89945     89946     89945     89947
     89946     89947     89948     89949     89948     89950     89949     89950
     89951     89952     89951     89953     89952     89953     89954     89955
     89954     89956     89955     89956     89957     89958     89957     89959
     89958     89959     89960     89961     89960     89962     89961     89962
     89963     89964     89963     89965     89964     89965     89966     89967
     89966     89968     89967     89968     89969     89970     89969     89971
     89970     89971     89972     89973     89972     89974     89973     89974
     89975     89976     89975     89977     89976     89977     89978     89979
     89978     89980     89979     89980     89981     89982     89981     89983
     89982     89983     89984     89985     89984     89986     89985     89986
     89987     89988     89987     89989     89988     89989     89990     89991
     89990     89992     89991     89992     89993     89994     89993     89995
     89994     89995     89996     89997     89996     89998     89997     89998
     89999     90000     89999     90001     90000     90001     90002     90003
     90002     90004     90003     90004     90005     90006     90005     90007
     90006     90007     90008     90009     90008     90010     90009     90010
     90011     90012     90011     90013     90012     90013     90014     90015
     90014     90016     90015     90016     90017     90018     90017     90019
     90018     90019     90020     90021     90020     90022     90021     90022
     90023     90024     90023     90025     90024     90025     90026     90027
     90026     90028     90027     90028     90029     90030     90029     90031
     90030     90031     90032     90033     90032     90034     90033     90034
     90035     90036     90035     90037     90036     90037     90038     90039
     90038     90040     90039     90040     90041     90042     90041     90043
     90042     90043     90044     90045     90044     90046     90045     90046
     90047     90048     90047     90049     90048     90049     90050     90051
     90050     90052     90051     90052     90053     90054     90053     90055
     90054     90055     90056     90057     90056     90058     90057     90058
     90059     90060     90059     90061     90060     90061     90062     90063
     90062     90064     90063     90064     90065     90066     90065     90067
     90066     90067     90068     90069     90068     90070     90069     90070
     90071     90072     90071     90073     90072     90073     90074     90075
     90074     90076     90075     90076     90077     90078     90077     90079
     90078     90079     90080     90081     90080     90082     90081     90082
     90083     90084     90083     90085     90084     90085     90086     90087
     90086     90088     90087     90088     90089     90090     90089     90091
     90090     90091     90092     90093     90092     90094     90093     90094
     90095     90096     90095     90097     90096     90097     90098     90099
     90098     90100     90099     90100     90101     90102     90101     90103
     90102     90103     90104     90105     90104     90106     90105     90106
     90107     90108     90107     90109     90108     90109     90110     90111
     90110     90112     90111     90112     90113     90114     90113     90115
     90114     90115     90116     90117     90116     90118     90117     90118
     90119     90120     90119     90121     90120     90121     90122     90123
     90122     90124     90123     90124     90125     90126     90125     90127
     90126     90127     90128     90129     90128     90130     90129     90130
     90131     90132     90131     90133     90132     90133     90134     90135
     90134     90136     90135     90136     90137     90138     90137     90139
     90138     90139     90140     90141     90140     90142     90141     90142
     90143     90144     90143     90145     90144     90145     90146     90147
     90146     90148     90147     90148     90149     90150     90149     90151
     90150     90151     90152     90153     90152     90154     90153     90154
     90155     90156     90155     90157     90156     90157     90158     90159
     90158     90160     90159     90160     90161     90162     90161     90163
     90162     90163     90164     90165     90164     90166     90165     90166
     90167     90168     90167     90169     90168     90169     90170     90171
     90170     90172     90171     90172     90173     90174     90173     90175
     90174     90175     90176     90177     90176     90178     90177     90178
     90179     90180     90179     90181     90180     90181     90182     90183
     90182     90184     90183     90184     90185     90186     90185     90187
     90186     90187     90188     90189     90188     90190     90189     90190
     90191     90192     90191     90193     90192     90193     90194     90195
     90194     90196     90195     90196     90197     90198     90197     90199
     90198     90199     90200     90201     90200     90202     90201     90202
     90203     90204     90203     90205     90204     90205     90206     90207
     90206     90208     90207     90208     90209     90210     90209     90211
     90210     90211     90212     90213     90212     90214     90213     90214
     90215     90216     90215     90217     90216     90217     90218     90219
     90218     90220     90219     90220     90221     90222     90221     90223
     90222     90223     90224     90225     90224     90226     90225     90226
     90227     90228     90227     90229     90228     90229     90230     90231
     90230     90232     90231     90232     90233     90234     90233     90235
     90234     90235     90236     90237     90236     90238     90237     90238
     90239     90240     90239     90241     90240     90241     90242     90243
     90242     90244     90243     90244     90245     90246     90245     90247
     90246     90247     90248     90249     90248     90250     90249     90250
     90251     90252     90251     90253     90252     90253     90254     90255
     90254     90256     90255     90256     90257     90258     90257     90259
     90258     90259     90260     90261     90260     90262     90261     90262
     90263     90264     90263     90265     90264     90265     90266     90267
     90266     90268     90267     90268     90269     90270     90269     90271
     90270     90271     90272     90273     90272     90274     90273     90274
     90275     90276     90275     90277     90276     90277     90278     90279
     90278     90280     90279     90280     90281     90282     90281     90283
     90282     90283     90284     90285     90284     90286     90285     90286
     90287     90288     90287     90289     90288     90289     90290     90291
     90290     90292     90291     90292     90293     90294     90293     90295
     90294     90295     90296     90297     90296     90298     90297     90298
     90299     90300     90299     90301     90300     90301     90302     90303
     90302     90304     90303     90304     90305     90306     90305     90307
     90306     90307     90308     90309     90308     90310     90309     90310
     90311     90312     90311     90313     90312     90313     90314     90315
     90314     90316     90315     90316     90317     90318     90317     90319
     90318     90319     90320     90321     90320     90322     90321     90322
     90323     90324     90323     90325     90324     90325     90326     90327
     90326     90328     90327     90328     90329     90330     90329     90331
     90330     90331     90332     90333     90332     90334     90333     90334
     90335     90336     90335     90337     90336     90337     90338     90339
     90338     90340     90339     90340     90341     90342     90341     90343
     90342     90343     90344     90345     90344     90346     90345     90346
     90347     90348     90347     90349     90348     90349     90350     90351
     90350     90352     90351     90352     90353     90354     90353     90355
     90354     90355     90356     90357     90356     90358     90357     90358
     90359     90360     90359     90361     90360     90361     90362     90363
     90362     90364     90363     90364     90365     90366     90365     90367
     90366     90367     90368     90369     90368     90370     90369     90370
     90371     90372     90371     90373     90372     90373     90374     90375
     90374     90376     90375     90376     90377     90378     90377     90379
     90378     90379     90380     90381     90380     90382     90381     90382
     90383     90384     90383     90385     90384     90385     90386     90387
     90386     90388     90387     90388     90389     90390     90389     90391
     90390     90391     90392     90393     90392     90394     90393     90394
     90395     90396     90395     90397     90396     90397     90398     90399
     90398     90400     90399     90400     90401     90402     90401     90403
     90402     90403     90404     90405     90404     90406     90405     90406
     90407     90408     90407     90409     90408     90409     90410     90411
     90410     90412     90411     90412     90413     90414     90413     90415
     90414     90415     90416     90417     90416     90418     90417     90418
     90419     90420     90419     90421     90420     90421     90422     90423
     90422     90424     90423     90424     90425     90426     90425     90427
     90426     90427     90428     90429     90428     90430     90429     90430
     90431     90432     90431     90433     90432     90433     90434     90435
     90434     90436     90435     90436     90437     90438     90437     90439
     90438     90439     90440     90441     90440     90442     90441     90442
     90443     90444     90443     90445     90444     90445     90446     90447
     90446     90448     90447     90448     90449     90450     90449     90451
     90450     90451     90452     90453     90452     90454     90453     90454
     90455     90456     90455     90457     90456     90457     90458     90459
     90458     90460     90459     90460     90461     90462     90461     90463
     90462     90463     90464     90465     90464     90466     90465     90466
     90467     90468     90467     90469     90468     90469     90470     90471
     90470     90472     90471     90472     90473     90474     90473     90475
     90474     90475     90476     90477     90476     90478     90477     90478
     90479     90480     90479     90481     90480     90481     90482     90483
     90482     90484     90483     90484     90485     90486     90485     90487
     90486     90487     90488     90489     90488     90490     90489     90490
     90491     90492     90491     90493     90492     90493     90494     90495
     90494     90496     90495     90496     90497     90498     90497     90499
     90498     90499     90500     90501     90500     90502     90501     90502
     90503     90504     90503     90505     90504     90505     90506     90507
     90506     90508     90507     90508     90509     90510     90509     90511
     90510     90511     90512     90513     90512     90514     90513     90514
     90515     90516     90515     90517     90516     90517     90518     90519
     90518     90520     90519     90520     90521     90522     90521     90523
     90522     90523     90524     90525     90524     90526     90525     90526
     90527     90528     90527     90529     90528     90529     90530     90531
     90530     90532     90531     90532     90533     90534     90533     90535
     90534     90535     90536     90537     90536     90538     90537     90538
     90539     90540     90539     90541     90540     90541     90542     90543
     90542     90544     90543     90544     90545     90546     90545     90547
     90546     90547     90548     90549     90548     90550     90549     90550
     90551     90552     90551     90553     90552     90553     90554     90555
     90554     90556     90555     90556     90557     90558     90557     90559
     90558     90559     90560     90561     90560     90562     90561     90562
     90563     90564     90563     90565     90564     90565     90566     90567
     90566     90568     90567     90568     90569     90570     90569     90571
     90570     90571     90572     90573     90572     90574     90573     90574
     90575     90576     90575     90577     90576     90577     90578     90579
     90578     90580     90579     90580     90581     90582     90581     90583
     90582     90583     90584     90585     90584     90586     90585     90586
     90587     90588     90587     90589     90588     90589     90590     90591
     90590     90592     90591     90592     90593     90594     90593     90595
     90594     90595     90596     90597     90596     90598     90597     90598
     90599     90600     90599     90601     90600     90601     90602     90603
     90602     90604     90603     90604     90605     90606     90605     90607
     90606     90607     90608     90609     90608     90610     90609     90610
     90611     90612     90611     90613     90612     90613     90614     90615
     90614     90616     90615     90616     90617     90618     90617     90619
     90618     90619     90620     90621     90620     90622     90621     90622
     90623     90624     90623     90625     90624     90625     90626     90627
     90626     90628     90627     90628     90629     90630     90629     90631
     90630     90631     90632     90633     90632     90634     90633     90634
     90635     90636     90635     90637     90636     90637     90638     90639
     90638     90640     90639     90640     90641     90642     90641     90643
     90642     90643     90644     90645     90644     90646     90645     90646
     90647     90648     90647     90649     90648     90649     90650     90651
     90650     90652     90651     90652     90653     90654     90653     90655
     90654     90655     90656     90657     90656     90658     90657     90658
     90659     90660     90659     90661     90660     90661     90662     90663
     90662     90664     90663     90664     90665     90666     90665     90667
     90666     90667     90668     90669     90668     90670     90669     90670
     90671     90672     90671     90673     90672     90673     90674     90675
     90674     90676     90675     90676     90677     90678     90677     90679
     90678     90679     90680     90681     90680     90682     90681     90682
     90683     90684     90683     90685     90684     90685     90686     90687
     90686     90688     90687     90688     90689     90690     90689     90691
     90690     90691     90692     90693     90692     90694     90693     90694
     90695     90696     90695     90697     90696     90697     90698     90699
     90698     90700     90699     90700     90701     90702     90701     90703
     90702     90703     90704     90705     90704     90706     90705     90706
     90707     90708     90707     90709     90708     90709     90710     90711
     90710     90712     90711     90712     90713     90714     90713     90715
     90714     90715     90716     90717     90716     90718     90717     90718
     90719     90720     90719     90721     90720     90721     90722     90723
     90722     90724     90723     90724     90725     90726     90725     90727
     90726     90727     90728     90729     90728     90730     90729     90730
     90731     90732     90731     90733     90732     90733     90734     90735
     90734     90736     90735     90736     90737     90738     90737     90739
     90738     90739     90740     90741     90740     90742     90741     90742
     90743     90744     90743     90745     90744     90745     90746     90747
     90746     90748     90747     90748     90749     90750     90749     90751
     90750     90751     90752     90753     90752     90754     90753     90754
     90755     90756     90755     90757     90756     90757     90758     90759
     90758     90760     90759     90760     90761     90762     90761     90763
     90762     90763     90764     90765     90764     90766     90765     90766
     90767     90768     90767     90769     90768     90769     90770     90771
     90770     90772     90771     90772     90773     90774     90773     90775
     90774     90775     90776     90777     90776     90778     90777     90778
     90779     90780     90779     90781     90780     90781     90782     90783
     90782     90784     90783     90784     90785     90786     90785     90787
     90786     90787     90788     90789     90788     90790     90789     90790
     90791     90792     90791     90793     90792     90793     90794     90795
     90794     90796     90795     90796     90797     90798     90797     90799
     90798     90799     90800     90801     90800     90802     90801     90802
     90803     90804     90803     90805     90804     90805     90806     90807
     90806     90808     90807     90808     90809     90810     90809     90811
     90810     90811     90812     90813     90812     90814     90813     90814
     90815     90816     90815     90817     90816     90817     90818     90819
     90818     90820     90819     90820     90821     90822     90821     90823
     90822     90823     90824     90825     90824     90826     90825     90826
     90827     90828     90827     90829     90828     90829     90830     90831
     90830     90832     90831     90832     90833     90834     90833     90835
     90834     90835     90836     90837     90836     90838     90837     90838
     90839     90840     90839     90841     90840     90841     90842     90843
     90842     90844     90843     90844     90845     90846     90845     90847
     90846     90847     90848     90849     90848     90850     90849     90850
     90851     90852     90851     90853     90852     90853     90854     90855
     90854     90856     90855     90856     90857     90858     90857     90859
     90858     90859     90860     90861     90860     90862     90861     90862
     90863     90864     90863     90865     90864     90865     90866     90867
     90866     90868     90867     90868     90869     90870     90869     90871
     90870     90871     90872     90873     90872     90874     90873     90874
     90875     90876     90875     90877     90876     90877     90878     90879
     90878     90880     90879     90880     90881     90882     90881     90883
     90882     90883     90884     90885     90884     90886     90885     90886
     90887     90888     90887     90889     90888     90889     90890     90891
     90890     90892     90891     90892     90893     90894     90893     90895
     90894     90895     90896     90897     90896     90898     90897     90898
     90899     90900     90899     90901     90900     90901     90902     90903
     90902     90904     90903     90904     90905     90906     90905     90907
     90906     90907     90908     90909     90908     90910     90909     90910
     90911     90912     90911     90913     90912     90913     90914     90915
     90914     90916     90915     90916     90917     90918     90917     90919
     90918     90919     90920     90921     90920     90922     90921     90922
     90923     90924     90923     90925     90924     90925     90926     90927
     90926     90928     90927     90928     90929     90930     90929     90931
     90930     90931     90932     90933     90932     90934     90933     90934
     90935     90936     90935     90937     90936     90937     90938     90939
     90938     90940     90939     90940     90941     90942     90941     90943
     90942     90943     90944     90945     90944     90946     90945     90946
     90947     90948     90947     90949     90948     90949     90950     90951
     90950     90952     90951     90952     90953     90954     90953     90955
     90954     90955     90956     90957     90956     90958     90957     90958
     90959     90960     90959     90961     90960     90961     90962     90963
     90962     90964     90963     90964     90965     90966     90965     90967
     90966     90967     90968     90969     90968     90970     90969     90970
     90971     90972     90971     90973     90972     90973     90974     90975
     90974     90976     90975     90976     90977     90978     90977     90979
     90978     90979     90980     90981     90980     90982     90981     90982
     90983     90984     90983     90985     90984     90985     90986     90987
     90986     90988     90987     90988     90989     90990     90989     90991
     90990     90991     90992     90993     90992     90994     90993     90994
     90995     90996     90995     90997     90996     90997     90998     90999
     90998     91000     90999     91000     91001     91002     91001     91003
     91002     91003     91004     91005     91004     91006     91005     91006
     91007     91008     91007     91009     91008     91009     91010     91011
     91010     91012     91011     91012     91013     91014     91013     91015
     91014     91015     91016     91017     91016     91018     91017     91018
     91019     91020     91019     91021     91020     91021     91022     91023
     91022     91024     91023     91024     91025     91026     91025     91027
     91026     91027     91028     91029     91028     91030     91029     91030
     91031     91032     91031     91033     91032     91033     91034     91035
     91034     91036     91035     91036     91037     91038     91037     91039
     91038     91039     91040     91041     91040     91042     91041     91042
     91043     91044     91043     91045     91044     91045     91046     91047
     91046     91048     91047     91048     91049     91050     91049     91051
     91050     91051     91052     91053     91052     91054     91053     91054
     91055     91056     91055     91057     91056     91057     91058     91059
     91058     91060     91059     91060     91061     91062     91061     91063
     91062     91063     91064     91065     91064     91066     91065     91066
     91067     91068     91067     91069     91068     91069     91070     91071
     91070     91072     91071     91072     91073     91074     91073     91075
     91074     91075     91076     91077     91076     91078     91077     91078
     91079     91080     91079     91081     91080     91081     91082     91083
     91082     91084     91083     91084     91085     91086     91085     91087
     91086     91087     91088     91089     91088     91090     91089     91090
     91091     91092     91091     91093     91092     91093     91094     91095
     91094     91096     91095     91096     91097     91098     91097     91099
     91098     91099     91100     91101     91100     91102     91101     91102
     91103     91104     91103     91105     91104     91105     91106     91107
     91106     91108     91107     91108     91109     91110     91109     91111
     91110     91111     91112     91113     91112     91114     91113     91114
     91115     91116     91115     91117     91116     91117     91118     91119
     91118     91120     91119     91120     91121     91122     91121     91123
     91122     91123     91124     91125     91124     91126     91125     91126
     91127     91128     91127     91129     91128     91129     91130     91131
     91130     91132     91131     91132     91133     91134     91133     91135
     91134     91135     91136     91137     91136     91138     91137     91138
     91139     91140     91139     91141     91140     91141     91142     91143
     91142     91144     91143     91144     91145     91146     91145     91147
     91146     91147     91148     91149     91148     91150     91149     91150
     91151     91152     91151     91153     91152     91153     91154     91155
     91154     91156     91155     91156     91157     91158     91157     91159
     91158     91159     91160     91161     91160     91162     91161     91162
     91163     91164     91163     91165     91164     91165     91166     91167
     91166     91168     91167     91168     91169     91170     91169     91171
     91170     91171     91172     91173     91172     91174     91173     91174
     91175     91176     91175     91177     91176     91177     91178     91179
     91178     91180     91179     91180     91181     91182     91181     91183
     91182     91183     91184     91185     91184     91186     91185     91186
     91187     91188     91187     91189     91188     91189     91190     91191
     91190     91192     91191     91192     91193     91194     91193     91195
     91194     91195     91196     91197     91196     91198     91197     91198
     91199     91200     91199     91201     91200     91201     91202     91203
     91202     91204     91203     91204     91205     91206     91205     91207
     91206     91207     91208     91209     91208     91210     91209     91210
     91211     91212     91211     91213     91212     91213     91214     91215
     91214     91216     91215     91216     91217     91218     91217     91219
     91218     91219     91220     91221     91220     91222     91221     91222
     91223     91224     91223     91225     91224     91225     91226     91227
     91226     91228     91227     91228     91229     91230     91229     91231
     91230     91231     91232     91233     91232     91234     91233     91234
     91235     91236     91235     91237     91236     91237     91238     91239
     91238     91240     91239     91240     91241     91242     91241     91243
     91242     91243     91244     91245     91244     91246     91245     91246
     91247     91248     91247     91249     91248     91249     91250     91251
     91250     91252     91251     91252     91253     91254     91253     91255
     91254     91255     91256     91257     91256     91258     91257     91258
     91259     91260     91259     91261     91260     91261     91262     91263
     91262     91264     91263     91264     91265     91266     91265     91267
     91266     91267     91268     91269     91268     91270     91269     91270
     91271     91272     91271     91273     91272     91273     91274     91275
     91274     91276     91275     91276     91277     91278     91277     91279
     91278     91279     91280     91281     91280     91282     91281     91282
     91283     91284     91283     91285     91284     91285     91286     91287
     91286     91288     91287     91288     91289     91290     91289     91291
     91290     91291     91292     91293     91292     91294     91293     91294
     91295     91296     91295     91297     91296     91297     91298     91299
     91298     91300     91299     91300     91301     91302     91301     91303
     91302     91303     91304     91305     91304     91306     91305     91306
     91307     91308     91307     91309     91308     91309     91310     91311
     91310     91312     91311     91312     91313     91314     91313     91315
     91314     91315     91316     91317     91316     91318     91317     91318
     91319     91320     91319     91321     91320     91321     91322     91323
     91322     91324     91323     91324     91325     91326     91325     91327
     91326     91327     91328     91329     91328     91330     91329     91330
     91331     91332     91331     91333     91332     91333     91334     91335
     91334     91336     91335     91336     91337     91338     91337     91339
     91338     91339     91340     91341     91340     91342     91341     91342
     91343     91344     91343     91345     91344     91345     91346     91347
     91346     91348     91347     91348     91349     91350     91349     91351
     91350     91351     91352     91353     91352     91354     91353     91354
     91355     91356     91355     91357     91356     91357     91358     91359
     91358     91360     91359     91360     91361     91362     91361     91363
     91362     91363     91364     91365     91364     91366     91365     91366
     91367     91368     91367     91369     91368     91369     91370     91371
     91370     91372     91371     91372     91373     91374     91373     91375
     91374     91375     91376     91377     91376     91378     91377     91378
     91379     91380     91379     91381     91380     91381     91382     91383
     91382     91384     91383     91384     91385     91386     91385     91387
     91386     91387     91388     91389     91388     91390     91389     91390
     91391     91392     91391     91393     91392     91393     91394     91395
     91394     91396     91395     91396     91397     91398     91397     91399
     91398     91399     91400     91401     91400     91402     91401     91402
     91403     91404     91403     91405     91404     91405     91406     91407
     91406     91408     91407     91408     91409     91410     91409     91411
     91410     91411     91412     91413     91412     91414     91413     91414
     91415     91416     91415     91417     91416     91417     91418     91419
     91418     91420     91419     91420     91421     91422     91421     91423
     91422     91423     91424     91425     91424     91426     91425     91426
     91427     91428     91427     91429     91428     91429     91430     91431
     91430     91432     91431     91432     91433     91434     91433     91435
     91434     91435     91436     91437     91436     91438     91437     91438
     91439     91440     91439     91441     91440     91441     91442     91443
     91442     91444     91443     91444     91445     91446     91445     91447
     91446     91447     91448     91449     91448     91450     91449     91450
     91451     91452     91451     91453     91452     91453     91454     91455
     91454     91456     91455     91456     91457     91458     91457     91459
     91458     91459     91460     91461     91460     91462     91461     91462
     91463     91464     91463     91465     91464     91465     91466     91467
     91466     91468     91467     91468     91469     91470     91469     91471
     91470     91471     91472     91473     91472     91474     91473     91474
     91475     91476     91475     91477     91476     91477     91478     91479
     91478     91480     91479     91480     91481     91482     91481     91483
     91482     91483     91484     91485     91484     91486     91485     91486
     91487     91488     91487     91489     91488     91489     91490     91491
     91490     91492     91491     91492     91493     91494     91493     91495
     91494     91495     91496     91497     91496     91498     91497     91498
     91499     91500     91499     91501     91500     91501     91502     91503
     91502     91504     91503     91504     91505     91506     91505     91507
     91506     91507     91508     91509     91508     91510     91509     91510
     91511     91512     91511     91513     91512     91513     91514     91515
     91514     91516     91515     91516     91517     91518     91517     91519
     91518     91519     91520     91521     91520     91522     91521     91522
     91523     91524     91523     91525     91524     91525     91526     91527
     91526     91528     91527     91528     91529     91530     91529     91531
     91530     91531     91532     91533     91532     91534     91533     91534
     91535     91536     91535     91537     91536     91537     91538     91539
     91538     91540     91539     91540     91541     91542     91541     91543
     91542     91543     91544     91545     91544     91546     91545     91546
     91547     91548     91547     91549     91548     91549     91550     91551
     91550     91552     91551     91552     91553     91554     91553     91555
     91554     91555     91556     91557     91556     91558     91557     91558
     91559     91560     91559     91561     91560     91561     91562     91563
     91562     91564     91563     91564     91565     91566     91565     91567
     91566     91567     91568     91569     91568     91570     91569     91570
     91571     91572     91571     91573     91572     91573     91574     91575
     91574     91576     91575     91576     91577     91578     91577     91579
     91578     91579     91580     91581     91580     91582     91581     91582
     91583     91584     91583     91585     91584     91585     91586     91587
     91586     91588     91587     91588     91589     91590     91589     91591
     91590     91591     91592     91593     91592     91594     91593     91594
     91595     91596     91595     91597     91596     91597     91598     91599
     91598     91600     91599     91600     91601     91602     91601     91603
     91602     91603     91604     91605     91604     91606     91605     91606
     91607     91608     91607     91609     91608     91609     91610     91611
     91610     91612     91611     91612     91613     91614     91613     91615
     91614     91615     91616     91617     91616     91618     91617     91618
     91619     91620     91619     91621     91620     91621     91622     91623
     91622     91624     91623     91624     91625     91626     91625     91627
     91626     91627     91628     91629     91628     91630     91629     91630
     91631     91632     91631     91633     91632     91633     91634     91635
     91634     91636     91635     91636     91637     91638     91637     91639
     91638     91639     91640     91641     91640     91642     91641     91642
     91643     91644     91643     91645     91644     91645     91646     91647
     91646     91648     91647     91648     91649     91650     91649     91651
     91650     91651     91652     91653     91652     91654     91653     91654
     91655     91656     91655     91657     91656     91657     91658     91659
     91658     91660     91659     91660     91661     91662     91661     91663
     91662     91663     91664     91665     91664     91666     91665     91666
     91667     91668     91667     91669     91668     91669     91670     91671
     91670     91672     91671     91672     91673     91674     91673     91675
     91674     91675     91676     91677     91676     91678     91677     91678
     91679     91680     91679     91681     91680     91681     91682     91683
     91682     91684     91683     91684     91685     91686     91685     91687
     91686     91687     91688     91689     91688     91690     91689     91690
     91691     91692     91691     91693     91692     91693     91694     91695
     91694     91696     91695     91696     91697     91698     91697     91699
     91698     91699     91700     91701     91700     91702     91701     91702
     91703     91704     91703     91705     91704     91705     91706     91707
     91706     91708     91707     91708     91709     91710     91709     91711
     91710     91711     91712     91713     91712     91714     91713     91714
     91715     91716     91715     91717     91716     91717     91718     91719
     91718     91720     91719     91720     91721     91722     91721     91723
     91722     91723     91724     91725     91724     91726     91725     91726
     91727     91728     91727     91729     91728     91729     91730     91731
     91730     91732     91731     91732     91733     91734     91733     91735
     91734     91735     91736     91737     91736     91738     91737     91738
     91739     91740     91739     91741     91740     91741     91742     91743
     91742     91744     91743     91744     91745     91746     91745     91747
     91746     91747     91748     91749     91748     91750     91749     91750
     91751     91752     91751     91753     91752     91753     91754     91755
     91754     91756     91755     91756     91757     91758     91757     91759
     91758     91759     91760     91761     91760     91762     91761     91762
     91763     91764     91763     91765     91764     91765     91766     91767
     91766     91768     91767     91768     91769     91770     91769     91771
     91770     91771     91772     91773     91772     91774     91773     91774
     91775     91776     91775     91777     91776     91777     91778     91779
     91778     91780     91779     91780     91781     91782     91781     91783
     91782     91783     91784     91785     91784     91786     91785     91786
     91787     91788     91787     91789     91788     91789     91790     91791
     91790     91792     91791     91792     91793     91794     91793     91795
     91794     91795     91796     91797     91796     91798     91797     91798
     91799     91800     91799     91801     91800     91801     91802     91803
     91802     91804     91803     91804     91805     91806     91805     91807
     91806     91807     91808     91809     91808     91810     91809     91810
     91811     91812     91811     91813     91812     91813     91814     91815
     91814     91816     91815     91816     91817     91818     91817     91819
     91818     91819     91820     91821     91820     91822     91821     91822
     91823     91824     91823     91825     91824     91825     91826     91827
     91826     91828     91827     91828     91829     91830     91829     91831
     91830     91831     91832     91833     91832     91834     91833     91834
     91835     91836     91835     91837     91836     91837     91838     91839
     91838     91840     91839     91840     91841     91842     91841     91843
     91842     91843     91844     91845     91844     91846     91845     91846
     91847     91848     91847     91849     91848     91849     91850     91851
     91850     91852     91851     91852     91853     91854     91853     91855
     91854     91855     91856     91857     91856     91858     91857     91858
     91859     91860     91859     91861     91860     91861     91862     91863
     91862     91864     91863     91864     91865     91866     91865     91867
     91866     91867     91868     91869     91868     91870     91869     91870
     91871     91872     91871     91873     91872     91873     91874     91875
     91874     91876     91875     91876     91877     91878     91877     91879
     91878     91879     91880     91881     91880     91882     91881     91882
     91883     91884     91883     91885     91884     91885     91886     91887
     91886     91888     91887     91888     91889     91890     91889     91891
     91890     91891     91892     91893     91892     91894     91893     91894
     91895     91896     91895     91897     91896     91897     91898     91899
     91898     91900     91899     91900     91901     91902     91901     91903
     91902     91903     91904     91905     91904     91906     91905     91906
     91907     91908     91907     91909     91908     91909     91910     91911
     91910     91912     91911     91912     91913     91914     91913     91915
     91914     91915     91916     91917     91916     91918     91917     91918
     91919     91920     91919     91921     91920     91921     91922     91923
     91922     91924     91923     91924     91925     91926     91925     91927
     91926     91927     91928     91929     91928     91930     91929     91930
     91931     91932     91931     91933     91932     91933     91934     91935
     91934     91936     91935     91936     91937     91938     91937     91939
     91938     91939     91940     91941     91940     91942     91941     91942
     91943     91944     91943     91945     91944     91945     91946     91947
     91946     91948     91947     91948     91949     91950     91949     91951
     91950     91951     91952     91953     91952     91954     91953     91954
     91955     91956     91955     91957     91956     91957     91958     91959
     91958     91960     91959     91960     91961     91962     91961     91963
     91962     91963     91964     91965     91964     91966     91965     91966
     91967     91968     91967     91969     91968     91969     91970     91971
     91970     91972     91971     91972     91973     91974     91973     91975
     91974     91975     91976     91977     91976     91978     91977     91978
     91979     91980     91979     91981     91980     91981     91982     91983
     91982     91984     91983     91984     91985     91986     91985     91987
     91986     91987     91988     91989     91988     91990     91989     91990
     91991     91992     91991     91993     91992     91993     91994     91995
     91994     91996     91995     91996     91997     91998     91997     91999
     91998     91999     92000     92001     92000     92002     92001     92002
     92003     92004     92003     92005     92004     92005     92006     92007
     92006     92008     92007     92008     92009     92010     92009     92011
     92010     92011     92012     92013     92012     92014     92013     92014
     92015     92016     92015     92017     92016     92017     92018     92019
     92018     92020     92019     92020     92021     92022     92021     92023
     92022     92023     92024     92025     92024     92026     92025     92026
     92027     92028     92027     92029     92028     92029     92030     92031
     92030     92032     92031     92032     92033     92034     92033     92035
     92034     92035     92036     92037     92036     92038     92037     92038
     92039     92040     92039     92041     92040     92041     92042     92043
     92042     92044     92043     92044     92045     92046     92045     92047
     92046     92047     92048     92049     92048     92050     92049     92050
     92051     92052     92051     92053     92052     92053     92054     92055
     92054     92056     92055     92056     92057     92058     92057     92059
     92058     92059     92060     92061     92060     92062     92061     92062
     92063     92064     92063     92065     92064     92065     92066     92067
     92066     92068     92067     92068     92069     92070     92069     92071
     92070     92071     92072     92073     92072     92074     92073     92074
     92075     92076     92075     92077     92076     92077     92078     92079
     92078     92080     92079     92080     92081     92082     92081     92083
     92082     92083     92084     92085     92084     92086     92085     92086
     92087     92088     92087     92089     92088     92089     92090     92091
     92090     92092     92091     92092     92093     92094     92093     92095
     92094     92095     92096     92097     92096     92098     92097     92098
     92099     92100     92099     92101     92100     92101     92102     92103
     92102     92104     92103     92104     92105     92106     92105     92107
     92106     92107     92108     92109     92108     92110     92109     92110
     92111     92112     92111     92113     92112     92113     92114     92115
     92114     92116     92115     92116     92117     92118     92117     92119
     92118     92119     92120     92121     92120     92122     92121     92122
     92123     92124     92123     92125     92124     92125     92126     92127
     92126     92128     92127     92128     92129     92130     92129     92131
     92130     92131     92132     92133     92132     92134     92133     92134
     92135     92136     92135     92137     92136     92137     92138     92139
     92138     92140     92139     92140     92141     92142     92141     92143
     92142     92143     92144     92145     92144     92146     92145     92146
     92147     92148     92147     92149     92148     92149     92150     92151
     92150     92152     92151     92152     92153     92154     92153     92155
     92154     92155     92156     92157     92156     92158     92157     92158
     92159     92160     92159     92161     92160     92161     92162     92163
     92162     92164     92163     92164     92165     92166     92165     92167
     92166     92167     92168     92169     92168     92170     92169     92170
     92171     92172     92171     92173     92172     92173     92174     92175
     92174     92176     92175     92176     92177     92178     92177     92179
     92178     92179     92180     92181     92180     92182     92181     92182
     92183     92184     92183     92185     92184     92185     92186     92187
     92186     92188     92187     92188     92189     92190     92189     92191
     92190     92191     92192     92193     92192     92194     92193     92194
     92195     92196     92195     92197     92196     92197     92198     92199
     92198     92200     92199     92200     92201     92202     92201     92203
     92202     92203     92204     92205     92204     92206     92205     92206
     92207     92208     92207     92209     92208     92209     92210     92211
     92210     92212     92211     92212     92213     92214     92213     92215
     92214     92215     92216     92217     92216     92218     92217     92218
     92219     92220     92219     92221     92220     92221     92222     92223
     92222     92224     92223     92224     92225     92226     92225     92227
     92226     92227     92228     92229     92228     92230     92229     92230
     92231     92232     92231     92233     92232     92233     92234     92235
     92234     92236     92235     92236     92237     92238     92237     92239
     92238     92239     92240     92241     92240     92242     92241     92242
     92243     92244     92243     92245     92244     92245     92246     92247
     92246     92248     92247     92248     92249     92250     92249     92251
     92250     92251     92252     92253     92252     92254     92253     92254
     92255     92256     92255     92257     92256     92257     92258     92259
     92258     92260     92259     92260     92261     92262     92261     92263
     92262     92263     92264     92265     92264     92266     92265     92266
     92267     92268     92267     92269     92268     92269     92270     92271
     92270     92272     92271     92272     92273     92274     92273     92275
     92274     92275     92276     92277     92276     92278     92277     92278
     92279     92280     92279     92281     92280     92281     92282     92283
     92282     92284     92283     92284     92285     92286     92285     92287
     92286     92287     92288     92289     92288     92290     92289     92290
     92291     92292     92291     92293     92292     92293     92294     92295
     92294     92296     92295     92296     92297     92298     92297     92299
     92298     92299     92300     92301     92300     92302     92301     92302
     92303     92304     92303     92305     92304     92305     92306     92307
     92306     92308     92307     92308     92309     92310     92309     92311
     92310     92311     92312     92313     92312     92314     92313     92314
     92315     92316     92315     92317     92316     92317     92318     92319
     92318     92320     92319     92320     92321     92322     92321     92323
     92322     92323     92324     92325     92324     92326     92325     92326
     92327     92328     92327     92329     92328     92329     92330     92331
     92330     92332     92331     92332     92333     92334     92333     92335
     92334     92335     92336     92337     92336     92338     92337     92338
     92339     92340     92339     92341     92340     92341     92342     92343
     92342     92344     92343     92344     92345     92346     92345     92347
     92346     92347     92348     92349     92348     92350     92349     92350
     92351     92352     92351     92353     92352     92353     92354     92355
     92354     92356     92355     92356     92357     92358     92357     92359
     92358     92359     92360     92361     92360     92362     92361     92362
     92363     92364     92363     92365     92364     92365     92366     92367
     92366     92368     92367     92368     92369     92370     92369     92371
     92370     92371     92372     92373     92372     92374     92373     92374
     92375     92376     92375     92377     92376     92377     92378     92379
     92378     92380     92379     92380     92381     92382     92381     92383
     92382     92383     92384     92385     92384     92386     92385     92386
     92387     92388     92387     92389     92388     92389     92390     92391
     92390     92392     92391     92392     92393     92394     92393     92395
     92394     92395     92396     92397     92396     92398     92397     92398
     92399     92400     92399     92401     92400     92401     92402     92403
     92402     92404     92403     92404     92405     92406     92405     92407
     92406     92407     92408     92409     92408     92410     92409     92410
     92411     92412     92411     92413     92412     92413     92414     92415
     92414     92416     92415     92416     92417     92418     92417     92419
     92418     92419     92420     92421     92420     92422     92421     92422
     92423     92424     92423     92425     92424     92425     92426     92427
     92426     92428     92427     92428     92429     92430     92429     92431
     92430     92431     92432     92433     92432     92434     92433     92434
     92435     92436     92435     92437     92436     92437     92438     92439
     92438     92440     92439     92440     92441     92442     92441     92443
     92442     92443     92444     92445     92444     92446     92445     92446
     92447     92448     92447     92449     92448     92449     92450     92451
     92450     92452     92451     92452     92453     92454     92453     92455
     92454     92455     92456     92457     92456     92458     92457     92458
     92459     92460     92459     92461     92460     92461     92462     92463
     92462     92464     92463     92464     92465     92466     92465     92467
     92466     92467     92468     92469     92468     92470     92469     92470
     92471     92472     92471     92473     92472     92473     92474     92475
     92474     92476     92475     92476     92477     92478     92477     92479
     92478     92479     92480     92481     92480     92482     92481     92482
     92483     92484     92483     92485     92484     92485     92486     92487
     92486     92488     92487     92488     92489     92490     92489     92491
     92490     92491     92492     92493     92492     92494     92493     92494
     92495     92496     92495     92497     92496     92497     92498     92499
     92498     92500     92499     92500     92501     92502     92501     92503
     92502     92503     92504     92505     92504     92506     92505     92506
     92507     92508     92507     92509     92508     92509     92510     92511
     92510     92512     92511     92512     92513     92514     92513     92515
     92514     92515     92516     92517     92516     92518     92517     92518
     92519     92520     92519     92521     92520     92521     92522     92523
     92522     92524     92523     92524     92525     92526     92525     92527
     92526     92527     92528     92529     92528     92530     92529     92530
     92531     92532     92531     92533     92532     92533     92534     92535
     92534     92536     92535     92536     92537     92538     92537     92539
     92538     92539     92540     92541     92540     92542     92541     92542
     92543     92544     92543     92545     92544     92545     92546     92547
     92546     92548     92547     92548     92549     92550     92549     92551
     92550     92551     92552     92553     92552     92554     92553     92554
     92555     92556     92555     92557     92556     92557     92558     92559
     92558     92560     92559     92560     92561     92562     92561     92563
     92562     92563     92564     92565     92564     92566     92565     92566
     92567     92568     92567     92569     92568     92569     92570     92571
     92570     92572     92571     92572     92573     92574     92573     92575
     92574     92575     92576     92577     92576     92578     92577     92578
     92579     92580     92579     92581     92580     92581     92582     92583
     92582     92584     92583     92584     92585     92586     92585     92587
     92586     92587     92588     92589     92588     92590     92589     92590
     92591     92592     92591     92593     92592     92593     92594     92595
     92594     92596     92595     92596     92597     92598     92597     92599
     92598     92599     92600     92601     92600     92602     92601     92602
     92603     92604     92603     92605     92604     92605     92606     92607
     92606     92608     92607     92608     92609     92610     92609     92611
     92610     92611     92612     92613     92612     92614     92613     92614
     92615     92616     92615     92617     92616     92617     92618     92619
     92618     92620     92619     92620     92621     92622     92621     92623
     92622     92623     92624     92625     92624     92626     92625     92626
     92627     92628     92627     92629     92628     92629     92630     92631
     92630     92632     92631     92632     92633     92634     92633     92635
     92634     92635     92636     92637     92636     92638     92637     92638
     92639     92640     92639     92641     92640     92641     92642     92643
     92642     92644     92643     92644     92645     92646     92645     92647
     92646     92647     92648     92649     92648     92650     92649     92650
     92651     92652     92651     92653     92652     92653     92654     92655
     92654     92656     92655     92656     92657     92658     92657     92659
     92658     92659     92660     92661     92660     92662     92661     92662
     92663     92664     92663     92665     92664     92665     92666     92667
     92666     92668     92667     92668     92669     92670     92669     92671
     92670     92671     92672     92673     92672     92674     92673     92674
     92675     92676     92675     92677     92676     92677     92678     92679
     92678     92680     92679     92680     92681     92682     92681     92683
     92682     92683     92684     92685     92684     92686     92685     92686
     92687     92688     92687     92689     92688     92689     92690     92691
     92690     92692     92691     92692     92693     92694     92693     92695
     92694     92695     92696     92697     92696     92698     92697     92698
     92699     92700     92699     92701     92700     92701     92702     92703
     92702     92704     92703     92704     92705     92706     92705     92707
     92706     92707     92708     92709     92708     92710     92709     92710
     92711     92712     92711     92713     92712     92713     92714     92715
     92714     92716     92715     92716     92717     92718     92717     92719
     92718     92719     92720     92721     92720     92722     92721     92722
     92723     92724     92723     92725     92724     92725     92726     92727
     92726     92728     92727     92728     92729     92730     92729     92731
     92730     92731     92732     92733     92732     92734     92733     92734
     92735     92736     92735     92737     92736     92737     92738     92739
     92738     92740     92739     92740     92741     92742     92741     92743
     92742     92743     92744     92745     92744     92746     92745     92746
     92747     92748     92747     92749     92748     92749     92750     92751
     92750     92752     92751     92752     92753     92754     92753     92755
     92754     92755     92756     92757     92756     92758     92757     92758
     92759     92760     92759     92761     92760     92761     92762     92763
     92762     92764     92763     92764     92765     92766     92765     92767
     92766     92767     92768     92769     92768     92770     92769     92770
     92771     92772     92771     92773     92772     92773     92774     92775
     92774     92776     92775     92776     92777     92778     92777     92779
     92778     92779     92780     92781     92780     92782     92781     92782
     92783     92784     92783     92785     92784     92785     92786     92787
     92786     92788     92787     92788     92789     92790     92789     92791
     92790     92791     92792     92793     92792     92794     92793     92794
     92795     92796     92795     92797     92796     92797     92798     92799
     92798     92800     92799     92800     92801     92802     92801     92803
     92802     92803     92804     92805     92804     92806     92805     92806
     92807     92808     92807     92809     92808     92809     92810     92811
     92810     92812     92811     92812     92813     92814     92813     92815
     92814     92815     92816     92817     92816     92818     92817     92818
     92819     92820     92819     92821     92820     92821     92822     92823
     92822     92824     92823     92824     92825     92826     92825     92827
     92826     92827     92828     92829     92828     92830     92829     92830
     92831     92832     92831     92833     92832     92833     92834     92835
     92834     92836     92835     92836     92837     92838     92837     92839
     92838     92839     92840     92841     92840     92842     92841     92842
     92843     92844     92843     92845     92844     92845     92846     92847
     92846     92848     92847     92848     92849     92850     92849     92851
     92850     92851     92852     92853     92852     92854     92853     92854
     92855     92856     92855     92857     92856     92857     92858     92859
     92858     92860     92859     92860     92861     92862     92861     92863
     92862     92863     92864     92865     92864     92866     92865     92866
     92867     92868     92867     92869     92868     92869     92870     92871
     92870     92872     92871     92872     92873     92874     92873     92875
     92874     92875     92876     92877     92876     92878     92877     92878
     92879     92880     92879     92881     92880     92881     92882     92883
     92882     92884     92883     92884     92885     92886     92885     92887
     92886     92887     92888     92889     92888     92890     92889     92890
     92891     92892     92891     92893     92892     92893     92894     92895
     92894     92896     92895     92896     92897     92898     92897     92899
     92898     92899     92900     92901     92900     92902     92901     92902
     92903     92904     92903     92905     92904     92905     92906     92907
     92906     92908     92907     92908     92909     92910     92909     92911
     92910     92911     92912     92913     92912     92914     92913     92914
     92915     92916     92915     92917     92916     92917     92918     92919
     92918     92920     92919     92920     92921     92922     92921     92923
     92922     92923     92924     92925     92924     92926     92925     92926
     92927     92928     92927     92929     92928     92929     92930     92931
     92930     92932     92931     92932     92933     92934     92933     92935
     92934     92935     92936     92937     92936     92938     92937     92938
     92939     92940     92939     92941     92940     92941     92942     92943
     92942     92944     92943     92944     92945     92946     92945     92947
     92946     92947     92948     92949     92948     92950     92949     92950
     92951     92952     92951     92953     92952     92953     92954     92955
     92954     92956     92955     92956     92957     92958     92957     92959
     92958     92959     92960     92961     92960     92962     92961     92962
     92963     92964     92963     92965     92964     92965     92966     92967
     92966     92968     92967     92968     92969     92970     92969     92971
     92970     92971     92972     92973     92972     92974     92973     92974
     92975     92976     92975     92977     92976     92977     92978     92979
     92978     92980     92979     92980     92981     92982     92981     92983
     92982     92983     92984     92985     92984     92986     92985     92986
     92987     92988     92987     92989     92988     92989     92990     92991
     92990     92992     92991     92992     92993     92994     92993     92995
     92994     92995     92996     92997     92996     92998     92997     92998
     92999     93000     92999     93001     93000     93001     93002     93003
     93002     93004     93003     93004     93005     93006     93005     93007
     93006     93007     93008     93009     93008     93010     93009     93010
     93011     93012     93011     93013     93012     93013     93014     93015
     93014     93016     93015     93016     93017     93018     93017     93019
     93018     93019     93020     93021     93020     93022     93021     93022
     93023     93024     93023     93025     93024     93025     93026     93027
     93026     93028     93027     93028     93029     93030     93029     93031
     93030     93031     93032     93033     93032     93034     93033     93034
     93035     93036     93035     93037     93036     93037     93038     93039
     93038     93040     93039     93040     93041     93042     93041     93043
     93042     93043     93044     93045     93044     93046     93045     93046
     93047     93048     93047     93049     93048     93049     93050     93051
     93050     93052     93051     93052     93053     93054     93053     93055
     93054     93055     93056     93057     93056     93058     93057     93058
     93059     93060     93059     93061     93060     93061     93062     93063
     93062     93064     93063     93064     93065     93066     93065     93067
     93066     93067     93068     93069     93068     93070     93069     93070
     93071     93072     93071     93073     93072     93073     93074     93075
     93074     93076     93075     93076     93077     93078     93077     93079
     93078     93079     93080     93081     93080     93082     93081     93082
     93083     93084     93083     93085     93084     93085     93086     93087
     93086     93088     93087     93088     93089     93090     93089     93091
     93090     93091     93092     93093     93092     93094     93093     93094
     93095     93096     93095     93097     93096     93097     93098     93099
     93098     93100     93099     93100     93101     93102     93101     93103
     93102     93103     93104     93105     93104     93106     93105     93106
     93107     93108     93107     93109     93108     93109     93110     93111
     93110     93112     93111     93112     93113     93114     93113     93115
     93114     93115     93116     93117     93116     93118     93117     93118
     93119     93120     93119     93121     93120     93121     93122     93123
     93122     93124     93123     93124     93125     93126     93125     93127
     93126     93127     93128     93129     93128     93130     93129     93130
     93131     93132     93131     93133     93132     93133     93134     93135
     93134     93136     93135     93136     93137     93138     93137     93139
     93138     93139     93140     93141     93140     93142     93141     93142
     93143     93144     93143     93145     93144     93145     93146     93147
     93146     93148     93147     93148     93149     93150     93149     93151
     93150     93151     93152     93153     93152     93154     93153     93154
     93155     93156     93155     93157     93156     93157     93158     93159
     93158     93160     93159     93160     93161     93162     93161     93163
     93162     93163     93164     93165     93164     93166     93165     93166
     93167     93168     93167     93169     93168     93169     93170     93171
     93170     93172     93171     93172     93173     93174     93173     93175
     93174     93175     93176     93177     93176     93178     93177     93178
     93179     93180     93179     93181     93180     93181     93182     93183
     93182     93184     93183     93184     93185     93186     93185     93187
     93186     93187     93188     93189     93188     93190     93189     93190
     93191     93192     93191     93193     93192     93193     93194     93195
     93194     93196     93195     93196     93197     93198     93197     93199
     93198     93199     93200     93201     93200     93202     93201     93202
     93203     93204     93203     93205     93204     93205     93206     93207
     93206     93208     93207     93208     93209     93210     93209     93211
     93210     93211     93212     93213     93212     93214     93213     93214
     93215     93216     93215     93217     93216     93217     93218     93219
     93218     93220     93219     93220     93221     93222     93221     93223
     93222     93223     93224     93225     93224     93226     93225     93226
     93227     93228     93227     93229     93228     93229     93230     93231
     93230     93232     93231     93232     93233     93234     93233     93235
     93234     93235     93236     93237     93236     93238     93237     93238
     93239     93240     93239     93241     93240     93241     93242     93243
     93242     93244     93243     93244     93245     93246     93245     93247
     93246     93247     93248     93249     93248     93250     93249     93250
     93251     93252     93251     93253     93252     93253     93254     93255
     93254     93256     93255     93256     93257     93258     93257     93259
     93258     93259     93260     93261     93260     93262     93261     93262
     93263     93264     93263     93265     93264     93265     93266     93267
     93266     93268     93267     93268     93269     93270     93269     93271
     93270     93271     93272     93273     93272     93274     93273     93274
     93275     93276     93275     93277     93276     93277     93278     93279
     93278     93280     93279     93280     93281     93282     93281     93283
     93282     93283     93284     93285     93284     93286     93285     93286
     93287     93288     93287     93289     93288     93289     93290     93291
     93290     93292     93291     93292     93293     93294     93293     93295
     93294     93295     93296     93297     93296     93298     93297     93298
     93299     93300     93299     93301     93300     93301     93302     93303
     93302     93304     93303     93304     93305     93306     93305     93307
     93306     93307     93308     93309     93308     93310     93309     93310
     93311     93312     93311     93313     93312     93313     93314     93315
     93314     93316     93315     93316     93317     93318     93317     93319
     93318     93319     93320     93321     93320     93322     93321     93322
     93323     93324     93323     93325     93324     93325     93326     93327
     93326     93328     93327     93328     93329     93330     93329     93331
     93330     93331     93332     93333     93332     93334     93333     93334
     93335     93336     93335     93337     93336     93337     93338     93339
     93338     93340     93339     93340     93341     93342     93341     93343
     93342     93343     93344     93345     93344     93346     93345     93346
     93347     93348     93347     93349     93348     93349     93350     93351
     93350     93352     93351     93352     93353     93354     93353     93355
     93354     93355     93356     93357     93356     93358     93357     93358
     93359     93360     93359     93361     93360     93361     93362     93363
     93362     93364     93363     93364     93365     93366     93365     93367
     93366     93367     93368     93369     93368     93370     93369     93370
     93371     93372     93371     93373     93372     93373     93374     93375
     93374     93376     93375     93376     93377     93378     93377     93379
     93378     93379     93380     93381     93380     93382     93381     93382
     93383     93384     93383     93385     93384     93385     93386     93387
     93386     93388     93387     93388     93389     93390     93389     93391
     93390     93391     93392     93393     93392     93394     93393     93394
     93395     93396     93395     93397     93396     93397     93398     93399
     93398     93400     93399     93400     93401     93402     93401     93403
     93402     93403     93404     93405     93404     93406     93405     93406
     93407     93408     93407     93409     93408     93409     93410     93411
     93410     93412     93411     93412     93413     93414     93413     93415
     93414     93415     93416     93417     93416     93418     93417     93418
     93419     93420     93419     93421     93420     93421     93422     93423
     93422     93424     93423     93424     93425     93426     93425     93427
     93426     93427     93428     93429     93428     93430     93429     93430
     93431     93432     93431     93433     93432     93433     93434     93435
     93434     93436     93435     93436     93437     93438     93437     93439
     93438     93439     93440     93441     93440     93442     93441     93442
     93443     93444     93443     93445     93444     93445     93446     93447
     93446     93448     93447     93448     93449     93450     93449     93451
     93450     93451     93452     93453     93452     93454     93453     93454
     93455     93456     93455     93457     93456     93457     93458     93459
     93458     93460     93459     93460     93461     93462     93461     93463
     93462     93463     93464     93465     93464     93466     93465     93466
     93467     93468     93467     93469     93468     93469     93470     93471
     93470     93472     93471     93472     93473     93474     93473     93475
     93474     93475     93476     93477     93476     93478     93477     93478
     93479     93480     93479     93481     93480     93481     93482     93483
     93482     93484     93483     93484     93485     93486     93485     93487
     93486     93487     93488     93489     93488     93490     93489     93490
     93491     93492     93491     93493     93492     93493     93494     93495
     93494     93496     93495     93496     93497     93498     93497     93499
     93498     93499     93500     93501     93500     93502     93501     93502
     93503     93504     93503     93505     93504     93505     93506     93507
     93506     93508     93507     93508     93509     93510     93509     93511
     93510     93511     93512     93513     93512     93514     93513     93514
     93515     93516     93515     93517     93516     93517     93518     93519
     93518     93520     93519     93520     93521     93522     93521     93523
     93522     93523     93524     93525     93524     93526     93525     93526
     93527     93528     93527     93529     93528     93529     93530     93531
     93530     93532     93531     93532     93533     93534     93533     93535
     93534     93535     93536     93537     93536     93538     93537     93538
     93539     93540     93539     93541     93540     93541     93542     93543
     93542     93544     93543     93544     93545     93546     93545     93547
     93546     93547     93548     93549     93548     93550     93549     93550
     93551     93552     93551     93553     93552     93553     93554     93555
     93554     93556     93555     93556     93557     93558     93557     93559
     93558     93559     93560     93561     93560     93562     93561     93562
     93563     93564     93563     93565     93564     93565     93566     93567
     93566     93568     93567     93568     93569     93570     93569     93571
     93570     93571     93572     93573     93572     93574     93573     93574
     93575     93576     93575     93577     93576     93577     93578     93579
     93578     93580     93579     93580     93581     93582     93581     93583
     93582     93583     93584     93585     93584     93586     93585     93586
     93587     93588     93587     93589     93588     93589     93590     93591
     93590     93592     93591     93592     93593     93594     93593     93595
     93594     93595     93596     93597     93596     93598     93597     93598
     93599     93600     93599     93601     93600     93601     93602     93603
     93602     93604     93603     93604     93605     93606     93605     93607
     93606     93607     93608     93609     93608     93610     93609     93610
     93611     93612     93611     93613     93612     93613     93614     93615
     93614     93616     93615     93616     93617     93618     93617     93619
     93618     93619     93620     93621     93620     93622     93621     93622
     93623     93624     93623     93625     93624     93625     93626     93627
     93626     93628     93627     93628     93629     93630     93629     93631
     93630     93631     93632     93633     93632     93634     93633     93634
     93635     93636     93635     93637     93636     93637     93638     93639
     93638     93640     93639     93640     93641     93642     93641     93643
     93642     93643     93644     93645     93644     93646     93645     93646
     93647     93648     93647     93649     93648     93649     93650     93651
     93650     93652     93651     93652     93653     93654     93653     93655
     93654     93655     93656     93657     93656     93658     93657     93658
     93659     93660     93659     93661     93660     93661     93662     93663
     93662     93664     93663     93664     93665     93666     93665     93667
     93666     93667     93668     93669     93668     93670     93669     93670
     93671     93672     93671     93673     93672     93673     93674     93675
     93674     93676     93675     93676     93677     93678     93677     93679
     93678     93679     93680     93681     93680     93682     93681     93682
     93683     93684     93683     93685     93684     93685     93686     93687
     93686     93688     93687     93688     93689     93690     93689     93691
     93690     93691     93692     93693     93692     93694     93693     93694
     93695     93696     93695     93697     93696     93697     93698     93699
     93698     93700     93699     93700     93701     93702     93701     93703
     93702     93703     93704     93705     93704     93706     93705     93706
     93707     93708     93707     93709     93708     93709     93710     93711
     93710     93712     93711     93712     93713     93714     93713     93715
     93714     93715     93716     93717     93716     93718     93717     93718
     93719     93720     93719     93721     93720     93721     93722     93723
     93722     93724     93723     93724     93725     93726     93725     93727
     93726     93727     93728     93729     93728     93730     93729     93730
     93731     93732     93731     93733     93732     93733     93734     93735
     93734     93736     93735     93736     93737     93738     93737     93739
     93738     93739     93740     93741     93740     93742     93741     93742
     93743     93744     93743     93745     93744     93745     93746     93747
     93746     93748     93747     93748     93749     93750     93749     93751
     93750     93751     93752     93753     93752     93754     93753     93754
     93755     93756     93755     93757     93756     93757     93758     93759
     93758     93760     93759     93760     93761     93762     93761     93763
     93762     93763     93764     93765     93764     93766     93765     93766
     93767     93768     93767     93769     93768     93769     93770     93771
     93770     93772     93771     93772     93773     93774     93773     93775
     93774     93775     93776     93777     93776     93778     93777     93778
     93779     93780     93779     93781     93780     93781     93782     93783
     93782     93784     93783     93784     93785     93786     93785     93787
     93786     93787     93788     93789     93788     93790     93789     93790
     93791     93792     93791     93793     93792     93793     93794     93795
     93794     93796     93795     93796     93797     93798     93797     93799
     93798     93799     93800     93801     93800     93802     93801     93802
     93803     93804     93803     93805     93804     93805     93806     93807
     93806     93808     93807     93808     93809     93810     93809     93811
     93810     93811     93812     93813     93812     93814     93813     93814
     93815     93816     93815     93817     93816     93817     93818     93819
     93818     93820     93819     93820     93821     93822     93821     93823
     93822     93823     93824     93825     93824     93826     93825     93826
     93827     93828     93827     93829     93828     93829     93830     93831
     93830     93832     93831     93832     93833     93834     93833     93835
     93834     93835     93836     93837     93836     93838     93837     93838
     93839     93840     93839     93841     93840     93841     93842     93843
     93842     93844     93843     93844     93845     93846     93845     93847
     93846     93847     93848     93849     93848     93850     93849     93850
     93851     93852     93851     93853     93852     93853     93854     93855
     93854     93856     93855     93856     93857     93858     93857     93859
     93858     93859     93860     93861     93860     93862     93861     93862
     93863     93864     93863     93865     93864     93865     93866     93867
     93866     93868     93867     93868     93869     93870     93869     93871
     93870     93871     93872     93873     93872     93874     93873     93874
     93875     93876     93875     93877     93876     93877     93878     93879
     93878     93880     93879     93880     93881     93882     93881     93883
     93882     93883     93884     93885     93884     93886     93885     93886
     93887     93888     93887     93889     93888     93889     93890     93891
     93890     93892     93891     93892     93893     93894     93893     93895
     93894     93895     93896     93897     93896     93898     93897     93898
     93899     93900     93899     93901     93900     93901     93902     93903
     93902     93904     93903     93904     93905     93906     93905     93907
     93906     93907     93908     93909     93908     93910     93909     93910
     93911     93912     93911     93913     93912     93913     93914     93915
     93914     93916     93915     93916     93917     93918     93917     93919
     93918     93919     93920     93921     93920     93922     93921     93922
     93923     93924     93923     93925     93924     93925     93926     93927
     93926     93928     93927     93928     93929     93930     93929     93931
     93930     93931     93932     93933     93932     93934     93933     93934
     93935     93936     93935     93937     93936     93937     93938     93939
     93938     93940     93939     93940     93941     93942     93941     93943
     93942     93943     93944     93945     93944     93946     93945     93946
     93947     93948     93947     93949     93948     93949     93950     93951
     93950     93952     93951     93952     93953     93954     93953     93955
     93954     93955     93956     93957     93956     93958     93957     93958
     93959     93960     93959     93961     93960     93961     93962     93963
     93962     93964     93963     93964     93965     93966     93965     93967
     93966     93967     93968     93969     93968     93970     93969     93970
     93971     93972     93971     93973     93972     93973     93974     93975
     93974     93976     93975     93976     93977     93978     93977     93979
     93978     93979     93980     93981     93980     93982     93981     93982
     93983     93984     93983     93985     93984     93985     93986     93987
     93986     93988     93987     93988     93989     93990     93989     93991
     93990     93991     93992     93993     93992     93994     93993     93994
     93995     93996     93995     93997     93996     93997     93998     93999
     93998     94000     93999     94000     94001     94002     94001     94003
     94002     94003     94004     94005     94004     94006     94005     94006
     94007     94008     94007     94009     94008     94009     94010     94011
     94010     94012     94011     94012     94013     94014     94013     94015
     94014     94015     94016     94017     94016     94018     94017     94018
     94019     94020     94019     94021     94020     94021     94022     94023
     94022     94024     94023     94024     94025     94026     94025     94027
     94026     94027     94028     94029     94028     94030     94029     94030
     94031     94032     94031     94033     94032     94033     94034     94035
     94034     94036     94035     94036     94037     94038     94037     94039
     94038     94039     94040     94041     94040     94042     94041     94042
     94043     94044     94043     94045     94044     94045     94046     94047
     94046     94048     94047     94048     94049     94050     94049     94051
     94050     94051     94052     94053     94052     94054     94053     94054
     94055     94056     94055     94057     94056     94057     94058     94059
     94058     94060     94059     94060     94061     94062     94061     94063
     94062     94063     94064     94065     94064     94066     94065     94066
     94067     94068     94067     94069     94068     94069     94070     94071
     94070     94072     94071     94072     94073     94074     94073     94075
     94074     94075     94076     94077     94076     94078     94077     94078
     94079     94080     94079     94081     94080     94081     94082     94083
     94082     94084     94083     94084     94085     94086     94085     94087
     94086     94087     94088     94089     94088     94090     94089     94090
     94091     94092     94091     94093     94092     94093     94094     94095
     94094     94096     94095     94096     94097     94098     94097     94099
     94098     94099     94100     94101     94100     94102     94101     94102
     94103     94104     94103     94105     94104     94105     94106     94107
     94106     94108     94107     94108     94109     94110     94109     94111
     94110     94111     94112     94113     94112     94114     94113     94114
     94115     94116     94115     94117     94116     94117     94118     94119
     94118     94120     94119     94120     94121     94122     94121     94123
     94122     94123     94124     94125     94124     94126     94125     94126
     94127     94128     94127     94129     94128     94129     94130     94131
     94130     94132     94131     94132     94133     94134     94133     94135
     94134     94135     94136     94137     94136     94138     94137     94138
     94139     94140     94139     94141     94140     94141     94142     94143
     94142     94144     94143     94144     94145     94146     94145     94147
     94146     94147     94148     94149     94148     94150     94149     94150
     94151     94152     94151     94153     94152     94153     94154     94155
     94154     94156     94155     94156     94157     94158     94157     94159
     94158     94159     94160     94161     94160     94162     94161     94162
     94163     94164     94163     94165     94164     94165     94166     94167
     94166     94168     94167     94168     94169     94170     94169     94171
     94170     94171     94172     94173     94172     94174     94173     94174
     94175     94176     94175     94177     94176     94177     94178     94179
     94178     94180     94179     94180     94181     94182     94181     94183
     94182     94183     94184     94185     94184     94186     94185     94186
     94187     94188     94187     94189     94188     94189     94190     94191
     94190     94192     94191     94192     94193     94194     94193     94195
     94194     94195     94196     94197     94196     94198     94197     94198
     94199     94200     94199     94201     94200     94201     94202     94203
     94202     94204     94203     94204     94205     94206     94205     94207
     94206     94207     94208     94209     94208     94210     94209     94210
     94211     94212     94211     94213     94212     94213     94214     94215
     94214     94216     94215     94216     94217     94218     94217     94219
     94218     94219     94220     94221     94220     94222     94221     94222
     94223     94224     94223     94225     94224     94225     94226     94227
     94226     94228     94227     94228     94229     94230     94229     94231
     94230     94231     94232     94233     94232     94234     94233     94234
     94235     94236     94235     94237     94236     94237     94238     94239
     94238     94240     94239     94240     94241     94242     94241     94243
     94242     94243     94244     94245     94244     94246     94245     94246
     94247     94248     94247     94249     94248     94249     94250     94251
     94250     94252     94251     94252     94253     94254     94253     94255
     94254     94255     94256     94257     94256     94258     94257     94258
     94259     94260     94259     94261     94260     94261     94262     94263
     94262     94264     94263     94264     94265     94266     94265     94267
     94266     94267     94268     94269     94268     94270     94269     94270
     94271     94272     94271     94273     94272     94273     94274     94275
     94274     94276     94275     94276     94277     94278     94277     94279
     94278     94279     94280     94281     94280     94282     94281     94282
     94283     94284     94283     94285     94284     94285     94286     94287
     94286     94288     94287     94288     94289     94290     94289     94291
     94290     94291     94292     94293     94292     94294     94293     94294
     94295     94296     94295     94297     94296     94297     94298     94299
     94298     94300     94299     94300     94301     94302     94301     94303
     94302     94303     94304     94305     94304     94306     94305     94306
     94307     94308     94307     94309     94308     94309     94310     94311
     94310     94312     94311     94312     94313     94314     94313     94315
     94314     94315     94316     94317     94316     94318     94317     94318
     94319     94320     94319     94321     94320     94321     94322     94323
     94322     94324     94323     94324     94325     94326     94325     94327
     94326     94327     94328     94329     94328     94330     94329     94330
     94331     94332     94331     94333     94332     94333     94334     94335
     94334     94336     94335     94336     94337     94338     94337     94339
     94338     94339     94340     94341     94340     94342     94341     94342
     94343     94344     94343     94345     94344     94345     94346     94347
     94346     94348     94347     94348     94349     94350     94349     94351
     94350     94351     94352     94353     94352     94354     94353     94354
     94355     94356     94355     94357     94356     94357     94358     94359
     94358     94360     94359     94360     94361     94362     94361     94363
     94362     94363     94364     94365     94364     94366     94365     94366
     94367     94368     94367     94369     94368     94369     94370     94371
     94370     94372     94371     94372     94373     94374     94373     94375
     94374     94375     94376     94377     94376     94378     94377     94378
     94379     94380     94379     94381     94380     94381     94382     94383
     94382     94384     94383     94384     94385     94386     94385     94387
     94386     94387     94388     94389     94388     94390     94389     94390
     94391     94392     94391     94393     94392     94393     94394     94395
     94394     94396     94395     94396     94397     94398     94397     94399
     94398     94399     94400     94401     94400     94402     94401     94402
     94403     94404     94403     94405     94404     94405     94406     94407
     94406     94408     94407     94408     94409     94410     94409     94411
     94410     94411     94412     94413     94412     94414     94413     94414
     94415     94416     94415     94417     94416     94417     94418     94419
     94418     94420     94419     94420     94421     94422     94421     94423
     94422     94423     94424     94425     94424     94426     94425     94426
     94427     94428     94427     94429     94428     94429     94430     94431
     94430     94432     94431     94432     94433     94434     94433     94435
     94434     94435     94436     94437     94436     94438     94437     94438
     94439     94440     94439     94441     94440     94441     94442     94443
     94442     94444     94443     94444     94445     94446     94445     94447
     94446     94447     94448     94449     94448     94450     94449     94450
     94451     94452     94451     94453     94452     94453     94454     94455
     94454     94456     94455     94456     94457     94458     94457     94459
     94458     94459     94460     94461     94460     94462     94461     94462
     94463     94464     94463     94465     94464     94465     94466     94467
     94466     94468     94467     94468     94469     94470     94469     94471
     94470     94471     94472     94473     94472     94474     94473     94474
     94475     94476     94475     94477     94476     94477     94478     94479
     94478     94480     94479     94480     94481     94482     94481     94483
     94482     94483     94484     94485     94484     94486     94485     94486
     94487     94488     94487     94489     94488     94489     94490     94491
     94490     94492     94491     94492     94493     94494     94493     94495
     94494     94495     94496     94497     94496     94498     94497     94498
     94499     94500     94499     94501     94500     94501     94502     94503
     94502     94504     94503     94504     94505     94506     94505     94507
     94506     94507     94508     94509     94508     94510     94509     94510
     94511     94512     94511     94513     94512     94513     94514     94515
     94514     94516     94515     94516     94517     94518     94517     94519
     94518     94519     94520     94521     94520     94522     94521     94522
     94523     94524     94523     94525     94524     94525     94526     94527
     94526     94528     94527     94528     94529     94530     94529     94531
     94530     94531     94532     94533     94532     94534     94533     94534
     94535     94536     94535     94537     94536     94537     94538     94539
     94538     94540     94539     94540     94541     94542     94541     94543
     94542     94543     94544     94545     94544     94546     94545     94546
     94547     94548     94547     94549     94548     94549     94550     94551
     94550     94552     94551     94552     94553     94554     94553     94555
     94554     94555     94556     94557     94556     94558     94557     94558
     94559     94560     94559     94561     94560     94561     94562     94563
     94562     94564     94563     94564     94565     94566     94565     94567
     94566     94567     94568     94569     94568     94570     94569     94570
     94571     94572     94571     94573     94572     94573     94574     94575
     94574     94576     94575     94576     94577     94578     94577     94579
     94578     94579     94580     94581     94580     94582     94581     94582
     94583     94584     94583     94585     94584     94585     94586     94587
     94586     94588     94587     94588     94589     94590     94589     94591
     94590     94591     94592     94593     94592     94594     94593     94594
     94595     94596     94595     94597     94596     94597     94598     94599
     94598     94600     94599     94600     94601     94602     94601     94603
     94602     94603     94604     94605     94604     94606     94605     94606
     94607     94608     94607     94609     94608     94609     94610     94611
     94610     94612     94611     94612     94613     94614     94613     94615
     94614     94615     94616     94617     94616     94618     94617     94618
     94619     94620     94619     94621     94620     94621     94622     94623
     94622     94624     94623     94624     94625     94626     94625     94627
     94626     94627     94628     94629     94628     94630     94629     94630
     94631     94632     94631     94633     94632     94633     94634     94635
     94634     94636     94635     94636     94637     94638     94637     94639
     94638     94639     94640     94641     94640     94642     94641     94642
     94643     94644     94643     94645     94644     94645     94646     94647
     94646     94648     94647     94648     94649     94650     94649     94651
     94650     94651     94652     94653     94652     94654     94653     94654
     94655     94656     94655     94657     94656     94657     94658     94659
     94658     94660     94659     94660     94661     94662     94661     94663
     94662     94663     94664     94665     94664     94666     94665     94666
     94667     94668     94667     94669     94668     94669     94670     94671
     94670     94672     94671     94672     94673     94674     94673     94675
     94674     94675     94676     94677     94676     94678     94677     94678
     94679     94680     94679     94681     94680     94681     94682     94683
     94682     94684     94683     94684     94685     94686     94685     94687
     94686     94687     94688     94689     94688     94690     94689     94690
     94691     94692     94691     94693     94692     94693     94694     94695
     94694     94696     94695     94696     94697     94698     94697     94699
     94698     94699     94700     94701     94700     94702     94701     94702
     94703     94704     94703     94705     94704     94705     94706     94707
     94706     94708     94707     94708     94709     94710     94709     94711
     94710     94711     94712     94713     94712     94714     94713     94714
     94715     94716     94715     94717     94716     94717     94718     94719
     94718     94720     94719     94720     94721     94722     94721     94723
     94722     94723     94724     94725     94724     94726     94725     94726
     94727     94728     94727     94729     94728     94729     94730     94731
     94730     94732     94731     94732     94733     94734     94733     94735
     94734     94735     94736     94737     94736     94738     94737     94738
     94739     94740     94739     94741     94740     94741     94742     94743
     94742     94744     94743     94744     94745     94746     94745     94747
     94746     94747     94748     94749     94748     94750     94749     94750
     94751     94752     94751     94753     94752     94753     94754     94755
     94754     94756     94755     94756     94757     94758     94757     94759
     94758     94759     94760     94761     94760     94762     94761     94762
     94763     94764     94763     94765     94764     94765     94766     94767
     94766     94768     94767     94768     94769     94770     94769     94771
     94770     94771     94772     94773     94772     94774     94773     94774
     94775     94776     94775     94777     94776     94777     94778     94779
     94778     94780     94779     94780     94781     94782     94781     94783
     94782     94783     94784     94785     94784     94786     94785     94786
     94787     94788     94787     94789     94788     94789     94790     94791
     94790     94792     94791     94792     94793     94794     94793     94795
     94794     94795     94796     94797     94796     94798     94797     94798
     94799     94800     94799     94801     94800     94801     94802     94803
     94802     94804     94803     94804     94805     94806     94805     94807
     94806     94807     94808     94809     94808     94810     94809     94810
     94811     94812     94811     94813     94812     94813     94814     94815
     94814     94816     94815     94816     94817     94818     94817     94819
     94818     94819     94820     94821     94820     94822     94821     94822
     94823     94824     94823     94825     94824     94825     94826     94827
     94826     94828     94827     94828     94829     94830     94829     94831
     94830     94831     94832     94833     94832     94834     94833     94834
     94835     94836     94835     94837     94836     94837     94838     94839
     94838     94840     94839     94840     94841     94842     94841     94843
     94842     94843     94844     94845     94844     94846     94845     94846
     94847     94848     94847     94849     94848     94849     94850     94851
     94850     94852     94851     94852     94853     94854     94853     94855
     94854     94855     94856     94857     94856     94858     94857     94858
     94859     94860     94859     94861     94860     94861     94862     94863
     94862     94864     94863     94864     94865     94866     94865     94867
     94866     94867     94868     94869     94868     94870     94869     94870
     94871     94872     94871     94873     94872     94873     94874     94875
     94874     94876     94875     94876     94877     94878     94877     94879
     94878     94879     94880     94881     94880     94882     94881     94882
     94883     94884     94883     94885     94884     94885     94886     94887
     94886     94888     94887     94888     94889     94890     94889     94891
     94890     94891     94892     94893     94892     94894     94893     94894
     94895     94896     94895     94897     94896     94897     94898     94899
     94898     94900     94899     94900     94901     94902     94901     94903
     94902     94903     94904     94905     94904     94906     94905     94906
     94907     94908     94907     94909     94908     94909     94910     94911
     94910     94912     94911     94912     94913     94914     94913     94915
     94914     94915     94916     94917     94916     94918     94917     94918
     94919     94920     94919     94921     94920     94921     94922     94923
     94922     94924     94923     94924     94925     94926     94925     94927
     94926     94927     94928     94929     94928     94930     94929     94930
     94931     94932     94931     94933     94932     94933     94934     94935
     94934     94936     94935     94936     94937     94938     94937     94939
     94938     94939     94940     94941     94940     94942     94941     94942
     94943     94944     94943     94945     94944     94945     94946     94947
     94946     94948     94947     94948     94949     94950     94949     94951
     94950     94951     94952     94953     94952     94954     94953     94954
     94955     94956     94955     94957     94956     94957     94958     94959
     94958     94960     94959     94960     94961     94962     94961     94963
     94962     94963     94964     94965     94964     94966     94965     94966
     94967     94968     94967     94969     94968     94969     94970     94971
     94970     94972     94971     94972     94973     94974     94973     94975
     94974     94975     94976     94977     94976     94978     94977     94978
     94979     94980     94979     94981     94980     94981     94982     94983
     94982     94984     94983     94984     94985     94986     94985     94987
     94986     94987     94988     94989     94988     94990     94989     94990
     94991     94992     94991     94993     94992     94993     94994     94995
     94994     94996     94995     94996     94997     94998     94997     94999
     94998     94999     95000     95001     95000     95002     95001     95002
     95003     95004     95003     95005     95004     95005     95006     95007
     95006     95008     95007     95008     95009     95010     95009     95011
     95010     95011     95012     95013     95012     95014     95013     95014
     95015     95016     95015     95017     95016     95017     95018     95019
     95018     95020     95019     95020     95021     95022     95021     95023
     95022     95023     95024     95025     95024     95026     95025     95026
     95027     95028     95027     95029     95028     95029     95030     95031
     95030     95032     95031     95032     95033     95034     95033     95035
     95034     95035     95036     95037     95036     95038     95037     95038
     95039     95040     95039     95041     95040     95041     95042     95043
     95042     95044     95043     95044     95045     95046     95045     95047
     95046     95047     95048     95049     95048     95050     95049     95050
     95051     95052     95051     95053     95052     95053     95054     95055
     95054     95056     95055     95056     95057     95058     95057     95059
     95058     95059     95060     95061     95060     95062     95061     95062
     95063     95064     95063     95065     95064     95065     95066     95067
     95066     95068     95067     95068     95069     95070     95069     95071
     95070     95071     95072     95073     95072     95074     95073     95074
     95075     95076     95075     95077     95076     95077     95078     95079
     95078     95080     95079     95080     95081     95082     95081     95083
     95082     95083     95084     95085     95084     95086     95085     95086
     95087     95088     95087     95089     95088     95089     95090     95091
     95090     95092     95091     95092     95093     95094     95093     95095
     95094     95095     95096     95097     95096     95098     95097     95098
     95099     95100     95099     95101     95100     95101     95102     95103
     95102     95104     95103     95104     95105     95106     95105     95107
     95106     95107     95108     95109     95108     95110     95109     95110
     95111     95112     95111     95113     95112     95113     95114     95115
     95114     95116     95115     95116     95117     95118     95117     95119
     95118     95119     95120     95121     95120     95122     95121     95122
     95123     95124     95123     95125     95124     95125     95126     95127
     95126     95128     95127     95128     95129     95130     95129     95131
     95130     95131     95132     95133     95132     95134     95133     95134
     95135     95136     95135     95137     95136     95137     95138     95139
     95138     95140     95139     95140     95141     95142     95141     95143
     95142     95143     95144     95145     95144     95146     95145     95146
     95147     95148     95147     95149     95148     95149     95150     95151
     95150     95152     95151     95152     95153     95154     95153     95155
     95154     95155     95156     95157     95156     95158     95157     95158
     95159     95160     95159     95161     95160     95161     95162     95163
     95162     95164     95163     95164     95165     95166     95165     95167
     95166     95167     95168     95169     95168     95170     95169     95170
     95171     95172     95171     95173     95172     95173     95174     95175
     95174     95176     95175     95176     95177     95178     95177     95179
     95178     95179     95180     95181     95180     95182     95181     95182
     95183     95184     95183     95185     95184     95185     95186     95187
     95186     95188     95187     95188     95189     95190     95189     95191
     95190     95191     95192     95193     95192     95194     95193     95194
     95195     95196     95195     95197     95196     95197     95198     95199
     95198     95200     95199     95200     95201     95202     95201     95203
     95202     95203     95204     95205     95204     95206     95205     95206
     95207     95208     95207     95209     95208     95209     95210     95211
     95210     95212     95211     95212     95213     95214     95213     95215
     95214     95215     95216     95217     95216     95218     95217     95218
     95219     95220     95219     95221     95220     95221     95222     95223
     95222     95224     95223     95224     95225     95226     95225     95227
     95226     95227     95228     95229     95228     95230     95229     95230
     95231     95232     95231     95233     95232     95233     95234     95235
     95234     95236     95235     95236     95237     95238     95237     95239
     95238     95239     95240     95241     95240     95242     95241     95242
     95243     95244     95243     95245     95244     95245     95246     95247
     95246     95248     95247     95248     95249     95250     95249     95251
     95250     95251     95252     95253     95252     95254     95253     95254
     95255     95256     95255     95257     95256     95257     95258     95259
     95258     95260     95259     95260     95261     95262     95261     95263
     95262     95263     95264     95265     95264     95266     95265     95266
     95267     95268     95267     95269     95268     95269     95270     95271
     95270     95272     95271     95272     95273     95274     95273     95275
     95274     95275     95276     95277     95276     95278     95277     95278
     95279     95280     95279     95281     95280     95281     95282     95283
     95282     95284     95283     95284     95285     95286     95285     95287
     95286     95287     95288     95289     95288     95290     95289     95290
     95291     95292     95291     95293     95292     95293     95294     95295
     95294     95296     95295     95296     95297     95298     95297     95299
     95298     95299     95300     95301     95300     95302     95301     95302
     95303     95304     95303     95305     95304     95305     95306     95307
     95306     95308     95307     95308     95309     95310     95309     95311
     95310     95311     95312     95313     95312     95314     95313     95314
     95315     95316     95315     95317     95316     95317     95318     95319
     95318     95320     95319     95320     95321     95322     95321     95323
     95322     95323     95324     95325     95324     95326     95325     95326
     95327     95328     95327     95329     95328     95329     95330     95331
     95330     95332     95331     95332     95333     95334     95333     95335
     95334     95335     95336     95337     95336     95338     95337     95338
     95339     95340     95339     95341     95340     95341     95342     95343
     95342     95344     95343     95344     95345     95346     95345     95347
     95346     95347     95348     95349     95348     95350     95349     95350
     95351     95352     95351     95353     95352     95353     95354     95355
     95354     95356     95355     95356     95357     95358     95357     95359
     95358     95359     95360     95361     95360     95362     95361     95362
     95363     95364     95363     95365     95364     95365     95366     95367
     95366     95368     95367     95368     95369     95370     95369     95371
     95370     95371     95372     95373     95372     95374     95373     95374
     95375     95376     95375     95377     95376     95377     95378     95379
     95378     95380     95379     95380     95381     95382     95381     95383
     95382     95383     95384     95385     95384     95386     95385     95386
     95387     95388     95387     95389     95388     95389     95390     95391
     95390     95392     95391     95392     95393     95394     95393     95395
     95394     95395     95396     95397     95396     95398     95397     95398
     95399     95400     95399     95401     95400     95401     95402     95403
     95402     95404     95403     95404     95405     95406     95405     95407
     95406     95407     95408     95409     95408     95410     95409     95410
     95411     95412     95411     95413     95412     95413     95414     95415
     95414     95416     95415     95416     95417     95418     95417     95419
     95418     95419     95420     95421     95420     95422     95421     95422
     95423     95424     95423     95425     95424     95425     95426     95427
     95426     95428     95427     95428     95429     95430     95429     95431
     95430     95431     95432     95433     95432     95434     95433     95434
     95435     95436     95435     95437     95436     95437     95438     95439
     95438     95440     95439     95440     95441     95442     95441     95443
     95442     95443     95444     95445     95444     95446     95445     95446
     95447     95448     95447     95449     95448     95449     95450     95451
     95450     95452     95451     95452     95453     95454     95453     95455
     95454     95455     95456     95457     95456     95458     95457     95458
     95459     95460     95459     95461     95460     95461     95462     95463
     95462     95464     95463     95464     95465     95466     95465     95467
     95466     95467     95468     95469     95468     95470     95469     95470
     95471     95472     95471     95473     95472     95473     95474     95475
     95474     95476     95475     95476     95477     95478     95477     95479
     95478     95479     95480     95481     95480     95482     95481     95482
     95483     95484     95483     95485     95484     95485     95486     95487
     95486     95488     95487     95488     95489     95490     95489     95491
     95490     95491     95492     95493     95492     95494     95493     95494
     95495     95496     95495     95497     95496     95497     95498     95499
     95498     95500     95499     95500     95501     95502     95501     95503
     95502     95503     95504     95505     95504     95506     95505     95506
     95507     95508     95507     95509     95508     95509     95510     95511
     95510     95512     95511     95512     95513     95514     95513     95515
     95514     95515     95516     95517     95516     95518     95517     95518
     95519     95520     95519     95521     95520     95521     95522     95523
     95522     95524     95523     95524     95525     95526     95525     95527
     95526     95527     95528     95529     95528     95530     95529     95530
     95531     95532     95531     95533     95532     95533     95534     95535
     95534     95536     95535     95536     95537     95538     95537     95539
     95538     95539     95540     95541     95540     95542     95541     95542
     95543     95544     95543     95545     95544     95545     95546     95547
     95546     95548     95547     95548     95549     95550     95549     95551
     95550     95551     95552     95553     95552     95554     95553     95554
     95555     95556     95555     95557     95556     95557     95558     95559
     95558     95560     95559     95560     95561     95562     95561     95563
     95562     95563     95564     95565     95564     95566     95565     95566
     95567     95568     95567     95569     95568     95569     95570     95571
     95570     95572     95571     95572     95573     95574     95573     95575
     95574     95575     95576     95577     95576     95578     95577     95578
     95579     95580     95579     95581     95580     95581     95582     95583
     95582     95584     95583     95584     95585     95586     95585     95587
     95586     95587     95588     95589     95588     95590     95589     95590
     95591     95592     95591     95593     95592     95593     95594     95595
     95594     95596     95595     95596     95597     95598     95597     95599
     95598     95599     95600     95601     95600     95602     95601     95602
     95603     95604     95603     95605     95604     95605     95606     95607
     95606     95608     95607     95608     95609     95610     95609     95611
     95610     95611     95612     95613     95612     95614     95613     95614
     95615     95616     95615     95617     95616     95617     95618     95619
     95618     95620     95619     95620     95621     95622     95621     95623
     95622     95623     95624     95625     95624     95626     95625     95626
     95627     95628     95627     95629     95628     95629     95630     95631
     95630     95632     95631     95632     95633     95634     95633     95635
     95634     95635     95636     95637     95636     95638     95637     95638
     95639     95640     95639     95641     95640     95641     95642     95643
     95642     95644     95643     95644     95645     95646     95645     95647
     95646     95647     95648     95649     95648     95650     95649     95650
     95651     95652     95651     95653     95652     95653     95654     95655
     95654     95656     95655     95656     95657     95658     95657     95659
     95658     95659     95660     95661     95660     95662     95661     95662
     95663     95664     95663     95665     95664     95665     95666     95667
     95666     95668     95667     95668     95669     95670     95669     95671
     95670     95671     95672     95673     95672     95674     95673     95674
     95675     95676     95675     95677     95676     95677     95678     95679
     95678     95680     95679     95680     95681     95682     95681     95683
     95682     95683     95684     95685     95684     95686     95685     95686
     95687     95688     95687     95689     95688     95689     95690     95691
     95690     95692     95691     95692     95693     95694     95693     95695
     95694     95695     95696     95697     95696     95698     95697     95698
     95699     95700     95699     95701     95700     95701     95702     95703
     95702     95704     95703     95704     95705     95706     95705     95707
     95706     95707     95708     95709     95708     95710     95709     95710
     95711     95712     95711     95713     95712     95713     95714     95715
     95714     95716     95715     95716     95717     95718     95717     95719
     95718     95719     95720     95721     95720     95722     95721     95722
     95723     95724     95723     95725     95724     95725     95726     95727
     95726     95728     95727     95728     95729     95730     95729     95731
     95730     95731     95732     95733     95732     95734     95733     95734
     95735     95736     95735     95737     95736     95737     95738     95739
     95738     95740     95739     95740     95741     95742     95741     95743
     95742     95743     95744     95745     95744     95746     95745     95746
     95747     95748     95747     95749     95748     95749     95750     95751
     95750     95752     95751     95752     95753     95754     95753     95755
     95754     95755     95756     95757     95756     95758     95757     95758
     95759     95760     95759     95761     95760     95761     95762     95763
     95762     95764     95763     95764     95765     95766     95765     95767
     95766     95767     95768     95769     95768     95770     95769     95770
     95771     95772     95771     95773     95772     95773     95774     95775
     95774     95776     95775     95776     95777     95778     95777     95779
     95778     95779     95780     95781     95780     95782     95781     95782
     95783     95784     95783     95785     95784     95785     95786     95787
     95786     95788     95787     95788     95789     95790     95789     95791
     95790     95791     95792     95793     95792     95794     95793     95794
     95795     95796     95795     95797     95796     95797     95798     95799
     95798     95800     95799     95800     95801     95802     95801     95803
     95802     95803     95804     95805     95804     95806     95805     95806
     95807     95808     95807     95809     95808     95809     95810     95811
     95810     95812     95811     95812     95813     95814     95813     95815
     95814     95815     95816     95817     95816     95818     95817     95818
     95819     95820     95819     95821     95820     95821     95822     95823
     95822     95824     95823     95824     95825     95826     95825     95827
     95826     95827     95828     95829     95828     95830     95829     95830
     95831     95832     95831     95833     95832     95833     95834     95835
     95834     95836     95835     95836     95837     95838     95837     95839
     95838     95839     95840     95841     95840     95842     95841     95842
     95843     95844     95843     95845     95844     95845     95846     95847
     95846     95848     95847     95848     95849     95850     95849     95851
     95850     95851     95852     95853     95852     95854     95853     95854
     95855     95856     95855     95857     95856     95857     95858     95859
     95858     95860     95859     95860     95861     95862     95861     95863
     95862     95863     95864     95865     95864     95866     95865     95866
     95867     95868     95867     95869     95868     95869     95870     95871
     95870     95872     95871     95872     95873     95874     95873     95875
     95874     95875     95876     95877     95876     95878     95877     95878
     95879     95880     95879     95881     95880     95881     95882     95883
     95882     95884     95883     95884     95885     95886     95885     95887
     95886     95887     95888     95889     95888     95890     95889     95890
     95891     95892     95891     95893     95892     95893     95894     95895
     95894     95896     95895     95896     95897     95898     95897     95899
     95898     95899     95900     95901     95900     95902     95901     95902
     95903     95904     95903     95905     95904     95905     95906     95907
     95906     95908     95907     95908     95909     95910     95909     95911
     95910     95911     95912     95913     95912     95914     95913     95914
     95915     95916     95915     95917     95916     95917     95918     95919
     95918     95920     95919     95920     95921     95922     95921     95923
     95922     95923     95924     95925     95924     95926     95925     95926
     95927     95928     95927     95929     95928     95929     95930     95931
     95930     95932     95931     95932     95933     95934     95933     95935
     95934     95935     95936     95937     95936     95938     95937     95938
     95939     95940     95939     95941     95940     95941     95942     95943
     95942     95944     95943     95944     95945     95946     95945     95947
     95946     95947     95948     95949     95948     95950     95949     95950
     95951     95952     95951     95953     95952     95953     95954     95955
     95954     95956     95955     95956     95957     95958     95957     95959
     95958     95959     95960     95961     95960     95962     95961     95962
     95963     95964     95963     95965     95964     95965     95966     95967
     95966     95968     95967     95968     95969     95970     95969     95971
     95970     95971     95972     95973     95972     95974     95973     95974
     95975     95976     95975     95977     95976     95977     95978     95979
     95978     95980     95979     95980     95981     95982     95981     95983
     95982     95983     95984     95985     95984     95986     95985     95986
     95987     95988     95987     95989     95988     95989     95990     95991
     95990     95992     95991     95992     95993     95994     95993     95995
     95994     95995     95996     95997     95996     95998     95997     95998
     95999     96000     95999     96001     96000     96001     96002     96003
     96002     96004     96003     96004     96005     96006     96005     96007
     96006     96007     96008     96009     96008     96010     96009     96010
     96011     96012     96011     96013     96012     96013     96014     96015
     96014     96016     96015     96016     96017     96018     96017     96019
     96018     96019     96020     96021     96020     96022     96021     96022
     96023     96024     96023     96025     96024     96025     96026     96027
     96026     96028     96027     96028     96029     96030     96029     96031
     96030     96031     96032     96033     96032     96034     96033     96034
     96035     96036     96035     96037     96036     96037     96038     96039
     96038     96040     96039     96040     96041     96042     96041     96043
     96042     96043     96044     96045     96044     96046     96045     96046
     96047     96048     96047     96049     96048     96049     96050     96051
     96050     96052     96051     96052     96053     96054     96053     96055
     96054     96055     96056     96057     96056     96058     96057     96058
     96059     96060     96059     96061     96060     96061     96062     96063
     96062     96064     96063     96064     96065     96066     96065     96067
     96066     96067     96068     96069     96068     96070     96069     96070
     96071     96072     96071     96073     96072     96073     96074     96075
     96074     96076     96075     96076     96077     96078     96077     96079
     96078     96079     96080     96081     96080     96082     96081     96082
     96083     96084     96083     96085     96084     96085     96086     96087
     96086     96088     96087     96088     96089     96090     96089     96091
     96090     96091     96092     96093     96092     96094     96093     96094
     96095     96096     96095     96097     96096     96097     96098     96099
     96098     96100     96099     96100     96101     96102     96101     96103
     96102     96103     96104     96105     96104     96106     96105     96106
     96107     96108     96107     96109     96108     96109     96110     96111
     96110     96112     96111     96112     96113     96114     96113     96115
     96114     96115     96116     96117     96116     96118     96117     96118
     96119     96120     96119     96121     96120     96121     96122     96123
     96122     96124     96123     96124     96125     96126     96125     96127
     96126     96127     96128     96129     96128     96130     96129     96130
     96131     96132     96131     96133     96132     96133     96134     96135
     96134     96136     96135     96136     96137     96138     96137     96139
     96138     96139     96140     96141     96140     96142     96141     96142
     96143     96144     96143     96145     96144     96145     96146     96147
     96146     96148     96147     96148     96149     96150     96149     96151
     96150     96151     96152     96153     96152     96154     96153     96154
     96155     96156     96155     96157     96156     96157     96158     96159
     96158     96160     96159     96160     96161     96162     96161     96163
     96162     96163     96164     96165     96164     96166     96165     96166
     96167     96168     96167     96169     96168     96169     96170     96171
     96170     96172     96171     96172     96173     96174     96173     96175
     96174     96175     96176     96177     96176     96178     96177     96178
     96179     96180     96179     96181     96180     96181     96182     96183
     96182     96184     96183     96184     96185     96186     96185     96187
     96186     96187     96188     96189     96188     96190     96189     96190
     96191     96192     96191     96193     96192     96193     96194     96195
     96194     96196     96195     96196     96197     96198     96197     96199
     96198     96199     96200     96201     96200     96202     96201     96202
     96203     96204     96203     96205     96204     96205     96206     96207
     96206     96208     96207     96208     96209     96210     96209     96211
     96210     96211     96212     96213     96212     96214     96213     96214
     96215     96216     96215     96217     96216     96217     96218     96219
     96218     96220     96219     96220     96221     96222     96221     96223
     96222     96223     96224     96225     96224     96226     96225     96226
     96227     96228     96227     96229     96228     96229     96230     96231
     96230     96232     96231     96232     96233     96234     96233     96235
     96234     96235     96236     96237     96236     96238     96237     96238
     96239     96240     96239     96241     96240     96241     96242     96243
     96242     96244     96243     96244     96245     96246     96245     96247
     96246     96247     96248     96249     96248     96250     96249     96250
     96251     96252     96251     96253     96252     96253     96254     96255
     96254     96256     96255     96256     96257     96258     96257     96259
     96258     96259     96260     96261     96260     96262     96261     96262
     96263     96264     96263     96265     96264     96265     96266     96267
     96266     96268     96267     96268     96269     96270     96269     96271
     96270     96271     96272     96273     96272     96274     96273     96274
     96275     96276     96275     96277     96276     96277     96278     96279
     96278     96280     96279     96280     96281     96282     96281     96283
     96282     96283     96284     96285     96284     96286     96285     96286
     96287     96288     96287     96289     96288     96289     96290     96291
     96290     96292     96291     96292     96293     96294     96293     96295
     96294     96295     96296     96297     96296     96298     96297     96298
     96299     96300     96299     96301     96300     96301     96302     96303
     96302     96304     96303     96304     96305     96306     96305     96307
     96306     96307     96308     96309     96308     96310     96309     96310
     96311     96312     96311     96313     96312     96313     96314     96315
     96314     96316     96315     96316     96317     96318     96317     96319
     96318     96319     96320     96321     96320     96322     96321     96322
     96323     96324     96323     96325     96324     96325     96326     96327
     96326     96328     96327     96328     96329     96330     96329     96331
     96330     96331     96332     96333     96332     96334     96333     96334
     96335     96336     96335     96337     96336     96337     96338     96339
     96338     96340     96339     96340     96341     96342     96341     96343
     96342     96343     96344     96345     96344     96346     96345     96346
     96347     96348     96347     96349     96348     96349     96350     96351
     96350     96352     96351     96352     96353     96354     96353     96355
     96354     96355     96356     96357     96356     96358     96357     96358
     96359     96360     96359     96361     96360     96361     96362     96363
     96362     96364     96363     96364     96365     96366     96365     96367
     96366     96367     96368     96369     96368     96370     96369     96370
     96371     96372     96371     96373     96372     96373     96374     96375
     96374     96376     96375     96376     96377     96378     96377     96379
     96378     96379     96380     96381     96380     96382     96381     96382
     96383     96384     96383     96385     96384     96385     96386     96387
     96386     96388     96387     96388     96389     96390     96389     96391
     96390     96391     96392     96393     96392     96394     96393     96394
     96395     96396     96395     96397     96396     96397     96398     96399
     96398     96400     96399     96400     96401     96402     96401     96403
     96402     96403     96404     96405     96404     96406     96405     96406
     96407     96408     96407     96409     96408     96409     96410     96411
     96410     96412     96411     96412     96413     96414     96413     96415
     96414     96415     96416     96417     96416     96418     96417     96418
     96419     96420     96419     96421     96420     96421     96422     96423
     96422     96424     96423     96424     96425     96426     96425     96427
     96426     96427     96428     96429     96428     96430     96429     96430
     96431     96432     96431     96433     96432     96433     96434     96435
     96434     96436     96435     96436     96437     96438     96437     96439
     96438     96439     96440     96441     96440     96442     96441     96442
     96443     96444     96443     96445     96444     96445     96446     96447
     96446     96448     96447     96448     96449     96450     96449     96451
     96450     96451     96452     96453     96452     96454     96453     96454
     96455     96456     96455     96457     96456     96457     96458     96459
     96458     96460     96459     96460     96461     96462     96461     96463
     96462     96463     96464     96465     96464     96466     96465     96466
     96467     96468     96467     96469     96468     96469     96470     96471
     96470     96472     96471     96472     96473     96474     96473     96475
     96474     96475     96476     96477     96476     96478     96477     96478
     96479     96480     96479     96481     96480     96481     96482     96483
     96482     96484     96483     96484     96485     96486     96485     96487
     96486     96487     96488     96489     96488     96490     96489     96490
     96491     96492     96491     96493     96492     96493     96494     96495
     96494     96496     96495     96496     96497     96498     96497     96499
     96498     96499     96500     96501     96500     96502     96501     96502
     96503     96504     96503     96505     96504     96505     96506     96507
     96506     96508     96507     96508     96509     96510     96509     96511
     96510     96511     96512     96513     96512     96514     96513     96514
     96515     96516     96515     96517     96516     96517     96518     96519
     96518     96520     96519     96520     96521     96522     96521     96523
     96522     96523     96524     96525     96524     96526     96525     96526
     96527     96528     96527     96529     96528     96529     96530     96531
     96530     96532     96531     96532     96533     96534     96533     96535
     96534     96535     96536     96537     96536     96538     96537     96538
     96539     96540     96539     96541     96540     96541     96542     96543
     96542     96544     96543     96544     96545     96546     96545     96547
     96546     96547     96548     96549     96548     96550     96549     96550
     96551     96552     96551     96553     96552     96553     96554     96555
     96554     96556     96555     96556     96557     96558     96557     96559
     96558     96559     96560     96561     96560     96562     96561     96562
     96563     96564     96563     96565     96564     96565     96566     96567
     96566     96568     96567     96568     96569     96570     96569     96571
     96570     96571     96572     96573     96572     96574     96573     96574
     96575     96576     96575     96577     96576     96577     96578     96579
     96578     96580     96579     96580     96581     96582     96581     96583
     96582     96583     96584     96585     96584     96586     96585     96586
     96587     96588     96587     96589     96588     96589     96590     96591
     96590     96592     96591     96592     96593     96594     96593     96595
     96594     96595     96596     96597     96596     96598     96597     96598
     96599     96600     96599     96601     96600     96601     96602     96603
     96602     96604     96603     96604     96605     96606     96605     96607
     96606     96607     96608     96609     96608     96610     96609     96610
     96611     96612     96611     96613     96612     96613     96614     96615
     96614     96616     96615     96616     96617     96618     96617     96619
     96618     96619     96620     96621     96620     96622     96621     96622
     96623     96624     96623     96625     96624     96625     96626     96627
     96626     96628     96627     96628     96629     96630     96629     96631
     96630     96631     96632     96633     96632     96634     96633     96634
     96635     96636     96635     96637     96636     96637     96638     96639
     96638     96640     96639     96640     96641     96642     96641     96643
     96642     96643     96644     96645     96644     96646     96645     96646
     96647     96648     96647     96649     96648     96649     96650     96651
     96650     96652     96651     96652     96653     96654     96653     96655
     96654     96655     96656     96657     96656     96658     96657     96658
     96659     96660     96659     96661     96660     96661     96662     96663
     96662     96664     96663     96664     96665     96666     96665     96667
     96666     96667     96668     96669     96668     96670     96669     96670
     96671     96672     96671     96673     96672     96673     96674     96675
     96674     96676     96675     96676     96677     96678     96677     96679
     96678     96679     96680     96681     96680     96682     96681     96682
     96683     96684     96683     96685     96684     96685     96686     96687
     96686     96688     96687     96688     96689     96690     96689     96691
     96690     96691     96692     96693     96692     96694     96693     96694
     96695     96696     96695     96697     96696     96697     96698     96699
     96698     96700     96699     96700     96701     96702     96701     96703
     96702     96703     96704     96705     96704     96706     96705     96706
     96707     96708     96707     96709     96708     96709     96710     96711
     96710     96712     96711     96712     96713     96714     96713     96715
     96714     96715     96716     96717     96716     96718     96717     96718
     96719     96720     96719     96721     96720     96721     96722     96723
     96722     96724     96723     96724     96725     96726     96725     96727
     96726     96727     96728     96729     96728     96730     96729     96730
     96731     96732     96731     96733     96732     96733     96734     96735
     96734     96736     96735     96736     96737     96738     96737     96739
     96738     96739     96740     96741     96740     96742     96741     96742
     96743     96744     96743     96745     96744     96745     96746     96747
     96746     96748     96747     96748     96749     96750     96749     96751
     96750     96751     96752     96753     96752     96754     96753     96754
     96755     96756     96755     96757     96756     96757     96758     96759
     96758     96760     96759     96760     96761     96762     96761     96763
     96762     96763     96764     96765     96764     96766     96765     96766
     96767     96768     96767     96769     96768     96769     96770     96771
     96770     96772     96771     96772     96773     96774     96773     96775
     96774     96775     96776     96777     96776     96778     96777     96778
     96779     96780     96779     96781     96780     96781     96782     96783
     96782     96784     96783     96784     96785     96786     96785     96787
     96786     96787     96788     96789     96788     96790     96789     96790
     96791     96792     96791     96793     96792     96793     96794     96795
     96794     96796     96795     96796     96797     96798     96797     96799
     96798     96799     96800     96801     96800     96802     96801     96802
     96803     96804     96803     96805     96804     96805     96806     96807
     96806     96808     96807     96808     96809     96810     96809     96811
     96810     96811     96812     96813     96812     96814     96813     96814
     96815     96816     96815     96817     96816     96817     96818     96819
     96818     96820     96819     96820     96821     96822     96821     96823
     96822     96823     96824     96825     96824     96826     96825     96826
     96827     96828     96827     96829     96828     96829     96830     96831
     96830     96832     96831     96832     96833     96834     96833     96835
     96834     96835     96836     96837     96836     96838     96837     96838
     96839     96840     96839     96841     96840     96841     96842     96843
     96842     96844     96843     96844     96845     96846     96845     96847
     96846     96847     96848     96849     96848     96850     96849     96850
     96851     96852     96851     96853     96852     96853     96854     96855
     96854     96856     96855     96856     96857     96858     96857     96859
     96858     96859     96860     96861     96860     96862     96861     96862
     96863     96864     96863     96865     96864     96865     96866     96867
     96866     96868     96867     96868     96869     96870     96869     96871
     96870     96871     96872     96873     96872     96874     96873     96874
     96875     96876     96875     96877     96876     96877     96878     96879
     96878     96880     96879     96880     96881     96882     96881     96883
     96882     96883     96884     96885     96884     96886     96885     96886
     96887     96888     96887     96889     96888     96889     96890     96891
     96890     96892     96891     96892     96893     96894     96893     96895
     96894     96895     96896     96897     96896     96898     96897     96898
     96899     96900     96899     96901     96900     96901     96902     96903
     96902     96904     96903     96904     96905     96906     96905     96907
     96906     96907     96908     96909     96908     96910     96909     96910
     96911     96912     96911     96913     96912     96913     96914     96915
     96914     96916     96915     96916     96917     96918     96917     96919
     96918     96919     96920     96921     96920     96922     96921     96922
     96923     96924     96923     96925     96924     96925     96926     96927
     96926     96928     96927     96928     96929     96930     96929     96931
     96930     96931     96932     96933     96932     96934     96933     96934
     96935     96936     96935     96937     96936     96937     96938     96939
     96938     96940     96939     96940     96941     96942     96941     96943
     96942     96943     96944     96945     96944     96946     96945     96946
     96947     96948     96947     96949     96948     96949     96950     96951
     96950     96952     96951     96952     96953     96954     96953     96955
     96954     96955     96956     96957     96956     96958     96957     96958
     96959     96960     96959     96961     96960     96961     96962     96963
     96962     96964     96963     96964     96965     96966     96965     96967
     96966     96967     96968     96969     96968     96970     96969     96970
     96971     96972     96971     96973     96972     96973     96974     96975
     96974     96976     96975     96976     96977     96978     96977     96979
     96978     96979     96980     96981     96980     96982     96981     96982
     96983     96984     96983     96985     96984     96985     96986     96987
     96986     96988     96987     96988     96989     96990     96989     96991
     96990     96991     96992     96993     96992     96994     96993     96994
     96995     96996     96995     96997     96996     96997     96998     96999
     96998     97000     96999     97000     97001     97002     97001     97003
     97002     97003     97004     97005     97004     97006     97005     97006
     97007     97008     97007     97009     97008     97009     97010     97011
     97010     97012     97011     97012     97013     97014     97013     97015
     97014     97015     97016     97017     97016     97018     97017     97018
     97019     97020     97019     97021     97020     97021     97022     97023
     97022     97024     97023     97024     97025     97026     97025     97027
     97026     97027     97028     97029     97028     97030     97029     97030
     97031     97032     97031     97033     97032     97033     97034     97035
     97034     97036     97035     97036     97037     97038     97037     97039
     97038     97039     97040     97041     97040     97042     97041     97042
     97043     97044     97043     97045     97044     97045     97046     97047
     97046     97048     97047     97048     97049     97050     97049     97051
     97050     97051     97052     97053     97052     97054     97053     97054
     97055     97056     97055     97057     97056     97057     97058     97059
     97058     97060     97059     97060     97061     97062     97061     97063
     97062     97063     97064     97065     97064     97066     97065     97066
     97067     97068     97067     97069     97068     97069     97070     97071
     97070     97072     97071     97072     97073     97074     97073     97075
     97074     97075     97076     97077     97076     97078     97077     97078
     97079     97080     97079     97081     97080     97081     97082     97083
     97082     97084     97083     97084     97085     97086     97085     97087
     97086     97087     97088     97089     97088     97090     97089     97090
     97091     97092     97091     97093     97092     97093     97094     97095
     97094     97096     97095     97096     97097     97098     97097     97099
     97098     97099     97100     97101     97100     97102     97101     97102
     97103     97104     97103     97105     97104     97105     97106     97107
     97106     97108     97107     97108     97109     97110     97109     97111
     97110     97111     97112     97113     97112     97114     97113     97114
     97115     97116     97115     97117     97116     97117     97118     97119
     97118     97120     97119     97120     97121     97122     97121     97123
     97122     97123     97124     97125     97124     97126     97125     97126
     97127     97128     97127     97129     97128     97129     97130     97131
     97130     97132     97131     97132     97133     97134     97133     97135
     97134     97135     97136     97137     97136     97138     97137     97138
     97139     97140     97139     97141     97140     97141     97142     97143
     97142     97144     97143     97144     97145     97146     97145     97147
     97146     97147     97148     97149     97148     97150     97149     97150
     97151     97152     97151     97153     97152     97153     97154     97155
     97154     97156     97155     97156     97157     97158     97157     97159
     97158     97159     97160     97161     97160     97162     97161     97162
     97163     97164     97163     97165     97164     97165     97166     97167
     97166     97168     97167     97168     97169     97170     97169     97171
     97170     97171     97172     97173     97172     97174     97173     97174
     97175     97176     97175     97177     97176     97177     97178     97179
     97178     97180     97179     97180     97181     97182     97181     97183
     97182     97183     97184     97185     97184     97186     97185     97186
     97187     97188     97187     97189     97188     97189     97190     97191
     97190     97192     97191     97192     97193     97194     97193     97195
     97194     97195     97196     97197     97196     97198     97197     97198
     97199     97200     97199     97201     97200     97201     97202     97203
     97202     97204     97203     97204     97205     97206     97205     97207
     97206     97207     97208     97209     97208     97210     97209     97210
     97211     97212     97211     97213     97212     97213     97214     97215
     97214     97216     97215     97216     97217     97218     97217     97219
     97218     97219     97220     97221     97220     97222     97221     97222
     97223     97224     97223     97225     97224     97225     97226     97227
     97226     97228     97227     97228     97229     97230     97229     97231
     97230     97231     97232     97233     97232     97234     97233     97234
     97235     97236     97235     97237     97236     97237     97238     97239
     97238     97240     97239     97240     97241     97242     97241     97243
     97242     97243     97244     97245     97244     97246     97245     97246
     97247     97248     97247     97249     97248     97249     97250     97251
     97250     97252     97251     97252     97253     97254     97253     97255
     97254     97255     97256     97257     97256     97258     97257     97258
     97259     97260     97259     97261     97260     97261     97262     97263
     97262     97264     97263     97264     97265     97266     97265     97267
     97266     97267     97268     97269     97268     97270     97269     97270
     97271     97272     97271     97273     97272     97273     97274     97275
     97274     97276     97275     97276     97277     97278     97277     97279
     97278     97279     97280     97281     97280     97282     97281     97282
     97283     97284     97283     97285     97284     97285     97286     97287
     97286     97288     97287     97288     97289     97290     97289     97291
     97290     97291     97292     97293     97292     97294     97293     97294
     97295     97296     97295     97297     97296     97297     97298     97299
     97298     97300     97299     97300     97301     97302     97301     97303
     97302     97303     97304     97305     97304     97306     97305     97306
     97307     97308     97307     97309     97308     97309     97310     97311
     97310     97312     97311     97312     97313     97314     97313     97315
     97314     97315     97316     97317     97316     97318     97317     97318
     97319     97320     97319     97321     97320     97321     97322     97323
     97322     97324     97323     97324     97325     97326     97325     97327
     97326     97327     97328     97329     97328     97330     97329     97330
     97331     97332     97331     97333     97332     97333     97334     97335
     97334     97336     97335     97336     97337     97338     97337     97339
     97338     97339     97340     97341     97340     97342     97341     97342
     97343     97344     97343     97345     97344     97345     97346     97347
     97346     97348     97347     97348     97349     97350     97349     97351
     97350     97351     97352     97353     97352     97354     97353     97354
     97355     97356     97355     97357     97356     97357     97358     97359
     97358     97360     97359     97360     97361     97362     97361     97363
     97362     97363     97364     97365     97364     97366     97365     97366
     97367     97368     97367     97369     97368     97369     97370     97371
     97370     97372     97371     97372     97373     97374     97373     97375
     97374     97375     97376     97377     97376     97378     97377     97378
     97379     97380     97379     97381     97380     97381     97382     97383
     97382     97384     97383     97384     97385     97386     97385     97387
     97386     97387     97388     97389     97388     97390     97389     97390
     97391     97392     97391     97393     97392     97393     97394     97395
     97394     97396     97395     97396     97397     97398     97397     97399
     97398     97399     97400     97401     97400     97402     97401     97402
     97403     97404     97403     97405     97404     97405     97406     97407
     97406     97408     97407     97408     97409     97410     97409     97411
     97410     97411     97412     97413     97412     97414     97413     97414
     97415     97416     97415     97417     97416     97417     97418     97419
     97418     97420     97419     97420     97421     97422     97421     97423
     97422     97423     97424     97425     97424     97426     97425     97426
     97427     97428     97427     97429     97428     97429     97430     97431
     97430     97432     97431     97432     97433     97434     97433     97435
     97434     97435     97436     97437     97436     97438     97437     97438
     97439     97440     97439     97441     97440     97441     97442     97443
     97442     97444     97443     97444     97445     97446     97445     97447
     97446     97447     97448     97449     97448     97450     97449     97450
     97451     97452     97451     97453     97452     97453     97454     97455
     97454     97456     97455     97456     97457     97458     97457     97459
     97458     97459     97460     97461     97460     97462     97461     97462
     97463     97464     97463     97465     97464     97465     97466     97467
     97466     97468     97467     97468     97469     97470     97469     97471
     97470     97471     97472     97473     97472     97474     97473     97474
     97475     97476     97475     97477     97476     97477     97478     97479
     97478     97480     97479     97480     97481     97482     97481     97483
     97482     97483     97484     97485     97484     97486     97485     97486
     97487     97488     97487     97489     97488     97489     97490     97491
     97490     97492     97491     97492     97493     97494     97493     97495
     97494     97495     97496     97497     97496     97498     97497     97498
     97499     97500     97499     97501     97500     97501     97502     97503
     97502     97504     97503     97504     97505     97506     97505     97507
     97506     97507     97508     97509     97508     97510     97509     97510
     97511     97512     97511     97513     97512     97513     97514     97515
     97514     97516     97515     97516     97517     97518     97517     97519
     97518     97519     97520     97521     97520     97522     97521     97522
     97523     97524     97523     97525     97524     97525     97526     97527
     97526     97528     97527     97528     97529     97530     97529     97531
     97530     97531     97532     97533     97532     97534     97533     97534
     97535     97536     97535     97537     97536     97537     97538     97539
     97538     97540     97539     97540     97541     97542     97541     97543
     97542     97543     97544     97545     97544     97546     97545     97546
     97547     97548     97547     97549     97548     97549     97550     97551
     97550     97552     97551     97552     97553     97554     97553     97555
     97554     97555     97556     97557     97556     97558     97557     97558
     97559     97560     97559     97561     97560     97561     97562     97563
     97562     97564     97563     97564     97565     97566     97565     97567
     97566     97567     97568     97569     97568     97570     97569     97570
     97571     97572     97571     97573     97572     97573     97574     97575
     97574     97576     97575     97576     97577     97578     97577     97579
     97578     97579     97580     97581     97580     97582     97581     97582
     97583     97584     97583     97585     97584     97585     97586     97587
     97586     97588     97587     97588     97589     97590     97589     97591
     97590     97591     97592     97593     97592     97594     97593     97594
     97595     97596     97595     97597     97596     97597     97598     97599
     97598     97600     97599     97600     97601     97602     97601     97603
     97602     97603     97604     97605     97604     97606     97605     97606
     97607     97608     97607     97609     97608     97609     97610     97611
     97610     97612     97611     97612     97613     97614     97613     97615
     97614     97615     97616     97617     97616     97618     97617     97618
     97619     97620     97619     97621     97620     97621     97622     97623
     97622     97624     97623     97624     97625     97626     97625     97627
     97626     97627     97628     97629     97628     97630     97629     97630
     97631     97632     97631     97633     97632     97633     97634     97635
     97634     97636     97635     97636     97637     97638     97637     97639
     97638     97639     97640     97641     97640     97642     97641     97642
     97643     97644     97643     97645     97644     97645     97646     97647
     97646     97648     97647     97648     97649     97650     97649     97651
     97650     97651     97652     97653     97652     97654     97653     97654
     97655     97656     97655     97657     97656     97657     97658     97659
     97658     97660     97659     97660     97661     97662     97661     97663
     97662     97663     97664     97665     97664     97666     97665     97666
     97667     97668     97667     97669     97668     97669     97670     97671
     97670     97672     97671     97672     97673     97674     97673     97675
     97674     97675     97676     97677     97676     97678     97677     97678
     97679     97680     97679     97681     97680     97681     97682     97683
     97682     97684     97683     97684     97685     97686     97685     97687
     97686     97687     97688     97689     97688     97690     97689     97690
     97691     97692     97691     97693     97692     97693     97694     97695
     97694     97696     97695     97696     97697     97698     97697     97699
     97698     97699     97700     97701     97700     97702     97701     97702
     97703     97704     97703     97705     97704     97705     97706     97707
     97706     97708     97707     97708     97709     97710     97709     97711
     97710     97711     97712     97713     97712     97714     97713     97714
     97715     97716     97715     97717     97716     97717     97718     97719
     97718     97720     97719     97720     97721     97722     97721     97723
     97722     97723     97724     97725     97724     97726     97725     97726
     97727     97728     97727     97729     97728     97729     97730     97731
     97730     97732     97731     97732     97733     97734     97733     97735
     97734     97735     97736     97737     97736     97738     97737     97738
     97739     97740     97739     97741     97740     97741     97742     97743
     97742     97744     97743     97744     97745     97746     97745     97747
     97746     97747     97748     97749     97748     97750     97749     97750
     97751     97752     97751     97753     97752     97753     97754     97755
     97754     97756     97755     97756     97757     97758     97757     97759
     97758     97759     97760     97761     97760     97762     97761     97762
     97763     97764     97763     97765     97764     97765     97766     97767
     97766     97768     97767     97768     97769     97770     97769     97771
     97770     97771     97772     97773     97772     97774     97773     97774
     97775     97776     97775     97777     97776     97777     97778     97779
     97778     97780     97779     97780     97781     97782     97781     97783
     97782     97783     97784     97785     97784     97786     97785     97786
     97787     97788     97787     97789     97788     97789     97790     97791
     97790     97792     97791     97792     97793     97794     97793     97795
     97794     97795     97796     97797     97796     97798     97797     97798
     97799     97800     97799     97801     97800     97801     97802     97803
     97802     97804     97803     97804     97805     97806     97805     97807
     97806     97807     97808     97809     97808     97810     97809     97810
     97811     97812     97811     97813     97812     97813     97814     97815
     97814     97816     97815     97816     97817     97818     97817     97819
     97818     97819     97820     97821     97820     97822     97821     97822
     97823     97824     97823     97825     97824     97825     97826     97827
     97826     97828     97827     97828     97829     97830     97829     97831
     97830     97831     97832     97833     97832     97834     97833     97834
     97835     97836     97835     97837     97836     97837     97838     97839
     97838     97840     97839     97840     97841     97842     97841     97843
     97842     97843     97844     97845     97844     97846     97845     97846
     97847     97848     97847     97849     97848     97849     97850     97851
     97850     97852     97851     97852     97853     97854     97853     97855
     97854     97855     97856     97857     97856     97858     97857     97858
     97859     97860     97859     97861     97860     97861     97862     97863
     97862     97864     97863     97864     97865     97866     97865     97867
     97866     97867     97868     97869     97868     97870     97869     97870
     97871     97872     97871     97873     97872     97873     97874     97875
     97874     97876     97875     97876     97877     97878     97877     97879
     97878     97879     97880     97881     97880     97882     97881     97882
     97883     97884     97883     97885     97884     97885     97886     97887
     97886     97888     97887     97888     97889     97890     97889     97891
     97890     97891     97892     97893     97892     97894     97893     97894
     97895     97896     97895     97897     97896     97897     97898     97899
     97898     97900     97899     97900     97901     97902     97901     97903
     97902     97903     97904     97905     97904     97906     97905     97906
     97907     97908     97907     97909     97908     97909     97910     97911
     97910     97912     97911     97912     97913     97914     97913     97915
     97914     97915     97916     97917     97916     97918     97917     97918
     97919     97920     97919     97921     97920     97921     97922     97923
     97922     97924     97923     97924     97925     97926     97925     97927
     97926     97927     97928     97929     97928     97930     97929     97930
     97931     97932     97931     97933     97932     97933     97934     97935
     97934     97936     97935     97936     97937     97938     97937     97939
     97938     97939     97940     97941     97940     97942     97941     97942
     97943     97944     97943     97945     97944     97945     97946     97947
     97946     97948     97947     97948     97949     97950     97949     97951
     97950     97951     97952     97953     97952     97954     97953     97954
     97955     97956     97955     97957     97956     97957     97958     97959
     97958     97960     97959     97960     97961     97962     97961     97963
     97962     97963     97964     97965     97964     97966     97965     97966
     97967     97968     97967     97969     97968     97969     97970     97971
     97970     97972     97971     97972     97973     97974     97973     97975
     97974     97975     97976     97977     97976     97978     97977     97978
     97979     97980     97979     97981     97980     97981     97982     97983
     97982     97984     97983     97984     97985     97986     97985     97987
     97986     97987     97988     97989     97988     97990     97989     97990
     97991     97992     97991     97993     97992     97993     97994     97995
     97994     97996     97995     97996     97997     97998     97997     97999
     97998     97999     98000     98001     98000     98002     98001     98002
     98003     98004     98003     98005     98004     98005     98006     98007
     98006     98008     98007     98008     98009     98010     98009     98011
     98010     98011     98012     98013     98012     98014     98013     98014
     98015     98016     98015     98017     98016     98017     98018     98019
     98018     98020     98019     98020     98021     98022     98021     98023
     98022     98023     98024     98025     98024     98026     98025     98026
     98027     98028     98027     98029     98028     98029     98030     98031
     98030     98032     98031     98032     98033     98034     98033     98035
     98034     98035     98036     98037     98036     98038     98037     98038
     98039     98040     98039     98041     98040     98041     98042     98043
     98042     98044     98043     98044     98045     98046     98045     98047
     98046     98047     98048     98049     98048     98050     98049     98050
     98051     98052     98051     98053     98052     98053     98054     98055
     98054     98056     98055     98056     98057     98058     98057     98059
     98058     98059     98060     98061     98060     98062     98061     98062
     98063     98064     98063     98065     98064     98065     98066     98067
     98066     98068     98067     98068     98069     98070     98069     98071
     98070     98071     98072     98073     98072     98074     98073     98074
     98075     98076     98075     98077     98076     98077     98078     98079
     98078     98080     98079     98080     98081     98082     98081     98083
     98082     98083     98084     98085     98084     98086     98085     98086
     98087     98088     98087     98089     98088     98089     98090     98091
     98090     98092     98091     98092     98093     98094     98093     98095
     98094     98095     98096     98097     98096     98098     98097     98098
     98099     98100     98099     98101     98100     98101     98102     98103
     98102     98104     98103     98104     98105     98106     98105     98107
     98106     98107     98108     98109     98108     98110     98109     98110
     98111     98112     98111     98113     98112     98113     98114     98115
     98114     98116     98115     98116     98117     98118     98117     98119
     98118     98119     98120     98121     98120     98122     98121     98122
     98123     98124     98123     98125     98124     98125     98126     98127
     98126     98128     98127     98128     98129     98130     98129     98131
     98130     98131     98132     98133     98132     98134     98133     98134
     98135     98136     98135     98137     98136     98137     98138     98139
     98138     98140     98139     98140     98141     98142     98141     98143
     98142     98143     98144     98145     98144     98146     98145     98146
     98147     98148     98147     98149     98148     98149     98150     98151
     98150     98152     98151     98152     98153     98154     98153     98155
     98154     98155     98156     98157     98156     98158     98157     98158
     98159     98160     98159     98161     98160     98161     98162     98163
     98162     98164     98163     98164     98165     98166     98165     98167
     98166     98167     98168     98169     98168     98170     98169     98170
     98171     98172     98171     98173     98172     98173     98174     98175
     98174     98176     98175     98176     98177     98178     98177     98179
     98178     98179     98180     98181     98180     98182     98181     98182
     98183     98184     98183     98185     98184     98185     98186     98187
     98186     98188     98187     98188     98189     98190     98189     98191
     98190     98191     98192     98193     98192     98194     98193     98194
     98195     98196     98195     98197     98196     98197     98198     98199
     98198     98200     98199     98200     98201     98202     98201     98203
     98202     98203     98204     98205     98204     98206     98205     98206
     98207     98208     98207     98209     98208     98209     98210     98211
     98210     98212     98211     98212     98213     98214     98213     98215
     98214     98215     98216     98217     98216     98218     98217     98218
     98219     98220     98219     98221     98220     98221     98222     98223
     98222     98224     98223     98224     98225     98226     98225     98227
     98226     98227     98228     98229     98228     98230     98229     98230
     98231     98232     98231     98233     98232     98233     98234     98235
     98234     98236     98235     98236     98237     98238     98237     98239
     98238     98239     98240     98241     98240     98242     98241     98242
     98243     98244     98243     98245     98244     98245     98246     98247
     98246     98248     98247     98248     98249     98250     98249     98251
     98250     98251     98252     98253     98252     98254     98253     98254
     98255     98256     98255     98257     98256     98257     98258     98259
     98258     98260     98259     98260     98261     98262     98261     98263
     98262     98263     98264     98265     98264     98266     98265     98266
     98267     98268     98267     98269     98268     98269     98270     98271
     98270     98272     98271     98272     98273     98274     98273     98275
     98274     98275     98276     98277     98276     98278     98277     98278
     98279     98280     98279     98281     98280     98281     98282     98283
     98282     98284     98283     98284     98285     98286     98285     98287
     98286     98287     98288     98289     98288     98290     98289     98290
     98291     98292     98291     98293     98292     98293     98294     98295
     98294     98296     98295     98296     98297     98298     98297     98299
     98298     98299     98300     98301     98300     98302     98301     98302
     98303     98304     98303     98305     98304     98305     98306     98307
     98306     98308     98307     98308     98309     98310     98309     98311
     98310     98311     98312     98313     98312     98314     98313     98314
     98315     98316     98315     98317     98316     98317     98318     98319
     98318     98320     98319     98320     98321     98322     98321     98323
     98322     98323     98324     98325     98324     98326     98325     98326
     98327     98328     98327     98329     98328     98329     98330     98331
     98330     98332     98331     98332     98333     98334     98333     98335
     98334     98335     98336     98337     98336     98338     98337     98338
     98339     98340     98339     98341     98340     98341     98342     98343
     98342     98344     98343     98344     98345     98346     98345     98347
     98346     98347     98348     98349     98348     98350     98349     98350
     98351     98352     98351     98353     98352     98353     98354     98355
     98354     98356     98355     98356     98357     98358     98357     98359
     98358     98359     98360     98361     98360     98362     98361     98362
     98363     98364     98363     98365     98364     98365     98366     98367
     98366     98368     98367     98368     98369     98370     98369     98371
     98370     98371     98372     98373     98372     98374     98373     98374
     98375     98376     98375     98377     98376     98377     98378     98379
     98378     98380     98379     98380     98381     98382     98381     98383
     98382     98383     98384     98385     98384     98386     98385     98386
     98387     98388     98387     98389     98388     98389     98390     98391
     98390     98392     98391     98392     98393     98394     98393     98395
     98394     98395     98396     98397     98396     98398     98397     98398
     98399     98400     98399     98401     98400     98401     98402     98403
     98402     98404     98403     98404     98405     98406     98405     98407
     98406     98407     98408     98409     98408     98410     98409     98410
     98411     98412     98411     98413     98412     98413     98414     98415
     98414     98416     98415     98416     98417     98418     98417     98419
     98418     98419     98420     98421     98420     98422     98421     98422
     98423     98424     98423     98425     98424     98425     98426     98427
     98426     98428     98427     98428     98429     98430     98429     98431
     98430     98431     98432     98433     98432     98434     98433     98434
     98435     98436     98435     98437     98436     98437     98438     98439
     98438     98440     98439     98440     98441     98442     98441     98443
     98442     98443     98444     98445     98444     98446     98445     98446
     98447     98448     98447     98449     98448     98449     98450     98451
     98450     98452     98451     98452     98453     98454     98453     98455
     98454     98455     98456     98457     98456     98458     98457     98458
     98459     98460     98459     98461     98460     98461     98462     98463
     98462     98464     98463     98464     98465     98466     98465     98467
     98466     98467     98468     98469     98468     98470     98469     98470
     98471     98472     98471     98473     98472     98473     98474     98475
     98474     98476     98475     98476     98477     98478     98477     98479
     98478     98479     98480     98481     98480     98482     98481     98482
     98483     98484     98483     98485     98484     98485     98486     98487
     98486     98488     98487     98488     98489     98490     98489     98491
     98490     98491     98492     98493     98492     98494     98493     98494
     98495     98496     98495     98497     98496     98497     98498     98499
     98498     98500     98499     98500     98501     98502     98501     98503
     98502     98503     98504     98505     98504     98506     98505     98506
     98507     98508     98507     98509     98508     98509     98510     98511
     98510     98512     98511     98512     98513     98514     98513     98515
     98514     98515     98516     98517     98516     98518     98517     98518
     98519     98520     98519     98521     98520     98521     98522     98523
     98522     98524     98523     98524     98525     98526     98525     98527
     98526     98527     98528     98529     98528     98530     98529     98530
     98531     98532     98531     98533     98532     98533     98534     98535
     98534     98536     98535     98536     98537     98538     98537     98539
     98538     98539     98540     98541     98540     98542     98541     98542
     98543     98544     98543     98545     98544     98545     98546     98547
     98546     98548     98547     98548     98549     98550     98549     98551
     98550     98551     98552     98553     98552     98554     98553     98554
     98555     98556     98555     98557     98556     98557     98558     98559
     98558     98560     98559     98560     98561     98562     98561     98563
     98562     98563     98564     98565     98564     98566     98565     98566
     98567     98568     98567     98569     98568     98569     98570     98571
     98570     98572     98571     98572     98573     98574     98573     98575
     98574     98575     98576     98577     98576     98578     98577     98578
     98579     98580     98579     98581     98580     98581     98582     98583
     98582     98584     98583     98584     98585     98586     98585     98587
     98586     98587     98588     98589     98588     98590     98589     98590
     98591     98592     98591     98593     98592     98593     98594     98595
     98594     98596     98595     98596     98597     98598     98597     98599
     98598     98599     98600     98601     98600     98602     98601     98602
     98603     98604     98603     98605     98604     98605     98606     98607
     98606     98608     98607     98608     98609     98610     98609     98611
     98610     98611     98612     98613     98612     98614     98613     98614
     98615     98616     98615     98617     98616     98617     98618     98619
     98618     98620     98619     98620     98621     98622     98621     98623
     98622     98623     98624     98625     98624     98626     98625     98626
     98627     98628     98627     98629     98628     98629     98630     98631
     98630     98632     98631     98632     98633     98634     98633     98635
     98634     98635     98636     98637     98636     98638     98637     98638
     98639     98640     98639     98641     98640     98641     98642     98643
     98642     98644     98643     98644     98645     98646     98645     98647
     98646     98647     98648     98649     98648     98650     98649     98650
     98651     98652     98651     98653     98652     98653     98654     98655
     98654     98656     98655     98656     98657     98658     98657     98659
     98658     98659     98660     98661     98660     98662     98661     98662
     98663     98664     98663     98665     98664     98665     98666     98667
     98666     98668     98667     98668     98669     98670     98669     98671
     98670     98671     98672     98673     98672     98674     98673     98674
     98675     98676     98675     98677     98676     98677     98678     98679
     98678     98680     98679     98680     98681     98682     98681     98683
     98682     98683     98684     98685     98684     98686     98685     98686
     98687     98688     98687     98689     98688     98689     98690     98691
     98690     98692     98691     98692     98693     98694     98693     98695
     98694     98695     98696     98697     98696     98698     98697     98698
     98699     98700     98699     98701     98700     98701     98702     98703
     98702     98704     98703     98704     98705     98706     98705     98707
     98706     98707     98708     98709     98708     98710     98709     98710
     98711     98712     98711     98713     98712     98713     98714     98715
     98714     98716     98715     98716     98717     98718     98717     98719
     98718     98719     98720     98721     98720     98722     98721     98722
     98723     98724     98723     98725     98724     98725     98726     98727
     98726     98728     98727     98728     98729     98730     98729     98731
     98730     98731     98732     98733     98732     98734     98733     98734
     98735     98736     98735     98737     98736     98737     98738     98739
     98738     98740     98739     98740     98741     98742     98741     98743
     98742     98743     98744     98745     98744     98746     98745     98746
     98747     98748     98747     98749     98748     98749     98750     98751
     98750     98752     98751     98752     98753     98754     98753     98755
     98754     98755     98756     98757     98756     98758     98757     98758
     98759     98760     98759     98761     98760     98761     98762     98763
     98762     98764     98763     98764     98765     98766     98765     98767
     98766     98767     98768     98769     98768     98770     98769     98770
     98771     98772     98771     98773     98772     98773     98774     98775
     98774     98776     98775     98776     98777     98778     98777     98779
     98778     98779     98780     98781     98780     98782     98781     98782
     98783     98784     98783     98785     98784     98785     98786     98787
     98786     98788     98787     98788     98789     98790     98789     98791
     98790     98791     98792     98793     98792     98794     98793     98794
     98795     98796     98795     98797     98796     98797     98798     98799
     98798     98800     98799     98800     98801     98802     98801     98803
     98802     98803     98804     98805     98804     98806     98805     98806
     98807     98808     98807     98809     98808     98809     98810     98811
     98810     98812     98811     98812     98813     98814     98813     98815
     98814     98815     98816     98817     98816     98818     98817     98818
     98819     98820     98819     98821     98820     98821     98822     98823
     98822     98824     98823     98824     98825     98826     98825     98827
     98826     98827     98828     98829     98828     98830     98829     98830
     98831     98832     98831     98833     98832     98833     98834     98835
     98834     98836     98835     98836     98837     98838     98837     98839
     98838     98839     98840     98841     98840     98842     98841     98842
     98843     98844     98843     98845     98844     98845     98846     98847
     98846     98848     98847     98848     98849     98850     98849     98851
     98850     98851     98852     98853     98852     98854     98853     98854
     98855     98856     98855     98857     98856     98857     98858     98859
     98858     98860     98859     98860     98861     98862     98861     98863
     98862     98863     98864     98865     98864     98866     98865     98866
     98867     98868     98867     98869     98868     98869     98870     98871
     98870     98872     98871     98872     98873     98874     98873     98875
     98874     98875     98876     98877     98876     98878     98877     98878
     98879     98880     98879     98881     98880     98881     98882     98883
     98882     98884     98883     98884     98885     98886     98885     98887
     98886     98887     98888     98889     98888     98890     98889     98890
     98891     98892     98891     98893     98892     98893     98894     98895
     98894     98896     98895     98896     98897     98898     98897     98899
     98898     98899     98900     98901     98900     98902     98901     98902
     98903     98904     98903     98905     98904     98905     98906     98907
     98906     98908     98907     98908     98909     98910     98909     98911
     98910     98911     98912     98913     98912     98914     98913     98914
     98915     98916     98915     98917     98916     98917     98918     98919
     98918     98920     98919     98920     98921     98922     98921     98923
     98922     98923     98924     98925     98924     98926     98925     98926
     98927     98928     98927     98929     98928     98929     98930     98931
     98930     98932     98931     98932     98933     98934     98933     98935
     98934     98935     98936     98937     98936     98938     98937     98938
     98939     98940     98939     98941     98940     98941     98942     98943
     98942     98944     98943     98944     98945     98946     98945     98947
     98946     98947     98948     98949     98948     98950     98949     98950
     98951     98952     98951     98953     98952     98953     98954     98955
     98954     98956     98955     98956     98957     98958     98957     98959
     98958     98959     98960     98961     98960     98962     98961     98962
     98963     98964     98963     98965     98964     98965     98966     98967
     98966     98968     98967     98968     98969     98970     98969     98971
     98970     98971     98972     98973     98972     98974     98973     98974
     98975     98976     98975     98977     98976     98977     98978     98979
     98978     98980     98979     98980     98981     98982     98981     98983
     98982     98983     98984     98985     98984     98986     98985     98986
     98987     98988     98987     98989     98988     98989     98990     98991
     98990     98992     98991     98992     98993     98994     98993     98995
     98994     98995     98996     98997     98996     98998     98997     98998
     98999     99000     98999     99001     99000     99001     99002     99003
     99002     99004     99003     99004     99005     99006     99005     99007
     99006     99007     99008     99009     99008     99010     99009     99010
     99011     99012     99011     99013     99012     99013     99014     99015
     99014     99016     99015     99016     99017     99018     99017     99019
     99018     99019     99020     99021     99020     99022     99021     99022
     99023     99024     99023     99025     99024     99025     99026     99027
     99026     99028     99027     99028     99029     99030     99029     99031
     99030     99031     99032     99033     99032     99034     99033     99034
     99035     99036     99035     99037     99036     99037     99038     99039
     99038     99040     99039     99040     99041     99042     99041     99043
     99042     99043     99044     99045     99044     99046     99045     99046
     99047     99048     99047     99049     99048     99049     99050     99051
     99050     99052     99051     99052     99053     99054     99053     99055
     99054     99055     99056     99057     99056     99058     99057     99058
     99059     99060     99059     99061     99060     99061     99062     99063
     99062     99064     99063     99064     99065     99066     99065     99067
     99066     99067     99068     99069     99068     99070     99069     99070
     99071     99072     99071     99073     99072     99073     99074     99075
     99074     99076     99075     99076     99077     99078     99077     99079
     99078     99079     99080     99081     99080     99082     99081     99082
     99083     99084     99083     99085     99084     99085     99086     99087
     99086     99088     99087     99088     99089     99090     99089     99091
     99090     99091     99092     99093     99092     99094     99093     99094
     99095     99096     99095     99097     99096     99097     99098     99099
     99098     99100     99099     99100     99101     99102     99101     99103
     99102     99103     99104     99105     99104     99106     99105     99106
     99107     99108     99107     99109     99108     99109     99110     99111
     99110     99112     99111     99112     99113     99114     99113     99115
     99114     99115     99116     99117     99116     99118     99117     99118
     99119     99120     99119     99121     99120     99121     99122     99123
     99122     99124     99123     99124     99125     99126     99125     99127
     99126     99127     99128     99129     99128     99130     99129     99130
     99131     99132     99131     99133     99132     99133     99134     99135
     99134     99136     99135     99136     99137     99138     99137     99139
     99138     99139     99140     99141     99140     99142     99141     99142
     99143     99144     99143     99145     99144     99145     99146     99147
     99146     99148     99147     99148     99149     99150     99149     99151
     99150     99151     99152     99153     99152     99154     99153     99154
     99155     99156     99155     99157     99156     99157     99158     99159
     99158     99160     99159     99160     99161     99162     99161     99163
     99162     99163     99164     99165     99164     99166     99165     99166
     99167     99168     99167     99169     99168     99169     99170     99171
     99170     99172     99171     99172     99173     99174     99173     99175
     99174     99175     99176     99177     99176     99178     99177     99178
     99179     99180     99179     99181     99180     99181     99182     99183
     99182     99184     99183     99184     99185     99186     99185     99187
     99186     99187     99188     99189     99188     99190     99189     99190
     99191     99192     99191     99193     99192     99193     99194     99195
     99194     99196     99195     99196     99197     99198     99197     99199
     99198     99199     99200     99201     99200     99202     99201     99202
     99203     99204     99203     99205     99204     99205     99206     99207
     99206     99208     99207     99208     99209     99210     99209     99211
     99210     99211     99212     99213     99212     99214     99213     99214
     99215     99216     99215     99217     99216     99217     99218     99219
     99218     99220     99219     99220     99221     99222     99221     99223
     99222     99223     99224     99225     99224     99226     99225     99226
     99227     99228     99227     99229     99228     99229     99230     99231
     99230     99232     99231     99232     99233     99234     99233     99235
     99234     99235     99236     99237     99236     99238     99237     99238
     99239     99240     99239     99241     99240     99241     99242     99243
     99242     99244     99243     99244     99245     99246     99245     99247
     99246     99247     99248     99249     99248     99250     99249     99250
     99251     99252     99251     99253     99252     99253     99254     99255
     99254     99256     99255     99256     99257     99258     99257     99259
     99258     99259     99260     99261     99260     99262     99261     99262
     99263     99264     99263     99265     99264     99265     99266     99267
     99266     99268     99267     99268     99269     99270     99269     99271
     99270     99271     99272     99273     99272     99274     99273     99274
     99275     99276     99275     99277     99276     99277     99278     99279
     99278     99280     99279     99280     99281     99282     99281     99283
     99282     99283     99284     99285     99284     99286     99285     99286
     99287     99288     99287     99289     99288     99289     99290     99291
     99290     99292     99291     99292     99293     99294     99293     99295
     99294     99295     99296     99297     99296     99298     99297     99298
     99299     99300     99299     99301     99300     99301     99302     99303
     99302     99304     99303     99304     99305     99306     99305     99307
     99306     99307     99308     99309     99308     99310     99309     99310
     99311     99312     99311     99313     99312     99313     99314     99315
     99314     99316     99315     99316     99317     99318     99317     99319
     99318     99319     99320     99321     99320     99322     99321     99322
     99323     99324     99323     99325     99324     99325     99326     99327
     99326     99328     99327     99328     99329     99330     99329     99331
     99330     99331     99332     99333     99332     99334     99333     99334
     99335     99336     99335     99337     99336     99337     99338     99339
     99338     99340     99339     99340     99341     99342     99341     99343
     99342     99343     99344     99345     99344     99346     99345     99346
     99347     99348     99347     99349     99348     99349     99350     99351
     99350     99352     99351     99352     99353     99354     99353     99355
     99354     99355     99356     99357     99356     99358     99357     99358
     99359     99360     99359     99361     99360     99361     99362     99363
     99362     99364     99363     99364     99365     99366     99365     99367
     99366     99367     99368     99369     99368     99370     99369     99370
     99371     99372     99371     99373     99372     99373     99374     99375
     99374     99376     99375     99376     99377     99378     99377     99379
     99378     99379     99380     99381     99380     99382     99381     99382
     99383     99384     99383     99385     99384     99385     99386     99387
     99386     99388     99387     99388     99389     99390     99389     99391
     99390     99391     99392     99393     99392     99394     99393     99394
     99395     99396     99395     99397     99396     99397     99398     99399
     99398     99400     99399     99400     99401     99402     99401     99403
     99402     99403     99404     99405     99404     99406     99405     99406
     99407     99408     99407     99409     99408     99409     99410     99411
     99410     99412     99411     99412     99413     99414     99413     99415
     99414     99415     99416     99417     99416     99418     99417     99418
     99419     99420     99419     99421     99420     99421     99422     99423
     99422     99424     99423     99424     99425     99426     99425     99427
     99426     99427     99428     99429     99428     99430     99429     99430
     99431     99432     99431     99433     99432     99433     99434     99435
     99434     99436     99435     99436     99437     99438     99437     99439
     99438     99439     99440     99441     99440     99442     99441     99442
     99443     99444     99443     99445     99444     99445     99446     99447
     99446     99448     99447     99448     99449     99450     99449     99451
     99450     99451     99452     99453     99452     99454     99453     99454
     99455     99456     99455     99457     99456     99457     99458     99459
     99458     99460     99459     99460     99461     99462     99461     99463
     99462     99463     99464     99465     99464     99466     99465     99466
     99467     99468     99467     99469     99468     99469     99470     99471
     99470     99472     99471     99472     99473     99474     99473     99475
     99474     99475     99476     99477     99476     99478     99477     99478
     99479     99480     99479     99481     99480     99481     99482     99483
     99482     99484     99483     99484     99485     99486     99485     99487
     99486     99487     99488     99489     99488     99490     99489     99490
     99491     99492     99491     99493     99492     99493     99494     99495
     99494     99496     99495     99496     99497     99498     99497     99499
     99498     99499     99500     99501     99500     99502     99501     99502
     99503     99504     99503     99505     99504     99505     99506     99507
     99506     99508     99507     99508     99509     99510     99509     99511
     99510     99511     99512     99513     99512     99514     99513     99514
     99515     99516     99515     99517     99516     99517     99518     99519
     99518     99520     99519     99520     99521     99522     99521     99523
     99522     99523     99524     99525     99524     99526     99525     99526
     99527     99528     99527     99529     99528     99529     99530     99531
     99530     99532     99531     99532     99533     99534     99533     99535
     99534     99535     99536     99537     99536     99538     99537     99538
     99539     99540     99539     99541     99540     99541     99542     99543
     99542     99544     99543     99544     99545     99546     99545     99547
     99546     99547     99548     99549     99548     99550     99549     99550
     99551     99552     99551     99553     99552     99553     99554     99555
     99554     99556     99555     99556     99557     99558     99557     99559
     99558     99559     99560     99561     99560     99562     99561     99562
     99563     99564     99563     99565     99564     99565     99566     99567
     99566     99568     99567     99568     99569     99570     99569     99571
     99570     99571     99572     99573     99572     99574     99573     99574
     99575     99576     99575     99577     99576     99577     99578     99579
     99578     99580     99579     99580     99581     99582     99581     99583
     99582     99583     99584     99585     99584     99586     99585     99586
     99587     99588     99587     99589     99588     99589     99590     99591
     99590     99592     99591     99592     99593     99594     99593     99595
     99594     99595     99596     99597     99596     99598     99597     99598
     99599     99600     99599     99601     99600     99601     99602     99603
     99602     99604     99603     99604     99605     99606     99605     99607
     99606     99607     99608     99609     99608     99610     99609     99610
     99611     99612     99611     99613     99612     99613     99614     99615
     99614     99616     99615     99616     99617     99618     99617     99619
     99618     99619     99620     99621     99620     99622     99621     99622
     99623     99624     99623     99625     99624     99625     99626     99627
     99626     99628     99627     99628     99629     99630     99629     99631
     99630     99631     99632     99633     99632     99634     99633     99634
     99635     99636     99635     99637     99636     99637     99638     99639
     99638     99640     99639     99640     99641     99642     99641     99643
     99642     99643     99644     99645     99644     99646     99645     99646
     99647     99648     99647     99649     99648     99649     99650     99651
     99650     99652     99651     99652     99653     99654     99653     99655
     99654     99655     99656     99657     99656     99658     99657     99658
     99659     99660     99659     99661     99660     99661     99662     99663
     99662     99664     99663     99664     99665     99666     99665     99667
     99666     99667     99668     99669     99668     99670     99669     99670
     99671     99672     99671     99673     99672     99673     99674     99675
     99674     99676     99675     99676     99677     99678     99677     99679
     99678     99679     99680     99681     99680     99682     99681     99682
     99683     99684     99683     99685     99684     99685     99686     99687
     99686     99688     99687     99688     99689     99690     99689     99691
     99690     99691     99692     99693     99692     99694     99693     99694
     99695     99696     99695     99697     99696     99697     99698     99699
     99698     99700     99699     99700     99701     99702     99701     99703
     99702     99703     99704     99705     99704     99706     99705     99706
     99707     99708     99707     99709     99708     99709     99710     99711
     99710     99712     99711     99712     99713     99714     99713     99715
     99714     99715     99716     99717     99716     99718     99717     99718
     99719     99720     99719     99721     99720     99721     99722     99723
     99722     99724     99723     99724     99725     99726     99725     99727
     99726     99727     99728     99729     99728     99730     99729     99730
     99731     99732     99731     99733     99732     99733     99734     99735
     99734     99736     99735     99736     99737     99738     99737     99739
     99738     99739     99740     99741     99740     99742     99741     99742
     99743     99744     99743     99745     99744     99745     99746     99747
     99746     99748     99747     99748     99749     99750     99749     99751
     99750     99751     99752     99753     99752     99754     99753     99754
     99755     99756     99755     99757     99756     99757     99758     99759
     99758     99760     99759     99760     99761     99762     99761     99763
     99762     99763     99764     99765     99764     99766     99765     99766
     99767     99768     99767     99769     99768     99769     99770     99771
     99770     99772     99771     99772     99773     99774     99773     99775
     99774     99775     99776     99777     99776     99778     99777     99778
     99779     99780     99779     99781     99780     99781     99782     99783
     99782     99784     99783     99784     99785     99786     99785     99787
     99786     99787     99788     99789     99788     99790     99789     99790
     99791     99792     99791     99793     99792     99793     99794     99795
     99794     99796     99795     99796     99797     99798     99797     99799
     99798     99799     99800     99801     99800     99802     99801     99802
     99803     99804     99803     99805     99804     99805     99806     99807
     99806     99808     99807     99808     99809     99810     99809     99811
     99810     99811     99812     99813     99812     99814     99813     99814
     99815     99816     99815     99817     99816     99817     99818     99819
     99818     99820     99819     99820     99821     99822     99821     99823
     99822     99823     99824     99825     99824     99826     99825     99826
     99827     99828     99827     99829     99828     99829     99830     99831
     99830     99832     99831     99832     99833     99834     99833     99835
     99834     99835     99836     99837     99836     99838     99837     99838
     99839     99840     99839     99841     99840     99841     99842     99843
     99842     99844     99843     99844     99845     99846     99845     99847
     99846     99847     99848     99849     99848     99850     99849     99850
     99851     99852     99851     99853     99852     99853     99854     99855
     99854     99856     99855     99856     99857     99858     99857     99859
     99858     99859     99860     99861     99860     99862     99861     99862
     99863     99864     99863     99865     99864     99865     99866     99867
     99866     99868     99867     99868     99869     99870     99869     99871
     99870     99871     99872     99873     99872     99874     99873     99874
     99875     99876     99875     99877     99876     99877     99878     99879
     99878     99880     99879     99880     99881     99882     99881     99883
     99882     99883     99884     99885     99884     99886     99885     99886
     99887     99888     99887     99889     99888     99889     99890     99891
     99890     99892     99891     99892     99893     99894     99893     99895
     99894     99895     99896     99897     99896     99898     99897     99898
     99899     99900     99899     99901     99900     99901     99902     99903
     99902     99904     99903     99904     99905     99906     99905     99907
     99906     99907     99908     99909     99908     99910     99909     99910
     99911     99912     99911     99913     99912     99913     99914     99915
     99914     99916     99915     99916     99917     99918     99917     99919
     99918     99919     99920     99921     99920     99922     99921     99922
     99923     99924     99923     99925     99924     99925     99926     99927
     99926     99928     99927     99928     99929     99930     99929     99931
     99930     99931     99932     99933     99932     99934     99933     99934
     99935     99936     99935     99937     99936     99937     99938     99939
     99938     99940     99939     99940     99941     99942     99941     99943
     99942     99943     99944     99945     99944     99946     99945     99946
     99947     99948     99947     99949     99948     99949     99950     99951
     99950     99952     99951     99952     99953     99954     99953     99955
     99954     99955     99956     99957     99956     99958     99957     99958
     99959     99960     99959     99961     99960     99961     99962     99963
     99962     99964     99963     99964     99965     99966     99965     99967
     99966     99967     99968     99969     99968     99970     99969     99970
     99971     99972     99971     99973     99972     99973     99974     99975
     99974     99976     99975     99976     99977     99978     99977     99979
     99978     99979     99980     99981     99980     99982     99981     99982
     99983     99984     99983     99985     99984     99985     99986     99987
     99986     99988     99987     99988     99989     99990     99989     99991
     99990     99991     99992     99993     99992     99994     99993     99994
     99995     99996     99995     99997     99996     99997     99998     99999
     99998    100000     99999    100000    100001    100002    100001    100003
    100002    100003    100004    100005    100004    100006    100005    100006
    100007    100008    100007    100009    100008    100009    100010    100011
    100010    100012    100011    100012    100013    100014    100013    100015
    100014    100015    100016    100017    100016    100018    100017    100018
    100019    100020    100019    100021    100020    100021    100022    100023
    100022    100024    100023    100024    100025    100026    100025    100027
    100026    100027    100028    100029    100028    100030    100029    100030
    100031    100032    100031    100033    100032    100033    100034    100035
    100034    100036    100035    100036    100037    100038    100037    100039
    100038    100039    100040    100041    100040    100042    100041    100042
    100043    100044    100043    100045    100044    100045    100046    100047
    100046    100048    100047    100048    100049    100050    100049    100051
    100050    100051    100052    100053    100052    100054    100053    100054
    100055    100056    100055    100057    100056    100057    100058    100059
    100058    100060    100059    100060    100061    100062    100061    100063
    100062    100063    100064    100065    100064    100066    100065    100066
    100067    100068    100067    100069    100068    100069    100070    100071
    100070    100072    100071    100072    100073    100074    100073    100075
    100074    100075    100076    100077    100076    100078    100077    100078
    100079    100080    100079    100081    100080    100081    100082    100083
    100082    100084    100083    100084    100085    100086    100085    100087
    100086    100087    100088    100089    100088    100090    100089    100090
    100091    100092    100091    100093    100092    100093    100094    100095
    100094    100096    100095    100096    100097    100098    100097    100099
    100098    100099    100100    100101    100100    100102    100101    100102
    100103    100104    100103    100105    100104    100105    100106    100107
    100106    100108    100107    100108    100109    100110    100109    100111
    100110    100111    100112    100113    100112    100114    100113    100114
    100115    100116    100115    100117    100116    100117    100118    100119
    100118    100120    100119    100120    100121    100122    100121    100123
    100122    100123    100124    100125    100124    100126    100125    100126
    100127    100128    100127    100129    100128    100129    100130    100131
    100130    100132    100131    100132    100133    100134    100133    100135
    100134    100135    100136    100137    100136    100138    100137    100138
    100139    100140    100139    100141    100140    100141    100142    100143
    100142    100144    100143    100144    100145    100146    100145    100147
    100146    100147    100148    100149    100148    100150    100149    100150
    100151    100152    100151    100153    100152    100153    100154    100155
    100154    100156    100155    100156    100157    100158    100157    100159
    100158    100159    100160    100161    100160    100162    100161    100162
    100163    100164    100163    100165    100164    100165    100166    100167
    100166    100168    100167    100168    100169    100170    100169    100171
    100170    100171    100172    100173    100172    100174    100173    100174
    100175    100176    100175    100177    100176    100177    100178    100179
    100178    100180    100179    100180    100181    100182    100181    100183
    100182    100183    100184    100185    100184    100186    100185    100186
    100187    100188    100187    100189    100188    100189    100190    100191
    100190    100192    100191    100192    100193    100194    100193    100195
    100194    100195    100196    100197    100196    100198    100197    100198
    100199    100200    100199    100201    100200    100201    100202    100203
    100202    100204    100203    100204    100205    100206    100205    100207
    100206    100207    100208    100209    100208    100210    100209    100210
    100211    100212    100211    100213    100212    100213    100214    100215
    100214    100216    100215    100216    100217    100218    100217    100219
    100218    100219    100220    100221    100220    100222    100221    100222
    100223    100224    100223    100225    100224    100225    100226    100227
    100226    100228    100227    100228    100229    100230    100229    100231
    100230    100231    100232    100233    100232    100234    100233    100234
    100235    100236    100235    100237    100236    100237    100238    100239
    100238    100240    100239    100240    100241    100242    100241    100243
    100242    100243    100244    100245    100244    100246    100245    100246
    100247    100248    100247    100249    100248    100249    100250    100251
    100250    100252    100251    100252    100253    100254    100253    100255
    100254    100255    100256    100257    100256    100258    100257    100258
    100259    100260    100259    100261    100260    100261    100262    100263
    100262    100264    100263    100264    100265    100266    100265    100267
    100266    100267    100268    100269    100268    100270    100269    100270
    100271    100272    100271    100273    100272    100273    100274    100275
    100274    100276    100275    100276    100277    100278    100277    100279
    100278    100279    100280    100281    100280    100282    100281    100282
    100283    100284    100283    100285    100284    100285    100286    100287
    100286    100288    100287    100288    100289    100290    100289    100291
    100290    100291    100292    100293    100292    100294    100293    100294
    100295    100296    100295    100297    100296    100297    100298    100299
    100298    100300    100299    100300    100301    100302    100301    100303
    100302    100303    100304    100305    100304    100306    100305    100306
    100307    100308    100307    100309    100308    100309    100310    100311
    100310    100312    100311    100312    100313    100314    100313    100315
    100314    100315    100316    100317    100316    100318    100317    100318
    100319    100320    100319    100321    100320    100321    100322    100323
    100322    100324    100323    100324    100325    100326    100325    100327
    100326    100327    100328    100329    100328    100330    100329    100330
    100331    100332    100331    100333    100332    100333    100334    100335
    100334    100336    100335    100336    100337    100338    100337    100339
    100338    100339    100340    100341    100340    100342    100341    100342
    100343    100344    100343    100345    100344    100345    100346    100347
    100346    100348    100347    100348    100349    100350    100349    100351
    100350    100351    100352    100353    100352    100354    100353    100354
    100355    100356    100355    100357    100356    100357    100358    100359
    100358    100360    100359    100360    100361    100362    100361    100363
    100362    100363    100364    100365    100364    100366    100365    100366
    100367    100368    100367    100369    100368    100369    100370    100371
    100370    100372    100371    100372    100373    100374    100373    100375
    100374    100375    100376    100377    100376    100378    100377    100378
    100379    100380    100379    100381    100380    100381    100382    100383
    100382    100384    100383    100384    100385    100386    100385    100387
    100386    100387    100388    100389    100388    100390    100389    100390
    100391    100392    100391    100393    100392    100393    100394    100395
    100394    100396    100395    100396    100397    100398    100397    100399
    100398    100399    100400    100401    100400    100402    100401    100402
    100403    100404    100403    100405    100404    100405    100406    100407
    100406    100408    100407    100408    100409    100410    100409    100411
    100410    100411    100412    100413    100412    100414    100413    100414
    100415    100416    100415    100417    100416    100417    100418    100419
    100418    100420    100419    100420    100421    100422    100421    100423
    100422    100423    100424    100425    100424    100426    100425    100426
    100427    100428    100427    100429    100428    100429    100430    100431
    100430    100432    100431    100432    100433    100434    100433    100435
    100434    100435    100436    100437    100436    100438    100437    100438
    100439    100440    100439    100441    100440    100441    100442    100443
    100442    100444    100443    100444    100445    100446    100445    100447
    100446    100447    100448    100449    100448    100450    100449    100450
    100451    100452    100451    100453    100452    100453    100454    100455
    100454    100456    100455    100456    100457    100458    100457    100459
    100458    100459    100460    100461    100460    100462    100461    100462
    100463    100464    100463    100465    100464    100465    100466    100467
    100466    100468    100467    100468    100469    100470    100469    100471
    100470    100471    100472    100473    100472    100474    100473    100474
    100475    100476    100475    100477    100476    100477    100478    100479
    100478    100480    100479    100480    100481    100482    100481    100483
    100482    100483    100484    100485    100484    100486    100485    100486
    100487    100488    100487    100489    100488    100489    100490    100491
    100490    100492    100491    100492    100493    100494    100493    100495
    100494    100495    100496    100497    100496    100498    100497    100498
    100499    100500    100499    100501    100500    100501    100502    100503
    100502    100504    100503    100504    100505    100506    100505    100507
    100506    100507    100508    100509    100508    100510    100509    100510
    100511    100512    100511    100513    100512    100513    100514    100515
    100514    100516    100515    100516    100517    100518    100517    100519
    100518    100519    100520    100521    100520    100522    100521    100522
    100523    100524    100523    100525    100524    100525    100526    100527
    100526    100528    100527    100528    100529    100530    100529    100531
    100530    100531    100532    100533    100532    100534    100533    100534
    100535    100536    100535    100537    100536    100537    100538    100539
    100538    100540    100539    100540    100541    100542    100541    100543
    100542    100543    100544    100545    100544    100546    100545    100546
    100547    100548    100547    100549    100548    100549    100550    100551
    100550    100552    100551    100552    100553    100554    100553    100555
    100554    100555    100556    100557    100556    100558    100557    100558
    100559    100560    100559    100561    100560    100561    100562    100563
    100562    100564    100563    100564    100565    100566    100565    100567
    100566    100567    100568    100569    100568    100570    100569    100570
    100571    100572    100571    100573    100572    100573    100574    100575
    100574    100576    100575    100576    100577    100578    100577    100579
    100578    100579    100580    100581    100580    100582    100581    100582
    100583    100584    100583    100585    100584    100585    100586    100587
    100586    100588    100587    100588    100589    100590    100589    100591
    100590    100591    100592    100593    100592    100594    100593    100594
    100595    100596    100595    100597    100596    100597    100598    100599
    100598    100600    100599    100600    100601    100602    100601    100603
    100602    100603    100604    100605    100604    100606    100605    100606
    100607    100608    100607    100609    100608    100609    100610    100611
    100610    100612    100611    100612    100613    100614    100613    100615
    100614    100615    100616    100617    100616    100618    100617    100618
    100619    100620    100619    100621    100620    100621    100622    100623
    100622    100624    100623    100624    100625    100626    100625    100627
    100626    100627    100628    100629    100628    100630    100629    100630
    100631    100632    100631    100633    100632    100633    100634    100635
    100634    100636    100635    100636    100637    100638    100637    100639
    100638    100639    100640    100641    100640    100642    100641    100642
    100643    100644    100643    100645    100644    100645    100646    100647
    100646    100648    100647    100648    100649    100650    100649    100651
    100650    100651    100652    100653    100652    100654    100653    100654
    100655    100656    100655    100657    100656    100657    100658    100659
    100658    100660    100659    100660    100661    100662    100661    100663
    100662    100663    100664    100665    100664    100666    100665    100666
    100667    100668    100667    100669    100668    100669    100670    100671
    100670    100672    100671    100672    100673    100674    100673    100675
    100674    100675    100676    100677    100676    100678    100677    100678
    100679    100680    100679    100681    100680    100681    100682    100683
    100682    100684    100683    100684    100685    100686    100685    100687
    100686    100687    100688    100689    100688    100690    100689    100690
    100691    100692    100691    100693    100692    100693    100694    100695
    100694    100696    100695    100696    100697    100698    100697    100699
    100698    100699    100700    100701    100700    100702    100701    100702
    100703    100704    100703    100705    100704    100705    100706    100707
    100706    100708    100707    100708    100709    100710    100709    100711
    100710    100711    100712    100713    100712    100714    100713    100714
    100715    100716    100715    100717    100716    100717    100718    100719
    100718    100720    100719    100720    100721    100722    100721    100723
    100722    100723    100724    100725    100724    100726    100725    100726
    100727    100728    100727    100729    100728    100729    100730    100731
    100730    100732    100731    100732    100733    100734    100733    100735
    100734    100735    100736    100737    100736    100738    100737    100738
    100739    100740    100739    100741    100740    100741    100742    100743
    100742    100744    100743    100744    100745    100746    100745    100747
    100746    100747    100748    100749    100748    100750    100749    100750
    100751    100752    100751    100753    100752    100753    100754    100755
    100754    100756    100755    100756    100757    100758    100757    100759
    100758    100759    100760    100761    100760    100762    100761    100762
    100763    100764    100763    100765    100764    100765    100766    100767
    100766    100768    100767    100768    100769    100770    100769    100771
    100770    100771    100772    100773    100772    100774    100773    100774
    100775    100776    100775    100777    100776    100777    100778    100779
    100778    100780    100779    100780    100781    100782    100781    100783
    100782    100783    100784    100785    100784    100786    100785    100786
    100787    100788    100787    100789    100788    100789    100790    100791
    100790    100792    100791    100792    100793    100794    100793    100795
    100794    100795    100796    100797    100796    100798    100797    100798
    100799    100800    100799    100801    100800    100801    100802    100803
    100802    100804    100803    100804    100805    100806    100805    100807
    100806    100807    100808    100809    100808    100810    100809    100810
    100811    100812    100811    100813    100812    100813    100814    100815
    100814    100816    100815    100816    100817    100818    100817    100819
    100818    100819    100820    100821    100820    100822    100821    100822
    100823    100824    100823    100825    100824    100825    100826    100827
    100826    100828    100827    100828    100829    100830    100829    100831
    100830    100831    100832    100833    100832    100834    100833    100834
    100835    100836    100835    100837    100836    100837    100838    100839
    100838    100840    100839    100840    100841    100842    100841    100843
    100842    100843    100844    100845    100844    100846    100845    100846
    100847    100848    100847    100849    100848    100849    100850    100851
    100850    100852    100851    100852    100853    100854    100853    100855
    100854    100855    100856    100857    100856    100858    100857    100858
    100859    100860    100859    100861    100860    100861    100862    100863
    100862    100864    100863    100864    100865    100866    100865    100867
    100866    100867    100868    100869    100868    100870    100869    100870
    100871    100872    100871    100873    100872    100873    100874    100875
    100874    100876    100875    100876    100877    100878    100877    100879
    100878    100879    100880    100881    100880    100882    100881    100882
    100883    100884    100883    100885    100884    100885    100886    100887
    100886    100888    100887    100888    100889    100890    100889    100891
    100890    100891    100892    100893    100892    100894    100893    100894
    100895    100896    100895    100897    100896    100897    100898    100899
    100898    100900    100899    100900    100901    100902    100901    100903
    100902    100903    100904    100905    100904    100906    100905    100906
    100907    100908    100907    100909    100908    100909    100910    100911
    100910    100912    100911    100912    100913    100914    100913    100915
    100914    100915    100916    100917    100916    100918    100917    100918
    100919    100920    100919    100921    100920    100921    100922    100923
    100922    100924    100923    100924    100925    100926    100925    100927
    100926    100927    100928    100929    100928    100930    100929    100930
    100931    100932    100931    100933    100932    100933    100934    100935
    100934    100936    100935    100936    100937    100938    100937    100939
    100938    100939    100940    100941    100940    100942    100941    100942
    100943    100944    100943    100945    100944    100945    100946    100947
    100946    100948    100947    100948    100949    100950    100949    100951
    100950    100951    100952    100953    100952    100954    100953    100954
    100955    100956    100955    100957    100956    100957    100958    100959
    100958    100960    100959    100960    100961    100962    100961    100963
    100962    100963    100964    100965    100964    100966    100965    100966
    100967    100968    100967    100969    100968    100969    100970    100971
    100970    100972    100971    100972    100973    100974    100973    100975
    100974    100975    100976    100977    100976    100978    100977    100978
    100979    100980    100979    100981    100980    100981    100982    100983
    100982    100984    100983    100984    100985    100986    100985    100987
    100986    100987    100988    100989    100988    100990    100989    100990
    100991    100992    100991    100993    100992    100993    100994    100995
    100994    100996    100995    100996    100997    100998    100997    100999
    100998    100999    101000    101001    101000    101002    101001    101002
    101003    101004    101003    101005    101004    101005    101006    101007
    101006    101008    101007    101008    101009    101010    101009    101011
    101010    101011    101012    101013    101012    101014    101013    101014
    101015    101016    101015    101017    101016    101017    101018    101019
    101018    101020    101019    101020    101021    101022    101021    101023
    101022    101023    101024    101025    101024    101026    101025    101026
    101027    101028    101027    101029    101028    101029    101030    101031
    101030    101032    101031    101032    101033    101034    101033    101035
    101034    101035    101036    101037    101036    101038    101037    101038
    101039    101040    101039    101041    101040    101041    101042    101043
    101042    101044    101043    101044    101045    101046    101045    101047
    101046    101047    101048    101049    101048    101050    101049    101050
    101051    101052    101051    101053    101052    101053    101054    101055
    101054    101056    101055    101056    101057    101058    101057    101059
    101058    101059    101060    101061    101060    101062    101061    101062
    101063    101064    101063    101065    101064    101065    101066    101067
    101066    101068    101067    101068    101069    101070    101069    101071
    101070    101071    101072    101073    101072    101074    101073    101074
    101075    101076    101075    101077    101076    101077    101078    101079
    101078    101080    101079    101080    101081    101082    101081    101083
    101082    101083    101084    101085    101084    101086    101085    101086
    101087    101088    101087    101089    101088    101089    101090    101091
    101090    101092    101091    101092    101093    101094    101093    101095
    101094    101095    101096    101097    101096    101098    101097    101098
    101099    101100    101099    101101    101100    101101    101102    101103
    101102    101104    101103    101104    101105    101106    101105    101107
    101106    101107    101108    101109    101108    101110    101109    101110
    101111    101112    101111    101113    101112    101113    101114    101115
    101114    101116    101115    101116    101117    101118    101117    101119
    101118    101119    101120    101121    101120    101122    101121    101122
    101123    101124    101123    101125    101124    101125    101126    101127
    101126    101128    101127    101128    101129    101130    101129    101131
    101130    101131    101132    101133    101132    101134    101133    101134
    101135    101136    101135    101137    101136    101137    101138    101139
    101138    101140    101139    101140    101141    101142    101141    101143
    101142    101143    101144    101145    101144    101146    101145    101146
    101147    101148    101147    101149    101148    101149    101150    101151
    101150    101152    101151    101152    101153    101154    101153    101155
    101154    101155    101156    101157    101156    101158    101157    101158
    101159    101160    101159    101161    101160    101161    101162    101163
    101162    101164    101163    101164    101165    101166    101165    101167
    101166    101167    101168    101169    101168    101170    101169    101170
    101171    101172    101171    101173    101172    101173    101174    101175
    101174    101176    101175    101176    101177    101178    101177    101179
    101178    101179    101180    101181    101180    101182    101181    101182
    101183    101184    101183    101185    101184    101185    101186    101187
    101186    101188    101187    101188    101189    101190    101189    101191
    101190    101191    101192    101193    101192    101194    101193    101194
    101195    101196    101195    101197    101196    101197    101198    101199
    101198    101200    101199    101200    101201    101202    101201    101203
    101202    101203    101204    101205    101204    101206    101205    101206
    101207    101208    101207    101209    101208    101209    101210    101211
    101210    101212    101211    101212    101213    101214    101213    101215
    101214    101215    101216    101217    101216    101218    101217    101218
    101219    101220    101219    101221    101220    101221    101222    101223
    101222    101224    101223    101224    101225    101226    101225    101227
    101226    101227    101228    101229    101228    101230    101229    101230
    101231    101232    101231    101233    101232    101233    101234    101235
    101234    101236    101235    101236    101237    101238    101237    101239
    101238    101239    101240    101241    101240    101242    101241    101242
    101243    101244    101243    101245    101244    101245    101246    101247
    101246    101248    101247    101248    101249    101250    101249    101251
    101250    101251    101252    101253    101252    101254    101253    101254
    101255    101256    101255    101257    101256    101257    101258    101259
    101258    101260    101259    101260    101261    101262    101261    101263
    101262    101263    101264    101265    101264    101266    101265    101266
    101267    101268    101267    101269    101268    101269    101270    101271
    101270    101272    101271    101272    101273    101274    101273    101275
    101274    101275    101276    101277    101276    101278    101277    101278
    101279    101280    101279    101281    101280    101281    101282    101283
    101282    101284    101283    101284    101285    101286    101285    101287
    101286    101287    101288    101289    101288    101290    101289    101290
    101291    101292    101291    101293    101292    101293    101294    101295
    101294    101296    101295    101296    101297    101298    101297    101299
    101298    101299    101300    101301    101300    101302    101301    101302
    101303    101304    101303    101305    101304    101305    101306    101307
    101306    101308    101307    101308    101309    101310    101309    101311
    101310    101311    101312    101313    101312    101314    101313    101314
    101315    101316    101315    101317    101316    101317    101318    101319
    101318    101320    101319    101320    101321    101322    101321    101323
    101322    101323    101324    101325    101324    101326    101325    101326
    101327    101328    101327    101329    101328    101329    101330    101331
    101330    101332    101331    101332    101333    101334    101333    101335
    101334    101335    101336    101337    101336    101338    101337    101338
    101339    101340    101339    101341    101340    101341    101342    101343
    101342    101344    101343    101344    101345    101346    101345    101347
    101346    101347    101348    101349    101348    101350    101349    101350
    101351    101352    101351    101353    101352    101353    101354    101355
    101354    101356    101355    101356    101357    101358    101357    101359
    101358    101359    101360    101361    101360    101362    101361    101362
    101363    101364    101363    101365    101364    101365    101366    101367
    101366    101368    101367    101368    101369    101370    101369    101371
    101370    101371    101372    101373    101372    101374    101373    101374
    101375    101376    101375    101377    101376    101377    101378    101379
    101378    101380    101379    101380    101381    101382    101381    101383
    101382    101383    101384    101385    101384    101386    101385    101386
    101387    101388    101387    101389    101388    101389    101390    101391
    101390    101392    101391    101392    101393    101394    101393    101395
    101394    101395    101396    101397    101396    101398    101397    101398
    101399    101400    101399    101401    101400    101401    101402    101403
    101402    101404    101403    101404    101405    101406    101405    101407
    101406    101407    101408    101409    101408    101410    101409    101410
    101411    101412    101411    101413    101412    101413    101414    101415
    101414    101416    101415    101416    101417    101418    101417    101419
    101418    101419    101420    101421    101420    101422    101421    101422
    101423    101424    101423    101425    101424    101425    101426    101427
    101426    101428    101427    101428    101429    101430    101429    101431
    101430    101431    101432    101433    101432    101434    101433    101434
    101435    101436    101435    101437    101436    101437    101438    101439
    101438    101440    101439    101440    101441    101442    101441    101443
    101442    101443    101444    101445    101444    101446    101445    101446
    101447    101448    101447    101449    101448    101449    101450    101451
    101450    101452    101451    101452    101453    101454    101453    101455
    101454    101455    101456    101457    101456    101458    101457    101458
    101459    101460    101459    101461    101460    101461    101462    101463
    101462    101464    101463    101464    101465    101466    101465    101467
    101466    101467    101468    101469    101468    101470    101469    101470
    101471    101472    101471    101473    101472    101473    101474    101475
    101474    101476    101475    101476    101477    101478    101477    101479
    101478    101479    101480    101481    101480    101482    101481    101482
    101483    101484    101483    101485    101484    101485    101486    101487
    101486    101488    101487    101488    101489    101490    101489    101491
    101490    101491    101492    101493    101492    101494    101493    101494
    101495    101496    101495    101497    101496    101497    101498    101499
    101498    101500    101499    101500    101501    101502    101501    101503
    101502    101503    101504    101505    101504    101506    101505    101506
    101507    101508    101507    101509    101508    101509    101510    101511
    101510    101512    101511    101512    101513    101514    101513    101515
    101514    101515    101516    101517    101516    101518    101517    101518
    101519    101520    101519    101521    101520    101521    101522    101523
    101522    101524    101523    101524    101525    101526    101525    101527
    101526    101527    101528    101529    101528    101530    101529    101530
    101531    101532    101531    101533    101532    101533    101534    101535
    101534    101536    101535    101536    101537    101538    101537    101539
    101538    101539    101540    101541    101540    101542    101541    101542
    101543    101544    101543    101545    101544    101545    101546    101547
    101546    101548    101547    101548    101549    101550    101549    101551
    101550    101551    101552    101553    101552    101554    101553    101554
    101555    101556    101555    101557    101556    101557    101558    101559
    101558    101560    101559    101560    101561    101562    101561    101563
    101562    101563    101564    101565    101564    101566    101565    101566
    101567    101568    101567    101569    101568    101569    101570    101571
    101570    101572    101571    101572    101573    101574    101573    101575
    101574    101575    101576    101577    101576    101578    101577    101578
    101579    101580    101579    101581    101580    101581    101582    101583
    101582    101584    101583    101584    101585    101586    101585    101587
    101586    101587    101588    101589    101588    101590    101589    101590
    101591    101592    101591    101593    101592    101593    101594    101595
    101594    101596    101595    101596    101597    101598    101597    101599
    101598    101599    101600    101601    101600    101602    101601    101602
    101603    101604    101603    101605    101604    101605    101606    101607
    101606    101608    101607    101608    101609    101610    101609    101611
    101610    101611    101612    101613    101612    101614    101613    101614
    101615    101616    101615    101617    101616    101617    101618    101619
    101618    101620    101619    101620    101621    101622    101621    101623
    101622    101623    101624    101625    101624    101626    101625    101626
    101627    101628    101627    101629    101628    101629    101630    101631
    101630    101632    101631    101632    101633    101634    101633    101635
    101634    101635    101636    101637    101636    101638    101637    101638
    101639    101640    101639    101641    101640    101641    101642    101643
    101642    101644    101643    101644    101645    101646    101645    101647
    101646    101647    101648    101649    101648    101650    101649    101650
    101651    101652    101651    101653    101652    101653    101654    101655
    101654    101656    101655    101656    101657    101658    101657    101659
    101658    101659    101660    101661    101660    101662    101661    101662
    101663    101664    101663    101665    101664    101665    101666    101667
    101666    101668    101667    101668    101669    101670    101669    101671
    101670    101671    101672    101673    101672    101674    101673    101674
    101675    101676    101675    101677    101676    101677    101678    101679
    101678    101680    101679    101680    101681    101682    101681    101683
    101682    101683    101684    101685    101684    101686    101685    101686
    101687    101688    101687    101689    101688    101689    101690    101691
    101690    101692    101691    101692    101693    101694    101693    101695
    101694    101695    101696    101697    101696    101698    101697    101698
    101699    101700    101699    101701    101700    101701    101702    101703
    101702    101704    101703    101704    101705    101706    101705    101707
    101706    101707    101708    101709    101708    101710    101709    101710
    101711    101712    101711    101713    101712    101713    101714    101715
    101714    101716    101715    101716    101717    101718    101717    101719
    101718    101719    101720    101721    101720    101722    101721    101722
    101723    101724    101723    101725    101724    101725    101726    101727
    101726    101728    101727    101728    101729    101730    101729    101731
    101730    101731    101732    101733    101732    101734    101733    101734
    101735    101736    101735    101737    101736    101737    101738    101739
    101738    101740    101739    101740    101741    101742    101741    101743
    101742    101743    101744    101745    101744    101746    101745    101746
    101747    101748    101747    101749    101748    101749    101750    101751
    101750    101752    101751    101752    101753    101754    101753    101755
    101754    101755    101756    101757    101756    101758    101757    101758
    101759    101760    101759    101761    101760    101761    101762    101763
    101762    101764    101763    101764    101765    101766    101765    101767
    101766    101767    101768    101769    101768    101770    101769    101770
    101771    101772    101771    101773    101772    101773    101774    101775
    101774    101776    101775    101776    101777    101778    101777    101779
    101778    101779    101780    101781    101780    101782    101781    101782
    101783    101784    101783    101785    101784    101785    101786    101787
    101786    101788    101787    101788    101789    101790    101789    101791
    101790    101791    101792    101793    101792    101794    101793    101794
    101795    101796    101795    101797    101796    101797    101798    101799
    101798    101800    101799    101800    101801    101802    101801    101803
    101802    101803    101804    101805    101804    101806    101805    101806
    101807    101808    101807    101809    101808    101809    101810    101811
    101810    101812    101811    101812    101813    101814    101813    101815
    101814    101815    101816    101817    101816    101818    101817    101818
    101819    101820    101819    101821    101820    101821    101822    101823
    101822    101824    101823    101824    101825    101826    101825    101827
    101826    101827    101828    101829    101828    101830    101829    101830
    101831    101832    101831    101833    101832    101833    101834    101835
    101834    101836    101835    101836    101837    101838    101837    101839
    101838    101839    101840    101841    101840    101842    101841    101842
    101843    101844    101843    101845    101844    101845    101846    101847
    101846    101848    101847    101848    101849    101850    101849    101851
    101850    101851    101852    101853    101852    101854    101853    101854
    101855    101856    101855    101857    101856    101857    101858    101859
    101858    101860    101859    101860    101861    101862    101861    101863
    101862    101863    101864    101865    101864    101866    101865    101866
    101867    101868    101867    101869    101868    101869    101870    101871
    101870    101872    101871    101872    101873    101874    101873    101875
    101874    101875    101876    101877    101876    101878    101877    101878
    101879    101880    101879    101881    101880    101881    101882    101883
    101882    101884    101883    101884    101885    101886    101885    101887
    101886    101887    101888    101889    101888    101890    101889    101890
    101891    101892    101891    101893    101892    101893    101894    101895
    101894    101896    101895    101896    101897    101898    101897    101899
    101898    101899    101900    101901    101900    101902    101901    101902
    101903    101904    101903    101905    101904    101905    101906    101907
    101906    101908    101907    101908    101909    101910    101909    101911
    101910    101911    101912    101913    101912    101914    101913    101914
    101915    101916    101915    101917    101916    101917    101918    101919
    101918    101920    101919    101920    101921    101922    101921    101923
    101922    101923    101924    101925    101924    101926    101925    101926
    101927    101928    101927    101929    101928    101929    101930    101931
    101930    101932    101931    101932    101933    101934    101933    101935
    101934    101935    101936    101937    101936    101938    101937    101938
    101939    101940    101939    101941    101940    101941    101942    101943
    101942    101944    101943    101944    101945    101946    101945    101947
    101946    101947    101948    101949    101948    101950    101949    101950
    101951    101952    101951    101953    101952    101953    101954    101955
    101954    101956    101955    101956    101957    101958    101957    101959
    101958    101959    101960    101961    101960    101962    101961    101962
    101963    101964    101963    101965    101964    101965    101966    101967
    101966    101968    101967    101968    101969    101970    101969    101971
    101970    101971    101972    101973    101972    101974    101973    101974
    101975    101976    101975    101977    101976    101977    101978    101979
    101978    101980    101979    101980    101981    101982    101981    101983
    101982    101983    101984    101985    101984    101986    101985    101986
    101987    101988    101987    101989    101988    101989    101990    101991
    101990    101992    101991    101992    101993    101994    101993    101995
    101994    101995    101996    101997    101996    101998    101997    101998
    101999    102000    101999    102001    102000    102001    102002    102003
    102002    102004    102003    102004    102005    102006    102005    102007
    102006    102007    102008    102009    102008    102010    102009    102010
    102011    102012    102011    102013    102012    102013    102014    102015
    102014    102016    102015    102016    102017    102018    102017    102019
    102018    102019    102020    102021    102020    102022    102021    102022
    102023    102024    102023    102025    102024    102025    102026    102027
    102026    102028    102027    102028    102029    102030    102029    102031
    102030    102031    102032    102033    102032    102034    102033    102034
    102035    102036    102035    102037    102036    102037    102038    102039
    102038    102040    102039    102040    102041    102042    102041    102043
    102042    102043    102044    102045    102044    102046    102045    102046
    102047    102048    102047    102049    102048    102049    102050    102051
    102050    102052    102051    102052    102053    102054    102053    102055
    102054    102055    102056    102057    102056    102058    102057    102058
    102059    102060    102059    102061    102060    102061    102062    102063
    102062    102064    102063    102064    102065    102066    102065    102067
    102066    102067    102068    102069    102068    102070    102069    102070
    102071    102072    102071    102073    102072    102073    102074    102075
    102074    102076    102075    102076    102077    102078    102077    102079
    102078    102079    102080    102081    102080    102082    102081    102082
    102083    102084    102083    102085    102084    102085    102086    102087
    102086    102088    102087    102088    102089    102090    102089    102091
    102090    102091    102092    102093    102092    102094    102093    102094
    102095    102096    102095    102097    102096    102097    102098    102099
    102098    102100    102099    102100    102101    102102    102101    102103
    102102    102103    102104    102105    102104    102106    102105    102106
    102107    102108    102107    102109    102108    102109    102110    102111
    102110    102112    102111    102112    102113    102114    102113    102115
    102114    102115    102116    102117    102116    102118    102117    102118
    102119    102120    102119    102121    102120    102121    102122    102123
    102122    102124    102123    102124    102125    102126    102125    102127
    102126    102127    102128    102129    102128    102130    102129    102130
    102131    102132    102131    102133    102132    102133    102134    102135
    102134    102136    102135    102136    102137    102138    102137    102139
    102138    102139    102140    102141    102140    102142    102141    102142
    102143    102144    102143    102145    102144    102145    102146    102147
    102146    102148    102147    102148    102149    102150    102149    102151
    102150    102151    102152    102153    102152    102154    102153    102154
    102155    102156    102155    102157    102156    102157    102158    102159
    102158    102160    102159    102160    102161    102162    102161    102163
    102162    102163    102164    102165    102164    102166    102165    102166
    102167    102168    102167    102169    102168    102169    102170    102171
    102170    102172    102171    102172    102173    102174    102173    102175
    102174    102175    102176    102177    102176    102178    102177    102178
    102179    102180    102179    102181    102180    102181    102182    102183
    102182    102184    102183    102184    102185    102186    102185    102187
    102186    102187    102188    102189    102188    102190    102189    102190
    102191    102192    102191    102193    102192    102193    102194    102195
    102194    102196    102195    102196    102197    102198    102197    102199
    102198    102199    102200    102201    102200    102202    102201    102202
    102203    102204    102203    102205    102204    102205    102206    102207
    102206    102208    102207    102208    102209    102210    102209    102211
    102210    102211    102212    102213    102212    102214    102213    102214
    102215    102216    102215    102217    102216    102217    102218    102219
    102218    102220    102219    102220    102221    102222    102221    102223
    102222    102223    102224    102225    102224    102226    102225    102226
    102227    102228    102227    102229    102228    102229    102230    102231
    102230    102232    102231    102232    102233    102234    102233    102235
    102234    102235    102236    102237    102236    102238    102237    102238
    102239    102240    102239    102241    102240    102241    102242    102243
    102242    102244    102243    102244    102245    102246    102245    102247
    102246    102247    102248    102249    102248    102250    102249    102250
    102251    102252    102251    102253    102252    102253    102254    102255
    102254    102256    102255    102256    102257    102258    102257    102259
    102258    102259    102260    102261    102260    102262    102261    102262
    102263    102264    102263    102265    102264    102265    102266    102267
    102266    102268    102267    102268    102269    102270    102269    102271
    102270    102271    102272    102273    102272    102274    102273    102274
    102275    102276    102275    102277    102276    102277    102278    102279
    102278    102280    102279    102280    102281    102282    102281    102283
    102282    102283    102284    102285    102284    102286    102285    102286
    102287    102288    102287    102289    102288    102289    102290    102291
    102290    102292    102291    102292    102293    102294    102293    102295
    102294    102295    102296    102297    102296    102298    102297    102298
    102299    102300    102299    102301    102300    102301    102302    102303
    102302    102304    102303    102304    102305    102306    102305    102307
    102306    102307    102308    102309    102308    102310    102309    102310
    102311    102312    102311    102313    102312    102313    102314    102315
    102314    102316    102315    102316    102317    102318    102317    102319
    102318    102319    102320    102321    102320    102322    102321    102322
    102323    102324    102323    102325    102324    102325    102326    102327
    102326    102328    102327    102328    102329    102330    102329    102331
    102330    102331    102332    102333    102332    102334    102333    102334
    102335    102336    102335    102337    102336    102337    102338    102339
    102338    102340    102339    102340    102341    102342    102341    102343
    102342    102343    102344    102345    102344    102346    102345    102346
    102347    102348    102347    102349    102348    102349    102350    102351
    102350    102352    102351    102352    102353    102354    102353    102355
    102354    102355    102356    102357    102356    102358    102357    102358
    102359    102360    102359    102361    102360    102361    102362    102363
    102362    102364    102363    102364    102365    102366    102365    102367
    102366    102367    102368    102369    102368    102370    102369    102370
    102371    102372    102371    102373    102372    102373    102374    102375
    102374    102376    102375    102376    102377    102378    102377    102379
    102378    102379    102380    102381    102380    102382    102381    102382
    102383    102384    102383    102385    102384    102385    102386    102387
    102386    102388    102387    102388    102389    102390    102389    102391
    102390    102391    102392    102393    102392    102394    102393    102394
    102395    102396    102395    102397    102396    102397    102398    102399
    102398    102400    102399    102400    102401    102402    102401    102403
    102402    102403    102404    102405    102404    102406    102405    102406
    102407    102408    102407    102409    102408    102409    102410    102411
    102410    102412    102411    102412    102413    102414    102413    102415
    102414    102415    102416    102417    102416    102418    102417    102418
    102419    102420    102419    102421    102420    102421    102422    102423
    102422    102424    102423    102424    102425    102426    102425    102427
    102426    102427    102428    102429    102428    102430    102429    102430
    102431    102432    102431    102433    102432    102433    102434    102435
    102434    102436    102435    102436    102437    102438    102437    102439
    102438    102439    102440    102441    102440    102442    102441    102442
    102443    102444    102443    102445    102444    102445    102446    102447
    102446    102448    102447    102448    102449    102450    102449    102451
    102450    102451    102452    102453    102452    102454    102453    102454
    102455    102456    102455    102457    102456    102457    102458    102459
    102458    102460    102459    102460    102461    102462    102461    102463
    102462    102463    102464    102465    102464    102466    102465    102466
    102467    102468    102467    102469    102468    102469    102470    102471
    102470    102472    102471    102472    102473    102474    102473    102475
    102474    102475    102476    102477    102476    102478    102477    102478
    102479    102480    102479    102481    102480    102481    102482    102483
    102482    102484    102483    102484    102485    102486    102485    102487
    102486    102487    102488    102489    102488    102490    102489    102490
    102491    102492    102491    102493    102492    102493    102494    102495
    102494    102496    102495    102496    102497    102498    102497    102499
    102498    102499    102500    102501    102500    102502    102501    102502
    102503    102504    102503    102505    102504    102505    102506    102507
    102506    102508    102507    102508    102509    102510    102509    102511
    102510    102511    102512    102513    102512    102514    102513    102514
    102515    102516    102515    102517    102516    102517    102518    102519
    102518    102520    102519    102520    102521    102522    102521    102523
    102522    102523    102524    102525    102524    102526    102525    102526
    102527    102528    102527    102529    102528    102529    102530    102531
    102530    102532    102531    102532    102533    102534    102533    102535
    102534    102535    102536    102537    102536    102538    102537    102538
    102539    102540    102539    102541    102540    102541    102542    102543
    102542    102544    102543    102544    102545    102546    102545    102547
    102546    102547    102548    102549    102548    102550    102549    102550
    102551    102552    102551    102553    102552    102553    102554    102555
    102554    102556    102555    102556    102557    102558    102557    102559
    102558    102559    102560    102561    102560    102562    102561    102562
    102563    102564    102563    102565    102564    102565    102566    102567
    102566    102568    102567    102568    102569    102570    102569    102571
    102570    102571    102572    102573    102572    102574    102573    102574
    102575    102576    102575    102577    102576    102577    102578    102579
    102578    102580    102579    102580    102581    102582    102581    102583
    102582    102583    102584    102585    102584    102586    102585    102586
    102587    102588    102587    102589    102588    102589    102590    102591
    102590    102592    102591    102592    102593    102594    102593    102595
    102594    102595    102596    102597    102596    102598    102597    102598
    102599    102600    102599    102601    102600    102601    102602    102603
    102602    102604    102603    102604    102605    102606    102605    102607
    102606    102607    102608    102609    102608    102610    102609    102610
    102611    102612    102611    102613    102612    102613    102614    102615
    102614    102616    102615    102616    102617    102618    102617    102619
    102618    102619    102620    102621    102620    102622    102621    102622
    102623    102624    102623    102625    102624    102625    102626    102627
    102626    102628    102627    102628    102629    102630    102629    102631
    102630    102631    102632    102633    102632    102634    102633    102634
    102635    102636    102635    102637    102636    102637    102638    102639
    102638    102640    102639    102640    102641    102642    102641    102643
    102642    102643    102644    102645    102644    102646    102645    102646
    102647    102648    102647    102649    102648    102649    102650    102651
    102650    102652    102651    102652    102653    102654    102653    102655
    102654    102655    102656    102657    102656    102658    102657    102658
    102659    102660    102659    102661    102660    102661    102662    102663
    102662    102664    102663    102664    102665    102666    102665    102667
    102666    102667    102668    102669    102668    102670    102669    102670
    102671    102672    102671    102673    102672    102673    102674    102675
    102674    102676    102675    102676    102677    102678    102677    102679
    102678    102679    102680    102681    102680    102682    102681    102682
    102683    102684    102683    102685    102684    102685    102686    102687
    102686    102688    102687    102688    102689    102690    102689    102691
    102690    102691    102692    102693    102692    102694    102693    102694
    102695    102696    102695    102697    102696    102697    102698    102699
    102698    102700    102699    102700    102701    102702    102701    102703
    102702    102703    102704    102705    102704    102706    102705    102706
    102707    102708    102707    102709    102708    102709    102710    102711
    102710    102712    102711    102712    102713    102714    102713    102715
    102714    102715    102716    102717    102716    102718    102717    102718
    102719    102720    102719    102721    102720    102721    102722    102723
    102722    102724    102723    102724    102725    102726    102725    102727
    102726    102727    102728    102729    102728    102730    102729    102730
    102731    102732    102731    102733    102732    102733    102734    102735
    102734    102736    102735    102736    102737    102738    102737    102739
    102738    102739    102740    102741    102740    102742    102741    102742
    102743    102744    102743    102745    102744    102745    102746    102747
    102746    102748    102747    102748    102749    102750    102749    102751
    102750    102751    102752    102753    102752    102754    102753    102754
    102755    102756    102755    102757    102756    102757    102758    102759
    102758    102760    102759    102760    102761    102762    102761    102763
    102762    102763    102764    102765    102764    102766    102765    102766
    102767    102768    102767    102769    102768    102769    102770    102771
    102770    102772    102771    102772    102773    102774    102773    102775
    102774    102775    102776    102777    102776    102778    102777    102778
    102779    102780    102779    102781    102780    102781    102782    102783
    102782    102784    102783    102784    102785    102786    102785    102787
    102786    102787    102788    102789    102788    102790    102789    102790
    102791    102792    102791    102793    102792    102793    102794    102795
    102794    102796    102795    102796    102797    102798    102797    102799
    102798    102799    102800    102801    102800    102802    102801    102802
    102803    102804    102803    102805    102804    102805    102806    102807
    102806    102808    102807    102808    102809    102810    102809    102811
    102810    102811    102812    102813    102812    102814    102813    102814
    102815    102816    102815    102817    102816    102817    102818    102819
    102818    102820    102819    102820    102821    102822    102821    102823
    102822    102823    102824    102825    102824    102826    102825    102826
    102827    102828    102827    102829    102828    102829    102830    102831
    102830    102832    102831    102832    102833    102834    102833    102835
    102834    102835    102836    102837    102836    102838    102837    102838
    102839    102840    102839    102841    102840    102841    102842    102843
    102842    102844    102843    102844    102845    102846    102845    102847
    102846    102847    102848    102849    102848    102850    102849    102850
    102851    102852    102851    102853    102852    102853    102854    102855
    102854    102856    102855    102856    102857    102858    102857    102859
    102858    102859    102860    102861    102860    102862    102861    102862
    102863    102864    102863    102865    102864    102865    102866    102867
    102866    102868    102867    102868    102869    102870    102869    102871
    102870    102871    102872    102873    102872    102874    102873    102874
    102875    102876    102875    102877    102876    102877    102878    102879
    102878    102880    102879    102880    102881    102882    102881    102883
    102882    102883    102884    102885    102884    102886    102885    102886
    102887    102888    102887    102889    102888    102889    102890    102891
    102890    102892    102891    102892    102893    102894    102893    102895
    102894    102895    102896    102897    102896    102898    102897    102898
    102899    102900    102899    102901    102900    102901    102902    102903
    102902    102904    102903    102904    102905    102906    102905    102907
    102906    102907    102908    102909    102908    102910    102909    102910
    102911    102912    102911    102913    102912    102913    102914    102915
    102914    102916    102915    102916    102917    102918    102917    102919
    102918    102919    102920    102921    102920    102922    102921    102922
    102923    102924    102923    102925    102924    102925    102926    102927
    102926    102928    102927    102928    102929    102930    102929    102931
    102930    102931    102932    102933    102932    102934    102933    102934
    102935    102936    102935    102937    102936    102937    102938    102939
    102938    102940    102939    102940    102941    102942    102941    102943
    102942    102943    102944    102945    102944    102946    102945    102946
    102947    102948    102947    102949    102948    102949    102950    102951
    102950    102952    102951    102952    102953    102954    102953    102955
    102954    102955    102956    102957    102956    102958    102957    102958
    102959    102960    102959    102961    102960    102961    102962    102963
    102962    102964    102963    102964    102965    102966    102965    102967
    102966    102967    102968    102969    102968    102970    102969    102970
    102971    102972    102971    102973    102972    102973    102974    102975
    102974    102976    102975    102976    102977    102978    102977    102979
    102978    102979    102980    102981    102980    102982    102981    102982
    102983    102984    102983    102985    102984    102985    102986    102987
    102986    102988    102987    102988    102989    102990    102989    102991
    102990    102991    102992    102993    102992    102994    102993    102994
    102995    102996    102995    102997    102996    102997    102998    102999
    102998    103000    102999    103000    103001    103002    103001    103003
    103002    103003    103004    103005    103004    103006    103005    103006
    103007    103008    103007    103009    103008    103009    103010    103011
    103010    103012    103011    103012    103013    103014    103013    103015
    103014    103015    103016    103017    103016    103018    103017    103018
    103019    103020    103019    103021    103020    103021    103022    103023
    103022    103024    103023    103024    103025    103026    103025    103027
    103026    103027    103028    103029    103028    103030    103029    103030
    103031    103032    103031    103033    103032    103033    103034    103035
    103034    103036    103035    103036    103037    103038    103037    103039
    103038    103039    103040    103041    103040    103042    103041    103042
    103043    103044    103043    103045    103044    103045    103046    103047
    103046    103048    103047    103048    103049    103050    103049    103051
    103050    103051    103052    103053    103052    103054    103053    103054
    103055    103056    103055    103057    103056    103057    103058    103059
    103058    103060    103059    103060    103061    103062    103061    103063
    103062    103063    103064    103065    103064    103066    103065    103066
    103067    103068    103067    103069    103068    103069    103070    103071
    103070    103072    103071    103072    103073    103074    103073    103075
    103074    103075    103076    103077    103076    103078    103077    103078
    103079    103080    103079    103081    103080    103081    103082    103083
    103082    103084    103083    103084    103085    103086    103085    103087
    103086    103087    103088    103089    103088    103090    103089    103090
    103091    103092    103091    103093    103092    103093    103094    103095
    103094    103096    103095    103096    103097    103098    103097    103099
    103098    103099    103100    103101    103100    103102    103101    103102
    103103    103104    103103    103105    103104    103105    103106    103107
    103106    103108    103107    103108    103109    103110    103109    103111
    103110    103111    103112    103113    103112    103114    103113    103114
    103115    103116    103115    103117    103116    103117    103118    103119
    103118    103120    103119    103120    103121    103122    103121    103123
    103122    103123    103124    103125    103124    103126    103125    103126
    103127    103128    103127    103129    103128    103129    103130    103131
    103130    103132    103131    103132    103133    103134    103133    103135
    103134    103135    103136    103137    103136    103138    103137    103138
    103139    103140    103139    103141    103140    103141    103142    103143
    103142    103144    103143    103144    103145    103146    103145    103147
    103146    103147    103148    103149    103148    103150    103149    103150
    103151    103152    103151    103153    103152    103153    103154    103155
    103154    103156    103155    103156    103157    103158    103157    103159
    103158    103159    103160    103161    103160    103162    103161    103162
    103163    103164    103163    103165    103164    103165    103166    103167
    103166    103168    103167    103168    103169    103170    103169    103171
    103170    103171    103172    103173    103172    103174    103173    103174
    103175    103176    103175    103177    103176    103177    103178    103179
    103178    103180    103179    103180    103181    103182    103181    103183
    103182    103183    103184    103185    103184    103186    103185    103186
    103187    103188    103187    103189    103188    103189    103190    103191
    103190    103192    103191    103192    103193    103194    103193    103195
    103194    103195    103196    103197    103196    103198    103197    103198
    103199    103200    103199    103201    103200    103201    103202    103203
    103202    103204    103203    103204    103205    103206    103205    103207
    103206    103207    103208    103209    103208    103210    103209    103210
    103211    103212    103211    103213    103212    103213    103214    103215
    103214    103216    103215    103216    103217    103218    103217    103219
    103218    103219    103220    103221    103220    103222    103221    103222
    103223    103224    103223    103225    103224    103225    103226    103227
    103226    103228    103227    103228    103229    103230    103229    103231
    103230    103231    103232    103233    103232    103234    103233    103234
    103235    103236    103235    103237    103236    103237    103238    103239
    103238    103240    103239    103240    103241    103242    103241    103243
    103242    103243    103244    103245    103244    103246    103245    103246
    103247    103248    103247    103249    103248    103249    103250    103251
    103250    103252    103251    103252    103253    103254    103253    103255
    103254    103255    103256    103257    103256    103258    103257    103258
    103259    103260    103259    103261    103260    103261    103262    103263
    103262    103264    103263    103264    103265    103266    103265    103267
    103266    103267    103268    103269    103268    103270    103269    103270
    103271    103272    103271    103273    103272    103273    103274    103275
    103274    103276    103275    103276    103277    103278    103277    103279
    103278    103279    103280    103281    103280    103282    103281    103282
    103283    103284    103283    103285    103284    103285    103286    103287
    103286    103288    103287    103288    103289    103290    103289    103291
    103290    103291    103292    103293    103292    103294    103293    103294
    103295    103296    103295    103297    103296    103297    103298    103299
    103298    103300    103299    103300    103301    103302    103301    103303
    103302    103303    103304    103305    103304    103306    103305    103306
    103307    103308    103307    103309    103308    103309    103310    103311
    103310    103312    103311    103312    103313    103314    103313    103315
    103314    103315    103316    103317    103316    103318    103317    103318
    103319    103320    103319    103321    103320    103321    103322    103323
    103322    103324    103323    103324    103325    103326    103325    103327
    103326    103327    103328    103329    103328    103330    103329    103330
    103331    103332    103331    103333    103332    103333    103334    103335
    103334    103336    103335    103336    103337    103338    103337    103339
    103338    103339    103340    103341    103340    103342    103341    103342
    103343    103344    103343    103345    103344    103345    103346    103347
    103346    103348    103347    103348    103349    103350    103349    103351
    103350    103351    103352    103353    103352    103354    103353    103354
    103355    103356    103355    103357    103356    103357    103358    103359
    103358    103360    103359    103360    103361    103362    103361    103363
    103362    103363    103364    103365    103364    103366    103365    103366
    103367    103368    103367    103369    103368    103369    103370    103371
    103370    103372    103371    103372    103373    103374    103373    103375
    103374    103375    103376    103377    103376    103378    103377    103378
    103379    103380    103379    103381    103380    103381    103382    103383
    103382    103384    103383    103384    103385    103386    103385    103387
    103386    103387    103388    103389    103388    103390    103389    103390
    103391    103392    103391    103393    103392    103393    103394    103395
    103394    103396    103395    103396    103397    103398    103397    103399
    103398    103399    103400    103401    103400    103402    103401    103402
    103403    103404    103403    103405    103404    103405    103406    103407
    103406    103408    103407    103408    103409    103410    103409    103411
    103410    103411    103412    103413    103412    103414    103413    103414
    103415    103416    103415    103417    103416    103417    103418    103419
    103418    103420    103419    103420    103421    103422    103421    103423
    103422    103423    103424    103425    103424    103426    103425    103426
    103427    103428    103427    103429    103428    103429    103430    103431
    103430    103432    103431    103432    103433    103434    103433    103435
    103434    103435    103436    103437    103436    103438    103437    103438
    103439    103440    103439    103441    103440    103441    103442    103443
    103442    103444    103443    103444    103445    103446    103445    103447
    103446    103447    103448    103449    103448    103450    103449    103450
    103451    103452    103451    103453    103452    103453    103454    103455
    103454    103456    103455    103456    103457    103458    103457    103459
    103458    103459    103460    103461    103460    103462    103461    103462
    103463    103464    103463    103465    103464    103465    103466    103467
    103466    103468    103467    103468    103469    103470    103469    103471
    103470    103471    103472    103473    103472    103474    103473    103474
    103475    103476    103475    103477    103476    103477    103478    103479
    103478    103480    103479    103480    103481    103482    103481    103483
    103482    103483    103484    103485    103484    103486    103485    103486
    103487    103488    103487    103489    103488    103489    103490    103491
    103490    103492    103491    103492    103493    103494    103493    103495
    103494    103495    103496    103497    103496    103498    103497    103498
    103499    103500    103499    103501    103500    103501    103502    103503
    103502    103504    103503    103504    103505    103506    103505    103507
    103506    103507    103508    103509    103508    103510    103509    103510
    103511    103512    103511    103513    103512    103513    103514    103515
    103514    103516    103515    103516    103517    103518    103517    103519
    103518    103519    103520    103521    103520    103522    103521    103522
    103523    103524    103523    103525    103524    103525    103526    103527
    103526    103528    103527    103528    103529    103530    103529    103531
    103530    103531    103532    103533    103532    103534    103533    103534
    103535    103536    103535    103537    103536    103537    103538    103539
    103538    103540    103539    103540    103541    103542    103541    103543
    103542    103543    103544    103545    103544    103546    103545    103546
    103547    103548    103547    103549    103548    103549    103550    103551
    103550    103552    103551    103552    103553    103554    103553    103555
    103554    103555    103556    103557    103556    103558    103557    103558
    103559    103560    103559    103561    103560    103561    103562    103563
    103562    103564    103563    103564    103565    103566    103565    103567
    103566    103567    103568    103569    103568    103570    103569    103570
    103571    103572    103571    103573    103572    103573    103574    103575
    103574    103576    103575    103576    103577    103578    103577    103579
    103578    103579    103580    103581    103580    103582    103581    103582
    103583    103584    103583    103585    103584    103585    103586    103587
    103586    103588    103587    103588    103589    103590    103589    103591
    103590    103591    103592    103593    103592    103594    103593    103594
    103595    103596    103595    103597    103596    103597    103598    103599
    103598    103600    103599    103600    103601    103602    103601    103603
    103602    103603    103604    103605    103604    103606    103605    103606
    103607    103608    103607    103609    103608    103609    103610    103611
    103610    103612    103611    103612    103613    103614    103613    103615
    103614    103615    103616    103617    103616    103618    103617    103618
    103619    103620    103619    103621    103620    103621    103622    103623
    103622    103624    103623    103624    103625    103626    103625    103627
    103626    103627    103628    103629    103628    103630    103629    103630
    103631    103632    103631    103633    103632    103633    103634    103635
    103634    103636    103635    103636    103637    103638    103637    103639
    103638    103639    103640    103641    103640    103642    103641    103642
    103643    103644    103643    103645    103644    103645    103646    103647
    103646    103648    103647    103648    103649    103650    103649    103651
    103650    103651    103652    103653    103652    103654    103653    103654
    103655    103656    103655    103657    103656    103657    103658    103659
    103658    103660    103659    103660    103661    103662    103661    103663
    103662    103663    103664    103665    103664    103666    103665    103666
    103667    103668    103667    103669    103668    103669    103670    103671
    103670    103672    103671    103672    103673    103674    103673    103675
    103674    103675    103676    103677    103676    103678    103677    103678
    103679    103680    103679    103681    103680    103681    103682    103683
    103682    103684    103683    103684    103685    103686    103685    103687
    103686    103687    103688    103689    103688    103690    103689    103690
    103691    103692    103691    103693    103692    103693    103694    103695
    103694    103696    103695    103696    103697    103698    103697    103699
    103698    103699    103700    103701    103700    103702    103701    103702
    103703    103704    103703    103705    103704    103705    103706    103707
    103706    103708    103707    103708    103709    103710    103709    103711
    103710    103711    103712    103713    103712    103714    103713    103714
    103715    103716    103715    103717    103716    103717    103718    103719
    103718    103720    103719    103720    103721    103722    103721    103723
    103722    103723    103724    103725    103724    103726    103725    103726
    103727    103728    103727    103729    103728    103729    103730    103731
    103730    103732    103731    103732    103733    103734    103733    103735
    103734    103735    103736    103737    103736    103738    103737    103738
    103739    103740    103739    103741    103740    103741    103742    103743
    103742    103744    103743    103744    103745    103746    103745    103747
    103746    103747    103748    103749    103748    103750    103749    103750
    103751    103752    103751    103753    103752    103753    103754    103755
    103754    103756    103755    103756    103757    103758    103757    103759
    103758    103759    103760    103761    103760    103762    103761    103762
    103763    103764    103763    103765    103764    103765    103766    103767
    103766    103768    103767    103768    103769    103770    103769    103771
    103770    103771    103772    103773    103772    103774    103773    103774
    103775    103776    103775    103777    103776    103777    103778    103779
    103778    103780    103779    103780    103781    103782    103781    103783
    103782    103783    103784    103785    103784    103786    103785    103786
    103787    103788    103787    103789    103788    103789    103790    103791
    103790    103792    103791    103792    103793    103794    103793    103795
    103794    103795    103796    103797    103796    103798    103797    103798
    103799    103800    103799    103801    103800    103801    103802    103803
    103802    103804    103803    103804    103805    103806    103805    103807
    103806    103807    103808    103809    103808    103810    103809    103810
    103811    103812    103811    103813    103812    103813    103814    103815
    103814    103816    103815    103816    103817    103818    103817    103819
    103818    103819    103820    103821    103820    103822    103821    103822
    103823    103824    103823    103825    103824    103825    103826    103827
    103826    103828    103827    103828    103829    103830    103829    103831
    103830    103831    103832    103833    103832    103834    103833    103834
    103835    103836    103835    103837    103836    103837    103838    103839
    103838    103840    103839    103840    103841    103842    103841    103843
    103842    103843    103844    103845    103844    103846    103845    103846
    103847    103848    103847    103849    103848    103849    103850    103851
    103850    103852    103851    103852    103853    103854    103853    103855
    103854    103855    103856    103857    103856    103858    103857    103858
    103859    103860    103859    103861    103860    103861    103862    103863
    103862    103864    103863    103864    103865    103866    103865    103867
    103866    103867    103868    103869    103868    103870    103869    103870
    103871    103872    103871    103873    103872    103873    103874    103875
    103874    103876    103875    103876    103877    103878    103877    103879
    103878    103879    103880    103881    103880    103882    103881    103882
    103883    103884    103883    103885    103884    103885    103886    103887
    103886    103888    103887    103888    103889    103890    103889    103891
    103890    103891    103892    103893    103892    103894    103893    103894
    103895    103896    103895    103897    103896    103897    103898    103899
    103898    103900    103899    103900    103901    103902    103901    103903
    103902    103903    103904    103905    103904    103906    103905    103906
    103907    103908    103907    103909    103908    103909    103910    103911
    103910    103912    103911    103912    103913    103914    103913    103915
    103914    103915    103916    103917    103916    103918    103917    103918
    103919    103920    103919    103921    103920    103921    103922    103923
    103922    103924    103923    103924    103925    103926    103925    103927
    103926    103927    103928    103929    103928    103930    103929    103930
    103931    103932    103931    103933    103932    103933    103934    103935
    103934    103936    103935    103936    103937    103938    103937    103939
    103938    103939    103940    103941    103940    103942    103941    103942
    103943    103944    103943    103945    103944    103945    103946    103947
    103946    103948    103947    103948    103949    103950    103949    103951
    103950    103951    103952    103953    103952    103954    103953    103954
    103955    103956    103955    103957    103956    103957    103958    103959
    103958    103960    103959    103960    103961    103962    103961    103963
    103962    103963    103964    103965    103964    103966    103965    103966
    103967    103968    103967    103969    103968    103969    103970    103971
    103970    103972    103971    103972    103973    103974    103973    103975
    103974    103975    103976    103977    103976    103978    103977    103978
    103979    103980    103979    103981    103980    103981    103982    103983
    103982    103984    103983    103984    103985    103986    103985    103987
    103986    103987    103988    103989    103988    103990    103989    103990
    103991    103992    103991    103993    103992    103993    103994    103995
    103994    103996    103995    103996    103997    103998    103997    103999
    103998    103999    104000    104001    104000    104002    104001    104002
    104003    104004    104003    104005    104004    104005    104006    104007
    104006    104008    104007    104008    104009    104010    104009    104011
    104010    104011    104012    104013    104012    104014    104013    104014
    104015    104016    104015    104017    104016    104017    104018    104019
    104018    104020    104019    104020    104021    104022    104021    104023
    104022    104023    104024    104025    104024    104026    104025    104026
    104027    104028    104027    104029    104028    104029    104030    104031
    104030    104032    104031    104032    104033    104034    104033    104035
    104034    104035    104036    104037    104036    104038    104037    104038
    104039    104040    104039    104041    104040    104041    104042    104043
    104042    104044    104043    104044    104045    104046    104045    104047
    104046    104047    104048    104049    104048    104050    104049    104050
    104051    104052    104051    104053    104052    104053    104054    104055
    104054    104056    104055    104056    104057    104058    104057    104059
    104058    104059    104060    104061    104060    104062    104061    104062
    104063    104064    104063    104065    104064    104065    104066    104067
    104066    104068    104067    104068    104069    104070    104069    104071
    104070    104071    104072    104073    104072    104074    104073    104074
    104075    104076    104075    104077    104076    104077    104078    104079
    104078    104080    104079    104080    104081    104082    104081    104083
    104082    104083    104084    104085    104084    104086    104085    104086
    104087    104088    104087    104089    104088    104089    104090    104091
    104090    104092    104091    104092    104093    104094    104093    104095
    104094    104095    104096    104097    104096    104098    104097    104098
    104099    104100    104099    104101    104100    104101    104102    104103
    104102    104104    104103    104104    104105    104106    104105    104107
    104106    104107    104108    104109    104108    104110    104109    104110
    104111    104112    104111    104113    104112    104113    104114    104115
    104114    104116    104115    104116    104117    104118    104117    104119
    104118    104119    104120    104121    104120    104122    104121    104122
    104123    104124    104123    104125    104124    104125    104126    104127
    104126    104128    104127    104128    104129    104130    104129    104131
    104130    104131    104132    104133    104132    104134    104133    104134
    104135    104136    104135    104137    104136    104137    104138    104139
    104138    104140    104139    104140    104141    104142    104141    104143
    104142    104143    104144    104145    104144    104146    104145    104146
    104147    104148    104147    104149    104148    104149    104150    104151
    104150    104152    104151    104152    104153    104154    104153    104155
    104154    104155    104156    104157    104156    104158    104157    104158
    104159    104160    104159    104161    104160    104161    104162    104163
    104162    104164    104163    104164    104165    104166    104165    104167
    104166    104167    104168    104169    104168    104170    104169    104170
    104171    104172    104171    104173    104172    104173    104174    104175
    104174    104176    104175    104176    104177    104178    104177    104179
    104178    104179    104180    104181    104180    104182    104181    104182
    104183    104184    104183    104185    104184    104185    104186    104187
    104186    104188    104187    104188    104189    104190    104189    104191
    104190    104191    104192    104193    104192    104194    104193    104194
    104195    104196    104195    104197    104196    104197    104198    104199
    104198    104200    104199    104200    104201    104202    104201    104203
    104202    104203    104204    104205    104204    104206    104205    104206
    104207    104208    104207    104209    104208    104209    104210    104211
    104210    104212    104211    104212    104213    104214    104213    104215
    104214    104215    104216    104217    104216    104218    104217    104218
    104219    104220    104219    104221    104220    104221    104222    104223
    104222    104224    104223    104224    104225    104226    104225    104227
    104226    104227    104228    104229    104228    104230    104229    104230
    104231    104232    104231    104233    104232    104233    104234    104235
    104234    104236    104235    104236    104237    104238    104237    104239
    104238    104239    104240    104241    104240    104242    104241    104242
    104243    104244    104243    104245    104244    104245    104246    104247
    104246    104248    104247    104248    104249    104250    104249    104251
    104250    104251    104252    104253    104252    104254    104253    104254
    104255    104256    104255    104257    104256    104257    104258    104259
    104258    104260    104259    104260    104261    104262    104261    104263
    104262    104263    104264    104265    104264    104266    104265    104266
    104267    104268    104267    104269    104268    104269    104270    104271
    104270    104272    104271    104272    104273    104274    104273    104275
    104274    104275    104276    104277    104276    104278    104277    104278
    104279    104280    104279    104281    104280    104281    104282    104283
    104282    104284    104283    104284    104285    104286    104285    104287
    104286    104287    104288    104289    104288    104290    104289    104290
    104291    104292    104291    104293    104292    104293    104294    104295
    104294    104296    104295    104296    104297    104298    104297    104299
    104298    104299    104300    104301    104300    104302    104301    104302
    104303    104304    104303    104305    104304    104305    104306    104307
    104306    104308    104307    104308    104309    104310    104309    104311
    104310    104311    104312    104313    104312    104314    104313    104314
    104315    104316    104315    104317    104316    104317    104318    104319
    104318    104320    104319    104320    104321    104322    104321    104323
    104322    104323    104324    104325    104324    104326    104325    104326
    104327    104328    104327    104329    104328    104329    104330    104331
    104330    104332    104331    104332    104333    104334    104333    104335
    104334    104335    104336    104337    104336    104338    104337    104338
    104339    104340    104339    104341    104340    104341    104342    104343
    104342    104344    104343    104344    104345    104346    104345    104347
    104346    104347    104348    104349    104348    104350    104349    104350
    104351    104352    104351    104353    104352    104353    104354    104355
    104354    104356    104355    104356    104357    104358    104357    104359
    104358    104359    104360    104361    104360    104362    104361    104362
    104363    104364    104363    104365    104364    104365    104366    104367
    104366    104368    104367    104368    104369    104370    104369    104371
    104370    104371    104372    104373    104372    104374    104373    104374
    104375    104376    104375    104377    104376    104377    104378    104379
    104378    104380    104379    104380    104381    104382    104381    104383
    104382    104383    104384    104385    104384    104386    104385    104386
    104387    104388    104387    104389    104388    104389    104390    104391
    104390    104392    104391    104392    104393    104394    104393    104395
    104394    104395    104396    104397    104396    104398    104397    104398
    104399    104400    104399    104401    104400    104401    104402    104403
    104402    104404    104403    104404    104405    104406    104405    104407
    104406    104407    104408    104409    104408    104410    104409    104410
    104411    104412    104411    104413    104412    104413    104414    104415
    104414    104416    104415    104416    104417    104418    104417    104419
    104418    104419    104420    104421    104420    104422    104421    104422
    104423    104424    104423    104425    104424    104425    104426    104427
    104426    104428    104427    104428    104429    104430    104429    104431
    104430    104431    104432    104433    104432    104434    104433    104434
    104435    104436    104435    104437    104436    104437    104438    104439
    104438    104440    104439    104440    104441    104442    104441    104443
    104442    104443    104444    104445    104444    104446    104445    104446
    104447    104448    104447    104449    104448    104449    104450    104451
    104450    104452    104451    104452    104453    104454    104453    104455
    104454    104455    104456    104457    104456    104458    104457    104458
    104459    104460    104459    104461    104460    104461    104462    104463
    104462    104464    104463    104464    104465    104466    104465    104467
    104466    104467    104468    104469    104468    104470    104469    104470
    104471    104472    104471    104473    104472    104473    104474    104475
    104474    104476    104475    104476    104477    104478    104477    104479
    104478    104479    104480    104481    104480    104482    104481    104482
    104483    104484    104483    104485    104484    104485    104486    104487
    104486    104488    104487    104488    104489    104490    104489    104491
    104490    104491    104492    104493    104492    104494    104493    104494
    104495    104496    104495    104497    104496    104497    104498    104499
    104498    104500    104499    104500    104501    104502    104501    104503
    104502    104503    104504    104505    104504    104506    104505    104506
    104507    104508    104507    104509    104508    104509    104510    104511
    104510    104512    104511    104512    104513    104514    104513    104515
    104514    104515    104516    104517    104516    104518    104517    104518
    104519    104520    104519    104521    104520    104521    104522    104523
    104522    104524    104523    104524    104525    104526    104525    104527
    104526    104527    104528    104529    104528    104530    104529    104530
    104531    104532    104531    104533    104532    104533    104534    104535
    104534    104536    104535    104536    104537    104538    104537    104539
    104538    104539    104540    104541    104540    104542    104541    104542
    104543    104544    104543    104545    104544    104545    104546    104547
    104546    104548    104547    104548    104549    104550    104549    104551
    104550    104551    104552    104553    104552    104554    104553    104554
    104555    104556    104555    104557    104556    104557    104558    104559
    104558    104560    104559    104560    104561    104562    104561    104563
    104562    104563    104564    104565    104564    104566    104565    104566
    104567    104568    104567    104569    104568    104569    104570    104571
    104570    104572    104571    104572    104573    104574    104573    104575
    104574    104575    104576    104577    104576    104578    104577    104578
    104579    104580    104579    104581    104580    104581    104582    104583
    104582    104584    104583    104584    104585    104586    104585    104587
    104586    104587    104588    104589    104588    104590    104589    104590
    104591    104592    104591    104593    104592    104593    104594    104595
    104594    104596    104595    104596    104597    104598    104597    104599
    104598    104599    104600    104601    104600    104602    104601    104602
    104603    104604    104603    104605    104604    104605    104606    104607
    104606    104608    104607    104608    104609    104610    104609    104611
    104610    104611    104612    104613    104612    104614    104613    104614
    104615    104616    104615    104617    104616    104617    104618    104619
    104618    104620    104619    104620    104621    104622    104621    104623
    104622    104623    104624    104625    104624    104626    104625    104626
    104627    104628    104627    104629    104628    104629    104630    104631
    104630    104632    104631    104632    104633    104634    104633    104635
    104634    104635    104636    104637    104636    104638    104637    104638
    104639    104640    104639    104641    104640    104641    104642    104643
    104642    104644    104643    104644    104645    104646    104645    104647
    104646    104647    104648    104649    104648    104650    104649    104650
    104651    104652    104651    104653    104652    104653    104654    104655
    104654    104656    104655    104656    104657    104658    104657    104659
    104658    104659    104660    104661    104660    104662    104661    104662
    104663    104664    104663    104665    104664    104665    104666    104667
    104666    104668    104667    104668    104669    104670    104669    104671
    104670    104671    104672    104673    104672    104674    104673    104674
    104675    104676    104675    104677    104676    104677    104678    104679
    104678    104680    104679    104680    104681    104682    104681    104683
    104682    104683    104684    104685    104684    104686    104685    104686
    104687    104688    104687    104689    104688    104689    104690    104691
    104690    104692    104691    104692    104693    104694    104693    104695
    104694    104695    104696    104697    104696    104698    104697    104698
    104699    104700    104699    104701    104700    104701    104702    104703
    104702    104704    104703    104704    104705    104706    104705    104707
    104706    104707    104708    104709    104708    104710    104709    104710
    104711    104712    104711    104713    104712    104713    104714    104715
    104714    104716    104715    104716    104717    104718    104717    104719
    104718    104719    104720    104721    104720    104722    104721    104722
    104723    104724    104723    104725    104724    104725    104726    104727
    104726    104728    104727    104728    104729    104730    104729    104731
    104730    104731    104732    104733    104732    104734    104733    104734
    104735    104736    104735    104737    104736    104737    104738    104739
    104738    104740    104739    104740    104741    104742    104741    104743
    104742    104743    104744    104745    104744    104746    104745    104746
    104747    104748    104747    104749    104748    104749    104750    104751
    104750    104752    104751    104752    104753    104754    104753    104755
    104754    104755    104756    104757    104756    104758    104757    104758
    104759    104760    104759    104761    104760    104761    104762    104763
    104762    104764    104763    104764    104765    104766    104765    104767
    104766    104767    104768    104769    104768    104770    104769    104770
    104771    104772    104771    104773    104772    104773    104774    104775
    104774    104776    104775    104776    104777    104778    104777    104779
    104778    104779    104780    104781    104780    104782    104781    104782
    104783    104784    104783    104785    104784    104785    104786    104787
    104786    104788    104787    104788    104789    104790    104789    104791
    104790    104791    104792    104793    104792    104794    104793    104794
    104795    104796    104795    104797    104796    104797    104798    104799
    104798    104800    104799    104800    104801    104802    104801    104803
    104802    104803    104804    104805    104804    104806    104805    104806
    104807    104808    104807    104809    104808    104809    104810    104811
    104810    104812    104811    104812    104813    104814    104813    104815
    104814    104815    104816    104817    104816    104818    104817    104818
    104819    104820    104819    104821    104820    104821    104822    104823
    104822    104824    104823    104824    104825    104826    104825    104827
    104826    104827    104828    104829    104828    104830    104829    104830
    104831    104832    104831    104833    104832    104833    104834    104835
    104834    104836    104835    104836    104837    104838    104837    104839
    104838    104839    104840    104841    104840    104842    104841    104842
    104843    104844    104843    104845    104844    104845    104846    104847
    104846    104848    104847    104848    104849    104850    104849    104851
    104850    104851    104852    104853    104852    104854    104853    104854
    104855    104856    104855    104857    104856    104857    104858    104859
    104858    104860    104859    104860    104861    104862    104861    104863
    104862    104863    104864    104865    104864    104866    104865    104866
    104867    104868    104867    104869    104868    104869    104870    104871
    104870    104872    104871    104872    104873    104874    104873    104875
    104874    104875    104876    104877    104876    104878    104877    104878
    104879    104880    104879    104881    104880    104881    104882    104883
    104882    104884    104883    104884    104885    104886    104885    104887
    104886    104887    104888    104889    104888    104890    104889    104890
    104891    104892    104891    104893    104892    104893    104894    104895
    104894    104896    104895    104896    104897    104898    104897    104899
    104898    104899    104900    104901    104900    104902    104901    104902
    104903    104904    104903    104905    104904    104905    104906    104907
    104906    104908    104907    104908    104909    104910    104909    104911
    104910    104911    104912    104913    104912    104914    104913    104914
    104915    104916    104915    104917    104916    104917    104918    104919
    104918    104920    104919    104920    104921    104922    104921    104923
    104922    104923    104924    104925    104924    104926    104925    104926
    104927    104928    104927    104929    104928    104929    104930    104931
    104930    104932    104931    104932    104933    104934    104933    104935
    104934    104935    104936    104937    104936    104938    104937    104938
    104939    104940    104939    104941    104940    104941    104942    104943
    104942    104944    104943    104944    104945    104946    104945    104947
    104946    104947    104948    104949    104948    104950    104949    104950
    104951    104952    104951    104953    104952    104953    104954    104955
    104954    104956    104955    104956    104957    104958    104957    104959
    104958    104959    104960    104961    104960    104962    104961    104962
    104963    104964    104963    104965    104964    104965    104966    104967
    104966    104968    104967    104968    104969    104970    104969    104971
    104970    104971    104972    104973    104972    104974    104973    104974
    104975    104976    104975    104977    104976    104977    104978    104979
    104978    104980    104979    104980    104981    104982    104981    104983
    104982    104983    104984    104985    104984    104986    104985    104986
    104987    104988    104987    104989    104988    104989    104990    104991
    104990    104992    104991    104992    104993    104994    104993    104995
    104994    104995    104996    104997    104996    104998    104997    104998
    104999    105000    104999    105001    105000    105001    105002    105003
    105002    105004    105003    105004    105005    105006    105005    105007
    105006    105007    105008    105009    105008    105010    105009    105010
    105011    105012    105011    105013    105012    105013    105014    105015
    105014    105016    105015    105016    105017    105018    105017    105019
    105018    105019    105020    105021    105020    105022    105021    105022
    105023    105024    105023    105025    105024    105025    105026    105027
    105026    105028    105027    105028    105029    105030    105029    105031
    105030    105031    105032    105033    105032    105034    105033    105034
    105035    105036    105035    105037    105036    105037    105038    105039
    105038    105040    105039    105040    105041    105042    105041    105043
    105042    105043    105044    105045    105044    105046    105045    105046
    105047    105048    105047    105049    105048    105049    105050    105051
    105050    105052    105051    105052    105053    105054    105053    105055
    105054    105055    105056    105057    105056    105058    105057    105058
    105059    105060    105059    105061    105060    105061    105062    105063
    105062    105064    105063    105064    105065    105066    105065    105067
    105066    105067    105068    105069    105068    105070    105069    105070
    105071    105072    105071    105073    105072    105073    105074    105075
    105074    105076    105075    105076    105077    105078    105077    105079
    105078    105079    105080    105081    105080    105082    105081    105082
    105083    105084    105083    105085    105084    105085    105086    105087
    105086    105088    105087    105088    105089    105090    105089    105091
    105090    105091    105092    105093    105092    105094    105093    105094
    105095    105096    105095    105097    105096    105097    105098    105099
    105098    105100    105099    105100    105101    105102    105101    105103
    105102    105103    105104    105105    105104    105106    105105    105106
    105107    105108    105107    105109    105108    105109    105110    105111
    105110    105112    105111    105112    105113    105114    105113    105115
    105114    105115    105116    105117    105116    105118    105117    105118
    105119    105120    105119    105121    105120    105121    105122    105123
    105122    105124    105123    105124    105125    105126    105125    105127
    105126    105127    105128    105129    105128    105130    105129    105130
    105131    105132    105131    105133    105132    105133    105134    105135
    105134    105136    105135    105136    105137    105138    105137    105139
    105138    105139    105140    105141    105140    105142    105141    105142
    105143    105144    105143    105145    105144    105145    105146    105147
    105146    105148    105147    105148    105149    105150    105149    105151
    105150    105151    105152    105153    105152    105154    105153    105154
    105155    105156    105155    105157    105156    105157    105158    105159
    105158    105160    105159    105160    105161    105162    105161    105163
    105162    105163    105164    105165    105164    105166    105165    105166
    105167    105168    105167    105169    105168    105169    105170    105171
    105170    105172    105171    105172    105173    105174    105173    105175
    105174    105175    105176    105177    105176    105178    105177    105178
    105179    105180    105179    105181    105180    105181    105182    105183
    105182    105184    105183    105184    105185    105186    105185    105187
    105186    105187    105188    105189    105188    105190    105189    105190
    105191    105192    105191    105193    105192    105193    105194    105195
    105194    105196    105195    105196    105197    105198    105197    105199
    105198    105199    105200    105201    105200    105202    105201    105202
    105203    105204    105203    105205    105204    105205    105206    105207
    105206    105208    105207    105208    105209    105210    105209    105211
    105210    105211    105212    105213    105212    105214    105213    105214
    105215    105216    105215    105217    105216    105217    105218    105219
    105218    105220    105219    105220    105221    105222    105221    105223
    105222    105223    105224    105225    105224    105226    105225    105226
    105227    105228    105227    105229    105228    105229    105230    105231
    105230    105232    105231    105232    105233    105234    105233    105235
    105234    105235    105236    105237    105236    105238    105237    105238
    105239    105240    105239    105241    105240    105241    105242    105243
    105242    105244    105243    105244    105245    105246    105245    105247
    105246    105247    105248    105249    105248    105250    105249    105250
    105251    105252    105251    105253    105252    105253    105254    105255
    105254    105256    105255    105256    105257    105258    105257    105259
    105258    105259    105260    105261    105260    105262    105261    105262
    105263    105264    105263    105265    105264    105265    105266    105267
    105266    105268    105267    105268    105269    105270    105269    105271
    105270    105271    105272    105273    105272    105274    105273    105274
    105275    105276    105275    105277    105276    105277    105278    105279
    105278    105280    105279    105280    105281    105282    105281    105283
    105282    105283    105284    105285    105284    105286    105285    105286
    105287    105288    105287    105289    105288    105289    105290    105291
    105290    105292    105291    105292    105293    105294    105293    105295
    105294    105295    105296    105297    105296    105298    105297    105298
    105299    105300    105299    105301    105300    105301    105302    105303
    105302    105304    105303    105304    105305    105306    105305    105307
    105306    105307    105308    105309    105308    105310    105309    105310
    105311    105312    105311    105313    105312    105313    105314    105315
    105314    105316    105315    105316    105317    105318    105317    105319
    105318    105319    105320    105321    105320    105322    105321    105322
    105323    105324    105323    105325    105324    105325    105326    105327
    105326    105328    105327    105328    105329    105330    105329    105331
    105330    105331    105332    105333    105332    105334    105333    105334
    105335    105336    105335    105337    105336    105337    105338    105339
    105338    105340    105339    105340    105341    105342    105341    105343
    105342    105343    105344    105345    105344    105346    105345    105346
    105347    105348    105347    105349    105348    105349    105350    105351
    105350    105352    105351    105352    105353    105354    105353    105355
    105354    105355    105356    105357    105356    105358    105357    105358
    105359    105360    105359    105361    105360    105361    105362    105363
    105362    105364    105363    105364    105365    105366    105365    105367
    105366    105367    105368    105369    105368    105370    105369    105370
    105371    105372    105371    105373    105372    105373    105374    105375
    105374    105376    105375    105376    105377    105378    105377    105379
    105378    105379    105380    105381    105380    105382    105381    105382
    105383    105384    105383    105385    105384    105385    105386    105387
    105386    105388    105387    105388    105389    105390    105389    105391
    105390    105391    105392    105393    105392    105394    105393    105394
    105395    105396    105395    105397    105396    105397    105398    105399
    105398    105400    105399    105400    105401    105402    105401    105403
    105402    105403    105404    105405    105404    105406    105405    105406
    105407    105408    105407    105409    105408    105409    105410    105411
    105410    105412    105411    105412    105413    105414    105413    105415
    105414    105415    105416    105417    105416    105418    105417    105418
    105419    105420    105419    105421    105420    105421    105422    105423
    105422    105424    105423    105424    105425    105426    105425    105427
    105426    105427    105428    105429    105428    105430    105429    105430
    105431    105432    105431    105433    105432    105433    105434    105435
    105434    105436    105435    105436    105437    105438    105437    105439
    105438    105439    105440    105441    105440    105442    105441    105442
    105443    105444    105443    105445    105444    105445    105446    105447
    105446    105448    105447    105448    105449    105450    105449    105451
    105450    105451    105452    105453    105452    105454    105453    105454
    105455    105456    105455    105457    105456    105457    105458    105459
    105458    105460    105459    105460    105461    105462    105461    105463
    105462    105463    105464    105465    105464    105466    105465    105466
    105467    105468    105467    105469    105468    105469    105470    105471
    105470    105472    105471    105472    105473    105474    105473    105475
    105474    105475    105476    105477    105476    105478    105477    105478
    105479    105480    105479    105481    105480    105481    105482    105483
    105482    105484    105483    105484    105485    105486    105485    105487
    105486    105487    105488    105489    105488    105490    105489    105490
    105491    105492    105491    105493    105492    105493    105494    105495
    105494    105496    105495    105496    105497    105498    105497    105499
    105498    105499    105500    105501    105500    105502    105501    105502
    105503    105504    105503    105505    105504    105505    105506    105507
    105506    105508    105507    105508    105509    105510    105509    105511
    105510    105511    105512    105513    105512    105514    105513    105514
    105515    105516    105515    105517    105516    105517    105518    105519
    105518    105520    105519    105520    105521    105522    105521    105523
    105522    105523    105524    105525    105524    105526    105525    105526
    105527    105528    105527    105529    105528    105529    105530    105531
    105530    105532    105531    105532    105533    105534    105533    105535
    105534    105535    105536    105537    105536    105538    105537    105538
    105539    105540    105539    105541    105540    105541    105542    105543
    105542    105544    105543    105544    105545    105546    105545    105547
    105546    105547    105548    105549    105548    105550    105549    105550
    105551    105552    105551    105553    105552    105553    105554    105555
    105554    105556    105555    105556    105557    105558    105557    105559
    105558    105559    105560    105561    105560    105562    105561    105562
    105563    105564    105563    105565    105564    105565    105566    105567
    105566    105568    105567    105568    105569    105570    105569    105571
    105570    105571    105572    105573    105572    105574    105573    105574
    105575    105576    105575    105577    105576    105577    105578    105579
    105578    105580    105579    105580    105581    105582    105581    105583
    105582    105583    105584    105585    105584    105586    105585    105586
    105587    105588    105587    105589    105588    105589    105590    105591
    105590    105592    105591    105592    105593    105594    105593    105595
    105594    105595    105596    105597    105596    105598    105597    105598
    105599    105600    105599    105601    105600    105601    105602    105603
    105602    105604    105603    105604    105605    105606    105605    105607
    105606    105607    105608    105609    105608    105610    105609    105610
    105611    105612    105611    105613    105612    105613    105614    105615
    105614    105616    105615    105616    105617    105618    105617    105619
    105618    105619    105620    105621    105620    105622    105621    105622
    105623    105624    105623    105625    105624    105625    105626    105627
    105626    105628    105627    105628    105629    105630    105629    105631
    105630    105631    105632    105633    105632    105634    105633    105634
    105635    105636    105635    105637    105636    105637    105638    105639
    105638    105640    105639    105640    105641    105642    105641    105643
    105642    105643    105644    105645    105644    105646    105645    105646
    105647    105648    105647    105649    105648    105649    105650    105651
    105650    105652    105651    105652    105653    105654    105653    105655
    105654    105655    105656    105657    105656    105658    105657    105658
    105659    105660    105659    105661    105660    105661    105662    105663
    105662    105664    105663    105664    105665    105666    105665    105667
    105666    105667    105668    105669    105668    105670    105669    105670
    105671    105672    105671    105673    105672    105673    105674    105675
    105674    105676    105675    105676    105677    105678    105677    105679
    105678    105679    105680    105681    105680    105682    105681    105682
    105683    105684    105683    105685    105684    105685    105686    105687
    105686    105688    105687    105688    105689    105690    105689    105691
    105690    105691    105692    105693    105692    105694    105693    105694
    105695    105696    105695    105697    105696    105697    105698    105699
    105698    105700    105699    105700    105701    105702    105701    105703
    105702    105703    105704    105705    105704    105706    105705    105706
    105707    105708    105707    105709    105708    105709    105710    105711
    105710    105712    105711    105712    105713    105714    105713    105715
    105714    105715    105716    105717    105716    105718    105717    105718
    105719    105720    105719    105721    105720    105721    105722    105723
    105722    105724    105723    105724    105725    105726    105725    105727
    105726    105727    105728    105729    105728    105730    105729    105730
    105731    105732    105731    105733    105732    105733    105734    105735
    105734    105736    105735    105736    105737    105738    105737    105739
    105738    105739    105740    105741    105740    105742    105741    105742
    105743    105744    105743    105745    105744    105745    105746    105747
    105746    105748    105747    105748    105749    105750    105749    105751
    105750    105751    105752    105753    105752    105754    105753    105754
    105755    105756    105755    105757    105756    105757    105758    105759
    105758    105760    105759    105760    105761    105762    105761    105763
    105762    105763    105764    105765    105764    105766    105765    105766
    105767    105768    105767    105769    105768    105769    105770    105771
    105770    105772    105771    105772    105773    105774    105773    105775
    105774    105775    105776    105777    105776    105778    105777    105778
    105779    105780    105779    105781    105780    105781    105782    105783
    105782    105784    105783    105784    105785    105786    105785    105787
    105786    105787    105788    105789    105788    105790    105789    105790
    105791    105792    105791    105793    105792    105793    105794    105795
    105794    105796    105795    105796    105797    105798    105797    105799
    105798    105799    105800    105801    105800    105802    105801    105802
    105803    105804    105803    105805    105804    105805    105806    105807
    105806    105808    105807    105808    105809    105810    105809    105811
    105810    105811    105812    105813    105812    105814    105813    105814
    105815    105816    105815    105817    105816    105817    105818    105819
    105818    105820    105819    105820    105821    105822    105821    105823
    105822    105823    105824    105825    105824    105826    105825    105826
    105827    105828    105827    105829    105828    105829    105830    105831
    105830    105832    105831    105832    105833    105834    105833    105835
    105834    105835    105836    105837    105836    105838    105837    105838
    105839    105840    105839    105841    105840    105841    105842    105843
    105842    105844    105843    105844    105845    105846    105845    105847
    105846    105847    105848    105849    105848    105850    105849    105850
    105851    105852    105851    105853    105852    105853    105854    105855
    105854    105856    105855    105856    105857    105858    105857    105859
    105858    105859    105860    105861    105860    105862    105861    105862
    105863    105864    105863    105865    105864    105865    105866    105867
    105866    105868    105867    105868    105869    105870    105869    105871
    105870    105871    105872    105873    105872    105874    105873    105874
    105875    105876    105875    105877    105876    105877    105878    105879
    105878    105880    105879    105880    105881    105882    105881    105883
    105882    105883    105884    105885    105884    105886    105885    105886
    105887    105888    105887    105889    105888    105889    105890    105891
    105890    105892    105891    105892    105893    105894    105893    105895
    105894    105895    105896    105897    105896    105898    105897    105898
    105899    105900    105899    105901    105900    105901    105902    105903
    105902    105904    105903    105904    105905    105906    105905    105907
    105906    105907    105908    105909    105908    105910    105909    105910
    105911    105912    105911    105913    105912    105913    105914    105915
    105914    105916    105915    105916    105917    105918    105917    105919
    105918    105919    105920    105921    105920    105922    105921    105922
    105923    105924    105923    105925    105924    105925    105926    105927
    105926    105928    105927    105928    105929    105930    105929    105931
    105930    105931    105932    105933    105932    105934    105933    105934
    105935    105936    105935    105937    105936    105937    105938    105939
    105938    105940    105939    105940    105941    105942    105941    105943
    105942    105943    105944    105945    105944    105946    105945    105946
    105947    105948    105947    105949    105948    105949    105950    105951
    105950    105952    105951    105952    105953    105954    105953    105955
    105954    105955    105956    105957    105956    105958    105957    105958
    105959    105960    105959    105961    105960    105961    105962    105963
    105962    105964    105963    105964    105965    105966    105965    105967
    105966    105967    105968    105969    105968    105970    105969    105970
    105971    105972    105971    105973    105972    105973    105974    105975
    105974    105976    105975    105976    105977    105978    105977    105979
    105978    105979    105980    105981    105980    105982    105981    105982
    105983    105984    105983    105985    105984    105985    105986    105987
    105986    105988    105987    105988    105989    105990    105989    105991
    105990    105991    105992    105993    105992    105994    105993    105994

     50970 !NTHETA: angles
         2         1         5         2         1         9         2         1        13
         5         1         9         5         1        13         9         1        13
         1         2         3         1         2         4         1         2        17
         3         2         4         3         2        17         4         2        17
         1         5         6         1         5         7         1         5         8
         6         5         7         6         5         8         7         5         8
         1         9        10         1         9        11         1         9        12
        10         9        11        10         9        12        11         9        12
         1        13        14         1        13        15         1        13        16
        14        13        15        14        13        16        15        13        16
         2        17        18         2        17        19         2        17        23
        18        17        19        18        17        23        19        17        23
        21        20        22        21        20        23        21        20        24
        22        20        23        22        20        24        23        20        24
        17        23        20        20        24        25        24        25        26
        24        25        27        24        25        28        26        25        27
        26        25        28        27        25        28        25        28        29
        25        28        30        25        28        36        29        28        30
        29        28        36        30        28        36        28        30        31
        30        31        32        30        31        33        32        31        33
        31        33        34        31        33        35        31        33        45
        34        33        35        34        33        45        35        33        45
        28        36        37        28        36        38        28        36        39
        37        36        38        37        36        39        38        36        39
        36        39        40        39        40        41        39        40        42
        41        40        42        40        42        43        40        42        44
        40        42        92        43        42        44        43        42        92
        44        42        92        33        45        46        33        45        47
        33        45        48        46        45        47        46        45        48
        47        45        48        45        48        49        45        48        50
        45        48        51        49        48        50        49        48        51
        50        48        51        48        51        52        48        51        53
        48        51        54        52        51        53        52        51        54
        53        51        54        51        54        55        51        54        56
        51        54        57        55        54        56        55        54        57
        56        54        57        54        57        58        54        57        59
        54        57        60        58        57        59        58        57        60
        59        57        60        57        60        61        57        60        62
        57        60        63        61        60        62        61        60        63
        62        60        63        60        63        64        60        63        65
        64        63        65        63        65        66        63        65        67
        66        65        67        65        67        68        65        67        69
        65        67        70        68        67        69        68        67        70
        69        67        70        67        70        71        67        70        72
        67        70        73        71        70        72        71        70        73
        72        70        73        70        73        74        70        73        75
        70        73        76        74        73        75        74        73        76
        75        73        76        73        76        77        73        76        78
        73        76        79        77        76        78        77        76        79
        78        76        79        76        79        80        76        79        81
        76        79        82        80        79        81        80        79        82
        81        79        82        79        82        83        79        82        84
        79        82        85        83        82        84        83        82        85
        84        82        85        82        85        86        82        85        87
        82        85        88        86        85        87        86        85        88
        87        85        88        85        88        89        85        88        90
        85        88        91        89        88        90        89        88        91
        90        88        91        42        92        93        42        92        94
        42        92        95        93        92        94        93        92        95
        94        92        95        92        95        96        92        95        97
        92        95        98        96        95        97        96        95        98
        97        95        98        95        98        99        95        98       100
        95        98       101        99        98       100        99        98       101
       100        98       101        98       101       102        98       101       103
        98       101       104       102       101       103       102       101       104
       103       101       104       101       104       105       101       104       106
       101       104       107       105       104       106       105       104       107
       106       104       107       104       107       108       104       107       109
       104       107       110       108       107       109       108       107       110
       109       107       110       107       110       111       107       110       112
       107       110       113       111       110       112       111       110       113
       112       110       113       110       113       114       110       113       115
       110       113       116       114       113       115       114       113       116
       115       113       116       113       116       117       113       116       118
       113       116       119       117       116       118       117       116       119
       118       116       119       116       119       120       116       119       121
       116       119       122       120       119       121       120       119       122
       121       119       122       119       122       123       119       122       124
       119       122       125       123       122       124       123       122       125
       124       122       125       122       125       126       122       125       127
       122       125       128       126       125       127       126       125       128
       127       125       128       125       128       129       125       128       130
       125       128       131       129       128       130       129       128       131
       130       128       131       128       131       132       128       131       133
       128       131       134       132       131       133       132       131       134
       133       131       134       136       135       139       136       135       143
       136       135       147       139       135       143       139       135       147
       143       135       147       135       136       137       135       136       138
       135       136       151       137       136       138       137       136       151
       138       136       151       135       139       140       135       139       141
       135       139       142       140       139       141       140       139       142
       141       139       142       135       143       144       135       143       145
       135       143       146       144       143       145       144       143       146
       145       143       146       135       147       148       135       147       149
       135       147       150       148       147       149       148       147       150
       149       147       150       136       151       152       136       151       153
       136       151       157       152       151       153       152       151       157
       153       151       157       155       154       156       155       154       157
       155       154       158       156       154       157       156       154       158
       157       154       158       151       157       154       154       158       159
       158       159       160       158       159       161       158       159       162
       160       159       161       160       159       162       161       159       162
       159       162       163       159       162       164       159       162       170
       163       162       164       163       162       170       164       162       170
       162       164       165       164       165       166       164       165       167
       166       165       167       165       167       168       165       167       169
       165       167       179       168       167       169       168       167       179
       169       167       179       162       170       171       162       170       172
       162       170       173       171       170       172       171       170       173
       172       170       173       170       173       174       173       174       175
       173       174       176       175       174       176       174       176       177
       174       176       178       174       176       226       177       176       178
       177       176       226       178       176       226       167       179       180
       167       179       181       167       179       182       180       179       181
       180       179       182       181       179       182       179       182       183
       179       182       184       179       182       185       183       182       184
       183       182       185       184       182       185       182       185       186
       182       185       187       182       185       188       186       185       187
       186       185       188       187       185       188       185       188       189
       185       188       190       185       188       191       189       188       190
       189       188       191       190       188       191       188       191       192
       188       191       193       188       191       194       192       191       193
       192       191       194       193       191       194       191       194       195
       191       194       196       191       194       197       195       194       196
       195       194       197       196       194       197       194       197       198
       194       197       199       198       197       199       197       199       200
       197       199       201       200       199       201       199       201       202
       199       201       203       199       201       204       202       201       203
       202       201       204       203       201       204       201       204       205
       201       204       206       201       204       207       205       204       206
       205       204       207       206       204       207       204       207       208
       204       207       209       204       207       210       208       207       209
       208       207       210       209       207       210       207       210       211
       207       210       212       207       210       213       211       210       212
       211       210       213       212       210       213       210       213       214
       210       213       215       210       213       216       214       213       215
       214       213       216       215       213       216       213       216       217
       213       216       218       213       216       219       217       216       218
       217       216       219       218       216       219       216       219       220
       216       219       221       216       219       222       220       219       221
       220       219       222       221       219       222       219       222       223
       219       222       224       219       222       225       223       222       224
       223       222       225       224       222       225       176       226       227
       176       226       228       176       226       229       227       226       228
       227       226       229       228       226       229       226       229       230
       226       229       231       226       229       232       230       229       231
       230       229       232       231       229       232       229       232       233
       229       232       234       229       232       235       233       232       234
       233       232       235       234       232       235       232       235       236
       232       235       237       232       235       238       236       235       237
       236       235       238       237       235       238       235       238       239
       235       238       240       235       238       241       239       238       240
       239       238       241       240       238       241       238       241       242
       238       241       243       238       241       244       242       241       243
       242       241       244       243       241       244       241       244       245
       241       244       246       241       244       247       245       244       246
       245       244       247       246       244       247       244       247       248
       244       247       249       244       247       250       248       247       249
       248       247       250       249       247       250       247       250       251
       247       250       252       247       250       253       251       250       252
       251       250       253       252       250       253       250       253       254
       250       253       255       250       253       256       254       253       255
       254       253       256       255       253       256       253       256       257
       253       256       258       253       256       259       257       256       258
       257       256       259       258       256       259       256       259       260
       256       259       261       256       259       262       260       259       261
       260       259       262       261       259       262       259       262       263
       259       262       264       259       262       265       263       262       264
       263       262       265       264       262       265       262       265       266
       262       265       267       262       265       268       266       265       267
       266       265       268       267       265       268       270       269       273
       270       269       277       270       269       281       273       269       277
       273       269       281       277       269       281       269       270       271
       269       270       272       269       270       285       271       270       272
       271       270       285       272       270       285       269       273       274
       269       273       275       269       273       276       274       273       275
       274       273       276       275       273       276       269       277       278
       269       277       279       269       277       280       278       277       279
       278       277       280       279       277       280       269       281       282
       269       281       283       269       281       284       282       281       283
       282       281       284       283       281       284       270       285       286
       270       285       287       270       285       291       286       285       287
       286       285       291       287       285       291       289       288       290
       289       288       291       289       288       292       290       288       291
       290       288       292       291       288       292       285       291       288
       288       292       293       292       293       294       292       293       295
       292       293       296       294       293       295       294       293       296
       295       293       296       293       296       297       293       296       298
       293       296       304       297       296       298       297       296       304
       298       296       304       296       298       299       298       299       300
       298       299       301       300       299       301       299       301       302
       299       301       303       299       301       313       302       301       303
       302       301       313       303       301       313       296       304       305
       296       304       306       296       304       307       305       304       306
       305       304       307       306       304       307       304       307       308
       307       308       309       307       308       310       309       308       310
       308       310       311       308       310       312       308       310       360
       311       310       312       311       310       360       312       310       360
       301       313       314       301       313       315       301       313       316
       314       313       315       314       313       316       315       313       316
       313       316       317       313       316       318       313       316       319
       317       316       318       317       316       319       318       316       319
       316       319       320       316       319       321       316       319       322
       320       319       321       320       319       322       321       319       322
       319       322       323       319       322       324       319       322       325
       323       322       324       323       322       325       324       322       325
       322       325       326       322       325       327       322       325       328
       326       325       327       326       325       328       327       325       328
       325       328       329       325       328       330       325       328       331
       329       328       330       329       328       331       330       328       331
       328       331       332       328       331       333       332       331       333
       331       333       334       331       333       335       334       333       335
       333       335       336       333       335       337       333       335       338
       336       335       337       336       335       338       337       335       338
       335       338       339       335       338       340       335       338       341
       339       338       340       339       338       341       340       338       341
       338       341       342       338       341       343       338       341       344
       342       341       343       342       341       344       343       341       344
       341       344       345       341       344       346       341       344       347
       345       344       346       345       344       347       346       344       347
       344       347       348       344       347       349       344       347       350
       348       347       349       348       347       350       349       347       350
       347       350       351       347       350       352       347       350       353
       351       350       352       351       350       353       352       350       353
       350       353       354       350       353       355       350       353       356
       354       353       355       354       353       356       355       353       356
       353       356       357       353       356       358       353       356       359
       357       356       358       357       356       359       358       356       359
       310       360       361       310       360       362       310       360       363
       361       360       362       361       360       363       362       360       363
       360       363       364       360       363       365       360       363       366
       364       363       365       364       363       366       365       363       366
       363       366       367       363       366       368       363       366       369
       367       366       368       367       366       369       368       366       369
       366       369       370       366       369       371       366       369       372
       370       369       371       370       369       372       371       369       372
       369       372       373       369       372       374       369       372       375
       373       372       374       373       372       375       374       372       375
       372       375       376       372       375       377       372       375       378
       376       375       377       376       375       378       377       375       378
       375       378       379       375       378       380       375       378       381
       379       378       380       379       378       381       380       378       381
       378       381       382       378       381       383       378       381       384
       382       381       383       382       381       384       383       381       384
       381       384       385       381       384       386       381       384       387
       385       384       386       385       384       387       386       384       387
       384       387       388       384       387       389       384       387       390
       388       387       389       388       387       390       389       387       390
       387       390       391       387       390       392       387       390       393
       391       390       392       391       390       393       392       390       393
       390       393       394       390       393       395       390       393       396
       394       393       395       394       393       396       395       393       396
       393       396       397       393       396       398       393       396       399
       397       396       398       397       396       399       398       396       399
       396       399       400       396       399       401       396       399       402
       400       399       401       400       399       402       401       399       402
       404       403       407       404       403       411       404       403       415
       407       403       411       407       403       415       411       403       415
       403       404       405       403       404       406       403       404       419
       405       404       406       405       404       419       406       404       419
       403       407       408       403       407       409       403       407       410
       408       407       409       408       407       410       409       407       410
       403       411       412       403       411       413       403       411       414
       412       411       413       412       411       414       413       411       414
       403       415       416       403       415       417       403       415       418
       416       415       417       416       415       418       417       415       418
       404       419       420       404       419       421       404       419       425
       420       419       421       420       419       425       421       419       425
       423       422       424       423       422       425       423       422       426
       424       422       425       424       422       426       425       422       426
       419       425       422       422       426       427       426       427       428
       426       427       429       426       427       430       428       427       429
       428       427       430       429       427       430       427       430       431
       427       430       432       427       430       438       431       430       432
       431       430       438       432       430       438       430       432       433
       432       433       434       432       433       435       434       433       435
       433       435       436       433       435       437       433       435       447
       436       435       437       436       435       447       437       435       447
       430       438       439       430       438       440       430       438       441
       439       438       440       439       438       441       440       438       441
       438       441       442       441       442       443       441       442       444
       443       442       444       442       444       445       442       444       446
       442       444       494       445       444       446       445       444       494
       446       444       494       435       447       448       435       447       449
       435       447       450       448       447       449       448       447       450
       449       447       450       447       450       451       447       450       452
       447       450       453       451       450       452       451       450       453
       452       450       453       450       453       454       450       453       455
       450       453       456       454       453       455       454       453       456
       455       453       456       453       456       457       453       456       458
       453       456       459       457       456       458       457       456       459
       458       456       459       456       459       460       456       459       461
       456       459       462       460       459       461       460       459       462
       461       459       462       459       462       463       459       462       464
       459       462       465       463       462       464       463       462       465
       464       462       465       462       465       466       462       465       467
       466       465       467       465       467       468       465       467       469
       468       467       469       467       469       470       467       469       471
       467       469       472       470       469       471       470       469       472
       471       469       472       469       472       473       469       472       474
       469       472       475       473       472       474       473       472       475
       474       472       475       472       475       476       472       475       477
       472       475       478       476       475       477       476       475       478
       477       475       478       475       478       479       475       478       480
       475       478       481       479       478       480       479       478       481
       480       478       481       478       481       482       478       481       483
       478       481       484       482       481       483       482       481       484
       483       481       484       481       484       485       481       484       486
       481       484       487       485       484       486       485       484       487
       486       484       487       484       487       488       484       487       489
       484       487       490       488       487       489       488       487       490
       489       487       490       487       490       491       487       490       492
       487       490       493       491       490       492       491       490       493
       492       490       493       444       494       495       444       494       496
       444       494       497       495       494       496       495       494       497
       496       494       497       494       497       498       494       497       499
       494       497       500       498       497       499       498       497       500
       499       497       500       497       500       501       497       500       502
       497       500       503       501       500       502       501       500       503
       502       500       503       500       503       504       500       503       505
       500       503       506       504       503       505       504       503       506
       505       503       506       503       506       507       503       506       508
       503       506       509       507       506       508       507       506       509
       508       506       509       506       509       510       506       509       511
       506       509       512       510       509       511       510       509       512
       511       509       512       509       512       513       509       512       514
       509       512       515       513       512       514       513       512       515
       514       512       515       512       515       516       512       515       517
       512       515       518       516       515       517       516       515       518
       517       515       518       515       518       519       515       518       520
       515       518       521       519       518       520       519       518       521
       520       518       521       518       521       522       518       521       523
       518       521       524       522       521       523       522       521       524
       523       521       524       521       524       525       521       524       526
       521       524       527       525       524       526       525       524       527
       526       524       527       524       527       528       524       527       529
       524       527       530       528       527       529       528       527       530
       529       527       530       527       530       531       527       530       532
       527       530       533       531       530       532       531       530       533
       532       530       533       530       533       534       530       533       535
       530       533       536       534       533       535       534       533       536
       535       533       536       538       537       541       538       537       545
       538       537       549       541       537       545       541       537       549
       545       537       549       537       538       539       537       538       540
       537       538       553       539       538       540       539       538       553
       540       538       553       537       541       542       537       541       543
       537       541       544       542       541       543       542       541       544
       543       541       544       537       545       546       537       545       547
       537       545       548       546       545       547       546       545       548
       547       545       548       537       549       550       537       549       551
       537       549       552       550       549       551       550       549       552
       551       549       552       538       553       554       538       553       555
       538       553       559       554       553       555       554       553       559
       555       553       559       557       556       558       557       556       559
       557       556       560       558       556       559       558       556       560
       559       556       560       553       559       556       556       560       561
       560       561       562       560       561       563       560       561       564
       562       561       563       562       561       564       563       561       564
       561       564       565       561       564       566       561       564       572
       565       564       566       565       564       572       566       564       572
       564       566       567       566       567       568       566       567       569
       568       567       569       567       569       570       567       569       571
       567       569       581       570       569       571       570       569       581
       571       569       581       564       572       573       564       572       574
       564       572       575       573       572       574       573       572       575
       574       572       575       572       575       576       575       576       577
       575       576       578       577       576       578       576       578       579
       576       578       580       576       578       628       579       578       580
       579       578       628       580       578       628       569       581       582
       569       581       583       569       581       584       582       581       583
       582       581       584       583       581       584       581       584       585
       581       584       586       581       584       587       585       584       586
       585       584       587       586       584       587       584       587       588
       584       587       589       584       587       590       588       587       589
       588       587       590       589       587       590       587       590       591
       587       590       592       587       590       593       591       590       592
       591       590       593       592       590       593       590       593       594
       590       593       595       590       593       596       594       593       595
       594       593       596       595       593       596       593       596       597
       593       596       598       593       596       599       597       596       598
       597       596       599       598       596       599       596       599       600
       596       599       601       600       599       601       599       601       602
       599       601       603       602       601       603       601       603       604
       601       603       605       601       603       606       604       603       605
       604       603       606       605       603       606       603       606       607
       603       606       608       603       606       609       607       606       608
       607       606       609       608       606       609       606       609       610
       606       609       611       606       609       612       610       609       611
       610       609       612       611       609       612       609       612       613
       609       612       614       609       612       615       613       612       614
       613       612       615       614       612       615       612       615       616
       612       615       617       612       615       618       616       615       617
       616       615       618       617       615       618       615       618       619
       615       618       620       615       618       621       619       618       620
       619       618       621       620       618       621       618       621       622
       618       621       623       618       621       624       622       621       623
       622       621       624       623       621       624       621       624       625
       621       624       626       621       624       627       625       624       626
       625       624       627       626       624       627       578       628       629
       578       628       630       578       628       631       629       628       630
       629       628       631       630       628       631       628       631       632
       628       631       633       628       631       634       632       631       633
       632       631       634       633       631       634       631       634       635
       631       634       636       631       634       637       635       634       636
       635       634       637       636       634       637       634       637       638
       634       637       639       634       637       640       638       637       639
       638       637       640       639       637       640       637       640       641
       637       640       642       637       640       643       641       640       642
       641       640       643       642       640       643       640       643       644
       640       643       645       640       643       646       644       643       645
       644       643       646       645       643       646       643       646       647
       643       646       648       643       646       649       647       646       648
       647       646       649       648       646       649       646       649       650
       646       649       651       646       649       652       650       649       651
       650       649       652       651       649       652       649       652       653
       649       652       654       649       652       655       653       652       654
       653       652       655       654       652       655       652       655       656
       652       655       657       652       655       658       656       655       657
       656       655       658       657       655       658       655       658       659
       655       658       660       655       658       661       659       658       660
       659       658       661       660       658       661       658       661       662
       658       661       663       658       661       664       662       661       663
       662       661       664       663       661       664       661       664       665
       661       664       666       661       664       667       665       664       666
       665       664       667       666       664       667       664       667       668
       664       667       669       664       667       670       668       667       669
       668       667       670       669       667       670       672       671       675
       672       671       679       672       671       683       675       671       679
       675       671       683       679       671       683       671       672       673
       671       672       674       671       672       687       673       672       674
       673       672       687       674       672       687       671       675       676
       671       675       677       671       675       678       676       675       677
       676       675       678       677       675       678       671       679       680
       671       679       681       671       679       682       680       679       681
       680       679       682       681       679       682       671       683       684
       671       683       685       671       683       686       684       683       685
       684       683       686       685       683       686       672       687       688
       672       687       689       672       687       693       688       687       689
       688       687       693       689       687       693       691       690       692
       691       690       693       691       690       694       692       690       693
       692       690       694       693       690       694       687       693       690
       690       694       695       694       695       696       694       695       697
       694       695       698       696       695       697       696       695       698
       697       695       698       695       698       699       695       698       700
       695       698       706       699       698       700       699       698       706
       700       698       706       698       700       701       700       701       702
       700       701       703       702       701       703       701       703       704
       701       703       705       701       703       715       704       703       705
       704       703       715       705       703       715       698       706       707
       698       706       708       698       706       709       707       706       708
       707       706       709       708       706       709       706       709       710
       709       710       711       709       710       712       711       710       712
       710       712       713       710       712       714       710       712       762
       713       712       714       713       712       762       714       712       762
       703       715       716       703       715       717       703       715       718
       716       715       717       716       715       718       717       715       718
       715       718       719       715       718       720       715       718       721
       719       718       720       719       718       721       720       718       721
       718       721       722       718       721       723       718       721       724
       722       721       723       722       721       724       723       721       724
       721       724       725       721       724       726       721       724       727
       725       724       726       725       724       727       726       724       727
       724       727       728       724       727       729       724       727       730
       728       727       729       728       727       730       729       727       730
       727       730       731       727       730       732       727       730       733
       731       730       732       731       730       733       732       730       733
       730       733       734       730       733       735       734       733       735
       733       735       736       733       735       737       736       735       737
       735       737       738       735       737       739       735       737       740
       738       737       739       738       737       740       739       737       740
       737       740       741       737       740       742       737       740       743
       741       740       742       741       740       743       742       740       743
       740       743       744       740       743       745       740       743       746
       744       743       745       744       743       746       745       743       746
       743       746       747       743       746       748       743       746       749
       747       746       748       747       746       749       748       746       749
       746       749       750       746       749       751       746       749       752
       750       749       751       750       749       752       751       749       752
       749       752       753       749       752       754       749       752       755
       753       752       754       753       752       755       754       752       755
       752       755       756       752       755       757       752       755       758
       756       755       757       756       755       758       757       755       758
       755       758       759       755       758       760       755       758       761
       759       758       760       759       758       761       760       758       761
       712       762       763       712       762       764       712       762       765
       763       762       764       763       762       765       764       762       765
       762       765       766       762       765       767       762       765       768
       766       765       767       766       765       768       767       765       768
       765       768       769       765       768       770       765       768       771
       769       768       770       769       768       771       770       768       771
       768       771       772       768       771       773       768       771       774
       772       771       773       772       771       774       773       771       774
       771       774       775       771       774       776       771       774       777
       775       774       776       775       774       777       776       774       777
       774       777       778       774       777       779       774       777       780
       778       777       779       778       777       780       779       777       780
       777       780       781       777       780       782       777       780       783
       781       780       782       781       780       783       782       780       783
       780       783       784       780       783       785       780       783       786
       784       783       785       784       783       786       785       783       786
       783       786       787       783       786       788       783       786       789
       787       786       788       787       786       789       788       786       789
       786       789       790       786       789       791       786       789       792
       790       789       791       790       789       792       791       789       792
       789       792       793       789       792       794       789       792       795
       793       792       794       793       792       795       794       792       795
       792       795       796       792       795       797       792       795       798
       796       795       797       796       795       798       797       795       798
       795       798       799       795       798       800       795       798       801
       799       798       800       799       798       801       800       798       801
       798       801       802       798       801       803       798       801       804
       802       801       803       802       801       804       803       801       804
       806       805       809       806       805       813       806       805       817
       809       805       813       809       805       817       813       805       817
       805       806       807       805       806       808       805       806       821
       807       806       808       807       806       821       808       806       821
       805       809       810       805       809       811       805       809       812
       810       809       811       810       809       812       811       809       812
       805       813       814       805       813       815       805       813       816
       814       813       815       814       813       816       815       813       816
       805       817       818       805       817       819       805       817       820
       818       817       819       818       817       820       819       817       820
       806       821       822       806       821       823       806       821       827
       822       821       823       822       821       827       823       821       827
       825       824       826       825       824       827       825       824       828
       826       824       827       826       824       828       827       824       828
       821       827       824       824       828       829       828       829       830
       828       829       831       828       829       832       830       829       831
       830       829       832       831       829       832       829       832       833
       829       832       834       829       832       840       833       832       834
       833       832       840       834       832       840       832       834       835
       834       835       836       834       835       837       836       835       837
       835       837       838       835       837       839       835       837       849
       838       837       839       838       837       849       839       837       849
       832       840       841       832       840       842       832       840       843
       841       840       842       841       840       843       842       840       843
       840       843       844       843       844       845       843       844       846
       845       844       846       844       846       847       844       846       848
       844       846       896       847       846       848       847       846       896
       848       846       896       837       849       850       837       849       851
       837       849       852       850       849       851       850       849       852
       851       849       852       849       852       853       849       852       854
       849       852       855       853       852       854       853       852       855
       854       852       855       852       855       856       852       855       857
       852       855       858       856       855       857       856       855       858
       857       855       858       855       858       859       855       858       860
       855       858       861       859       858       860       859       858       861
       860       858       861       858       861       862       858       861       863
       858       861       864       862       861       863       862       861       864
       863       861       864       861       864       865       861       864       866
       861       864       867       865       864       866       865       864       867
       866       864       867       864       867       868       864       867       869
       868       867       869       867       869       870       867       869       871
       870       869       871       869       871       872       869       871       873
       869       871       874       872       871       873       872       871       874
       873       871       874       871       874       875       871       874       876
       871       874       877       875       874       876       875       874       877
       876       874       877       874       877       878       874       877       879
       874       877       880       878       877       879       878       877       880
       879       877       880       877       880       881       877       880       882
       877       880       883       881       880       882       881       880       883
       882       880       883       880       883       884       880       883       885
       880       883       886       884       883       885       884       883       886
       885       883       886       883       886       887       883       886       888
       883       886       889       887       886       888       887       886       889
       888       886       889       886       889       890       886       889       891
       886       889       892       890       889       891       890       889       892
       891       889       892       889       892       893       889       892       894
       889       892       895       893       892       894       893       892       895
       894       892       895       846       896       897       846       896       898
       846       896       899       897       896       898       897       896       899
       898       896       899       896       899       900       896       899       901
       896       899       902       900       899       901       900       899       902
       901       899       902       899       902       903       899       902       904
       899       902       905       903       902       904       903       902       905
       904       902       905       902       905       906       902       905       907
       902       905       908       906       905       907       906       905       908
       907       905       908       905       908       909       905       908       910
       905       908       911       909       908       910       909       908       911
       910       908       911       908       911       912       908       911       913
       908       911       914       912       911       913       912       911       914
       913       911       914       911       914       915       911       914       916
       911       914       917       915       914       916       915       914       917
       916       914       917       914       917       918       914       917       919
       914       917       920       918       917       919       918       917       920
       919       917       920       917       920       921       917       920       922
       917       920       923       921       920       922       921       920       923
       922       920       923       920       923       924       920       923       925
       920       923       926       924       923       925       924       923       926
       925       923       926       923       926       927       923       926       928
       923       926       929       927       926       928       927       926       929
       928       926       929       926       929       930       926       929       931
       926       929       932       930       929       931       930       929       932
       931       929       932       929       932       933       929       932       934
       929       932       935       933       932       934       933       932       935
       934       932       935       932       935       936       932       935       937
       932       935       938       936       935       937       936       935       938
       937       935       938       940       939       943       940       939       947
       940       939       951       943       939       947       943       939       951
       947       939       951       939       940       941       939       940       942
       939       940       955       941       940       942       941       940       955
       942       940       955       939       943       944       939       943       945
       939       943       946       944       943       945       944       943       946
       945       943       946       939       947       948       939       947       949
       939       947       950       948       947       949       948       947       950
       949       947       950       939       951       952       939       951       953
       939       951       954       952       951       953       952       951       954
       953       951       954       940       955       956       940       955       957
       940       955       961       956       955       957       956       955       961
       957       955       961       959       958       960       959       958       961
       959       958       962       960       958       961       960       958       962
       961       958       962       955       961       958       958       962       963
       962       963       964       962       963       965       962       963       966
       964       963       965       964       963       966       965       963       966
       963       966       967       963       966       968       963       966       974
       967       966       968       967       966       974       968       966       974
       966       968       969       968       969       970       968       969       971
       970       969       971       969       971       972       969       971       973
       969       971       983       972       971       973       972       971       983
       973       971       983       966       974       975       966       974       976
       966       974       977       975       974       976       975       974       977
       976       974       977       974       977       978       977       978       979
       977       978       980       979       978       980       978       980       981
       978       980       982       978       980      1030       981       980       982
       981       980      1030       982       980      1030       971       983       984
       971       983       985       971       983       986       984       983       985
       984       983       986       985       983       986       983       986       987
       983       986       988       983       986       989       987       986       988
       987       986       989       988       986       989       986       989       990
       986       989       991       986       989       992       990       989       991
       990       989       992       991       989       992       989       992       993
       989       992       994       989       992       995       993       992       994
       993       992       995       994       992       995       992       995       996
       992       995       997       992       995       998       996       995       997
       996       995       998       997       995       998       995       998       999
       995       998      1000       995       998      1001       999       998      1000
       999       998      1001      1000       998      1001       998      1001      1002
       998      1001      1003      1002      1001      1003      1001      1003      1004
      1001      1003      1005      1004      1003      1005      1003      1005      1006
      1003      1005      1007      1003      1005      1008      1006      1005      1007
      1006      1005      1008      1007      1005      1008      1005      1008      1009
      1005      1008      1010      1005      1008      1011      1009      1008      1010
      1009      1008      1011      1010      1008      1011      1008      1011      1012
      1008      1011      1013      1008      1011      1014      1012      1011      1013
      1012      1011      1014      1013      1011      1014      1011      1014      1015
      1011      1014      1016      1011      1014      1017      1015      1014      1016
      1015      1014      1017      1016      1014      1017      1014      1017      1018
      1014      1017      1019      1014      1017      1020      1018      1017      1019
      1018      1017      1020      1019      1017      1020      1017      1020      1021
      1017      1020      1022      1017      1020      1023      1021      1020      1022
      1021      1020      1023      1022      1020      1023      1020      1023      1024
      1020      1023      1025      1020      1023      1026      1024      1023      1025
      1024      1023      1026      1025      1023      1026      1023      1026      1027
      1023      1026      1028      1023      1026      1029      1027      1026      1028
      1027      1026      1029      1028      1026      1029       980      1030      1031
       980      1030      1032       980      1030      1033      1031      1030      1032
      1031      1030      1033      1032      1030      1033      1030      1033      1034
      1030      1033      1035      1030      1033      1036      1034      1033      1035
      1034      1033      1036      1035      1033      1036      1033      1036      1037
      1033      1036      1038      1033      1036      1039      1037      1036      1038
      1037      1036      1039      1038      1036      1039      1036      1039      1040
      1036      1039      1041      1036      1039      1042      1040      1039      1041
      1040      1039      1042      1041      1039      1042      1039      1042      1043
      1039      1042      1044      1039      1042      1045      1043      1042      1044
      1043      1042      1045      1044      1042      1045      1042      1045      1046
      1042      1045      1047      1042      1045      1048      1046      1045      1047
      1046      1045      1048      1047      1045      1048      1045      1048      1049
      1045      1048      1050      1045      1048      1051      1049      1048      1050
      1049      1048      1051      1050      1048      1051      1048      1051      1052
      1048      1051      1053      1048      1051      1054      1052      1051      1053
      1052      1051      1054      1053      1051      1054      1051      1054      1055
      1051      1054      1056      1051      1054      1057      1055      1054      1056
      1055      1054      1057      1056      1054      1057      1054      1057      1058
      1054      1057      1059      1054      1057      1060      1058      1057      1059
      1058      1057      1060      1059      1057      1060      1057      1060      1061
      1057      1060      1062      1057      1060      1063      1061      1060      1062
      1061      1060      1063      1062      1060      1063      1060      1063      1064
      1060      1063      1065      1060      1063      1066      1064      1063      1065
      1064      1063      1066      1065      1063      1066      1063      1066      1067
      1063      1066      1068      1063      1066      1069      1067      1066      1068
      1067      1066      1069      1068      1066      1069      1066      1069      1070
      1066      1069      1071      1066      1069      1072      1070      1069      1071
      1070      1069      1072      1071      1069      1072      1074      1073      1077
      1074      1073      1081      1074      1073      1085      1077      1073      1081
      1077      1073      1085      1081      1073      1085      1073      1074      1075
      1073      1074      1076      1073      1074      1089      1075      1074      1076
      1075      1074      1089      1076      1074      1089      1073      1077      1078
      1073      1077      1079      1073      1077      1080      1078      1077      1079
      1078      1077      1080      1079      1077      1080      1073      1081      1082
      1073      1081      1083      1073      1081      1084      1082      1081      1083
      1082      1081      1084      1083      1081      1084      1073      1085      1086
      1073      1085      1087      1073      1085      1088      1086      1085      1087
      1086      1085      1088      1087      1085      1088      1074      1089      1090
      1074      1089      1091      1074      1089      1095      1090      1089      1091
      1090      1089      1095      1091      1089      1095      1093      1092      1094
      1093      1092      1095      1093      1092      1096      1094      1092      1095
      1094      1092      1096      1095      1092      1096      1089      1095      1092
      1092      1096      1097      1096      1097      1098      1096      1097      1099
      1096      1097      1100      1098      1097      1099      1098      1097      1100
      1099      1097      1100      1097      1100      1101      1097      1100      1102
      1097      1100      1108      1101      1100      1102      1101      1100      1108
      1102      1100      1108      1100      1102      1103      1102      1103      1104
      1102      1103      1105      1104      1103      1105      1103      1105      1106
      1103      1105      1107      1103      1105      1117      1106      1105      1107
      1106      1105      1117      1107      1105      1117      1100      1108      1109
      1100      1108      1110      1100      1108      1111      1109      1108      1110
      1109      1108      1111      1110      1108      1111      1108      1111      1112
      1111      1112      1113      1111      1112      1114      1113      1112      1114
      1112      1114      1115      1112      1114      1116      1112      1114      1164
      1115      1114      1116      1115      1114      1164      1116      1114      1164
      1105      1117      1118      1105      1117      1119      1105      1117      1120
      1118      1117      1119      1118      1117      1120      1119      1117      1120
      1117      1120      1121      1117      1120      1122      1117      1120      1123
      1121      1120      1122      1121      1120      1123      1122      1120      1123
      1120      1123      1124      1120      1123      1125      1120      1123      1126
      1124      1123      1125      1124      1123      1126      1125      1123      1126
      1123      1126      1127      1123      1126      1128      1123      1126      1129
      1127      1126      1128      1127      1126      1129      1128      1126      1129
      1126      1129      1130      1126      1129      1131      1126      1129      1132
      1130      1129      1131      1130      1129      1132      1131      1129      1132
      1129      1132      1133      1129      1132      1134      1129      1132      1135
      1133      1132      1134      1133      1132      1135      1134      1132      1135
      1132      1135      1136      1132      1135      1137      1136      1135      1137
      1135      1137      1138      1135      1137      1139      1138      1137      1139
      1137      1139      1140      1137      1139      1141      1137      1139      1142
      1140      1139      1141      1140      1139      1142      1141      1139      1142
      1139      1142      1143      1139      1142      1144      1139      1142      1145
      1143      1142      1144      1143      1142      1145      1144      1142      1145
      1142      1145      1146      1142      1145      1147      1142      1145      1148
      1146      1145      1147      1146      1145      1148      1147      1145      1148
      1145      1148      1149      1145      1148      1150      1145      1148      1151
      1149      1148      1150      1149      1148      1151      1150      1148      1151
      1148      1151      1152      1148      1151      1153      1148      1151      1154
      1152      1151      1153      1152      1151      1154      1153      1151      1154
      1151      1154      1155      1151      1154      1156      1151      1154      1157
      1155      1154      1156      1155      1154      1157      1156      1154      1157
      1154      1157      1158      1154      1157      1159      1154      1157      1160
      1158      1157      1159      1158      1157      1160      1159      1157      1160
      1157      1160      1161      1157      1160      1162      1157      1160      1163
      1161      1160      1162      1161      1160      1163      1162      1160      1163
      1114      1164      1165      1114      1164      1166      1114      1164      1167
      1165      1164      1166      1165      1164      1167      1166      1164      1167
      1164      1167      1168      1164      1167      1169      1164      1167      1170
      1168      1167      1169      1168      1167      1170      1169      1167      1170
      1167      1170      1171      1167      1170      1172      1167      1170      1173
      1171      1170      1172      1171      1170      1173      1172      1170      1173
      1170      1173      1174      1170      1173      1175      1170      1173      1176
      1174      1173      1175      1174      1173      1176      1175      1173      1176
      1173      1176      1177      1173      1176      1178      1173      1176      1179
      1177      1176      1178      1177      1176      1179      1178      1176      1179
      1176      1179      1180      1176      1179      1181      1176      1179      1182
      1180      1179      1181      1180      1179      1182      1181      1179      1182
      1179      1182      1183      1179      1182      1184      1179      1182      1185
      1183      1182      1184      1183      1182      1185      1184      1182      1185
      1182      1185      1186      1182      1185      1187      1182      1185      1188
      1186      1185      1187      1186      1185      1188      1187      1185      1188
      1185      1188      1189      1185      1188      1190      1185      1188      1191
      1189      1188      1190      1189      1188      1191      1190      1188      1191
      1188      1191      1192      1188      1191      1193      1188      1191      1194
      1192      1191      1193      1192      1191      1194      1193      1191      1194
      1191      1194      1195      1191      1194      1196      1191      1194      1197
      1195      1194      1196      1195      1194      1197      1196      1194      1197
      1194      1197      1198      1194      1197      1199      1194      1197      1200
      1198      1197      1199      1198      1197      1200      1199      1197      1200
      1197      1200      1201      1197      1200      1202      1197      1200      1203
      1201      1200      1202      1201      1200      1203      1202      1200      1203
      1200      1203      1204      1200      1203      1205      1200      1203      1206
      1204      1203      1205      1204      1203      1206      1205      1203      1206
      1208      1207      1211      1208      1207      1215      1208      1207      1219
      1211      1207      1215      1211      1207      1219      1215      1207      1219
      1207      1208      1209      1207      1208      1210      1207      1208      1223
      1209      1208      1210      1209      1208      1223      1210      1208      1223
      1207      1211      1212      1207      1211      1213      1207      1211      1214
      1212      1211      1213      1212      1211      1214      1213      1211      1214
      1207      1215      1216      1207      1215      1217      1207      1215      1218
      1216      1215      1217      1216      1215      1218      1217      1215      1218
      1207      1219      1220      1207      1219      1221      1207      1219      1222
      1220      1219      1221      1220      1219      1222      1221      1219      1222
      1208      1223      1224      1208      1223      1225      1208      1223      1229
      1224      1223      1225      1224      1223      1229      1225      1223      1229
      1227      1226      1228      1227      1226      1229      1227      1226      1230
      1228      1226      1229      1228      1226      1230      1229      1226      1230
      1223      1229      1226      1226      1230      1231      1230      1231      1232
      1230      1231      1233      1230      1231      1234      1232      1231      1233
      1232      1231      1234      1233      1231      1234      1231      1234      1235
      1231      1234      1236      1231      1234      1242      1235      1234      1236
      1235      1234      1242      1236      1234      1242      1234      1236      1237
      1236      1237      1238      1236      1237      1239      1238      1237      1239
      1237      1239      1240      1237      1239      1241      1237      1239      1251
      1240      1239      1241      1240      1239      1251      1241      1239      1251
      1234      1242      1243      1234      1242      1244      1234      1242      1245
      1243      1242      1244      1243      1242      1245      1244      1242      1245
      1242      1245      1246      1245      1246      1247      1245      1246      1248
      1247      1246      1248      1246      1248      1249      1246      1248      1250
      1246      1248      1298      1249      1248      1250      1249      1248      1298
      1250      1248      1298      1239      1251      1252      1239      1251      1253
      1239      1251      1254      1252      1251      1253      1252      1251      1254
      1253      1251      1254      1251      1254      1255      1251      1254      1256
      1251      1254      1257      1255      1254      1256      1255      1254      1257
      1256      1254      1257      1254      1257      1258      1254      1257      1259
      1254      1257      1260      1258      1257      1259      1258      1257      1260
      1259      1257      1260      1257      1260      1261      1257      1260      1262
      1257      1260      1263      1261      1260      1262      1261      1260      1263
      1262      1260      1263      1260      1263      1264      1260      1263      1265
      1260      1263      1266      1264      1263      1265      1264      1263      1266
      1265      1263      1266      1263      1266      1267      1263      1266      1268
      1263      1266      1269      1267      1266      1268      1267      1266      1269
      1268      1266      1269      1266      1269      1270      1266      1269      1271
      1270      1269      1271      1269      1271      1272      1269      1271      1273
      1272      1271      1273      1271      1273      1274      1271      1273      1275
      1271      1273      1276      1274      1273      1275      1274      1273      1276
      1275      1273      1276      1273      1276      1277      1273      1276      1278
      1273      1276      1279      1277      1276      1278      1277      1276      1279
      1278      1276      1279      1276      1279      1280      1276      1279      1281
      1276      1279      1282      1280      1279      1281      1280      1279      1282
      1281      1279      1282      1279      1282      1283      1279      1282      1284
      1279      1282      1285      1283      1282      1284      1283      1282      1285
      1284      1282      1285      1282      1285      1286      1282      1285      1287
      1282      1285      1288      1286      1285      1287      1286      1285      1288
      1287      1285      1288      1285      1288      1289      1285      1288      1290
      1285      1288      1291      1289      1288      1290      1289      1288      1291
      1290      1288      1291      1288      1291      1292      1288      1291      1293
      1288      1291      1294      1292      1291      1293      1292      1291      1294
      1293      1291      1294      1291      1294      1295      1291      1294      1296
      1291      1294      1297      1295      1294      1296      1295      1294      1297
      1296      1294      1297      1248      1298      1299      1248      1298      1300
      1248      1298      1301      1299      1298      1300      1299      1298      1301
      1300      1298      1301      1298      1301      1302      1298      1301      1303
      1298      1301      1304      1302      1301      1303      1302      1301      1304
      1303      1301      1304      1301      1304      1305      1301      1304      1306
      1301      1304      1307      1305      1304      1306      1305      1304      1307
      1306      1304      1307      1304      1307      1308      1304      1307      1309
      1304      1307      1310      1308      1307      1309      1308      1307      1310
      1309      1307      1310      1307      1310      1311      1307      1310      1312
      1307      1310      1313      1311      1310      1312      1311      1310      1313
      1312      1310      1313      1310      1313      1314      1310      1313      1315
      1310      1313      1316      1314      1313      1315      1314      1313      1316
      1315      1313      1316      1313      1316      1317      1313      1316      1318
      1313      1316      1319      1317      1316      1318      1317      1316      1319
      1318      1316      1319      1316      1319      1320      1316      1319      1321
      1316      1319      1322      1320      1319      1321      1320      1319      1322
      1321      1319      1322      1319      1322      1323      1319      1322      1324
      1319      1322      1325      1323      1322      1324      1323      1322      1325
      1324      1322      1325      1322      1325      1326      1322      1325      1327
      1322      1325      1328      1326      1325      1327      1326      1325      1328
      1327      1325      1328      1325      1328      1329      1325      1328      1330
      1325      1328      1331      1329      1328      1330      1329      1328      1331
      1330      1328      1331      1328      1331      1332      1328      1331      1333
      1328      1331      1334      1332      1331      1333      1332      1331      1334
      1333      1331      1334      1331      1334      1335      1331      1334      1336
      1331      1334      1337      1335      1334      1336      1335      1334      1337
      1336      1334      1337      1334      1337      1338      1334      1337      1339
      1334      1337      1340      1338      1337      1339      1338      1337      1340
      1339      1337      1340      1342      1341      1345      1342      1341      1349
      1342      1341      1353      1345      1341      1349      1345      1341      1353
      1349      1341      1353      1341      1342      1343      1341      1342      1344
      1341      1342      1357      1343      1342      1344      1343      1342      1357
      1344      1342      1357      1341      1345      1346      1341      1345      1347
      1341      1345      1348      1346      1345      1347      1346      1345      1348
      1347      1345      1348      1341      1349      1350      1341      1349      1351
      1341      1349      1352      1350      1349      1351      1350      1349      1352
      1351      1349      1352      1341      1353      1354      1341      1353      1355
      1341      1353      1356      1354      1353      1355      1354      1353      1356
      1355      1353      1356      1342      1357      1358      1342      1357      1359
      1342      1357      1363      1358      1357      1359      1358      1357      1363
      1359      1357      1363      1361      1360      1362      1361      1360      1363
      1361      1360      1364      1362      1360      1363      1362      1360      1364
      1363      1360      1364      1357      1363      1360      1360      1364      1365
      1364      1365      1366      1364      1365      1367      1364      1365      1368
      1366      1365      1367      1366      1365      1368      1367      1365      1368
      1365      1368      1369      1365      1368      1370      1365      1368      1376
      1369      1368      1370      1369      1368      1376      1370      1368      1376
      1368      1370      1371      1370      1371      1372      1370      1371      1373
      1372      1371      1373      1371      1373      1374      1371      1373      1375
      1371      1373      1385      1374      1373      1375      1374      1373      1385
      1375      1373      1385      1368      1376      1377      1368      1376      1378
      1368      1376      1379      1377      1376      1378      1377      1376      1379
      1378      1376      1379      1376      1379      1380      1379      1380      1381
      1379      1380      1382      1381      1380      1382      1380      1382      1383
      1380      1382      1384      1380      1382      1432      1383      1382      1384
      1383      1382      1432      1384      1382      1432      1373      1385      1386
      1373      1385      1387      1373      1385      1388      1386      1385      1387
      1386      1385      1388      1387      1385      1388      1385      1388      1389
      1385      1388      1390      1385      1388      1391      1389      1388      1390
      1389      1388      1391      1390      1388      1391      1388      1391      1392
      1388      1391      1393      1388      1391      1394      1392      1391      1393
      1392      1391      1394      1393      1391      1394      1391      1394      1395
      1391      1394      1396      1391      1394      1397      1395      1394      1396
      1395      1394      1397      1396      1394      1397      1394      1397      1398
      1394      1397      1399      1394      1397      1400      1398      1397      1399
      1398      1397      1400      1399      1397      1400      1397      1400      1401
      1397      1400      1402      1397      1400      1403      1401      1400      1402
      1401      1400      1403      1402      1400      1403      1400      1403      1404
      1400      1403      1405      1404      1403      1405      1403      1405      1406
      1403      1405      1407      1406      1405      1407      1405      1407      1408
      1405      1407      1409      1405      1407      1410      1408      1407      1409
      1408      1407      1410      1409      1407      1410      1407      1410      1411
      1407      1410      1412      1407      1410      1413      1411      1410      1412
      1411      1410      1413      1412      1410      1413      1410      1413      1414
      1410      1413      1415      1410      1413      1416      1414      1413      1415
      1414      1413      1416      1415      1413      1416      1413      1416      1417
      1413      1416      1418      1413      1416      1419      1417      1416      1418
      1417      1416      1419      1418      1416      1419      1416      1419      1420
      1416      1419      1421      1416      1419      1422      1420      1419      1421
      1420      1419      1422      1421      1419      1422      1419      1422      1423
      1419      1422      1424      1419      1422      1425      1423      1422      1424
      1423      1422      1425      1424      1422      1425      1422      1425      1426
      1422      1425      1427      1422      1425      1428      1426      1425      1427
      1426      1425      1428      1427      1425      1428      1425      1428      1429
      1425      1428      1430      1425      1428      1431      1429      1428      1430
      1429      1428      1431      1430      1428      1431      1382      1432      1433
      1382      1432      1434      1382      1432      1435      1433      1432      1434
      1433      1432      1435      1434      1432      1435      1432      1435      1436
      1432      1435      1437      1432      1435      1438      1436      1435      1437
      1436      1435      1438      1437      1435      1438      1435      1438      1439
      1435      1438      1440      1435      1438      1441      1439      1438      1440
      1439      1438      1441      1440      1438      1441      1438      1441      1442
      1438      1441      1443      1438      1441      1444      1442      1441      1443
      1442      1441      1444      1443      1441      1444      1441      1444      1445
      1441      1444      1446      1441      1444      1447      1445      1444      1446
      1445      1444      1447      1446      1444      1447      1444      1447      1448
      1444      1447      1449      1444      1447      1450      1448      1447      1449
      1448      1447      1450      1449      1447      1450      1447      1450      1451
      1447      1450      1452      1447      1450      1453      1451      1450      1452
      1451      1450      1453      1452      1450      1453      1450      1453      1454
      1450      1453      1455      1450      1453      1456      1454      1453      1455
      1454      1453      1456      1455      1453      1456      1453      1456      1457
      1453      1456      1458      1453      1456      1459      1457      1456      1458
      1457      1456      1459      1458      1456      1459      1456      1459      1460
      1456      1459      1461      1456      1459      1462      1460      1459      1461
      1460      1459      1462      1461      1459      1462      1459      1462      1463
      1459      1462      1464      1459      1462      1465      1463      1462      1464
      1463      1462      1465      1464      1462      1465      1462      1465      1466
      1462      1465      1467      1462      1465      1468      1466      1465      1467
      1466      1465      1468      1467      1465      1468      1465      1468      1469
      1465      1468      1470      1465      1468      1471      1469      1468      1470
      1469      1468      1471      1470      1468      1471      1468      1471      1472
      1468      1471      1473      1468      1471      1474      1472      1471      1473
      1472      1471      1474      1473      1471      1474      1476      1475      1479
      1476      1475      1483      1476      1475      1487      1479      1475      1483
      1479      1475      1487      1483      1475      1487      1475      1476      1477
      1475      1476      1478      1475      1476      1491      1477      1476      1478
      1477      1476      1491      1478      1476      1491      1475      1479      1480
      1475      1479      1481      1475      1479      1482      1480      1479      1481
      1480      1479      1482      1481      1479      1482      1475      1483      1484
      1475      1483      1485      1475      1483      1486      1484      1483      1485
      1484      1483      1486      1485      1483      1486      1475      1487      1488
      1475      1487      1489      1475      1487      1490      1488      1487      1489
      1488      1487      1490      1489      1487      1490      1476      1491      1492
      1476      1491      1493      1476      1491      1497      1492      1491      1493
      1492      1491      1497      1493      1491      1497      1495      1494      1496
      1495      1494      1497      1495      1494      1498      1496      1494      1497
      1496      1494      1498      1497      1494      1498      1491      1497      1494
      1494      1498      1499      1498      1499      1500      1498      1499      1501
      1498      1499      1502      1500      1499      1501      1500      1499      1502
      1501      1499      1502      1499      1502      1503      1499      1502      1504
      1499      1502      1510      1503      1502      1504      1503      1502      1510
      1504      1502      1510      1502      1504      1505      1504      1505      1506
      1504      1505      1507      1506      1505      1507      1505      1507      1508
      1505      1507      1509      1505      1507      1519      1508      1507      1509
      1508      1507      1519      1509      1507      1519      1502      1510      1511
      1502      1510      1512      1502      1510      1513      1511      1510      1512
      1511      1510      1513      1512      1510      1513      1510      1513      1514
      1513      1514      1515      1513      1514      1516      1515      1514      1516
      1514      1516      1517      1514      1516      1518      1514      1516      1566
      1517      1516      1518      1517      1516      1566      1518      1516      1566
      1507      1519      1520      1507      1519      1521      1507      1519      1522
      1520      1519      1521      1520      1519      1522      1521      1519      1522
      1519      1522      1523      1519      1522      1524      1519      1522      1525
      1523      1522      1524      1523      1522      1525      1524      1522      1525
      1522      1525      1526      1522      1525      1527      1522      1525      1528
      1526      1525      1527      1526      1525      1528      1527      1525      1528
      1525      1528      1529      1525      1528      1530      1525      1528      1531
      1529      1528      1530      1529      1528      1531      1530      1528      1531
      1528      1531      1532      1528      1531      1533      1528      1531      1534
      1532      1531      1533      1532      1531      1534      1533      1531      1534
      1531      1534      1535      1531      1534      1536      1531      1534      1537
      1535      1534      1536      1535      1534      1537      1536      1534      1537
      1534      1537      1538      1534      1537      1539      1538      1537      1539
      1537      1539      1540      1537      1539      1541      1540      1539      1541
      1539      1541      1542      1539      1541      1543      1539      1541      1544
      1542      1541      1543      1542      1541      1544      1543      1541      1544
      1541      1544      1545      1541      1544      1546      1541      1544      1547
      1545      1544      1546      1545      1544      1547      1546      1544      1547
      1544      1547      1548      1544      1547      1549      1544      1547      1550
      1548      1547      1549      1548      1547      1550      1549      1547      1550
      1547      1550      1551      1547      1550      1552      1547      1550      1553
      1551      1550      1552      1551      1550      1553      1552      1550      1553
      1550      1553      1554      1550      1553      1555      1550      1553      1556
      1554      1553      1555      1554      1553      1556      1555      1553      1556
      1553      1556      1557      1553      1556      1558      1553      1556      1559
      1557      1556      1558      1557      1556      1559      1558      1556      1559
      1556      1559      1560      1556      1559      1561      1556      1559      1562
      1560      1559      1561      1560      1559      1562      1561      1559      1562
      1559      1562      1563      1559      1562      1564      1559      1562      1565
      1563      1562      1564      1563      1562      1565      1564      1562      1565
      1516      1566      1567      1516      1566      1568      1516      1566      1569
      1567      1566      1568      1567      1566      1569      1568      1566      1569
      1566      1569      1570      1566      1569      1571      1566      1569      1572
      1570      1569      1571      1570      1569      1572      1571      1569      1572
      1569      1572      1573      1569      1572      1574      1569      1572      1575
      1573      1572      1574      1573      1572      1575      1574      1572      1575
      1572      1575      1576      1572      1575      1577      1572      1575      1578
      1576      1575      1577      1576      1575      1578      1577      1575      1578
      1575      1578      1579      1575      1578      1580      1575      1578      1581
      1579      1578      1580      1579      1578      1581      1580      1578      1581
      1578      1581      1582      1578      1581      1583      1578      1581      1584
      1582      1581      1583      1582      1581      1584      1583      1581      1584
      1581      1584      1585      1581      1584      1586      1581      1584      1587
      1585      1584      1586      1585      1584      1587      1586      1584      1587
      1584      1587      1588      1584      1587      1589      1584      1587      1590
      1588      1587      1589      1588      1587      1590      1589      1587      1590
      1587      1590      1591      1587      1590      1592      1587      1590      1593
      1591      1590      1592      1591      1590      1593      1592      1590      1593
      1590      1593      1594      1590      1593      1595      1590      1593      1596
      1594      1593      1595      1594      1593      1596      1595      1593      1596
      1593      1596      1597      1593      1596      1598      1593      1596      1599
      1597      1596      1598      1597      1596      1599      1598      1596      1599
      1596      1599      1600      1596      1599      1601      1596      1599      1602
      1600      1599      1601      1600      1599      1602      1601      1599      1602
      1599      1602      1603      1599      1602      1604      1599      1602      1605
      1603      1602      1604      1603      1602      1605      1604      1602      1605
      1602      1605      1606      1602      1605      1607      1602      1605      1608
      1606      1605      1607      1606      1605      1608      1607      1605      1608
      1610      1609      1613      1610      1609      1617      1610      1609      1621
      1613      1609      1617      1613      1609      1621      1617      1609      1621
      1609      1610      1611      1609      1610      1612      1609      1610      1625
      1611      1610      1612      1611      1610      1625      1612      1610      1625
      1609      1613      1614      1609      1613      1615      1609      1613      1616
      1614      1613      1615      1614      1613      1616      1615      1613      1616
      1609      1617      1618      1609      1617      1619      1609      1617      1620
      1618      1617      1619      1618      1617      1620      1619      1617      1620
      1609      1621      1622      1609      1621      1623      1609      1621      1624
      1622      1621      1623      1622      1621      1624      1623      1621      1624
      1610      1625      1626      1610      1625      1627      1610      1625      1631
      1626      1625      1627      1626      1625      1631      1627      1625      1631
      1629      1628      1630      1629      1628      1631      1629      1628      1632
      1630      1628      1631      1630      1628      1632      1631      1628      1632
      1625      1631      1628      1628      1632      1633      1632      1633      1634
      1632      1633      1635      1632      1633      1636      1634      1633      1635
      1634      1633      1636      1635      1633      1636      1633      1636      1637
      1633      1636      1638      1633      1636      1644      1637      1636      1638
      1637      1636      1644      1638      1636      1644      1636      1638      1639
      1638      1639      1640      1638      1639      1641      1640      1639      1641
      1639      1641      1642      1639      1641      1643      1639      1641      1653
      1642      1641      1643      1642      1641      1653      1643      1641      1653
      1636      1644      1645      1636      1644      1646      1636      1644      1647
      1645      1644      1646      1645      1644      1647      1646      1644      1647
      1644      1647      1648      1647      1648      1649      1647      1648      1650
      1649      1648      1650      1648      1650      1651      1648      1650      1652
      1648      1650      1700      1651      1650      1652      1651      1650      1700
      1652      1650      1700      1641      1653      1654      1641      1653      1655
      1641      1653      1656      1654      1653      1655      1654      1653      1656
      1655      1653      1656      1653      1656      1657      1653      1656      1658
      1653      1656      1659      1657      1656      1658      1657      1656      1659
      1658      1656      1659      1656      1659      1660      1656      1659      1661
      1656      1659      1662      1660      1659      1661      1660      1659      1662
      1661      1659      1662      1659      1662      1663      1659      1662      1664
      1659      1662      1665      1663      1662      1664      1663      1662      1665
      1664      1662      1665      1662      1665      1666      1662      1665      1667
      1662      1665      1668      1666      1665      1667      1666      1665      1668
      1667      1665      1668      1665      1668      1669      1665      1668      1670
      1665      1668      1671      1669      1668      1670      1669      1668      1671
      1670      1668      1671      1668      1671      1672      1668      1671      1673
      1672      1671      1673      1671      1673      1674      1671      1673      1675
      1674      1673      1675      1673      1675      1676      1673      1675      1677
      1673      1675      1678      1676      1675      1677      1676      1675      1678
      1677      1675      1678      1675      1678      1679      1675      1678      1680
      1675      1678      1681      1679      1678      1680      1679      1678      1681
      1680      1678      1681      1678      1681      1682      1678      1681      1683
      1678      1681      1684      1682      1681      1683      1682      1681      1684
      1683      1681      1684      1681      1684      1685      1681      1684      1686
      1681      1684      1687      1685      1684      1686      1685      1684      1687
      1686      1684      1687      1684      1687      1688      1684      1687      1689
      1684      1687      1690      1688      1687      1689      1688      1687      1690
      1689      1687      1690      1687      1690      1691      1687      1690      1692
      1687      1690      1693      1691      1690      1692      1691      1690      1693
      1692      1690      1693      1690      1693      1694      1690      1693      1695
      1690      1693      1696      1694      1693      1695      1694      1693      1696
      1695      1693      1696      1693      1696      1697      1693      1696      1698
      1693      1696      1699      1697      1696      1698      1697      1696      1699
      1698      1696      1699      1650      1700      1701      1650      1700      1702
      1650      1700      1703      1701      1700      1702      1701      1700      1703
      1702      1700      1703      1700      1703      1704      1700      1703      1705
      1700      1703      1706      1704      1703      1705      1704      1703      1706
      1705      1703      1706      1703      1706      1707      1703      1706      1708
      1703      1706      1709      1707      1706      1708      1707      1706      1709
      1708      1706      1709      1706      1709      1710      1706      1709      1711
      1706      1709      1712      1710      1709      1711      1710      1709      1712
      1711      1709      1712      1709      1712      1713      1709      1712      1714
      1709      1712      1715      1713      1712      1714      1713      1712      1715
      1714      1712      1715      1712      1715      1716      1712      1715      1717
      1712      1715      1718      1716      1715      1717      1716      1715      1718
      1717      1715      1718      1715      1718      1719      1715      1718      1720
      1715      1718      1721      1719      1718      1720      1719      1718      1721
      1720      1718      1721      1718      1721      1722      1718      1721      1723
      1718      1721      1724      1722      1721      1723      1722      1721      1724
      1723      1721      1724      1721      1724      1725      1721      1724      1726
      1721      1724      1727      1725      1724      1726      1725      1724      1727
      1726      1724      1727      1724      1727      1728      1724      1727      1729
      1724      1727      1730      1728      1727      1729      1728      1727      1730
      1729      1727      1730      1727      1730      1731      1727      1730      1732
      1727      1730      1733      1731      1730      1732      1731      1730      1733
      1732      1730      1733      1730      1733      1734      1730      1733      1735
      1730      1733      1736      1734      1733      1735      1734      1733      1736
      1735      1733      1736      1733      1736      1737      1733      1736      1738
      1733      1736      1739      1737      1736      1738      1737      1736      1739
      1738      1736      1739      1736      1739      1740      1736      1739      1741
      1736      1739      1742      1740      1739      1741      1740      1739      1742
      1741      1739      1742      1744      1743      1747      1744      1743      1751
      1744      1743      1755      1747      1743      1751      1747      1743      1755
      1751      1743      1755      1743      1744      1745      1743      1744      1746
      1743      1744      1759      1745      1744      1746      1745      1744      1759
      1746      1744      1759      1743      1747      1748      1743      1747      1749
      1743      1747      1750      1748      1747      1749      1748      1747      1750
      1749      1747      1750      1743      1751      1752      1743      1751      1753
      1743      1751      1754      1752      1751      1753      1752      1751      1754
      1753      1751      1754      1743      1755      1756      1743      1755      1757
      1743      1755      1758      1756      1755      1757      1756      1755      1758
      1757      1755      1758      1744      1759      1760      1744      1759      1761
      1744      1759      1765      1760      1759      1761      1760      1759      1765
      1761      1759      1765      1763      1762      1764      1763      1762      1765
      1763      1762      1766      1764      1762      1765      1764      1762      1766
      1765      1762      1766      1759      1765      1762      1762      1766      1767
      1766      1767      1768      1766      1767      1769      1766      1767      1770
      1768      1767      1769      1768      1767      1770      1769      1767      1770
      1767      1770      1771      1767      1770      1772      1767      1770      1778
      1771      1770      1772      1771      1770      1778      1772      1770      1778
      1770      1772      1773      1772      1773      1774      1772      1773      1775
      1774      1773      1775      1773      1775      1776      1773      1775      1777
      1773      1775      1787      1776      1775      1777      1776      1775      1787
      1777      1775      1787      1770      1778      1779      1770      1778      1780
      1770      1778      1781      1779      1778      1780      1779      1778      1781
      1780      1778      1781      1778      1781      1782      1781      1782      1783
      1781      1782      1784      1783      1782      1784      1782      1784      1785
      1782      1784      1786      1782      1784      1834      1785      1784      1786
      1785      1784      1834      1786      1784      1834      1775      1787      1788
      1775      1787      1789      1775      1787      1790      1788      1787      1789
      1788      1787      1790      1789      1787      1790      1787      1790      1791
      1787      1790      1792      1787      1790      1793      1791      1790      1792
      1791      1790      1793      1792      1790      1793      1790      1793      1794
      1790      1793      1795      1790      1793      1796      1794      1793      1795
      1794      1793      1796      1795      1793      1796      1793      1796      1797
      1793      1796      1798      1793      1796      1799      1797      1796      1798
      1797      1796      1799      1798      1796      1799      1796      1799      1800
      1796      1799      1801      1796      1799      1802      1800      1799      1801
      1800      1799      1802      1801      1799      1802      1799      1802      1803
      1799      1802      1804      1799      1802      1805      1803      1802      1804
      1803      1802      1805      1804      1802      1805      1802      1805      1806
      1802      1805      1807      1806      1805      1807      1805      1807      1808
      1805      1807      1809      1808      1807      1809      1807      1809      1810
      1807      1809      1811      1807      1809      1812      1810      1809      1811
      1810      1809      1812      1811      1809      1812      1809      1812      1813
      1809      1812      1814      1809      1812      1815      1813      1812      1814
      1813      1812      1815      1814      1812      1815      1812      1815      1816
      1812      1815      1817      1812      1815      1818      1816      1815      1817
      1816      1815      1818      1817      1815      1818      1815      1818      1819
      1815      1818      1820      1815      1818      1821      1819      1818      1820
      1819      1818      1821      1820      1818      1821      1818      1821      1822
      1818      1821      1823      1818      1821      1824      1822      1821      1823
      1822      1821      1824      1823      1821      1824      1821      1824      1825
      1821      1824      1826      1821      1824      1827      1825      1824      1826
      1825      1824      1827      1826      1824      1827      1824      1827      1828
      1824      1827      1829      1824      1827      1830      1828      1827      1829
      1828      1827      1830      1829      1827      1830      1827      1830      1831
      1827      1830      1832      1827      1830      1833      1831      1830      1832
      1831      1830      1833      1832      1830      1833      1784      1834      1835
      1784      1834      1836      1784      1834      1837      1835      1834      1836
      1835      1834      1837      1836      1834      1837      1834      1837      1838
      1834      1837      1839      1834      1837      1840      1838      1837      1839
      1838      1837      1840      1839      1837      1840      1837      1840      1841
      1837      1840      1842      1837      1840      1843      1841      1840      1842
      1841      1840      1843      1842      1840      1843      1840      1843      1844
      1840      1843      1845      1840      1843      1846      1844      1843      1845
      1844      1843      1846      1845      1843      1846      1843      1846      1847
      1843      1846      1848      1843      1846      1849      1847      1846      1848
      1847      1846      1849      1848      1846      1849      1846      1849      1850
      1846      1849      1851      1846      1849      1852      1850      1849      1851
      1850      1849      1852      1851      1849      1852      1849      1852      1853
      1849      1852      1854      1849      1852      1855      1853      1852      1854
      1853      1852      1855      1854      1852      1855      1852      1855      1856
      1852      1855      1857      1852      1855      1858      1856      1855      1857
      1856      1855      1858      1857      1855      1858      1855      1858      1859
      1855      1858      1860      1855      1858      1861      1859      1858      1860
      1859      1858      1861      1860      1858      1861      1858      1861      1862
      1858      1861      1863      1858      1861      1864      1862      1861      1863
      1862      1861      1864      1863      1861      1864      1861      1864      1865
      1861      1864      1866      1861      1864      1867      1865      1864      1866
      1865      1864      1867      1866      1864      1867      1864      1867      1868
      1864      1867      1869      1864      1867      1870      1868      1867      1869
      1868      1867      1870      1869      1867      1870      1867      1870      1871
      1867      1870      1872      1867      1870      1873      1871      1870      1872
      1871      1870      1873      1872      1870      1873      1870      1873      1874
      1870      1873      1875      1870      1873      1876      1874      1873      1875
      1874      1873      1876      1875      1873      1876      1878      1877      1881
      1878      1877      1885      1878      1877      1889      1881      1877      1885
      1881      1877      1889      1885      1877      1889      1877      1878      1879
      1877      1878      1880      1877      1878      1893      1879      1878      1880
      1879      1878      1893      1880      1878      1893      1877      1881      1882
      1877      1881      1883      1877      1881      1884      1882      1881      1883
      1882      1881      1884      1883      1881      1884      1877      1885      1886
      1877      1885      1887      1877      1885      1888      1886      1885      1887
      1886      1885      1888      1887      1885      1888      1877      1889      1890
      1877      1889      1891      1877      1889      1892      1890      1889      1891
      1890      1889      1892      1891      1889      1892      1878      1893      1894
      1878      1893      1895      1878      1893      1899      1894      1893      1895
      1894      1893      1899      1895      1893      1899      1897      1896      1898
      1897      1896      1899      1897      1896      1900      1898      1896      1899
      1898      1896      1900      1899      1896      1900      1893      1899      1896
      1896      1900      1901      1900      1901      1902      1900      1901      1903
      1900      1901      1904      1902      1901      1903      1902      1901      1904
      1903      1901      1904      1901      1904      1905      1901      1904      1906
      1901      1904      1912      1905      1904      1906      1905      1904      1912
      1906      1904      1912      1904      1906      1907      1906      1907      1908
      1906      1907      1909      1908      1907      1909      1907      1909      1910
      1907      1909      1911      1907      1909      1921      1910      1909      1911
      1910      1909      1921      1911      1909      1921      1904      1912      1913
      1904      1912      1914      1904      1912      1915      1913      1912      1914
      1913      1912      1915      1914      1912      1915      1912      1915      1916
      1915      1916      1917      1915      1916      1918      1917      1916      1918
      1916      1918      1919      1916      1918      1920      1916      1918      1968
      1919      1918      1920      1919      1918      1968      1920      1918      1968
      1909      1921      1922      1909      1921      1923      1909      1921      1924
      1922      1921      1923      1922      1921      1924      1923      1921      1924
      1921      1924      1925      1921      1924      1926      1921      1924      1927
      1925      1924      1926      1925      1924      1927      1926      1924      1927
      1924      1927      1928      1924      1927      1929      1924      1927      1930
      1928      1927      1929      1928      1927      1930      1929      1927      1930
      1927      1930      1931      1927      1930      1932      1927      1930      1933
      1931      1930      1932      1931      1930      1933      1932      1930      1933
      1930      1933      1934      1930      1933      1935      1930      1933      1936
      1934      1933      1935      1934      1933      1936      1935      1933      1936
      1933      1936      1937      1933      1936      1938      1933      1936      1939
      1937      1936      1938      1937      1936      1939      1938      1936      1939
      1936      1939      1940      1936      1939      1941      1940      1939      1941
      1939      1941      1942      1939      1941      1943      1942      1941      1943
      1941      1943      1944      1941      1943      1945      1941      1943      1946
      1944      1943      1945      1944      1943      1946      1945      1943      1946
      1943      1946      1947      1943      1946      1948      1943      1946      1949
      1947      1946      1948      1947      1946      1949      1948      1946      1949
      1946      1949      1950      1946      1949      1951      1946      1949      1952
      1950      1949      1951      1950      1949      1952      1951      1949      1952
      1949      1952      1953      1949      1952      1954      1949      1952      1955
      1953      1952      1954      1953      1952      1955      1954      1952      1955
      1952      1955      1956      1952      1955      1957      1952      1955      1958
      1956      1955      1957      1956      1955      1958      1957      1955      1958
      1955      1958      1959      1955      1958      1960      1955      1958      1961
      1959      1958      1960      1959      1958      1961      1960      1958      1961
      1958      1961      1962      1958      1961      1963      1958      1961      1964
      1962      1961      1963      1962      1961      1964      1963      1961      1964
      1961      1964      1965      1961      1964      1966      1961      1964      1967
      1965      1964      1966      1965      1964      1967      1966      1964      1967
      1918      1968      1969      1918      1968      1970      1918      1968      1971
      1969      1968      1970      1969      1968      1971      1970      1968      1971
      1968      1971      1972      1968      1971      1973      1968      1971      1974
      1972      1971      1973      1972      1971      1974      1973      1971      1974
      1971      1974      1975      1971      1974      1976      1971      1974      1977
      1975      1974      1976      1975      1974      1977      1976      1974      1977
      1974      1977      1978      1974      1977      1979      1974      1977      1980
      1978      1977      1979      1978      1977      1980      1979      1977      1980
      1977      1980      1981      1977      1980      1982      1977      1980      1983
      1981      1980      1982      1981      1980      1983      1982      1980      1983
      1980      1983      1984      1980      1983      1985      1980      1983      1986
      1984      1983      1985      1984      1983      1986      1985      1983      1986
      1983      1986      1987      1983      1986      1988      1983      1986      1989
      1987      1986      1988      1987      1986      1989      1988      1986      1989
      1986      1989      1990      1986      1989      1991      1986      1989      1992
      1990      1989      1991      1990      1989      1992      1991      1989      1992
      1989      1992      1993      1989      1992      1994      1989      1992      1995
      1993      1992      1994      1993      1992      1995      1994      1992      1995
      1992      1995      1996      1992      1995      1997      1992      1995      1998
      1996      1995      1997      1996      1995      1998      1997      1995      1998
      1995      1998      1999      1995      1998      2000      1995      1998      2001
      1999      1998      2000      1999      1998      2001      2000      1998      2001
      1998      2001      2002      1998      2001      2003      1998      2001      2004
      2002      2001      2003      2002      2001      2004      2003      2001      2004
      2001      2004      2005      2001      2004      2006      2001      2004      2007
      2005      2004      2006      2005      2004      2007      2006      2004      2007
      2004      2007      2008      2004      2007      2009      2004      2007      2010
      2008      2007      2009      2008      2007      2010      2009      2007      2010
      2012      2011      2015      2012      2011      2019      2012      2011      2023
      2015      2011      2019      2015      2011      2023      2019      2011      2023
      2011      2012      2013      2011      2012      2014      2011      2012      2027
      2013      2012      2014      2013      2012      2027      2014      2012      2027
      2011      2015      2016      2011      2015      2017      2011      2015      2018
      2016      2015      2017      2016      2015      2018      2017      2015      2018
      2011      2019      2020      2011      2019      2021      2011      2019      2022
      2020      2019      2021      2020      2019      2022      2021      2019      2022
      2011      2023      2024      2011      2023      2025      2011      2023      2026
      2024      2023      2025      2024      2023      2026      2025      2023      2026
      2012      2027      2028      2012      2027      2029      2012      2027      2033
      2028      2027      2029      2028      2027      2033      2029      2027      2033
      2031      2030      2032      2031      2030      2033      2031      2030      2034
      2032      2030      2033      2032      2030      2034      2033      2030      2034
      2027      2033      2030      2030      2034      2035      2034      2035      2036
      2034      2035      2037      2034      2035      2038      2036      2035      2037
      2036      2035      2038      2037      2035      2038      2035      2038      2039
      2035      2038      2040      2035      2038      2046      2039      2038      2040
      2039      2038      2046      2040      2038      2046      2038      2040      2041
      2040      2041      2042      2040      2041      2043      2042      2041      2043
      2041      2043      2044      2041      2043      2045      2041      2043      2055
      2044      2043      2045      2044      2043      2055      2045      2043      2055
      2038      2046      2047      2038      2046      2048      2038      2046      2049
      2047      2046      2048      2047      2046      2049      2048      2046      2049
      2046      2049      2050      2049      2050      2051      2049      2050      2052
      2051      2050      2052      2050      2052      2053      2050      2052      2054
      2050      2052      2102      2053      2052      2054      2053      2052      2102
      2054      2052      2102      2043      2055      2056      2043      2055      2057
      2043      2055      2058      2056      2055      2057      2056      2055      2058
      2057      2055      2058      2055      2058      2059      2055      2058      2060
      2055      2058      2061      2059      2058      2060      2059      2058      2061
      2060      2058      2061      2058      2061      2062      2058      2061      2063
      2058      2061      2064      2062      2061      2063      2062      2061      2064
      2063      2061      2064      2061      2064      2065      2061      2064      2066
      2061      2064      2067      2065      2064      2066      2065      2064      2067
      2066      2064      2067      2064      2067      2068      2064      2067      2069
      2064      2067      2070      2068      2067      2069      2068      2067      2070
      2069      2067      2070      2067      2070      2071      2067      2070      2072
      2067      2070      2073      2071      2070      2072      2071      2070      2073
      2072      2070      2073      2070      2073      2074      2070      2073      2075
      2074      2073      2075      2073      2075      2076      2073      2075      2077
      2076      2075      2077      2075      2077      2078      2075      2077      2079
      2075      2077      2080      2078      2077      2079      2078      2077      2080
      2079      2077      2080      2077      2080      2081      2077      2080      2082
      2077      2080      2083      2081      2080      2082      2081      2080      2083
      2082      2080      2083      2080      2083      2084      2080      2083      2085
      2080      2083      2086      2084      2083      2085      2084      2083      2086
      2085      2083      2086      2083      2086      2087      2083      2086      2088
      2083      2086      2089      2087      2086      2088      2087      2086      2089
      2088      2086      2089      2086      2089      2090      2086      2089      2091
      2086      2089      2092      2090      2089      2091      2090      2089      2092
      2091      2089      2092      2089      2092      2093      2089      2092      2094
      2089      2092      2095      2093      2092      2094      2093      2092      2095
      2094      2092      2095      2092      2095      2096      2092      2095      2097
      2092      2095      2098      2096      2095      2097      2096      2095      2098
      2097      2095      2098      2095      2098      2099      2095      2098      2100
      2095      2098      2101      2099      2098      2100      2099      2098      2101
      2100      2098      2101      2052      2102      2103      2052      2102      2104
      2052      2102      2105      2103      2102      2104      2103      2102      2105
      2104      2102      2105      2102      2105      2106      2102      2105      2107
      2102      2105      2108      2106      2105      2107      2106      2105      2108
      2107      2105      2108      2105      2108      2109      2105      2108      2110
      2105      2108      2111      2109      2108      2110      2109      2108      2111
      2110      2108      2111      2108      2111      2112      2108      2111      2113
      2108      2111      2114      2112      2111      2113      2112      2111      2114
      2113      2111      2114      2111      2114      2115      2111      2114      2116
      2111      2114      2117      2115      2114      2116      2115      2114      2117
      2116      2114      2117      2114      2117      2118      2114      2117      2119
      2114      2117      2120      2118      2117      2119      2118      2117      2120
      2119      2117      2120      2117      2120      2121      2117      2120      2122
      2117      2120      2123      2121      2120      2122      2121      2120      2123
      2122      2120      2123      2120      2123      2124      2120      2123      2125
      2120      2123      2126      2124      2123      2125      2124      2123      2126
      2125      2123      2126      2123      2126      2127      2123      2126      2128
      2123      2126      2129      2127      2126      2128      2127      2126      2129
      2128      2126      2129      2126      2129      2130      2126      2129      2131
      2126      2129      2132      2130      2129      2131      2130      2129      2132
      2131      2129      2132      2129      2132      2133      2129      2132      2134
      2129      2132      2135      2133      2132      2134      2133      2132      2135
      2134      2132      2135      2132      2135      2136      2132      2135      2137
      2132      2135      2138      2136      2135      2137      2136      2135      2138
      2137      2135      2138      2135      2138      2139      2135      2138      2140
      2135      2138      2141      2139      2138      2140      2139      2138      2141
      2140      2138      2141      2138      2141      2142      2138      2141      2143
      2138      2141      2144      2142      2141      2143      2142      2141      2144
      2143      2141      2144      2146      2145      2149      2146      2145      2153
      2146      2145      2157      2149      2145      2153      2149      2145      2157
      2153      2145      2157      2145      2146      2147      2145      2146      2148
      2145      2146      2161      2147      2146      2148      2147      2146      2161
      2148      2146      2161      2145      2149      2150      2145      2149      2151
      2145      2149      2152      2150      2149      2151      2150      2149      2152
      2151      2149      2152      2145      2153      2154      2145      2153      2155
      2145      2153      2156      2154      2153      2155      2154      2153      2156
      2155      2153      2156      2145      2157      2158      2145      2157      2159
      2145      2157      2160      2158      2157      2159      2158      2157      2160
      2159      2157      2160      2146      2161      2162      2146      2161      2163
      2146      2161      2167      2162      2161      2163      2162      2161      2167
      2163      2161      2167      2165      2164      2166      2165      2164      2167
      2165      2164      2168      2166      2164      2167      2166      2164      2168
      2167      2164      2168      2161      2167      2164      2164      2168      2169
      2168      2169      2170      2168      2169      2171      2168      2169      2172
      2170      2169      2171      2170      2169      2172      2171      2169      2172
      2169      2172      2173      2169      2172      2174      2169      2172      2180
      2173      2172      2174      2173      2172      2180      2174      2172      2180
      2172      2174      2175      2174      2175      2176      2174      2175      2177
      2176      2175      2177      2175      2177      2178      2175      2177      2179
      2175      2177      2189      2178      2177      2179      2178      2177      2189
      2179      2177      2189      2172      2180      2181      2172      2180      2182
      2172      2180      2183      2181      2180      2182      2181      2180      2183
      2182      2180      2183      2180      2183      2184      2183      2184      2185
      2183      2184      2186      2185      2184      2186      2184      2186      2187
      2184      2186      2188      2184      2186      2236      2187      2186      2188
      2187      2186      2236      2188      2186      2236      2177      2189      2190
      2177      2189      2191      2177      2189      2192      2190      2189      2191
      2190      2189      2192      2191      2189      2192      2189      2192      2193
      2189      2192      2194      2189      2192      2195      2193      2192      2194
      2193      2192      2195      2194      2192      2195      2192      2195      2196
      2192      2195      2197      2192      2195      2198      2196      2195      2197
      2196      2195      2198      2197      2195      2198      2195      2198      2199
      2195      2198      2200      2195      2198      2201      2199      2198      2200
      2199      2198      2201      2200      2198      2201      2198      2201      2202
      2198      2201      2203      2198      2201      2204      2202      2201      2203
      2202      2201      2204      2203      2201      2204      2201      2204      2205
      2201      2204      2206      2201      2204      2207      2205      2204      2206
      2205      2204      2207      2206      2204      2207      2204      2207      2208
      2204      2207      2209      2208      2207      2209      2207      2209      2210
      2207      2209      2211      2210      2209      2211      2209      2211      2212
      2209      2211      2213      2209      2211      2214      2212      2211      2213
      2212      2211      2214      2213      2211      2214      2211      2214      2215
      2211      2214      2216      2211      2214      2217      2215      2214      2216
      2215      2214      2217      2216      2214      2217      2214      2217      2218
      2214      2217      2219      2214      2217      2220      2218      2217      2219
      2218      2217      2220      2219      2217      2220      2217      2220      2221
      2217      2220      2222      2217      2220      2223      2221      2220      2222
      2221      2220      2223      2222      2220      2223      2220      2223      2224
      2220      2223      2225      2220      2223      2226      2224      2223      2225
      2224      2223      2226      2225      2223      2226      2223      2226      2227
      2223      2226      2228      2223      2226      2229      2227      2226      2228
      2227      2226      2229      2228      2226      2229      2226      2229      2230
      2226      2229      2231      2226      2229      2232      2230      2229      2231
      2230      2229      2232      2231      2229      2232      2229      2232      2233
      2229      2232      2234      2229      2232      2235      2233      2232      2234
      2233      2232      2235      2234      2232      2235      2186      2236      2237
      2186      2236      2238      2186      2236      2239      2237      2236      2238
      2237      2236      2239      2238      2236      2239      2236      2239      2240
      2236      2239      2241      2236      2239      2242      2240      2239      2241
      2240      2239      2242      2241      2239      2242      2239      2242      2243
      2239      2242      2244      2239      2242      2245      2243      2242      2244
      2243      2242      2245      2244      2242      2245      2242      2245      2246
      2242      2245      2247      2242      2245      2248      2246      2245      2247
      2246      2245      2248      2247      2245      2248      2245      2248      2249
      2245      2248      2250      2245      2248      2251      2249      2248      2250
      2249      2248      2251      2250      2248      2251      2248      2251      2252
      2248      2251      2253      2248      2251      2254      2252      2251      2253
      2252      2251      2254      2253      2251      2254      2251      2254      2255
      2251      2254      2256      2251      2254      2257      2255      2254      2256
      2255      2254      2257      2256      2254      2257      2254      2257      2258
      2254      2257      2259      2254      2257      2260      2258      2257      2259
      2258      2257      2260      2259      2257      2260      2257      2260      2261
      2257      2260      2262      2257      2260      2263      2261      2260      2262
      2261      2260      2263      2262      2260      2263      2260      2263      2264
      2260      2263      2265      2260      2263      2266      2264      2263      2265
      2264      2263      2266      2265      2263      2266      2263      2266      2267
      2263      2266      2268      2263      2266      2269      2267      2266      2268
      2267      2266      2269      2268      2266      2269      2266      2269      2270
      2266      2269      2271      2266      2269      2272      2270      2269      2271
      2270      2269      2272      2271      2269      2272      2269      2272      2273
      2269      2272      2274      2269      2272      2275      2273      2272      2274
      2273      2272      2275      2274      2272      2275      2272      2275      2276
      2272      2275      2277      2272      2275      2278      2276      2275      2277
      2276      2275      2278      2277      2275      2278      2280      2279      2283
      2280      2279      2287      2280      2279      2291      2283      2279      2287
      2283      2279      2291      2287      2279      2291      2279      2280      2281
      2279      2280      2282      2279      2280      2295      2281      2280      2282
      2281      2280      2295      2282      2280      2295      2279      2283      2284
      2279      2283      2285      2279      2283      2286      2284      2283      2285
      2284      2283      2286      2285      2283      2286      2279      2287      2288
      2279      2287      2289      2279      2287      2290      2288      2287      2289
      2288      2287      2290      2289      2287      2290      2279      2291      2292
      2279      2291      2293      2279      2291      2294      2292      2291      2293
      2292      2291      2294      2293      2291      2294      2280      2295      2296
      2280      2295      2297      2280      2295      2301      2296      2295      2297
      2296      2295      2301      2297      2295      2301      2299      2298      2300
      2299      2298      2301      2299      2298      2302      2300      2298      2301
      2300      2298      2302      2301      2298      2302      2295      2301      2298
      2298      2302      2303      2302      2303      2304      2302      2303      2305
      2302      2303      2306      2304      2303      2305      2304      2303      2306
      2305      2303      2306      2303      2306      2307      2303      2306      2308
      2303      2306      2314      2307      2306      2308      2307      2306      2314
      2308      2306      2314      2306      2308      2309      2308      2309      2310
      2308      2309      2311      2310      2309      2311      2309      2311      2312
      2309      2311      2313      2309      2311      2323      2312      2311      2313
      2312      2311      2323      2313      2311      2323      2306      2314      2315
      2306      2314      2316      2306      2314      2317      2315      2314      2316
      2315      2314      2317      2316      2314      2317      2314      2317      2318
      2317      2318      2319      2317      2318      2320      2319      2318      2320
      2318      2320      2321      2318      2320      2322      2318      2320      2370
      2321      2320      2322      2321      2320      2370      2322      2320      2370
      2311      2323      2324      2311      2323      2325      2311      2323      2326
      2324      2323      2325      2324      2323      2326      2325      2323      2326
      2323      2326      2327      2323      2326      2328      2323      2326      2329
      2327      2326      2328      2327      2326      2329      2328      2326      2329
      2326      2329      2330      2326      2329      2331      2326      2329      2332
      2330      2329      2331      2330      2329      2332      2331      2329      2332
      2329      2332      2333      2329      2332      2334      2329      2332      2335
      2333      2332      2334      2333      2332      2335      2334      2332      2335
      2332      2335      2336      2332      2335      2337      2332      2335      2338
      2336      2335      2337      2336      2335      2338      2337      2335      2338
      2335      2338      2339      2335      2338      2340      2335      2338      2341
      2339      2338      2340      2339      2338      2341      2340      2338      2341
      2338      2341      2342      2338      2341      2343      2342      2341      2343
      2341      2343      2344      2341      2343      2345      2344      2343      2345
      2343      2345      2346      2343      2345      2347      2343      2345      2348
      2346      2345      2347      2346      2345      2348      2347      2345      2348
      2345      2348      2349      2345      2348      2350      2345      2348      2351
      2349      2348      2350      2349      2348      2351      2350      2348      2351
      2348      2351      2352      2348      2351      2353      2348      2351      2354
      2352      2351      2353      2352      2351      2354      2353      2351      2354
      2351      2354      2355      2351      2354      2356      2351      2354      2357
      2355      2354      2356      2355      2354      2357      2356      2354      2357
      2354      2357      2358      2354      2357      2359      2354      2357      2360
      2358      2357      2359      2358      2357      2360      2359      2357      2360
      2357      2360      2361      2357      2360      2362      2357      2360      2363
      2361      2360      2362      2361      2360      2363      2362      2360      2363
      2360      2363      2364      2360      2363      2365      2360      2363      2366
      2364      2363      2365      2364      2363      2366      2365      2363      2366
      2363      2366      2367      2363      2366      2368      2363      2366      2369
      2367      2366      2368      2367      2366      2369      2368      2366      2369
      2320      2370      2371      2320      2370      2372      2320      2370      2373
      2371      2370      2372      2371      2370      2373      2372      2370      2373
      2370      2373      2374      2370      2373      2375      2370      2373      2376
      2374      2373      2375      2374      2373      2376      2375      2373      2376
      2373      2376      2377      2373      2376      2378      2373      2376      2379
      2377      2376      2378      2377      2376      2379      2378      2376      2379
      2376      2379      2380      2376      2379      2381      2376      2379      2382
      2380      2379      2381      2380      2379      2382      2381      2379      2382
      2379      2382      2383      2379      2382      2384      2379      2382      2385
      2383      2382      2384      2383      2382      2385      2384      2382      2385
      2382      2385      2386      2382      2385      2387      2382      2385      2388
      2386      2385      2387      2386      2385      2388      2387      2385      2388
      2385      2388      2389      2385      2388      2390      2385      2388      2391
      2389      2388      2390      2389      2388      2391      2390      2388      2391
      2388      2391      2392      2388      2391      2393      2388      2391      2394
      2392      2391      2393      2392      2391      2394      2393      2391      2394
      2391      2394      2395      2391      2394      2396      2391      2394      2397
      2395      2394      2396      2395      2394      2397      2396      2394      2397
      2394      2397      2398      2394      2397      2399      2394      2397      2400
      2398      2397      2399      2398      2397      2400      2399      2397      2400
      2397      2400      2401      2397      2400      2402      2397      2400      2403
      2401      2400      2402      2401      2400      2403      2402      2400      2403
      2400      2403      2404      2400      2403      2405      2400      2403      2406
      2404      2403      2405      2404      2403      2406      2405      2403      2406
      2403      2406      2407      2403      2406      2408      2403      2406      2409
      2407      2406      2408      2407      2406      2409      2408      2406      2409
      2406      2409      2410      2406      2409      2411      2406      2409      2412
      2410      2409      2411      2410      2409      2412      2411      2409      2412
      2414      2413      2417      2414      2413      2421      2414      2413      2425
      2417      2413      2421      2417      2413      2425      2421      2413      2425
      2413      2414      2415      2413      2414      2416      2413      2414      2429
      2415      2414      2416      2415      2414      2429      2416      2414      2429
      2413      2417      2418      2413      2417      2419      2413      2417      2420
      2418      2417      2419      2418      2417      2420      2419      2417      2420
      2413      2421      2422      2413      2421      2423      2413      2421      2424
      2422      2421      2423      2422      2421      2424      2423      2421      2424
      2413      2425      2426      2413      2425      2427      2413      2425      2428
      2426      2425      2427      2426      2425      2428      2427      2425      2428
      2414      2429      2430      2414      2429      2431      2414      2429      2435
      2430      2429      2431      2430      2429      2435      2431      2429      2435
      2433      2432      2434      2433      2432      2435      2433      2432      2436
      2434      2432      2435      2434      2432      2436      2435      2432      2436
      2429      2435      2432      2432      2436      2437      2436      2437      2438
      2436      2437      2439      2436      2437      2440      2438      2437      2439
      2438      2437      2440      2439      2437      2440      2437      2440      2441
      2437      2440      2442      2437      2440      2448      2441      2440      2442
      2441      2440      2448      2442      2440      2448      2440      2442      2443
      2442      2443      2444      2442      2443      2445      2444      2443      2445
      2443      2445      2446      2443      2445      2447      2443      2445      2457
      2446      2445      2447      2446      2445      2457      2447      2445      2457
      2440      2448      2449      2440      2448      2450      2440      2448      2451
      2449      2448      2450      2449      2448      2451      2450      2448      2451
      2448      2451      2452      2451      2452      2453      2451      2452      2454
      2453      2452      2454      2452      2454      2455      2452      2454      2456
      2452      2454      2504      2455      2454      2456      2455      2454      2504
      2456      2454      2504      2445      2457      2458      2445      2457      2459
      2445      2457      2460      2458      2457      2459      2458      2457      2460
      2459      2457      2460      2457      2460      2461      2457      2460      2462
      2457      2460      2463      2461      2460      2462      2461      2460      2463
      2462      2460      2463      2460      2463      2464      2460      2463      2465
      2460      2463      2466      2464      2463      2465      2464      2463      2466
      2465      2463      2466      2463      2466      2467      2463      2466      2468
      2463      2466      2469      2467      2466      2468      2467      2466      2469
      2468      2466      2469      2466      2469      2470      2466      2469      2471
      2466      2469      2472      2470      2469      2471      2470      2469      2472
      2471      2469      2472      2469      2472      2473      2469      2472      2474
      2469      2472      2475      2473      2472      2474      2473      2472      2475
      2474      2472      2475      2472      2475      2476      2472      2475      2477
      2476      2475      2477      2475      2477      2478      2475      2477      2479
      2478      2477      2479      2477      2479      2480      2477      2479      2481
      2477      2479      2482      2480      2479      2481      2480      2479      2482
      2481      2479      2482      2479      2482      2483      2479      2482      2484
      2479      2482      2485      2483      2482      2484      2483      2482      2485
      2484      2482      2485      2482      2485      2486      2482      2485      2487
      2482      2485      2488      2486      2485      2487      2486      2485      2488
      2487      2485      2488      2485      2488      2489      2485      2488      2490
      2485      2488      2491      2489      2488      2490      2489      2488      2491
      2490      2488      2491      2488      2491      2492      2488      2491      2493
      2488      2491      2494      2492      2491      2493      2492      2491      2494
      2493      2491      2494      2491      2494      2495      2491      2494      2496
      2491      2494      2497      2495      2494      2496      2495      2494      2497
      2496      2494      2497      2494      2497      2498      2494      2497      2499
      2494      2497      2500      2498      2497      2499      2498      2497      2500
      2499      2497      2500      2497      2500      2501      2497      2500      2502
      2497      2500      2503      2501      2500      2502      2501      2500      2503
      2502      2500      2503      2454      2504      2505      2454      2504      2506
      2454      2504      2507      2505      2504      2506      2505      2504      2507
      2506      2504      2507      2504      2507      2508      2504      2507      2509
      2504      2507      2510      2508      2507      2509      2508      2507      2510
      2509      2507      2510      2507      2510      2511      2507      2510      2512
      2507      2510      2513      2511      2510      2512      2511      2510      2513
      2512      2510      2513      2510      2513      2514      2510      2513      2515
      2510      2513      2516      2514      2513      2515      2514      2513      2516
      2515      2513      2516      2513      2516      2517      2513      2516      2518
      2513      2516      2519      2517      2516      2518      2517      2516      2519
      2518      2516      2519      2516      2519      2520      2516      2519      2521
      2516      2519      2522      2520      2519      2521      2520      2519      2522
      2521      2519      2522      2519      2522      2523      2519      2522      2524
      2519      2522      2525      2523      2522      2524      2523      2522      2525
      2524      2522      2525      2522      2525      2526      2522      2525      2527
      2522      2525      2528      2526      2525      2527      2526      2525      2528
      2527      2525      2528      2525      2528      2529      2525      2528      2530
      2525      2528      2531      2529      2528      2530      2529      2528      2531
      2530      2528      2531      2528      2531      2532      2528      2531      2533
      2528      2531      2534      2532      2531      2533      2532      2531      2534
      2533      2531      2534      2531      2534      2535      2531      2534      2536
      2531      2534      2537      2535      2534      2536      2535      2534      2537
      2536      2534      2537      2534      2537      2538      2534      2537      2539
      2534      2537      2540      2538      2537      2539      2538      2537      2540
      2539      2537      2540      2537      2540      2541      2537      2540      2542
      2537      2540      2543      2541      2540      2542      2541      2540      2543
      2542      2540      2543      2540      2543      2544      2540      2543      2545
      2540      2543      2546      2544      2543      2545      2544      2543      2546
      2545      2543      2546      2548      2547      2551      2548      2547      2555
      2548      2547      2559      2551      2547      2555      2551      2547      2559
      2555      2547      2559      2547      2548      2549      2547      2548      2550
      2547      2548      2563      2549      2548      2550      2549      2548      2563
      2550      2548      2563      2547      2551      2552      2547      2551      2553
      2547      2551      2554      2552      2551      2553      2552      2551      2554
      2553      2551      2554      2547      2555      2556      2547      2555      2557
      2547      2555      2558      2556      2555      2557      2556      2555      2558
      2557      2555      2558      2547      2559      2560      2547      2559      2561
      2547      2559      2562      2560      2559      2561      2560      2559      2562
      2561      2559      2562      2548      2563      2564      2548      2563      2565
      2548      2563      2569      2564      2563      2565      2564      2563      2569
      2565      2563      2569      2567      2566      2568      2567      2566      2569
      2567      2566      2570      2568      2566      2569      2568      2566      2570
      2569      2566      2570      2563      2569      2566      2566      2570      2571
      2570      2571      2572      2570      2571      2573      2570      2571      2574
      2572      2571      2573      2572      2571      2574      2573      2571      2574
      2571      2574      2575      2571      2574      2576      2571      2574      2582
      2575      2574      2576      2575      2574      2582      2576      2574      2582
      2574      2576      2577      2576      2577      2578      2576      2577      2579
      2578      2577      2579      2577      2579      2580      2577      2579      2581
      2577      2579      2591      2580      2579      2581      2580      2579      2591
      2581      2579      2591      2574      2582      2583      2574      2582      2584
      2574      2582      2585      2583      2582      2584      2583      2582      2585
      2584      2582      2585      2582      2585      2586      2585      2586      2587
      2585      2586      2588      2587      2586      2588      2586      2588      2589
      2586      2588      2590      2586      2588      2638      2589      2588      2590
      2589      2588      2638      2590      2588      2638      2579      2591      2592
      2579      2591      2593      2579      2591      2594      2592      2591      2593
      2592      2591      2594      2593      2591      2594      2591      2594      2595
      2591      2594      2596      2591      2594      2597      2595      2594      2596
      2595      2594      2597      2596      2594      2597      2594      2597      2598
      2594      2597      2599      2594      2597      2600      2598      2597      2599
      2598      2597      2600      2599      2597      2600      2597      2600      2601
      2597      2600      2602      2597      2600      2603      2601      2600      2602
      2601      2600      2603      2602      2600      2603      2600      2603      2604
      2600      2603      2605      2600      2603      2606      2604      2603      2605
      2604      2603      2606      2605      2603      2606      2603      2606      2607
      2603      2606      2608      2603      2606      2609      2607      2606      2608
      2607      2606      2609      2608      2606      2609      2606      2609      2610
      2606      2609      2611      2610      2609      2611      2609      2611      2612
      2609      2611      2613      2612      2611      2613      2611      2613      2614
      2611      2613      2615      2611      2613      2616      2614      2613      2615
      2614      2613      2616      2615      2613      2616      2613      2616      2617
      2613      2616      2618      2613      2616      2619      2617      2616      2618
      2617      2616      2619      2618      2616      2619      2616      2619      2620
      2616      2619      2621      2616      2619      2622      2620      2619      2621
      2620      2619      2622      2621      2619      2622      2619      2622      2623
      2619      2622      2624      2619      2622      2625      2623      2622      2624
      2623      2622      2625      2624      2622      2625      2622      2625      2626
      2622      2625      2627      2622      2625      2628      2626      2625      2627
      2626      2625      2628      2627      2625      2628      2625      2628      2629
      2625      2628      2630      2625      2628      2631      2629      2628      2630
      2629      2628      2631      2630      2628      2631      2628      2631      2632
      2628      2631      2633      2628      2631      2634      2632      2631      2633
      2632      2631      2634      2633      2631      2634      2631      2634      2635
      2631      2634      2636      2631      2634      2637      2635      2634      2636
      2635      2634      2637      2636      2634      2637      2588      2638      2639
      2588      2638      2640      2588      2638      2641      2639      2638      2640
      2639      2638      2641      2640      2638      2641      2638      2641      2642
      2638      2641      2643      2638      2641      2644      2642      2641      2643
      2642      2641      2644      2643      2641      2644      2641      2644      2645
      2641      2644      2646      2641      2644      2647      2645      2644      2646
      2645      2644      2647      2646      2644      2647      2644      2647      2648
      2644      2647      2649      2644      2647      2650      2648      2647      2649
      2648      2647      2650      2649      2647      2650      2647      2650      2651
      2647      2650      2652      2647      2650      2653      2651      2650      2652
      2651      2650      2653      2652      2650      2653      2650      2653      2654
      2650      2653      2655      2650      2653      2656      2654      2653      2655
      2654      2653      2656      2655      2653      2656      2653      2656      2657
      2653      2656      2658      2653      2656      2659      2657      2656      2658
      2657      2656      2659      2658      2656      2659      2656      2659      2660
      2656      2659      2661      2656      2659      2662      2660      2659      2661
      2660      2659      2662      2661      2659      2662      2659      2662      2663
      2659      2662      2664      2659      2662      2665      2663      2662      2664
      2663      2662      2665      2664      2662      2665      2662      2665      2666
      2662      2665      2667      2662      2665      2668      2666      2665      2667
      2666      2665      2668      2667      2665      2668      2665      2668      2669
      2665      2668      2670      2665      2668      2671      2669      2668      2670
      2669      2668      2671      2670      2668      2671      2668      2671      2672
      2668      2671      2673      2668      2671      2674      2672      2671      2673
      2672      2671      2674      2673      2671      2674      2671      2674      2675
      2671      2674      2676      2671      2674      2677      2675      2674      2676
      2675      2674      2677      2676      2674      2677      2674      2677      2678
      2674      2677      2679      2674      2677      2680      2678      2677      2679
      2678      2677      2680      2679      2677      2680      2682      2681      2685
      2682      2681      2689      2682      2681      2693      2685      2681      2689
      2685      2681      2693      2689      2681      2693      2681      2682      2683
      2681      2682      2684      2681      2682      2697      2683      2682      2684
      2683      2682      2697      2684      2682      2697      2681      2685      2686
      2681      2685      2687      2681      2685      2688      2686      2685      2687
      2686      2685      2688      2687      2685      2688      2681      2689      2690
      2681      2689      2691      2681      2689      2692      2690      2689      2691
      2690      2689      2692      2691      2689      2692      2681      2693      2694
      2681      2693      2695      2681      2693      2696      2694      2693      2695
      2694      2693      2696      2695      2693      2696      2682      2697      2698
      2682      2697      2699      2682      2697      2703      2698      2697      2699
      2698      2697      2703      2699      2697      2703      2701      2700      2702
      2701      2700      2703      2701      2700      2704      2702      2700      2703
      2702      2700      2704      2703      2700      2704      2697      2703      2700
      2700      2704      2705      2704      2705      2706      2704      2705      2707
      2704      2705      2708      2706      2705      2707      2706      2705      2708
      2707      2705      2708      2705      2708      2709      2705      2708      2710
      2705      2708      2716      2709      2708      2710      2709      2708      2716
      2710      2708      2716      2708      2710      2711      2710      2711      2712
      2710      2711      2713      2712      2711      2713      2711      2713      2714
      2711      2713      2715      2711      2713      2725      2714      2713      2715
      2714      2713      2725      2715      2713      2725      2708      2716      2717
      2708      2716      2718      2708      2716      2719      2717      2716      2718
      2717      2716      2719      2718      2716      2719      2716      2719      2720
      2719      2720      2721      2719      2720      2722      2721      2720      2722
      2720      2722      2723      2720      2722      2724      2720      2722      2772
      2723      2722      2724      2723      2722      2772      2724      2722      2772
      2713      2725      2726      2713      2725      2727      2713      2725      2728
      2726      2725      2727      2726      2725      2728      2727      2725      2728
      2725      2728      2729      2725      2728      2730      2725      2728      2731
      2729      2728      2730      2729      2728      2731      2730      2728      2731
      2728      2731      2732      2728      2731      2733      2728      2731      2734
      2732      2731      2733      2732      2731      2734      2733      2731      2734
      2731      2734      2735      2731      2734      2736      2731      2734      2737
      2735      2734      2736      2735      2734      2737      2736      2734      2737
      2734      2737      2738      2734      2737      2739      2734      2737      2740
      2738      2737      2739      2738      2737      2740      2739      2737      2740
      2737      2740      2741      2737      2740      2742      2737      2740      2743
      2741      2740      2742      2741      2740      2743      2742      2740      2743
      2740      2743      2744      2740      2743      2745      2744      2743      2745
      2743      2745      2746      2743      2745      2747      2746      2745      2747
      2745      2747      2748      2745      2747      2749      2745      2747      2750
      2748      2747      2749      2748      2747      2750      2749      2747      2750
      2747      2750      2751      2747      2750      2752      2747      2750      2753
      2751      2750      2752      2751      2750      2753      2752      2750      2753
      2750      2753      2754      2750      2753      2755      2750      2753      2756
      2754      2753      2755      2754      2753      2756      2755      2753      2756
      2753      2756      2757      2753      2756      2758      2753      2756      2759
      2757      2756      2758      2757      2756      2759      2758      2756      2759
      2756      2759      2760      2756      2759      2761      2756      2759      2762
      2760      2759      2761      2760      2759      2762      2761      2759      2762
      2759      2762      2763      2759      2762      2764      2759      2762      2765
      2763      2762      2764      2763      2762      2765      2764      2762      2765
      2762      2765      2766      2762      2765      2767      2762      2765      2768
      2766      2765      2767      2766      2765      2768      2767      2765      2768
      2765      2768      2769      2765      2768      2770      2765      2768      2771
      2769      2768      2770      2769      2768      2771      2770      2768      2771
      2722      2772      2773      2722      2772      2774      2722      2772      2775
      2773      2772      2774      2773      2772      2775      2774      2772      2775
      2772      2775      2776      2772      2775      2777      2772      2775      2778
      2776      2775      2777      2776      2775      2778      2777      2775      2778
      2775      2778      2779      2775      2778      2780      2775      2778      2781
      2779      2778      2780      2779      2778      2781      2780      2778      2781
      2778      2781      2782      2778      2781      2783      2778      2781      2784
      2782      2781      2783      2782      2781      2784      2783      2781      2784
      2781      2784      2785      2781      2784      2786      2781      2784      2787
      2785      2784      2786      2785      2784      2787      2786      2784      2787
      2784      2787      2788      2784      2787      2789      2784      2787      2790
      2788      2787      2789      2788      2787      2790      2789      2787      2790
      2787      2790      2791      2787      2790      2792      2787      2790      2793
      2791      2790      2792      2791      2790      2793      2792      2790      2793
      2790      2793      2794      2790      2793      2795      2790      2793      2796
      2794      2793      2795      2794      2793      2796      2795      2793      2796
      2793      2796      2797      2793      2796      2798      2793      2796      2799
      2797      2796      2798      2797      2796      2799      2798      2796      2799
      2796      2799      2800      2796      2799      2801      2796      2799      2802
      2800      2799      2801      2800      2799      2802      2801      2799      2802
      2799      2802      2803      2799      2802      2804      2799      2802      2805
      2803      2802      2804      2803      2802      2805      2804      2802      2805
      2802      2805      2806      2802      2805      2807      2802      2805      2808
      2806      2805      2807      2806      2805      2808      2807      2805      2808
      2805      2808      2809      2805      2808      2810      2805      2808      2811
      2809      2808      2810      2809      2808      2811      2810      2808      2811
      2808      2811      2812      2808      2811      2813      2808      2811      2814
      2812      2811      2813      2812      2811      2814      2813      2811      2814
      2816      2815      2819      2816      2815      2823      2816      2815      2827
      2819      2815      2823      2819      2815      2827      2823      2815      2827
      2815      2816      2817      2815      2816      2818      2815      2816      2831
      2817      2816      2818      2817      2816      2831      2818      2816      2831
      2815      2819      2820      2815      2819      2821      2815      2819      2822
      2820      2819      2821      2820      2819      2822      2821      2819      2822
      2815      2823      2824      2815      2823      2825      2815      2823      2826
      2824      2823      2825      2824      2823      2826      2825      2823      2826
      2815      2827      2828      2815      2827      2829      2815      2827      2830
      2828      2827      2829      2828      2827      2830      2829      2827      2830
      2816      2831      2832      2816      2831      2833      2816      2831      2837
      2832      2831      2833      2832      2831      2837      2833      2831      2837
      2835      2834      2836      2835      2834      2837      2835      2834      2838
      2836      2834      2837      2836      2834      2838      2837      2834      2838
      2831      2837      2834      2834      2838      2839      2838      2839      2840
      2838      2839      2841      2838      2839      2842      2840      2839      2841
      2840      2839      2842      2841      2839      2842      2839      2842      2843
      2839      2842      2844      2839      2842      2850      2843      2842      2844
      2843      2842      2850      2844      2842      2850      2842      2844      2845
      2844      2845      2846      2844      2845      2847      2846      2845      2847
      2845      2847      2848      2845      2847      2849      2845      2847      2859
      2848      2847      2849      2848      2847      2859      2849      2847      2859
      2842      2850      2851      2842      2850      2852      2842      2850      2853
      2851      2850      2852      2851      2850      2853      2852      2850      2853
      2850      2853      2854      2853      2854      2855      2853      2854      2856
      2855      2854      2856      2854      2856      2857      2854      2856      2858
      2854      2856      2906      2857      2856      2858      2857      2856      2906
      2858      2856      2906      2847      2859      2860      2847      2859      2861
      2847      2859      2862      2860      2859      2861      2860      2859      2862
      2861      2859      2862      2859      2862      2863      2859      2862      2864
      2859      2862      2865      2863      2862      2864      2863      2862      2865
      2864      2862      2865      2862      2865      2866      2862      2865      2867
      2862      2865      2868      2866      2865      2867      2866      2865      2868
      2867      2865      2868      2865      2868      2869      2865      2868      2870
      2865      2868      2871      2869      2868      2870      2869      2868      2871
      2870      2868      2871      2868      2871      2872      2868      2871      2873
      2868      2871      2874      2872      2871      2873      2872      2871      2874
      2873      2871      2874      2871      2874      2875      2871      2874      2876
      2871      2874      2877      2875      2874      2876      2875      2874      2877
      2876      2874      2877      2874      2877      2878      2874      2877      2879
      2878      2877      2879      2877      2879      2880      2877      2879      2881
      2880      2879      2881      2879      2881      2882      2879      2881      2883
      2879      2881      2884      2882      2881      2883      2882      2881      2884
      2883      2881      2884      2881      2884      2885      2881      2884      2886
      2881      2884      2887      2885      2884      2886      2885      2884      2887
      2886      2884      2887      2884      2887      2888      2884      2887      2889
      2884      2887      2890      2888      2887      2889      2888      2887      2890
      2889      2887      2890      2887      2890      2891      2887      2890      2892
      2887      2890      2893      2891      2890      2892      2891      2890      2893
      2892      2890      2893      2890      2893      2894      2890      2893      2895
      2890      2893      2896      2894      2893      2895      2894      2893      2896
      2895      2893      2896      2893      2896      2897      2893      2896      2898
      2893      2896      2899      2897      2896      2898      2897      2896      2899
      2898      2896      2899      2896      2899      2900      2896      2899      2901
      2896      2899      2902      2900      2899      2901      2900      2899      2902
      2901      2899      2902      2899      2902      2903      2899      2902      2904
      2899      2902      2905      2903      2902      2904      2903      2902      2905
      2904      2902      2905      2856      2906      2907      2856      2906      2908
      2856      2906      2909      2907      2906      2908      2907      2906      2909
      2908      2906      2909      2906      2909      2910      2906      2909      2911
      2906      2909      2912      2910      2909      2911      2910      2909      2912
      2911      2909      2912      2909      2912      2913      2909      2912      2914
      2909      2912      2915      2913      2912      2914      2913      2912      2915
      2914      2912      2915      2912      2915      2916      2912      2915      2917
      2912      2915      2918      2916      2915      2917      2916      2915      2918
      2917      2915      2918      2915      2918      2919      2915      2918      2920
      2915      2918      2921      2919      2918      2920      2919      2918      2921
      2920      2918      2921      2918      2921      2922      2918      2921      2923
      2918      2921      2924      2922      2921      2923      2922      2921      2924
      2923      2921      2924      2921      2924      2925      2921      2924      2926
      2921      2924      2927      2925      2924      2926      2925      2924      2927
      2926      2924      2927      2924      2927      2928      2924      2927      2929
      2924      2927      2930      2928      2927      2929      2928      2927      2930
      2929      2927      2930      2927      2930      2931      2927      2930      2932
      2927      2930      2933      2931      2930      2932      2931      2930      2933
      2932      2930      2933      2930      2933      2934      2930      2933      2935
      2930      2933      2936      2934      2933      2935      2934      2933      2936
      2935      2933      2936      2933      2936      2937      2933      2936      2938
      2933      2936      2939      2937      2936      2938      2937      2936      2939
      2938      2936      2939      2936      2939      2940      2936      2939      2941
      2936      2939      2942      2940      2939      2941      2940      2939      2942
      2941      2939      2942      2939      2942      2943      2939      2942      2944
      2939      2942      2945      2943      2942      2944      2943      2942      2945
      2944      2942      2945      2942      2945      2946      2942      2945      2947
      2942      2945      2948      2946      2945      2947      2946      2945      2948
      2947      2945      2948      2950      2949      2953      2950      2949      2957
      2950      2949      2961      2953      2949      2957      2953      2949      2961
      2957      2949      2961      2949      2950      2951      2949      2950      2952
      2949      2950      2965      2951      2950      2952      2951      2950      2965
      2952      2950      2965      2949      2953      2954      2949      2953      2955
      2949      2953      2956      2954      2953      2955      2954      2953      2956
      2955      2953      2956      2949      2957      2958      2949      2957      2959
      2949      2957      2960      2958      2957      2959      2958      2957      2960
      2959      2957      2960      2949      2961      2962      2949      2961      2963
      2949      2961      2964      2962      2961      2963      2962      2961      2964
      2963      2961      2964      2950      2965      2966      2950      2965      2967
      2950      2965      2971      2966      2965      2967      2966      2965      2971
      2967      2965      2971      2969      2968      2970      2969      2968      2971
      2969      2968      2972      2970      2968      2971      2970      2968      2972
      2971      2968      2972      2965      2971      2968      2968      2972      2973
      2972      2973      2974      2972      2973      2975      2972      2973      2976
      2974      2973      2975      2974      2973      2976      2975      2973      2976
      2973      2976      2977      2973      2976      2978      2973      2976      2984
      2977      2976      2978      2977      2976      2984      2978      2976      2984
      2976      2978      2979      2978      2979      2980      2978      2979      2981
      2980      2979      2981      2979      2981      2982      2979      2981      2983
      2979      2981      2993      2982      2981      2983      2982      2981      2993
      2983      2981      2993      2976      2984      2985      2976      2984      2986
      2976      2984      2987      2985      2984      2986      2985      2984      2987
      2986      2984      2987      2984      2987      2988      2987      2988      2989
      2987      2988      2990      2989      2988      2990      2988      2990      2991
      2988      2990      2992      2988      2990      3040      2991      2990      2992
      2991      2990      3040      2992      2990      3040      2981      2993      2994
      2981      2993      2995      2981      2993      2996      2994      2993      2995
      2994      2993      2996      2995      2993      2996      2993      2996      2997
      2993      2996      2998      2993      2996      2999      2997      2996      2998
      2997      2996      2999      2998      2996      2999      2996      2999      3000
      2996      2999      3001      2996      2999      3002      3000      2999      3001
      3000      2999      3002      3001      2999      3002      2999      3002      3003
      2999      3002      3004      2999      3002      3005      3003      3002      3004
      3003      3002      3005      3004      3002      3005      3002      3005      3006
      3002      3005      3007      3002      3005      3008      3006      3005      3007
      3006      3005      3008      3007      3005      3008      3005      3008      3009
      3005      3008      3010      3005      3008      3011      3009      3008      3010
      3009      3008      3011      3010      3008      3011      3008      3011      3012
      3008      3011      3013      3012      3011      3013      3011      3013      3014
      3011      3013      3015      3014      3013      3015      3013      3015      3016
      3013      3015      3017      3013      3015      3018      3016      3015      3017
      3016      3015      3018      3017      3015      3018      3015      3018      3019
      3015      3018      3020      3015      3018      3021      3019      3018      3020
      3019      3018      3021      3020      3018      3021      3018      3021      3022
      3018      3021      3023      3018      3021      3024      3022      3021      3023
      3022      3021      3024      3023      3021      3024      3021      3024      3025
      3021      3024      3026      3021      3024      3027      3025      3024      3026
      3025      3024      3027      3026      3024      3027      3024      3027      3028
      3024      3027      3029      3024      3027      3030      3028      3027      3029
      3028      3027      3030      3029      3027      3030      3027      3030      3031
      3027      3030      3032      3027      3030      3033      3031      3030      3032
      3031      3030      3033      3032      3030      3033      3030      3033      3034
      3030      3033      3035      3030      3033      3036      3034      3033      3035
      3034      3033      3036      3035      3033      3036      3033      3036      3037
      3033      3036      3038      3033      3036      3039      3037      3036      3038
      3037      3036      3039      3038      3036      3039      2990      3040      3041
      2990      3040      3042      2990      3040      3043      3041      3040      3042
      3041      3040      3043      3042      3040      3043      3040      3043      3044
      3040      3043      3045      3040      3043      3046      3044      3043      3045
      3044      3043      3046      3045      3043      3046      3043      3046      3047
      3043      3046      3048      3043      3046      3049      3047      3046      3048
      3047      3046      3049      3048      3046      3049      3046      3049      3050
      3046      3049      3051      3046      3049      3052      3050      3049      3051
      3050      3049      3052      3051      3049      3052      3049      3052      3053
      3049      3052      3054      3049      3052      3055      3053      3052      3054
      3053      3052      3055      3054      3052      3055      3052      3055      3056
      3052      3055      3057      3052      3055      3058      3056      3055      3057
      3056      3055      3058      3057      3055      3058      3055      3058      3059
      3055      3058      3060      3055      3058      3061      3059      3058      3060
      3059      3058      3061      3060      3058      3061      3058      3061      3062
      3058      3061      3063      3058      3061      3064      3062      3061      3063
      3062      3061      3064      3063      3061      3064      3061      3064      3065
      3061      3064      3066      3061      3064      3067      3065      3064      3066
      3065      3064      3067      3066      3064      3067      3064      3067      3068
      3064      3067      3069      3064      3067      3070      3068      3067      3069
      3068      3067      3070      3069      3067      3070      3067      3070      3071
      3067      3070      3072      3067      3070      3073      3071      3070      3072
      3071      3070      3073      3072      3070      3073      3070      3073      3074
      3070      3073      3075      3070      3073      3076      3074      3073      3075
      3074      3073      3076      3075      3073      3076      3073      3076      3077
      3073      3076      3078      3073      3076      3079      3077      3076      3078
      3077      3076      3079      3078      3076      3079      3076      3079      3080
      3076      3079      3081      3076      3079      3082      3080      3079      3081
      3080      3079      3082      3081      3079      3082      3084      3083      3087
      3084      3083      3091      3084      3083      3095      3087      3083      3091
      3087      3083      3095      3091      3083      3095      3083      3084      3085
      3083      3084      3086      3083      3084      3099      3085      3084      3086
      3085      3084      3099      3086      3084      3099      3083      3087      3088
      3083      3087      3089      3083      3087      3090      3088      3087      3089
      3088      3087      3090      3089      3087      3090      3083      3091      3092
      3083      3091      3093      3083      3091      3094      3092      3091      3093
      3092      3091      3094      3093      3091      3094      3083      3095      3096
      3083      3095      3097      3083      3095      3098      3096      3095      3097
      3096      3095      3098      3097      3095      3098      3084      3099      3100
      3084      3099      3101      3084      3099      3105      3100      3099      3101
      3100      3099      3105      3101      3099      3105      3103      3102      3104
      3103      3102      3105      3103      3102      3106      3104      3102      3105
      3104      3102      3106      3105      3102      3106      3099      3105      3102
      3102      3106      3107      3106      3107      3108      3106      3107      3109
      3106      3107      3110      3108      3107      3109      3108      3107      3110
      3109      3107      3110      3107      3110      3111      3107      3110      3112
      3107      3110      3118      3111      3110      3112      3111      3110      3118
      3112      3110      3118      3110      3112      3113      3112      3113      3114
      3112      3113      3115      3114      3113      3115      3113      3115      3116
      3113      3115      3117      3113      3115      3127      3116      3115      3117
      3116      3115      3127      3117      3115      3127      3110      3118      3119
      3110      3118      3120      3110      3118      3121      3119      3118      3120
      3119      3118      3121      3120      3118      3121      3118      3121      3122
      3121      3122      3123      3121      3122      3124      3123      3122      3124
      3122      3124      3125      3122      3124      3126      3122      3124      3174
      3125      3124      3126      3125      3124      3174      3126      3124      3174
      3115      3127      3128      3115      3127      3129      3115      3127      3130
      3128      3127      3129      3128      3127      3130      3129      3127      3130
      3127      3130      3131      3127      3130      3132      3127      3130      3133
      3131      3130      3132      3131      3130      3133      3132      3130      3133
      3130      3133      3134      3130      3133      3135      3130      3133      3136
      3134      3133      3135      3134      3133      3136      3135      3133      3136
      3133      3136      3137      3133      3136      3138      3133      3136      3139
      3137      3136      3138      3137      3136      3139      3138      3136      3139
      3136      3139      3140      3136      3139      3141      3136      3139      3142
      3140      3139      3141      3140      3139      3142      3141      3139      3142
      3139      3142      3143      3139      3142      3144      3139      3142      3145
      3143      3142      3144      3143      3142      3145      3144      3142      3145
      3142      3145      3146      3142      3145      3147      3146      3145      3147
      3145      3147      3148      3145      3147      3149      3148      3147      3149
      3147      3149      3150      3147      3149      3151      3147      3149      3152
      3150      3149      3151      3150      3149      3152      3151      3149      3152
      3149      3152      3153      3149      3152      3154      3149      3152      3155
      3153      3152      3154      3153      3152      3155      3154      3152      3155
      3152      3155      3156      3152      3155      3157      3152      3155      3158
      3156      3155      3157      3156      3155      3158      3157      3155      3158
      3155      3158      3159      3155      3158      3160      3155      3158      3161
      3159      3158      3160      3159      3158      3161      3160      3158      3161
      3158      3161      3162      3158      3161      3163      3158      3161      3164
      3162      3161      3163      3162      3161      3164      3163      3161      3164
      3161      3164      3165      3161      3164      3166      3161      3164      3167
      3165      3164      3166      3165      3164      3167      3166      3164      3167
      3164      3167      3168      3164      3167      3169      3164      3167      3170
      3168      3167      3169      3168      3167      3170      3169      3167      3170
      3167      3170      3171      3167      3170      3172      3167      3170      3173
      3171      3170      3172      3171      3170      3173      3172      3170      3173
      3124      3174      3175      3124      3174      3176      3124      3174      3177
      3175      3174      3176      3175      3174      3177      3176      3174      3177
      3174      3177      3178      3174      3177      3179      3174      3177      3180
      3178      3177      3179      3178      3177      3180      3179      3177      3180
      3177      3180      3181      3177      3180      3182      3177      3180      3183
      3181      3180      3182      3181      3180      3183      3182      3180      3183
      3180      3183      3184      3180      3183      3185      3180      3183      3186
      3184      3183      3185      3184      3183      3186      3185      3183      3186
      3183      3186      3187      3183      3186      3188      3183      3186      3189
      3187      3186      3188      3187      3186      3189      3188      3186      3189
      3186      3189      3190      3186      3189      3191      3186      3189      3192
      3190      3189      3191      3190      3189      3192      3191      3189      3192
      3189      3192      3193      3189      3192      3194      3189      3192      3195
      3193      3192      3194      3193      3192      3195      3194      3192      3195
      3192      3195      3196      3192      3195      3197      3192      3195      3198
      3196      3195      3197      3196      3195      3198      3197      3195      3198
      3195      3198      3199      3195      3198      3200      3195      3198      3201
      3199      3198      3200      3199      3198      3201      3200      3198      3201
      3198      3201      3202      3198      3201      3203      3198      3201      3204
      3202      3201      3203      3202      3201      3204      3203      3201      3204
      3201      3204      3205      3201      3204      3206      3201      3204      3207
      3205      3204      3206      3205      3204      3207      3206      3204      3207
      3204      3207      3208      3204      3207      3209      3204      3207      3210
      3208      3207      3209      3208      3207      3210      3209      3207      3210
      3207      3210      3211      3207      3210      3212      3207      3210      3213
      3211      3210      3212      3211      3210      3213      3212      3210      3213
      3210      3213      3214      3210      3213      3215      3210      3213      3216
      3214      3213      3215      3214      3213      3216      3215      3213      3216
      3218      3217      3221      3218      3217      3225      3218      3217      3229
      3221      3217      3225      3221      3217      3229      3225      3217      3229
      3217      3218      3219      3217      3218      3220      3217      3218      3233
      3219      3218      3220      3219      3218      3233      3220      3218      3233
      3217      3221      3222      3217      3221      3223      3217      3221      3224
      3222      3221      3223      3222      3221      3224      3223      3221      3224
      3217      3225      3226      3217      3225      3227      3217      3225      3228
      3226      3225      3227      3226      3225      3228      3227      3225      3228
      3217      3229      3230      3217      3229      3231      3217      3229      3232
      3230      3229      3231      3230      3229      3232      3231      3229      3232
      3218      3233      3234      3218      3233      3235      3218      3233      3239
      3234      3233      3235      3234      3233      3239      3235      3233      3239
      3237      3236      3238      3237      3236      3239      3237      3236      3240
      3238      3236      3239      3238      3236      3240      3239      3236      3240
      3233      3239      3236      3236      3240      3241      3240      3241      3242
      3240      3241      3243      3240      3241      3244      3242      3241      3243
      3242      3241      3244      3243      3241      3244      3241      3244      3245
      3241      3244      3246      3241      3244      3252      3245      3244      3246
      3245      3244      3252      3246      3244      3252      3244      3246      3247
      3246      3247      3248      3246      3247      3249      3248      3247      3249
      3247      3249      3250      3247      3249      3251      3247      3249      3261
      3250      3249      3251      3250      3249      3261      3251      3249      3261
      3244      3252      3253      3244      3252      3254      3244      3252      3255
      3253      3252      3254      3253      3252      3255      3254      3252      3255
      3252      3255      3256      3255      3256      3257      3255      3256      3258
      3257      3256      3258      3256      3258      3259      3256      3258      3260
      3256      3258      3308      3259      3258      3260      3259      3258      3308
      3260      3258      3308      3249      3261      3262      3249      3261      3263
      3249      3261      3264      3262      3261      3263      3262      3261      3264
      3263      3261      3264      3261      3264      3265      3261      3264      3266
      3261      3264      3267      3265      3264      3266      3265      3264      3267
      3266      3264      3267      3264      3267      3268      3264      3267      3269
      3264      3267      3270      3268      3267      3269      3268      3267      3270
      3269      3267      3270      3267      3270      3271      3267      3270      3272
      3267      3270      3273      3271      3270      3272      3271      3270      3273
      3272      3270      3273      3270      3273      3274      3270      3273      3275
      3270      3273      3276      3274      3273      3275      3274      3273      3276
      3275      3273      3276      3273      3276      3277      3273      3276      3278
      3273      3276      3279      3277      3276      3278      3277      3276      3279
      3278      3276      3279      3276      3279      3280      3276      3279      3281
      3280      3279      3281      3279      3281      3282      3279      3281      3283
      3282      3281      3283      3281      3283      3284      3281      3283      3285
      3281      3283      3286      3284      3283      3285      3284      3283      3286
      3285      3283      3286      3283      3286      3287      3283      3286      3288
      3283      3286      3289      3287      3286      3288      3287      3286      3289
      3288      3286      3289      3286      3289      3290      3286      3289      3291
      3286      3289      3292      3290      3289      3291      3290      3289      3292
      3291      3289      3292      3289      3292      3293      3289      3292      3294
      3289      3292      3295      3293      3292      3294      3293      3292      3295
      3294      3292      3295      3292      3295      3296      3292      3295      3297
      3292      3295      3298      3296      3295      3297      3296      3295      3298
      3297      3295      3298      3295      3298      3299      3295      3298      3300
      3295      3298      3301      3299      3298      3300      3299      3298      3301
      3300      3298      3301      3298      3301      3302      3298      3301      3303
      3298      3301      3304      3302      3301      3303      3302      3301      3304
      3303      3301      3304      3301      3304      3305      3301      3304      3306
      3301      3304      3307      3305      3304      3306      3305      3304      3307
      3306      3304      3307      3258      3308      3309      3258      3308      3310
      3258      3308      3311      3309      3308      3310      3309      3308      3311
      3310      3308      3311      3308      3311      3312      3308      3311      3313
      3308      3311      3314      3312      3311      3313      3312      3311      3314
      3313      3311      3314      3311      3314      3315      3311      3314      3316
      3311      3314      3317      3315      3314      3316      3315      3314      3317
      3316      3314      3317      3314      3317      3318      3314      3317      3319
      3314      3317      3320      3318      3317      3319      3318      3317      3320
      3319      3317      3320      3317      3320      3321      3317      3320      3322
      3317      3320      3323      3321      3320      3322      3321      3320      3323
      3322      3320      3323      3320      3323      3324      3320      3323      3325
      3320      3323      3326      3324      3323      3325      3324      3323      3326
      3325      3323      3326      3323      3326      3327      3323      3326      3328
      3323      3326      3329      3327      3326      3328      3327      3326      3329
      3328      3326      3329      3326      3329      3330      3326      3329      3331
      3326      3329      3332      3330      3329      3331      3330      3329      3332
      3331      3329      3332      3329      3332      3333      3329      3332      3334
      3329      3332      3335      3333      3332      3334      3333      3332      3335
      3334      3332      3335      3332      3335      3336      3332      3335      3337
      3332      3335      3338      3336      3335      3337      3336      3335      3338
      3337      3335      3338      3335      3338      3339      3335      3338      3340
      3335      3338      3341      3339      3338      3340      3339      3338      3341
      3340      3338      3341      3338      3341      3342      3338      3341      3343
      3338      3341      3344      3342      3341      3343      3342      3341      3344
      3343      3341      3344      3341      3344      3345      3341      3344      3346
      3341      3344      3347      3345      3344      3346      3345      3344      3347
      3346      3344      3347      3344      3347      3348      3344      3347      3349
      3344      3347      3350      3348      3347      3349      3348      3347      3350
      3349      3347      3350      3352      3351      3355      3352      3351      3359
      3352      3351      3363      3355      3351      3359      3355      3351      3363
      3359      3351      3363      3351      3352      3353      3351      3352      3354
      3351      3352      3367      3353      3352      3354      3353      3352      3367
      3354      3352      3367      3351      3355      3356      3351      3355      3357
      3351      3355      3358      3356      3355      3357      3356      3355      3358
      3357      3355      3358      3351      3359      3360      3351      3359      3361
      3351      3359      3362      3360      3359      3361      3360      3359      3362
      3361      3359      3362      3351      3363      3364      3351      3363      3365
      3351      3363      3366      3364      3363      3365      3364      3363      3366
      3365      3363      3366      3352      3367      3368      3352      3367      3369
      3352      3367      3373      3368      3367      3369      3368      3367      3373
      3369      3367      3373      3371      3370      3372      3371      3370      3373
      3371      3370      3374      3372      3370      3373      3372      3370      3374
      3373      3370      3374      3367      3373      3370      3370      3374      3375
      3374      3375      3376      3374      3375      3377      3374      3375      3378
      3376      3375      3377      3376      3375      3378      3377      3375      3378
      3375      3378      3379      3375      3378      3380      3375      3378      3386
      3379      3378      3380      3379      3378      3386      3380      3378      3386
      3378      3380      3381      3380      3381      3382      3380      3381      3383
      3382      3381      3383      3381      3383      3384      3381      3383      3385
      3381      3383      3395      3384      3383      3385      3384      3383      3395
      3385      3383      3395      3378      3386      3387      3378      3386      3388
      3378      3386      3389      3387      3386      3388      3387      3386      3389
      3388      3386      3389      3386      3389      3390      3389      3390      3391
      3389      3390      3392      3391      3390      3392      3390      3392      3393
      3390      3392      3394      3390      3392      3442      3393      3392      3394
      3393      3392      3442      3394      3392      3442      3383      3395      3396
      3383      3395      3397      3383      3395      3398      3396      3395      3397
      3396      3395      3398      3397      3395      3398      3395      3398      3399
      3395      3398      3400      3395      3398      3401      3399      3398      3400
      3399      3398      3401      3400      3398      3401      3398      3401      3402
      3398      3401      3403      3398      3401      3404      3402      3401      3403
      3402      3401      3404      3403      3401      3404      3401      3404      3405
      3401      3404      3406      3401      3404      3407      3405      3404      3406
      3405      3404      3407      3406      3404      3407      3404      3407      3408
      3404      3407      3409      3404      3407      3410      3408      3407      3409
      3408      3407      3410      3409      3407      3410      3407      3410      3411
      3407      3410      3412      3407      3410      3413      3411      3410      3412
      3411      3410      3413      3412      3410      3413      3410      3413      3414
      3410      3413      3415      3414      3413      3415      3413      3415      3416
      3413      3415      3417      3416      3415      3417      3415      3417      3418
      3415      3417      3419      3415      3417      3420      3418      3417      3419
      3418      3417      3420      3419      3417      3420      3417      3420      3421
      3417      3420      3422      3417      3420      3423      3421      3420      3422
      3421      3420      3423      3422      3420      3423      3420      3423      3424
      3420      3423      3425      3420      3423      3426      3424      3423      3425
      3424      3423      3426      3425      3423      3426      3423      3426      3427
      3423      3426      3428      3423      3426      3429      3427      3426      3428
      3427      3426      3429      3428      3426      3429      3426      3429      3430
      3426      3429      3431      3426      3429      3432      3430      3429      3431
      3430      3429      3432      3431      3429      3432      3429      3432      3433
      3429      3432      3434      3429      3432      3435      3433      3432      3434
      3433      3432      3435      3434      3432      3435      3432      3435      3436
      3432      3435      3437      3432      3435      3438      3436      3435      3437
      3436      3435      3438      3437      3435      3438      3435      3438      3439
      3435      3438      3440      3435      3438      3441      3439      3438      3440
      3439      3438      3441      3440      3438      3441      3392      3442      3443
      3392      3442      3444      3392      3442      3445      3443      3442      3444
      3443      3442      3445      3444      3442      3445      3442      3445      3446
      3442      3445      3447      3442      3445      3448      3446      3445      3447
      3446      3445      3448      3447      3445      3448      3445      3448      3449
      3445      3448      3450      3445      3448      3451      3449      3448      3450
      3449      3448      3451      3450      3448      3451      3448      3451      3452
      3448      3451      3453      3448      3451      3454      3452      3451      3453
      3452      3451      3454      3453      3451      3454      3451      3454      3455
      3451      3454      3456      3451      3454      3457      3455      3454      3456
      3455      3454      3457      3456      3454      3457      3454      3457      3458
      3454      3457      3459      3454      3457      3460      3458      3457      3459
      3458      3457      3460      3459      3457      3460      3457      3460      3461
      3457      3460      3462      3457      3460      3463      3461      3460      3462
      3461      3460      3463      3462      3460      3463      3460      3463      3464
      3460      3463      3465      3460      3463      3466      3464      3463      3465
      3464      3463      3466      3465      3463      3466      3463      3466      3467
      3463      3466      3468      3463      3466      3469      3467      3466      3468
      3467      3466      3469      3468      3466      3469      3466      3469      3470
      3466      3469      3471      3466      3469      3472      3470      3469      3471
      3470      3469      3472      3471      3469      3472      3469      3472      3473
      3469      3472      3474      3469      3472      3475      3473      3472      3474
      3473      3472      3475      3474      3472      3475      3472      3475      3476
      3472      3475      3477      3472      3475      3478      3476      3475      3477
      3476      3475      3478      3477      3475      3478      3475      3478      3479
      3475      3478      3480      3475      3478      3481      3479      3478      3480
      3479      3478      3481      3480      3478      3481      3478      3481      3482
      3478      3481      3483      3478      3481      3484      3482      3481      3483
      3482      3481      3484      3483      3481      3484      3486      3485      3489
      3486      3485      3493      3486      3485      3497      3489      3485      3493
      3489      3485      3497      3493      3485      3497      3485      3486      3487
      3485      3486      3488      3485      3486      3501      3487      3486      3488
      3487      3486      3501      3488      3486      3501      3485      3489      3490
      3485      3489      3491      3485      3489      3492      3490      3489      3491
      3490      3489      3492      3491      3489      3492      3485      3493      3494
      3485      3493      3495      3485      3493      3496      3494      3493      3495
      3494      3493      3496      3495      3493      3496      3485      3497      3498
      3485      3497      3499      3485      3497      3500      3498      3497      3499
      3498      3497      3500      3499      3497      3500      3486      3501      3502
      3486      3501      3503      3486      3501      3507      3502      3501      3503
      3502      3501      3507      3503      3501      3507      3505      3504      3506
      3505      3504      3507      3505      3504      3508      3506      3504      3507
      3506      3504      3508      3507      3504      3508      3501      3507      3504
      3504      3508      3509      3508      3509      3510      3508      3509      3511
      3508      3509      3512      3510      3509      3511      3510      3509      3512
      3511      3509      3512      3509      3512      3513      3509      3512      3514
      3509      3512      3520      3513      3512      3514      3513      3512      3520
      3514      3512      3520      3512      3514      3515      3514      3515      3516
      3514      3515      3517      3516      3515      3517      3515      3517      3518
      3515      3517      3519      3515      3517      3529      3518      3517      3519
      3518      3517      3529      3519      3517      3529      3512      3520      3521
      3512      3520      3522      3512      3520      3523      3521      3520      3522
      3521      3520      3523      3522      3520      3523      3520      3523      3524
      3523      3524      3525      3523      3524      3526      3525      3524      3526
      3524      3526      3527      3524      3526      3528      3524      3526      3576
      3527      3526      3528      3527      3526      3576      3528      3526      3576
      3517      3529      3530      3517      3529      3531      3517      3529      3532
      3530      3529      3531      3530      3529      3532      3531      3529      3532
      3529      3532      3533      3529      3532      3534      3529      3532      3535
      3533      3532      3534      3533      3532      3535      3534      3532      3535
      3532      3535      3536      3532      3535      3537      3532      3535      3538
      3536      3535      3537      3536      3535      3538      3537      3535      3538
      3535      3538      3539      3535      3538      3540      3535      3538      3541
      3539      3538      3540      3539      3538      3541      3540      3538      3541
      3538      3541      3542      3538      3541      3543      3538      3541      3544
      3542      3541      3543      3542      3541      3544      3543      3541      3544
      3541      3544      3545      3541      3544      3546      3541      3544      3547
      3545      3544      3546      3545      3544      3547      3546      3544      3547
      3544      3547      3548      3544      3547      3549      3548      3547      3549
      3547      3549      3550      3547      3549      3551      3550      3549      3551
      3549      3551      3552      3549      3551      3553      3549      3551      3554
      3552      3551      3553      3552      3551      3554      3553      3551      3554
      3551      3554      3555      3551      3554      3556      3551      3554      3557
      3555      3554      3556      3555      3554      3557      3556      3554      3557
      3554      3557      3558      3554      3557      3559      3554      3557      3560
      3558      3557      3559      3558      3557      3560      3559      3557      3560
      3557      3560      3561      3557      3560      3562      3557      3560      3563
      3561      3560      3562      3561      3560      3563      3562      3560      3563
      3560      3563      3564      3560      3563      3565      3560      3563      3566
      3564      3563      3565      3564      3563      3566      3565      3563      3566
      3563      3566      3567      3563      3566      3568      3563      3566      3569
      3567      3566      3568      3567      3566      3569      3568      3566      3569
      3566      3569      3570      3566      3569      3571      3566      3569      3572
      3570      3569      3571      3570      3569      3572      3571      3569      3572
      3569      3572      3573      3569      3572      3574      3569      3572      3575
      3573      3572      3574      3573      3572      3575      3574      3572      3575
      3526      3576      3577      3526      3576      3578      3526      3576      3579
      3577      3576      3578      3577      3576      3579      3578      3576      3579
      3576      3579      3580      3576      3579      3581      3576      3579      3582
      3580      3579      3581      3580      3579      3582      3581      3579      3582
      3579      3582      3583      3579      3582      3584      3579      3582      3585
      3583      3582      3584      3583      3582      3585      3584      3582      3585
      3582      3585      3586      3582      3585      3587      3582      3585      3588
      3586      3585      3587      3586      3585      3588      3587      3585      3588
      3585      3588      3589      3585      3588      3590      3585      3588      3591
      3589      3588      3590      3589      3588      3591      3590      3588      3591
      3588      3591      3592      3588      3591      3593      3588      3591      3594
      3592      3591      3593      3592      3591      3594      3593      3591      3594
      3591      3594      3595      3591      3594      3596      3591      3594      3597
      3595      3594      3596      3595      3594      3597      3596      3594      3597
      3594      3597      3598      3594      3597      3599      3594      3597      3600
      3598      3597      3599      3598      3597      3600      3599      3597      3600
      3597      3600      3601      3597      3600      3602      3597      3600      3603
      3601      3600      3602      3601      3600      3603      3602      3600      3603
      3600      3603      3604      3600      3603      3605      3600      3603      3606
      3604      3603      3605      3604      3603      3606      3605      3603      3606
      3603      3606      3607      3603      3606      3608      3603      3606      3609
      3607      3606      3608      3607      3606      3609      3608      3606      3609
      3606      3609      3610      3606      3609      3611      3606      3609      3612
      3610      3609      3611      3610      3609      3612      3611      3609      3612
      3609      3612      3613      3609      3612      3614      3609      3612      3615
      3613      3612      3614      3613      3612      3615      3614      3612      3615
      3612      3615      3616      3612      3615      3617      3612      3615      3618
      3616      3615      3617      3616      3615      3618      3617      3615      3618
      3620      3619      3623      3620      3619      3627      3620      3619      3631
      3623      3619      3627      3623      3619      3631      3627      3619      3631
      3619      3620      3621      3619      3620      3622      3619      3620      3635
      3621      3620      3622      3621      3620      3635      3622      3620      3635
      3619      3623      3624      3619      3623      3625      3619      3623      3626
      3624      3623      3625      3624      3623      3626      3625      3623      3626
      3619      3627      3628      3619      3627      3629      3619      3627      3630
      3628      3627      3629      3628      3627      3630      3629      3627      3630
      3619      3631      3632      3619      3631      3633      3619      3631      3634
      3632      3631      3633      3632      3631      3634      3633      3631      3634
      3620      3635      3636      3620      3635      3637      3620      3635      3641
      3636      3635      3637      3636      3635      3641      3637      3635      3641
      3639      3638      3640      3639      3638      3641      3639      3638      3642
      3640      3638      3641      3640      3638      3642      3641      3638      3642
      3635      3641      3638      3638      3642      3643      3642      3643      3644
      3642      3643      3645      3642      3643      3646      3644      3643      3645
      3644      3643      3646      3645      3643      3646      3643      3646      3647
      3643      3646      3648      3643      3646      3654      3647      3646      3648
      3647      3646      3654      3648      3646      3654      3646      3648      3649
      3648      3649      3650      3648      3649      3651      3650      3649      3651
      3649      3651      3652      3649      3651      3653      3649      3651      3663
      3652      3651      3653      3652      3651      3663      3653      3651      3663
      3646      3654      3655      3646      3654      3656      3646      3654      3657
      3655      3654      3656      3655      3654      3657      3656      3654      3657
      3654      3657      3658      3657      3658      3659      3657      3658      3660
      3659      3658      3660      3658      3660      3661      3658      3660      3662
      3658      3660      3710      3661      3660      3662      3661      3660      3710
      3662      3660      3710      3651      3663      3664      3651      3663      3665
      3651      3663      3666      3664      3663      3665      3664      3663      3666
      3665      3663      3666      3663      3666      3667      3663      3666      3668
      3663      3666      3669      3667      3666      3668      3667      3666      3669
      3668      3666      3669      3666      3669      3670      3666      3669      3671
      3666      3669      3672      3670      3669      3671      3670      3669      3672
      3671      3669      3672      3669      3672      3673      3669      3672      3674
      3669      3672      3675      3673      3672      3674      3673      3672      3675
      3674      3672      3675      3672      3675      3676      3672      3675      3677
      3672      3675      3678      3676      3675      3677      3676      3675      3678
      3677      3675      3678      3675      3678      3679      3675      3678      3680
      3675      3678      3681      3679      3678      3680      3679      3678      3681
      3680      3678      3681      3678      3681      3682      3678      3681      3683
      3682      3681      3683      3681      3683      3684      3681      3683      3685
      3684      3683      3685      3683      3685      3686      3683      3685      3687
      3683      3685      3688      3686      3685      3687      3686      3685      3688
      3687      3685      3688      3685      3688      3689      3685      3688      3690
      3685      3688      3691      3689      3688      3690      3689      3688      3691
      3690      3688      3691      3688      3691      3692      3688      3691      3693
      3688      3691      3694      3692      3691      3693      3692      3691      3694
      3693      3691      3694      3691      3694      3695      3691      3694      3696
      3691      3694      3697      3695      3694      3696      3695      3694      3697
      3696      3694      3697      3694      3697      3698      3694      3697      3699
      3694      3697      3700      3698      3697      3699      3698      3697      3700
      3699      3697      3700      3697      3700      3701      3697      3700      3702
      3697      3700      3703      3701      3700      3702      3701      3700      3703
      3702      3700      3703      3700      3703      3704      3700      3703      3705
      3700      3703      3706      3704      3703      3705      3704      3703      3706
      3705      3703      3706      3703      3706      3707      3703      3706      3708
      3703      3706      3709      3707      3706      3708      3707      3706      3709
      3708      3706      3709      3660      3710      3711      3660      3710      3712
      3660      3710      3713      3711      3710      3712      3711      3710      3713
      3712      3710      3713      3710      3713      3714      3710      3713      3715
      3710      3713      3716      3714      3713      3715      3714      3713      3716
      3715      3713      3716      3713      3716      3717      3713      3716      3718
      3713      3716      3719      3717      3716      3718      3717      3716      3719
      3718      3716      3719      3716      3719      3720      3716      3719      3721
      3716      3719      3722      3720      3719      3721      3720      3719      3722
      3721      3719      3722      3719      3722      3723      3719      3722      3724
      3719      3722      3725      3723      3722      3724      3723      3722      3725
      3724      3722      3725      3722      3725      3726      3722      3725      3727
      3722      3725      3728      3726      3725      3727      3726      3725      3728
      3727      3725      3728      3725      3728      3729      3725      3728      3730
      3725      3728      3731      3729      3728      3730      3729      3728      3731
      3730      3728      3731      3728      3731      3732      3728      3731      3733
      3728      3731      3734      3732      3731      3733      3732      3731      3734
      3733      3731      3734      3731      3734      3735      3731      3734      3736
      3731      3734      3737      3735      3734      3736      3735      3734      3737
      3736      3734      3737      3734      3737      3738      3734      3737      3739
      3734      3737      3740      3738      3737      3739      3738      3737      3740
      3739      3737      3740      3737      3740      3741      3737      3740      3742
      3737      3740      3743      3741      3740      3742      3741      3740      3743
      3742      3740      3743      3740      3743      3744      3740      3743      3745
      3740      3743      3746      3744      3743      3745      3744      3743      3746
      3745      3743      3746      3743      3746      3747      3743      3746      3748
      3743      3746      3749      3747      3746      3748      3747      3746      3749
      3748      3746      3749      3746      3749      3750      3746      3749      3751
      3746      3749      3752      3750      3749      3751      3750      3749      3752
      3751      3749      3752      3754      3753      3757      3754      3753      3761
      3754      3753      3765      3757      3753      3761      3757      3753      3765
      3761      3753      3765      3753      3754      3755      3753      3754      3756
      3753      3754      3769      3755      3754      3756      3755      3754      3769
      3756      3754      3769      3753      3757      3758      3753      3757      3759
      3753      3757      3760      3758      3757      3759      3758      3757      3760
      3759      3757      3760      3753      3761      3762      3753      3761      3763
      3753      3761      3764      3762      3761      3763      3762      3761      3764
      3763      3761      3764      3753      3765      3766      3753      3765      3767
      3753      3765      3768      3766      3765      3767      3766      3765      3768
      3767      3765      3768      3754      3769      3770      3754      3769      3771
      3754      3769      3775      3770      3769      3771      3770      3769      3775
      3771      3769      3775      3773      3772      3774      3773      3772      3775
      3773      3772      3776      3774      3772      3775      3774      3772      3776
      3775      3772      3776      3769      3775      3772      3772      3776      3777
      3776      3777      3778      3776      3777      3779      3776      3777      3780
      3778      3777      3779      3778      3777      3780      3779      3777      3780
      3777      3780      3781      3777      3780      3782      3777      3780      3788
      3781      3780      3782      3781      3780      3788      3782      3780      3788
      3780      3782      3783      3782      3783      3784      3782      3783      3785
      3784      3783      3785      3783      3785      3786      3783      3785      3787
      3783      3785      3797      3786      3785      3787      3786      3785      3797
      3787      3785      3797      3780      3788      3789      3780      3788      3790
      3780      3788      3791      3789      3788      3790      3789      3788      3791
      3790      3788      3791      3788      3791      3792      3791      3792      3793
      3791      3792      3794      3793      3792      3794      3792      3794      3795
      3792      3794      3796      3792      3794      3844      3795      3794      3796
      3795      3794      3844      3796      3794      3844      3785      3797      3798
      3785      3797      3799      3785      3797      3800      3798      3797      3799
      3798      3797      3800      3799      3797      3800      3797      3800      3801
      3797      3800      3802      3797      3800      3803      3801      3800      3802
      3801      3800      3803      3802      3800      3803      3800      3803      3804
      3800      3803      3805      3800      3803      3806      3804      3803      3805
      3804      3803      3806      3805      3803      3806      3803      3806      3807
      3803      3806      3808      3803      3806      3809      3807      3806      3808
      3807      3806      3809      3808      3806      3809      3806      3809      3810
      3806      3809      3811      3806      3809      3812      3810      3809      3811
      3810      3809      3812      3811      3809      3812      3809      3812      3813
      3809      3812      3814      3809      3812      3815      3813      3812      3814
      3813      3812      3815      3814      3812      3815      3812      3815      3816
      3812      3815      3817      3816      3815      3817      3815      3817      3818
      3815      3817      3819      3818      3817      3819      3817      3819      3820
      3817      3819      3821      3817      3819      3822      3820      3819      3821
      3820      3819      3822      3821      3819      3822      3819      3822      3823
      3819      3822      3824      3819      3822      3825      3823      3822      3824
      3823      3822      3825      3824      3822      3825      3822      3825      3826
      3822      3825      3827      3822      3825      3828      3826      3825      3827
      3826      3825      3828      3827      3825      3828      3825      3828      3829
      3825      3828      3830      3825      3828      3831      3829      3828      3830
      3829      3828      3831      3830      3828      3831      3828      3831      3832
      3828      3831      3833      3828      3831      3834      3832      3831      3833
      3832      3831      3834      3833      3831      3834      3831      3834      3835
      3831      3834      3836      3831      3834      3837      3835      3834      3836
      3835      3834      3837      3836      3834      3837      3834      3837      3838
      3834      3837      3839      3834      3837      3840      3838      3837      3839
      3838      3837      3840      3839      3837      3840      3837      3840      3841
      3837      3840      3842      3837      3840      3843      3841      3840      3842
      3841      3840      3843      3842      3840      3843      3794      3844      3845
      3794      3844      3846      3794      3844      3847      3845      3844      3846
      3845      3844      3847      3846      3844      3847      3844      3847      3848
      3844      3847      3849      3844      3847      3850      3848      3847      3849
      3848      3847      3850      3849      3847      3850      3847      3850      3851
      3847      3850      3852      3847      3850      3853      3851      3850      3852
      3851      3850      3853      3852      3850      3853      3850      3853      3854
      3850      3853      3855      3850      3853      3856      3854      3853      3855
      3854      3853      3856      3855      3853      3856      3853      3856      3857
      3853      3856      3858      3853      3856      3859      3857      3856      3858
      3857      3856      3859      3858      3856      3859      3856      3859      3860
      3856      3859      3861      3856      3859      3862      3860      3859      3861
      3860      3859      3862      3861      3859      3862      3859      3862      3863
      3859      3862      3864      3859      3862      3865      3863      3862      3864
      3863      3862      3865      3864      3862      3865      3862      3865      3866
      3862      3865      3867      3862      3865      3868      3866      3865      3867
      3866      3865      3868      3867      3865      3868      3865      3868      3869
      3865      3868      3870      3865      3868      3871      3869      3868      3870
      3869      3868      3871      3870      3868      3871      3868      3871      3872
      3868      3871      3873      3868      3871      3874      3872      3871      3873
      3872      3871      3874      3873      3871      3874      3871      3874      3875
      3871      3874      3876      3871      3874      3877      3875      3874      3876
      3875      3874      3877      3876      3874      3877      3874      3877      3878
      3874      3877      3879      3874      3877      3880      3878      3877      3879
      3878      3877      3880      3879      3877      3880      3877      3880      3881
      3877      3880      3882      3877      3880      3883      3881      3880      3882
      3881      3880      3883      3882      3880      3883      3880      3883      3884
      3880      3883      3885      3880      3883      3886      3884      3883      3885
      3884      3883      3886      3885      3883      3886      3888      3887      3891
      3888      3887      3895      3888      3887      3899      3891      3887      3895
      3891      3887      3899      3895      3887      3899      3887      3888      3889
      3887      3888      3890      3887      3888      3903      3889      3888      3890
      3889      3888      3903      3890      3888      3903      3887      3891      3892
      3887      3891      3893      3887      3891      3894      3892      3891      3893
      3892      3891      3894      3893      3891      3894      3887      3895      3896
      3887      3895      3897      3887      3895      3898      3896      3895      3897
      3896      3895      3898      3897      3895      3898      3887      3899      3900
      3887      3899      3901      3887      3899      3902      3900      3899      3901
      3900      3899      3902      3901      3899      3902      3888      3903      3904
      3888      3903      3905      3888      3903      3909      3904      3903      3905
      3904      3903      3909      3905      3903      3909      3907      3906      3908
      3907      3906      3909      3907      3906      3910      3908      3906      3909
      3908      3906      3910      3909      3906      3910      3903      3909      3906
      3906      3910      3911      3910      3911      3912      3910      3911      3913
      3910      3911      3914      3912      3911      3913      3912      3911      3914
      3913      3911      3914      3911      3914      3915      3911      3914      3916
      3911      3914      3922      3915      3914      3916      3915      3914      3922
      3916      3914      3922      3914      3916      3917      3916      3917      3918
      3916      3917      3919      3918      3917      3919      3917      3919      3920
      3917      3919      3921      3917      3919      3931      3920      3919      3921
      3920      3919      3931      3921      3919      3931      3914      3922      3923
      3914      3922      3924      3914      3922      3925      3923      3922      3924
      3923      3922      3925      3924      3922      3925      3922      3925      3926
      3925      3926      3927      3925      3926      3928      3927      3926      3928
      3926      3928      3929      3926      3928      3930      3926      3928      3978
      3929      3928      3930      3929      3928      3978      3930      3928      3978
      3919      3931      3932      3919      3931      3933      3919      3931      3934
      3932      3931      3933      3932      3931      3934      3933      3931      3934
      3931      3934      3935      3931      3934      3936      3931      3934      3937
      3935      3934      3936      3935      3934      3937      3936      3934      3937
      3934      3937      3938      3934      3937      3939      3934      3937      3940
      3938      3937      3939      3938      3937      3940      3939      3937      3940
      3937      3940      3941      3937      3940      3942      3937      3940      3943
      3941      3940      3942      3941      3940      3943      3942      3940      3943
      3940      3943      3944      3940      3943      3945      3940      3943      3946
      3944      3943      3945      3944      3943      3946      3945      3943      3946
      3943      3946      3947      3943      3946      3948      3943      3946      3949
      3947      3946      3948      3947      3946      3949      3948      3946      3949
      3946      3949      3950      3946      3949      3951      3950      3949      3951
      3949      3951      3952      3949      3951      3953      3952      3951      3953
      3951      3953      3954      3951      3953      3955      3951      3953      3956
      3954      3953      3955      3954      3953      3956      3955      3953      3956
      3953      3956      3957      3953      3956      3958      3953      3956      3959
      3957      3956      3958      3957      3956      3959      3958      3956      3959
      3956      3959      3960      3956      3959      3961      3956      3959      3962
      3960      3959      3961      3960      3959      3962      3961      3959      3962
      3959      3962      3963      3959      3962      3964      3959      3962      3965
      3963      3962      3964      3963      3962      3965      3964      3962      3965
      3962      3965      3966      3962      3965      3967      3962      3965      3968
      3966      3965      3967      3966      3965      3968      3967      3965      3968
      3965      3968      3969      3965      3968      3970      3965      3968      3971
      3969      3968      3970      3969      3968      3971      3970      3968      3971
      3968      3971      3972      3968      3971      3973      3968      3971      3974
      3972      3971      3973      3972      3971      3974      3973      3971      3974
      3971      3974      3975      3971      3974      3976      3971      3974      3977
      3975      3974      3976      3975      3974      3977      3976      3974      3977
      3928      3978      3979      3928      3978      3980      3928      3978      3981
      3979      3978      3980      3979      3978      3981      3980      3978      3981
      3978      3981      3982      3978      3981      3983      3978      3981      3984
      3982      3981      3983      3982      3981      3984      3983      3981      3984
      3981      3984      3985      3981      3984      3986      3981      3984      3987
      3985      3984      3986      3985      3984      3987      3986      3984      3987
      3984      3987      3988      3984      3987      3989      3984      3987      3990
      3988      3987      3989      3988      3987      3990      3989      3987      3990
      3987      3990      3991      3987      3990      3992      3987      3990      3993
      3991      3990      3992      3991      3990      3993      3992      3990      3993
      3990      3993      3994      3990      3993      3995      3990      3993      3996
      3994      3993      3995      3994      3993      3996      3995      3993      3996
      3993      3996      3997      3993      3996      3998      3993      3996      3999
      3997      3996      3998      3997      3996      3999      3998      3996      3999
      3996      3999      4000      3996      3999      4001      3996      3999      4002
      4000      3999      4001      4000      3999      4002      4001      3999      4002
      3999      4002      4003      3999      4002      4004      3999      4002      4005
      4003      4002      4004      4003      4002      4005      4004      4002      4005
      4002      4005      4006      4002      4005      4007      4002      4005      4008
      4006      4005      4007      4006      4005      4008      4007      4005      4008
      4005      4008      4009      4005      4008      4010      4005      4008      4011
      4009      4008      4010      4009      4008      4011      4010      4008      4011
      4008      4011      4012      4008      4011      4013      4008      4011      4014
      4012      4011      4013      4012      4011      4014      4013      4011      4014
      4011      4014      4015      4011      4014      4016      4011      4014      4017
      4015      4014      4016      4015      4014      4017      4016      4014      4017
      4014      4017      4018      4014      4017      4019      4014      4017      4020
      4018      4017      4019      4018      4017      4020      4019      4017      4020
      4022      4021      4025      4022      4021      4029      4022      4021      4033
      4025      4021      4029      4025      4021      4033      4029      4021      4033
      4021      4022      4023      4021      4022      4024      4021      4022      4037
      4023      4022      4024      4023      4022      4037      4024      4022      4037
      4021      4025      4026      4021      4025      4027      4021      4025      4028
      4026      4025      4027      4026      4025      4028      4027      4025      4028
      4021      4029      4030      4021      4029      4031      4021      4029      4032
      4030      4029      4031      4030      4029      4032      4031      4029      4032
      4021      4033      4034      4021      4033      4035      4021      4033      4036
      4034      4033      4035      4034      4033      4036      4035      4033      4036
      4022      4037      4038      4022      4037      4039      4022      4037      4043
      4038      4037      4039      4038      4037      4043      4039      4037      4043
      4041      4040      4042      4041      4040      4043      4041      4040      4044
      4042      4040      4043      4042      4040      4044      4043      4040      4044
      4037      4043      4040      4040      4044      4045      4044      4045      4046
      4044      4045      4047      4044      4045      4048      4046      4045      4047
      4046      4045      4048      4047      4045      4048      4045      4048      4049
      4045      4048      4050      4045      4048      4056      4049      4048      4050
      4049      4048      4056      4050      4048      4056      4048      4050      4051
      4050      4051      4052      4050      4051      4053      4052      4051      4053
      4051      4053      4054      4051      4053      4055      4051      4053      4065
      4054      4053      4055      4054      4053      4065      4055      4053      4065
      4048      4056      4057      4048      4056      4058      4048      4056      4059
      4057      4056      4058      4057      4056      4059      4058      4056      4059
      4056      4059      4060      4059      4060      4061      4059      4060      4062
      4061      4060      4062      4060      4062      4063      4060      4062      4064
      4060      4062      4112      4063      4062      4064      4063      4062      4112
      4064      4062      4112      4053      4065      4066      4053      4065      4067
      4053      4065      4068      4066      4065      4067      4066      4065      4068
      4067      4065      4068      4065      4068      4069      4065      4068      4070
      4065      4068      4071      4069      4068      4070      4069      4068      4071
      4070      4068      4071      4068      4071      4072      4068      4071      4073
      4068      4071      4074      4072      4071      4073      4072      4071      4074
      4073      4071      4074      4071      4074      4075      4071      4074      4076
      4071      4074      4077      4075      4074      4076      4075      4074      4077
      4076      4074      4077      4074      4077      4078      4074      4077      4079
      4074      4077      4080      4078      4077      4079      4078      4077      4080
      4079      4077      4080      4077      4080      4081      4077      4080      4082
      4077      4080      4083      4081      4080      4082      4081      4080      4083
      4082      4080      4083      4080      4083      4084      4080      4083      4085
      4084      4083      4085      4083      4085      4086      4083      4085      4087
      4086      4085      4087      4085      4087      4088      4085      4087      4089
      4085      4087      4090      4088      4087      4089      4088      4087      4090
      4089      4087      4090      4087      4090      4091      4087      4090      4092
      4087      4090      4093      4091      4090      4092      4091      4090      4093
      4092      4090      4093      4090      4093      4094      4090      4093      4095
      4090      4093      4096      4094      4093      4095      4094      4093      4096
      4095      4093      4096      4093      4096      4097      4093      4096      4098
      4093      4096      4099      4097      4096      4098      4097      4096      4099
      4098      4096      4099      4096      4099      4100      4096      4099      4101
      4096      4099      4102      4100      4099      4101      4100      4099      4102
      4101      4099      4102      4099      4102      4103      4099      4102      4104
      4099      4102      4105      4103      4102      4104      4103      4102      4105
      4104      4102      4105      4102      4105      4106      4102      4105      4107
      4102      4105      4108      4106      4105      4107      4106      4105      4108
      4107      4105      4108      4105      4108      4109      4105      4108      4110
      4105      4108      4111      4109      4108      4110      4109      4108      4111
      4110      4108      4111      4062      4112      4113      4062      4112      4114
      4062      4112      4115      4113      4112      4114      4113      4112      4115
      4114      4112      4115      4112      4115      4116      4112      4115      4117
      4112      4115      4118      4116      4115      4117      4116      4115      4118
      4117      4115      4118      4115      4118      4119      4115      4118      4120
      4115      4118      4121      4119      4118      4120      4119      4118      4121
      4120      4118      4121      4118      4121      4122      4118      4121      4123
      4118      4121      4124      4122      4121      4123      4122      4121      4124
      4123      4121      4124      4121      4124      4125      4121      4124      4126
      4121      4124      4127      4125      4124      4126      4125      4124      4127
      4126      4124      4127      4124      4127      4128      4124      4127      4129
      4124      4127      4130      4128      4127      4129      4128      4127      4130
      4129      4127      4130      4127      4130      4131      4127      4130      4132
      4127      4130      4133      4131      4130      4132      4131      4130      4133
      4132      4130      4133      4130      4133      4134      4130      4133      4135
      4130      4133      4136      4134      4133      4135      4134      4133      4136
      4135      4133      4136      4133      4136      4137      4133      4136      4138
      4133      4136      4139      4137      4136      4138      4137      4136      4139
      4138      4136      4139      4136      4139      4140      4136      4139      4141
      4136      4139      4142      4140      4139      4141      4140      4139      4142
      4141      4139      4142      4139      4142      4143      4139      4142      4144
      4139      4142      4145      4143      4142      4144      4143      4142      4145
      4144      4142      4145      4142      4145      4146      4142      4145      4147
      4142      4145      4148      4146      4145      4147      4146      4145      4148
      4147      4145      4148      4145      4148      4149      4145      4148      4150
      4145      4148      4151      4149      4148      4150      4149      4148      4151
      4150      4148      4151      4148      4151      4152      4148      4151      4153
      4148      4151      4154      4152      4151      4153      4152      4151      4154
      4153      4151      4154      4156      4155      4159      4156      4155      4163
      4156      4155      4167      4159      4155      4163      4159      4155      4167
      4163      4155      4167      4155      4156      4157      4155      4156      4158
      4155      4156      4171      4157      4156      4158      4157      4156      4171
      4158      4156      4171      4155      4159      4160      4155      4159      4161
      4155      4159      4162      4160      4159      4161      4160      4159      4162
      4161      4159      4162      4155      4163      4164      4155      4163      4165
      4155      4163      4166      4164      4163      4165      4164      4163      4166
      4165      4163      4166      4155      4167      4168      4155      4167      4169
      4155      4167      4170      4168      4167      4169      4168      4167      4170
      4169      4167      4170      4156      4171      4172      4156      4171      4173
      4156      4171      4177      4172      4171      4173      4172      4171      4177
      4173      4171      4177      4175      4174      4176      4175      4174      4177
      4175      4174      4178      4176      4174      4177      4176      4174      4178
      4177      4174      4178      4171      4177      4174      4174      4178      4179
      4178      4179      4180      4178      4179      4181      4178      4179      4182
      4180      4179      4181      4180      4179      4182      4181      4179      4182
      4179      4182      4183      4179      4182      4184      4179      4182      4190
      4183      4182      4184      4183      4182      4190      4184      4182      4190
      4182      4184      4185      4184      4185      4186      4184      4185      4187
      4186      4185      4187      4185      4187      4188      4185      4187      4189
      4185      4187      4199      4188      4187      4189      4188      4187      4199
      4189      4187      4199      4182      4190      4191      4182      4190      4192
      4182      4190      4193      4191      4190      4192      4191      4190      4193
      4192      4190      4193      4190      4193      4194      4193      4194      4195
      4193      4194      4196      4195      4194      4196      4194      4196      4197
      4194      4196      4198      4194      4196      4246      4197      4196      4198
      4197      4196      4246      4198      4196      4246      4187      4199      4200
      4187      4199      4201      4187      4199      4202      4200      4199      4201
      4200      4199      4202      4201      4199      4202      4199      4202      4203
      4199      4202      4204      4199      4202      4205      4203      4202      4204
      4203      4202      4205      4204      4202      4205      4202      4205      4206
      4202      4205      4207      4202      4205      4208      4206      4205      4207
      4206      4205      4208      4207      4205      4208      4205      4208      4209
      4205      4208      4210      4205      4208      4211      4209      4208      4210
      4209      4208      4211      4210      4208      4211      4208      4211      4212
      4208      4211      4213      4208      4211      4214      4212      4211      4213
      4212      4211      4214      4213      4211      4214      4211      4214      4215
      4211      4214      4216      4211      4214      4217      4215      4214      4216
      4215      4214      4217      4216      4214      4217      4214      4217      4218
      4214      4217      4219      4218      4217      4219      4217      4219      4220
      4217      4219      4221      4220      4219      4221      4219      4221      4222
      4219      4221      4223      4219      4221      4224      4222      4221      4223
      4222      4221      4224      4223      4221      4224      4221      4224      4225
      4221      4224      4226      4221      4224      4227      4225      4224      4226
      4225      4224      4227      4226      4224      4227      4224      4227      4228
      4224      4227      4229      4224      4227      4230      4228      4227      4229
      4228      4227      4230      4229      4227      4230      4227      4230      4231
      4227      4230      4232      4227      4230      4233      4231      4230      4232
      4231      4230      4233      4232      4230      4233      4230      4233      4234
      4230      4233      4235      4230      4233      4236      4234      4233      4235
      4234      4233      4236      4235      4233      4236      4233      4236      4237
      4233      4236      4238      4233      4236      4239      4237      4236      4238
      4237      4236      4239      4238      4236      4239      4236      4239      4240
      4236      4239      4241      4236      4239      4242      4240      4239      4241
      4240      4239      4242      4241      4239      4242      4239      4242      4243
      4239      4242      4244      4239      4242      4245      4243      4242      4244
      4243      4242      4245      4244      4242      4245      4196      4246      4247
      4196      4246      4248      4196      4246      4249      4247      4246      4248
      4247      4246      4249      4248      4246      4249      4246      4249      4250
      4246      4249      4251      4246      4249      4252      4250      4249      4251
      4250      4249      4252      4251      4249      4252      4249      4252      4253
      4249      4252      4254      4249      4252      4255      4253      4252      4254
      4253      4252      4255      4254      4252      4255      4252      4255      4256
      4252      4255      4257      4252      4255      4258      4256      4255      4257
      4256      4255      4258      4257      4255      4258      4255      4258      4259
      4255      4258      4260      4255      4258      4261      4259      4258      4260
      4259      4258      4261      4260      4258      4261      4258      4261      4262
      4258      4261      4263      4258      4261      4264      4262      4261      4263
      4262      4261      4264      4263      4261      4264      4261      4264      4265
      4261      4264      4266      4261      4264      4267      4265      4264      4266
      4265      4264      4267      4266      4264      4267      4264      4267      4268
      4264      4267      4269      4264      4267      4270      4268      4267      4269
      4268      4267      4270      4269      4267      4270      4267      4270      4271
      4267      4270      4272      4267      4270      4273      4271      4270      4272
      4271      4270      4273      4272      4270      4273      4270      4273      4274
      4270      4273      4275      4270      4273      4276      4274      4273      4275
      4274      4273      4276      4275      4273      4276      4273      4276      4277
      4273      4276      4278      4273      4276      4279      4277      4276      4278
      4277      4276      4279      4278      4276      4279      4276      4279      4280
      4276      4279      4281      4276      4279      4282      4280      4279      4281
      4280      4279      4282      4281      4279      4282      4279      4282      4283
      4279      4282      4284      4279      4282      4285      4283      4282      4284
      4283      4282      4285      4284      4282      4285      4282      4285      4286
      4282      4285      4287      4282      4285      4288      4286      4285      4287
      4286      4285      4288      4287      4285      4288      4290      4289      4293
      4290      4289      4297      4290      4289      4301      4293      4289      4297
      4293      4289      4301      4297      4289      4301      4289      4290      4291
      4289      4290      4292      4289      4290      4305      4291      4290      4292
      4291      4290      4305      4292      4290      4305      4289      4293      4294
      4289      4293      4295      4289      4293      4296      4294      4293      4295
      4294      4293      4296      4295      4293      4296      4289      4297      4298
      4289      4297      4299      4289      4297      4300      4298      4297      4299
      4298      4297      4300      4299      4297      4300      4289      4301      4302
      4289      4301      4303      4289      4301      4304      4302      4301      4303
      4302      4301      4304      4303      4301      4304      4290      4305      4306
      4290      4305      4307      4290      4305      4311      4306      4305      4307
      4306      4305      4311      4307      4305      4311      4309      4308      4310
      4309      4308      4311      4309      4308      4312      4310      4308      4311
      4310      4308      4312      4311      4308      4312      4305      4311      4308
      4308      4312      4313      4312      4313      4314      4312      4313      4315
      4312      4313      4316      4314      4313      4315      4314      4313      4316
      4315      4313      4316      4313      4316      4317      4313      4316      4318
      4313      4316      4324      4317      4316      4318      4317      4316      4324
      4318      4316      4324      4316      4318      4319      4318      4319      4320
      4318      4319      4321      4320      4319      4321      4319      4321      4322
      4319      4321      4323      4319      4321      4333      4322      4321      4323
      4322      4321      4333      4323      4321      4333      4316      4324      4325
      4316      4324      4326      4316      4324      4327      4325      4324      4326
      4325      4324      4327      4326      4324      4327      4324      4327      4328
      4327      4328      4329      4327      4328      4330      4329      4328      4330
      4328      4330      4331      4328      4330      4332      4328      4330      4380
      4331      4330      4332      4331      4330      4380      4332      4330      4380
      4321      4333      4334      4321      4333      4335      4321      4333      4336
      4334      4333      4335      4334      4333      4336      4335      4333      4336
      4333      4336      4337      4333      4336      4338      4333      4336      4339
      4337      4336      4338      4337      4336      4339      4338      4336      4339
      4336      4339      4340      4336      4339      4341      4336      4339      4342
      4340      4339      4341      4340      4339      4342      4341      4339      4342
      4339      4342      4343      4339      4342      4344      4339      4342      4345
      4343      4342      4344      4343      4342      4345      4344      4342      4345
      4342      4345      4346      4342      4345      4347      4342      4345      4348
      4346      4345      4347      4346      4345      4348      4347      4345      4348
      4345      4348      4349      4345      4348      4350      4345      4348      4351
      4349      4348      4350      4349      4348      4351      4350      4348      4351
      4348      4351      4352      4348      4351      4353      4352      4351      4353
      4351      4353      4354      4351      4353      4355      4354      4353      4355
      4353      4355      4356      4353      4355      4357      4353      4355      4358
      4356      4355      4357      4356      4355      4358      4357      4355      4358
      4355      4358      4359      4355      4358      4360      4355      4358      4361
      4359      4358      4360      4359      4358      4361      4360      4358      4361
      4358      4361      4362      4358      4361      4363      4358      4361      4364
      4362      4361      4363      4362      4361      4364      4363      4361      4364
      4361      4364      4365      4361      4364      4366      4361      4364      4367
      4365      4364      4366      4365      4364      4367      4366      4364      4367
      4364      4367      4368      4364      4367      4369      4364      4367      4370
      4368      4367      4369      4368      4367      4370      4369      4367      4370
      4367      4370      4371      4367      4370      4372      4367      4370      4373
      4371      4370      4372      4371      4370      4373      4372      4370      4373
      4370      4373      4374      4370      4373      4375      4370      4373      4376
      4374      4373      4375      4374      4373      4376      4375      4373      4376
      4373      4376      4377      4373      4376      4378      4373      4376      4379
      4377      4376      4378      4377      4376      4379      4378      4376      4379
      4330      4380      4381      4330      4380      4382      4330      4380      4383
      4381      4380      4382      4381      4380      4383      4382      4380      4383
      4380      4383      4384      4380      4383      4385      4380      4383      4386
      4384      4383      4385      4384      4383      4386      4385      4383      4386
      4383      4386      4387      4383      4386      4388      4383      4386      4389
      4387      4386      4388      4387      4386      4389      4388      4386      4389
      4386      4389      4390      4386      4389      4391      4386      4389      4392
      4390      4389      4391      4390      4389      4392      4391      4389      4392
      4389      4392      4393      4389      4392      4394      4389      4392      4395
      4393      4392      4394      4393      4392      4395      4394      4392      4395
      4392      4395      4396      4392      4395      4397      4392      4395      4398
      4396      4395      4397      4396      4395      4398      4397      4395      4398
      4395      4398      4399      4395      4398      4400      4395      4398      4401
      4399      4398      4400      4399      4398      4401      4400      4398      4401
      4398      4401      4402      4398      4401      4403      4398      4401      4404
      4402      4401      4403      4402      4401      4404      4403      4401      4404
      4401      4404      4405      4401      4404      4406      4401      4404      4407
      4405      4404      4406      4405      4404      4407      4406      4404      4407
      4404      4407      4408      4404      4407      4409      4404      4407      4410
      4408      4407      4409      4408      4407      4410      4409      4407      4410
      4407      4410      4411      4407      4410      4412      4407      4410      4413
      4411      4410      4412      4411      4410      4413      4412      4410      4413
      4410      4413      4414      4410      4413      4415      4410      4413      4416
      4414      4413      4415      4414      4413      4416      4415      4413      4416
      4413      4416      4417      4413      4416      4418      4413      4416      4419
      4417      4416      4418      4417      4416      4419      4418      4416      4419
      4416      4419      4420      4416      4419      4421      4416      4419      4422
      4420      4419      4421      4420      4419      4422      4421      4419      4422
      4424      4423      4427      4424      4423      4431      4424      4423      4435
      4427      4423      4431      4427      4423      4435      4431      4423      4435
      4423      4424      4425      4423      4424      4426      4423      4424      4439
      4425      4424      4426      4425      4424      4439      4426      4424      4439
      4423      4427      4428      4423      4427      4429      4423      4427      4430
      4428      4427      4429      4428      4427      4430      4429      4427      4430
      4423      4431      4432      4423      4431      4433      4423      4431      4434
      4432      4431      4433      4432      4431      4434      4433      4431      4434
      4423      4435      4436      4423      4435      4437      4423      4435      4438
      4436      4435      4437      4436      4435      4438      4437      4435      4438
      4424      4439      4440      4424      4439      4441      4424      4439      4445
      4440      4439      4441      4440      4439      4445      4441      4439      4445
      4443      4442      4444      4443      4442      4445      4443      4442      4446
      4444      4442      4445      4444      4442      4446      4445      4442      4446
      4439      4445      4442      4442      4446      4447      4446      4447      4448
      4446      4447      4449      4446      4447      4450      4448      4447      4449
      4448      4447      4450      4449      4447      4450      4447      4450      4451
      4447      4450      4452      4447      4450      4458      4451      4450      4452
      4451      4450      4458      4452      4450      4458      4450      4452      4453
      4452      4453      4454      4452      4453      4455      4454      4453      4455
      4453      4455      4456      4453      4455      4457      4453      4455      4467
      4456      4455      4457      4456      4455      4467      4457      4455      4467
      4450      4458      4459      4450      4458      4460      4450      4458      4461
      4459      4458      4460      4459      4458      4461      4460      4458      4461
      4458      4461      4462      4461      4462      4463      4461      4462      4464
      4463      4462      4464      4462      4464      4465      4462      4464      4466
      4462      4464      4514      4465      4464      4466      4465      4464      4514
      4466      4464      4514      4455      4467      4468      4455      4467      4469
      4455      4467      4470      4468      4467      4469      4468      4467      4470
      4469      4467      4470      4467      4470      4471      4467      4470      4472
      4467      4470      4473      4471      4470      4472      4471      4470      4473
      4472      4470      4473      4470      4473      4474      4470      4473      4475
      4470      4473      4476      4474      4473      4475      4474      4473      4476
      4475      4473      4476      4473      4476      4477      4473      4476      4478
      4473      4476      4479      4477      4476      4478      4477      4476      4479
      4478      4476      4479      4476      4479      4480      4476      4479      4481
      4476      4479      4482      4480      4479      4481      4480      4479      4482
      4481      4479      4482      4479      4482      4483      4479      4482      4484
      4479      4482      4485      4483      4482      4484      4483      4482      4485
      4484      4482      4485      4482      4485      4486      4482      4485      4487
      4486      4485      4487      4485      4487      4488      4485      4487      4489
      4488      4487      4489      4487      4489      4490      4487      4489      4491
      4487      4489      4492      4490      4489      4491      4490      4489      4492
      4491      4489      4492      4489      4492      4493      4489      4492      4494
      4489      4492      4495      4493      4492      4494      4493      4492      4495
      4494      4492      4495      4492      4495      4496      4492      4495      4497
      4492      4495      4498      4496      4495      4497      4496      4495      4498
      4497      4495      4498      4495      4498      4499      4495      4498      4500
      4495      4498      4501      4499      4498      4500      4499      4498      4501
      4500      4498      4501      4498      4501      4502      4498      4501      4503
      4498      4501      4504      4502      4501      4503      4502      4501      4504
      4503      4501      4504      4501      4504      4505      4501      4504      4506
      4501      4504      4507      4505      4504      4506      4505      4504      4507
      4506      4504      4507      4504      4507      4508      4504      4507      4509
      4504      4507      4510      4508      4507      4509      4508      4507      4510
      4509      4507      4510      4507      4510      4511      4507      4510      4512
      4507      4510      4513      4511      4510      4512      4511      4510      4513
      4512      4510      4513      4464      4514      4515      4464      4514      4516
      4464      4514      4517      4515      4514      4516      4515      4514      4517
      4516      4514      4517      4514      4517      4518      4514      4517      4519
      4514      4517      4520      4518      4517      4519      4518      4517      4520
      4519      4517      4520      4517      4520      4521      4517      4520      4522
      4517      4520      4523      4521      4520      4522      4521      4520      4523
      4522      4520      4523      4520      4523      4524      4520      4523      4525
      4520      4523      4526      4524      4523      4525      4524      4523      4526
      4525      4523      4526      4523      4526      4527      4523      4526      4528
      4523      4526      4529      4527      4526      4528      4527      4526      4529
      4528      4526      4529      4526      4529      4530      4526      4529      4531
      4526      4529      4532      4530      4529      4531      4530      4529      4532
      4531      4529      4532      4529      4532      4533      4529      4532      4534
      4529      4532      4535      4533      4532      4534      4533      4532      4535
      4534      4532      4535      4532      4535      4536      4532      4535      4537
      4532      4535      4538      4536      4535      4537      4536      4535      4538
      4537      4535      4538      4535      4538      4539      4535      4538      4540
      4535      4538      4541      4539      4538      4540      4539      4538      4541
      4540      4538      4541      4538      4541      4542      4538      4541      4543
      4538      4541      4544      4542      4541      4543      4542      4541      4544
      4543      4541      4544      4541      4544      4545      4541      4544      4546
      4541      4544      4547      4545      4544      4546      4545      4544      4547
      4546      4544      4547      4544      4547      4548      4544      4547      4549
      4544      4547      4550      4548      4547      4549      4548      4547      4550
      4549      4547      4550      4547      4550      4551      4547      4550      4552
      4547      4550      4553      4551      4550      4552      4551      4550      4553
      4552      4550      4553      4550      4553      4554      4550      4553      4555
      4550      4553      4556      4554      4553      4555      4554      4553      4556
      4555      4553      4556      4558      4557      4561      4558      4557      4565
      4558      4557      4569      4561      4557      4565      4561      4557      4569
      4565      4557      4569      4557      4558      4559      4557      4558      4560
      4557      4558      4573      4559      4558      4560      4559      4558      4573
      4560      4558      4573      4557      4561      4562      4557      4561      4563
      4557      4561      4564      4562      4561      4563      4562      4561      4564
      4563      4561      4564      4557      4565      4566      4557      4565      4567
      4557      4565      4568      4566      4565      4567      4566      4565      4568
      4567      4565      4568      4557      4569      4570      4557      4569      4571
      4557      4569      4572      4570      4569      4571      4570      4569      4572
      4571      4569      4572      4558      4573      4574      4558      4573      4575
      4558      4573      4579      4574      4573      4575      4574      4573      4579
      4575      4573      4579      4577      4576      4578      4577      4576      4579
      4577      4576      4580      4578      4576      4579      4578      4576      4580
      4579      4576      4580      4573      4579      4576      4576      4580      4581
      4580      4581      4582      4580      4581      4583      4580      4581      4584
      4582      4581      4583      4582      4581      4584      4583      4581      4584
      4581      4584      4585      4581      4584      4586      4581      4584      4592
      4585      4584      4586      4585      4584      4592      4586      4584      4592
      4584      4586      4587      4586      4587      4588      4586      4587      4589
      4588      4587      4589      4587      4589      4590      4587      4589      4591
      4587      4589      4601      4590      4589      4591      4590      4589      4601
      4591      4589      4601      4584      4592      4593      4584      4592      4594
      4584      4592      4595      4593      4592      4594      4593      4592      4595
      4594      4592      4595      4592      4595      4596      4595      4596      4597
      4595      4596      4598      4597      4596      4598      4596      4598      4599
      4596      4598      4600      4596      4598      4648      4599      4598      4600
      4599      4598      4648      4600      4598      4648      4589      4601      4602
      4589      4601      4603      4589      4601      4604      4602      4601      4603
      4602      4601      4604      4603      4601      4604      4601      4604      4605
      4601      4604      4606      4601      4604      4607      4605      4604      4606
      4605      4604      4607      4606      4604      4607      4604      4607      4608
      4604      4607      4609      4604      4607      4610      4608      4607      4609
      4608      4607      4610      4609      4607      4610      4607      4610      4611
      4607      4610      4612      4607      4610      4613      4611      4610      4612
      4611      4610      4613      4612      4610      4613      4610      4613      4614
      4610      4613      4615      4610      4613      4616      4614      4613      4615
      4614      4613      4616      4615      4613      4616      4613      4616      4617
      4613      4616      4618      4613      4616      4619      4617      4616      4618
      4617      4616      4619      4618      4616      4619      4616      4619      4620
      4616      4619      4621      4620      4619      4621      4619      4621      4622
      4619      4621      4623      4622      4621      4623      4621      4623      4624
      4621      4623      4625      4621      4623      4626      4624      4623      4625
      4624      4623      4626      4625      4623      4626      4623      4626      4627
      4623      4626      4628      4623      4626      4629      4627      4626      4628
      4627      4626      4629      4628      4626      4629      4626      4629      4630
      4626      4629      4631      4626      4629      4632      4630      4629      4631
      4630      4629      4632      4631      4629      4632      4629      4632      4633
      4629      4632      4634      4629      4632      4635      4633      4632      4634
      4633      4632      4635      4634      4632      4635      4632      4635      4636
      4632      4635      4637      4632      4635      4638      4636      4635      4637
      4636      4635      4638      4637      4635      4638      4635      4638      4639
      4635      4638      4640      4635      4638      4641      4639      4638      4640
      4639      4638      4641      4640      4638      4641      4638      4641      4642
      4638      4641      4643      4638      4641      4644      4642      4641      4643
      4642      4641      4644      4643      4641      4644      4641      4644      4645
      4641      4644      4646      4641      4644      4647      4645      4644      4646
      4645      4644      4647      4646      4644      4647      4598      4648      4649
      4598      4648      4650      4598      4648      4651      4649      4648      4650
      4649      4648      4651      4650      4648      4651      4648      4651      4652
      4648      4651      4653      4648      4651      4654      4652      4651      4653
      4652      4651      4654      4653      4651      4654      4651      4654      4655
      4651      4654      4656      4651      4654      4657      4655      4654      4656
      4655      4654      4657      4656      4654      4657      4654      4657      4658
      4654      4657      4659      4654      4657      4660      4658      4657      4659
      4658      4657      4660      4659      4657      4660      4657      4660      4661
      4657      4660      4662      4657      4660      4663      4661      4660      4662
      4661      4660      4663      4662      4660      4663      4660      4663      4664
      4660      4663      4665      4660      4663      4666      4664      4663      4665
      4664      4663      4666      4665      4663      4666      4663      4666      4667
      4663      4666      4668      4663      4666      4669      4667      4666      4668
      4667      4666      4669      4668      4666      4669      4666      4669      4670
      4666      4669      4671      4666      4669      4672      4670      4669      4671
      4670      4669      4672      4671      4669      4672      4669      4672      4673
      4669      4672      4674      4669      4672      4675      4673      4672      4674
      4673      4672      4675      4674      4672      4675      4672      4675      4676
      4672      4675      4677      4672      4675      4678      4676      4675      4677
      4676      4675      4678      4677      4675      4678      4675      4678      4679
      4675      4678      4680      4675      4678      4681      4679      4678      4680
      4679      4678      4681      4680      4678      4681      4678      4681      4682
      4678      4681      4683      4678      4681      4684      4682      4681      4683
      4682      4681      4684      4683      4681      4684      4681      4684      4685
      4681      4684      4686      4681      4684      4687      4685      4684      4686
      4685      4684      4687      4686      4684      4687      4684      4687      4688
      4684      4687      4689      4684      4687      4690      4688      4687      4689
      4688      4687      4690      4689      4687      4690      4692      4691      4695
      4692      4691      4699      4692      4691      4703      4695      4691      4699
      4695      4691      4703      4699      4691      4703      4691      4692      4693
      4691      4692      4694      4691      4692      4707      4693      4692      4694
      4693      4692      4707      4694      4692      4707      4691      4695      4696
      4691      4695      4697      4691      4695      4698      4696      4695      4697
      4696      4695      4698      4697      4695      4698      4691      4699      4700
      4691      4699      4701      4691      4699      4702      4700      4699      4701
      4700      4699      4702      4701      4699      4702      4691      4703      4704
      4691      4703      4705      4691      4703      4706      4704      4703      4705
      4704      4703      4706      4705      4703      4706      4692      4707      4708
      4692      4707      4709      4692      4707      4713      4708      4707      4709
      4708      4707      4713      4709      4707      4713      4711      4710      4712
      4711      4710      4713      4711      4710      4714      4712      4710      4713
      4712      4710      4714      4713      4710      4714      4707      4713      4710
      4710      4714      4715      4714      4715      4716      4714      4715      4717
      4714      4715      4718      4716      4715      4717      4716      4715      4718
      4717      4715      4718      4715      4718      4719      4715      4718      4720
      4715      4718      4726      4719      4718      4720      4719      4718      4726
      4720      4718      4726      4718      4720      4721      4720      4721      4722
      4720      4721      4723      4722      4721      4723      4721      4723      4724
      4721      4723      4725      4721      4723      4735      4724      4723      4725
      4724      4723      4735      4725      4723      4735      4718      4726      4727
      4718      4726      4728      4718      4726      4729      4727      4726      4728
      4727      4726      4729      4728      4726      4729      4726      4729      4730
      4729      4730      4731      4729      4730      4732      4731      4730      4732
      4730      4732      4733      4730      4732      4734      4730      4732      4782
      4733      4732      4734      4733      4732      4782      4734      4732      4782
      4723      4735      4736      4723      4735      4737      4723      4735      4738
      4736      4735      4737      4736      4735      4738      4737      4735      4738
      4735      4738      4739      4735      4738      4740      4735      4738      4741
      4739      4738      4740      4739      4738      4741      4740      4738      4741
      4738      4741      4742      4738      4741      4743      4738      4741      4744
      4742      4741      4743      4742      4741      4744      4743      4741      4744
      4741      4744      4745      4741      4744      4746      4741      4744      4747
      4745      4744      4746      4745      4744      4747      4746      4744      4747
      4744      4747      4748      4744      4747      4749      4744      4747      4750
      4748      4747      4749      4748      4747      4750      4749      4747      4750
      4747      4750      4751      4747      4750      4752      4747      4750      4753
      4751      4750      4752      4751      4750      4753      4752      4750      4753
      4750      4753      4754      4750      4753      4755      4754      4753      4755
      4753      4755      4756      4753      4755      4757      4756      4755      4757
      4755      4757      4758      4755      4757      4759      4755      4757      4760
      4758      4757      4759      4758      4757      4760      4759      4757      4760
      4757      4760      4761      4757      4760      4762      4757      4760      4763
      4761      4760      4762      4761      4760      4763      4762      4760      4763
      4760      4763      4764      4760      4763      4765      4760      4763      4766
      4764      4763      4765      4764      4763      4766      4765      4763      4766
      4763      4766      4767      4763      4766      4768      4763      4766      4769
      4767      4766      4768      4767      4766      4769      4768      4766      4769
      4766      4769      4770      4766      4769      4771      4766      4769      4772
      4770      4769      4771      4770      4769      4772      4771      4769      4772
      4769      4772      4773      4769      4772      4774      4769      4772      4775
      4773      4772      4774      4773      4772      4775      4774      4772      4775
      4772      4775      4776      4772      4775      4777      4772      4775      4778
      4776      4775      4777      4776      4775      4778      4777      4775      4778
      4775      4778      4779      4775      4778      4780      4775      4778      4781
      4779      4778      4780      4779      4778      4781      4780      4778      4781
      4732      4782      4783      4732      4782      4784      4732      4782      4785
      4783      4782      4784      4783      4782      4785      4784      4782      4785
      4782      4785      4786      4782      4785      4787      4782      4785      4788
      4786      4785      4787      4786      4785      4788      4787      4785      4788
      4785      4788      4789      4785      4788      4790      4785      4788      4791
      4789      4788      4790      4789      4788      4791      4790      4788      4791
      4788      4791      4792      4788      4791      4793      4788      4791      4794
      4792      4791      4793      4792      4791      4794      4793      4791      4794
      4791      4794      4795      4791      4794      4796      4791      4794      4797
      4795      4794      4796      4795      4794      4797      4796      4794      4797
      4794      4797      4798      4794      4797      4799      4794      4797      4800
      4798      4797      4799      4798      4797      4800      4799      4797      4800
      4797      4800      4801      4797      4800      4802      4797      4800      4803
      4801      4800      4802      4801      4800      4803      4802      4800      4803
      4800      4803      4804      4800      4803      4805      4800      4803      4806
      4804      4803      4805      4804      4803      4806      4805      4803      4806
      4803      4806      4807      4803      4806      4808      4803      4806      4809
      4807      4806      4808      4807      4806      4809      4808      4806      4809
      4806      4809      4810      4806      4809      4811      4806      4809      4812
      4810      4809      4811      4810      4809      4812      4811      4809      4812
      4809      4812      4813      4809      4812      4814      4809      4812      4815
      4813      4812      4814      4813      4812      4815      4814      4812      4815
      4812      4815      4816      4812      4815      4817      4812      4815      4818
      4816      4815      4817      4816      4815      4818      4817      4815      4818
      4815      4818      4819      4815      4818      4820      4815      4818      4821
      4819      4818      4820      4819      4818      4821      4820      4818      4821
      4818      4821      4822      4818      4821      4823      4818      4821      4824
      4822      4821      4823      4822      4821      4824      4823      4821      4824
      4826      4825      4829      4826      4825      4833      4826      4825      4837
      4829      4825      4833      4829      4825      4837      4833      4825      4837
      4825      4826      4827      4825      4826      4828      4825      4826      4841
      4827      4826      4828      4827      4826      4841      4828      4826      4841
      4825      4829      4830      4825      4829      4831      4825      4829      4832
      4830      4829      4831      4830      4829      4832      4831      4829      4832
      4825      4833      4834      4825      4833      4835      4825      4833      4836
      4834      4833      4835      4834      4833      4836      4835      4833      4836
      4825      4837      4838      4825      4837      4839      4825      4837      4840
      4838      4837      4839      4838      4837      4840      4839      4837      4840
      4826      4841      4842      4826      4841      4843      4826      4841      4847
      4842      4841      4843      4842      4841      4847      4843      4841      4847
      4845      4844      4846      4845      4844      4847      4845      4844      4848
      4846      4844      4847      4846      4844      4848      4847      4844      4848
      4841      4847      4844      4844      4848      4849      4848      4849      4850
      4848      4849      4851      4848      4849      4852      4850      4849      4851
      4850      4849      4852      4851      4849      4852      4849      4852      4853
      4849      4852      4854      4849      4852      4860      4853      4852      4854
      4853      4852      4860      4854      4852      4860      4852      4854      4855
      4854      4855      4856      4854      4855      4857      4856      4855      4857
      4855      4857      4858      4855      4857      4859      4855      4857      4869
      4858      4857      4859      4858      4857      4869      4859      4857      4869
      4852      4860      4861      4852      4860      4862      4852      4860      4863
      4861      4860      4862      4861      4860      4863      4862      4860      4863
      4860      4863      4864      4863      4864      4865      4863      4864      4866
      4865      4864      4866      4864      4866      4867      4864      4866      4868
      4864      4866      4916      4867      4866      4868      4867      4866      4916
      4868      4866      4916      4857      4869      4870      4857      4869      4871
      4857      4869      4872      4870      4869      4871      4870      4869      4872
      4871      4869      4872      4869      4872      4873      4869      4872      4874
      4869      4872      4875      4873      4872      4874      4873      4872      4875
      4874      4872      4875      4872      4875      4876      4872      4875      4877
      4872      4875      4878      4876      4875      4877      4876      4875      4878
      4877      4875      4878      4875      4878      4879      4875      4878      4880
      4875      4878      4881      4879      4878      4880      4879      4878      4881
      4880      4878      4881      4878      4881      4882      4878      4881      4883
      4878      4881      4884      4882      4881      4883      4882      4881      4884
      4883      4881      4884      4881      4884      4885      4881      4884      4886
      4881      4884      4887      4885      4884      4886      4885      4884      4887
      4886      4884      4887      4884      4887      4888      4884      4887      4889
      4888      4887      4889      4887      4889      4890      4887      4889      4891
      4890      4889      4891      4889      4891      4892      4889      4891      4893
      4889      4891      4894      4892      4891      4893      4892      4891      4894
      4893      4891      4894      4891      4894      4895      4891      4894      4896
      4891      4894      4897      4895      4894      4896      4895      4894      4897
      4896      4894      4897      4894      4897      4898      4894      4897      4899
      4894      4897      4900      4898      4897      4899      4898      4897      4900
      4899      4897      4900      4897      4900      4901      4897      4900      4902
      4897      4900      4903      4901      4900      4902      4901      4900      4903
      4902      4900      4903      4900      4903      4904      4900      4903      4905
      4900      4903      4906      4904      4903      4905      4904      4903      4906
      4905      4903      4906      4903      4906      4907      4903      4906      4908
      4903      4906      4909      4907      4906      4908      4907      4906      4909
      4908      4906      4909      4906      4909      4910      4906      4909      4911
      4906      4909      4912      4910      4909      4911      4910      4909      4912
      4911      4909      4912      4909      4912      4913      4909      4912      4914
      4909      4912      4915      4913      4912      4914      4913      4912      4915
      4914      4912      4915      4866      4916      4917      4866      4916      4918
      4866      4916      4919      4917      4916      4918      4917      4916      4919
      4918      4916      4919      4916      4919      4920      4916      4919      4921
      4916      4919      4922      4920      4919      4921      4920      4919      4922
      4921      4919      4922      4919      4922      4923      4919      4922      4924
      4919      4922      4925      4923      4922      4924      4923      4922      4925
      4924      4922      4925      4922      4925      4926      4922      4925      4927
      4922      4925      4928      4926      4925      4927      4926      4925      4928
      4927      4925      4928      4925      4928      4929      4925      4928      4930
      4925      4928      4931      4929      4928      4930      4929      4928      4931
      4930      4928      4931      4928      4931      4932      4928      4931      4933
      4928      4931      4934      4932      4931      4933      4932      4931      4934
      4933      4931      4934      4931      4934      4935      4931      4934      4936
      4931      4934      4937      4935      4934      4936      4935      4934      4937
      4936      4934      4937      4934      4937      4938      4934      4937      4939
      4934      4937      4940      4938      4937      4939      4938      4937      4940
      4939      4937      4940      4937      4940      4941      4937      4940      4942
      4937      4940      4943      4941      4940      4942      4941      4940      4943
      4942      4940      4943      4940      4943      4944      4940      4943      4945
      4940      4943      4946      4944      4943      4945      4944      4943      4946
      4945      4943      4946      4943      4946      4947      4943      4946      4948
      4943      4946      4949      4947      4946      4948      4947      4946      4949
      4948      4946      4949      4946      4949      4950      4946      4949      4951
      4946      4949      4952      4950      4949      4951      4950      4949      4952
      4951      4949      4952      4949      4952      4953      4949      4952      4954
      4949      4952      4955      4953      4952      4954      4953      4952      4955
      4954      4952      4955      4952      4955      4956      4952      4955      4957
      4952      4955      4958      4956      4955      4957      4956      4955      4958
      4957      4955      4958      4960      4959      4963      4960      4959      4967
      4960      4959      4971      4963      4959      4967      4963      4959      4971
      4967      4959      4971      4959      4960      4961      4959      4960      4962
      4959      4960      4975      4961      4960      4962      4961      4960      4975
      4962      4960      4975      4959      4963      4964      4959      4963      4965
      4959      4963      4966      4964      4963      4965      4964      4963      4966
      4965      4963      4966      4959      4967      4968      4959      4967      4969
      4959      4967      4970      4968      4967      4969      4968      4967      4970
      4969      4967      4970      4959      4971      4972      4959      4971      4973
      4959      4971      4974      4972      4971      4973      4972      4971      4974
      4973      4971      4974      4960      4975      4976      4960      4975      4977
      4960      4975      4981      4976      4975      4977      4976      4975      4981
      4977      4975      4981      4979      4978      4980      4979      4978      4981
      4979      4978      4982      4980      4978      4981      4980      4978      4982
      4981      4978      4982      4975      4981      4978      4978      4982      4983
      4982      4983      4984      4982      4983      4985      4982      4983      4986
      4984      4983      4985      4984      4983      4986      4985      4983      4986
      4983      4986      4987      4983      4986      4988      4983      4986      4994
      4987      4986      4988      4987      4986      4994      4988      4986      4994
      4986      4988      4989      4988      4989      4990      4988      4989      4991
      4990      4989      4991      4989      4991      4992      4989      4991      4993
      4989      4991      5003      4992      4991      4993      4992      4991      5003
      4993      4991      5003      4986      4994      4995      4986      4994      4996
      4986      4994      4997      4995      4994      4996      4995      4994      4997
      4996      4994      4997      4994      4997      4998      4997      4998      4999
      4997      4998      5000      4999      4998      5000      4998      5000      5001
      4998      5000      5002      4998      5000      5050      5001      5000      5002
      5001      5000      5050      5002      5000      5050      4991      5003      5004
      4991      5003      5005      4991      5003      5006      5004      5003      5005
      5004      5003      5006      5005      5003      5006      5003      5006      5007
      5003      5006      5008      5003      5006      5009      5007      5006      5008
      5007      5006      5009      5008      5006      5009      5006      5009      5010
      5006      5009      5011      5006      5009      5012      5010      5009      5011
      5010      5009      5012      5011      5009      5012      5009      5012      5013
      5009      5012      5014      5009      5012      5015      5013      5012      5014
      5013      5012      5015      5014      5012      5015      5012      5015      5016
      5012      5015      5017      5012      5015      5018      5016      5015      5017
      5016      5015      5018      5017      5015      5018      5015      5018      5019
      5015      5018      5020      5015      5018      5021      5019      5018      5020
      5019      5018      5021      5020      5018      5021      5018      5021      5022
      5018      5021      5023      5022      5021      5023      5021      5023      5024
      5021      5023      5025      5024      5023      5025      5023      5025      5026
      5023      5025      5027      5023      5025      5028      5026      5025      5027
      5026      5025      5028      5027      5025      5028      5025      5028      5029
      5025      5028      5030      5025      5028      5031      5029      5028      5030
      5029      5028      5031      5030      5028      5031      5028      5031      5032
      5028      5031      5033      5028      5031      5034      5032      5031      5033
      5032      5031      5034      5033      5031      5034      5031      5034      5035
      5031      5034      5036      5031      5034      5037      5035      5034      5036
      5035      5034      5037      5036      5034      5037      5034      5037      5038
      5034      5037      5039      5034      5037      5040      5038      5037      5039
      5038      5037      5040      5039      5037      5040      5037      5040      5041
      5037      5040      5042      5037      5040      5043      5041      5040      5042
      5041      5040      5043      5042      5040      5043      5040      5043      5044
      5040      5043      5045      5040      5043      5046      5044      5043      5045
      5044      5043      5046      5045      5043      5046      5043      5046      5047
      5043      5046      5048      5043      5046      5049      5047      5046      5048
      5047      5046      5049      5048      5046      5049      5000      5050      5051
      5000      5050      5052      5000      5050      5053      5051      5050      5052
      5051      5050      5053      5052      5050      5053      5050      5053      5054
      5050      5053      5055      5050      5053      5056      5054      5053      5055
      5054      5053      5056      5055      5053      5056      5053      5056      5057
      5053      5056      5058      5053      5056      5059      5057      5056      5058
      5057      5056      5059      5058      5056      5059      5056      5059      5060
      5056      5059      5061      5056      5059      5062      5060      5059      5061
      5060      5059      5062      5061      5059      5062      5059      5062      5063
      5059      5062      5064      5059      5062      5065      5063      5062      5064
      5063      5062      5065      5064      5062      5065      5062      5065      5066
      5062      5065      5067      5062      5065      5068      5066      5065      5067
      5066      5065      5068      5067      5065      5068      5065      5068      5069
      5065      5068      5070      5065      5068      5071      5069      5068      5070
      5069      5068      5071      5070      5068      5071      5068      5071      5072
      5068      5071      5073      5068      5071      5074      5072      5071      5073
      5072      5071      5074      5073      5071      5074      5071      5074      5075
      5071      5074      5076      5071      5074      5077      5075      5074      5076
      5075      5074      5077      5076      5074      5077      5074      5077      5078
      5074      5077      5079      5074      5077      5080      5078      5077      5079
      5078      5077      5080      5079      5077      5080      5077      5080      5081
      5077      5080      5082      5077      5080      5083      5081      5080      5082
      5081      5080      5083      5082      5080      5083      5080      5083      5084
      5080      5083      5085      5080      5083      5086      5084      5083      5085
      5084      5083      5086      5085      5083      5086      5083      5086      5087
      5083      5086      5088      5083      5086      5089      5087      5086      5088
      5087      5086      5089      5088      5086      5089      5086      5089      5090
      5086      5089      5091      5086      5089      5092      5090      5089      5091
      5090      5089      5092      5091      5089      5092      5094      5093      5097
      5094      5093      5101      5094      5093      5105      5097      5093      5101
      5097      5093      5105      5101      5093      5105      5093      5094      5095
      5093      5094      5096      5093      5094      5109      5095      5094      5096
      5095      5094      5109      5096      5094      5109      5093      5097      5098
      5093      5097      5099      5093      5097      5100      5098      5097      5099
      5098      5097      5100      5099      5097      5100      5093      5101      5102
      5093      5101      5103      5093      5101      5104      5102      5101      5103
      5102      5101      5104      5103      5101      5104      5093      5105      5106
      5093      5105      5107      5093      5105      5108      5106      5105      5107
      5106      5105      5108      5107      5105      5108      5094      5109      5110
      5094      5109      5111      5094      5109      5115      5110      5109      5111
      5110      5109      5115      5111      5109      5115      5113      5112      5114
      5113      5112      5115      5113      5112      5116      5114      5112      5115
      5114      5112      5116      5115      5112      5116      5109      5115      5112
      5112      5116      5117      5116      5117      5118      5116      5117      5119
      5116      5117      5120      5118      5117      5119      5118      5117      5120
      5119      5117      5120      5117      5120      5121      5117      5120      5122
      5117      5120      5128      5121      5120      5122      5121      5120      5128
      5122      5120      5128      5120      5122      5123      5122      5123      5124
      5122      5123      5125      5124      5123      5125      5123      5125      5126
      5123      5125      5127      5123      5125      5137      5126      5125      5127
      5126      5125      5137      5127      5125      5137      5120      5128      5129
      5120      5128      5130      5120      5128      5131      5129      5128      5130
      5129      5128      5131      5130      5128      5131      5128      5131      5132
      5131      5132      5133      5131      5132      5134      5133      5132      5134
      5132      5134      5135      5132      5134      5136      5132      5134      5184
      5135      5134      5136      5135      5134      5184      5136      5134      5184
      5125      5137      5138      5125      5137      5139      5125      5137      5140
      5138      5137      5139      5138      5137      5140      5139      5137      5140
      5137      5140      5141      5137      5140      5142      5137      5140      5143
      5141      5140      5142      5141      5140      5143      5142      5140      5143
      5140      5143      5144      5140      5143      5145      5140      5143      5146
      5144      5143      5145      5144      5143      5146      5145      5143      5146
      5143      5146      5147      5143      5146      5148      5143      5146      5149
      5147      5146      5148      5147      5146      5149      5148      5146      5149
      5146      5149      5150      5146      5149      5151      5146      5149      5152
      5150      5149      5151      5150      5149      5152      5151      5149      5152
      5149      5152      5153      5149      5152      5154      5149      5152      5155
      5153      5152      5154      5153      5152      5155      5154      5152      5155
      5152      5155      5156      5152      5155      5157      5156      5155      5157
      5155      5157      5158      5155      5157      5159      5158      5157      5159
      5157      5159      5160      5157      5159      5161      5157      5159      5162
      5160      5159      5161      5160      5159      5162      5161      5159      5162
      5159      5162      5163      5159      5162      5164      5159      5162      5165
      5163      5162      5164      5163      5162      5165      5164      5162      5165
      5162      5165      5166      5162      5165      5167      5162      5165      5168
      5166      5165      5167      5166      5165      5168      5167      5165      5168
      5165      5168      5169      5165      5168      5170      5165      5168      5171
      5169      5168      5170      5169      5168      5171      5170      5168      5171
      5168      5171      5172      5168      5171      5173      5168      5171      5174
      5172      5171      5173      5172      5171      5174      5173      5171      5174
      5171      5174      5175      5171      5174      5176      5171      5174      5177
      5175      5174      5176      5175      5174      5177      5176      5174      5177
      5174      5177      5178      5174      5177      5179      5174      5177      5180
      5178      5177      5179      5178      5177      5180      5179      5177      5180
      5177      5180      5181      5177      5180      5182      5177      5180      5183
      5181      5180      5182      5181      5180      5183      5182      5180      5183
      5134      5184      5185      5134      5184      5186      5134      5184      5187
      5185      5184      5186      5185      5184      5187      5186      5184      5187
      5184      5187      5188      5184      5187      5189      5184      5187      5190
      5188      5187      5189      5188      5187      5190      5189      5187      5190
      5187      5190      5191      5187      5190      5192      5187      5190      5193
      5191      5190      5192      5191      5190      5193      5192      5190      5193
      5190      5193      5194      5190      5193      5195      5190      5193      5196
      5194      5193      5195      5194      5193      5196      5195      5193      5196
      5193      5196      5197      5193      5196      5198      5193      5196      5199
      5197      5196      5198      5197      5196      5199      5198      5196      5199
      5196      5199      5200      5196      5199      5201      5196      5199      5202
      5200      5199      5201      5200      5199      5202      5201      5199      5202
      5199      5202      5203      5199      5202      5204      5199      5202      5205
      5203      5202      5204      5203      5202      5205      5204      5202      5205
      5202      5205      5206      5202      5205      5207      5202      5205      5208
      5206      5205      5207      5206      5205      5208      5207      5205      5208
      5205      5208      5209      5205      5208      5210      5205      5208      5211
      5209      5208      5210      5209      5208      5211      5210      5208      5211
      5208      5211      5212      5208      5211      5213      5208      5211      5214
      5212      5211      5213      5212      5211      5214      5213      5211      5214
      5211      5214      5215      5211      5214      5216      5211      5214      5217
      5215      5214      5216      5215      5214      5217      5216      5214      5217
      5214      5217      5218      5214      5217      5219      5214      5217      5220
      5218      5217      5219      5218      5217      5220      5219      5217      5220
      5217      5220      5221      5217      5220      5222      5217      5220      5223
      5221      5220      5222      5221      5220      5223      5222      5220      5223
      5220      5223      5224      5220      5223      5225      5220      5223      5226
      5224      5223      5225      5224      5223      5226      5225      5223      5226
      5228      5227      5231      5228      5227      5235      5228      5227      5239
      5231      5227      5235      5231      5227      5239      5235      5227      5239
      5227      5228      5229      5227      5228      5230      5227      5228      5243
      5229      5228      5230      5229      5228      5243      5230      5228      5243
      5227      5231      5232      5227      5231      5233      5227      5231      5234
      5232      5231      5233      5232      5231      5234      5233      5231      5234
      5227      5235      5236      5227      5235      5237      5227      5235      5238
      5236      5235      5237      5236      5235      5238      5237      5235      5238
      5227      5239      5240      5227      5239      5241      5227      5239      5242
      5240      5239      5241      5240      5239      5242      5241      5239      5242
      5228      5243      5244      5228      5243      5245      5228      5243      5249
      5244      5243      5245      5244      5243      5249      5245      5243      5249
      5247      5246      5248      5247      5246      5249      5247      5246      5250
      5248      5246      5249      5248      5246      5250      5249      5246      5250
      5243      5249      5246      5246      5250      5251      5250      5251      5252
      5250      5251      5253      5250      5251      5254      5252      5251      5253
      5252      5251      5254      5253      5251      5254      5251      5254      5255
      5251      5254      5256      5251      5254      5262      5255      5254      5256
      5255      5254      5262      5256      5254      5262      5254      5256      5257
      5256      5257      5258      5256      5257      5259      5258      5257      5259
      5257      5259      5260      5257      5259      5261      5257      5259      5271
      5260      5259      5261      5260      5259      5271      5261      5259      5271
      5254      5262      5263      5254      5262      5264      5254      5262      5265
      5263      5262      5264      5263      5262      5265      5264      5262      5265
      5262      5265      5266      5265      5266      5267      5265      5266      5268
      5267      5266      5268      5266      5268      5269      5266      5268      5270
      5266      5268      5318      5269      5268      5270      5269      5268      5318
      5270      5268      5318      5259      5271      5272      5259      5271      5273
      5259      5271      5274      5272      5271      5273      5272      5271      5274
      5273      5271      5274      5271      5274      5275      5271      5274      5276
      5271      5274      5277      5275      5274      5276      5275      5274      5277
      5276      5274      5277      5274      5277      5278      5274      5277      5279
      5274      5277      5280      5278      5277      5279      5278      5277      5280
      5279      5277      5280      5277      5280      5281      5277      5280      5282
      5277      5280      5283      5281      5280      5282      5281      5280      5283
      5282      5280      5283      5280      5283      5284      5280      5283      5285
      5280      5283      5286      5284      5283      5285      5284      5283      5286
      5285      5283      5286      5283      5286      5287      5283      5286      5288
      5283      5286      5289      5287      5286      5288      5287      5286      5289
      5288      5286      5289      5286      5289      5290      5286      5289      5291
      5290      5289      5291      5289      5291      5292      5289      5291      5293
      5292      5291      5293      5291      5293      5294      5291      5293      5295
      5291      5293      5296      5294      5293      5295      5294      5293      5296
      5295      5293      5296      5293      5296      5297      5293      5296      5298
      5293      5296      5299      5297      5296      5298      5297      5296      5299
      5298      5296      5299      5296      5299      5300      5296      5299      5301
      5296      5299      5302      5300      5299      5301      5300      5299      5302
      5301      5299      5302      5299      5302      5303      5299      5302      5304
      5299      5302      5305      5303      5302      5304      5303      5302      5305
      5304      5302      5305      5302      5305      5306      5302      5305      5307
      5302      5305      5308      5306      5305      5307      5306      5305      5308
      5307      5305      5308      5305      5308      5309      5305      5308      5310
      5305      5308      5311      5309      5308      5310      5309      5308      5311
      5310      5308      5311      5308      5311      5312      5308      5311      5313
      5308      5311      5314      5312      5311      5313      5312      5311      5314
      5313      5311      5314      5311      5314      5315      5311      5314      5316
      5311      5314      5317      5315      5314      5316      5315      5314      5317
      5316      5314      5317      5268      5318      5319      5268      5318      5320
      5268      5318      5321      5319      5318      5320      5319      5318      5321
      5320      5318      5321      5318      5321      5322      5318      5321      5323
      5318      5321      5324      5322      5321      5323      5322      5321      5324
      5323      5321      5324      5321      5324      5325      5321      5324      5326
      5321      5324      5327      5325      5324      5326      5325      5324      5327
      5326      5324      5327      5324      5327      5328      5324      5327      5329
      5324      5327      5330      5328      5327      5329      5328      5327      5330
      5329      5327      5330      5327      5330      5331      5327      5330      5332
      5327      5330      5333      5331      5330      5332      5331      5330      5333
      5332      5330      5333      5330      5333      5334      5330      5333      5335
      5330      5333      5336      5334      5333      5335      5334      5333      5336
      5335      5333      5336      5333      5336      5337      5333      5336      5338
      5333      5336      5339      5337      5336      5338      5337      5336      5339
      5338      5336      5339      5336      5339      5340      5336      5339      5341
      5336      5339      5342      5340      5339      5341      5340      5339      5342
      5341      5339      5342      5339      5342      5343      5339      5342      5344
      5339      5342      5345      5343      5342      5344      5343      5342      5345
      5344      5342      5345      5342      5345      5346      5342      5345      5347
      5342      5345      5348      5346      5345      5347      5346      5345      5348
      5347      5345      5348      5345      5348      5349      5345      5348      5350
      5345      5348      5351      5349      5348      5350      5349      5348      5351
      5350      5348      5351      5348      5351      5352      5348      5351      5353
      5348      5351      5354      5352      5351      5353      5352      5351      5354
      5353      5351      5354      5351      5354      5355      5351      5354      5356
      5351      5354      5357      5355      5354      5356      5355      5354      5357
      5356      5354      5357      5354      5357      5358      5354      5357      5359
      5354      5357      5360      5358      5357      5359      5358      5357      5360
      5359      5357      5360      5362      5361      5365      5362      5361      5369
      5362      5361      5373      5365      5361      5369      5365      5361      5373
      5369      5361      5373      5361      5362      5363      5361      5362      5364
      5361      5362      5377      5363      5362      5364      5363      5362      5377
      5364      5362      5377      5361      5365      5366      5361      5365      5367
      5361      5365      5368      5366      5365      5367      5366      5365      5368
      5367      5365      5368      5361      5369      5370      5361      5369      5371
      5361      5369      5372      5370      5369      5371      5370      5369      5372
      5371      5369      5372      5361      5373      5374      5361      5373      5375
      5361      5373      5376      5374      5373      5375      5374      5373      5376
      5375      5373      5376      5362      5377      5378      5362      5377      5379
      5362      5377      5383      5378      5377      5379      5378      5377      5383
      5379      5377      5383      5381      5380      5382      5381      5380      5383
      5381      5380      5384      5382      5380      5383      5382      5380      5384
      5383      5380      5384      5377      5383      5380      5380      5384      5385
      5384      5385      5386      5384      5385      5387      5384      5385      5388
      5386      5385      5387      5386      5385      5388      5387      5385      5388
      5385      5388      5389      5385      5388      5390      5385      5388      5396
      5389      5388      5390      5389      5388      5396      5390      5388      5396
      5388      5390      5391      5390      5391      5392      5390      5391      5393
      5392      5391      5393      5391      5393      5394      5391      5393      5395
      5391      5393      5405      5394      5393      5395      5394      5393      5405
      5395      5393      5405      5388      5396      5397      5388      5396      5398
      5388      5396      5399      5397      5396      5398      5397      5396      5399
      5398      5396      5399      5396      5399      5400      5399      5400      5401
      5399      5400      5402      5401      5400      5402      5400      5402      5403
      5400      5402      5404      5400      5402      5452      5403      5402      5404
      5403      5402      5452      5404      5402      5452      5393      5405      5406
      5393      5405      5407      5393      5405      5408      5406      5405      5407
      5406      5405      5408      5407      5405      5408      5405      5408      5409
      5405      5408      5410      5405      5408      5411      5409      5408      5410
      5409      5408      5411      5410      5408      5411      5408      5411      5412
      5408      5411      5413      5408      5411      5414      5412      5411      5413
      5412      5411      5414      5413      5411      5414      5411      5414      5415
      5411      5414      5416      5411      5414      5417      5415      5414      5416
      5415      5414      5417      5416      5414      5417      5414      5417      5418
      5414      5417      5419      5414      5417      5420      5418      5417      5419
      5418      5417      5420      5419      5417      5420      5417      5420      5421
      5417      5420      5422      5417      5420      5423      5421      5420      5422
      5421      5420      5423      5422      5420      5423      5420      5423      5424
      5420      5423      5425      5424      5423      5425      5423      5425      5426
      5423      5425      5427      5426      5425      5427      5425      5427      5428
      5425      5427      5429      5425      5427      5430      5428      5427      5429
      5428      5427      5430      5429      5427      5430      5427      5430      5431
      5427      5430      5432      5427      5430      5433      5431      5430      5432
      5431      5430      5433      5432      5430      5433      5430      5433      5434
      5430      5433      5435      5430      5433      5436      5434      5433      5435
      5434      5433      5436      5435      5433      5436      5433      5436      5437
      5433      5436      5438      5433      5436      5439      5437      5436      5438
      5437      5436      5439      5438      5436      5439      5436      5439      5440
      5436      5439      5441      5436      5439      5442      5440      5439      5441
      5440      5439      5442      5441      5439      5442      5439      5442      5443
      5439      5442      5444      5439      5442      5445      5443      5442      5444
      5443      5442      5445      5444      5442      5445      5442      5445      5446
      5442      5445      5447      5442      5445      5448      5446      5445      5447
      5446      5445      5448      5447      5445      5448      5445      5448      5449
      5445      5448      5450      5445      5448      5451      5449      5448      5450
      5449      5448      5451      5450      5448      5451      5402      5452      5453
      5402      5452      5454      5402      5452      5455      5453      5452      5454
      5453      5452      5455      5454      5452      5455      5452      5455      5456
      5452      5455      5457      5452      5455      5458      5456      5455      5457
      5456      5455      5458      5457      5455      5458      5455      5458      5459
      5455      5458      5460      5455      5458      5461      5459      5458      5460
      5459      5458      5461      5460      5458      5461      5458      5461      5462
      5458      5461      5463      5458      5461      5464      5462      5461      5463
      5462      5461      5464      5463      5461      5464      5461      5464      5465
      5461      5464      5466      5461      5464      5467      5465      5464      5466
      5465      5464      5467      5466      5464      5467      5464      5467      5468
      5464      5467      5469      5464      5467      5470      5468      5467      5469
      5468      5467      5470      5469      5467      5470      5467      5470      5471
      5467      5470      5472      5467      5470      5473      5471      5470      5472
      5471      5470      5473      5472      5470      5473      5470      5473      5474
      5470      5473      5475      5470      5473      5476      5474      5473      5475
      5474      5473      5476      5475      5473      5476      5473      5476      5477
      5473      5476      5478      5473      5476      5479      5477      5476      5478
      5477      5476      5479      5478      5476      5479      5476      5479      5480
      5476      5479      5481      5476      5479      5482      5480      5479      5481
      5480      5479      5482      5481      5479      5482      5479      5482      5483
      5479      5482      5484      5479      5482      5485      5483      5482      5484
      5483      5482      5485      5484      5482      5485      5482      5485      5486
      5482      5485      5487      5482      5485      5488      5486      5485      5487
      5486      5485      5488      5487      5485      5488      5485      5488      5489
      5485      5488      5490      5485      5488      5491      5489      5488      5490
      5489      5488      5491      5490      5488      5491      5488      5491      5492
      5488      5491      5493      5488      5491      5494      5492      5491      5493
      5492      5491      5494      5493      5491      5494      5496      5495      5499
      5496      5495      5503      5496      5495      5507      5499      5495      5503
      5499      5495      5507      5503      5495      5507      5495      5496      5497
      5495      5496      5498      5495      5496      5511      5497      5496      5498
      5497      5496      5511      5498      5496      5511      5495      5499      5500
      5495      5499      5501      5495      5499      5502      5500      5499      5501
      5500      5499      5502      5501      5499      5502      5495      5503      5504
      5495      5503      5505      5495      5503      5506      5504      5503      5505
      5504      5503      5506      5505      5503      5506      5495      5507      5508
      5495      5507      5509      5495      5507      5510      5508      5507      5509
      5508      5507      5510      5509      5507      5510      5496      5511      5512
      5496      5511      5513      5496      5511      5517      5512      5511      5513
      5512      5511      5517      5513      5511      5517      5515      5514      5516
      5515      5514      5517      5515      5514      5518      5516      5514      5517
      5516      5514      5518      5517      5514      5518      5511      5517      5514
      5514      5518      5519      5518      5519      5520      5518      5519      5521
      5518      5519      5522      5520      5519      5521      5520      5519      5522
      5521      5519      5522      5519      5522      5523      5519      5522      5524
      5519      5522      5530      5523      5522      5524      5523      5522      5530
      5524      5522      5530      5522      5524      5525      5524      5525      5526
      5524      5525      5527      5526      5525      5527      5525      5527      5528
      5525      5527      5529      5525      5527      5539      5528      5527      5529
      5528      5527      5539      5529      5527      5539      5522      5530      5531
      5522      5530      5532      5522      5530      5533      5531      5530      5532
      5531      5530      5533      5532      5530      5533      5530      5533      5534
      5533      5534      5535      5533      5534      5536      5535      5534      5536
      5534      5536      5537      5534      5536      5538      5534      5536      5586
      5537      5536      5538      5537      5536      5586      5538      5536      5586
      5527      5539      5540      5527      5539      5541      5527      5539      5542
      5540      5539      5541      5540      5539      5542      5541      5539      5542
      5539      5542      5543      5539      5542      5544      5539      5542      5545
      5543      5542      5544      5543      5542      5545      5544      5542      5545
      5542      5545      5546      5542      5545      5547      5542      5545      5548
      5546      5545      5547      5546      5545      5548      5547      5545      5548
      5545      5548      5549      5545      5548      5550      5545      5548      5551
      5549      5548      5550      5549      5548      5551      5550      5548      5551
      5548      5551      5552      5548      5551      5553      5548      5551      5554
      5552      5551      5553      5552      5551      5554      5553      5551      5554
      5551      5554      5555      5551      5554      5556      5551      5554      5557
      5555      5554      5556      5555      5554      5557      5556      5554      5557
      5554      5557      5558      5554      5557      5559      5558      5557      5559
      5557      5559      5560      5557      5559      5561      5560      5559      5561
      5559      5561      5562      5559      5561      5563      5559      5561      5564
      5562      5561      5563      5562      5561      5564      5563      5561      5564
      5561      5564      5565      5561      5564      5566      5561      5564      5567
      5565      5564      5566      5565      5564      5567      5566      5564      5567
      5564      5567      5568      5564      5567      5569      5564      5567      5570
      5568      5567      5569      5568      5567      5570      5569      5567      5570
      5567      5570      5571      5567      5570      5572      5567      5570      5573
      5571      5570      5572      5571      5570      5573      5572      5570      5573
      5570      5573      5574      5570      5573      5575      5570      5573      5576
      5574      5573      5575      5574      5573      5576      5575      5573      5576
      5573      5576      5577      5573      5576      5578      5573      5576      5579
      5577      5576      5578      5577      5576      5579      5578      5576      5579
      5576      5579      5580      5576      5579      5581      5576      5579      5582
      5580      5579      5581      5580      5579      5582      5581      5579      5582
      5579      5582      5583      5579      5582      5584      5579      5582      5585
      5583      5582      5584      5583      5582      5585      5584      5582      5585
      5536      5586      5587      5536      5586      5588      5536      5586      5589
      5587      5586      5588      5587      5586      5589      5588      5586      5589
      5586      5589      5590      5586      5589      5591      5586      5589      5592
      5590      5589      5591      5590      5589      5592      5591      5589      5592
      5589      5592      5593      5589      5592      5594      5589      5592      5595
      5593      5592      5594      5593      5592      5595      5594      5592      5595
      5592      5595      5596      5592      5595      5597      5592      5595      5598
      5596      5595      5597      5596      5595      5598      5597      5595      5598
      5595      5598      5599      5595      5598      5600      5595      5598      5601
      5599      5598      5600      5599      5598      5601      5600      5598      5601
      5598      5601      5602      5598      5601      5603      5598      5601      5604
      5602      5601      5603      5602      5601      5604      5603      5601      5604
      5601      5604      5605      5601      5604      5606      5601      5604      5607
      5605      5604      5606      5605      5604      5607      5606      5604      5607
      5604      5607      5608      5604      5607      5609      5604      5607      5610
      5608      5607      5609      5608      5607      5610      5609      5607      5610
      5607      5610      5611      5607      5610      5612      5607      5610      5613
      5611      5610      5612      5611      5610      5613      5612      5610      5613
      5610      5613      5614      5610      5613      5615      5610      5613      5616
      5614      5613      5615      5614      5613      5616      5615      5613      5616
      5613      5616      5617      5613      5616      5618      5613      5616      5619
      5617      5616      5618      5617      5616      5619      5618      5616      5619
      5616      5619      5620      5616      5619      5621      5616      5619      5622
      5620      5619      5621      5620      5619      5622      5621      5619      5622
      5619      5622      5623      5619      5622      5624      5619      5622      5625
      5623      5622      5624      5623      5622      5625      5624      5622      5625
      5622      5625      5626      5622      5625      5627      5622      5625      5628
      5626      5625      5627      5626      5625      5628      5627      5625      5628
      5630      5629      5633      5630      5629      5637      5630      5629      5641
      5633      5629      5637      5633      5629      5641      5637      5629      5641
      5629      5630      5631      5629      5630      5632      5629      5630      5645
      5631      5630      5632      5631      5630      5645      5632      5630      5645
      5629      5633      5634      5629      5633      5635      5629      5633      5636
      5634      5633      5635      5634      5633      5636      5635      5633      5636
      5629      5637      5638      5629      5637      5639      5629      5637      5640
      5638      5637      5639      5638      5637      5640      5639      5637      5640
      5629      5641      5642      5629      5641      5643      5629      5641      5644
      5642      5641      5643      5642      5641      5644      5643      5641      5644
      5630      5645      5646      5630      5645      5647      5630      5645      5651
      5646      5645      5647      5646      5645      5651      5647      5645      5651
      5649      5648      5650      5649      5648      5651      5649      5648      5652
      5650      5648      5651      5650      5648      5652      5651      5648      5652
      5645      5651      5648      5648      5652      5653      5652      5653      5654
      5652      5653      5655      5652      5653      5656      5654      5653      5655
      5654      5653      5656      5655      5653      5656      5653      5656      5657
      5653      5656      5658      5653      5656      5664      5657      5656      5658
      5657      5656      5664      5658      5656      5664      5656      5658      5659
      5658      5659      5660      5658      5659      5661      5660      5659      5661
      5659      5661      5662      5659      5661      5663      5659      5661      5673
      5662      5661      5663      5662      5661      5673      5663      5661      5673
      5656      5664      5665      5656      5664      5666      5656      5664      5667
      5665      5664      5666      5665      5664      5667      5666      5664      5667
      5664      5667      5668      5667      5668      5669      5667      5668      5670
      5669      5668      5670      5668      5670      5671      5668      5670      5672
      5668      5670      5720      5671      5670      5672      5671      5670      5720
      5672      5670      5720      5661      5673      5674      5661      5673      5675
      5661      5673      5676      5674      5673      5675      5674      5673      5676
      5675      5673      5676      5673      5676      5677      5673      5676      5678
      5673      5676      5679      5677      5676      5678      5677      5676      5679
      5678      5676      5679      5676      5679      5680      5676      5679      5681
      5676      5679      5682      5680      5679      5681      5680      5679      5682
      5681      5679      5682      5679      5682      5683      5679      5682      5684
      5679      5682      5685      5683      5682      5684      5683      5682      5685
      5684      5682      5685      5682      5685      5686      5682      5685      5687
      5682      5685      5688      5686      5685      5687      5686      5685      5688
      5687      5685      5688      5685      5688      5689      5685      5688      5690
      5685      5688      5691      5689      5688      5690      5689      5688      5691
      5690      5688      5691      5688      5691      5692      5688      5691      5693
      5692      5691      5693      5691      5693      5694      5691      5693      5695
      5694      5693      5695      5693      5695      5696      5693      5695      5697
      5693      5695      5698      5696      5695      5697      5696      5695      5698
      5697      5695      5698      5695      5698      5699      5695      5698      5700
      5695      5698      5701      5699      5698      5700      5699      5698      5701
      5700      5698      5701      5698      5701      5702      5698      5701      5703
      5698      5701      5704      5702      5701      5703      5702      5701      5704
      5703      5701      5704      5701      5704      5705      5701      5704      5706
      5701      5704      5707      5705      5704      5706      5705      5704      5707
      5706      5704      5707      5704      5707      5708      5704      5707      5709
      5704      5707      5710      5708      5707      5709      5708      5707      5710
      5709      5707      5710      5707      5710      5711      5707      5710      5712
      5707      5710      5713      5711      5710      5712      5711      5710      5713
      5712      5710      5713      5710      5713      5714      5710      5713      5715
      5710      5713      5716      5714      5713      5715      5714      5713      5716
      5715      5713      5716      5713      5716      5717      5713      5716      5718
      5713      5716      5719      5717      5716      5718      5717      5716      5719
      5718      5716      5719      5670      5720      5721      5670      5720      5722
      5670      5720      5723      5721      5720      5722      5721      5720      5723
      5722      5720      5723      5720      5723      5724      5720      5723      5725
      5720      5723      5726      5724      5723      5725      5724      5723      5726
      5725      5723      5726      5723      5726      5727      5723      5726      5728
      5723      5726      5729      5727      5726      5728      5727      5726      5729
      5728      5726      5729      5726      5729      5730      5726      5729      5731
      5726      5729      5732      5730      5729      5731      5730      5729      5732
      5731      5729      5732      5729      5732      5733      5729      5732      5734
      5729      5732      5735      5733      5732      5734      5733      5732      5735
      5734      5732      5735      5732      5735      5736      5732      5735      5737
      5732      5735      5738      5736      5735      5737      5736      5735      5738
      5737      5735      5738      5735      5738      5739      5735      5738      5740
      5735      5738      5741      5739      5738      5740      5739      5738      5741
      5740      5738      5741      5738      5741      5742      5738      5741      5743
      5738      5741      5744      5742      5741      5743      5742      5741      5744
      5743      5741      5744      5741      5744      5745      5741      5744      5746
      5741      5744      5747      5745      5744      5746      5745      5744      5747
      5746      5744      5747      5744      5747      5748      5744      5747      5749
      5744      5747      5750      5748      5747      5749      5748      5747      5750
      5749      5747      5750      5747      5750      5751      5747      5750      5752
      5747      5750      5753      5751      5750      5752      5751      5750      5753
      5752      5750      5753      5750      5753      5754      5750      5753      5755
      5750      5753      5756      5754      5753      5755      5754      5753      5756
      5755      5753      5756      5753      5756      5757      5753      5756      5758
      5753      5756      5759      5757      5756      5758      5757      5756      5759
      5758      5756      5759      5756      5759      5760      5756      5759      5761
      5756      5759      5762      5760      5759      5761      5760      5759      5762
      5761      5759      5762      5764      5763      5767      5764      5763      5771
      5764      5763      5775      5767      5763      5771      5767      5763      5775
      5771      5763      5775      5763      5764      5765      5763      5764      5766
      5763      5764      5779      5765      5764      5766      5765      5764      5779
      5766      5764      5779      5763      5767      5768      5763      5767      5769
      5763      5767      5770      5768      5767      5769      5768      5767      5770
      5769      5767      5770      5763      5771      5772      5763      5771      5773
      5763      5771      5774      5772      5771      5773      5772      5771      5774
      5773      5771      5774      5763      5775      5776      5763      5775      5777
      5763      5775      5778      5776      5775      5777      5776      5775      5778
      5777      5775      5778      5764      5779      5780      5764      5779      5781
      5764      5779      5785      5780      5779      5781      5780      5779      5785
      5781      5779      5785      5783      5782      5784      5783      5782      5785
      5783      5782      5786      5784      5782      5785      5784      5782      5786
      5785      5782      5786      5779      5785      5782      5782      5786      5787
      5786      5787      5788      5786      5787      5789      5786      5787      5790
      5788      5787      5789      5788      5787      5790      5789      5787      5790
      5787      5790      5791      5787      5790      5792      5787      5790      5798
      5791      5790      5792      5791      5790      5798      5792      5790      5798
      5790      5792      5793      5792      5793      5794      5792      5793      5795
      5794      5793      5795      5793      5795      5796      5793      5795      5797
      5793      5795      5807      5796      5795      5797      5796      5795      5807
      5797      5795      5807      5790      5798      5799      5790      5798      5800
      5790      5798      5801      5799      5798      5800      5799      5798      5801
      5800      5798      5801      5798      5801      5802      5801      5802      5803
      5801      5802      5804      5803      5802      5804      5802      5804      5805
      5802      5804      5806      5802      5804      5854      5805      5804      5806
      5805      5804      5854      5806      5804      5854      5795      5807      5808
      5795      5807      5809      5795      5807      5810      5808      5807      5809
      5808      5807      5810      5809      5807      5810      5807      5810      5811
      5807      5810      5812      5807      5810      5813      5811      5810      5812
      5811      5810      5813      5812      5810      5813      5810      5813      5814
      5810      5813      5815      5810      5813      5816      5814      5813      5815
      5814      5813      5816      5815      5813      5816      5813      5816      5817
      5813      5816      5818      5813      5816      5819      5817      5816      5818
      5817      5816      5819      5818      5816      5819      5816      5819      5820
      5816      5819      5821      5816      5819      5822      5820      5819      5821
      5820      5819      5822      5821      5819      5822      5819      5822      5823
      5819      5822      5824      5819      5822      5825      5823      5822      5824
      5823      5822      5825      5824      5822      5825      5822      5825      5826
      5822      5825      5827      5826      5825      5827      5825      5827      5828
      5825      5827      5829      5828      5827      5829      5827      5829      5830
      5827      5829      5831      5827      5829      5832      5830      5829      5831
      5830      5829      5832      5831      5829      5832      5829      5832      5833
      5829      5832      5834      5829      5832      5835      5833      5832      5834
      5833      5832      5835      5834      5832      5835      5832      5835      5836
      5832      5835      5837      5832      5835      5838      5836      5835      5837
      5836      5835      5838      5837      5835      5838      5835      5838      5839
      5835      5838      5840      5835      5838      5841      5839      5838      5840
      5839      5838      5841      5840      5838      5841      5838      5841      5842
      5838      5841      5843      5838      5841      5844      5842      5841      5843
      5842      5841      5844      5843      5841      5844      5841      5844      5845
      5841      5844      5846      5841      5844      5847      5845      5844      5846
      5845      5844      5847      5846      5844      5847      5844      5847      5848
      5844      5847      5849      5844      5847      5850      5848      5847      5849
      5848      5847      5850      5849      5847      5850      5847      5850      5851
      5847      5850      5852      5847      5850      5853      5851      5850      5852
      5851      5850      5853      5852      5850      5853      5804      5854      5855
      5804      5854      5856      5804      5854      5857      5855      5854      5856
      5855      5854      5857      5856      5854      5857      5854      5857      5858
      5854      5857      5859      5854      5857      5860      5858      5857      5859
      5858      5857      5860      5859      5857      5860      5857      5860      5861
      5857      5860      5862      5857      5860      5863      5861      5860      5862
      5861      5860      5863      5862      5860      5863      5860      5863      5864
      5860      5863      5865      5860      5863      5866      5864      5863      5865
      5864      5863      5866      5865      5863      5866      5863      5866      5867
      5863      5866      5868      5863      5866      5869      5867      5866      5868
      5867      5866      5869      5868      5866      5869      5866      5869      5870
      5866      5869      5871      5866      5869      5872      5870      5869      5871
      5870      5869      5872      5871      5869      5872      5869      5872      5873
      5869      5872      5874      5869      5872      5875      5873      5872      5874
      5873      5872      5875      5874      5872      5875      5872      5875      5876
      5872      5875      5877      5872      5875      5878      5876      5875      5877
      5876      5875      5878      5877      5875      5878      5875      5878      5879
      5875      5878      5880      5875      5878      5881      5879      5878      5880
      5879      5878      5881      5880      5878      5881      5878      5881      5882
      5878      5881      5883      5878      5881      5884      5882      5881      5883
      5882      5881      5884      5883      5881      5884      5881      5884      5885
      5881      5884      5886      5881      5884      5887      5885      5884      5886
      5885      5884      5887      5886      5884      5887      5884      5887      5888
      5884      5887      5889      5884      5887      5890      5888      5887      5889
      5888      5887      5890      5889      5887      5890      5887      5890      5891
      5887      5890      5892      5887      5890      5893      5891      5890      5892
      5891      5890      5893      5892      5890      5893      5890      5893      5894
      5890      5893      5895      5890      5893      5896      5894      5893      5895
      5894      5893      5896      5895      5893      5896      5898      5897      5901
      5898      5897      5905      5898      5897      5909      5901      5897      5905
      5901      5897      5909      5905      5897      5909      5897      5898      5899
      5897      5898      5900      5897      5898      5913      5899      5898      5900
      5899      5898      5913      5900      5898      5913      5897      5901      5902
      5897      5901      5903      5897      5901      5904      5902      5901      5903
      5902      5901      5904      5903      5901      5904      5897      5905      5906
      5897      5905      5907      5897      5905      5908      5906      5905      5907
      5906      5905      5908      5907      5905      5908      5897      5909      5910
      5897      5909      5911      5897      5909      5912      5910      5909      5911
      5910      5909      5912      5911      5909      5912      5898      5913      5914
      5898      5913      5915      5898      5913      5919      5914      5913      5915
      5914      5913      5919      5915      5913      5919      5917      5916      5918
      5917      5916      5919      5917      5916      5920      5918      5916      5919
      5918      5916      5920      5919      5916      5920      5913      5919      5916
      5916      5920      5921      5920      5921      5922      5920      5921      5923
      5920      5921      5924      5922      5921      5923      5922      5921      5924
      5923      5921      5924      5921      5924      5925      5921      5924      5926
      5921      5924      5932      5925      5924      5926      5925      5924      5932
      5926      5924      5932      5924      5926      5927      5926      5927      5928
      5926      5927      5929      5928      5927      5929      5927      5929      5930
      5927      5929      5931      5927      5929      5941      5930      5929      5931
      5930      5929      5941      5931      5929      5941      5924      5932      5933
      5924      5932      5934      5924      5932      5935      5933      5932      5934
      5933      5932      5935      5934      5932      5935      5932      5935      5936
      5935      5936      5937      5935      5936      5938      5937      5936      5938
      5936      5938      5939      5936      5938      5940      5936      5938      5988
      5939      5938      5940      5939      5938      5988      5940      5938      5988
      5929      5941      5942      5929      5941      5943      5929      5941      5944
      5942      5941      5943      5942      5941      5944      5943      5941      5944
      5941      5944      5945      5941      5944      5946      5941      5944      5947
      5945      5944      5946      5945      5944      5947      5946      5944      5947
      5944      5947      5948      5944      5947      5949      5944      5947      5950
      5948      5947      5949      5948      5947      5950      5949      5947      5950
      5947      5950      5951      5947      5950      5952      5947      5950      5953
      5951      5950      5952      5951      5950      5953      5952      5950      5953
      5950      5953      5954      5950      5953      5955      5950      5953      5956
      5954      5953      5955      5954      5953      5956      5955      5953      5956
      5953      5956      5957      5953      5956      5958      5953      5956      5959
      5957      5956      5958      5957      5956      5959      5958      5956      5959
      5956      5959      5960      5956      5959      5961      5960      5959      5961
      5959      5961      5962      5959      5961      5963      5962      5961      5963
      5961      5963      5964      5961      5963      5965      5961      5963      5966
      5964      5963      5965      5964      5963      5966      5965      5963      5966
      5963      5966      5967      5963      5966      5968      5963      5966      5969
      5967      5966      5968      5967      5966      5969      5968      5966      5969
      5966      5969      5970      5966      5969      5971      5966      5969      5972
      5970      5969      5971      5970      5969      5972      5971      5969      5972
      5969      5972      5973      5969      5972      5974      5969      5972      5975
      5973      5972      5974      5973      5972      5975      5974      5972      5975
      5972      5975      5976      5972      5975      5977      5972      5975      5978
      5976      5975      5977      5976      5975      5978      5977      5975      5978
      5975      5978      5979      5975      5978      5980      5975      5978      5981
      5979      5978      5980      5979      5978      5981      5980      5978      5981
      5978      5981      5982      5978      5981      5983      5978      5981      5984
      5982      5981      5983      5982      5981      5984      5983      5981      5984
      5981      5984      5985      5981      5984      5986      5981      5984      5987
      5985      5984      5986      5985      5984      5987      5986      5984      5987
      5938      5988      5989      5938      5988      5990      5938      5988      5991
      5989      5988      5990      5989      5988      5991      5990      5988      5991
      5988      5991      5992      5988      5991      5993      5988      5991      5994
      5992      5991      5993      5992      5991      5994      5993      5991      5994
      5991      5994      5995      5991      5994      5996      5991      5994      5997
      5995      5994      5996      5995      5994      5997      5996      5994      5997
      5994      5997      5998      5994      5997      5999      5994      5997      6000
      5998      5997      5999      5998      5997      6000      5999      5997      6000
      5997      6000      6001      5997      6000      6002      5997      6000      6003
      6001      6000      6002      6001      6000      6003      6002      6000      6003
      6000      6003      6004      6000      6003      6005      6000      6003      6006
      6004      6003      6005      6004      6003      6006      6005      6003      6006
      6003      6006      6007      6003      6006      6008      6003      6006      6009
      6007      6006      6008      6007      6006      6009      6008      6006      6009
      6006      6009      6010      6006      6009      6011      6006      6009      6012
      6010      6009      6011      6010      6009      6012      6011      6009      6012
      6009      6012      6013      6009      6012      6014      6009      6012      6015
      6013      6012      6014      6013      6012      6015      6014      6012      6015
      6012      6015      6016      6012      6015      6017      6012      6015      6018
      6016      6015      6017      6016      6015      6018      6017      6015      6018
      6015      6018      6019      6015      6018      6020      6015      6018      6021
      6019      6018      6020      6019      6018      6021      6020      6018      6021
      6018      6021      6022      6018      6021      6023      6018      6021      6024
      6022      6021      6023      6022      6021      6024      6023      6021      6024
      6021      6024      6025      6021      6024      6026      6021      6024      6027
      6025      6024      6026      6025      6024      6027      6026      6024      6027
      6024      6027      6028      6024      6027      6029      6024      6027      6030
      6028      6027      6029      6028      6027      6030      6029      6027      6030
      6032      6031      6035      6032      6031      6039      6032      6031      6043
      6035      6031      6039      6035      6031      6043      6039      6031      6043
      6031      6032      6033      6031      6032      6034      6031      6032      6047
      6033      6032      6034      6033      6032      6047      6034      6032      6047
      6031      6035      6036      6031      6035      6037      6031      6035      6038
      6036      6035      6037      6036      6035      6038      6037      6035      6038
      6031      6039      6040      6031      6039      6041      6031      6039      6042
      6040      6039      6041      6040      6039      6042      6041      6039      6042
      6031      6043      6044      6031      6043      6045      6031      6043      6046
      6044      6043      6045      6044      6043      6046      6045      6043      6046
      6032      6047      6048      6032      6047      6049      6032      6047      6053
      6048      6047      6049      6048      6047      6053      6049      6047      6053
      6051      6050      6052      6051      6050      6053      6051      6050      6054
      6052      6050      6053      6052      6050      6054      6053      6050      6054
      6047      6053      6050      6050      6054      6055      6054      6055      6056
      6054      6055      6057      6054      6055      6058      6056      6055      6057
      6056      6055      6058      6057      6055      6058      6055      6058      6059
      6055      6058      6060      6055      6058      6066      6059      6058      6060
      6059      6058      6066      6060      6058      6066      6058      6060      6061
      6060      6061      6062      6060      6061      6063      6062      6061      6063
      6061      6063      6064      6061      6063      6065      6061      6063      6075
      6064      6063      6065      6064      6063      6075      6065      6063      6075
      6058      6066      6067      6058      6066      6068      6058      6066      6069
      6067      6066      6068      6067      6066      6069      6068      6066      6069
      6066      6069      6070      6069      6070      6071      6069      6070      6072
      6071      6070      6072      6070      6072      6073      6070      6072      6074
      6070      6072      6122      6073      6072      6074      6073      6072      6122
      6074      6072      6122      6063      6075      6076      6063      6075      6077
      6063      6075      6078      6076      6075      6077      6076      6075      6078
      6077      6075      6078      6075      6078      6079      6075      6078      6080
      6075      6078      6081      6079      6078      6080      6079      6078      6081
      6080      6078      6081      6078      6081      6082      6078      6081      6083
      6078      6081      6084      6082      6081      6083      6082      6081      6084
      6083      6081      6084      6081      6084      6085      6081      6084      6086
      6081      6084      6087      6085      6084      6086      6085      6084      6087
      6086      6084      6087      6084      6087      6088      6084      6087      6089
      6084      6087      6090      6088      6087      6089      6088      6087      6090
      6089      6087      6090      6087      6090      6091      6087      6090      6092
      6087      6090      6093      6091      6090      6092      6091      6090      6093
      6092      6090      6093      6090      6093      6094      6090      6093      6095
      6094      6093      6095      6093      6095      6096      6093      6095      6097
      6096      6095      6097      6095      6097      6098      6095      6097      6099
      6095      6097      6100      6098      6097      6099      6098      6097      6100
      6099      6097      6100      6097      6100      6101      6097      6100      6102
      6097      6100      6103      6101      6100      6102      6101      6100      6103
      6102      6100      6103      6100      6103      6104      6100      6103      6105
      6100      6103      6106      6104      6103      6105      6104      6103      6106
      6105      6103      6106      6103      6106      6107      6103      6106      6108
      6103      6106      6109      6107      6106      6108      6107      6106      6109
      6108      6106      6109      6106      6109      6110      6106      6109      6111
      6106      6109      6112      6110      6109      6111      6110      6109      6112
      6111      6109      6112      6109      6112      6113      6109      6112      6114
      6109      6112      6115      6113      6112      6114      6113      6112      6115
      6114      6112      6115      6112      6115      6116      6112      6115      6117
      6112      6115      6118      6116      6115      6117      6116      6115      6118
      6117      6115      6118      6115      6118      6119      6115      6118      6120
      6115      6118      6121      6119      6118      6120      6119      6118      6121
      6120      6118      6121      6072      6122      6123      6072      6122      6124
      6072      6122      6125      6123      6122      6124      6123      6122      6125
      6124      6122      6125      6122      6125      6126      6122      6125      6127
      6122      6125      6128      6126      6125      6127      6126      6125      6128
      6127      6125      6128      6125      6128      6129      6125      6128      6130
      6125      6128      6131      6129      6128      6130      6129      6128      6131
      6130      6128      6131      6128      6131      6132      6128      6131      6133
      6128      6131      6134      6132      6131      6133      6132      6131      6134
      6133      6131      6134      6131      6134      6135      6131      6134      6136
      6131      6134      6137      6135      6134      6136      6135      6134      6137
      6136      6134      6137      6134      6137      6138      6134      6137      6139
      6134      6137      6140      6138      6137      6139      6138      6137      6140
      6139      6137      6140      6137      6140      6141      6137      6140      6142
      6137      6140      6143      6141      6140      6142      6141      6140      6143
      6142      6140      6143      6140      6143      6144      6140      6143      6145
      6140      6143      6146      6144      6143      6145      6144      6143      6146
      6145      6143      6146      6143      6146      6147      6143      6146      6148
      6143      6146      6149      6147      6146      6148      6147      6146      6149
      6148      6146      6149      6146      6149      6150      6146      6149      6151
      6146      6149      6152      6150      6149      6151      6150      6149      6152
      6151      6149      6152      6149      6152      6153      6149      6152      6154
      6149      6152      6155      6153      6152      6154      6153      6152      6155
      6154      6152      6155      6152      6155      6156      6152      6155      6157
      6152      6155      6158      6156      6155      6157      6156      6155      6158
      6157      6155      6158      6155      6158      6159      6155      6158      6160
      6155      6158      6161      6159      6158      6160      6159      6158      6161
      6160      6158      6161      6158      6161      6162      6158      6161      6163
      6158      6161      6164      6162      6161      6163      6162      6161      6164
      6163      6161      6164      6166      6165      6169      6166      6165      6173
      6166      6165      6177      6169      6165      6173      6169      6165      6177
      6173      6165      6177      6165      6166      6167      6165      6166      6168
      6165      6166      6181      6167      6166      6168      6167      6166      6181
      6168      6166      6181      6165      6169      6170      6165      6169      6171
      6165      6169      6172      6170      6169      6171      6170      6169      6172
      6171      6169      6172      6165      6173      6174      6165      6173      6175
      6165      6173      6176      6174      6173      6175      6174      6173      6176
      6175      6173      6176      6165      6177      6178      6165      6177      6179
      6165      6177      6180      6178      6177      6179      6178      6177      6180
      6179      6177      6180      6166      6181      6182      6166      6181      6183
      6166      6181      6187      6182      6181      6183      6182      6181      6187
      6183      6181      6187      6185      6184      6186      6185      6184      6187
      6185      6184      6188      6186      6184      6187      6186      6184      6188
      6187      6184      6188      6181      6187      6184      6184      6188      6189
      6188      6189      6190      6188      6189      6191      6188      6189      6192
      6190      6189      6191      6190      6189      6192      6191      6189      6192
      6189      6192      6193      6189      6192      6194      6189      6192      6200
      6193      6192      6194      6193      6192      6200      6194      6192      6200
      6192      6194      6195      6194      6195      6196      6194      6195      6197
      6196      6195      6197      6195      6197      6198      6195      6197      6199
      6195      6197      6209      6198      6197      6199      6198      6197      6209
      6199      6197      6209      6192      6200      6201      6192      6200      6202
      6192      6200      6203      6201      6200      6202      6201      6200      6203
      6202      6200      6203      6200      6203      6204      6203      6204      6205
      6203      6204      6206      6205      6204      6206      6204      6206      6207
      6204      6206      6208      6204      6206      6256      6207      6206      6208
      6207      6206      6256      6208      6206      6256      6197      6209      6210
      6197      6209      6211      6197      6209      6212      6210      6209      6211
      6210      6209      6212      6211      6209      6212      6209      6212      6213
      6209      6212      6214      6209      6212      6215      6213      6212      6214
      6213      6212      6215      6214      6212      6215      6212      6215      6216
      6212      6215      6217      6212      6215      6218      6216      6215      6217
      6216      6215      6218      6217      6215      6218      6215      6218      6219
      6215      6218      6220      6215      6218      6221      6219      6218      6220
      6219      6218      6221      6220      6218      6221      6218      6221      6222
      6218      6221      6223      6218      6221      6224      6222      6221      6223
      6222      6221      6224      6223      6221      6224      6221      6224      6225
      6221      6224      6226      6221      6224      6227      6225      6224      6226
      6225      6224      6227      6226      6224      6227      6224      6227      6228
      6224      6227      6229      6228      6227      6229      6227      6229      6230
      6227      6229      6231      6230      6229      6231      6229      6231      6232
      6229      6231      6233      6229      6231      6234      6232      6231      6233
      6232      6231      6234      6233      6231      6234      6231      6234      6235
      6231      6234      6236      6231      6234      6237      6235      6234      6236
      6235      6234      6237      6236      6234      6237      6234      6237      6238
      6234      6237      6239      6234      6237      6240      6238      6237      6239
      6238      6237      6240      6239      6237      6240      6237      6240      6241
      6237      6240      6242      6237      6240      6243      6241      6240      6242
      6241      6240      6243      6242      6240      6243      6240      6243      6244
      6240      6243      6245      6240      6243      6246      6244      6243      6245
      6244      6243      6246      6245      6243      6246      6243      6246      6247
      6243      6246      6248      6243      6246      6249      6247      6246      6248
      6247      6246      6249      6248      6246      6249      6246      6249      6250
      6246      6249      6251      6246      6249      6252      6250      6249      6251
      6250      6249      6252      6251      6249      6252      6249      6252      6253
      6249      6252      6254      6249      6252      6255      6253      6252      6254
      6253      6252      6255      6254      6252      6255      6206      6256      6257
      6206      6256      6258      6206      6256      6259      6257      6256      6258
      6257      6256      6259      6258      6256      6259      6256      6259      6260
      6256      6259      6261      6256      6259      6262      6260      6259      6261
      6260      6259      6262      6261      6259      6262      6259      6262      6263
      6259      6262      6264      6259      6262      6265      6263      6262      6264
      6263      6262      6265      6264      6262      6265      6262      6265      6266
      6262      6265      6267      6262      6265      6268      6266      6265      6267
      6266      6265      6268      6267      6265      6268      6265      6268      6269
      6265      6268      6270      6265      6268      6271      6269      6268      6270
      6269      6268      6271      6270      6268      6271      6268      6271      6272
      6268      6271      6273      6268      6271      6274      6272      6271      6273
      6272      6271      6274      6273      6271      6274      6271      6274      6275
      6271      6274      6276      6271      6274      6277      6275      6274      6276
      6275      6274      6277      6276      6274      6277      6274      6277      6278
      6274      6277      6279      6274      6277      6280      6278      6277      6279
      6278      6277      6280      6279      6277      6280      6277      6280      6281
      6277      6280      6282      6277      6280      6283      6281      6280      6282
      6281      6280      6283      6282      6280      6283      6280      6283      6284
      6280      6283      6285      6280      6283      6286      6284      6283      6285
      6284      6283      6286      6285      6283      6286      6283      6286      6287
      6283      6286      6288      6283      6286      6289      6287      6286      6288
      6287      6286      6289      6288      6286      6289      6286      6289      6290
      6286      6289      6291      6286      6289      6292      6290      6289      6291
      6290      6289      6292      6291      6289      6292      6289      6292      6293
      6289      6292      6294      6289      6292      6295      6293      6292      6294
      6293      6292      6295      6294      6292      6295      6292      6295      6296
      6292      6295      6297      6292      6295      6298      6296      6295      6297
      6296      6295      6298      6297      6295      6298      6300      6299      6303
      6300      6299      6307      6300      6299      6311      6303      6299      6307
      6303      6299      6311      6307      6299      6311      6299      6300      6301
      6299      6300      6302      6299      6300      6315      6301      6300      6302
      6301      6300      6315      6302      6300      6315      6299      6303      6304
      6299      6303      6305      6299      6303      6306      6304      6303      6305
      6304      6303      6306      6305      6303      6306      6299      6307      6308
      6299      6307      6309      6299      6307      6310      6308      6307      6309
      6308      6307      6310      6309      6307      6310      6299      6311      6312
      6299      6311      6313      6299      6311      6314      6312      6311      6313
      6312      6311      6314      6313      6311      6314      6300      6315      6316
      6300      6315      6317      6300      6315      6321      6316      6315      6317
      6316      6315      6321      6317      6315      6321      6319      6318      6320
      6319      6318      6321      6319      6318      6322      6320      6318      6321
      6320      6318      6322      6321      6318      6322      6315      6321      6318
      6318      6322      6323      6322      6323      6324      6322      6323      6325
      6322      6323      6326      6324      6323      6325      6324      6323      6326
      6325      6323      6326      6323      6326      6327      6323      6326      6328
      6323      6326      6334      6327      6326      6328      6327      6326      6334
      6328      6326      6334      6326      6328      6329      6328      6329      6330
      6328      6329      6331      6330      6329      6331      6329      6331      6332
      6329      6331      6333      6329      6331      6343      6332      6331      6333
      6332      6331      6343      6333      6331      6343      6326      6334      6335
      6326      6334      6336      6326      6334      6337      6335      6334      6336
      6335      6334      6337      6336      6334      6337      6334      6337      6338
      6337      6338      6339      6337      6338      6340      6339      6338      6340
      6338      6340      6341      6338      6340      6342      6338      6340      6390
      6341      6340      6342      6341      6340      6390      6342      6340      6390
      6331      6343      6344      6331      6343      6345      6331      6343      6346
      6344      6343      6345      6344      6343      6346      6345      6343      6346
      6343      6346      6347      6343      6346      6348      6343      6346      6349
      6347      6346      6348      6347      6346      6349      6348      6346      6349
      6346      6349      6350      6346      6349      6351      6346      6349      6352
      6350      6349      6351      6350      6349      6352      6351      6349      6352
      6349      6352      6353      6349      6352      6354      6349      6352      6355
      6353      6352      6354      6353      6352      6355      6354      6352      6355
      6352      6355      6356      6352      6355      6357      6352      6355      6358
      6356      6355      6357      6356      6355      6358      6357      6355      6358
      6355      6358      6359      6355      6358      6360      6355      6358      6361
      6359      6358      6360      6359      6358      6361      6360      6358      6361
      6358      6361      6362      6358      6361      6363      6362      6361      6363
      6361      6363      6364      6361      6363      6365      6364      6363      6365
      6363      6365      6366      6363      6365      6367      6363      6365      6368
      6366      6365      6367      6366      6365      6368      6367      6365      6368
      6365      6368      6369      6365      6368      6370      6365      6368      6371
      6369      6368      6370      6369      6368      6371      6370      6368      6371
      6368      6371      6372      6368      6371      6373      6368      6371      6374
      6372      6371      6373      6372      6371      6374      6373      6371      6374
      6371      6374      6375      6371      6374      6376      6371      6374      6377
      6375      6374      6376      6375      6374      6377      6376      6374      6377
      6374      6377      6378      6374      6377      6379      6374      6377      6380
      6378      6377      6379      6378      6377      6380      6379      6377      6380
      6377      6380      6381      6377      6380      6382      6377      6380      6383
      6381      6380      6382      6381      6380      6383      6382      6380      6383
      6380      6383      6384      6380      6383      6385      6380      6383      6386
      6384      6383      6385      6384      6383      6386      6385      6383      6386
      6383      6386      6387      6383      6386      6388      6383      6386      6389
      6387      6386      6388      6387      6386      6389      6388      6386      6389
      6340      6390      6391      6340      6390      6392      6340      6390      6393
      6391      6390      6392      6391      6390      6393      6392      6390      6393
      6390      6393      6394      6390      6393      6395      6390      6393      6396
      6394      6393      6395      6394      6393      6396      6395      6393      6396
      6393      6396      6397      6393      6396      6398      6393      6396      6399
      6397      6396      6398      6397      6396      6399      6398      6396      6399
      6396      6399      6400      6396      6399      6401      6396      6399      6402
      6400      6399      6401      6400      6399      6402      6401      6399      6402
      6399      6402      6403      6399      6402      6404      6399      6402      6405
      6403      6402      6404      6403      6402      6405      6404      6402      6405
      6402      6405      6406      6402      6405      6407      6402      6405      6408
      6406      6405      6407      6406      6405      6408      6407      6405      6408
      6405      6408      6409      6405      6408      6410      6405      6408      6411
      6409      6408      6410      6409      6408      6411      6410      6408      6411
      6408      6411      6412      6408      6411      6413      6408      6411      6414
      6412      6411      6413      6412      6411      6414      6413      6411      6414
      6411      6414      6415      6411      6414      6416      6411      6414      6417
      6415      6414      6416      6415      6414      6417      6416      6414      6417
      6414      6417      6418      6414      6417      6419      6414      6417      6420
      6418      6417      6419      6418      6417      6420      6419      6417      6420
      6417      6420      6421      6417      6420      6422      6417      6420      6423
      6421      6420      6422      6421      6420      6423      6422      6420      6423
      6420      6423      6424      6420      6423      6425      6420      6423      6426
      6424      6423      6425      6424      6423      6426      6425      6423      6426
      6423      6426      6427      6423      6426      6428      6423      6426      6429
      6427      6426      6428      6427      6426      6429      6428      6426      6429
      6426      6429      6430      6426      6429      6431      6426      6429      6432
      6430      6429      6431      6430      6429      6432      6431      6429      6432
      6434      6433      6437      6434      6433      6441      6434      6433      6445
      6437      6433      6441      6437      6433      6445      6441      6433      6445
      6433      6434      6435      6433      6434      6436      6433      6434      6449
      6435      6434      6436      6435      6434      6449      6436      6434      6449
      6433      6437      6438      6433      6437      6439      6433      6437      6440
      6438      6437      6439      6438      6437      6440      6439      6437      6440
      6433      6441      6442      6433      6441      6443      6433      6441      6444
      6442      6441      6443      6442      6441      6444      6443      6441      6444
      6433      6445      6446      6433      6445      6447      6433      6445      6448
      6446      6445      6447      6446      6445      6448      6447      6445      6448
      6434      6449      6450      6434      6449      6451      6434      6449      6455
      6450      6449      6451      6450      6449      6455      6451      6449      6455
      6453      6452      6454      6453      6452      6455      6453      6452      6456
      6454      6452      6455      6454      6452      6456      6455      6452      6456
      6449      6455      6452      6452      6456      6457      6456      6457      6458
      6456      6457      6459      6456      6457      6460      6458      6457      6459
      6458      6457      6460      6459      6457      6460      6457      6460      6461
      6457      6460      6462      6457      6460      6468      6461      6460      6462
      6461      6460      6468      6462      6460      6468      6460      6462      6463
      6462      6463      6464      6462      6463      6465      6464      6463      6465
      6463      6465      6466      6463      6465      6467      6463      6465      6477
      6466      6465      6467      6466      6465      6477      6467      6465      6477
      6460      6468      6469      6460      6468      6470      6460      6468      6471
      6469      6468      6470      6469      6468      6471      6470      6468      6471
      6468      6471      6472      6471      6472      6473      6471      6472      6474
      6473      6472      6474      6472      6474      6475      6472      6474      6476
      6472      6474      6524      6475      6474      6476      6475      6474      6524
      6476      6474      6524      6465      6477      6478      6465      6477      6479
      6465      6477      6480      6478      6477      6479      6478      6477      6480
      6479      6477      6480      6477      6480      6481      6477      6480      6482
      6477      6480      6483      6481      6480      6482      6481      6480      6483
      6482      6480      6483      6480      6483      6484      6480      6483      6485
      6480      6483      6486      6484      6483      6485      6484      6483      6486
      6485      6483      6486      6483      6486      6487      6483      6486      6488
      6483      6486      6489      6487      6486      6488      6487      6486      6489
      6488      6486      6489      6486      6489      6490      6486      6489      6491
      6486      6489      6492      6490      6489      6491      6490      6489      6492
      6491      6489      6492      6489      6492      6493      6489      6492      6494
      6489      6492      6495      6493      6492      6494      6493      6492      6495
      6494      6492      6495      6492      6495      6496      6492      6495      6497
      6496      6495      6497      6495      6497      6498      6495      6497      6499
      6498      6497      6499      6497      6499      6500      6497      6499      6501
      6497      6499      6502      6500      6499      6501      6500      6499      6502
      6501      6499      6502      6499      6502      6503      6499      6502      6504
      6499      6502      6505      6503      6502      6504      6503      6502      6505
      6504      6502      6505      6502      6505      6506      6502      6505      6507
      6502      6505      6508      6506      6505      6507      6506      6505      6508
      6507      6505      6508      6505      6508      6509      6505      6508      6510
      6505      6508      6511      6509      6508      6510      6509      6508      6511
      6510      6508      6511      6508      6511      6512      6508      6511      6513
      6508      6511      6514      6512      6511      6513      6512      6511      6514
      6513      6511      6514      6511      6514      6515      6511      6514      6516
      6511      6514      6517      6515      6514      6516      6515      6514      6517
      6516      6514      6517      6514      6517      6518      6514      6517      6519
      6514      6517      6520      6518      6517      6519      6518      6517      6520
      6519      6517      6520      6517      6520      6521      6517      6520      6522
      6517      6520      6523      6521      6520      6522      6521      6520      6523
      6522      6520      6523      6474      6524      6525      6474      6524      6526
      6474      6524      6527      6525      6524      6526      6525      6524      6527
      6526      6524      6527      6524      6527      6528      6524      6527      6529
      6524      6527      6530      6528      6527      6529      6528      6527      6530
      6529      6527      6530      6527      6530      6531      6527      6530      6532
      6527      6530      6533      6531      6530      6532      6531      6530      6533
      6532      6530      6533      6530      6533      6534      6530      6533      6535
      6530      6533      6536      6534      6533      6535      6534      6533      6536
      6535      6533      6536      6533      6536      6537      6533      6536      6538
      6533      6536      6539      6537      6536      6538      6537      6536      6539
      6538      6536      6539      6536      6539      6540      6536      6539      6541
      6536      6539      6542      6540      6539      6541      6540      6539      6542
      6541      6539      6542      6539      6542      6543      6539      6542      6544
      6539      6542      6545      6543      6542      6544      6543      6542      6545
      6544      6542      6545      6542      6545      6546      6542      6545      6547
      6542      6545      6548      6546      6545      6547      6546      6545      6548
      6547      6545      6548      6545      6548      6549      6545      6548      6550
      6545      6548      6551      6549      6548      6550      6549      6548      6551
      6550      6548      6551      6548      6551      6552      6548      6551      6553
      6548      6551      6554      6552      6551      6553      6552      6551      6554
      6553      6551      6554      6551      6554      6555      6551      6554      6556
      6551      6554      6557      6555      6554      6556      6555      6554      6557
      6556      6554      6557      6554      6557      6558      6554      6557      6559
      6554      6557      6560      6558      6557      6559      6558      6557      6560
      6559      6557      6560      6557      6560      6561      6557      6560      6562
      6557      6560      6563      6561      6560      6562      6561      6560      6563
      6562      6560      6563      6560      6563      6564      6560      6563      6565
      6560      6563      6566      6564      6563      6565      6564      6563      6566
      6565      6563      6566      6568      6567      6571      6568      6567      6575
      6568      6567      6579      6571      6567      6575      6571      6567      6579
      6575      6567      6579      6567      6568      6569      6567      6568      6570
      6567      6568      6583      6569      6568      6570      6569      6568      6583
      6570      6568      6583      6567      6571      6572      6567      6571      6573
      6567      6571      6574      6572      6571      6573      6572      6571      6574
      6573      6571      6574      6567      6575      6576      6567      6575      6577
      6567      6575      6578      6576      6575      6577      6576      6575      6578
      6577      6575      6578      6567      6579      6580      6567      6579      6581
      6567      6579      6582      6580      6579      6581      6580      6579      6582
      6581      6579      6582      6568      6583      6584      6568      6583      6585
      6568      6583      6589      6584      6583      6585      6584      6583      6589
      6585      6583      6589      6587      6586      6588      6587      6586      6589
      6587      6586      6590      6588      6586      6589      6588      6586      6590
      6589      6586      6590      6583      6589      6586      6586      6590      6591
      6590      6591      6592      6590      6591      6593      6590      6591      6594
      6592      6591      6593      6592      6591      6594      6593      6591      6594
      6591      6594      6595      6591      6594      6596      6591      6594      6602
      6595      6594      6596      6595      6594      6602      6596      6594      6602
      6594      6596      6597      6596      6597      6598      6596      6597      6599
      6598      6597      6599      6597      6599      6600      6597      6599      6601
      6597      6599      6611      6600      6599      6601      6600      6599      6611
      6601      6599      6611      6594      6602      6603      6594      6602      6604
      6594      6602      6605      6603      6602      6604      6603      6602      6605
      6604      6602      6605      6602      6605      6606      6605      6606      6607
      6605      6606      6608      6607      6606      6608      6606      6608      6609
      6606      6608      6610      6606      6608      6658      6609      6608      6610
      6609      6608      6658      6610      6608      6658      6599      6611      6612
      6599      6611      6613      6599      6611      6614      6612      6611      6613
      6612      6611      6614      6613      6611      6614      6611      6614      6615
      6611      6614      6616      6611      6614      6617      6615      6614      6616
      6615      6614      6617      6616      6614      6617      6614      6617      6618
      6614      6617      6619      6614      6617      6620      6618      6617      6619
      6618      6617      6620      6619      6617      6620      6617      6620      6621
      6617      6620      6622      6617      6620      6623      6621      6620      6622
      6621      6620      6623      6622      6620      6623      6620      6623      6624
      6620      6623      6625      6620      6623      6626      6624      6623      6625
      6624      6623      6626      6625      6623      6626      6623      6626      6627
      6623      6626      6628      6623      6626      6629      6627      6626      6628
      6627      6626      6629      6628      6626      6629      6626      6629      6630
      6626      6629      6631      6630      6629      6631      6629      6631      6632
      6629      6631      6633      6632      6631      6633      6631      6633      6634
      6631      6633      6635      6631      6633      6636      6634      6633      6635
      6634      6633      6636      6635      6633      6636      6633      6636      6637
      6633      6636      6638      6633      6636      6639      6637      6636      6638
      6637      6636      6639      6638      6636      6639      6636      6639      6640
      6636      6639      6641      6636      6639      6642      6640      6639      6641
      6640      6639      6642      6641      6639      6642      6639      6642      6643
      6639      6642      6644      6639      6642      6645      6643      6642      6644
      6643      6642      6645      6644      6642      6645      6642      6645      6646
      6642      6645      6647      6642      6645      6648      6646      6645      6647
      6646      6645      6648      6647      6645      6648      6645      6648      6649
      6645      6648      6650      6645      6648      6651      6649      6648      6650
      6649      6648      6651      6650      6648      6651      6648      6651      6652
      6648      6651      6653      6648      6651      6654      6652      6651      6653
      6652      6651      6654      6653      6651      6654      6651      6654      6655
      6651      6654      6656      6651      6654      6657      6655      6654      6656
      6655      6654      6657      6656      6654      6657      6608      6658      6659
      6608      6658      6660      6608      6658      6661      6659      6658      6660
      6659      6658      6661      6660      6658      6661      6658      6661      6662
      6658      6661      6663      6658      6661      6664      6662      6661      6663
      6662      6661      6664      6663      6661      6664      6661      6664      6665
      6661      6664      6666      6661      6664      6667      6665      6664      6666
      6665      6664      6667      6666      6664      6667      6664      6667      6668
      6664      6667      6669      6664      6667      6670      6668      6667      6669
      6668      6667      6670      6669      6667      6670      6667      6670      6671
      6667      6670      6672      6667      6670      6673      6671      6670      6672
      6671      6670      6673      6672      6670      6673      6670      6673      6674
      6670      6673      6675      6670      6673      6676      6674      6673      6675
      6674      6673      6676      6675      6673      6676      6673      6676      6677
      6673      6676      6678      6673      6676      6679      6677      6676      6678
      6677      6676      6679      6678      6676      6679      6676      6679      6680
      6676      6679      6681      6676      6679      6682      6680      6679      6681
      6680      6679      6682      6681      6679      6682      6679      6682      6683
      6679      6682      6684      6679      6682      6685      6683      6682      6684
      6683      6682      6685      6684      6682      6685      6682      6685      6686
      6682      6685      6687      6682      6685      6688      6686      6685      6687
      6686      6685      6688      6687      6685      6688      6685      6688      6689
      6685      6688      6690      6685      6688      6691      6689      6688      6690
      6689      6688      6691      6690      6688      6691      6688      6691      6692
      6688      6691      6693      6688      6691      6694      6692      6691      6693
      6692      6691      6694      6693      6691      6694      6691      6694      6695
      6691      6694      6696      6691      6694      6697      6695      6694      6696
      6695      6694      6697      6696      6694      6697      6694      6697      6698
      6694      6697      6699      6694      6697      6700      6698      6697      6699
      6698      6697      6700      6699      6697      6700      6702      6701      6705
      6702      6701      6709      6702      6701      6713      6705      6701      6709
      6705      6701      6713      6709      6701      6713      6701      6702      6703
      6701      6702      6704      6701      6702      6717      6703      6702      6704
      6703      6702      6717      6704      6702      6717      6701      6705      6706
      6701      6705      6707      6701      6705      6708      6706      6705      6707
      6706      6705      6708      6707      6705      6708      6701      6709      6710
      6701      6709      6711      6701      6709      6712      6710      6709      6711
      6710      6709      6712      6711      6709      6712      6701      6713      6714
      6701      6713      6715      6701      6713      6716      6714      6713      6715
      6714      6713      6716      6715      6713      6716      6702      6717      6718
      6702      6717      6719      6702      6717      6723      6718      6717      6719
      6718      6717      6723      6719      6717      6723      6721      6720      6722
      6721      6720      6723      6721      6720      6724      6722      6720      6723
      6722      6720      6724      6723      6720      6724      6717      6723      6720
      6720      6724      6725      6724      6725      6726      6724      6725      6727
      6724      6725      6728      6726      6725      6727      6726      6725      6728
      6727      6725      6728      6725      6728      6729      6725      6728      6730
      6725      6728      6736      6729      6728      6730      6729      6728      6736
      6730      6728      6736      6728      6730      6731      6730      6731      6732
      6730      6731      6733      6732      6731      6733      6731      6733      6734
      6731      6733      6735      6731      6733      6745      6734      6733      6735
      6734      6733      6745      6735      6733      6745      6728      6736      6737
      6728      6736      6738      6728      6736      6739      6737      6736      6738
      6737      6736      6739      6738      6736      6739      6736      6739      6740
      6739      6740      6741      6739      6740      6742      6741      6740      6742
      6740      6742      6743      6740      6742      6744      6740      6742      6792
      6743      6742      6744      6743      6742      6792      6744      6742      6792
      6733      6745      6746      6733      6745      6747      6733      6745      6748
      6746      6745      6747      6746      6745      6748      6747      6745      6748
      6745      6748      6749      6745      6748      6750      6745      6748      6751
      6749      6748      6750      6749      6748      6751      6750      6748      6751
      6748      6751      6752      6748      6751      6753      6748      6751      6754
      6752      6751      6753      6752      6751      6754      6753      6751      6754
      6751      6754      6755      6751      6754      6756      6751      6754      6757
      6755      6754      6756      6755      6754      6757      6756      6754      6757
      6754      6757      6758      6754      6757      6759      6754      6757      6760
      6758      6757      6759      6758      6757      6760      6759      6757      6760
      6757      6760      6761      6757      6760      6762      6757      6760      6763
      6761      6760      6762      6761      6760      6763      6762      6760      6763
      6760      6763      6764      6760      6763      6765      6764      6763      6765
      6763      6765      6766      6763      6765      6767      6766      6765      6767
      6765      6767      6768      6765      6767      6769      6765      6767      6770
      6768      6767      6769      6768      6767      6770      6769      6767      6770
      6767      6770      6771      6767      6770      6772      6767      6770      6773
      6771      6770      6772      6771      6770      6773      6772      6770      6773
      6770      6773      6774      6770      6773      6775      6770      6773      6776
      6774      6773      6775      6774      6773      6776      6775      6773      6776
      6773      6776      6777      6773      6776      6778      6773      6776      6779
      6777      6776      6778      6777      6776      6779      6778      6776      6779
      6776      6779      6780      6776      6779      6781      6776      6779      6782
      6780      6779      6781      6780      6779      6782      6781      6779      6782
      6779      6782      6783      6779      6782      6784      6779      6782      6785
      6783      6782      6784      6783      6782      6785      6784      6782      6785
      6782      6785      6786      6782      6785      6787      6782      6785      6788
      6786      6785      6787      6786      6785      6788      6787      6785      6788
      6785      6788      6789      6785      6788      6790      6785      6788      6791
      6789      6788      6790      6789      6788      6791      6790      6788      6791
      6742      6792      6793      6742      6792      6794      6742      6792      6795
      6793      6792      6794      6793      6792      6795      6794      6792      6795
      6792      6795      6796      6792      6795      6797      6792      6795      6798
      6796      6795      6797      6796      6795      6798      6797      6795      6798
      6795      6798      6799      6795      6798      6800      6795      6798      6801
      6799      6798      6800      6799      6798      6801      6800      6798      6801
      6798      6801      6802      6798      6801      6803      6798      6801      6804
      6802      6801      6803      6802      6801      6804      6803      6801      6804
      6801      6804      6805      6801      6804      6806      6801      6804      6807
      6805      6804      6806      6805      6804      6807      6806      6804      6807
      6804      6807      6808      6804      6807      6809      6804      6807      6810
      6808      6807      6809      6808      6807      6810      6809      6807      6810
      6807      6810      6811      6807      6810      6812      6807      6810      6813
      6811      6810      6812      6811      6810      6813      6812      6810      6813
      6810      6813      6814      6810      6813      6815      6810      6813      6816
      6814      6813      6815      6814      6813      6816      6815      6813      6816
      6813      6816      6817      6813      6816      6818      6813      6816      6819
      6817      6816      6818      6817      6816      6819      6818      6816      6819
      6816      6819      6820      6816      6819      6821      6816      6819      6822
      6820      6819      6821      6820      6819      6822      6821      6819      6822
      6819      6822      6823      6819      6822      6824      6819      6822      6825
      6823      6822      6824      6823      6822      6825      6824      6822      6825
      6822      6825      6826      6822      6825      6827      6822      6825      6828
      6826      6825      6827      6826      6825      6828      6827      6825      6828
      6825      6828      6829      6825      6828      6830      6825      6828      6831
      6829      6828      6830      6829      6828      6831      6830      6828      6831
      6828      6831      6832      6828      6831      6833      6828      6831      6834
      6832      6831      6833      6832      6831      6834      6833      6831      6834
      6836      6835      6839      6836      6835      6843      6836      6835      6847
      6839      6835      6843      6839      6835      6847      6843      6835      6847
      6835      6836      6837      6835      6836      6838      6835      6836      6851
      6837      6836      6838      6837      6836      6851      6838      6836      6851
      6835      6839      6840      6835      6839      6841      6835      6839      6842
      6840      6839      6841      6840      6839      6842      6841      6839      6842
      6835      6843      6844      6835      6843      6845      6835      6843      6846
      6844      6843      6845      6844      6843      6846      6845      6843      6846
      6835      6847      6848      6835      6847      6849      6835      6847      6850
      6848      6847      6849      6848      6847      6850      6849      6847      6850
      6836      6851      6852      6836      6851      6853      6836      6851      6857
      6852      6851      6853      6852      6851      6857      6853      6851      6857
      6855      6854      6856      6855      6854      6857      6855      6854      6858
      6856      6854      6857      6856      6854      6858      6857      6854      6858
      6851      6857      6854      6854      6858      6859      6858      6859      6860
      6858      6859      6861      6858      6859      6862      6860      6859      6861
      6860      6859      6862      6861      6859      6862      6859      6862      6863
      6859      6862      6864      6859      6862      6870      6863      6862      6864
      6863      6862      6870      6864      6862      6870      6862      6864      6865
      6864      6865      6866      6864      6865      6867      6866      6865      6867
      6865      6867      6868      6865      6867      6869      6865      6867      6879
      6868      6867      6869      6868      6867      6879      6869      6867      6879
      6862      6870      6871      6862      6870      6872      6862      6870      6873
      6871      6870      6872      6871      6870      6873      6872      6870      6873
      6870      6873      6874      6873      6874      6875      6873      6874      6876
      6875      6874      6876      6874      6876      6877      6874      6876      6878
      6874      6876      6926      6877      6876      6878      6877      6876      6926
      6878      6876      6926      6867      6879      6880      6867      6879      6881
      6867      6879      6882      6880      6879      6881      6880      6879      6882
      6881      6879      6882      6879      6882      6883      6879      6882      6884
      6879      6882      6885      6883      6882      6884      6883      6882      6885
      6884      6882      6885      6882      6885      6886      6882      6885      6887
      6882      6885      6888      6886      6885      6887      6886      6885      6888
      6887      6885      6888      6885      6888      6889      6885      6888      6890
      6885      6888      6891      6889      6888      6890      6889      6888      6891
      6890      6888      6891      6888      6891      6892      6888      6891      6893
      6888      6891      6894      6892      6891      6893      6892      6891      6894
      6893      6891      6894      6891      6894      6895      6891      6894      6896
      6891      6894      6897      6895      6894      6896      6895      6894      6897
      6896      6894      6897      6894      6897      6898      6894      6897      6899
      6898      6897      6899      6897      6899      6900      6897      6899      6901
      6900      6899      6901      6899      6901      6902      6899      6901      6903
      6899      6901      6904      6902      6901      6903      6902      6901      6904
      6903      6901      6904      6901      6904      6905      6901      6904      6906
      6901      6904      6907      6905      6904      6906      6905      6904      6907
      6906      6904      6907      6904      6907      6908      6904      6907      6909
      6904      6907      6910      6908      6907      6909      6908      6907      6910
      6909      6907      6910      6907      6910      6911      6907      6910      6912
      6907      6910      6913      6911      6910      6912      6911      6910      6913
      6912      6910      6913      6910      6913      6914      6910      6913      6915
      6910      6913      6916      6914      6913      6915      6914      6913      6916
      6915      6913      6916      6913      6916      6917      6913      6916      6918
      6913      6916      6919      6917      6916      6918      6917      6916      6919
      6918      6916      6919      6916      6919      6920      6916      6919      6921
      6916      6919      6922      6920      6919      6921      6920      6919      6922
      6921      6919      6922      6919      6922      6923      6919      6922      6924
      6919      6922      6925      6923      6922      6924      6923      6922      6925
      6924      6922      6925      6876      6926      6927      6876      6926      6928
      6876      6926      6929      6927      6926      6928      6927      6926      6929
      6928      6926      6929      6926      6929      6930      6926      6929      6931
      6926      6929      6932      6930      6929      6931      6930      6929      6932
      6931      6929      6932      6929      6932      6933      6929      6932      6934
      6929      6932      6935      6933      6932      6934      6933      6932      6935
      6934      6932      6935      6932      6935      6936      6932      6935      6937
      6932      6935      6938      6936      6935      6937      6936      6935      6938
      6937      6935      6938      6935      6938      6939      6935      6938      6940
      6935      6938      6941      6939      6938      6940      6939      6938      6941
      6940      6938      6941      6938      6941      6942      6938      6941      6943
      6938      6941      6944      6942      6941      6943      6942      6941      6944
      6943      6941      6944      6941      6944      6945      6941      6944      6946
      6941      6944      6947      6945      6944      6946      6945      6944      6947
      6946      6944      6947      6944      6947      6948      6944      6947      6949
      6944      6947      6950      6948      6947      6949      6948      6947      6950
      6949      6947      6950      6947      6950      6951      6947      6950      6952
      6947      6950      6953      6951      6950      6952      6951      6950      6953
      6952      6950      6953      6950      6953      6954      6950      6953      6955
      6950      6953      6956      6954      6953      6955      6954      6953      6956
      6955      6953      6956      6953      6956      6957      6953      6956      6958
      6953      6956      6959      6957      6956      6958      6957      6956      6959
      6958      6956      6959      6956      6959      6960      6956      6959      6961
      6956      6959      6962      6960      6959      6961      6960      6959      6962
      6961      6959      6962      6959      6962      6963      6959      6962      6964
      6959      6962      6965      6963      6962      6964      6963      6962      6965
      6964      6962      6965      6962      6965      6966      6962      6965      6967
      6962      6965      6968      6966      6965      6967      6966      6965      6968
      6967      6965      6968      6970      6969      6973      6970      6969      6977
      6970      6969      6981      6973      6969      6977      6973      6969      6981
      6977      6969      6981      6969      6970      6971      6969      6970      6972
      6969      6970      6985      6971      6970      6972      6971      6970      6985
      6972      6970      6985      6969      6973      6974      6969      6973      6975
      6969      6973      6976      6974      6973      6975      6974      6973      6976
      6975      6973      6976      6969      6977      6978      6969      6977      6979
      6969      6977      6980      6978      6977      6979      6978      6977      6980
      6979      6977      6980      6969      6981      6982      6969      6981      6983
      6969      6981      6984      6982      6981      6983      6982      6981      6984
      6983      6981      6984      6970      6985      6986      6970      6985      6987
      6970      6985      6991      6986      6985      6987      6986      6985      6991
      6987      6985      6991      6989      6988      6990      6989      6988      6991
      6989      6988      6992      6990      6988      6991      6990      6988      6992
      6991      6988      6992      6985      6991      6988      6988      6992      6993
      6992      6993      6994      6992      6993      6995      6992      6993      6996
      6994      6993      6995      6994      6993      6996      6995      6993      6996
      6993      6996      6997      6993      6996      6998      6993      6996      7004
      6997      6996      6998      6997      6996      7004      6998      6996      7004
      6996      6998      6999      6998      6999      7000      6998      6999      7001
      7000      6999      7001      6999      7001      7002      6999      7001      7003
      6999      7001      7013      7002      7001      7003      7002      7001      7013
      7003      7001      7013      6996      7004      7005      6996      7004      7006
      6996      7004      7007      7005      7004      7006      7005      7004      7007
      7006      7004      7007      7004      7007      7008      7007      7008      7009
      7007      7008      7010      7009      7008      7010      7008      7010      7011
      7008      7010      7012      7008      7010      7060      7011      7010      7012
      7011      7010      7060      7012      7010      7060      7001      7013      7014
      7001      7013      7015      7001      7013      7016      7014      7013      7015
      7014      7013      7016      7015      7013      7016      7013      7016      7017
      7013      7016      7018      7013      7016      7019      7017      7016      7018
      7017      7016      7019      7018      7016      7019      7016      7019      7020
      7016      7019      7021      7016      7019      7022      7020      7019      7021
      7020      7019      7022      7021      7019      7022      7019      7022      7023
      7019      7022      7024      7019      7022      7025      7023      7022      7024
      7023      7022      7025      7024      7022      7025      7022      7025      7026
      7022      7025      7027      7022      7025      7028      7026      7025      7027
      7026      7025      7028      7027      7025      7028      7025      7028      7029
      7025      7028      7030      7025      7028      7031      7029      7028      7030
      7029      7028      7031      7030      7028      7031      7028      7031      7032
      7028      7031      7033      7032      7031      7033      7031      7033      7034
      7031      7033      7035      7034      7033      7035      7033      7035      7036
      7033      7035      7037      7033      7035      7038      7036      7035      7037
      7036      7035      7038      7037      7035      7038      7035      7038      7039
      7035      7038      7040      7035      7038      7041      7039      7038      7040
      7039      7038      7041      7040      7038      7041      7038      7041      7042
      7038      7041      7043      7038      7041      7044      7042      7041      7043
      7042      7041      7044      7043      7041      7044      7041      7044      7045
      7041      7044      7046      7041      7044      7047      7045      7044      7046
      7045      7044      7047      7046      7044      7047      7044      7047      7048
      7044      7047      7049      7044      7047      7050      7048      7047      7049
      7048      7047      7050      7049      7047      7050      7047      7050      7051
      7047      7050      7052      7047      7050      7053      7051      7050      7052
      7051      7050      7053      7052      7050      7053      7050      7053      7054
      7050      7053      7055      7050      7053      7056      7054      7053      7055
      7054      7053      7056      7055      7053      7056      7053      7056      7057
      7053      7056      7058      7053      7056      7059      7057      7056      7058
      7057      7056      7059      7058      7056      7059      7010      7060      7061
      7010      7060      7062      7010      7060      7063      7061      7060      7062
      7061      7060      7063      7062      7060      7063      7060      7063      7064
      7060      7063      7065      7060      7063      7066      7064      7063      7065
      7064      7063      7066      7065      7063      7066      7063      7066      7067
      7063      7066      7068      7063      7066      7069      7067      7066      7068
      7067      7066      7069      7068      7066      7069      7066      7069      7070
      7066      7069      7071      7066      7069      7072      7070      7069      7071
      7070      7069      7072      7071      7069      7072      7069      7072      7073
      7069      7072      7074      7069      7072      7075      7073      7072      7074
      7073      7072      7075      7074      7072      7075      7072      7075      7076
      7072      7075      7077      7072      7075      7078      7076      7075      7077
      7076      7075      7078      7077      7075      7078      7075      7078      7079
      7075      7078      7080      7075      7078      7081      7079      7078      7080
      7079      7078      7081      7080      7078      7081      7078      7081      7082
      7078      7081      7083      7078      7081      7084      7082      7081      7083
      7082      7081      7084      7083      7081      7084      7081      7084      7085
      7081      7084      7086      7081      7084      7087      7085      7084      7086
      7085      7084      7087      7086      7084      7087      7084      7087      7088
      7084      7087      7089      7084      7087      7090      7088      7087      7089
      7088      7087      7090      7089      7087      7090      7087      7090      7091
      7087      7090      7092      7087      7090      7093      7091      7090      7092
      7091      7090      7093      7092      7090      7093      7090      7093      7094
      7090      7093      7095      7090      7093      7096      7094      7093      7095
      7094      7093      7096      7095      7093      7096      7093      7096      7097
      7093      7096      7098      7093      7096      7099      7097      7096      7098
      7097      7096      7099      7098      7096      7099      7096      7099      7100
      7096      7099      7101      7096      7099      7102      7100      7099      7101
      7100      7099      7102      7101      7099      7102      7104      7103      7107
      7104      7103      7111      7104      7103      7115      7107      7103      7111
      7107      7103      7115      7111      7103      7115      7103      7104      7105
      7103      7104      7106      7103      7104      7119      7105      7104      7106
      7105      7104      7119      7106      7104      7119      7103      7107      7108
      7103      7107      7109      7103      7107      7110      7108      7107      7109
      7108      7107      7110      7109      7107      7110      7103      7111      7112
      7103      7111      7113      7103      7111      7114      7112      7111      7113
      7112      7111      7114      7113      7111      7114      7103      7115      7116
      7103      7115      7117      7103      7115      7118      7116      7115      7117
      7116      7115      7118      7117      7115      7118      7104      7119      7120
      7104      7119      7121      7104      7119      7125      7120      7119      7121
      7120      7119      7125      7121      7119      7125      7123      7122      7124
      7123      7122      7125      7123      7122      7126      7124      7122      7125
      7124      7122      7126      7125      7122      7126      7119      7125      7122
      7122      7126      7127      7126      7127      7128      7126      7127      7129
      7126      7127      7130      7128      7127      7129      7128      7127      7130
      7129      7127      7130      7127      7130      7131      7127      7130      7132
      7127      7130      7138      7131      7130      7132      7131      7130      7138
      7132      7130      7138      7130      7132      7133      7132      7133      7134
      7132      7133      7135      7134      7133      7135      7133      7135      7136
      7133      7135      7137      7133      7135      7147      7136      7135      7137
      7136      7135      7147      7137      7135      7147      7130      7138      7139
      7130      7138      7140      7130      7138      7141      7139      7138      7140
      7139      7138      7141      7140      7138      7141      7138      7141      7142
      7141      7142      7143      7141      7142      7144      7143      7142      7144
      7142      7144      7145      7142      7144      7146      7142      7144      7194
      7145      7144      7146      7145      7144      7194      7146      7144      7194
      7135      7147      7148      7135      7147      7149      7135      7147      7150
      7148      7147      7149      7148      7147      7150      7149      7147      7150
      7147      7150      7151      7147      7150      7152      7147      7150      7153
      7151      7150      7152      7151      7150      7153      7152      7150      7153
      7150      7153      7154      7150      7153      7155      7150      7153      7156
      7154      7153      7155      7154      7153      7156      7155      7153      7156
      7153      7156      7157      7153      7156      7158      7153      7156      7159
      7157      7156      7158      7157      7156      7159      7158      7156      7159
      7156      7159      7160      7156      7159      7161      7156      7159      7162
      7160      7159      7161      7160      7159      7162      7161      7159      7162
      7159      7162      7163      7159      7162      7164      7159      7162      7165
      7163      7162      7164      7163      7162      7165      7164      7162      7165
      7162      7165      7166      7162      7165      7167      7166      7165      7167
      7165      7167      7168      7165      7167      7169      7168      7167      7169
      7167      7169      7170      7167      7169      7171      7167      7169      7172
      7170      7169      7171      7170      7169      7172      7171      7169      7172
      7169      7172      7173      7169      7172      7174      7169      7172      7175
      7173      7172      7174      7173      7172      7175      7174      7172      7175
      7172      7175      7176      7172      7175      7177      7172      7175      7178
      7176      7175      7177      7176      7175      7178      7177      7175      7178
      7175      7178      7179      7175      7178      7180      7175      7178      7181
      7179      7178      7180      7179      7178      7181      7180      7178      7181
      7178      7181      7182      7178      7181      7183      7178      7181      7184
      7182      7181      7183      7182      7181      7184      7183      7181      7184
      7181      7184      7185      7181      7184      7186      7181      7184      7187
      7185      7184      7186      7185      7184      7187      7186      7184      7187
      7184      7187      7188      7184      7187      7189      7184      7187      7190
      7188      7187      7189      7188      7187      7190      7189      7187      7190
      7187      7190      7191      7187      7190      7192      7187      7190      7193
      7191      7190      7192      7191      7190      7193      7192      7190      7193
      7144      7194      7195      7144      7194      7196      7144      7194      7197
      7195      7194      7196      7195      7194      7197      7196      7194      7197
      7194      7197      7198      7194      7197      7199      7194      7197      7200
      7198      7197      7199      7198      7197      7200      7199      7197      7200
      7197      7200      7201      7197      7200      7202      7197      7200      7203
      7201      7200      7202      7201      7200      7203      7202      7200      7203
      7200      7203      7204      7200      7203      7205      7200      7203      7206
      7204      7203      7205      7204      7203      7206      7205      7203      7206
      7203      7206      7207      7203      7206      7208      7203      7206      7209
      7207      7206      7208      7207      7206      7209      7208      7206      7209
      7206      7209      7210      7206      7209      7211      7206      7209      7212
      7210      7209      7211      7210      7209      7212      7211      7209      7212
      7209      7212      7213      7209      7212      7214      7209      7212      7215
      7213      7212      7214      7213      7212      7215      7214      7212      7215
      7212      7215      7216      7212      7215      7217      7212      7215      7218
      7216      7215      7217      7216      7215      7218      7217      7215      7218
      7215      7218      7219      7215      7218      7220      7215      7218      7221
      7219      7218      7220      7219      7218      7221      7220      7218      7221
      7218      7221      7222      7218      7221      7223      7218      7221      7224
      7222      7221      7223      7222      7221      7224      7223      7221      7224
      7221      7224      7225      7221      7224      7226      7221      7224      7227
      7225      7224      7226      7225      7224      7227      7226      7224      7227
      7224      7227      7228      7224      7227      7229      7224      7227      7230
      7228      7227      7229      7228      7227      7230      7229      7227      7230
      7227      7230      7231      7227      7230      7232      7227      7230      7233
      7231      7230      7232      7231      7230      7233      7232      7230      7233
      7230      7233      7234      7230      7233      7235      7230      7233      7236
      7234      7233      7235      7234      7233      7236      7235      7233      7236
      7238      7237      7241      7238      7237      7245      7238      7237      7249
      7241      7237      7245      7241      7237      7249      7245      7237      7249
      7237      7238      7239      7237      7238      7240      7237      7238      7253
      7239      7238      7240      7239      7238      7253      7240      7238      7253
      7237      7241      7242      7237      7241      7243      7237      7241      7244
      7242      7241      7243      7242      7241      7244      7243      7241      7244
      7237      7245      7246      7237      7245      7247      7237      7245      7248
      7246      7245      7247      7246      7245      7248      7247      7245      7248
      7237      7249      7250      7237      7249      7251      7237      7249      7252
      7250      7249      7251      7250      7249      7252      7251      7249      7252
      7238      7253      7254      7238      7253      7255      7238      7253      7259
      7254      7253      7255      7254      7253      7259      7255      7253      7259
      7257      7256      7258      7257      7256      7259      7257      7256      7260
      7258      7256      7259      7258      7256      7260      7259      7256      7260
      7253      7259      7256      7256      7260      7261      7260      7261      7262
      7260      7261      7263      7260      7261      7264      7262      7261      7263
      7262      7261      7264      7263      7261      7264      7261      7264      7265
      7261      7264      7266      7261      7264      7272      7265      7264      7266
      7265      7264      7272      7266      7264      7272      7264      7266      7267
      7266      7267      7268      7266      7267      7269      7268      7267      7269
      7267      7269      7270      7267      7269      7271      7267      7269      7281
      7270      7269      7271      7270      7269      7281      7271      7269      7281
      7264      7272      7273      7264      7272      7274      7264      7272      7275
      7273      7272      7274      7273      7272      7275      7274      7272      7275
      7272      7275      7276      7275      7276      7277      7275      7276      7278
      7277      7276      7278      7276      7278      7279      7276      7278      7280
      7276      7278      7328      7279      7278      7280      7279      7278      7328
      7280      7278      7328      7269      7281      7282      7269      7281      7283
      7269      7281      7284      7282      7281      7283      7282      7281      7284
      7283      7281      7284      7281      7284      7285      7281      7284      7286
      7281      7284      7287      7285      7284      7286      7285      7284      7287
      7286      7284      7287      7284      7287      7288      7284      7287      7289
      7284      7287      7290      7288      7287      7289      7288      7287      7290
      7289      7287      7290      7287      7290      7291      7287      7290      7292
      7287      7290      7293      7291      7290      7292      7291      7290      7293
      7292      7290      7293      7290      7293      7294      7290      7293      7295
      7290      7293      7296      7294      7293      7295      7294      7293      7296
      7295      7293      7296      7293      7296      7297      7293      7296      7298
      7293      7296      7299      7297      7296      7298      7297      7296      7299
      7298      7296      7299      7296      7299      7300      7296      7299      7301
      7300      7299      7301      7299      7301      7302      7299      7301      7303
      7302      7301      7303      7301      7303      7304      7301      7303      7305
      7301      7303      7306      7304      7303      7305      7304      7303      7306
      7305      7303      7306      7303      7306      7307      7303      7306      7308
      7303      7306      7309      7307      7306      7308      7307      7306      7309
      7308      7306      7309      7306      7309      7310      7306      7309      7311
      7306      7309      7312      7310      7309      7311      7310      7309      7312
      7311      7309      7312      7309      7312      7313      7309      7312      7314
      7309      7312      7315      7313      7312      7314      7313      7312      7315
      7314      7312      7315      7312      7315      7316      7312      7315      7317
      7312      7315      7318      7316      7315      7317      7316      7315      7318
      7317      7315      7318      7315      7318      7319      7315      7318      7320
      7315      7318      7321      7319      7318      7320      7319      7318      7321
      7320      7318      7321      7318      7321      7322      7318      7321      7323
      7318      7321      7324      7322      7321      7323      7322      7321      7324
      7323      7321      7324      7321      7324      7325      7321      7324      7326
      7321      7324      7327      7325      7324      7326      7325      7324      7327
      7326      7324      7327      7278      7328      7329      7278      7328      7330
      7278      7328      7331      7329      7328      7330      7329      7328      7331
      7330      7328      7331      7328      7331      7332      7328      7331      7333
      7328      7331      7334      7332      7331      7333      7332      7331      7334
      7333      7331      7334      7331      7334      7335      7331      7334      7336
      7331      7334      7337      7335      7334      7336      7335      7334      7337
      7336      7334      7337      7334      7337      7338      7334      7337      7339
      7334      7337      7340      7338      7337      7339      7338      7337      7340
      7339      7337      7340      7337      7340      7341      7337      7340      7342
      7337      7340      7343      7341      7340      7342      7341      7340      7343
      7342      7340      7343      7340      7343      7344      7340      7343      7345
      7340      7343      7346      7344      7343      7345      7344      7343      7346
      7345      7343      7346      7343      7346      7347      7343      7346      7348
      7343      7346      7349      7347      7346      7348      7347      7346      7349
      7348      7346      7349      7346      7349      7350      7346      7349      7351
      7346      7349      7352      7350      7349      7351      7350      7349      7352
      7351      7349      7352      7349      7352      7353      7349      7352      7354
      7349      7352      7355      7353      7352      7354      7353      7352      7355
      7354      7352      7355      7352      7355      7356      7352      7355      7357
      7352      7355      7358      7356      7355      7357      7356      7355      7358
      7357      7355      7358      7355      7358      7359      7355      7358      7360
      7355      7358      7361      7359      7358      7360      7359      7358      7361
      7360      7358      7361      7358      7361      7362      7358      7361      7363
      7358      7361      7364      7362      7361      7363      7362      7361      7364
      7363      7361      7364      7361      7364      7365      7361      7364      7366
      7361      7364      7367      7365      7364      7366      7365      7364      7367
      7366      7364      7367      7364      7367      7368      7364      7367      7369
      7364      7367      7370      7368      7367      7369      7368      7367      7370
      7369      7367      7370      7372      7371      7375      7372      7371      7379
      7372      7371      7383      7375      7371      7379      7375      7371      7383
      7379      7371      7383      7371      7372      7373      7371      7372      7374
      7371      7372      7387      7373      7372      7374      7373      7372      7387
      7374      7372      7387      7371      7375      7376      7371      7375      7377
      7371      7375      7378      7376      7375      7377      7376      7375      7378
      7377      7375      7378      7371      7379      7380      7371      7379      7381
      7371      7379      7382      7380      7379      7381      7380      7379      7382
      7381      7379      7382      7371      7383      7384      7371      7383      7385
      7371      7383      7386      7384      7383      7385      7384      7383      7386
      7385      7383      7386      7372      7387      7388      7372      7387      7389
      7372      7387      7393      7388      7387      7389      7388      7387      7393
      7389      7387      7393      7391      7390      7392      7391      7390      7393
      7391      7390      7394      7392      7390      7393      7392      7390      7394
      7393      7390      7394      7387      7393      7390      7390      7394      7395
      7394      7395      7396      7394      7395      7397      7394      7395      7398
      7396      7395      7397      7396      7395      7398      7397      7395      7398
      7395      7398      7399      7395      7398      7400      7395      7398      7406
      7399      7398      7400      7399      7398      7406      7400      7398      7406
      7398      7400      7401      7400      7401      7402      7400      7401      7403
      7402      7401      7403      7401      7403      7404      7401      7403      7405
      7401      7403      7415      7404      7403      7405      7404      7403      7415
      7405      7403      7415      7398      7406      7407      7398      7406      7408
      7398      7406      7409      7407      7406      7408      7407      7406      7409
      7408      7406      7409      7406      7409      7410      7409      7410      7411
      7409      7410      7412      7411      7410      7412      7410      7412      7413
      7410      7412      7414      7410      7412      7462      7413      7412      7414
      7413      7412      7462      7414      7412      7462      7403      7415      7416
      7403      7415      7417      7403      7415      7418      7416      7415      7417
      7416      7415      7418      7417      7415      7418      7415      7418      7419
      7415      7418      7420      7415      7418      7421      7419      7418      7420
      7419      7418      7421      7420      7418      7421      7418      7421      7422
      7418      7421      7423      7418      7421      7424      7422      7421      7423
      7422      7421      7424      7423      7421      7424      7421      7424      7425
      7421      7424      7426      7421      7424      7427      7425      7424      7426
      7425      7424      7427      7426      7424      7427      7424      7427      7428
      7424      7427      7429      7424      7427      7430      7428      7427      7429
      7428      7427      7430      7429      7427      7430      7427      7430      7431
      7427      7430      7432      7427      7430      7433      7431      7430      7432
      7431      7430      7433      7432      7430      7433      7430      7433      7434
      7430      7433      7435      7434      7433      7435      7433      7435      7436
      7433      7435      7437      7436      7435      7437      7435      7437      7438
      7435      7437      7439      7435      7437      7440      7438      7437      7439
      7438      7437      7440      7439      7437      7440      7437      7440      7441
      7437      7440      7442      7437      7440      7443      7441      7440      7442
      7441      7440      7443      7442      7440      7443      7440      7443      7444
      7440      7443      7445      7440      7443      7446      7444      7443      7445
      7444      7443      7446      7445      7443      7446      7443      7446      7447
      7443      7446      7448      7443      7446      7449      7447      7446      7448
      7447      7446      7449      7448      7446      7449      7446      7449      7450
      7446      7449      7451      7446      7449      7452      7450      7449      7451
      7450      7449      7452      7451      7449      7452      7449      7452      7453
      7449      7452      7454      7449      7452      7455      7453      7452      7454
      7453      7452      7455      7454      7452      7455      7452      7455      7456
      7452      7455      7457      7452      7455      7458      7456      7455      7457
      7456      7455      7458      7457      7455      7458      7455      7458      7459
      7455      7458      7460      7455      7458      7461      7459      7458      7460
      7459      7458      7461      7460      7458      7461      7412      7462      7463
      7412      7462      7464      7412      7462      7465      7463      7462      7464
      7463      7462      7465      7464      7462      7465      7462      7465      7466
      7462      7465      7467      7462      7465      7468      7466      7465      7467
      7466      7465      7468      7467      7465      7468      7465      7468      7469
      7465      7468      7470      7465      7468      7471      7469      7468      7470
      7469      7468      7471      7470      7468      7471      7468      7471      7472
      7468      7471      7473      7468      7471      7474      7472      7471      7473
      7472      7471      7474      7473      7471      7474      7471      7474      7475
      7471      7474      7476      7471      7474      7477      7475      7474      7476
      7475      7474      7477      7476      7474      7477      7474      7477      7478
      7474      7477      7479      7474      7477      7480      7478      7477      7479
      7478      7477      7480      7479      7477      7480      7477      7480      7481
      7477      7480      7482      7477      7480      7483      7481      7480      7482
      7481      7480      7483      7482      7480      7483      7480      7483      7484
      7480      7483      7485      7480      7483      7486      7484      7483      7485
      7484      7483      7486      7485      7483      7486      7483      7486      7487
      7483      7486      7488      7483      7486      7489      7487      7486      7488
      7487      7486      7489      7488      7486      7489      7486      7489      7490
      7486      7489      7491      7486      7489      7492      7490      7489      7491
      7490      7489      7492      7491      7489      7492      7489      7492      7493
      7489      7492      7494      7489      7492      7495      7493      7492      7494
      7493      7492      7495      7494      7492      7495      7492      7495      7496
      7492      7495      7497      7492      7495      7498      7496      7495      7497
      7496      7495      7498      7497      7495      7498      7495      7498      7499
      7495      7498      7500      7495      7498      7501      7499      7498      7500
      7499      7498      7501      7500      7498      7501      7498      7501      7502
      7498      7501      7503      7498      7501      7504      7502      7501      7503
      7502      7501      7504      7503      7501      7504      7506      7505      7509
      7506      7505      7513      7506      7505      7517      7509      7505      7513
      7509      7505      7517      7513      7505      7517      7505      7506      7507
      7505      7506      7508      7505      7506      7521      7507      7506      7508
      7507      7506      7521      7508      7506      7521      7505      7509      7510
      7505      7509      7511      7505      7509      7512      7510      7509      7511
      7510      7509      7512      7511      7509      7512      7505      7513      7514
      7505      7513      7515      7505      7513      7516      7514      7513      7515
      7514      7513      7516      7515      7513      7516      7505      7517      7518
      7505      7517      7519      7505      7517      7520      7518      7517      7519
      7518      7517      7520      7519      7517      7520      7506      7521      7522
      7506      7521      7523      7506      7521      7527      7522      7521      7523
      7522      7521      7527      7523      7521      7527      7525      7524      7526
      7525      7524      7527      7525      7524      7528      7526      7524      7527
      7526      7524      7528      7527      7524      7528      7521      7527      7524
      7524      7528      7529      7528      7529      7530      7528      7529      7531
      7528      7529      7532      7530      7529      7531      7530      7529      7532
      7531      7529      7532      7529      7532      7533      7529      7532      7534
      7529      7532      7540      7533      7532      7534      7533      7532      7540
      7534      7532      7540      7532      7534      7535      7534      7535      7536
      7534      7535      7537      7536      7535      7537      7535      7537      7538
      7535      7537      7539      7535      7537      7549      7538      7537      7539
      7538      7537      7549      7539      7537      7549      7532      7540      7541
      7532      7540      7542      7532      7540      7543      7541      7540      7542
      7541      7540      7543      7542      7540      7543      7540      7543      7544
      7543      7544      7545      7543      7544      7546      7545      7544      7546
      7544      7546      7547      7544      7546      7548      7544      7546      7596
      7547      7546      7548      7547      7546      7596      7548      7546      7596
      7537      7549      7550      7537      7549      7551      7537      7549      7552
      7550      7549      7551      7550      7549      7552      7551      7549      7552
      7549      7552      7553      7549      7552      7554      7549      7552      7555
      7553      7552      7554      7553      7552      7555      7554      7552      7555
      7552      7555      7556      7552      7555      7557      7552      7555      7558
      7556      7555      7557      7556      7555      7558      7557      7555      7558
      7555      7558      7559      7555      7558      7560      7555      7558      7561
      7559      7558      7560      7559      7558      7561      7560      7558      7561
      7558      7561      7562      7558      7561      7563      7558      7561      7564
      7562      7561      7563      7562      7561      7564      7563      7561      7564
      7561      7564      7565      7561      7564      7566      7561      7564      7567
      7565      7564      7566      7565      7564      7567      7566      7564      7567
      7564      7567      7568      7564      7567      7569      7568      7567      7569
      7567      7569      7570      7567      7569      7571      7570      7569      7571
      7569      7571      7572      7569      7571      7573      7569      7571      7574
      7572      7571      7573      7572      7571      7574      7573      7571      7574
      7571      7574      7575      7571      7574      7576      7571      7574      7577
      7575      7574      7576      7575      7574      7577      7576      7574      7577
      7574      7577      7578      7574      7577      7579      7574      7577      7580
      7578      7577      7579      7578      7577      7580      7579      7577      7580
      7577      7580      7581      7577      7580      7582      7577      7580      7583
      7581      7580      7582      7581      7580      7583      7582      7580      7583
      7580      7583      7584      7580      7583      7585      7580      7583      7586
      7584      7583      7585      7584      7583      7586      7585      7583      7586
      7583      7586      7587      7583      7586      7588      7583      7586      7589
      7587      7586      7588      7587      7586      7589      7588      7586      7589
      7586      7589      7590      7586      7589      7591      7586      7589      7592
      7590      7589      7591      7590      7589      7592      7591      7589      7592
      7589      7592      7593      7589      7592      7594      7589      7592      7595
      7593      7592      7594      7593      7592      7595      7594      7592      7595
      7546      7596      7597      7546      7596      7598      7546      7596      7599
      7597      7596      7598      7597      7596      7599      7598      7596      7599
      7596      7599      7600      7596      7599      7601      7596      7599      7602
      7600      7599      7601      7600      7599      7602      7601      7599      7602
      7599      7602      7603      7599      7602      7604      7599      7602      7605
      7603      7602      7604      7603      7602      7605      7604      7602      7605
      7602      7605      7606      7602      7605      7607      7602      7605      7608
      7606      7605      7607      7606      7605      7608      7607      7605      7608
      7605      7608      7609      7605      7608      7610      7605      7608      7611
      7609      7608      7610      7609      7608      7611      7610      7608      7611
      7608      7611      7612      7608      7611      7613      7608      7611      7614
      7612      7611      7613      7612      7611      7614      7613      7611      7614
      7611      7614      7615      7611      7614      7616      7611      7614      7617
      7615      7614      7616      7615      7614      7617      7616      7614      7617
      7614      7617      7618      7614      7617      7619      7614      7617      7620
      7618      7617      7619      7618      7617      7620      7619      7617      7620
      7617      7620      7621      7617      7620      7622      7617      7620      7623
      7621      7620      7622      7621      7620      7623      7622      7620      7623
      7620      7623      7624      7620      7623      7625      7620      7623      7626
      7624      7623      7625      7624      7623      7626      7625      7623      7626
      7623      7626      7627      7623      7626      7628      7623      7626      7629
      7627      7626      7628      7627      7626      7629      7628      7626      7629
      7626      7629      7630      7626      7629      7631      7626      7629      7632
      7630      7629      7631      7630      7629      7632      7631      7629      7632
      7629      7632      7633      7629      7632      7634      7629      7632      7635
      7633      7632      7634      7633      7632      7635      7634      7632      7635
      7632      7635      7636      7632      7635      7637      7632      7635      7638
      7636      7635      7637      7636      7635      7638      7637      7635      7638
      7640      7639      7643      7640      7639      7647      7640      7639      7651
      7643      7639      7647      7643      7639      7651      7647      7639      7651
      7639      7640      7641      7639      7640      7642      7639      7640      7655
      7641      7640      7642      7641      7640      7655      7642      7640      7655
      7639      7643      7644      7639      7643      7645      7639      7643      7646
      7644      7643      7645      7644      7643      7646      7645      7643      7646
      7639      7647      7648      7639      7647      7649      7639      7647      7650
      7648      7647      7649      7648      7647      7650      7649      7647      7650
      7639      7651      7652      7639      7651      7653      7639      7651      7654
      7652      7651      7653      7652      7651      7654      7653      7651      7654
      7640      7655      7656      7640      7655      7657      7640      7655      7661
      7656      7655      7657      7656      7655      7661      7657      7655      7661
      7659      7658      7660      7659      7658      7661      7659      7658      7662
      7660      7658      7661      7660      7658      7662      7661      7658      7662
      7655      7661      7658      7658      7662      7663      7662      7663      7664
      7662      7663      7665      7662      7663      7666      7664      7663      7665
      7664      7663      7666      7665      7663      7666      7663      7666      7667
      7663      7666      7668      7663      7666      7674      7667      7666      7668
      7667      7666      7674      7668      7666      7674      7666      7668      7669
      7668      7669      7670      7668      7669      7671      7670      7669      7671
      7669      7671      7672      7669      7671      7673      7669      7671      7683
      7672      7671      7673      7672      7671      7683      7673      7671      7683
      7666      7674      7675      7666      7674      7676      7666      7674      7677
      7675      7674      7676      7675      7674      7677      7676      7674      7677
      7674      7677      7678      7677      7678      7679      7677      7678      7680
      7679      7678      7680      7678      7680      7681      7678      7680      7682
      7678      7680      7730      7681      7680      7682      7681      7680      7730
      7682      7680      7730      7671      7683      7684      7671      7683      7685
      7671      7683      7686      7684      7683      7685      7684      7683      7686
      7685      7683      7686      7683      7686      7687      7683      7686      7688
      7683      7686      7689      7687      7686      7688      7687      7686      7689
      7688      7686      7689      7686      7689      7690      7686      7689      7691
      7686      7689      7692      7690      7689      7691      7690      7689      7692
      7691      7689      7692      7689      7692      7693      7689      7692      7694
      7689      7692      7695      7693      7692      7694      7693      7692      7695
      7694      7692      7695      7692      7695      7696      7692      7695      7697
      7692      7695      7698      7696      7695      7697      7696      7695      7698
      7697      7695      7698      7695      7698      7699      7695      7698      7700
      7695      7698      7701      7699      7698      7700      7699      7698      7701
      7700      7698      7701      7698      7701      7702      7698      7701      7703
      7702      7701      7703      7701      7703      7704      7701      7703      7705
      7704      7703      7705      7703      7705      7706      7703      7705      7707
      7703      7705      7708      7706      7705      7707      7706      7705      7708
      7707      7705      7708      7705      7708      7709      7705      7708      7710
      7705      7708      7711      7709      7708      7710      7709      7708      7711
      7710      7708      7711      7708      7711      7712      7708      7711      7713
      7708      7711      7714      7712      7711      7713      7712      7711      7714
      7713      7711      7714      7711      7714      7715      7711      7714      7716
      7711      7714      7717      7715      7714      7716      7715      7714      7717
      7716      7714      7717      7714      7717      7718      7714      7717      7719
      7714      7717      7720      7718      7717      7719      7718      7717      7720
      7719      7717      7720      7717      7720      7721      7717      7720      7722
      7717      7720      7723      7721      7720      7722      7721      7720      7723
      7722      7720      7723      7720      7723      7724      7720      7723      7725
      7720      7723      7726      7724      7723      7725      7724      7723      7726
      7725      7723      7726      7723      7726      7727      7723      7726      7728
      7723      7726      7729      7727      7726      7728      7727      7726      7729
      7728      7726      7729      7680      7730      7731      7680      7730      7732
      7680      7730      7733      7731      7730      7732      7731      7730      7733
      7732      7730      7733      7730      7733      7734      7730      7733      7735
      7730      7733      7736      7734      7733      7735      7734      7733      7736
      7735      7733      7736      7733      7736      7737      7733      7736      7738
      7733      7736      7739      7737      7736      7738      7737      7736      7739
      7738      7736      7739      7736      7739      7740      7736      7739      7741
      7736      7739      7742      7740      7739      7741      7740      7739      7742
      7741      7739      7742      7739      7742      7743      7739      7742      7744
      7739      7742      7745      7743      7742      7744      7743      7742      7745
      7744      7742      7745      7742      7745      7746      7742      7745      7747
      7742      7745      7748      7746      7745      7747      7746      7745      7748
      7747      7745      7748      7745      7748      7749      7745      7748      7750
      7745      7748      7751      7749      7748      7750      7749      7748      7751
      7750      7748      7751      7748      7751      7752      7748      7751      7753
      7748      7751      7754      7752      7751      7753      7752      7751      7754
      7753      7751      7754      7751      7754      7755      7751      7754      7756
      7751      7754      7757      7755      7754      7756      7755      7754      7757
      7756      7754      7757      7754      7757      7758      7754      7757      7759
      7754      7757      7760      7758      7757      7759      7758      7757      7760
      7759      7757      7760      7757      7760      7761      7757      7760      7762
      7757      7760      7763      7761      7760      7762      7761      7760      7763
      7762      7760      7763      7760      7763      7764      7760      7763      7765
      7760      7763      7766      7764      7763      7765      7764      7763      7766
      7765      7763      7766      7763      7766      7767      7763      7766      7768
      7763      7766      7769      7767      7766      7768      7767      7766      7769
      7768      7766      7769      7766      7769      7770      7766      7769      7771
      7766      7769      7772      7770      7769      7771      7770      7769      7772
      7771      7769      7772      7774      7773      7777      7774      7773      7781
      7774      7773      7785      7777      7773      7781      7777      7773      7785
      7781      7773      7785      7773      7774      7775      7773      7774      7776
      7773      7774      7789      7775      7774      7776      7775      7774      7789
      7776      7774      7789      7773      7777      7778      7773      7777      7779
      7773      7777      7780      7778      7777      7779      7778      7777      7780
      7779      7777      7780      7773      7781      7782      7773      7781      7783
      7773      7781      7784      7782      7781      7783      7782      7781      7784
      7783      7781      7784      7773      7785      7786      7773      7785      7787
      7773      7785      7788      7786      7785      7787      7786      7785      7788
      7787      7785      7788      7774      7789      7790      7774      7789      7791
      7774      7789      7795      7790      7789      7791      7790      7789      7795
      7791      7789      7795      7793      7792      7794      7793      7792      7795
      7793      7792      7796      7794      7792      7795      7794      7792      7796
      7795      7792      7796      7789      7795      7792      7792      7796      7797
      7796      7797      7798      7796      7797      7799      7796      7797      7800
      7798      7797      7799      7798      7797      7800      7799      7797      7800
      7797      7800      7801      7797      7800      7802      7797      7800      7808
      7801      7800      7802      7801      7800      7808      7802      7800      7808
      7800      7802      7803      7802      7803      7804      7802      7803      7805
      7804      7803      7805      7803      7805      7806      7803      7805      7807
      7803      7805      7817      7806      7805      7807      7806      7805      7817
      7807      7805      7817      7800      7808      7809      7800      7808      7810
      7800      7808      7811      7809      7808      7810      7809      7808      7811
      7810      7808      7811      7808      7811      7812      7811      7812      7813
      7811      7812      7814      7813      7812      7814      7812      7814      7815
      7812      7814      7816      7812      7814      7864      7815      7814      7816
      7815      7814      7864      7816      7814      7864      7805      7817      7818
      7805      7817      7819      7805      7817      7820      7818      7817      7819
      7818      7817      7820      7819      7817      7820      7817      7820      7821
      7817      7820      7822      7817      7820      7823      7821      7820      7822
      7821      7820      7823      7822      7820      7823      7820      7823      7824
      7820      7823      7825      7820      7823      7826      7824      7823      7825
      7824      7823      7826      7825      7823      7826      7823      7826      7827
      7823      7826      7828      7823      7826      7829      7827      7826      7828
      7827      7826      7829      7828      7826      7829      7826      7829      7830
      7826      7829      7831      7826      7829      7832      7830      7829      7831
      7830      7829      7832      7831      7829      7832      7829      7832      7833
      7829      7832      7834      7829      7832      7835      7833      7832      7834
      7833      7832      7835      7834      7832      7835      7832      7835      7836
      7832      7835      7837      7836      7835      7837      7835      7837      7838
      7835      7837      7839      7838      7837      7839      7837      7839      7840
      7837      7839      7841      7837      7839      7842      7840      7839      7841
      7840      7839      7842      7841      7839      7842      7839      7842      7843
      7839      7842      7844      7839      7842      7845      7843      7842      7844
      7843      7842      7845      7844      7842      7845      7842      7845      7846
      7842      7845      7847      7842      7845      7848      7846      7845      7847
      7846      7845      7848      7847      7845      7848      7845      7848      7849
      7845      7848      7850      7845      7848      7851      7849      7848      7850
      7849      7848      7851      7850      7848      7851      7848      7851      7852
      7848      7851      7853      7848      7851      7854      7852      7851      7853
      7852      7851      7854      7853      7851      7854      7851      7854      7855
      7851      7854      7856      7851      7854      7857      7855      7854      7856
      7855      7854      7857      7856      7854      7857      7854      7857      7858
      7854      7857      7859      7854      7857      7860      7858      7857      7859
      7858      7857      7860      7859      7857      7860      7857      7860      7861
      7857      7860      7862      7857      7860      7863      7861      7860      7862
      7861      7860      7863      7862      7860      7863      7814      7864      7865
      7814      7864      7866      7814      7864      7867      7865      7864      7866
      7865      7864      7867      7866      7864      7867      7864      7867      7868
      7864      7867      7869      7864      7867      7870      7868      7867      7869
      7868      7867      7870      7869      7867      7870      7867      7870      7871
      7867      7870      7872      7867      7870      7873      7871      7870      7872
      7871      7870      7873      7872      7870      7873      7870      7873      7874
      7870      7873      7875      7870      7873      7876      7874      7873      7875
      7874      7873      7876      7875      7873      7876      7873      7876      7877
      7873      7876      7878      7873      7876      7879      7877      7876      7878
      7877      7876      7879      7878      7876      7879      7876      7879      7880
      7876      7879      7881      7876      7879      7882      7880      7879      7881
      7880      7879      7882      7881      7879      7882      7879      7882      7883
      7879      7882      7884      7879      7882      7885      7883      7882      7884
      7883      7882      7885      7884      7882      7885      7882      7885      7886
      7882      7885      7887      7882      7885      7888      7886      7885      7887
      7886      7885      7888      7887      7885      7888      7885      7888      7889
      7885      7888      7890      7885      7888      7891      7889      7888      7890
      7889      7888      7891      7890      7888      7891      7888      7891      7892
      7888      7891      7893      7888      7891      7894      7892      7891      7893
      7892      7891      7894      7893      7891      7894      7891      7894      7895
      7891      7894      7896      7891      7894      7897      7895      7894      7896
      7895      7894      7897      7896      7894      7897      7894      7897      7898
      7894      7897      7899      7894      7897      7900      7898      7897      7899
      7898      7897      7900      7899      7897      7900      7897      7900      7901
      7897      7900      7902      7897      7900      7903      7901      7900      7902
      7901      7900      7903      7902      7900      7903      7900      7903      7904
      7900      7903      7905      7900      7903      7906      7904      7903      7905
      7904      7903      7906      7905      7903      7906      7908      7907      7911
      7908      7907      7915      7908      7907      7919      7911      7907      7915
      7911      7907      7919      7915      7907      7919      7907      7908      7909
      7907      7908      7910      7907      7908      7923      7909      7908      7910
      7909      7908      7923      7910      7908      7923      7907      7911      7912
      7907      7911      7913      7907      7911      7914      7912      7911      7913
      7912      7911      7914      7913      7911      7914      7907      7915      7916
      7907      7915      7917      7907      7915      7918      7916      7915      7917
      7916      7915      7918      7917      7915      7918      7907      7919      7920
      7907      7919      7921      7907      7919      7922      7920      7919      7921
      7920      7919      7922      7921      7919      7922      7908      7923      7924
      7908      7923      7925      7908      7923      7929      7924      7923      7925
      7924      7923      7929      7925      7923      7929      7927      7926      7928
      7927      7926      7929      7927      7926      7930      7928      7926      7929
      7928      7926      7930      7929      7926      7930      7923      7929      7926
      7926      7930      7931      7930      7931      7932      7930      7931      7933
      7930      7931      7934      7932      7931      7933      7932      7931      7934
      7933      7931      7934      7931      7934      7935      7931      7934      7936
      7931      7934      7942      7935      7934      7936      7935      7934      7942
      7936      7934      7942      7934      7936      7937      7936      7937      7938
      7936      7937      7939      7938      7937      7939      7937      7939      7940
      7937      7939      7941      7937      7939      7951      7940      7939      7941
      7940      7939      7951      7941      7939      7951      7934      7942      7943
      7934      7942      7944      7934      7942      7945      7943      7942      7944
      7943      7942      7945      7944      7942      7945      7942      7945      7946
      7945      7946      7947      7945      7946      7948      7947      7946      7948
      7946      7948      7949      7946      7948      7950      7946      7948      7998
      7949      7948      7950      7949      7948      7998      7950      7948      7998
      7939      7951      7952      7939      7951      7953      7939      7951      7954
      7952      7951      7953      7952      7951      7954      7953      7951      7954
      7951      7954      7955      7951      7954      7956      7951      7954      7957
      7955      7954      7956      7955      7954      7957      7956      7954      7957
      7954      7957      7958      7954      7957      7959      7954      7957      7960
      7958      7957      7959      7958      7957      7960      7959      7957      7960
      7957      7960      7961      7957      7960      7962      7957      7960      7963
      7961      7960      7962      7961      7960      7963      7962      7960      7963
      7960      7963      7964      7960      7963      7965      7960      7963      7966
      7964      7963      7965      7964      7963      7966      7965      7963      7966
      7963      7966      7967      7963      7966      7968      7963      7966      7969
      7967      7966      7968      7967      7966      7969      7968      7966      7969
      7966      7969      7970      7966      7969      7971      7970      7969      7971
      7969      7971      7972      7969      7971      7973      7972      7971      7973
      7971      7973      7974      7971      7973      7975      7971      7973      7976
      7974      7973      7975      7974      7973      7976      7975      7973      7976
      7973      7976      7977      7973      7976      7978      7973      7976      7979
      7977      7976      7978      7977      7976      7979      7978      7976      7979
      7976      7979      7980      7976      7979      7981      7976      7979      7982
      7980      7979      7981      7980      7979      7982      7981      7979      7982
      7979      7982      7983      7979      7982      7984      7979      7982      7985
      7983      7982      7984      7983      7982      7985      7984      7982      7985
      7982      7985      7986      7982      7985      7987      7982      7985      7988
      7986      7985      7987      7986      7985      7988      7987      7985      7988
      7985      7988      7989      7985      7988      7990      7985      7988      7991
      7989      7988      7990      7989      7988      7991      7990      7988      7991
      7988      7991      7992      7988      7991      7993      7988      7991      7994
      7992      7991      7993      7992      7991      7994      7993      7991      7994
      7991      7994      7995      7991      7994      7996      7991      7994      7997
      7995      7994      7996      7995      7994      7997      7996      7994      7997
      7948      7998      7999      7948      7998      8000      7948      7998      8001
      7999      7998      8000      7999      7998      8001      8000      7998      8001
      7998      8001      8002      7998      8001      8003      7998      8001      8004
      8002      8001      8003      8002      8001      8004      8003      8001      8004
      8001      8004      8005      8001      8004      8006      8001      8004      8007
      8005      8004      8006      8005      8004      8007      8006      8004      8007
      8004      8007      8008      8004      8007      8009      8004      8007      8010
      8008      8007      8009      8008      8007      8010      8009      8007      8010
      8007      8010      8011      8007      8010      8012      8007      8010      8013
      8011      8010      8012      8011      8010      8013      8012      8010      8013
      8010      8013      8014      8010      8013      8015      8010      8013      8016
      8014      8013      8015      8014      8013      8016      8015      8013      8016
      8013      8016      8017      8013      8016      8018      8013      8016      8019
      8017      8016      8018      8017      8016      8019      8018      8016      8019
      8016      8019      8020      8016      8019      8021      8016      8019      8022
      8020      8019      8021      8020      8019      8022      8021      8019      8022
      8019      8022      8023      8019      8022      8024      8019      8022      8025
      8023      8022      8024      8023      8022      8025      8024      8022      8025
      8022      8025      8026      8022      8025      8027      8022      8025      8028
      8026      8025      8027      8026      8025      8028      8027      8025      8028
      8025      8028      8029      8025      8028      8030      8025      8028      8031
      8029      8028      8030      8029      8028      8031      8030      8028      8031
      8028      8031      8032      8028      8031      8033      8028      8031      8034
      8032      8031      8033      8032      8031      8034      8033      8031      8034
      8031      8034      8035      8031      8034      8036      8031      8034      8037
      8035      8034      8036      8035      8034      8037      8036      8034      8037
      8034      8037      8038      8034      8037      8039      8034      8037      8040
      8038      8037      8039      8038      8037      8040      8039      8037      8040
      8042      8041      8045      8042      8041      8049      8042      8041      8053
      8045      8041      8049      8045      8041      8053      8049      8041      8053
      8041      8042      8043      8041      8042      8044      8041      8042      8057
      8043      8042      8044      8043      8042      8057      8044      8042      8057
      8041      8045      8046      8041      8045      8047      8041      8045      8048
      8046      8045      8047      8046      8045      8048      8047      8045      8048
      8041      8049      8050      8041      8049      8051      8041      8049      8052
      8050      8049      8051      8050      8049      8052      8051      8049      8052
      8041      8053      8054      8041      8053      8055      8041      8053      8056
      8054      8053      8055      8054      8053      8056      8055      8053      8056
      8042      8057      8058      8042      8057      8059      8042      8057      8063
      8058      8057      8059      8058      8057      8063      8059      8057      8063
      8061      8060      8062      8061      8060      8063      8061      8060      8064
      8062      8060      8063      8062      8060      8064      8063      8060      8064
      8057      8063      8060      8060      8064      8065      8064      8065      8066
      8064      8065      8067      8064      8065      8068      8066      8065      8067
      8066      8065      8068      8067      8065      8068      8065      8068      8069
      8065      8068      8070      8065      8068      8076      8069      8068      8070
      8069      8068      8076      8070      8068      8076      8068      8070      8071
      8070      8071      8072      8070      8071      8073      8072      8071      8073
      8071      8073      8074      8071      8073      8075      8071      8073      8085
      8074      8073      8075      8074      8073      8085      8075      8073      8085
      8068      8076      8077      8068      8076      8078      8068      8076      8079
      8077      8076      8078      8077      8076      8079      8078      8076      8079
      8076      8079      8080      8079      8080      8081      8079      8080      8082
      8081      8080      8082      8080      8082      8083      8080      8082      8084
      8080      8082      8132      8083      8082      8084      8083      8082      8132
      8084      8082      8132      8073      8085      8086      8073      8085      8087
      8073      8085      8088      8086      8085      8087      8086      8085      8088
      8087      8085      8088      8085      8088      8089      8085      8088      8090
      8085      8088      8091      8089      8088      8090      8089      8088      8091
      8090      8088      8091      8088      8091      8092      8088      8091      8093
      8088      8091      8094      8092      8091      8093      8092      8091      8094
      8093      8091      8094      8091      8094      8095      8091      8094      8096
      8091      8094      8097      8095      8094      8096      8095      8094      8097
      8096      8094      8097      8094      8097      8098      8094      8097      8099
      8094      8097      8100      8098      8097      8099      8098      8097      8100
      8099      8097      8100      8097      8100      8101      8097      8100      8102
      8097      8100      8103      8101      8100      8102      8101      8100      8103
      8102      8100      8103      8100      8103      8104      8100      8103      8105
      8104      8103      8105      8103      8105      8106      8103      8105      8107
      8106      8105      8107      8105      8107      8108      8105      8107      8109
      8105      8107      8110      8108      8107      8109      8108      8107      8110
      8109      8107      8110      8107      8110      8111      8107      8110      8112
      8107      8110      8113      8111      8110      8112      8111      8110      8113
      8112      8110      8113      8110      8113      8114      8110      8113      8115
      8110      8113      8116      8114      8113      8115      8114      8113      8116
      8115      8113      8116      8113      8116      8117      8113      8116      8118
      8113      8116      8119      8117      8116      8118      8117      8116      8119
      8118      8116      8119      8116      8119      8120      8116      8119      8121
      8116      8119      8122      8120      8119      8121      8120      8119      8122
      8121      8119      8122      8119      8122      8123      8119      8122      8124
      8119      8122      8125      8123      8122      8124      8123      8122      8125
      8124      8122      8125      8122      8125      8126      8122      8125      8127
      8122      8125      8128      8126      8125      8127      8126      8125      8128
      8127      8125      8128      8125      8128      8129      8125      8128      8130
      8125      8128      8131      8129      8128      8130      8129      8128      8131
      8130      8128      8131      8082      8132      8133      8082      8132      8134
      8082      8132      8135      8133      8132      8134      8133      8132      8135
      8134      8132      8135      8132      8135      8136      8132      8135      8137
      8132      8135      8138      8136      8135      8137      8136      8135      8138
      8137      8135      8138      8135      8138      8139      8135      8138      8140
      8135      8138      8141      8139      8138      8140      8139      8138      8141
      8140      8138      8141      8138      8141      8142      8138      8141      8143
      8138      8141      8144      8142      8141      8143      8142      8141      8144
      8143      8141      8144      8141      8144      8145      8141      8144      8146
      8141      8144      8147      8145      8144      8146      8145      8144      8147
      8146      8144      8147      8144      8147      8148      8144      8147      8149
      8144      8147      8150      8148      8147      8149      8148      8147      8150
      8149      8147      8150      8147      8150      8151      8147      8150      8152
      8147      8150      8153      8151      8150      8152      8151      8150      8153
      8152      8150      8153      8150      8153      8154      8150      8153      8155
      8150      8153      8156      8154      8153      8155      8154      8153      8156
      8155      8153      8156      8153      8156      8157      8153      8156      8158
      8153      8156      8159      8157      8156      8158      8157      8156      8159
      8158      8156      8159      8156      8159      8160      8156      8159      8161
      8156      8159      8162      8160      8159      8161      8160      8159      8162
      8161      8159      8162      8159      8162      8163      8159      8162      8164
      8159      8162      8165      8163      8162      8164      8163      8162      8165
      8164      8162      8165      8162      8165      8166      8162      8165      8167
      8162      8165      8168      8166      8165      8167      8166      8165      8168
      8167      8165      8168      8165      8168      8169      8165      8168      8170
      8165      8168      8171      8169      8168      8170      8169      8168      8171
      8170      8168      8171      8168      8171      8172      8168      8171      8173
      8168      8171      8174      8172      8171      8173      8172      8171      8174
      8173      8171      8174      8176      8175      8179      8176      8175      8183
      8176      8175      8187      8179      8175      8183      8179      8175      8187
      8183      8175      8187      8175      8176      8177      8175      8176      8178
      8175      8176      8191      8177      8176      8178      8177      8176      8191
      8178      8176      8191      8175      8179      8180      8175      8179      8181
      8175      8179      8182      8180      8179      8181      8180      8179      8182
      8181      8179      8182      8175      8183      8184      8175      8183      8185
      8175      8183      8186      8184      8183      8185      8184      8183      8186
      8185      8183      8186      8175      8187      8188      8175      8187      8189
      8175      8187      8190      8188      8187      8189      8188      8187      8190
      8189      8187      8190      8176      8191      8192      8176      8191      8193
      8176      8191      8197      8192      8191      8193      8192      8191      8197
      8193      8191      8197      8195      8194      8196      8195      8194      8197
      8195      8194      8198      8196      8194      8197      8196      8194      8198
      8197      8194      8198      8191      8197      8194      8194      8198      8199
      8198      8199      8200      8198      8199      8201      8198      8199      8202
      8200      8199      8201      8200      8199      8202      8201      8199      8202
      8199      8202      8203      8199      8202      8204      8199      8202      8210
      8203      8202      8204      8203      8202      8210      8204      8202      8210
      8202      8204      8205      8204      8205      8206      8204      8205      8207
      8206      8205      8207      8205      8207      8208      8205      8207      8209
      8205      8207      8219      8208      8207      8209      8208      8207      8219
      8209      8207      8219      8202      8210      8211      8202      8210      8212
      8202      8210      8213      8211      8210      8212      8211      8210      8213
      8212      8210      8213      8210      8213      8214      8213      8214      8215
      8213      8214      8216      8215      8214      8216      8214      8216      8217
      8214      8216      8218      8214      8216      8266      8217      8216      8218
      8217      8216      8266      8218      8216      8266      8207      8219      8220
      8207      8219      8221      8207      8219      8222      8220      8219      8221
      8220      8219      8222      8221      8219      8222      8219      8222      8223
      8219      8222      8224      8219      8222      8225      8223      8222      8224
      8223      8222      8225      8224      8222      8225      8222      8225      8226
      8222      8225      8227      8222      8225      8228      8226      8225      8227
      8226      8225      8228      8227      8225      8228      8225      8228      8229
      8225      8228      8230      8225      8228      8231      8229      8228      8230
      8229      8228      8231      8230      8228      8231      8228      8231      8232
      8228      8231      8233      8228      8231      8234      8232      8231      8233
      8232      8231      8234      8233      8231      8234      8231      8234      8235
      8231      8234      8236      8231      8234      8237      8235      8234      8236
      8235      8234      8237      8236      8234      8237      8234      8237      8238
      8234      8237      8239      8238      8237      8239      8237      8239      8240
      8237      8239      8241      8240      8239      8241      8239      8241      8242
      8239      8241      8243      8239      8241      8244      8242      8241      8243
      8242      8241      8244      8243      8241      8244      8241      8244      8245
      8241      8244      8246      8241      8244      8247      8245      8244      8246
      8245      8244      8247      8246      8244      8247      8244      8247      8248
      8244      8247      8249      8244      8247      8250      8248      8247      8249
      8248      8247      8250      8249      8247      8250      8247      8250      8251
      8247      8250      8252      8247      8250      8253      8251      8250      8252
      8251      8250      8253      8252      8250      8253      8250      8253      8254
      8250      8253      8255      8250      8253      8256      8254      8253      8255
      8254      8253      8256      8255      8253      8256      8253      8256      8257
      8253      8256      8258      8253      8256      8259      8257      8256      8258
      8257      8256      8259      8258      8256      8259      8256      8259      8260
      8256      8259      8261      8256      8259      8262      8260      8259      8261
      8260      8259      8262      8261      8259      8262      8259      8262      8263
      8259      8262      8264      8259      8262      8265      8263      8262      8264
      8263      8262      8265      8264      8262      8265      8216      8266      8267
      8216      8266      8268      8216      8266      8269      8267      8266      8268
      8267      8266      8269      8268      8266      8269      8266      8269      8270
      8266      8269      8271      8266      8269      8272      8270      8269      8271
      8270      8269      8272      8271      8269      8272      8269      8272      8273
      8269      8272      8274      8269      8272      8275      8273      8272      8274
      8273      8272      8275      8274      8272      8275      8272      8275      8276
      8272      8275      8277      8272      8275      8278      8276      8275      8277
      8276      8275      8278      8277      8275      8278      8275      8278      8279
      8275      8278      8280      8275      8278      8281      8279      8278      8280
      8279      8278      8281      8280      8278      8281      8278      8281      8282
      8278      8281      8283      8278      8281      8284      8282      8281      8283
      8282      8281      8284      8283      8281      8284      8281      8284      8285
      8281      8284      8286      8281      8284      8287      8285      8284      8286
      8285      8284      8287      8286      8284      8287      8284      8287      8288
      8284      8287      8289      8284      8287      8290      8288      8287      8289
      8288      8287      8290      8289      8287      8290      8287      8290      8291
      8287      8290      8292      8287      8290      8293      8291      8290      8292
      8291      8290      8293      8292      8290      8293      8290      8293      8294
      8290      8293      8295      8290      8293      8296      8294      8293      8295
      8294      8293      8296      8295      8293      8296      8293      8296      8297
      8293      8296      8298      8293      8296      8299      8297      8296      8298
      8297      8296      8299      8298      8296      8299      8296      8299      8300
      8296      8299      8301      8296      8299      8302      8300      8299      8301
      8300      8299      8302      8301      8299      8302      8299      8302      8303
      8299      8302      8304      8299      8302      8305      8303      8302      8304
      8303      8302      8305      8304      8302      8305      8302      8305      8306
      8302      8305      8307      8302      8305      8308      8306      8305      8307
      8306      8305      8308      8307      8305      8308      8310      8309      8313
      8310      8309      8317      8310      8309      8321      8313      8309      8317
      8313      8309      8321      8317      8309      8321      8309      8310      8311
      8309      8310      8312      8309      8310      8325      8311      8310      8312
      8311      8310      8325      8312      8310      8325      8309      8313      8314
      8309      8313      8315      8309      8313      8316      8314      8313      8315
      8314      8313      8316      8315      8313      8316      8309      8317      8318
      8309      8317      8319      8309      8317      8320      8318      8317      8319
      8318      8317      8320      8319      8317      8320      8309      8321      8322
      8309      8321      8323      8309      8321      8324      8322      8321      8323
      8322      8321      8324      8323      8321      8324      8310      8325      8326
      8310      8325      8327      8310      8325      8331      8326      8325      8327
      8326      8325      8331      8327      8325      8331      8329      8328      8330
      8329      8328      8331      8329      8328      8332      8330      8328      8331
      8330      8328      8332      8331      8328      8332      8325      8331      8328
      8328      8332      8333      8332      8333      8334      8332      8333      8335
      8332      8333      8336      8334      8333      8335      8334      8333      8336
      8335      8333      8336      8333      8336      8337      8333      8336      8338
      8333      8336      8344      8337      8336      8338      8337      8336      8344
      8338      8336      8344      8336      8338      8339      8338      8339      8340
      8338      8339      8341      8340      8339      8341      8339      8341      8342
      8339      8341      8343      8339      8341      8353      8342      8341      8343
      8342      8341      8353      8343      8341      8353      8336      8344      8345
      8336      8344      8346      8336      8344      8347      8345      8344      8346
      8345      8344      8347      8346      8344      8347      8344      8347      8348
      8347      8348      8349      8347      8348      8350      8349      8348      8350
      8348      8350      8351      8348      8350      8352      8348      8350      8400
      8351      8350      8352      8351      8350      8400      8352      8350      8400
      8341      8353      8354      8341      8353      8355      8341      8353      8356
      8354      8353      8355      8354      8353      8356      8355      8353      8356
      8353      8356      8357      8353      8356      8358      8353      8356      8359
      8357      8356      8358      8357      8356      8359      8358      8356      8359
      8356      8359      8360      8356      8359      8361      8356      8359      8362
      8360      8359      8361      8360      8359      8362      8361      8359      8362
      8359      8362      8363      8359      8362      8364      8359      8362      8365
      8363      8362      8364      8363      8362      8365      8364      8362      8365
      8362      8365      8366      8362      8365      8367      8362      8365      8368
      8366      8365      8367      8366      8365      8368      8367      8365      8368
      8365      8368      8369      8365      8368      8370      8365      8368      8371
      8369      8368      8370      8369      8368      8371      8370      8368      8371
      8368      8371      8372      8368      8371      8373      8372      8371      8373
      8371      8373      8374      8371      8373      8375      8374      8373      8375
      8373      8375      8376      8373      8375      8377      8373      8375      8378
      8376      8375      8377      8376      8375      8378      8377      8375      8378
      8375      8378      8379      8375      8378      8380      8375      8378      8381
      8379      8378      8380      8379      8378      8381      8380      8378      8381
      8378      8381      8382      8378      8381      8383      8378      8381      8384
      8382      8381      8383      8382      8381      8384      8383      8381      8384
      8381      8384      8385      8381      8384      8386      8381      8384      8387
      8385      8384      8386      8385      8384      8387      8386      8384      8387
      8384      8387      8388      8384      8387      8389      8384      8387      8390
      8388      8387      8389      8388      8387      8390      8389      8387      8390
      8387      8390      8391      8387      8390      8392      8387      8390      8393
      8391      8390      8392      8391      8390      8393      8392      8390      8393
      8390      8393      8394      8390      8393      8395      8390      8393      8396
      8394      8393      8395      8394      8393      8396      8395      8393      8396
      8393      8396      8397      8393      8396      8398      8393      8396      8399
      8397      8396      8398      8397      8396      8399      8398      8396      8399
      8350      8400      8401      8350      8400      8402      8350      8400      8403
      8401      8400      8402      8401      8400      8403      8402      8400      8403
      8400      8403      8404      8400      8403      8405      8400      8403      8406
      8404      8403      8405      8404      8403      8406      8405      8403      8406
      8403      8406      8407      8403      8406      8408      8403      8406      8409
      8407      8406      8408      8407      8406      8409      8408      8406      8409
      8406      8409      8410      8406      8409      8411      8406      8409      8412
      8410      8409      8411      8410      8409      8412      8411      8409      8412
      8409      8412      8413      8409      8412      8414      8409      8412      8415
      8413      8412      8414      8413      8412      8415      8414      8412      8415
      8412      8415      8416      8412      8415      8417      8412      8415      8418
      8416      8415      8417      8416      8415      8418      8417      8415      8418
      8415      8418      8419      8415      8418      8420      8415      8418      8421
      8419      8418      8420      8419      8418      8421      8420      8418      8421
      8418      8421      8422      8418      8421      8423      8418      8421      8424
      8422      8421      8423      8422      8421      8424      8423      8421      8424
      8421      8424      8425      8421      8424      8426      8421      8424      8427
      8425      8424      8426      8425      8424      8427      8426      8424      8427
      8424      8427      8428      8424      8427      8429      8424      8427      8430
      8428      8427      8429      8428      8427      8430      8429      8427      8430
      8427      8430      8431      8427      8430      8432      8427      8430      8433
      8431      8430      8432      8431      8430      8433      8432      8430      8433
      8430      8433      8434      8430      8433      8435      8430      8433      8436
      8434      8433      8435      8434      8433      8436      8435      8433      8436
      8433      8436      8437      8433      8436      8438      8433      8436      8439
      8437      8436      8438      8437      8436      8439      8438      8436      8439
      8436      8439      8440      8436      8439      8441      8436      8439      8442
      8440      8439      8441      8440      8439      8442      8441      8439      8442
      8444      8443      8447      8444      8443      8451      8444      8443      8455
      8447      8443      8451      8447      8443      8455      8451      8443      8455
      8443      8444      8445      8443      8444      8446      8443      8444      8459
      8445      8444      8446      8445      8444      8459      8446      8444      8459
      8443      8447      8448      8443      8447      8449      8443      8447      8450
      8448      8447      8449      8448      8447      8450      8449      8447      8450
      8443      8451      8452      8443      8451      8453      8443      8451      8454
      8452      8451      8453      8452      8451      8454      8453      8451      8454
      8443      8455      8456      8443      8455      8457      8443      8455      8458
      8456      8455      8457      8456      8455      8458      8457      8455      8458
      8444      8459      8460      8444      8459      8461      8444      8459      8465
      8460      8459      8461      8460      8459      8465      8461      8459      8465
      8463      8462      8464      8463      8462      8465      8463      8462      8466
      8464      8462      8465      8464      8462      8466      8465      8462      8466
      8459      8465      8462      8462      8466      8467      8466      8467      8468
      8466      8467      8469      8466      8467      8470      8468      8467      8469
      8468      8467      8470      8469      8467      8470      8467      8470      8471
      8467      8470      8472      8467      8470      8478      8471      8470      8472
      8471      8470      8478      8472      8470      8478      8470      8472      8473
      8472      8473      8474      8472      8473      8475      8474      8473      8475
      8473      8475      8476      8473      8475      8477      8473      8475      8487
      8476      8475      8477      8476      8475      8487      8477      8475      8487
      8470      8478      8479      8470      8478      8480      8470      8478      8481
      8479      8478      8480      8479      8478      8481      8480      8478      8481
      8478      8481      8482      8481      8482      8483      8481      8482      8484
      8483      8482      8484      8482      8484      8485      8482      8484      8486
      8482      8484      8534      8485      8484      8486      8485      8484      8534
      8486      8484      8534      8475      8487      8488      8475      8487      8489
      8475      8487      8490      8488      8487      8489      8488      8487      8490
      8489      8487      8490      8487      8490      8491      8487      8490      8492
      8487      8490      8493      8491      8490      8492      8491      8490      8493
      8492      8490      8493      8490      8493      8494      8490      8493      8495
      8490      8493      8496      8494      8493      8495      8494      8493      8496
      8495      8493      8496      8493      8496      8497      8493      8496      8498
      8493      8496      8499      8497      8496      8498      8497      8496      8499
      8498      8496      8499      8496      8499      8500      8496      8499      8501
      8496      8499      8502      8500      8499      8501      8500      8499      8502
      8501      8499      8502      8499      8502      8503      8499      8502      8504
      8499      8502      8505      8503      8502      8504      8503      8502      8505
      8504      8502      8505      8502      8505      8506      8502      8505      8507
      8506      8505      8507      8505      8507      8508      8505      8507      8509
      8508      8507      8509      8507      8509      8510      8507      8509      8511
      8507      8509      8512      8510      8509      8511      8510      8509      8512
      8511      8509      8512      8509      8512      8513      8509      8512      8514
      8509      8512      8515      8513      8512      8514      8513      8512      8515
      8514      8512      8515      8512      8515      8516      8512      8515      8517
      8512      8515      8518      8516      8515      8517      8516      8515      8518
      8517      8515      8518      8515      8518      8519      8515      8518      8520
      8515      8518      8521      8519      8518      8520      8519      8518      8521
      8520      8518      8521      8518      8521      8522      8518      8521      8523
      8518      8521      8524      8522      8521      8523      8522      8521      8524
      8523      8521      8524      8521      8524      8525      8521      8524      8526
      8521      8524      8527      8525      8524      8526      8525      8524      8527
      8526      8524      8527      8524      8527      8528      8524      8527      8529
      8524      8527      8530      8528      8527      8529      8528      8527      8530
      8529      8527      8530      8527      8530      8531      8527      8530      8532
      8527      8530      8533      8531      8530      8532      8531      8530      8533
      8532      8530      8533      8484      8534      8535      8484      8534      8536
      8484      8534      8537      8535      8534      8536      8535      8534      8537
      8536      8534      8537      8534      8537      8538      8534      8537      8539
      8534      8537      8540      8538      8537      8539      8538      8537      8540
      8539      8537      8540      8537      8540      8541      8537      8540      8542
      8537      8540      8543      8541      8540      8542      8541      8540      8543
      8542      8540      8543      8540      8543      8544      8540      8543      8545
      8540      8543      8546      8544      8543      8545      8544      8543      8546
      8545      8543      8546      8543      8546      8547      8543      8546      8548
      8543      8546      8549      8547      8546      8548      8547      8546      8549
      8548      8546      8549      8546      8549      8550      8546      8549      8551
      8546      8549      8552      8550      8549      8551      8550      8549      8552
      8551      8549      8552      8549      8552      8553      8549      8552      8554
      8549      8552      8555      8553      8552      8554      8553      8552      8555
      8554      8552      8555      8552      8555      8556      8552      8555      8557
      8552      8555      8558      8556      8555      8557      8556      8555      8558
      8557      8555      8558      8555      8558      8559      8555      8558      8560
      8555      8558      8561      8559      8558      8560      8559      8558      8561
      8560      8558      8561      8558      8561      8562      8558      8561      8563
      8558      8561      8564      8562      8561      8563      8562      8561      8564
      8563      8561      8564      8561      8564      8565      8561      8564      8566
      8561      8564      8567      8565      8564      8566      8565      8564      8567
      8566      8564      8567      8564      8567      8568      8564      8567      8569
      8564      8567      8570      8568      8567      8569      8568      8567      8570
      8569      8567      8570      8567      8570      8571      8567      8570      8572
      8567      8570      8573      8571      8570      8572      8571      8570      8573
      8572      8570      8573      8570      8573      8574      8570      8573      8575
      8570      8573      8576      8574      8573      8575      8574      8573      8576
      8575      8573      8576      8578      8577      8581      8578      8577      8585
      8578      8577      8589      8581      8577      8585      8581      8577      8589
      8585      8577      8589      8577      8578      8579      8577      8578      8580
      8577      8578      8593      8579      8578      8580      8579      8578      8593
      8580      8578      8593      8577      8581      8582      8577      8581      8583
      8577      8581      8584      8582      8581      8583      8582      8581      8584
      8583      8581      8584      8577      8585      8586      8577      8585      8587
      8577      8585      8588      8586      8585      8587      8586      8585      8588
      8587      8585      8588      8577      8589      8590      8577      8589      8591
      8577      8589      8592      8590      8589      8591      8590      8589      8592
      8591      8589      8592      8578      8593      8594      8578      8593      8595
      8578      8593      8599      8594      8593      8595      8594      8593      8599
      8595      8593      8599      8597      8596      8598      8597      8596      8599
      8597      8596      8600      8598      8596      8599      8598      8596      8600
      8599      8596      8600      8593      8599      8596      8596      8600      8601
      8600      8601      8602      8600      8601      8603      8600      8601      8604
      8602      8601      8603      8602      8601      8604      8603      8601      8604
      8601      8604      8605      8601      8604      8606      8601      8604      8612
      8605      8604      8606      8605      8604      8612      8606      8604      8612
      8604      8606      8607      8606      8607      8608      8606      8607      8609
      8608      8607      8609      8607      8609      8610      8607      8609      8611
      8607      8609      8621      8610      8609      8611      8610      8609      8621
      8611      8609      8621      8604      8612      8613      8604      8612      8614
      8604      8612      8615      8613      8612      8614      8613      8612      8615
      8614      8612      8615      8612      8615      8616      8615      8616      8617
      8615      8616      8618      8617      8616      8618      8616      8618      8619
      8616      8618      8620      8616      8618      8668      8619      8618      8620
      8619      8618      8668      8620      8618      8668      8609      8621      8622
      8609      8621      8623      8609      8621      8624      8622      8621      8623
      8622      8621      8624      8623      8621      8624      8621      8624      8625
      8621      8624      8626      8621      8624      8627      8625      8624      8626
      8625      8624      8627      8626      8624      8627      8624      8627      8628
      8624      8627      8629      8624      8627      8630      8628      8627      8629
      8628      8627      8630      8629      8627      8630      8627      8630      8631
      8627      8630      8632      8627      8630      8633      8631      8630      8632
      8631      8630      8633      8632      8630      8633      8630      8633      8634
      8630      8633      8635      8630      8633      8636      8634      8633      8635
      8634      8633      8636      8635      8633      8636      8633      8636      8637
      8633      8636      8638      8633      8636      8639      8637      8636      8638
      8637      8636      8639      8638      8636      8639      8636      8639      8640
      8636      8639      8641      8640      8639      8641      8639      8641      8642
      8639      8641      8643      8642      8641      8643      8641      8643      8644
      8641      8643      8645      8641      8643      8646      8644      8643      8645
      8644      8643      8646      8645      8643      8646      8643      8646      8647
      8643      8646      8648      8643      8646      8649      8647      8646      8648
      8647      8646      8649      8648      8646      8649      8646      8649      8650
      8646      8649      8651      8646      8649      8652      8650      8649      8651
      8650      8649      8652      8651      8649      8652      8649      8652      8653
      8649      8652      8654      8649      8652      8655      8653      8652      8654
      8653      8652      8655      8654      8652      8655      8652      8655      8656
      8652      8655      8657      8652      8655      8658      8656      8655      8657
      8656      8655      8658      8657      8655      8658      8655      8658      8659
      8655      8658      8660      8655      8658      8661      8659      8658      8660
      8659      8658      8661      8660      8658      8661      8658      8661      8662
      8658      8661      8663      8658      8661      8664      8662      8661      8663
      8662      8661      8664      8663      8661      8664      8661      8664      8665
      8661      8664      8666      8661      8664      8667      8665      8664      8666
      8665      8664      8667      8666      8664      8667      8618      8668      8669
      8618      8668      8670      8618      8668      8671      8669      8668      8670
      8669      8668      8671      8670      8668      8671      8668      8671      8672
      8668      8671      8673      8668      8671      8674      8672      8671      8673
      8672      8671      8674      8673      8671      8674      8671      8674      8675
      8671      8674      8676      8671      8674      8677      8675      8674      8676
      8675      8674      8677      8676      8674      8677      8674      8677      8678
      8674      8677      8679      8674      8677      8680      8678      8677      8679
      8678      8677      8680      8679      8677      8680      8677      8680      8681
      8677      8680      8682      8677      8680      8683      8681      8680      8682
      8681      8680      8683      8682      8680      8683      8680      8683      8684
      8680      8683      8685      8680      8683      8686      8684      8683      8685
      8684      8683      8686      8685      8683      8686      8683      8686      8687
      8683      8686      8688      8683      8686      8689      8687      8686      8688
      8687      8686      8689      8688      8686      8689      8686      8689      8690
      8686      8689      8691      8686      8689      8692      8690      8689      8691
      8690      8689      8692      8691      8689      8692      8689      8692      8693
      8689      8692      8694      8689      8692      8695      8693      8692      8694
      8693      8692      8695      8694      8692      8695      8692      8695      8696
      8692      8695      8697      8692      8695      8698      8696      8695      8697
      8696      8695      8698      8697      8695      8698      8695      8698      8699
      8695      8698      8700      8695      8698      8701      8699      8698      8700
      8699      8698      8701      8700      8698      8701      8698      8701      8702
      8698      8701      8703      8698      8701      8704      8702      8701      8703
      8702      8701      8704      8703      8701      8704      8701      8704      8705
      8701      8704      8706      8701      8704      8707      8705      8704      8706
      8705      8704      8707      8706      8704      8707      8704      8707      8708
      8704      8707      8709      8704      8707      8710      8708      8707      8709
      8708      8707      8710      8709      8707      8710      8712      8711      8715
      8712      8711      8719      8712      8711      8723      8715      8711      8719
      8715      8711      8723      8719      8711      8723      8711      8712      8713
      8711      8712      8714      8711      8712      8727      8713      8712      8714
      8713      8712      8727      8714      8712      8727      8711      8715      8716
      8711      8715      8717      8711      8715      8718      8716      8715      8717
      8716      8715      8718      8717      8715      8718      8711      8719      8720
      8711      8719      8721      8711      8719      8722      8720      8719      8721
      8720      8719      8722      8721      8719      8722      8711      8723      8724
      8711      8723      8725      8711      8723      8726      8724      8723      8725
      8724      8723      8726      8725      8723      8726      8712      8727      8728
      8712      8727      8729      8712      8727      8733      8728      8727      8729
      8728      8727      8733      8729      8727      8733      8731      8730      8732
      8731      8730      8733      8731      8730      8734      8732      8730      8733
      8732      8730      8734      8733      8730      8734      8727      8733      8730
      8730      8734      8735      8734      8735      8736      8734      8735      8737
      8734      8735      8738      8736      8735      8737      8736      8735      8738
      8737      8735      8738      8735      8738      8739      8735      8738      8740
      8735      8738      8746      8739      8738      8740      8739      8738      8746
      8740      8738      8746      8738      8740      8741      8740      8741      8742
      8740      8741      8743      8742      8741      8743      8741      8743      8744
      8741      8743      8745      8741      8743      8755      8744      8743      8745
      8744      8743      8755      8745      8743      8755      8738      8746      8747
      8738      8746      8748      8738      8746      8749      8747      8746      8748
      8747      8746      8749      8748      8746      8749      8746      8749      8750
      8749      8750      8751      8749      8750      8752      8751      8750      8752
      8750      8752      8753      8750      8752      8754      8750      8752      8802
      8753      8752      8754      8753      8752      8802      8754      8752      8802
      8743      8755      8756      8743      8755      8757      8743      8755      8758
      8756      8755      8757      8756      8755      8758      8757      8755      8758
      8755      8758      8759      8755      8758      8760      8755      8758      8761
      8759      8758      8760      8759      8758      8761      8760      8758      8761
      8758      8761      8762      8758      8761      8763      8758      8761      8764
      8762      8761      8763      8762      8761      8764      8763      8761      8764
      8761      8764      8765      8761      8764      8766      8761      8764      8767
      8765      8764      8766      8765      8764      8767      8766      8764      8767
      8764      8767      8768      8764      8767      8769      8764      8767      8770
      8768      8767      8769      8768      8767      8770      8769      8767      8770
      8767      8770      8771      8767      8770      8772      8767      8770      8773
      8771      8770      8772      8771      8770      8773      8772      8770      8773
      8770      8773      8774      8770      8773      8775      8774      8773      8775
      8773      8775      8776      8773      8775      8777      8776      8775      8777
      8775      8777      8778      8775      8777      8779      8775      8777      8780
      8778      8777      8779      8778      8777      8780      8779      8777      8780
      8777      8780      8781      8777      8780      8782      8777      8780      8783
      8781      8780      8782      8781      8780      8783      8782      8780      8783
      8780      8783      8784      8780      8783      8785      8780      8783      8786
      8784      8783      8785      8784      8783      8786      8785      8783      8786
      8783      8786      8787      8783      8786      8788      8783      8786      8789
      8787      8786      8788      8787      8786      8789      8788      8786      8789
      8786      8789      8790      8786      8789      8791      8786      8789      8792
      8790      8789      8791      8790      8789      8792      8791      8789      8792
      8789      8792      8793      8789      8792      8794      8789      8792      8795
      8793      8792      8794      8793      8792      8795      8794      8792      8795
      8792      8795      8796      8792      8795      8797      8792      8795      8798
      8796      8795      8797      8796      8795      8798      8797      8795      8798
      8795      8798      8799      8795      8798      8800      8795      8798      8801
      8799      8798      8800      8799      8798      8801      8800      8798      8801
      8752      8802      8803      8752      8802      8804      8752      8802      8805
      8803      8802      8804      8803      8802      8805      8804      8802      8805
      8802      8805      8806      8802      8805      8807      8802      8805      8808
      8806      8805      8807      8806      8805      8808      8807      8805      8808
      8805      8808      8809      8805      8808      8810      8805      8808      8811
      8809      8808      8810      8809      8808      8811      8810      8808      8811
      8808      8811      8812      8808      8811      8813      8808      8811      8814
      8812      8811      8813      8812      8811      8814      8813      8811      8814
      8811      8814      8815      8811      8814      8816      8811      8814      8817
      8815      8814      8816      8815      8814      8817      8816      8814      8817
      8814      8817      8818      8814      8817      8819      8814      8817      8820
      8818      8817      8819      8818      8817      8820      8819      8817      8820
      8817      8820      8821      8817      8820      8822      8817      8820      8823
      8821      8820      8822      8821      8820      8823      8822      8820      8823
      8820      8823      8824      8820      8823      8825      8820      8823      8826
      8824      8823      8825      8824      8823      8826      8825      8823      8826
      8823      8826      8827      8823      8826      8828      8823      8826      8829
      8827      8826      8828      8827      8826      8829      8828      8826      8829
      8826      8829      8830      8826      8829      8831      8826      8829      8832
      8830      8829      8831      8830      8829      8832      8831      8829      8832
      8829      8832      8833      8829      8832      8834      8829      8832      8835
      8833      8832      8834      8833      8832      8835      8834      8832      8835
      8832      8835      8836      8832      8835      8837      8832      8835      8838
      8836      8835      8837      8836      8835      8838      8837      8835      8838
      8835      8838      8839      8835      8838      8840      8835      8838      8841
      8839      8838      8840      8839      8838      8841      8840      8838      8841
      8838      8841      8842      8838      8841      8843      8838      8841      8844
      8842      8841      8843      8842      8841      8844      8843      8841      8844
      8846      8845      8849      8846      8845      8853      8846      8845      8857
      8849      8845      8853      8849      8845      8857      8853      8845      8857
      8845      8846      8847      8845      8846      8848      8845      8846      8861
      8847      8846      8848      8847      8846      8861      8848      8846      8861
      8845      8849      8850      8845      8849      8851      8845      8849      8852
      8850      8849      8851      8850      8849      8852      8851      8849      8852
      8845      8853      8854      8845      8853      8855      8845      8853      8856
      8854      8853      8855      8854      8853      8856      8855      8853      8856
      8845      8857      8858      8845      8857      8859      8845      8857      8860
      8858      8857      8859      8858      8857      8860      8859      8857      8860
      8846      8861      8862      8846      8861      8863      8846      8861      8867
      8862      8861      8863      8862      8861      8867      8863      8861      8867
      8865      8864      8866      8865      8864      8867      8865      8864      8868
      8866      8864      8867      8866      8864      8868      8867      8864      8868
      8861      8867      8864      8864      8868      8869      8868      8869      8870
      8868      8869      8871      8868      8869      8872      8870      8869      8871
      8870      8869      8872      8871      8869      8872      8869      8872      8873
      8869      8872      8874      8869      8872      8880      8873      8872      8874
      8873      8872      8880      8874      8872      8880      8872      8874      8875
      8874      8875      8876      8874      8875      8877      8876      8875      8877
      8875      8877      8878      8875      8877      8879      8875      8877      8889
      8878      8877      8879      8878      8877      8889      8879      8877      8889
      8872      8880      8881      8872      8880      8882      8872      8880      8883
      8881      8880      8882      8881      8880      8883      8882      8880      8883
      8880      8883      8884      8883      8884      8885      8883      8884      8886
      8885      8884      8886      8884      8886      8887      8884      8886      8888
      8884      8886      8936      8887      8886      8888      8887      8886      8936
      8888      8886      8936      8877      8889      8890      8877      8889      8891
      8877      8889      8892      8890      8889      8891      8890      8889      8892
      8891      8889      8892      8889      8892      8893      8889      8892      8894
      8889      8892      8895      8893      8892      8894      8893      8892      8895
      8894      8892      8895      8892      8895      8896      8892      8895      8897
      8892      8895      8898      8896      8895      8897      8896      8895      8898
      8897      8895      8898      8895      8898      8899      8895      8898      8900
      8895      8898      8901      8899      8898      8900      8899      8898      8901
      8900      8898      8901      8898      8901      8902      8898      8901      8903
      8898      8901      8904      8902      8901      8903      8902      8901      8904
      8903      8901      8904      8901      8904      8905      8901      8904      8906
      8901      8904      8907      8905      8904      8906      8905      8904      8907
      8906      8904      8907      8904      8907      8908      8904      8907      8909
      8908      8907      8909      8907      8909      8910      8907      8909      8911
      8910      8909      8911      8909      8911      8912      8909      8911      8913
      8909      8911      8914      8912      8911      8913      8912      8911      8914
      8913      8911      8914      8911      8914      8915      8911      8914      8916
      8911      8914      8917      8915      8914      8916      8915      8914      8917
      8916      8914      8917      8914      8917      8918      8914      8917      8919
      8914      8917      8920      8918      8917      8919      8918      8917      8920
      8919      8917      8920      8917      8920      8921      8917      8920      8922
      8917      8920      8923      8921      8920      8922      8921      8920      8923
      8922      8920      8923      8920      8923      8924      8920      8923      8925
      8920      8923      8926      8924      8923      8925      8924      8923      8926
      8925      8923      8926      8923      8926      8927      8923      8926      8928
      8923      8926      8929      8927      8926      8928      8927      8926      8929
      8928      8926      8929      8926      8929      8930      8926      8929      8931
      8926      8929      8932      8930      8929      8931      8930      8929      8932
      8931      8929      8932      8929      8932      8933      8929      8932      8934
      8929      8932      8935      8933      8932      8934      8933      8932      8935
      8934      8932      8935      8886      8936      8937      8886      8936      8938
      8886      8936      8939      8937      8936      8938      8937      8936      8939
      8938      8936      8939      8936      8939      8940      8936      8939      8941
      8936      8939      8942      8940      8939      8941      8940      8939      8942
      8941      8939      8942      8939      8942      8943      8939      8942      8944
      8939      8942      8945      8943      8942      8944      8943      8942      8945
      8944      8942      8945      8942      8945      8946      8942      8945      8947
      8942      8945      8948      8946      8945      8947      8946      8945      8948
      8947      8945      8948      8945      8948      8949      8945      8948      8950
      8945      8948      8951      8949      8948      8950      8949      8948      8951
      8950      8948      8951      8948      8951      8952      8948      8951      8953
      8948      8951      8954      8952      8951      8953      8952      8951      8954
      8953      8951      8954      8951      8954      8955      8951      8954      8956
      8951      8954      8957      8955      8954      8956      8955      8954      8957
      8956      8954      8957      8954      8957      8958      8954      8957      8959
      8954      8957      8960      8958      8957      8959      8958      8957      8960
      8959      8957      8960      8957      8960      8961      8957      8960      8962
      8957      8960      8963      8961      8960      8962      8961      8960      8963
      8962      8960      8963      8960      8963      8964      8960      8963      8965
      8960      8963      8966      8964      8963      8965      8964      8963      8966
      8965      8963      8966      8963      8966      8967      8963      8966      8968
      8963      8966      8969      8967      8966      8968      8967      8966      8969
      8968      8966      8969      8966      8969      8970      8966      8969      8971
      8966      8969      8972      8970      8969      8971      8970      8969      8972
      8971      8969      8972      8969      8972      8973      8969      8972      8974
      8969      8972      8975      8973      8972      8974      8973      8972      8975
      8974      8972      8975      8972      8975      8976      8972      8975      8977
      8972      8975      8978      8976      8975      8977      8976      8975      8978
      8977      8975      8978      8980      8979      8983      8980      8979      8987
      8980      8979      8991      8983      8979      8987      8983      8979      8991
      8987      8979      8991      8979      8980      8981      8979      8980      8982
      8979      8980      8995      8981      8980      8982      8981      8980      8995
      8982      8980      8995      8979      8983      8984      8979      8983      8985
      8979      8983      8986      8984      8983      8985      8984      8983      8986
      8985      8983      8986      8979      8987      8988      8979      8987      8989
      8979      8987      8990      8988      8987      8989      8988      8987      8990
      8989      8987      8990      8979      8991      8992      8979      8991      8993
      8979      8991      8994      8992      8991      8993      8992      8991      8994
      8993      8991      8994      8980      8995      8996      8980      8995      8997
      8980      8995      9001      8996      8995      8997      8996      8995      9001
      8997      8995      9001      8999      8998      9000      8999      8998      9001
      8999      8998      9002      9000      8998      9001      9000      8998      9002
      9001      8998      9002      8995      9001      8998      8998      9002      9003
      9002      9003      9004      9002      9003      9005      9002      9003      9006
      9004      9003      9005      9004      9003      9006      9005      9003      9006
      9003      9006      9007      9003      9006      9008      9003      9006      9014
      9007      9006      9008      9007      9006      9014      9008      9006      9014
      9006      9008      9009      9008      9009      9010      9008      9009      9011
      9010      9009      9011      9009      9011      9012      9009      9011      9013
      9009      9011      9023      9012      9011      9013      9012      9011      9023
      9013      9011      9023      9006      9014      9015      9006      9014      9016
      9006      9014      9017      9015      9014      9016      9015      9014      9017
      9016      9014      9017      9014      9017      9018      9017      9018      9019
      9017      9018      9020      9019      9018      9020      9018      9020      9021
      9018      9020      9022      9018      9020      9070      9021      9020      9022
      9021      9020      9070      9022      9020      9070      9011      9023      9024
      9011      9023      9025      9011      9023      9026      9024      9023      9025
      9024      9023      9026      9025      9023      9026      9023      9026      9027
      9023      9026      9028      9023      9026      9029      9027      9026      9028
      9027      9026      9029      9028      9026      9029      9026      9029      9030
      9026      9029      9031      9026      9029      9032      9030      9029      9031
      9030      9029      9032      9031      9029      9032      9029      9032      9033
      9029      9032      9034      9029      9032      9035      9033      9032      9034
      9033      9032      9035      9034      9032      9035      9032      9035      9036
      9032      9035      9037      9032      9035      9038      9036      9035      9037
      9036      9035      9038      9037      9035      9038      9035      9038      9039
      9035      9038      9040      9035      9038      9041      9039      9038      9040
      9039      9038      9041      9040      9038      9041      9038      9041      9042
      9038      9041      9043      9042      9041      9043      9041      9043      9044
      9041      9043      9045      9044      9043      9045      9043      9045      9046
      9043      9045      9047      9043      9045      9048      9046      9045      9047
      9046      9045      9048      9047      9045      9048      9045      9048      9049
      9045      9048      9050      9045      9048      9051      9049      9048      9050
      9049      9048      9051      9050      9048      9051      9048      9051      9052
      9048      9051      9053      9048      9051      9054      9052      9051      9053
      9052      9051      9054      9053      9051      9054      9051      9054      9055
      9051      9054      9056      9051      9054      9057      9055      9054      9056
      9055      9054      9057      9056      9054      9057      9054      9057      9058
      9054      9057      9059      9054      9057      9060      9058      9057      9059
      9058      9057      9060      9059      9057      9060      9057      9060      9061
      9057      9060      9062      9057      9060      9063      9061      9060      9062
      9061      9060      9063      9062      9060      9063      9060      9063      9064
      9060      9063      9065      9060      9063      9066      9064      9063      9065
      9064      9063      9066      9065      9063      9066      9063      9066      9067
      9063      9066      9068      9063      9066      9069      9067      9066      9068
      9067      9066      9069      9068      9066      9069      9020      9070      9071
      9020      9070      9072      9020      9070      9073      9071      9070      9072
      9071      9070      9073      9072      9070      9073      9070      9073      9074
      9070      9073      9075      9070      9073      9076      9074      9073      9075
      9074      9073      9076      9075      9073      9076      9073      9076      9077
      9073      9076      9078      9073      9076      9079      9077      9076      9078
      9077      9076      9079      9078      9076      9079      9076      9079      9080
      9076      9079      9081      9076      9079      9082      9080      9079      9081
      9080      9079      9082      9081      9079      9082      9079      9082      9083
      9079      9082      9084      9079      9082      9085      9083      9082      9084
      9083      9082      9085      9084      9082      9085      9082      9085      9086
      9082      9085      9087      9082      9085      9088      9086      9085      9087
      9086      9085      9088      9087      9085      9088      9085      9088      9089
      9085      9088      9090      9085      9088      9091      9089      9088      9090
      9089      9088      9091      9090      9088      9091      9088      9091      9092
      9088      9091      9093      9088      9091      9094      9092      9091      9093
      9092      9091      9094      9093      9091      9094      9091      9094      9095
      9091      9094      9096      9091      9094      9097      9095      9094      9096
      9095      9094      9097      9096      9094      9097      9094      9097      9098
      9094      9097      9099      9094      9097      9100      9098      9097      9099
      9098      9097      9100      9099      9097      9100      9097      9100      9101
      9097      9100      9102      9097      9100      9103      9101      9100      9102
      9101      9100      9103      9102      9100      9103      9100      9103      9104
      9100      9103      9105      9100      9103      9106      9104      9103      9105
      9104      9103      9106      9105      9103      9106      9103      9106      9107
      9103      9106      9108      9103      9106      9109      9107      9106      9108
      9107      9106      9109      9108      9106      9109      9106      9109      9110
      9106      9109      9111      9106      9109      9112      9110      9109      9111
      9110      9109      9112      9111      9109      9112      9114      9113      9117
      9114      9113      9121      9114      9113      9125      9117      9113      9121
      9117      9113      9125      9121      9113      9125      9113      9114      9115
      9113      9114      9116      9113      9114      9129      9115      9114      9116
      9115      9114      9129      9116      9114      9129      9113      9117      9118
      9113      9117      9119      9113      9117      9120      9118      9117      9119
      9118      9117      9120      9119      9117      9120      9113      9121      9122
      9113      9121      9123      9113      9121      9124      9122      9121      9123
      9122      9121      9124      9123      9121      9124      9113      9125      9126
      9113      9125      9127      9113      9125      9128      9126      9125      9127
      9126      9125      9128      9127      9125      9128      9114      9129      9130
      9114      9129      9131      9114      9129      9135      9130      9129      9131
      9130      9129      9135      9131      9129      9135      9133      9132      9134
      9133      9132      9135      9133      9132      9136      9134      9132      9135
      9134      9132      9136      9135      9132      9136      9129      9135      9132
      9132      9136      9137      9136      9137      9138      9136      9137      9139
      9136      9137      9140      9138      9137      9139      9138      9137      9140
      9139      9137      9140      9137      9140      9141      9137      9140      9142
      9137      9140      9148      9141      9140      9142      9141      9140      9148
      9142      9140      9148      9140      9142      9143      9142      9143      9144
      9142      9143      9145      9144      9143      9145      9143      9145      9146
      9143      9145      9147      9143      9145      9157      9146      9145      9147
      9146      9145      9157      9147      9145      9157      9140      9148      9149
      9140      9148      9150      9140      9148      9151      9149      9148      9150
      9149      9148      9151      9150      9148      9151      9148      9151      9152
      9151      9152      9153      9151      9152      9154      9153      9152      9154
      9152      9154      9155      9152      9154      9156      9152      9154      9204
      9155      9154      9156      9155      9154      9204      9156      9154      9204
      9145      9157      9158      9145      9157      9159      9145      9157      9160
      9158      9157      9159      9158      9157      9160      9159      9157      9160
      9157      9160      9161      9157      9160      9162      9157      9160      9163
      9161      9160      9162      9161      9160      9163      9162      9160      9163
      9160      9163      9164      9160      9163      9165      9160      9163      9166
      9164      9163      9165      9164      9163      9166      9165      9163      9166
      9163      9166      9167      9163      9166      9168      9163      9166      9169
      9167      9166      9168      9167      9166      9169      9168      9166      9169
      9166      9169      9170      9166      9169      9171      9166      9169      9172
      9170      9169      9171      9170      9169      9172      9171      9169      9172
      9169      9172      9173      9169      9172      9174      9169      9172      9175
      9173      9172      9174      9173      9172      9175      9174      9172      9175
      9172      9175      9176      9172      9175      9177      9176      9175      9177
      9175      9177      9178      9175      9177      9179      9178      9177      9179
      9177      9179      9180      9177      9179      9181      9177      9179      9182
      9180      9179      9181      9180      9179      9182      9181      9179      9182
      9179      9182      9183      9179      9182      9184      9179      9182      9185
      9183      9182      9184      9183      9182      9185      9184      9182      9185
      9182      9185      9186      9182      9185      9187      9182      9185      9188
      9186      9185      9187      9186      9185      9188      9187      9185      9188
      9185      9188      9189      9185      9188      9190      9185      9188      9191
      9189      9188      9190      9189      9188      9191      9190      9188      9191
      9188      9191      9192      9188      9191      9193      9188      9191      9194
      9192      9191      9193      9192      9191      9194      9193      9191      9194
      9191      9194      9195      9191      9194      9196      9191      9194      9197
      9195      9194      9196      9195      9194      9197      9196      9194      9197
      9194      9197      9198      9194      9197      9199      9194      9197      9200
      9198      9197      9199      9198      9197      9200      9199      9197      9200
      9197      9200      9201      9197      9200      9202      9197      9200      9203
      9201      9200      9202      9201      9200      9203      9202      9200      9203
      9154      9204      9205      9154      9204      9206      9154      9204      9207
      9205      9204      9206      9205      9204      9207      9206      9204      9207
      9204      9207      9208      9204      9207      9209      9204      9207      9210
      9208      9207      9209      9208      9207      9210      9209      9207      9210
      9207      9210      9211      9207      9210      9212      9207      9210      9213
      9211      9210      9212      9211      9210      9213      9212      9210      9213
      9210      9213      9214      9210      9213      9215      9210      9213      9216
      9214      9213      9215      9214      9213      9216      9215      9213      9216
      9213      9216      9217      9213      9216      9218      9213      9216      9219
      9217      9216      9218      9217      9216      9219      9218      9216      9219
      9216      9219      9220      9216      9219      9221      9216      9219      9222
      9220      9219      9221      9220      9219      9222      9221      9219      9222
      9219      9222      9223      9219      9222      9224      9219      9222      9225
      9223      9222      9224      9223      9222      9225      9224      9222      9225
      9222      9225      9226      9222      9225      9227      9222      9225      9228
      9226      9225      9227      9226      9225      9228      9227      9225      9228
      9225      9228      9229      9225      9228      9230      9225      9228      9231
      9229      9228      9230      9229      9228      9231      9230      9228      9231
      9228      9231      9232      9228      9231      9233      9228      9231      9234
      9232      9231      9233      9232      9231      9234      9233      9231      9234
      9231      9234      9235      9231      9234      9236      9231      9234      9237
      9235      9234      9236      9235      9234      9237      9236      9234      9237
      9234      9237      9238      9234      9237      9239      9234      9237      9240
      9238      9237      9239      9238      9237      9240      9239      9237      9240
      9237      9240      9241      9237      9240      9242      9237      9240      9243
      9241      9240      9242      9241      9240      9243      9242      9240      9243
      9240      9243      9244      9240      9243      9245      9240      9243      9246
      9244      9243      9245      9244      9243      9246      9245      9243      9246
      9248      9247      9251      9248      9247      9255      9248      9247      9259
      9251      9247      9255      9251      9247      9259      9255      9247      9259
      9247      9248      9249      9247      9248      9250      9247      9248      9263
      9249      9248      9250      9249      9248      9263      9250      9248      9263
      9247      9251      9252      9247      9251      9253      9247      9251      9254
      9252      9251      9253      9252      9251      9254      9253      9251      9254
      9247      9255      9256      9247      9255      9257      9247      9255      9258
      9256      9255      9257      9256      9255      9258      9257      9255      9258
      9247      9259      9260      9247      9259      9261      9247      9259      9262
      9260      9259      9261      9260      9259      9262      9261      9259      9262
      9248      9263      9264      9248      9263      9265      9248      9263      9269
      9264      9263      9265      9264      9263      9269      9265      9263      9269
      9267      9266      9268      9267      9266      9269      9267      9266      9270
      9268      9266      9269      9268      9266      9270      9269      9266      9270
      9263      9269      9266      9266      9270      9271      9270      9271      9272
      9270      9271      9273      9270      9271      9274      9272      9271      9273
      9272      9271      9274      9273      9271      9274      9271      9274      9275
      9271      9274      9276      9271      9274      9282      9275      9274      9276
      9275      9274      9282      9276      9274      9282      9274      9276      9277
      9276      9277      9278      9276      9277      9279      9278      9277      9279
      9277      9279      9280      9277      9279      9281      9277      9279      9291
      9280      9279      9281      9280      9279      9291      9281      9279      9291
      9274      9282      9283      9274      9282      9284      9274      9282      9285
      9283      9282      9284      9283      9282      9285      9284      9282      9285
      9282      9285      9286      9285      9286      9287      9285      9286      9288
      9287      9286      9288      9286      9288      9289      9286      9288      9290
      9286      9288      9338      9289      9288      9290      9289      9288      9338
      9290      9288      9338      9279      9291      9292      9279      9291      9293
      9279      9291      9294      9292      9291      9293      9292      9291      9294
      9293      9291      9294      9291      9294      9295      9291      9294      9296
      9291      9294      9297      9295      9294      9296      9295      9294      9297
      9296      9294      9297      9294      9297      9298      9294      9297      9299
      9294      9297      9300      9298      9297      9299      9298      9297      9300
      9299      9297      9300      9297      9300      9301      9297      9300      9302
      9297      9300      9303      9301      9300      9302      9301      9300      9303
      9302      9300      9303      9300      9303      9304      9300      9303      9305
      9300      9303      9306      9304      9303      9305      9304      9303      9306
      9305      9303      9306      9303      9306      9307      9303      9306      9308
      9303      9306      9309      9307      9306      9308      9307      9306      9309
      9308      9306      9309      9306      9309      9310      9306      9309      9311
      9310      9309      9311      9309      9311      9312      9309      9311      9313
      9312      9311      9313      9311      9313      9314      9311      9313      9315
      9311      9313      9316      9314      9313      9315      9314      9313      9316
      9315      9313      9316      9313      9316      9317      9313      9316      9318
      9313      9316      9319      9317      9316      9318      9317      9316      9319
      9318      9316      9319      9316      9319      9320      9316      9319      9321
      9316      9319      9322      9320      9319      9321      9320      9319      9322
      9321      9319      9322      9319      9322      9323      9319      9322      9324
      9319      9322      9325      9323      9322      9324      9323      9322      9325
      9324      9322      9325      9322      9325      9326      9322      9325      9327
      9322      9325      9328      9326      9325      9327      9326      9325      9328
      9327      9325      9328      9325      9328      9329      9325      9328      9330
      9325      9328      9331      9329      9328      9330      9329      9328      9331
      9330      9328      9331      9328      9331      9332      9328      9331      9333
      9328      9331      9334      9332      9331      9333      9332      9331      9334
      9333      9331      9334      9331      9334      9335      9331      9334      9336
      9331      9334      9337      9335      9334      9336      9335      9334      9337
      9336      9334      9337      9288      9338      9339      9288      9338      9340
      9288      9338      9341      9339      9338      9340      9339      9338      9341
      9340      9338      9341      9338      9341      9342      9338      9341      9343
      9338      9341      9344      9342      9341      9343      9342      9341      9344
      9343      9341      9344      9341      9344      9345      9341      9344      9346
      9341      9344      9347      9345      9344      9346      9345      9344      9347
      9346      9344      9347      9344      9347      9348      9344      9347      9349
      9344      9347      9350      9348      9347      9349      9348      9347      9350
      9349      9347      9350      9347      9350      9351      9347      9350      9352
      9347      9350      9353      9351      9350      9352      9351      9350      9353
      9352      9350      9353      9350      9353      9354      9350      9353      9355
      9350      9353      9356      9354      9353      9355      9354      9353      9356
      9355      9353      9356      9353      9356      9357      9353      9356      9358
      9353      9356      9359      9357      9356      9358      9357      9356      9359
      9358      9356      9359      9356      9359      9360      9356      9359      9361
      9356      9359      9362      9360      9359      9361      9360      9359      9362
      9361      9359      9362      9359      9362      9363      9359      9362      9364
      9359      9362      9365      9363      9362      9364      9363      9362      9365
      9364      9362      9365      9362      9365      9366      9362      9365      9367
      9362      9365      9368      9366      9365      9367      9366      9365      9368
      9367      9365      9368      9365      9368      9369      9365      9368      9370
      9365      9368      9371      9369      9368      9370      9369      9368      9371
      9370      9368      9371      9368      9371      9372      9368      9371      9373
      9368      9371      9374      9372      9371      9373      9372      9371      9374
      9373      9371      9374      9371      9374      9375      9371      9374      9376
      9371      9374      9377      9375      9374      9376      9375      9374      9377
      9376      9374      9377      9374      9377      9378      9374      9377      9379
      9374      9377      9380      9378      9377      9379      9378      9377      9380
      9379      9377      9380      9382      9381      9385      9382      9381      9389
      9382      9381      9393      9385      9381      9389      9385      9381      9393
      9389      9381      9393      9381      9382      9383      9381      9382      9384
      9381      9382      9397      9383      9382      9384      9383      9382      9397
      9384      9382      9397      9381      9385      9386      9381      9385      9387
      9381      9385      9388      9386      9385      9387      9386      9385      9388
      9387      9385      9388      9381      9389      9390      9381      9389      9391
      9381      9389      9392      9390      9389      9391      9390      9389      9392
      9391      9389      9392      9381      9393      9394      9381      9393      9395
      9381      9393      9396      9394      9393      9395      9394      9393      9396
      9395      9393      9396      9382      9397      9398      9382      9397      9399
      9382      9397      9403      9398      9397      9399      9398      9397      9403
      9399      9397      9403      9401      9400      9402      9401      9400      9403
      9401      9400      9404      9402      9400      9403      9402      9400      9404
      9403      9400      9404      9397      9403      9400      9400      9404      9405
      9404      9405      9406      9404      9405      9407      9404      9405      9408
      9406      9405      9407      9406      9405      9408      9407      9405      9408
      9405      9408      9409      9405      9408      9410      9405      9408      9416
      9409      9408      9410      9409      9408      9416      9410      9408      9416
      9408      9410      9411      9410      9411      9412      9410      9411      9413
      9412      9411      9413      9411      9413      9414      9411      9413      9415
      9411      9413      9425      9414      9413      9415      9414      9413      9425
      9415      9413      9425      9408      9416      9417      9408      9416      9418
      9408      9416      9419      9417      9416      9418      9417      9416      9419
      9418      9416      9419      9416      9419      9420      9419      9420      9421
      9419      9420      9422      9421      9420      9422      9420      9422      9423
      9420      9422      9424      9420      9422      9472      9423      9422      9424
      9423      9422      9472      9424      9422      9472      9413      9425      9426
      9413      9425      9427      9413      9425      9428      9426      9425      9427
      9426      9425      9428      9427      9425      9428      9425      9428      9429
      9425      9428      9430      9425      9428      9431      9429      9428      9430
      9429      9428      9431      9430      9428      9431      9428      9431      9432
      9428      9431      9433      9428      9431      9434      9432      9431      9433
      9432      9431      9434      9433      9431      9434      9431      9434      9435
      9431      9434      9436      9431      9434      9437      9435      9434      9436
      9435      9434      9437      9436      9434      9437      9434      9437      9438
      9434      9437      9439      9434      9437      9440      9438      9437      9439
      9438      9437      9440      9439      9437      9440      9437      9440      9441
      9437      9440      9442      9437      9440      9443      9441      9440      9442
      9441      9440      9443      9442      9440      9443      9440      9443      9444
      9440      9443      9445      9444      9443      9445      9443      9445      9446
      9443      9445      9447      9446      9445      9447      9445      9447      9448
      9445      9447      9449      9445      9447      9450      9448      9447      9449
      9448      9447      9450      9449      9447      9450      9447      9450      9451
      9447      9450      9452      9447      9450      9453      9451      9450      9452
      9451      9450      9453      9452      9450      9453      9450      9453      9454
      9450      9453      9455      9450      9453      9456      9454      9453      9455
      9454      9453      9456      9455      9453      9456      9453      9456      9457
      9453      9456      9458      9453      9456      9459      9457      9456      9458
      9457      9456      9459      9458      9456      9459      9456      9459      9460
      9456      9459      9461      9456      9459      9462      9460      9459      9461
      9460      9459      9462      9461      9459      9462      9459      9462      9463
      9459      9462      9464      9459      9462      9465      9463      9462      9464
      9463      9462      9465      9464      9462      9465      9462      9465      9466
      9462      9465      9467      9462      9465      9468      9466      9465      9467
      9466      9465      9468      9467      9465      9468      9465      9468      9469
      9465      9468      9470      9465      9468      9471      9469      9468      9470
      9469      9468      9471      9470      9468      9471      9422      9472      9473
      9422      9472      9474      9422      9472      9475      9473      9472      9474
      9473      9472      9475      9474      9472      9475      9472      9475      9476
      9472      9475      9477      9472      9475      9478      9476      9475      9477
      9476      9475      9478      9477      9475      9478      9475      9478      9479
      9475      9478      9480      9475      9478      9481      9479      9478      9480
      9479      9478      9481      9480      9478      9481      9478      9481      9482
      9478      9481      9483      9478      9481      9484      9482      9481      9483
      9482      9481      9484      9483      9481      9484      9481      9484      9485
      9481      9484      9486      9481      9484      9487      9485      9484      9486
      9485      9484      9487      9486      9484      9487      9484      9487      9488
      9484      9487      9489      9484      9487      9490      9488      9487      9489
      9488      9487      9490      9489      9487      9490      9487      9490      9491
      9487      9490      9492      9487      9490      9493      9491      9490      9492
      9491      9490      9493      9492      9490      9493      9490      9493      9494
      9490      9493      9495      9490      9493      9496      9494      9493      9495
      9494      9493      9496      9495      9493      9496      9493      9496      9497
      9493      9496      9498      9493      9496      9499      9497      9496      9498
      9497      9496      9499      9498      9496      9499      9496      9499      9500
      9496      9499      9501      9496      9499      9502      9500      9499      9501
      9500      9499      9502      9501      9499      9502      9499      9502      9503
      9499      9502      9504      9499      9502      9505      9503      9502      9504
      9503      9502      9505      9504      9502      9505      9502      9505      9506
      9502      9505      9507      9502      9505      9508      9506      9505      9507
      9506      9505      9508      9507      9505      9508      9505      9508      9509
      9505      9508      9510      9505      9508      9511      9509      9508      9510
      9509      9508      9511      9510      9508      9511      9508      9511      9512
      9508      9511      9513      9508      9511      9514      9512      9511      9513
      9512      9511      9514      9513      9511      9514      9516      9515      9519
      9516      9515      9523      9516      9515      9527      9519      9515      9523
      9519      9515      9527      9523      9515      9527      9515      9516      9517
      9515      9516      9518      9515      9516      9531      9517      9516      9518
      9517      9516      9531      9518      9516      9531      9515      9519      9520
      9515      9519      9521      9515      9519      9522      9520      9519      9521
      9520      9519      9522      9521      9519      9522      9515      9523      9524
      9515      9523      9525      9515      9523      9526      9524      9523      9525
      9524      9523      9526      9525      9523      9526      9515      9527      9528
      9515      9527      9529      9515      9527      9530      9528      9527      9529
      9528      9527      9530      9529      9527      9530      9516      9531      9532
      9516      9531      9533      9516      9531      9537      9532      9531      9533
      9532      9531      9537      9533      9531      9537      9535      9534      9536
      9535      9534      9537      9535      9534      9538      9536      9534      9537
      9536      9534      9538      9537      9534      9538      9531      9537      9534
      9534      9538      9539      9538      9539      9540      9538      9539      9541
      9538      9539      9542      9540      9539      9541      9540      9539      9542
      9541      9539      9542      9539      9542      9543      9539      9542      9544
      9539      9542      9550      9543      9542      9544      9543      9542      9550
      9544      9542      9550      9542      9544      9545      9544      9545      9546
      9544      9545      9547      9546      9545      9547      9545      9547      9548
      9545      9547      9549      9545      9547      9559      9548      9547      9549
      9548      9547      9559      9549      9547      9559      9542      9550      9551
      9542      9550      9552      9542      9550      9553      9551      9550      9552
      9551      9550      9553      9552      9550      9553      9550      9553      9554
      9553      9554      9555      9553      9554      9556      9555      9554      9556
      9554      9556      9557      9554      9556      9558      9554      9556      9606
      9557      9556      9558      9557      9556      9606      9558      9556      9606
      9547      9559      9560      9547      9559      9561      9547      9559      9562
      9560      9559      9561      9560      9559      9562      9561      9559      9562
      9559      9562      9563      9559      9562      9564      9559      9562      9565
      9563      9562      9564      9563      9562      9565      9564      9562      9565
      9562      9565      9566      9562      9565      9567      9562      9565      9568
      9566      9565      9567      9566      9565      9568      9567      9565      9568
      9565      9568      9569      9565      9568      9570      9565      9568      9571
      9569      9568      9570      9569      9568      9571      9570      9568      9571
      9568      9571      9572      9568      9571      9573      9568      9571      9574
      9572      9571      9573      9572      9571      9574      9573      9571      9574
      9571      9574      9575      9571      9574      9576      9571      9574      9577
      9575      9574      9576      9575      9574      9577      9576      9574      9577
      9574      9577      9578      9574      9577      9579      9578      9577      9579
      9577      9579      9580      9577      9579      9581      9580      9579      9581
      9579      9581      9582      9579      9581      9583      9579      9581      9584
      9582      9581      9583      9582      9581      9584      9583      9581      9584
      9581      9584      9585      9581      9584      9586      9581      9584      9587
      9585      9584      9586      9585      9584      9587      9586      9584      9587
      9584      9587      9588      9584      9587      9589      9584      9587      9590
      9588      9587      9589      9588      9587      9590      9589      9587      9590
      9587      9590      9591      9587      9590      9592      9587      9590      9593
      9591      9590      9592      9591      9590      9593      9592      9590      9593
      9590      9593      9594      9590      9593      9595      9590      9593      9596
      9594      9593      9595      9594      9593      9596      9595      9593      9596
      9593      9596      9597      9593      9596      9598      9593      9596      9599
      9597      9596      9598      9597      9596      9599      9598      9596      9599
      9596      9599      9600      9596      9599      9601      9596      9599      9602
      9600      9599      9601      9600      9599      9602      9601      9599      9602
      9599      9602      9603      9599      9602      9604      9599      9602      9605
      9603      9602      9604      9603      9602      9605      9604      9602      9605
      9556      9606      9607      9556      9606      9608      9556      9606      9609
      9607      9606      9608      9607      9606      9609      9608      9606      9609
      9606      9609      9610      9606      9609      9611      9606      9609      9612
      9610      9609      9611      9610      9609      9612      9611      9609      9612
      9609      9612      9613      9609      9612      9614      9609      9612      9615
      9613      9612      9614      9613      9612      9615      9614      9612      9615
      9612      9615      9616      9612      9615      9617      9612      9615      9618
      9616      9615      9617      9616      9615      9618      9617      9615      9618
      9615      9618      9619      9615      9618      9620      9615      9618      9621
      9619      9618      9620      9619      9618      9621      9620      9618      9621
      9618      9621      9622      9618      9621      9623      9618      9621      9624
      9622      9621      9623      9622      9621      9624      9623      9621      9624
      9621      9624      9625      9621      9624      9626      9621      9624      9627
      9625      9624      9626      9625      9624      9627      9626      9624      9627
      9624      9627      9628      9624      9627      9629      9624      9627      9630
      9628      9627      9629      9628      9627      9630      9629      9627      9630
      9627      9630      9631      9627      9630      9632      9627      9630      9633
      9631      9630      9632      9631      9630      9633      9632      9630      9633
      9630      9633      9634      9630      9633      9635      9630      9633      9636
      9634      9633      9635      9634      9633      9636      9635      9633      9636
      9633      9636      9637      9633      9636      9638      9633      9636      9639
      9637      9636      9638      9637      9636      9639      9638      9636      9639
      9636      9639      9640      9636      9639      9641      9636      9639      9642
      9640      9639      9641      9640      9639      9642      9641      9639      9642
      9639      9642      9643      9639      9642      9644      9639      9642      9645
      9643      9642      9644      9643      9642      9645      9644      9642      9645
      9642      9645      9646      9642      9645      9647      9642      9645      9648
      9646      9645      9647      9646      9645      9648      9647      9645      9648
      9650      9649      9653      9650      9649      9657      9650      9649      9661
      9653      9649      9657      9653      9649      9661      9657      9649      9661
      9649      9650      9651      9649      9650      9652      9649      9650      9665
      9651      9650      9652      9651      9650      9665      9652      9650      9665
      9649      9653      9654      9649      9653      9655      9649      9653      9656
      9654      9653      9655      9654      9653      9656      9655      9653      9656
      9649      9657      9658      9649      9657      9659      9649      9657      9660
      9658      9657      9659      9658      9657      9660      9659      9657      9660
      9649      9661      9662      9649      9661      9663      9649      9661      9664
      9662      9661      9663      9662      9661      9664      9663      9661      9664
      9650      9665      9666      9650      9665      9667      9650      9665      9671
      9666      9665      9667      9666      9665      9671      9667      9665      9671
      9669      9668      9670      9669      9668      9671      9669      9668      9672
      9670      9668      9671      9670      9668      9672      9671      9668      9672
      9665      9671      9668      9668      9672      9673      9672      9673      9674
      9672      9673      9675      9672      9673      9676      9674      9673      9675
      9674      9673      9676      9675      9673      9676      9673      9676      9677
      9673      9676      9678      9673      9676      9684      9677      9676      9678
      9677      9676      9684      9678      9676      9684      9676      9678      9679
      9678      9679      9680      9678      9679      9681      9680      9679      9681
      9679      9681      9682      9679      9681      9683      9679      9681      9693
      9682      9681      9683      9682      9681      9693      9683      9681      9693
      9676      9684      9685      9676      9684      9686      9676      9684      9687
      9685      9684      9686      9685      9684      9687      9686      9684      9687
      9684      9687      9688      9687      9688      9689      9687      9688      9690
      9689      9688      9690      9688      9690      9691      9688      9690      9692
      9688      9690      9740      9691      9690      9692      9691      9690      9740
      9692      9690      9740      9681      9693      9694      9681      9693      9695
      9681      9693      9696      9694      9693      9695      9694      9693      9696
      9695      9693      9696      9693      9696      9697      9693      9696      9698
      9693      9696      9699      9697      9696      9698      9697      9696      9699
      9698      9696      9699      9696      9699      9700      9696      9699      9701
      9696      9699      9702      9700      9699      9701      9700      9699      9702
      9701      9699      9702      9699      9702      9703      9699      9702      9704
      9699      9702      9705      9703      9702      9704      9703      9702      9705
      9704      9702      9705      9702      9705      9706      9702      9705      9707
      9702      9705      9708      9706      9705      9707      9706      9705      9708
      9707      9705      9708      9705      9708      9709      9705      9708      9710
      9705      9708      9711      9709      9708      9710      9709      9708      9711
      9710      9708      9711      9708      9711      9712      9708      9711      9713
      9712      9711      9713      9711      9713      9714      9711      9713      9715
      9714      9713      9715      9713      9715      9716      9713      9715      9717
      9713      9715      9718      9716      9715      9717      9716      9715      9718
      9717      9715      9718      9715      9718      9719      9715      9718      9720
      9715      9718      9721      9719      9718      9720      9719      9718      9721
      9720      9718      9721      9718      9721      9722      9718      9721      9723
      9718      9721      9724      9722      9721      9723      9722      9721      9724
      9723      9721      9724      9721      9724      9725      9721      9724      9726
      9721      9724      9727      9725      9724      9726      9725      9724      9727
      9726      9724      9727      9724      9727      9728      9724      9727      9729
      9724      9727      9730      9728      9727      9729      9728      9727      9730
      9729      9727      9730      9727      9730      9731      9727      9730      9732
      9727      9730      9733      9731      9730      9732      9731      9730      9733
      9732      9730      9733      9730      9733      9734      9730      9733      9735
      9730      9733      9736      9734      9733      9735      9734      9733      9736
      9735      9733      9736      9733      9736      9737      9733      9736      9738
      9733      9736      9739      9737      9736      9738      9737      9736      9739
      9738      9736      9739      9690      9740      9741      9690      9740      9742
      9690      9740      9743      9741      9740      9742      9741      9740      9743
      9742      9740      9743      9740      9743      9744      9740      9743      9745
      9740      9743      9746      9744      9743      9745      9744      9743      9746
      9745      9743      9746      9743      9746      9747      9743      9746      9748
      9743      9746      9749      9747      9746      9748      9747      9746      9749
      9748      9746      9749      9746      9749      9750      9746      9749      9751
      9746      9749      9752      9750      9749      9751      9750      9749      9752
      9751      9749      9752      9749      9752      9753      9749      9752      9754
      9749      9752      9755      9753      9752      9754      9753      9752      9755
      9754      9752      9755      9752      9755      9756      9752      9755      9757
      9752      9755      9758      9756      9755      9757      9756      9755      9758
      9757      9755      9758      9755      9758      9759      9755      9758      9760
      9755      9758      9761      9759      9758      9760      9759      9758      9761
      9760      9758      9761      9758      9761      9762      9758      9761      9763
      9758      9761      9764      9762      9761      9763      9762      9761      9764
      9763      9761      9764      9761      9764      9765      9761      9764      9766
      9761      9764      9767      9765      9764      9766      9765      9764      9767
      9766      9764      9767      9764      9767      9768      9764      9767      9769
      9764      9767      9770      9768      9767      9769      9768      9767      9770
      9769      9767      9770      9767      9770      9771      9767      9770      9772
      9767      9770      9773      9771      9770      9772      9771      9770      9773
      9772      9770      9773      9770      9773      9774      9770      9773      9775
      9770      9773      9776      9774      9773      9775      9774      9773      9776
      9775      9773      9776      9773      9776      9777      9773      9776      9778
      9773      9776      9779      9777      9776      9778      9777      9776      9779
      9778      9776      9779      9776      9779      9780      9776      9779      9781
      9776      9779      9782      9780      9779      9781      9780      9779      9782
      9781      9779      9782      9784      9783      9787      9784      9783      9791
      9784      9783      9795      9787      9783      9791      9787      9783      9795
      9791      9783      9795      9783      9784      9785      9783      9784      9786
      9783      9784      9799      9785      9784      9786      9785      9784      9799
      9786      9784      9799      9783      9787      9788      9783      9787      9789
      9783      9787      9790      9788      9787      9789      9788      9787      9790
      9789      9787      9790      9783      9791      9792      9783      9791      9793
      9783      9791      9794      9792      9791      9793      9792      9791      9794
      9793      9791      9794      9783      9795      9796      9783      9795      9797
      9783      9795      9798      9796      9795      9797      9796      9795      9798
      9797      9795      9798      9784      9799      9800      9784      9799      9801
      9784      9799      9805      9800      9799      9801      9800      9799      9805
      9801      9799      9805      9803      9802      9804      9803      9802      9805
      9803      9802      9806      9804      9802      9805      9804      9802      9806
      9805      9802      9806      9799      9805      9802      9802      9806      9807
      9806      9807      9808      9806      9807      9809      9806      9807      9810
      9808      9807      9809      9808      9807      9810      9809      9807      9810
      9807      9810      9811      9807      9810      9812      9807      9810      9818
      9811      9810      9812      9811      9810      9818      9812      9810      9818
      9810      9812      9813      9812      9813      9814      9812      9813      9815
      9814      9813      9815      9813      9815      9816      9813      9815      9817
      9813      9815      9827      9816      9815      9817      9816      9815      9827
      9817      9815      9827      9810      9818      9819      9810      9818      9820
      9810      9818      9821      9819      9818      9820      9819      9818      9821
      9820      9818      9821      9818      9821      9822      9821      9822      9823
      9821      9822      9824      9823      9822      9824      9822      9824      9825
      9822      9824      9826      9822      9824      9874      9825      9824      9826
      9825      9824      9874      9826      9824      9874      9815      9827      9828
      9815      9827      9829      9815      9827      9830      9828      9827      9829
      9828      9827      9830      9829      9827      9830      9827      9830      9831
      9827      9830      9832      9827      9830      9833      9831      9830      9832
      9831      9830      9833      9832      9830      9833      9830      9833      9834
      9830      9833      9835      9830      9833      9836      9834      9833      9835
      9834      9833      9836      9835      9833      9836      9833      9836      9837
      9833      9836      9838      9833      9836      9839      9837      9836      9838
      9837      9836      9839      9838      9836      9839      9836      9839      9840
      9836      9839      9841      9836      9839      9842      9840      9839      9841
      9840      9839      9842      9841      9839      9842      9839      9842      9843
      9839      9842      9844      9839      9842      9845      9843      9842      9844
      9843      9842      9845      9844      9842      9845      9842      9845      9846
      9842      9845      9847      9846      9845      9847      9845      9847      9848
      9845      9847      9849      9848      9847      9849      9847      9849      9850
      9847      9849      9851      9847      9849      9852      9850      9849      9851
      9850      9849      9852      9851      9849      9852      9849      9852      9853
      9849      9852      9854      9849      9852      9855      9853      9852      9854
      9853      9852      9855      9854      9852      9855      9852      9855      9856
      9852      9855      9857      9852      9855      9858      9856      9855      9857
      9856      9855      9858      9857      9855      9858      9855      9858      9859
      9855      9858      9860      9855      9858      9861      9859      9858      9860
      9859      9858      9861      9860      9858      9861      9858      9861      9862
      9858      9861      9863      9858      9861      9864      9862      9861      9863
      9862      9861      9864      9863      9861      9864      9861      9864      9865
      9861      9864      9866      9861      9864      9867      9865      9864      9866
      9865      9864      9867      9866      9864      9867      9864      9867      9868
      9864      9867      9869      9864      9867      9870      9868      9867      9869
      9868      9867      9870      9869      9867      9870      9867      9870      9871
      9867      9870      9872      9867      9870      9873      9871      9870      9872
      9871      9870      9873      9872      9870      9873      9824      9874      9875
      9824      9874      9876      9824      9874      9877      9875      9874      9876
      9875      9874      9877      9876      9874      9877      9874      9877      9878
      9874      9877      9879      9874      9877      9880      9878      9877      9879
      9878      9877      9880      9879      9877      9880      9877      9880      9881
      9877      9880      9882      9877      9880      9883      9881      9880      9882
      9881      9880      9883      9882      9880      9883      9880      9883      9884
      9880      9883      9885      9880      9883      9886      9884      9883      9885
      9884      9883      9886      9885      9883      9886      9883      9886      9887
      9883      9886      9888      9883      9886      9889      9887      9886      9888
      9887      9886      9889      9888      9886      9889      9886      9889      9890
      9886      9889      9891      9886      9889      9892      9890      9889      9891
      9890      9889      9892      9891      9889      9892      9889      9892      9893
      9889      9892      9894      9889      9892      9895      9893      9892      9894
      9893      9892      9895      9894      9892      9895      9892      9895      9896
      9892      9895      9897      9892      9895      9898      9896      9895      9897
      9896      9895      9898      9897      9895      9898      9895      9898      9899
      9895      9898      9900      9895      9898      9901      9899      9898      9900
      9899      9898      9901      9900      9898      9901      9898      9901      9902
      9898      9901      9903      9898      9901      9904      9902      9901      9903
      9902      9901      9904      9903      9901      9904      9901      9904      9905
      9901      9904      9906      9901      9904      9907      9905      9904      9906
      9905      9904      9907      9906      9904      9907      9904      9907      9908
      9904      9907      9909      9904      9907      9910      9908      9907      9909
      9908      9907      9910      9909      9907      9910      9907      9910      9911
      9907      9910      9912      9907      9910      9913      9911      9910      9912
      9911      9910      9913      9912      9910      9913      9910      9913      9914
      9910      9913      9915      9910      9913      9916      9914      9913      9915
      9914      9913      9916      9915      9913      9916      9918      9917      9919
      9921      9920      9922      9924      9923      9925      9927      9926      9928
      9930      9929      9931      9933      9932      9934      9936      9935      9937
      9939      9938      9940      9942      9941      9943      9945      9944      9946
      9948      9947      9949      9951      9950      9952      9954      9953      9955
      9957      9956      9958      9960      9959      9961      9963      9962      9964
      9966      9965      9967      9969      9968      9970      9972      9971      9973
      9975      9974      9976      9978      9977      9979      9981      9980      9982
      9984      9983      9985      9987      9986      9988      9990      9989      9991
      9993      9992      9994      9996      9995      9997      9999      9998     10000
     10002     10001     10003     10005     10004     10006     10008     10007     10009
     10011     10010     10012     10014     10013     10015     10017     10016     10018
     10020     10019     10021     10023     10022     10024     10026     10025     10027
     10029     10028     10030     10032     10031     10033     10035     10034     10036
     10038     10037     10039     10041     10040     10042     10044     10043     10045
     10047     10046     10048     10050     10049     10051     10053     10052     10054
     10056     10055     10057     10059     10058     10060     10062     10061     10063
     10065     10064     10066     10068     10067     10069     10071     10070     10072
     10074     10073     10075     10077     10076     10078     10080     10079     10081
     10083     10082     10084     10086     10085     10087     10089     10088     10090
     10092     10091     10093     10095     10094     10096     10098     10097     10099
     10101     10100     10102     10104     10103     10105     10107     10106     10108
     10110     10109     10111     10113     10112     10114     10116     10115     10117
     10119     10118     10120     10122     10121     10123     10125     10124     10126
     10128     10127     10129     10131     10130     10132     10134     10133     10135
     10137     10136     10138     10140     10139     10141     10143     10142     10144
     10146     10145     10147     10149     10148     10150     10152     10151     10153
     10155     10154     10156     10158     10157     10159     10161     10160     10162
     10164     10163     10165     10167     10166     10168     10170     10169     10171
     10173     10172     10174     10176     10175     10177     10179     10178     10180
     10182     10181     10183     10185     10184     10186     10188     10187     10189
     10191     10190     10192     10194     10193     10195     10197     10196     10198
     10200     10199     10201     10203     10202     10204     10206     10205     10207
     10209     10208     10210     10212     10211     10213     10215     10214     10216
     10218     10217     10219     10221     10220     10222     10224     10223     10225
     10227     10226     10228     10230     10229     10231     10233     10232     10234
     10236     10235     10237     10239     10238     10240     10242     10241     10243
     10245     10244     10246     10248     10247     10249     10251     10250     10252
     10254     10253     10255     10257     10256     10258     10260     10259     10261
     10263     10262     10264     10266     10265     10267     10269     10268     10270
     10272     10271     10273     10275     10274     10276     10278     10277     10279
     10281     10280     10282     10284     10283     10285     10287     10286     10288
     10290     10289     10291     10293     10292     10294     10296     10295     10297
     10299     10298     10300     10302     10301     10303     10305     10304     10306
     10308     10307     10309     10311     10310     10312     10314     10313     10315
     10317     10316     10318     10320     10319     10321     10323     10322     10324
     10326     10325     10327     10329     10328     10330     10332     10331     10333
     10335     10334     10336     10338     10337     10339     10341     10340     10342
     10344     10343     10345     10347     10346     10348     10350     10349     10351
     10353     10352     10354     10356     10355     10357     10359     10358     10360
     10362     10361     10363     10365     10364     10366     10368     10367     10369
     10371     10370     10372     10374     10373     10375     10377     10376     10378
     10380     10379     10381     10383     10382     10384     10386     10385     10387
     10389     10388     10390     10392     10391     10393     10395     10394     10396
     10398     10397     10399     10401     10400     10402     10404     10403     10405
     10407     10406     10408     10410     10409     10411     10413     10412     10414
     10416     10415     10417     10419     10418     10420     10422     10421     10423
     10425     10424     10426     10428     10427     10429     10431     10430     10432
     10434     10433     10435     10437     10436     10438     10440     10439     10441
     10443     10442     10444     10446     10445     10447     10449     10448     10450
     10452     10451     10453     10455     10454     10456     10458     10457     10459
     10461     10460     10462     10464     10463     10465     10467     10466     10468
     10470     10469     10471     10473     10472     10474     10476     10475     10477
     10479     10478     10480     10482     10481     10483     10485     10484     10486
     10488     10487     10489     10491     10490     10492     10494     10493     10495
     10497     10496     10498     10500     10499     10501     10503     10502     10504
     10506     10505     10507     10509     10508     10510     10512     10511     10513
     10515     10514     10516     10518     10517     10519     10521     10520     10522
     10524     10523     10525     10527     10526     10528     10530     10529     10531
     10533     10532     10534     10536     10535     10537     10539     10538     10540
     10542     10541     10543     10545     10544     10546     10548     10547     10549
     10551     10550     10552     10554     10553     10555     10557     10556     10558
     10560     10559     10561     10563     10562     10564     10566     10565     10567
     10569     10568     10570     10572     10571     10573     10575     10574     10576
     10578     10577     10579     10581     10580     10582     10584     10583     10585
     10587     10586     10588     10590     10589     10591     10593     10592     10594
     10596     10595     10597     10599     10598     10600     10602     10601     10603
     10605     10604     10606     10608     10607     10609     10611     10610     10612
     10614     10613     10615     10617     10616     10618     10620     10619     10621
     10623     10622     10624     10626     10625     10627     10629     10628     10630
     10632     10631     10633     10635     10634     10636     10638     10637     10639
     10641     10640     10642     10644     10643     10645     10647     10646     10648
     10650     10649     10651     10653     10652     10654     10656     10655     10657
     10659     10658     10660     10662     10661     10663     10665     10664     10666
     10668     10667     10669     10671     10670     10672     10674     10673     10675
     10677     10676     10678     10680     10679     10681     10683     10682     10684
     10686     10685     10687     10689     10688     10690     10692     10691     10693
     10695     10694     10696     10698     10697     10699     10701     10700     10702
     10704     10703     10705     10707     10706     10708     10710     10709     10711
     10713     10712     10714     10716     10715     10717     10719     10718     10720
     10722     10721     10723     10725     10724     10726     10728     10727     10729
     10731     10730     10732     10734     10733     10735     10737     10736     10738
     10740     10739     10741     10743     10742     10744     10746     10745     10747
     10749     10748     10750     10752     10751     10753     10755     10754     10756
     10758     10757     10759     10761     10760     10762     10764     10763     10765
     10767     10766     10768     10770     10769     10771     10773     10772     10774
     10776     10775     10777     10779     10778     10780     10782     10781     10783
     10785     10784     10786     10788     10787     10789     10791     10790     10792
     10794     10793     10795     10797     10796     10798     10800     10799     10801
     10803     10802     10804     10806     10805     10807     10809     10808     10810
     10812     10811     10813     10815     10814     10816     10818     10817     10819
     10821     10820     10822     10824     10823     10825     10827     10826     10828
     10830     10829     10831     10833     10832     10834     10836     10835     10837
     10839     10838     10840     10842     10841     10843     10845     10844     10846
     10848     10847     10849     10851     10850     10852     10854     10853     10855
     10857     10856     10858     10860     10859     10861     10863     10862     10864
     10866     10865     10867     10869     10868     10870     10872     10871     10873
     10875     10874     10876     10878     10877     10879     10881     10880     10882
     10884     10883     10885     10887     10886     10888     10890     10889     10891
     10893     10892     10894     10896     10895     10897     10899     10898     10900
     10902     10901     10903     10905     10904     10906     10908     10907     10909
     10911     10910     10912     10914     10913     10915     10917     10916     10918
     10920     10919     10921     10923     10922     10924     10926     10925     10927
     10929     10928     10930     10932     10931     10933     10935     10934     10936
     10938     10937     10939     10941     10940     10942     10944     10943     10945
     10947     10946     10948     10950     10949     10951     10953     10952     10954
     10956     10955     10957     10959     10958     10960     10962     10961     10963
     10965     10964     10966     10968     10967     10969     10971     10970     10972
     10974     10973     10975     10977     10976     10978     10980     10979     10981
     10983     10982     10984     10986     10985     10987     10989     10988     10990
     10992     10991     10993     10995     10994     10996     10998     10997     10999
     11001     11000     11002     11004     11003     11005     11007     11006     11008
     11010     11009     11011     11013     11012     11014     11016     11015     11017
     11019     11018     11020     11022     11021     11023     11025     11024     11026
     11028     11027     11029     11031     11030     11032     11034     11033     11035
     11037     11036     11038     11040     11039     11041     11043     11042     11044
     11046     11045     11047     11049     11048     11050     11052     11051     11053
     11055     11054     11056     11058     11057     11059     11061     11060     11062
     11064     11063     11065     11067     11066     11068     11070     11069     11071
     11073     11072     11074     11076     11075     11077     11079     11078     11080
     11082     11081     11083     11085     11084     11086     11088     11087     11089
     11091     11090     11092     11094     11093     11095     11097     11096     11098
     11100     11099     11101     11103     11102     11104     11106     11105     11107
     11109     11108     11110     11112     11111     11113     11115     11114     11116
     11118     11117     11119     11121     11120     11122     11124     11123     11125
     11127     11126     11128     11130     11129     11131     11133     11132     11134
     11136     11135     11137     11139     11138     11140     11142     11141     11143
     11145     11144     11146     11148     11147     11149     11151     11150     11152
     11154     11153     11155     11157     11156     11158     11160     11159     11161
     11163     11162     11164     11166     11165     11167     11169     11168     11170
     11172     11171     11173     11175     11174     11176     11178     11177     11179
     11181     11180     11182     11184     11183     11185     11187     11186     11188
     11190     11189     11191     11193     11192     11194     11196     11195     11197
     11199     11198     11200     11202     11201     11203     11205     11204     11206
     11208     11207     11209     11211     11210     11212     11214     11213     11215
     11217     11216     11218     11220     11219     11221     11223     11222     11224
     11226     11225     11227     11229     11228     11230     11232     11231     11233
     11235     11234     11236     11238     11237     11239     11241     11240     11242
     11244     11243     11245     11247     11246     11248     11250     11249     11251
     11253     11252     11254     11256     11255     11257     11259     11258     11260
     11262     11261     11263     11265     11264     11266     11268     11267     11269
     11271     11270     11272     11274     11273     11275     11277     11276     11278
     11280     11279     11281     11283     11282     11284     11286     11285     11287
     11289     11288     11290     11292     11291     11293     11295     11294     11296
     11298     11297     11299     11301     11300     11302     11304     11303     11305
     11307     11306     11308     11310     11309     11311     11313     11312     11314
     11316     11315     11317     11319     11318     11320     11322     11321     11323
     11325     11324     11326     11328     11327     11329     11331     11330     11332
     11334     11333     11335     11337     11336     11338     11340     11339     11341
     11343     11342     11344     11346     11345     11347     11349     11348     11350
     11352     11351     11353     11355     11354     11356     11358     11357     11359
     11361     11360     11362     11364     11363     11365     11367     11366     11368
     11370     11369     11371     11373     11372     11374     11376     11375     11377
     11379     11378     11380     11382     11381     11383     11385     11384     11386
     11388     11387     11389     11391     11390     11392     11394     11393     11395
     11397     11396     11398     11400     11399     11401     11403     11402     11404
     11406     11405     11407     11409     11408     11410     11412     11411     11413
     11415     11414     11416     11418     11417     11419     11421     11420     11422
     11424     11423     11425     11427     11426     11428     11430     11429     11431
     11433     11432     11434     11436     11435     11437     11439     11438     11440
     11442     11441     11443     11445     11444     11446     11448     11447     11449
     11451     11450     11452     11454     11453     11455     11457     11456     11458
     11460     11459     11461     11463     11462     11464     11466     11465     11467
     11469     11468     11470     11472     11471     11473     11475     11474     11476
     11478     11477     11479     11481     11480     11482     11484     11483     11485
     11487     11486     11488     11490     11489     11491     11493     11492     11494
     11496     11495     11497     11499     11498     11500     11502     11501     11503
     11505     11504     11506     11508     11507     11509     11511     11510     11512
     11514     11513     11515     11517     11516     11518     11520     11519     11521
     11523     11522     11524     11526     11525     11527     11529     11528     11530
     11532     11531     11533     11535     11534     11536     11538     11537     11539
     11541     11540     11542     11544     11543     11545     11547     11546     11548
     11550     11549     11551     11553     11552     11554     11556     11555     11557
     11559     11558     11560     11562     11561     11563     11565     11564     11566
     11568     11567     11569     11571     11570     11572     11574     11573     11575
     11577     11576     11578     11580     11579     11581     11583     11582     11584
     11586     11585     11587     11589     11588     11590     11592     11591     11593
     11595     11594     11596     11598     11597     11599     11601     11600     11602
     11604     11603     11605     11607     11606     11608     11610     11609     11611
     11613     11612     11614     11616     11615     11617     11619     11618     11620
     11622     11621     11623     11625     11624     11626     11628     11627     11629
     11631     11630     11632     11634     11633     11635     11637     11636     11638
     11640     11639     11641     11643     11642     11644     11646     11645     11647
     11649     11648     11650     11652     11651     11653     11655     11654     11656
     11658     11657     11659     11661     11660     11662     11664     11663     11665
     11667     11666     11668     11670     11669     11671     11673     11672     11674
     11676     11675     11677     11679     11678     11680     11682     11681     11683
     11685     11684     11686     11688     11687     11689     11691     11690     11692
     11694     11693     11695     11697     11696     11698     11700     11699     11701
     11703     11702     11704     11706     11705     11707     11709     11708     11710
     11712     11711     11713     11715     11714     11716     11718     11717     11719
     11721     11720     11722     11724     11723     11725     11727     11726     11728
     11730     11729     11731     11733     11732     11734     11736     11735     11737
     11739     11738     11740     11742     11741     11743     11745     11744     11746
     11748     11747     11749     11751     11750     11752     11754     11753     11755
     11757     11756     11758     11760     11759     11761     11763     11762     11764
     11766     11765     11767     11769     11768     11770     11772     11771     11773
     11775     11774     11776     11778     11777     11779     11781     11780     11782
     11784     11783     11785     11787     11786     11788     11790     11789     11791
     11793     11792     11794     11796     11795     11797     11799     11798     11800
     11802     11801     11803     11805     11804     11806     11808     11807     11809
     11811     11810     11812     11814     11813     11815     11817     11816     11818
     11820     11819     11821     11823     11822     11824     11826     11825     11827
     11829     11828     11830     11832     11831     11833     11835     11834     11836
     11838     11837     11839     11841     11840     11842     11844     11843     11845
     11847     11846     11848     11850     11849     11851     11853     11852     11854
     11856     11855     11857     11859     11858     11860     11862     11861     11863
     11865     11864     11866     11868     11867     11869     11871     11870     11872
     11874     11873     11875     11877     11876     11878     11880     11879     11881
     11883     11882     11884     11886     11885     11887     11889     11888     11890
     11892     11891     11893     11895     11894     11896     11898     11897     11899
     11901     11900     11902     11904     11903     11905     11907     11906     11908
     11910     11909     11911     11913     11912     11914     11916     11915     11917
     11919     11918     11920     11922     11921     11923     11925     11924     11926
     11928     11927     11929     11931     11930     11932     11934     11933     11935
     11937     11936     11938     11940     11939     11941     11943     11942     11944
     11946     11945     11947     11949     11948     11950     11952     11951     11953
     11955     11954     11956     11958     11957     11959     11961     11960     11962
     11964     11963     11965     11967     11966     11968     11970     11969     11971
     11973     11972     11974     11976     11975     11977     11979     11978     11980
     11982     11981     11983     11985     11984     11986     11988     11987     11989
     11991     11990     11992     11994     11993     11995     11997     11996     11998
     12000     11999     12001     12003     12002     12004     12006     12005     12007
     12009     12008     12010     12012     12011     12013     12015     12014     12016
     12018     12017     12019     12021     12020     12022     12024     12023     12025
     12027     12026     12028     12030     12029     12031     12033     12032     12034
     12036     12035     12037     12039     12038     12040     12042     12041     12043
     12045     12044     12046     12048     12047     12049     12051     12050     12052
     12054     12053     12055     12057     12056     12058     12060     12059     12061
     12063     12062     12064     12066     12065     12067     12069     12068     12070
     12072     12071     12073     12075     12074     12076     12078     12077     12079
     12081     12080     12082     12084     12083     12085     12087     12086     12088
     12090     12089     12091     12093     12092     12094     12096     12095     12097
     12099     12098     12100     12102     12101     12103     12105     12104     12106
     12108     12107     12109     12111     12110     12112     12114     12113     12115
     12117     12116     12118     12120     12119     12121     12123     12122     12124
     12126     12125     12127     12129     12128     12130     12132     12131     12133
     12135     12134     12136     12138     12137     12139     12141     12140     12142
     12144     12143     12145     12147     12146     12148     12150     12149     12151
     12153     12152     12154     12156     12155     12157     12159     12158     12160
     12162     12161     12163     12165     12164     12166     12168     12167     12169
     12171     12170     12172     12174     12173     12175     12177     12176     12178
     12180     12179     12181     12183     12182     12184     12186     12185     12187
     12189     12188     12190     12192     12191     12193     12195     12194     12196
     12198     12197     12199     12201     12200     12202     12204     12203     12205
     12207     12206     12208     12210     12209     12211     12213     12212     12214
     12216     12215     12217     12219     12218     12220     12222     12221     12223
     12225     12224     12226     12228     12227     12229     12231     12230     12232
     12234     12233     12235     12237     12236     12238     12240     12239     12241
     12243     12242     12244     12246     12245     12247     12249     12248     12250
     12252     12251     12253     12255     12254     12256     12258     12257     12259
     12261     12260     12262     12264     12263     12265     12267     12266     12268
     12270     12269     12271     12273     12272     12274     12276     12275     12277
     12279     12278     12280     12282     12281     12283     12285     12284     12286
     12288     12287     12289     12291     12290     12292     12294     12293     12295
     12297     12296     12298     12300     12299     12301     12303     12302     12304
     12306     12305     12307     12309     12308     12310     12312     12311     12313
     12315     12314     12316     12318     12317     12319     12321     12320     12322
     12324     12323     12325     12327     12326     12328     12330     12329     12331
     12333     12332     12334     12336     12335     12337     12339     12338     12340
     12342     12341     12343     12345     12344     12346     12348     12347     12349
     12351     12350     12352     12354     12353     12355     12357     12356     12358
     12360     12359     12361     12363     12362     12364     12366     12365     12367
     12369     12368     12370     12372     12371     12373     12375     12374     12376
     12378     12377     12379     12381     12380     12382     12384     12383     12385
     12387     12386     12388     12390     12389     12391     12393     12392     12394
     12396     12395     12397     12399     12398     12400     12402     12401     12403
     12405     12404     12406     12408     12407     12409     12411     12410     12412
     12414     12413     12415     12417     12416     12418     12420     12419     12421
     12423     12422     12424     12426     12425     12427     12429     12428     12430
     12432     12431     12433     12435     12434     12436     12438     12437     12439
     12441     12440     12442     12444     12443     12445     12447     12446     12448
     12450     12449     12451     12453     12452     12454     12456     12455     12457
     12459     12458     12460     12462     12461     12463     12465     12464     12466
     12468     12467     12469     12471     12470     12472     12474     12473     12475
     12477     12476     12478     12480     12479     12481     12483     12482     12484
     12486     12485     12487     12489     12488     12490     12492     12491     12493
     12495     12494     12496     12498     12497     12499     12501     12500     12502
     12504     12503     12505     12507     12506     12508     12510     12509     12511
     12513     12512     12514     12516     12515     12517     12519     12518     12520
     12522     12521     12523     12525     12524     12526     12528     12527     12529
     12531     12530     12532     12534     12533     12535     12537     12536     12538
     12540     12539     12541     12543     12542     12544     12546     12545     12547
     12549     12548     12550     12552     12551     12553     12555     12554     12556
     12558     12557     12559     12561     12560     12562     12564     12563     12565
     12567     12566     12568     12570     12569     12571     12573     12572     12574
     12576     12575     12577     12579     12578     12580     12582     12581     12583
     12585     12584     12586     12588     12587     12589     12591     12590     12592
     12594     12593     12595     12597     12596     12598     12600     12599     12601
     12603     12602     12604     12606     12605     12607     12609     12608     12610
     12612     12611     12613     12615     12614     12616     12618     12617     12619
     12621     12620     12622     12624     12623     12625     12627     12626     12628
     12630     12629     12631     12633     12632     12634     12636     12635     12637
     12639     12638     12640     12642     12641     12643     12645     12644     12646
     12648     12647     12649     12651     12650     12652     12654     12653     12655
     12657     12656     12658     12660     12659     12661     12663     12662     12664
     12666     12665     12667     12669     12668     12670     12672     12671     12673
     12675     12674     12676     12678     12677     12679     12681     12680     12682
     12684     12683     12685     12687     12686     12688     12690     12689     12691
     12693     12692     12694     12696     12695     12697     12699     12698     12700
     12702     12701     12703     12705     12704     12706     12708     12707     12709
     12711     12710     12712     12714     12713     12715     12717     12716     12718
     12720     12719     12721     12723     12722     12724     12726     12725     12727
     12729     12728     12730     12732     12731     12733     12735     12734     12736
     12738     12737     12739     12741     12740     12742     12744     12743     12745
     12747     12746     12748     12750     12749     12751     12753     12752     12754
     12756     12755     12757     12759     12758     12760     12762     12761     12763
     12765     12764     12766     12768     12767     12769     12771     12770     12772
     12774     12773     12775     12777     12776     12778     12780     12779     12781
     12783     12782     12784     12786     12785     12787     12789     12788     12790
     12792     12791     12793     12795     12794     12796     12798     12797     12799
     12801     12800     12802     12804     12803     12805     12807     12806     12808
     12810     12809     12811     12813     12812     12814     12816     12815     12817
     12819     12818     12820     12822     12821     12823     12825     12824     12826
     12828     12827     12829     12831     12830     12832     12834     12833     12835
     12837     12836     12838     12840     12839     12841     12843     12842     12844
     12846     12845     12847     12849     12848     12850     12852     12851     12853
     12855     12854     12856     12858     12857     12859     12861     12860     12862
     12864     12863     12865     12867     12866     12868     12870     12869     12871
     12873     12872     12874     12876     12875     12877     12879     12878     12880
     12882     12881     12883     12885     12884     12886     12888     12887     12889
     12891     12890     12892     12894     12893     12895     12897     12896     12898
     12900     12899     12901     12903     12902     12904     12906     12905     12907
     12909     12908     12910     12912     12911     12913     12915     12914     12916
     12918     12917     12919     12921     12920     12922     12924     12923     12925
     12927     12926     12928     12930     12929     12931     12933     12932     12934
     12936     12935     12937     12939     12938     12940     12942     12941     12943
     12945     12944     12946     12948     12947     12949     12951     12950     12952
     12954     12953     12955     12957     12956     12958     12960     12959     12961
     12963     12962     12964     12966     12965     12967     12969     12968     12970
     12972     12971     12973     12975     12974     12976     12978     12977     12979
     12981     12980     12982     12984     12983     12985     12987     12986     12988
     12990     12989     12991     12993     12992     12994     12996     12995     12997
     12999     12998     13000     13002     13001     13003     13005     13004     13006
     13008     13007     13009     13011     13010     13012     13014     13013     13015
     13017     13016     13018     13020     13019     13021     13023     13022     13024
     13026     13025     13027     13029     13028     13030     13032     13031     13033
     13035     13034     13036     13038     13037     13039     13041     13040     13042
     13044     13043     13045     13047     13046     13048     13050     13049     13051
     13053     13052     13054     13056     13055     13057     13059     13058     13060
     13062     13061     13063     13065     13064     13066     13068     13067     13069
     13071     13070     13072     13074     13073     13075     13077     13076     13078
     13080     13079     13081     13083     13082     13084     13086     13085     13087
     13089     13088     13090     13092     13091     13093     13095     13094     13096
     13098     13097     13099     13101     13100     13102     13104     13103     13105
     13107     13106     13108     13110     13109     13111     13113     13112     13114
     13116     13115     13117     13119     13118     13120     13122     13121     13123
     13125     13124     13126     13128     13127     13129     13131     13130     13132
     13134     13133     13135     13137     13136     13138     13140     13139     13141
     13143     13142     13144     13146     13145     13147     13149     13148     13150
     13152     13151     13153     13155     13154     13156     13158     13157     13159
     13161     13160     13162     13164     13163     13165     13167     13166     13168
     13170     13169     13171     13173     13172     13174     13176     13175     13177
     13179     13178     13180     13182     13181     13183     13185     13184     13186
     13188     13187     13189     13191     13190     13192     13194     13193     13195
     13197     13196     13198     13200     13199     13201     13203     13202     13204
     13206     13205     13207     13209     13208     13210     13212     13211     13213
     13215     13214     13216     13218     13217     13219     13221     13220     13222
     13224     13223     13225     13227     13226     13228     13230     13229     13231
     13233     13232     13234     13236     13235     13237     13239     13238     13240
     13242     13241     13243     13245     13244     13246     13248     13247     13249
     13251     13250     13252     13254     13253     13255     13257     13256     13258
     13260     13259     13261     13263     13262     13264     13266     13265     13267
     13269     13268     13270     13272     13271     13273     13275     13274     13276
     13278     13277     13279     13281     13280     13282     13284     13283     13285
     13287     13286     13288     13290     13289     13291     13293     13292     13294
     13296     13295     13297     13299     13298     13300     13302     13301     13303
     13305     13304     13306     13308     13307     13309     13311     13310     13312
     13314     13313     13315     13317     13316     13318     13320     13319     13321
     13323     13322     13324     13326     13325     13327     13329     13328     13330
     13332     13331     13333     13335     13334     13336     13338     13337     13339
     13341     13340     13342     13344     13343     13345     13347     13346     13348
     13350     13349     13351     13353     13352     13354     13356     13355     13357
     13359     13358     13360     13362     13361     13363     13365     13364     13366
     13368     13367     13369     13371     13370     13372     13374     13373     13375
     13377     13376     13378     13380     13379     13381     13383     13382     13384
     13386     13385     13387     13389     13388     13390     13392     13391     13393
     13395     13394     13396     13398     13397     13399     13401     13400     13402
     13404     13403     13405     13407     13406     13408     13410     13409     13411
     13413     13412     13414     13416     13415     13417     13419     13418     13420
     13422     13421     13423     13425     13424     13426     13428     13427     13429
     13431     13430     13432     13434     13433     13435     13437     13436     13438
     13440     13439     13441     13443     13442     13444     13446     13445     13447
     13449     13448     13450     13452     13451     13453     13455     13454     13456
     13458     13457     13459     13461     13460     13462     13464     13463     13465
     13467     13466     13468     13470     13469     13471     13473     13472     13474
     13476     13475     13477     13479     13478     13480     13482     13481     13483
     13485     13484     13486     13488     13487     13489     13491     13490     13492
     13494     13493     13495     13497     13496     13498     13500     13499     13501
     13503     13502     13504     13506     13505     13507     13509     13508     13510
     13512     13511     13513     13515     13514     13516     13518     13517     13519
     13521     13520     13522     13524     13523     13525     13527     13526     13528
     13530     13529     13531     13533     13532     13534     13536     13535     13537
     13539     13538     13540     13542     13541     13543     13545     13544     13546
     13548     13547     13549     13551     13550     13552     13554     13553     13555
     13557     13556     13558     13560     13559     13561     13563     13562     13564
     13566     13565     13567     13569     13568     13570     13572     13571     13573
     13575     13574     13576     13578     13577     13579     13581     13580     13582
     13584     13583     13585     13587     13586     13588     13590     13589     13591
     13593     13592     13594     13596     13595     13597     13599     13598     13600
     13602     13601     13603     13605     13604     13606     13608     13607     13609
     13611     13610     13612     13614     13613     13615     13617     13616     13618
     13620     13619     13621     13623     13622     13624     13626     13625     13627
     13629     13628     13630     13632     13631     13633     13635     13634     13636
     13638     13637     13639     13641     13640     13642     13644     13643     13645
     13647     13646     13648     13650     13649     13651     13653     13652     13654
     13656     13655     13657     13659     13658     13660     13662     13661     13663
     13665     13664     13666     13668     13667     13669     13671     13670     13672
     13674     13673     13675     13677     13676     13678     13680     13679     13681
     13683     13682     13684     13686     13685     13687     13689     13688     13690
     13692     13691     13693     13695     13694     13696     13698     13697     13699
     13701     13700     13702     13704     13703     13705     13707     13706     13708
     13710     13709     13711     13713     13712     13714     13716     13715     13717
     13719     13718     13720     13722     13721     13723     13725     13724     13726
     13728     13727     13729     13731     13730     13732     13734     13733     13735
     13737     13736     13738     13740     13739     13741     13743     13742     13744
     13746     13745     13747     13749     13748     13750     13752     13751     13753
     13755     13754     13756     13758     13757     13759     13761     13760     13762
     13764     13763     13765     13767     13766     13768     13770     13769     13771
     13773     13772     13774     13776     13775     13777     13779     13778     13780
     13782     13781     13783     13785     13784     13786     13788     13787     13789
     13791     13790     13792     13794     13793     13795     13797     13796     13798
     13800     13799     13801     13803     13802     13804     13806     13805     13807
     13809     13808     13810     13812     13811     13813     13815     13814     13816
     13818     13817     13819     13821     13820     13822     13824     13823     13825
     13827     13826     13828     13830     13829     13831     13833     13832     13834
     13836     13835     13837     13839     13838     13840     13842     13841     13843
     13845     13844     13846     13848     13847     13849     13851     13850     13852
     13854     13853     13855     13857     13856     13858     13860     13859     13861
     13863     13862     13864     13866     13865     13867     13869     13868     13870
     13872     13871     13873     13875     13874     13876     13878     13877     13879
     13881     13880     13882     13884     13883     13885     13887     13886     13888
     13890     13889     13891     13893     13892     13894     13896     13895     13897
     13899     13898     13900     13902     13901     13903     13905     13904     13906
     13908     13907     13909     13911     13910     13912     13914     13913     13915
     13917     13916     13918     13920     13919     13921     13923     13922     13924
     13926     13925     13927     13929     13928     13930     13932     13931     13933
     13935     13934     13936     13938     13937     13939     13941     13940     13942
     13944     13943     13945     13947     13946     13948     13950     13949     13951
     13953     13952     13954     13956     13955     13957     13959     13958     13960
     13962     13961     13963     13965     13964     13966     13968     13967     13969
     13971     13970     13972     13974     13973     13975     13977     13976     13978
     13980     13979     13981     13983     13982     13984     13986     13985     13987
     13989     13988     13990     13992     13991     13993     13995     13994     13996
     13998     13997     13999     14001     14000     14002     14004     14003     14005
     14007     14006     14008     14010     14009     14011     14013     14012     14014
     14016     14015     14017     14019     14018     14020     14022     14021     14023
     14025     14024     14026     14028     14027     14029     14031     14030     14032
     14034     14033     14035     14037     14036     14038     14040     14039     14041
     14043     14042     14044     14046     14045     14047     14049     14048     14050
     14052     14051     14053     14055     14054     14056     14058     14057     14059
     14061     14060     14062     14064     14063     14065     14067     14066     14068
     14070     14069     14071     14073     14072     14074     14076     14075     14077
     14079     14078     14080     14082     14081     14083     14085     14084     14086
     14088     14087     14089     14091     14090     14092     14094     14093     14095
     14097     14096     14098     14100     14099     14101     14103     14102     14104
     14106     14105     14107     14109     14108     14110     14112     14111     14113
     14115     14114     14116     14118     14117     14119     14121     14120     14122
     14124     14123     14125     14127     14126     14128     14130     14129     14131
     14133     14132     14134     14136     14135     14137     14139     14138     14140
     14142     14141     14143     14145     14144     14146     14148     14147     14149
     14151     14150     14152     14154     14153     14155     14157     14156     14158
     14160     14159     14161     14163     14162     14164     14166     14165     14167
     14169     14168     14170     14172     14171     14173     14175     14174     14176
     14178     14177     14179     14181     14180     14182     14184     14183     14185
     14187     14186     14188     14190     14189     14191     14193     14192     14194
     14196     14195     14197     14199     14198     14200     14202     14201     14203
     14205     14204     14206     14208     14207     14209     14211     14210     14212
     14214     14213     14215     14217     14216     14218     14220     14219     14221
     14223     14222     14224     14226     14225     14227     14229     14228     14230
     14232     14231     14233     14235     14234     14236     14238     14237     14239
     14241     14240     14242     14244     14243     14245     14247     14246     14248
     14250     14249     14251     14253     14252     14254     14256     14255     14257
     14259     14258     14260     14262     14261     14263     14265     14264     14266
     14268     14267     14269     14271     14270     14272     14274     14273     14275
     14277     14276     14278     14280     14279     14281     14283     14282     14284
     14286     14285     14287     14289     14288     14290     14292     14291     14293
     14295     14294     14296     14298     14297     14299     14301     14300     14302
     14304     14303     14305     14307     14306     14308     14310     14309     14311
     14313     14312     14314     14316     14315     14317     14319     14318     14320
     14322     14321     14323     14325     14324     14326     14328     14327     14329
     14331     14330     14332     14334     14333     14335     14337     14336     14338
     14340     14339     14341     14343     14342     14344     14346     14345     14347
     14349     14348     14350     14352     14351     14353     14355     14354     14356
     14358     14357     14359     14361     14360     14362     14364     14363     14365
     14367     14366     14368     14370     14369     14371     14373     14372     14374
     14376     14375     14377     14379     14378     14380     14382     14381     14383
     14385     14384     14386     14388     14387     14389     14391     14390     14392
     14394     14393     14395     14397     14396     14398     14400     14399     14401
     14403     14402     14404     14406     14405     14407     14409     14408     14410
     14412     14411     14413     14415     14414     14416     14418     14417     14419
     14421     14420     14422     14424     14423     14425     14427     14426     14428
     14430     14429     14431     14433     14432     14434     14436     14435     14437
     14439     14438     14440     14442     14441     14443     14445     14444     14446
     14448     14447     14449     14451     14450     14452     14454     14453     14455
     14457     14456     14458     14460     14459     14461     14463     14462     14464
     14466     14465     14467     14469     14468     14470     14472     14471     14473
     14475     14474     14476     14478     14477     14479     14481     14480     14482
     14484     14483     14485     14487     14486     14488     14490     14489     14491
     14493     14492     14494     14496     14495     14497     14499     14498     14500
     14502     14501     14503     14505     14504     14506     14508     14507     14509
     14511     14510     14512     14514     14513     14515     14517     14516     14518
     14520     14519     14521     14523     14522     14524     14526     14525     14527
     14529     14528     14530     14532     14531     14533     14535     14534     14536
     14538     14537     14539     14541     14540     14542     14544     14543     14545
     14547     14546     14548     14550     14549     14551     14553     14552     14554
     14556     14555     14557     14559     14558     14560     14562     14561     14563
     14565     14564     14566     14568     14567     14569     14571     14570     14572
     14574     14573     14575     14577     14576     14578     14580     14579     14581
     14583     14582     14584     14586     14585     14587     14589     14588     14590
     14592     14591     14593     14595     14594     14596     14598     14597     14599
     14601     14600     14602     14604     14603     14605     14607     14606     14608
     14610     14609     14611     14613     14612     14614     14616     14615     14617
     14619     14618     14620     14622     14621     14623     14625     14624     14626
     14628     14627     14629     14631     14630     14632     14634     14633     14635
     14637     14636     14638     14640     14639     14641     14643     14642     14644
     14646     14645     14647     14649     14648     14650     14652     14651     14653
     14655     14654     14656     14658     14657     14659     14661     14660     14662
     14664     14663     14665     14667     14666     14668     14670     14669     14671
     14673     14672     14674     14676     14675     14677     14679     14678     14680
     14682     14681     14683     14685     14684     14686     14688     14687     14689
     14691     14690     14692     14694     14693     14695     14697     14696     14698
     14700     14699     14701     14703     14702     14704     14706     14705     14707
     14709     14708     14710     14712     14711     14713     14715     14714     14716
     14718     14717     14719     14721     14720     14722     14724     14723     14725
     14727     14726     14728     14730     14729     14731     14733     14732     14734
     14736     14735     14737     14739     14738     14740     14742     14741     14743
     14745     14744     14746     14748     14747     14749     14751     14750     14752
     14754     14753     14755     14757     14756     14758     14760     14759     14761
     14763     14762     14764     14766     14765     14767     14769     14768     14770
     14772     14771     14773     14775     14774     14776     14778     14777     14779
     14781     14780     14782     14784     14783     14785     14787     14786     14788
     14790     14789     14791     14793     14792     14794     14796     14795     14797
     14799     14798     14800     14802     14801     14803     14805     14804     14806
     14808     14807     14809     14811     14810     14812     14814     14813     14815
     14817     14816     14818     14820     14819     14821     14823     14822     14824
     14826     14825     14827     14829     14828     14830     14832     14831     14833
     14835     14834     14836     14838     14837     14839     14841     14840     14842
     14844     14843     14845     14847     14846     14848     14850     14849     14851
     14853     14852     14854     14856     14855     14857     14859     14858     14860
     14862     14861     14863     14865     14864     14866     14868     14867     14869
     14871     14870     14872     14874     14873     14875     14877     14876     14878
     14880     14879     14881     14883     14882     14884     14886     14885     14887
     14889     14888     14890     14892     14891     14893     14895     14894     14896
     14898     14897     14899     14901     14900     14902     14904     14903     14905
     14907     14906     14908     14910     14909     14911     14913     14912     14914
     14916     14915     14917     14919     14918     14920     14922     14921     14923
     14925     14924     14926     14928     14927     14929     14931     14930     14932
     14934     14933     14935     14937     14936     14938     14940     14939     14941
     14943     14942     14944     14946     14945     14947     14949     14948     14950
     14952     14951     14953     14955     14954     14956     14958     14957     14959
     14961     14960     14962     14964     14963     14965     14967     14966     14968
     14970     14969     14971     14973     14972     14974     14976     14975     14977
     14979     14978     14980     14982     14981     14983     14985     14984     14986
     14988     14987     14989     14991     14990     14992     14994     14993     14995
     14997     14996     14998     15000     14999     15001     15003     15002     15004
     15006     15005     15007     15009     15008     15010     15012     15011     15013
     15015     15014     15016     15018     15017     15019     15021     15020     15022
     15024     15023     15025     15027     15026     15028     15030     15029     15031
     15033     15032     15034     15036     15035     15037     15039     15038     15040
     15042     15041     15043     15045     15044     15046     15048     15047     15049
     15051     15050     15052     15054     15053     15055     15057     15056     15058
     15060     15059     15061     15063     15062     15064     15066     15065     15067
     15069     15068     15070     15072     15071     15073     15075     15074     15076
     15078     15077     15079     15081     15080     15082     15084     15083     15085
     15087     15086     15088     15090     15089     15091     15093     15092     15094
     15096     15095     15097     15099     15098     15100     15102     15101     15103
     15105     15104     15106     15108     15107     15109     15111     15110     15112
     15114     15113     15115     15117     15116     15118     15120     15119     15121
     15123     15122     15124     15126     15125     15127     15129     15128     15130
     15132     15131     15133     15135     15134     15136     15138     15137     15139
     15141     15140     15142     15144     15143     15145     15147     15146     15148
     15150     15149     15151     15153     15152     15154     15156     15155     15157
     15159     15158     15160     15162     15161     15163     15165     15164     15166
     15168     15167     15169     15171     15170     15172     15174     15173     15175
     15177     15176     15178     15180     15179     15181     15183     15182     15184
     15186     15185     15187     15189     15188     15190     15192     15191     15193
     15195     15194     15196     15198     15197     15199     15201     15200     15202
     15204     15203     15205     15207     15206     15208     15210     15209     15211
     15213     15212     15214     15216     15215     15217     15219     15218     15220
     15222     15221     15223     15225     15224     15226     15228     15227     15229
     15231     15230     15232     15234     15233     15235     15237     15236     15238
     15240     15239     15241     15243     15242     15244     15246     15245     15247
     15249     15248     15250     15252     15251     15253     15255     15254     15256
     15258     15257     15259     15261     15260     15262     15264     15263     15265
     15267     15266     15268     15270     15269     15271     15273     15272     15274
     15276     15275     15277     15279     15278     15280     15282     15281     15283
     15285     15284     15286     15288     15287     15289     15291     15290     15292
     15294     15293     15295     15297     15296     15298     15300     15299     15301
     15303     15302     15304     15306     15305     15307     15309     15308     15310
     15312     15311     15313     15315     15314     15316     15318     15317     15319
     15321     15320     15322     15324     15323     15325     15327     15326     15328
     15330     15329     15331     15333     15332     15334     15336     15335     15337
     15339     15338     15340     15342     15341     15343     15345     15344     15346
     15348     15347     15349     15351     15350     15352     15354     15353     15355
     15357     15356     15358     15360     15359     15361     15363     15362     15364
     15366     15365     15367     15369     15368     15370     15372     15371     15373
     15375     15374     15376     15378     15377     15379     15381     15380     15382
     15384     15383     15385     15387     15386     15388     15390     15389     15391
     15393     15392     15394     15396     15395     15397     15399     15398     15400
     15402     15401     15403     15405     15404     15406     15408     15407     15409
     15411     15410     15412     15414     15413     15415     15417     15416     15418
     15420     15419     15421     15423     15422     15424     15426     15425     15427
     15429     15428     15430     15432     15431     15433     15435     15434     15436
     15438     15437     15439     15441     15440     15442     15444     15443     15445
     15447     15446     15448     15450     15449     15451     15453     15452     15454
     15456     15455     15457     15459     15458     15460     15462     15461     15463
     15465     15464     15466     15468     15467     15469     15471     15470     15472
     15474     15473     15475     15477     15476     15478     15480     15479     15481
     15483     15482     15484     15486     15485     15487     15489     15488     15490
     15492     15491     15493     15495     15494     15496     15498     15497     15499
     15501     15500     15502     15504     15503     15505     15507     15506     15508
     15510     15509     15511     15513     15512     15514     15516     15515     15517
     15519     15518     15520     15522     15521     15523     15525     15524     15526
     15528     15527     15529     15531     15530     15532     15534     15533     15535
     15537     15536     15538     15540     15539     15541     15543     15542     15544
     15546     15545     15547     15549     15548     15550     15552     15551     15553
     15555     15554     15556     15558     15557     15559     15561     15560     15562
     15564     15563     15565     15567     15566     15568     15570     15569     15571
     15573     15572     15574     15576     15575     15577     15579     15578     15580
     15582     15581     15583     15585     15584     15586     15588     15587     15589
     15591     15590     15592     15594     15593     15595     15597     15596     15598
     15600     15599     15601     15603     15602     15604     15606     15605     15607
     15609     15608     15610     15612     15611     15613     15615     15614     15616
     15618     15617     15619     15621     15620     15622     15624     15623     15625
     15627     15626     15628     15630     15629     15631     15633     15632     15634
     15636     15635     15637     15639     15638     15640     15642     15641     15643
     15645     15644     15646     15648     15647     15649     15651     15650     15652
     15654     15653     15655     15657     15656     15658     15660     15659     15661
     15663     15662     15664     15666     15665     15667     15669     15668     15670
     15672     15671     15673     15675     15674     15676     15678     15677     15679
     15681     15680     15682     15684     15683     15685     15687     15686     15688
     15690     15689     15691     15693     15692     15694     15696     15695     15697
     15699     15698     15700     15702     15701     15703     15705     15704     15706
     15708     15707     15709     15711     15710     15712     15714     15713     15715
     15717     15716     15718     15720     15719     15721     15723     15722     15724
     15726     15725     15727     15729     15728     15730     15732     15731     15733
     15735     15734     15736     15738     15737     15739     15741     15740     15742
     15744     15743     15745     15747     15746     15748     15750     15749     15751
     15753     15752     15754     15756     15755     15757     15759     15758     15760
     15762     15761     15763     15765     15764     15766     15768     15767     15769
     15771     15770     15772     15774     15773     15775     15777     15776     15778
     15780     15779     15781     15783     15782     15784     15786     15785     15787
     15789     15788     15790     15792     15791     15793     15795     15794     15796
     15798     15797     15799     15801     15800     15802     15804     15803     15805
     15807     15806     15808     15810     15809     15811     15813     15812     15814
     15816     15815     15817     15819     15818     15820     15822     15821     15823
     15825     15824     15826     15828     15827     15829     15831     15830     15832
     15834     15833     15835     15837     15836     15838     15840     15839     15841
     15843     15842     15844     15846     15845     15847     15849     15848     15850
     15852     15851     15853     15855     15854     15856     15858     15857     15859
     15861     15860     15862     15864     15863     15865     15867     15866     15868
     15870     15869     15871     15873     15872     15874     15876     15875     15877
     15879     15878     15880     15882     15881     15883     15885     15884     15886
     15888     15887     15889     15891     15890     15892     15894     15893     15895
     15897     15896     15898     15900     15899     15901     15903     15902     15904
     15906     15905     15907     15909     15908     15910     15912     15911     15913
     15915     15914     15916     15918     15917     15919     15921     15920     15922
     15924     15923     15925     15927     15926     15928     15930     15929     15931
     15933     15932     15934     15936     15935     15937     15939     15938     15940
     15942     15941     15943     15945     15944     15946     15948     15947     15949
     15951     15950     15952     15954     15953     15955     15957     15956     15958
     15960     15959     15961     15963     15962     15964     15966     15965     15967
     15969     15968     15970     15972     15971     15973     15975     15974     15976
     15978     15977     15979     15981     15980     15982     15984     15983     15985
     15987     15986     15988     15990     15989     15991     15993     15992     15994
     15996     15995     15997     15999     15998     16000     16002     16001     16003
     16005     16004     16006     16008     16007     16009     16011     16010     16012
     16014     16013     16015     16017     16016     16018     16020     16019     16021
     16023     16022     16024     16026     16025     16027     16029     16028     16030
     16032     16031     16033     16035     16034     16036     16038     16037     16039
     16041     16040     16042     16044     16043     16045     16047     16046     16048
     16050     16049     16051     16053     16052     16054     16056     16055     16057
     16059     16058     16060     16062     16061     16063     16065     16064     16066
     16068     16067     16069     16071     16070     16072     16074     16073     16075
     16077     16076     16078     16080     16079     16081     16083     16082     16084
     16086     16085     16087     16089     16088     16090     16092     16091     16093
     16095     16094     16096     16098     16097     16099     16101     16100     16102
     16104     16103     16105     16107     16106     16108     16110     16109     16111
     16113     16112     16114     16116     16115     16117     16119     16118     16120
     16122     16121     16123     16125     16124     16126     16128     16127     16129
     16131     16130     16132     16134     16133     16135     16137     16136     16138
     16140     16139     16141     16143     16142     16144     16146     16145     16147
     16149     16148     16150     16152     16151     16153     16155     16154     16156
     16158     16157     16159     16161     16160     16162     16164     16163     16165
     16167     16166     16168     16170     16169     16171     16173     16172     16174
     16176     16175     16177     16179     16178     16180     16182     16181     16183
     16185     16184     16186     16188     16187     16189     16191     16190     16192
     16194     16193     16195     16197     16196     16198     16200     16199     16201
     16203     16202     16204     16206     16205     16207     16209     16208     16210
     16212     16211     16213     16215     16214     16216     16218     16217     16219
     16221     16220     16222     16224     16223     16225     16227     16226     16228
     16230     16229     16231     16233     16232     16234     16236     16235     16237
     16239     16238     16240     16242     16241     16243     16245     16244     16246
     16248     16247     16249     16251     16250     16252     16254     16253     16255
     16257     16256     16258     16260     16259     16261     16263     16262     16264
     16266     16265     16267     16269     16268     16270     16272     16271     16273
     16275     16274     16276     16278     16277     16279     16281     16280     16282
     16284     16283     16285     16287     16286     16288     16290     16289     16291
     16293     16292     16294     16296     16295     16297     16299     16298     16300
     16302     16301     16303     16305     16304     16306     16308     16307     16309
     16311     16310     16312     16314     16313     16315     16317     16316     16318
     16320     16319     16321     16323     16322     16324     16326     16325     16327
     16329     16328     16330     16332     16331     16333     16335     16334     16336
     16338     16337     16339     16341     16340     16342     16344     16343     16345
     16347     16346     16348     16350     16349     16351     16353     16352     16354
     16356     16355     16357     16359     16358     16360     16362     16361     16363
     16365     16364     16366     16368     16367     16369     16371     16370     16372
     16374     16373     16375     16377     16376     16378     16380     16379     16381
     16383     16382     16384     16386     16385     16387     16389     16388     16390
     16392     16391     16393     16395     16394     16396     16398     16397     16399
     16401     16400     16402     16404     16403     16405     16407     16406     16408
     16410     16409     16411     16413     16412     16414     16416     16415     16417
     16419     16418     16420     16422     16421     16423     16425     16424     16426
     16428     16427     16429     16431     16430     16432     16434     16433     16435
     16437     16436     16438     16440     16439     16441     16443     16442     16444
     16446     16445     16447     16449     16448     16450     16452     16451     16453
     16455     16454     16456     16458     16457     16459     16461     16460     16462
     16464     16463     16465     16467     16466     16468     16470     16469     16471
     16473     16472     16474     16476     16475     16477     16479     16478     16480
     16482     16481     16483     16485     16484     16486     16488     16487     16489
     16491     16490     16492     16494     16493     16495     16497     16496     16498
     16500     16499     16501     16503     16502     16504     16506     16505     16507
     16509     16508     16510     16512     16511     16513     16515     16514     16516
     16518     16517     16519     16521     16520     16522     16524     16523     16525
     16527     16526     16528     16530     16529     16531     16533     16532     16534
     16536     16535     16537     16539     16538     16540     16542     16541     16543
     16545     16544     16546     16548     16547     16549     16551     16550     16552
     16554     16553     16555     16557     16556     16558     16560     16559     16561
     16563     16562     16564     16566     16565     16567     16569     16568     16570
     16572     16571     16573     16575     16574     16576     16578     16577     16579
     16581     16580     16582     16584     16583     16585     16587     16586     16588
     16590     16589     16591     16593     16592     16594     16596     16595     16597
     16599     16598     16600     16602     16601     16603     16605     16604     16606
     16608     16607     16609     16611     16610     16612     16614     16613     16615
     16617     16616     16618     16620     16619     16621     16623     16622     16624
     16626     16625     16627     16629     16628     16630     16632     16631     16633
     16635     16634     16636     16638     16637     16639     16641     16640     16642
     16644     16643     16645     16647     16646     16648     16650     16649     16651
     16653     16652     16654     16656     16655     16657     16659     16658     16660
     16662     16661     16663     16665     16664     16666     16668     16667     16669
     16671     16670     16672     16674     16673     16675     16677     16676     16678
     16680     16679     16681     16683     16682     16684     16686     16685     16687
     16689     16688     16690     16692     16691     16693     16695     16694     16696
     16698     16697     16699     16701     16700     16702     16704     16703     16705
     16707     16706     16708     16710     16709     16711     16713     16712     16714
     16716     16715     16717     16719     16718     16720     16722     16721     16723
     16725     16724     16726     16728     16727     16729     16731     16730     16732
     16734     16733     16735     16737     16736     16738     16740     16739     16741
     16743     16742     16744     16746     16745     16747     16749     16748     16750
     16752     16751     16753     16755     16754     16756     16758     16757     16759
     16761     16760     16762     16764     16763     16765     16767     16766     16768
     16770     16769     16771     16773     16772     16774     16776     16775     16777
     16779     16778     16780     16782     16781     16783     16785     16784     16786
     16788     16787     16789     16791     16790     16792     16794     16793     16795
     16797     16796     16798     16800     16799     16801     16803     16802     16804
     16806     16805     16807     16809     16808     16810     16812     16811     16813
     16815     16814     16816     16818     16817     16819     16821     16820     16822
     16824     16823     16825     16827     16826     16828     16830     16829     16831
     16833     16832     16834     16836     16835     16837     16839     16838     16840
     16842     16841     16843     16845     16844     16846     16848     16847     16849
     16851     16850     16852     16854     16853     16855     16857     16856     16858
     16860     16859     16861     16863     16862     16864     16866     16865     16867
     16869     16868     16870     16872     16871     16873     16875     16874     16876
     16878     16877     16879     16881     16880     16882     16884     16883     16885
     16887     16886     16888     16890     16889     16891     16893     16892     16894
     16896     16895     16897     16899     16898     16900     16902     16901     16903
     16905     16904     16906     16908     16907     16909     16911     16910     16912
     16914     16913     16915     16917     16916     16918     16920     16919     16921
     16923     16922     16924     16926     16925     16927     16929     16928     16930
     16932     16931     16933     16935     16934     16936     16938     16937     16939
     16941     16940     16942     16944     16943     16945     16947     16946     16948
     16950     16949     16951     16953     16952     16954     16956     16955     16957
     16959     16958     16960     16962     16961     16963     16965     16964     16966
     16968     16967     16969     16971     16970     16972     16974     16973     16975
     16977     16976     16978     16980     16979     16981     16983     16982     16984
     16986     16985     16987     16989     16988     16990     16992     16991     16993
     16995     16994     16996     16998     16997     16999     17001     17000     17002
     17004     17003     17005     17007     17006     17008     17010     17009     17011
     17013     17012     17014     17016     17015     17017     17019     17018     17020
     17022     17021     17023     17025     17024     17026     17028     17027     17029
     17031     17030     17032     17034     17033     17035     17037     17036     17038
     17040     17039     17041     17043     17042     17044     17046     17045     17047
     17049     17048     17050     17052     17051     17053     17055     17054     17056
     17058     17057     17059     17061     17060     17062     17064     17063     17065
     17067     17066     17068     17070     17069     17071     17073     17072     17074
     17076     17075     17077     17079     17078     17080     17082     17081     17083
     17085     17084     17086     17088     17087     17089     17091     17090     17092
     17094     17093     17095     17097     17096     17098     17100     17099     17101
     17103     17102     17104     17106     17105     17107     17109     17108     17110
     17112     17111     17113     17115     17114     17116     17118     17117     17119
     17121     17120     17122     17124     17123     17125     17127     17126     17128
     17130     17129     17131     17133     17132     17134     17136     17135     17137
     17139     17138     17140     17142     17141     17143     17145     17144     17146
     17148     17147     17149     17151     17150     17152     17154     17153     17155
     17157     17156     17158     17160     17159     17161     17163     17162     17164
     17166     17165     17167     17169     17168     17170     17172     17171     17173
     17175     17174     17176     17178     17177     17179     17181     17180     17182
     17184     17183     17185     17187     17186     17188     17190     17189     17191
     17193     17192     17194     17196     17195     17197     17199     17198     17200
     17202     17201     17203     17205     17204     17206     17208     17207     17209
     17211     17210     17212     17214     17213     17215     17217     17216     17218
     17220     17219     17221     17223     17222     17224     17226     17225     17227
     17229     17228     17230     17232     17231     17233     17235     17234     17236
     17238     17237     17239     17241     17240     17242     17244     17243     17245
     17247     17246     17248     17250     17249     17251     17253     17252     17254
     17256     17255     17257     17259     17258     17260     17262     17261     17263
     17265     17264     17266     17268     17267     17269     17271     17270     17272
     17274     17273     17275     17277     17276     17278     17280     17279     17281
     17283     17282     17284     17286     17285     17287     17289     17288     17290
     17292     17291     17293     17295     17294     17296     17298     17297     17299
     17301     17300     17302     17304     17303     17305     17307     17306     17308
     17310     17309     17311     17313     17312     17314     17316     17315     17317
     17319     17318     17320     17322     17321     17323     17325     17324     17326
     17328     17327     17329     17331     17330     17332     17334     17333     17335
     17337     17336     17338     17340     17339     17341     17343     17342     17344
     17346     17345     17347     17349     17348     17350     17352     17351     17353
     17355     17354     17356     17358     17357     17359     17361     17360     17362
     17364     17363     17365     17367     17366     17368     17370     17369     17371
     17373     17372     17374     17376     17375     17377     17379     17378     17380
     17382     17381     17383     17385     17384     17386     17388     17387     17389
     17391     17390     17392     17394     17393     17395     17397     17396     17398
     17400     17399     17401     17403     17402     17404     17406     17405     17407
     17409     17408     17410     17412     17411     17413     17415     17414     17416
     17418     17417     17419     17421     17420     17422     17424     17423     17425
     17427     17426     17428     17430     17429     17431     17433     17432     17434
     17436     17435     17437     17439     17438     17440     17442     17441     17443
     17445     17444     17446     17448     17447     17449     17451     17450     17452
     17454     17453     17455     17457     17456     17458     17460     17459     17461
     17463     17462     17464     17466     17465     17467     17469     17468     17470
     17472     17471     17473     17475     17474     17476     17478     17477     17479
     17481     17480     17482     17484     17483     17485     17487     17486     17488
     17490     17489     17491     17493     17492     17494     17496     17495     17497
     17499     17498     17500     17502     17501     17503     17505     17504     17506
     17508     17507     17509     17511     17510     17512     17514     17513     17515
     17517     17516     17518     17520     17519     17521     17523     17522     17524
     17526     17525     17527     17529     17528     17530     17532     17531     17533
     17535     17534     17536     17538     17537     17539     17541     17540     17542
     17544     17543     17545     17547     17546     17548     17550     17549     17551
     17553     17552     17554     17556     17555     17557     17559     17558     17560
     17562     17561     17563     17565     17564     17566     17568     17567     17569
     17571     17570     17572     17574     17573     17575     17577     17576     17578
     17580     17579     17581     17583     17582     17584     17586     17585     17587
     17589     17588     17590     17592     17591     17593     17595     17594     17596
     17598     17597     17599     17601     17600     17602     17604     17603     17605
     17607     17606     17608     17610     17609     17611     17613     17612     17614
     17616     17615     17617     17619     17618     17620     17622     17621     17623
     17625     17624     17626     17628     17627     17629     17631     17630     17632
     17634     17633     17635     17637     17636     17638     17640     17639     17641
     17643     17642     17644     17646     17645     17647     17649     17648     17650
     17652     17651     17653     17655     17654     17656     17658     17657     17659
     17661     17660     17662     17664     17663     17665     17667     17666     17668
     17670     17669     17671     17673     17672     17674     17676     17675     17677
     17679     17678     17680     17682     17681     17683     17685     17684     17686
     17688     17687     17689     17691     17690     17692     17694     17693     17695
     17697     17696     17698     17700     17699     17701     17703     17702     17704
     17706     17705     17707     17709     17708     17710     17712     17711     17713
     17715     17714     17716     17718     17717     17719     17721     17720     17722
     17724     17723     17725     17727     17726     17728     17730     17729     17731
     17733     17732     17734     17736     17735     17737     17739     17738     17740
     17742     17741     17743     17745     17744     17746     17748     17747     17749
     17751     17750     17752     17754     17753     17755     17757     17756     17758
     17760     17759     17761     17763     17762     17764     17766     17765     17767
     17769     17768     17770     17772     17771     17773     17775     17774     17776
     17778     17777     17779     17781     17780     17782     17784     17783     17785
     17787     17786     17788     17790     17789     17791     17793     17792     17794
     17796     17795     17797     17799     17798     17800     17802     17801     17803
     17805     17804     17806     17808     17807     17809     17811     17810     17812
     17814     17813     17815     17817     17816     17818     17820     17819     17821
     17823     17822     17824     17826     17825     17827     17829     17828     17830
     17832     17831     17833     17835     17834     17836     17838     17837     17839
     17841     17840     17842     17844     17843     17845     17847     17846     17848
     17850     17849     17851     17853     17852     17854     17856     17855     17857
     17859     17858     17860     17862     17861     17863     17865     17864     17866
     17868     17867     17869     17871     17870     17872     17874     17873     17875
     17877     17876     17878     17880     17879     17881     17883     17882     17884
     17886     17885     17887     17889     17888     17890     17892     17891     17893
     17895     17894     17896     17898     17897     17899     17901     17900     17902
     17904     17903     17905     17907     17906     17908     17910     17909     17911
     17913     17912     17914     17916     17915     17917     17919     17918     17920
     17922     17921     17923     17925     17924     17926     17928     17927     17929
     17931     17930     17932     17934     17933     17935     17937     17936     17938
     17940     17939     17941     17943     17942     17944     17946     17945     17947
     17949     17948     17950     17952     17951     17953     17955     17954     17956
     17958     17957     17959     17961     17960     17962     17964     17963     17965
     17967     17966     17968     17970     17969     17971     17973     17972     17974
     17976     17975     17977     17979     17978     17980     17982     17981     17983
     17985     17984     17986     17988     17987     17989     17991     17990     17992
     17994     17993     17995     17997     17996     17998     18000     17999     18001
     18003     18002     18004     18006     18005     18007     18009     18008     18010
     18012     18011     18013     18015     18014     18016     18018     18017     18019
     18021     18020     18022     18024     18023     18025     18027     18026     18028
     18030     18029     18031     18033     18032     18034     18036     18035     18037
     18039     18038     18040     18042     18041     18043     18045     18044     18046
     18048     18047     18049     18051     18050     18052     18054     18053     18055
     18057     18056     18058     18060     18059     18061     18063     18062     18064
     18066     18065     18067     18069     18068     18070     18072     18071     18073
     18075     18074     18076     18078     18077     18079     18081     18080     18082
     18084     18083     18085     18087     18086     18088     18090     18089     18091
     18093     18092     18094     18096     18095     18097     18099     18098     18100
     18102     18101     18103     18105     18104     18106     18108     18107     18109
     18111     18110     18112     18114     18113     18115     18117     18116     18118
     18120     18119     18121     18123     18122     18124     18126     18125     18127
     18129     18128     18130     18132     18131     18133     18135     18134     18136
     18138     18137     18139     18141     18140     18142     18144     18143     18145
     18147     18146     18148     18150     18149     18151     18153     18152     18154
     18156     18155     18157     18159     18158     18160     18162     18161     18163
     18165     18164     18166     18168     18167     18169     18171     18170     18172
     18174     18173     18175     18177     18176     18178     18180     18179     18181
     18183     18182     18184     18186     18185     18187     18189     18188     18190
     18192     18191     18193     18195     18194     18196     18198     18197     18199
     18201     18200     18202     18204     18203     18205     18207     18206     18208
     18210     18209     18211     18213     18212     18214     18216     18215     18217
     18219     18218     18220     18222     18221     18223     18225     18224     18226
     18228     18227     18229     18231     18230     18232     18234     18233     18235
     18237     18236     18238     18240     18239     18241     18243     18242     18244
     18246     18245     18247     18249     18248     18250     18252     18251     18253
     18255     18254     18256     18258     18257     18259     18261     18260     18262
     18264     18263     18265     18267     18266     18268     18270     18269     18271
     18273     18272     18274     18276     18275     18277     18279     18278     18280
     18282     18281     18283     18285     18284     18286     18288     18287     18289
     18291     18290     18292     18294     18293     18295     18297     18296     18298
     18300     18299     18301     18303     18302     18304     18306     18305     18307
     18309     18308     18310     18312     18311     18313     18315     18314     18316
     18318     18317     18319     18321     18320     18322     18324     18323     18325
     18327     18326     18328     18330     18329     18331     18333     18332     18334
     18336     18335     18337     18339     18338     18340     18342     18341     18343
     18345     18344     18346     18348     18347     18349     18351     18350     18352
     18354     18353     18355     18357     18356     18358     18360     18359     18361
     18363     18362     18364     18366     18365     18367     18369     18368     18370
     18372     18371     18373     18375     18374     18376     18378     18377     18379
     18381     18380     18382     18384     18383     18385     18387     18386     18388
     18390     18389     18391     18393     18392     18394     18396     18395     18397
     18399     18398     18400     18402     18401     18403     18405     18404     18406
     18408     18407     18409     18411     18410     18412     18414     18413     18415
     18417     18416     18418     18420     18419     18421     18423     18422     18424
     18426     18425     18427     18429     18428     18430     18432     18431     18433
     18435     18434     18436     18438     18437     18439     18441     18440     18442
     18444     18443     18445     18447     18446     18448     18450     18449     18451
     18453     18452     18454     18456     18455     18457     18459     18458     18460
     18462     18461     18463     18465     18464     18466     18468     18467     18469
     18471     18470     18472     18474     18473     18475     18477     18476     18478
     18480     18479     18481     18483     18482     18484     18486     18485     18487
     18489     18488     18490     18492     18491     18493     18495     18494     18496
     18498     18497     18499     18501     18500     18502     18504     18503     18505
     18507     18506     18508     18510     18509     18511     18513     18512     18514
     18516     18515     18517     18519     18518     18520     18522     18521     18523
     18525     18524     18526     18528     18527     18529     18531     18530     18532
     18534     18533     18535     18537     18536     18538     18540     18539     18541
     18543     18542     18544     18546     18545     18547     18549     18548     18550
     18552     18551     18553     18555     18554     18556     18558     18557     18559
     18561     18560     18562     18564     18563     18565     18567     18566     18568
     18570     18569     18571     18573     18572     18574     18576     18575     18577
     18579     18578     18580     18582     18581     18583     18585     18584     18586
     18588     18587     18589     18591     18590     18592     18594     18593     18595
     18597     18596     18598     18600     18599     18601     18603     18602     18604
     18606     18605     18607     18609     18608     18610     18612     18611     18613
     18615     18614     18616     18618     18617     18619     18621     18620     18622
     18624     18623     18625     18627     18626     18628     18630     18629     18631
     18633     18632     18634     18636     18635     18637     18639     18638     18640
     18642     18641     18643     18645     18644     18646     18648     18647     18649
     18651     18650     18652     18654     18653     18655     18657     18656     18658
     18660     18659     18661     18663     18662     18664     18666     18665     18667
     18669     18668     18670     18672     18671     18673     18675     18674     18676
     18678     18677     18679     18681     18680     18682     18684     18683     18685
     18687     18686     18688     18690     18689     18691     18693     18692     18694
     18696     18695     18697     18699     18698     18700     18702     18701     18703
     18705     18704     18706     18708     18707     18709     18711     18710     18712
     18714     18713     18715     18717     18716     18718     18720     18719     18721
     18723     18722     18724     18726     18725     18727     18729     18728     18730
     18732     18731     18733     18735     18734     18736     18738     18737     18739
     18741     18740     18742     18744     18743     18745     18747     18746     18748
     18750     18749     18751     18753     18752     18754     18756     18755     18757
     18759     18758     18760     18762     18761     18763     18765     18764     18766
     18768     18767     18769     18771     18770     18772     18774     18773     18775
     18777     18776     18778     18780     18779     18781     18783     18782     18784
     18786     18785     18787     18789     18788     18790     18792     18791     18793
     18795     18794     18796     18798     18797     18799     18801     18800     18802
     18804     18803     18805     18807     18806     18808     18810     18809     18811
     18813     18812     18814     18816     18815     18817     18819     18818     18820
     18822     18821     18823     18825     18824     18826     18828     18827     18829
     18831     18830     18832     18834     18833     18835     18837     18836     18838
     18840     18839     18841     18843     18842     18844     18846     18845     18847
     18849     18848     18850     18852     18851     18853     18855     18854     18856
     18858     18857     18859     18861     18860     18862     18864     18863     18865
     18867     18866     18868     18870     18869     18871     18873     18872     18874
     18876     18875     18877     18879     18878     18880     18882     18881     18883
     18885     18884     18886     18888     18887     18889     18891     18890     18892
     18894     18893     18895     18897     18896     18898     18900     18899     18901
     18903     18902     18904     18906     18905     18907     18909     18908     18910
     18912     18911     18913     18915     18914     18916     18918     18917     18919
     18921     18920     18922     18924     18923     18925     18927     18926     18928
     18930     18929     18931     18933     18932     18934     18936     18935     18937
     18939     18938     18940     18942     18941     18943     18945     18944     18946
     18948     18947     18949     18951     18950     18952     18954     18953     18955
     18957     18956     18958     18960     18959     18961     18963     18962     18964
     18966     18965     18967     18969     18968     18970     18972     18971     18973
     18975     18974     18976     18978     18977     18979     18981     18980     18982
     18984     18983     18985     18987     18986     18988     18990     18989     18991
     18993     18992     18994     18996     18995     18997     18999     18998     19000
     19002     19001     19003     19005     19004     19006     19008     19007     19009
     19011     19010     19012     19014     19013     19015     19017     19016     19018
     19020     19019     19021     19023     19022     19024     19026     19025     19027
     19029     19028     19030     19032     19031     19033     19035     19034     19036
     19038     19037     19039     19041     19040     19042     19044     19043     19045
     19047     19046     19048     19050     19049     19051     19053     19052     19054
     19056     19055     19057     19059     19058     19060     19062     19061     19063
     19065     19064     19066     19068     19067     19069     19071     19070     19072
     19074     19073     19075     19077     19076     19078     19080     19079     19081
     19083     19082     19084     19086     19085     19087     19089     19088     19090
     19092     19091     19093     19095     19094     19096     19098     19097     19099
     19101     19100     19102     19104     19103     19105     19107     19106     19108
     19110     19109     19111     19113     19112     19114     19116     19115     19117
     19119     19118     19120     19122     19121     19123     19125     19124     19126
     19128     19127     19129     19131     19130     19132     19134     19133     19135
     19137     19136     19138     19140     19139     19141     19143     19142     19144
     19146     19145     19147     19149     19148     19150     19152     19151     19153
     19155     19154     19156     19158     19157     19159     19161     19160     19162
     19164     19163     19165     19167     19166     19168     19170     19169     19171
     19173     19172     19174     19176     19175     19177     19179     19178     19180
     19182     19181     19183     19185     19184     19186     19188     19187     19189
     19191     19190     19192     19194     19193     19195     19197     19196     19198
     19200     19199     19201     19203     19202     19204     19206     19205     19207
     19209     19208     19210     19212     19211     19213     19215     19214     19216
     19218     19217     19219     19221     19220     19222     19224     19223     19225
     19227     19226     19228     19230     19229     19231     19233     19232     19234
     19236     19235     19237     19239     19238     19240     19242     19241     19243
     19245     19244     19246     19248     19247     19249     19251     19250     19252
     19254     19253     19255     19257     19256     19258     19260     19259     19261
     19263     19262     19264     19266     19265     19267     19269     19268     19270
     19272     19271     19273     19275     19274     19276     19278     19277     19279
     19281     19280     19282     19284     19283     19285     19287     19286     19288
     19290     19289     19291     19293     19292     19294     19296     19295     19297
     19299     19298     19300     19302     19301     19303     19305     19304     19306
     19308     19307     19309     19311     19310     19312     19314     19313     19315
     19317     19316     19318     19320     19319     19321     19323     19322     19324
     19326     19325     19327     19329     19328     19330     19332     19331     19333
     19335     19334     19336     19338     19337     19339     19341     19340     19342
     19344     19343     19345     19347     19346     19348     19350     19349     19351
     19353     19352     19354     19356     19355     19357     19359     19358     19360
     19362     19361     19363     19365     19364     19366     19368     19367     19369
     19371     19370     19372     19374     19373     19375     19377     19376     19378
     19380     19379     19381     19383     19382     19384     19386     19385     19387
     19389     19388     19390     19392     19391     19393     19395     19394     19396
     19398     19397     19399     19401     19400     19402     19404     19403     19405
     19407     19406     19408     19410     19409     19411     19413     19412     19414
     19416     19415     19417     19419     19418     19420     19422     19421     19423
     19425     19424     19426     19428     19427     19429     19431     19430     19432
     19434     19433     19435     19437     19436     19438     19440     19439     19441
     19443     19442     19444     19446     19445     19447     19449     19448     19450
     19452     19451     19453     19455     19454     19456     19458     19457     19459
     19461     19460     19462     19464     19463     19465     19467     19466     19468
     19470     19469     19471     19473     19472     19474     19476     19475     19477
     19479     19478     19480     19482     19481     19483     19485     19484     19486
     19488     19487     19489     19491     19490     19492     19494     19493     19495
     19497     19496     19498     19500     19499     19501     19503     19502     19504
     19506     19505     19507     19509     19508     19510     19512     19511     19513
     19515     19514     19516     19518     19517     19519     19521     19520     19522
     19524     19523     19525     19527     19526     19528     19530     19529     19531
     19533     19532     19534     19536     19535     19537     19539     19538     19540
     19542     19541     19543     19545     19544     19546     19548     19547     19549
     19551     19550     19552     19554     19553     19555     19557     19556     19558
     19560     19559     19561     19563     19562     19564     19566     19565     19567
     19569     19568     19570     19572     19571     19573     19575     19574     19576
     19578     19577     19579     19581     19580     19582     19584     19583     19585
     19587     19586     19588     19590     19589     19591     19593     19592     19594
     19596     19595     19597     19599     19598     19600     19602     19601     19603
     19605     19604     19606     19608     19607     19609     19611     19610     19612
     19614     19613     19615     19617     19616     19618     19620     19619     19621
     19623     19622     19624     19626     19625     19627     19629     19628     19630
     19632     19631     19633     19635     19634     19636     19638     19637     19639
     19641     19640     19642     19644     19643     19645     19647     19646     19648
     19650     19649     19651     19653     19652     19654     19656     19655     19657
     19659     19658     19660     19662     19661     19663     19665     19664     19666
     19668     19667     19669     19671     19670     19672     19674     19673     19675
     19677     19676     19678     19680     19679     19681     19683     19682     19684
     19686     19685     19687     19689     19688     19690     19692     19691     19693
     19695     19694     19696     19698     19697     19699     19701     19700     19702
     19704     19703     19705     19707     19706     19708     19710     19709     19711
     19713     19712     19714     19716     19715     19717     19719     19718     19720
     19722     19721     19723     19725     19724     19726     19728     19727     19729
     19731     19730     19732     19734     19733     19735     19737     19736     19738
     19740     19739     19741     19743     19742     19744     19746     19745     19747
     19749     19748     19750     19752     19751     19753     19755     19754     19756
     19758     19757     19759     19761     19760     19762     19764     19763     19765
     19767     19766     19768     19770     19769     19771     19773     19772     19774
     19776     19775     19777     19779     19778     19780     19782     19781     19783
     19785     19784     19786     19788     19787     19789     19791     19790     19792
     19794     19793     19795     19797     19796     19798     19800     19799     19801
     19803     19802     19804     19806     19805     19807     19809     19808     19810
     19812     19811     19813     19815     19814     19816     19818     19817     19819
     19821     19820     19822     19824     19823     19825     19827     19826     19828
     19830     19829     19831     19833     19832     19834     19836     19835     19837
     19839     19838     19840     19842     19841     19843     19845     19844     19846
     19848     19847     19849     19851     19850     19852     19854     19853     19855
     19857     19856     19858     19860     19859     19861     19863     19862     19864
     19866     19865     19867     19869     19868     19870     19872     19871     19873
     19875     19874     19876     19878     19877     19879     19881     19880     19882
     19884     19883     19885     19887     19886     19888     19890     19889     19891
     19893     19892     19894     19896     19895     19897     19899     19898     19900
     19902     19901     19903     19905     19904     19906     19908     19907     19909
     19911     19910     19912     19914     19913     19915     19917     19916     19918
     19920     19919     19921     19923     19922     19924     19926     19925     19927
     19929     19928     19930     19932     19931     19933     19935     19934     19936
     19938     19937     19939     19941     19940     19942     19944     19943     19945
     19947     19946     19948     19950     19949     19951     19953     19952     19954
     19956     19955     19957     19959     19958     19960     19962     19961     19963
     19965     19964     19966     19968     19967     19969     19971     19970     19972
     19974     19973     19975     19977     19976     19978     19980     19979     19981
     19983     19982     19984     19986     19985     19987     19989     19988     19990
     19992     19991     19993     19995     19994     19996     19998     19997     19999
     20001     20000     20002     20004     20003     20005     20007     20006     20008
     20010     20009     20011     20013     20012     20014     20016     20015     20017
     20019     20018     20020     20022     20021     20023     20025     20024     20026
     20028     20027     20029     20031     20030     20032     20034     20033     20035
     20037     20036     20038     20040     20039     20041     20043     20042     20044
     20046     20045     20047     20049     20048     20050     20052     20051     20053
     20055     20054     20056     20058     20057     20059     20061     20060     20062
     20064     20063     20065     20067     20066     20068     20070     20069     20071
     20073     20072     20074     20076     20075     20077     20079     20078     20080
     20082     20081     20083     20085     20084     20086     20088     20087     20089
     20091     20090     20092     20094     20093     20095     20097     20096     20098
     20100     20099     20101     20103     20102     20104     20106     20105     20107
     20109     20108     20110     20112     20111     20113     20115     20114     20116
     20118     20117     20119     20121     20120     20122     20124     20123     20125
     20127     20126     20128     20130     20129     20131     20133     20132     20134
     20136     20135     20137     20139     20138     20140     20142     20141     20143
     20145     20144     20146     20148     20147     20149     20151     20150     20152
     20154     20153     20155     20157     20156     20158     20160     20159     20161
     20163     20162     20164     20166     20165     20167     20169     20168     20170
     20172     20171     20173     20175     20174     20176     20178     20177     20179
     20181     20180     20182     20184     20183     20185     20187     20186     20188
     20190     20189     20191     20193     20192     20194     20196     20195     20197
     20199     20198     20200     20202     20201     20203     20205     20204     20206
     20208     20207     20209     20211     20210     20212     20214     20213     20215
     20217     20216     20218     20220     20219     20221     20223     20222     20224
     20226     20225     20227     20229     20228     20230     20232     20231     20233
     20235     20234     20236     20238     20237     20239     20241     20240     20242
     20244     20243     20245     20247     20246     20248     20250     20249     20251
     20253     20252     20254     20256     20255     20257     20259     20258     20260
     20262     20261     20263     20265     20264     20266     20268     20267     20269
     20271     20270     20272     20274     20273     20275     20277     20276     20278
     20280     20279     20281     20283     20282     20284     20286     20285     20287
     20289     20288     20290     20292     20291     20293     20295     20294     20296
     20298     20297     20299     20301     20300     20302     20304     20303     20305
     20307     20306     20308     20310     20309     20311     20313     20312     20314
     20316     20315     20317     20319     20318     20320     20322     20321     20323
     20325     20324     20326     20328     20327     20329     20331     20330     20332
     20334     20333     20335     20337     20336     20338     20340     20339     20341
     20343     20342     20344     20346     20345     20347     20349     20348     20350
     20352     20351     20353     20355     20354     20356     20358     20357     20359
     20361     20360     20362     20364     20363     20365     20367     20366     20368
     20370     20369     20371     20373     20372     20374     20376     20375     20377
     20379     20378     20380     20382     20381     20383     20385     20384     20386
     20388     20387     20389     20391     20390     20392     20394     20393     20395
     20397     20396     20398     20400     20399     20401     20403     20402     20404
     20406     20405     20407     20409     20408     20410     20412     20411     20413
     20415     20414     20416     20418     20417     20419     20421     20420     20422
     20424     20423     20425     20427     20426     20428     20430     20429     20431
     20433     20432     20434     20436     20435     20437     20439     20438     20440
     20442     20441     20443     20445     20444     20446     20448     20447     20449
     20451     20450     20452     20454     20453     20455     20457     20456     20458
     20460     20459     20461     20463     20462     20464     20466     20465     20467
     20469     20468     20470     20472     20471     20473     20475     20474     20476
     20478     20477     20479     20481     20480     20482     20484     20483     20485
     20487     20486     20488     20490     20489     20491     20493     20492     20494
     20496     20495     20497     20499     20498     20500     20502     20501     20503
     20505     20504     20506     20508     20507     20509     20511     20510     20512
     20514     20513     20515     20517     20516     20518     20520     20519     20521
     20523     20522     20524     20526     20525     20527     20529     20528     20530
     20532     20531     20533     20535     20534     20536     20538     20537     20539
     20541     20540     20542     20544     20543     20545     20547     20546     20548
     20550     20549     20551     20553     20552     20554     20556     20555     20557
     20559     20558     20560     20562     20561     20563     20565     20564     20566
     20568     20567     20569     20571     20570     20572     20574     20573     20575
     20577     20576     20578     20580     20579     20581     20583     20582     20584
     20586     20585     20587     20589     20588     20590     20592     20591     20593
     20595     20594     20596     20598     20597     20599     20601     20600     20602
     20604     20603     20605     20607     20606     20608     20610     20609     20611
     20613     20612     20614     20616     20615     20617     20619     20618     20620
     20622     20621     20623     20625     20624     20626     20628     20627     20629
     20631     20630     20632     20634     20633     20635     20637     20636     20638
     20640     20639     20641     20643     20642     20644     20646     20645     20647
     20649     20648     20650     20652     20651     20653     20655     20654     20656
     20658     20657     20659     20661     20660     20662     20664     20663     20665
     20667     20666     20668     20670     20669     20671     20673     20672     20674
     20676     20675     20677     20679     20678     20680     20682     20681     20683
     20685     20684     20686     20688     20687     20689     20691     20690     20692
     20694     20693     20695     20697     20696     20698     20700     20699     20701
     20703     20702     20704     20706     20705     20707     20709     20708     20710
     20712     20711     20713     20715     20714     20716     20718     20717     20719
     20721     20720     20722     20724     20723     20725     20727     20726     20728
     20730     20729     20731     20733     20732     20734     20736     20735     20737
     20739     20738     20740     20742     20741     20743     20745     20744     20746
     20748     20747     20749     20751     20750     20752     20754     20753     20755
     20757     20756     20758     20760     20759     20761     20763     20762     20764
     20766     20765     20767     20769     20768     20770     20772     20771     20773
     20775     20774     20776     20778     20777     20779     20781     20780     20782
     20784     20783     20785     20787     20786     20788     20790     20789     20791
     20793     20792     20794     20796     20795     20797     20799     20798     20800
     20802     20801     20803     20805     20804     20806     20808     20807     20809
     20811     20810     20812     20814     20813     20815     20817     20816     20818
     20820     20819     20821     20823     20822     20824     20826     20825     20827
     20829     20828     20830     20832     20831     20833     20835     20834     20836
     20838     20837     20839     20841     20840     20842     20844     20843     20845
     20847     20846     20848     20850     20849     20851     20853     20852     20854
     20856     20855     20857     20859     20858     20860     20862     20861     20863
     20865     20864     20866     20868     20867     20869     20871     20870     20872
     20874     20873     20875     20877     20876     20878     20880     20879     20881
     20883     20882     20884     20886     20885     20887     20889     20888     20890
     20892     20891     20893     20895     20894     20896     20898     20897     20899
     20901     20900     20902     20904     20903     20905     20907     20906     20908
     20910     20909     20911     20913     20912     20914     20916     20915     20917
     20919     20918     20920     20922     20921     20923     20925     20924     20926
     20928     20927     20929     20931     20930     20932     20934     20933     20935
     20937     20936     20938     20940     20939     20941     20943     20942     20944
     20946     20945     20947     20949     20948     20950     20952     20951     20953
     20955     20954     20956     20958     20957     20959     20961     20960     20962
     20964     20963     20965     20967     20966     20968     20970     20969     20971
     20973     20972     20974     20976     20975     20977     20979     20978     20980
     20982     20981     20983     20985     20984     20986     20988     20987     20989
     20991     20990     20992     20994     20993     20995     20997     20996     20998
     21000     20999     21001     21003     21002     21004     21006     21005     21007
     21009     21008     21010     21012     21011     21013     21015     21014     21016
     21018     21017     21019     21021     21020     21022     21024     21023     21025
     21027     21026     21028     21030     21029     21031     21033     21032     21034
     21036     21035     21037     21039     21038     21040     21042     21041     21043
     21045     21044     21046     21048     21047     21049     21051     21050     21052
     21054     21053     21055     21057     21056     21058     21060     21059     21061
     21063     21062     21064     21066     21065     21067     21069     21068     21070
     21072     21071     21073     21075     21074     21076     21078     21077     21079
     21081     21080     21082     21084     21083     21085     21087     21086     21088
     21090     21089     21091     21093     21092     21094     21096     21095     21097
     21099     21098     21100     21102     21101     21103     21105     21104     21106
     21108     21107     21109     21111     21110     21112     21114     21113     21115
     21117     21116     21118     21120     21119     21121     21123     21122     21124
     21126     21125     21127     21129     21128     21130     21132     21131     21133
     21135     21134     21136     21138     21137     21139     21141     21140     21142
     21144     21143     21145     21147     21146     21148     21150     21149     21151
     21153     21152     21154     21156     21155     21157     21159     21158     21160
     21162     21161     21163     21165     21164     21166     21168     21167     21169
     21171     21170     21172     21174     21173     21175     21177     21176     21178
     21180     21179     21181     21183     21182     21184     21186     21185     21187
     21189     21188     21190     21192     21191     21193     21195     21194     21196
     21198     21197     21199     21201     21200     21202     21204     21203     21205
     21207     21206     21208     21210     21209     21211     21213     21212     21214
     21216     21215     21217     21219     21218     21220     21222     21221     21223
     21225     21224     21226     21228     21227     21229     21231     21230     21232
     21234     21233     21235     21237     21236     21238     21240     21239     21241
     21243     21242     21244     21246     21245     21247     21249     21248     21250
     21252     21251     21253     21255     21254     21256     21258     21257     21259
     21261     21260     21262     21264     21263     21265     21267     21266     21268
     21270     21269     21271     21273     21272     21274     21276     21275     21277
     21279     21278     21280     21282     21281     21283     21285     21284     21286
     21288     21287     21289     21291     21290     21292     21294     21293     21295
     21297     21296     21298     21300     21299     21301     21303     21302     21304
     21306     21305     21307     21309     21308     21310     21312     21311     21313
     21315     21314     21316     21318     21317     21319     21321     21320     21322
     21324     21323     21325     21327     21326     21328     21330     21329     21331
     21333     21332     21334     21336     21335     21337     21339     21338     21340
     21342     21341     21343     21345     21344     21346     21348     21347     21349
     21351     21350     21352     21354     21353     21355     21357     21356     21358
     21360     21359     21361     21363     21362     21364     21366     21365     21367
     21369     21368     21370     21372     21371     21373     21375     21374     21376
     21378     21377     21379     21381     21380     21382     21384     21383     21385
     21387     21386     21388     21390     21389     21391     21393     21392     21394
     21396     21395     21397     21399     21398     21400     21402     21401     21403
     21405     21404     21406     21408     21407     21409     21411     21410     21412
     21414     21413     21415     21417     21416     21418     21420     21419     21421
     21423     21422     21424     21426     21425     21427     21429     21428     21430
     21432     21431     21433     21435     21434     21436     21438     21437     21439
     21441     21440     21442     21444     21443     21445     21447     21446     21448
     21450     21449     21451     21453     21452     21454     21456     21455     21457
     21459     21458     21460     21462     21461     21463     21465     21464     21466
     21468     21467     21469     21471     21470     21472     21474     21473     21475
     21477     21476     21478     21480     21479     21481     21483     21482     21484
     21486     21485     21487     21489     21488     21490     21492     21491     21493
     21495     21494     21496     21498     21497     21499     21501     21500     21502
     21504     21503     21505     21507     21506     21508     21510     21509     21511
     21513     21512     21514     21516     21515     21517     21519     21518     21520
     21522     21521     21523     21525     21524     21526     21528     21527     21529
     21531     21530     21532     21534     21533     21535     21537     21536     21538
     21540     21539     21541     21543     21542     21544     21546     21545     21547
     21549     21548     21550     21552     21551     21553     21555     21554     21556
     21558     21557     21559     21561     21560     21562     21564     21563     21565
     21567     21566     21568     21570     21569     21571     21573     21572     21574
     21576     21575     21577     21579     21578     21580     21582     21581     21583
     21585     21584     21586     21588     21587     21589     21591     21590     21592
     21594     21593     21595     21597     21596     21598     21600     21599     21601
     21603     21602     21604     21606     21605     21607     21609     21608     21610
     21612     21611     21613     21615     21614     21616     21618     21617     21619
     21621     21620     21622     21624     21623     21625     21627     21626     21628
     21630     21629     21631     21633     21632     21634     21636     21635     21637
     21639     21638     21640     21642     21641     21643     21645     21644     21646
     21648     21647     21649     21651     21650     21652     21654     21653     21655
     21657     21656     21658     21660     21659     21661     21663     21662     21664
     21666     21665     21667     21669     21668     21670     21672     21671     21673
     21675     21674     21676     21678     21677     21679     21681     21680     21682
     21684     21683     21685     21687     21686     21688     21690     21689     21691
     21693     21692     21694     21696     21695     21697     21699     21698     21700
     21702     21701     21703     21705     21704     21706     21708     21707     21709
     21711     21710     21712     21714     21713     21715     21717     21716     21718
     21720     21719     21721     21723     21722     21724     21726     21725     21727
     21729     21728     21730     21732     21731     21733     21735     21734     21736
     21738     21737     21739     21741     21740     21742     21744     21743     21745
     21747     21746     21748     21750     21749     21751     21753     21752     21754
     21756     21755     21757     21759     21758     21760     21762     21761     21763
     21765     21764     21766     21768     21767     21769     21771     21770     21772
     21774     21773     21775     21777     21776     21778     21780     21779     21781
     21783     21782     21784     21786     21785     21787     21789     21788     21790
     21792     21791     21793     21795     21794     21796     21798     21797     21799
     21801     21800     21802     21804     21803     21805     21807     21806     21808
     21810     21809     21811     21813     21812     21814     21816     21815     21817
     21819     21818     21820     21822     21821     21823     21825     21824     21826
     21828     21827     21829     21831     21830     21832     21834     21833     21835
     21837     21836     21838     21840     21839     21841     21843     21842     21844
     21846     21845     21847     21849     21848     21850     21852     21851     21853
     21855     21854     21856     21858     21857     21859     21861     21860     21862
     21864     21863     21865     21867     21866     21868     21870     21869     21871
     21873     21872     21874     21876     21875     21877     21879     21878     21880
     21882     21881     21883     21885     21884     21886     21888     21887     21889
     21891     21890     21892     21894     21893     21895     21897     21896     21898
     21900     21899     21901     21903     21902     21904     21906     21905     21907
     21909     21908     21910     21912     21911     21913     21915     21914     21916
     21918     21917     21919     21921     21920     21922     21924     21923     21925
     21927     21926     21928     21930     21929     21931     21933     21932     21934
     21936     21935     21937     21939     21938     21940     21942     21941     21943
     21945     21944     21946     21948     21947     21949     21951     21950     21952
     21954     21953     21955     21957     21956     21958     21960     21959     21961
     21963     21962     21964     21966     21965     21967     21969     21968     21970
     21972     21971     21973     21975     21974     21976     21978     21977     21979
     21981     21980     21982     21984     21983     21985     21987     21986     21988
     21990     21989     21991     21993     21992     21994     21996     21995     21997
     21999     21998     22000     22002     22001     22003     22005     22004     22006
     22008     22007     22009     22011     22010     22012     22014     22013     22015
     22017     22016     22018     22020     22019     22021     22023     22022     22024
     22026     22025     22027     22029     22028     22030     22032     22031     22033
     22035     22034     22036     22038     22037     22039     22041     22040     22042
     22044     22043     22045     22047     22046     22048     22050     22049     22051
     22053     22052     22054     22056     22055     22057     22059     22058     22060
     22062     22061     22063     22065     22064     22066     22068     22067     22069
     22071     22070     22072     22074     22073     22075     22077     22076     22078
     22080     22079     22081     22083     22082     22084     22086     22085     22087
     22089     22088     22090     22092     22091     22093     22095     22094     22096
     22098     22097     22099     22101     22100     22102     22104     22103     22105
     22107     22106     22108     22110     22109     22111     22113     22112     22114
     22116     22115     22117     22119     22118     22120     22122     22121     22123
     22125     22124     22126     22128     22127     22129     22131     22130     22132
     22134     22133     22135     22137     22136     22138     22140     22139     22141
     22143     22142     22144     22146     22145     22147     22149     22148     22150
     22152     22151     22153     22155     22154     22156     22158     22157     22159
     22161     22160     22162     22164     22163     22165     22167     22166     22168
     22170     22169     22171     22173     22172     22174     22176     22175     22177
     22179     22178     22180     22182     22181     22183     22185     22184     22186
     22188     22187     22189     22191     22190     22192     22194     22193     22195
     22197     22196     22198     22200     22199     22201     22203     22202     22204
     22206     22205     22207     22209     22208     22210     22212     22211     22213
     22215     22214     22216     22218     22217     22219     22221     22220     22222
     22224     22223     22225     22227     22226     22228     22230     22229     22231
     22233     22232     22234     22236     22235     22237     22239     22238     22240
     22242     22241     22243     22245     22244     22246     22248     22247     22249
     22251     22250     22252     22254     22253     22255     22257     22256     22258
     22260     22259     22261     22263     22262     22264     22266     22265     22267
     22269     22268     22270     22272     22271     22273     22275     22274     22276
     22278     22277     22279     22281     22280     22282     22284     22283     22285
     22287     22286     22288     22290     22289     22291     22293     22292     22294
     22296     22295     22297     22299     22298     22300     22302     22301     22303
     22305     22304     22306     22308     22307     22309     22311     22310     22312
     22314     22313     22315     22317     22316     22318     22320     22319     22321
     22323     22322     22324     22326     22325     22327     22329     22328     22330
     22332     22331     22333     22335     22334     22336     22338     22337     22339
     22341     22340     22342     22344     22343     22345     22347     22346     22348
     22350     22349     22351     22353     22352     22354     22356     22355     22357
     22359     22358     22360     22362     22361     22363     22365     22364     22366
     22368     22367     22369     22371     22370     22372     22374     22373     22375
     22377     22376     22378     22380     22379     22381     22383     22382     22384
     22386     22385     22387     22389     22388     22390     22392     22391     22393
     22395     22394     22396     22398     22397     22399     22401     22400     22402
     22404     22403     22405     22407     22406     22408     22410     22409     22411
     22413     22412     22414     22416     22415     22417     22419     22418     22420
     22422     22421     22423     22425     22424     22426     22428     22427     22429
     22431     22430     22432     22434     22433     22435     22437     22436     22438
     22440     22439     22441     22443     22442     22444     22446     22445     22447
     22449     22448     22450     22452     22451     22453     22455     22454     22456
     22458     22457     22459     22461     22460     22462     22464     22463     22465
     22467     22466     22468     22470     22469     22471     22473     22472     22474
     22476     22475     22477     22479     22478     22480     22482     22481     22483
     22485     22484     22486     22488     22487     22489     22491     22490     22492
     22494     22493     22495     22497     22496     22498     22500     22499     22501
     22503     22502     22504     22506     22505     22507     22509     22508     22510
     22512     22511     22513     22515     22514     22516     22518     22517     22519
     22521     22520     22522     22524     22523     22525     22527     22526     22528
     22530     22529     22531     22533     22532     22534     22536     22535     22537
     22539     22538     22540     22542     22541     22543     22545     22544     22546
     22548     22547     22549     22551     22550     22552     22554     22553     22555
     22557     22556     22558     22560     22559     22561     22563     22562     22564
     22566     22565     22567     22569     22568     22570     22572     22571     22573
     22575     22574     22576     22578     22577     22579     22581     22580     22582
     22584     22583     22585     22587     22586     22588     22590     22589     22591
     22593     22592     22594     22596     22595     22597     22599     22598     22600
     22602     22601     22603     22605     22604     22606     22608     22607     22609
     22611     22610     22612     22614     22613     22615     22617     22616     22618
     22620     22619     22621     22623     22622     22624     22626     22625     22627
     22629     22628     22630     22632     22631     22633     22635     22634     22636
     22638     22637     22639     22641     22640     22642     22644     22643     22645
     22647     22646     22648     22650     22649     22651     22653     22652     22654
     22656     22655     22657     22659     22658     22660     22662     22661     22663
     22665     22664     22666     22668     22667     22669     22671     22670     22672
     22674     22673     22675     22677     22676     22678     22680     22679     22681
     22683     22682     22684     22686     22685     22687     22689     22688     22690
     22692     22691     22693     22695     22694     22696     22698     22697     22699
     22701     22700     22702     22704     22703     22705     22707     22706     22708
     22710     22709     22711     22713     22712     22714     22716     22715     22717
     22719     22718     22720     22722     22721     22723     22725     22724     22726
     22728     22727     22729     22731     22730     22732     22734     22733     22735
     22737     22736     22738     22740     22739     22741     22743     22742     22744
     22746     22745     22747     22749     22748     22750     22752     22751     22753
     22755     22754     22756     22758     22757     22759     22761     22760     22762
     22764     22763     22765     22767     22766     22768     22770     22769     22771
     22773     22772     22774     22776     22775     22777     22779     22778     22780
     22782     22781     22783     22785     22784     22786     22788     22787     22789
     22791     22790     22792     22794     22793     22795     22797     22796     22798
     22800     22799     22801     22803     22802     22804     22806     22805     22807
     22809     22808     22810     22812     22811     22813     22815     22814     22816
     22818     22817     22819     22821     22820     22822     22824     22823     22825
     22827     22826     22828     22830     22829     22831     22833     22832     22834
     22836     22835     22837     22839     22838     22840     22842     22841     22843
     22845     22844     22846     22848     22847     22849     22851     22850     22852
     22854     22853     22855     22857     22856     22858     22860     22859     22861
     22863     22862     22864     22866     22865     22867     22869     22868     22870
     22872     22871     22873     22875     22874     22876     22878     22877     22879
     22881     22880     22882     22884     22883     22885     22887     22886     22888
     22890     22889     22891     22893     22892     22894     22896     22895     22897
     22899     22898     22900     22902     22901     22903     22905     22904     22906
     22908     22907     22909     22911     22910     22912     22914     22913     22915
     22917     22916     22918     22920     22919     22921     22923     22922     22924
     22926     22925     22927     22929     22928     22930     22932     22931     22933
     22935     22934     22936     22938     22937     22939     22941     22940     22942
     22944     22943     22945     22947     22946     22948     22950     22949     22951
     22953     22952     22954     22956     22955     22957     22959     22958     22960
     22962     22961     22963     22965     22964     22966     22968     22967     22969
     22971     22970     22972     22974     22973     22975     22977     22976     22978
     22980     22979     22981     22983     22982     22984     22986     22985     22987
     22989     22988     22990     22992     22991     22993     22995     22994     22996
     22998     22997     22999     23001     23000     23002     23004     23003     23005
     23007     23006     23008     23010     23009     23011     23013     23012     23014
     23016     23015     23017     23019     23018     23020     23022     23021     23023
     23025     23024     23026     23028     23027     23029     23031     23030     23032
     23034     23033     23035     23037     23036     23038     23040     23039     23041
     23043     23042     23044     23046     23045     23047     23049     23048     23050
     23052     23051     23053     23055     23054     23056     23058     23057     23059
     23061     23060     23062     23064     23063     23065     23067     23066     23068
     23070     23069     23071     23073     23072     23074     23076     23075     23077
     23079     23078     23080     23082     23081     23083     23085     23084     23086
     23088     23087     23089     23091     23090     23092     23094     23093     23095
     23097     23096     23098     23100     23099     23101     23103     23102     23104
     23106     23105     23107     23109     23108     23110     23112     23111     23113
     23115     23114     23116     23118     23117     23119     23121     23120     23122
     23124     23123     23125     23127     23126     23128     23130     23129     23131
     23133     23132     23134     23136     23135     23137     23139     23138     23140
     23142     23141     23143     23145     23144     23146     23148     23147     23149
     23151     23150     23152     23154     23153     23155     23157     23156     23158
     23160     23159     23161     23163     23162     23164     23166     23165     23167
     23169     23168     23170     23172     23171     23173     23175     23174     23176
     23178     23177     23179     23181     23180     23182     23184     23183     23185
     23187     23186     23188     23190     23189     23191     23193     23192     23194
     23196     23195     23197     23199     23198     23200     23202     23201     23203
     23205     23204     23206     23208     23207     23209     23211     23210     23212
     23214     23213     23215     23217     23216     23218     23220     23219     23221
     23223     23222     23224     23226     23225     23227     23229     23228     23230
     23232     23231     23233     23235     23234     23236     23238     23237     23239
     23241     23240     23242     23244     23243     23245     23247     23246     23248
     23250     23249     23251     23253     23252     23254     23256     23255     23257
     23259     23258     23260     23262     23261     23263     23265     23264     23266
     23268     23267     23269     23271     23270     23272     23274     23273     23275
     23277     23276     23278     23280     23279     23281     23283     23282     23284
     23286     23285     23287     23289     23288     23290     23292     23291     23293
     23295     23294     23296     23298     23297     23299     23301     23300     23302
     23304     23303     23305     23307     23306     23308     23310     23309     23311
     23313     23312     23314     23316     23315     23317     23319     23318     23320
     23322     23321     23323     23325     23324     23326     23328     23327     23329
     23331     23330     23332     23334     23333     23335     23337     23336     23338
     23340     23339     23341     23343     23342     23344     23346     23345     23347
     23349     23348     23350     23352     23351     23353     23355     23354     23356
     23358     23357     23359     23361     23360     23362     23364     23363     23365
     23367     23366     23368     23370     23369     23371     23373     23372     23374
     23376     23375     23377     23379     23378     23380     23382     23381     23383
     23385     23384     23386     23388     23387     23389     23391     23390     23392
     23394     23393     23395     23397     23396     23398     23400     23399     23401
     23403     23402     23404     23406     23405     23407     23409     23408     23410
     23412     23411     23413     23415     23414     23416     23418     23417     23419
     23421     23420     23422     23424     23423     23425     23427     23426     23428
     23430     23429     23431     23433     23432     23434     23436     23435     23437
     23439     23438     23440     23442     23441     23443     23445     23444     23446
     23448     23447     23449     23451     23450     23452     23454     23453     23455
     23457     23456     23458     23460     23459     23461     23463     23462     23464
     23466     23465     23467     23469     23468     23470     23472     23471     23473
     23475     23474     23476     23478     23477     23479     23481     23480     23482
     23484     23483     23485     23487     23486     23488     23490     23489     23491
     23493     23492     23494     23496     23495     23497     23499     23498     23500
     23502     23501     23503     23505     23504     23506     23508     23507     23509
     23511     23510     23512     23514     23513     23515     23517     23516     23518
     23520     23519     23521     23523     23522     23524     23526     23525     23527
     23529     23528     23530     23532     23531     23533     23535     23534     23536
     23538     23537     23539     23541     23540     23542     23544     23543     23545
     23547     23546     23548     23550     23549     23551     23553     23552     23554
     23556     23555     23557     23559     23558     23560     23562     23561     23563
     23565     23564     23566     23568     23567     23569     23571     23570     23572
     23574     23573     23575     23577     23576     23578     23580     23579     23581
     23583     23582     23584     23586     23585     23587     23589     23588     23590
     23592     23591     23593     23595     23594     23596     23598     23597     23599
     23601     23600     23602     23604     23603     23605     23607     23606     23608
     23610     23609     23611     23613     23612     23614     23616     23615     23617
     23619     23618     23620     23622     23621     23623     23625     23624     23626
     23628     23627     23629     23631     23630     23632     23634     23633     23635
     23637     23636     23638     23640     23639     23641     23643     23642     23644
     23646     23645     23647     23649     23648     23650     23652     23651     23653
     23655     23654     23656     23658     23657     23659     23661     23660     23662
     23664     23663     23665     23667     23666     23668     23670     23669     23671
     23673     23672     23674     23676     23675     23677     23679     23678     23680
     23682     23681     23683     23685     23684     23686     23688     23687     23689
     23691     23690     23692     23694     23693     23695     23697     23696     23698
     23700     23699     23701     23703     23702     23704     23706     23705     23707
     23709     23708     23710     23712     23711     23713     23715     23714     23716
     23718     23717     23719     23721     23720     23722     23724     23723     23725
     23727     23726     23728     23730     23729     23731     23733     23732     23734
     23736     23735     23737     23739     23738     23740     23742     23741     23743
     23745     23744     23746     23748     23747     23749     23751     23750     23752
     23754     23753     23755     23757     23756     23758     23760     23759     23761
     23763     23762     23764     23766     23765     23767     23769     23768     23770
     23772     23771     23773     23775     23774     23776     23778     23777     23779
     23781     23780     23782     23784     23783     23785     23787     23786     23788
     23790     23789     23791     23793     23792     23794     23796     23795     23797
     23799     23798     23800     23802     23801     23803     23805     23804     23806
     23808     23807     23809     23811     23810     23812     23814     23813     23815
     23817     23816     23818     23820     23819     23821     23823     23822     23824
     23826     23825     23827     23829     23828     23830     23832     23831     23833
     23835     23834     23836     23838     23837     23839     23841     23840     23842
     23844     23843     23845     23847     23846     23848     23850     23849     23851
     23853     23852     23854     23856     23855     23857     23859     23858     23860
     23862     23861     23863     23865     23864     23866     23868     23867     23869
     23871     23870     23872     23874     23873     23875     23877     23876     23878
     23880     23879     23881     23883     23882     23884     23886     23885     23887
     23889     23888     23890     23892     23891     23893     23895     23894     23896
     23898     23897     23899     23901     23900     23902     23904     23903     23905
     23907     23906     23908     23910     23909     23911     23913     23912     23914
     23916     23915     23917     23919     23918     23920     23922     23921     23923
     23925     23924     23926     23928     23927     23929     23931     23930     23932
     23934     23933     23935     23937     23936     23938     23940     23939     23941
     23943     23942     23944     23946     23945     23947     23949     23948     23950
     23952     23951     23953     23955     23954     23956     23958     23957     23959
     23961     23960     23962     23964     23963     23965     23967     23966     23968
     23970     23969     23971     23973     23972     23974     23976     23975     23977
     23979     23978     23980     23982     23981     23983     23985     23984     23986
     23988     23987     23989     23991     23990     23992     23994     23993     23995
     23997     23996     23998     24000     23999     24001     24003     24002     24004
     24006     24005     24007     24009     24008     24010     24012     24011     24013
     24015     24014     24016     24018     24017     24019     24021     24020     24022
     24024     24023     24025     24027     24026     24028     24030     24029     24031
     24033     24032     24034     24036     24035     24037     24039     24038     24040
     24042     24041     24043     24045     24044     24046     24048     24047     24049
     24051     24050     24052     24054     24053     24055     24057     24056     24058
     24060     24059     24061     24063     24062     24064     24066     24065     24067
     24069     24068     24070     24072     24071     24073     24075     24074     24076
     24078     24077     24079     24081     24080     24082     24084     24083     24085
     24087     24086     24088     24090     24089     24091     24093     24092     24094
     24096     24095     24097     24099     24098     24100     24102     24101     24103
     24105     24104     24106     24108     24107     24109     24111     24110     24112
     24114     24113     24115     24117     24116     24118     24120     24119     24121
     24123     24122     24124     24126     24125     24127     24129     24128     24130
     24132     24131     24133     24135     24134     24136     24138     24137     24139
     24141     24140     24142     24144     24143     24145     24147     24146     24148
     24150     24149     24151     24153     24152     24154     24156     24155     24157
     24159     24158     24160     24162     24161     24163     24165     24164     24166
     24168     24167     24169     24171     24170     24172     24174     24173     24175
     24177     24176     24178     24180     24179     24181     24183     24182     24184
     24186     24185     24187     24189     24188     24190     24192     24191     24193
     24195     24194     24196     24198     24197     24199     24201     24200     24202
     24204     24203     24205     24207     24206     24208     24210     24209     24211
     24213     24212     24214     24216     24215     24217     24219     24218     24220
     24222     24221     24223     24225     24224     24226     24228     24227     24229
     24231     24230     24232     24234     24233     24235     24237     24236     24238
     24240     24239     24241     24243     24242     24244     24246     24245     24247
     24249     24248     24250     24252     24251     24253     24255     24254     24256
     24258     24257     24259     24261     24260     24262     24264     24263     24265
     24267     24266     24268     24270     24269     24271     24273     24272     24274
     24276     24275     24277     24279     24278     24280     24282     24281     24283
     24285     24284     24286     24288     24287     24289     24291     24290     24292
     24294     24293     24295     24297     24296     24298     24300     24299     24301
     24303     24302     24304     24306     24305     24307     24309     24308     24310
     24312     24311     24313     24315     24314     24316     24318     24317     24319
     24321     24320     24322     24324     24323     24325     24327     24326     24328
     24330     24329     24331     24333     24332     24334     24336     24335     24337
     24339     24338     24340     24342     24341     24343     24345     24344     24346
     24348     24347     24349     24351     24350     24352     24354     24353     24355
     24357     24356     24358     24360     24359     24361     24363     24362     24364
     24366     24365     24367     24369     24368     24370     24372     24371     24373
     24375     24374     24376     24378     24377     24379     24381     24380     24382
     24384     24383     24385     24387     24386     24388     24390     24389     24391
     24393     24392     24394     24396     24395     24397     24399     24398     24400
     24402     24401     24403     24405     24404     24406     24408     24407     24409
     24411     24410     24412     24414     24413     24415     24417     24416     24418
     24420     24419     24421     24423     24422     24424     24426     24425     24427
     24429     24428     24430     24432     24431     24433     24435     24434     24436
     24438     24437     24439     24441     24440     24442     24444     24443     24445
     24447     24446     24448     24450     24449     24451     24453     24452     24454
     24456     24455     24457     24459     24458     24460     24462     24461     24463
     24465     24464     24466     24468     24467     24469     24471     24470     24472
     24474     24473     24475     24477     24476     24478     24480     24479     24481
     24483     24482     24484     24486     24485     24487     24489     24488     24490
     24492     24491     24493     24495     24494     24496     24498     24497     24499
     24501     24500     24502     24504     24503     24505     24507     24506     24508
     24510     24509     24511     24513     24512     24514     24516     24515     24517
     24519     24518     24520     24522     24521     24523     24525     24524     24526
     24528     24527     24529     24531     24530     24532     24534     24533     24535
     24537     24536     24538     24540     24539     24541     24543     24542     24544
     24546     24545     24547     24549     24548     24550     24552     24551     24553
     24555     24554     24556     24558     24557     24559     24561     24560     24562
     24564     24563     24565     24567     24566     24568     24570     24569     24571
     24573     24572     24574     24576     24575     24577     24579     24578     24580
     24582     24581     24583     24585     24584     24586     24588     24587     24589
     24591     24590     24592     24594     24593     24595     24597     24596     24598
     24600     24599     24601     24603     24602     24604     24606     24605     24607
     24609     24608     24610     24612     24611     24613     24615     24614     24616
     24618     24617     24619     24621     24620     24622     24624     24623     24625
     24627     24626     24628     24630     24629     24631     24633     24632     24634
     24636     24635     24637     24639     24638     24640     24642     24641     24643
     24645     24644     24646     24648     24647     24649     24651     24650     24652
     24654     24653     24655     24657     24656     24658     24660     24659     24661
     24663     24662     24664     24666     24665     24667     24669     24668     24670
     24672     24671     24673     24675     24674     24676     24678     24677     24679
     24681     24680     24682     24684     24683     24685     24687     24686     24688
     24690     24689     24691     24693     24692     24694     24696     24695     24697
     24699     24698     24700     24702     24701     24703     24705     24704     24706
     24708     24707     24709     24711     24710     24712     24714     24713     24715
     24717     24716     24718     24720     24719     24721     24723     24722     24724
     24726     24725     24727     24729     24728     24730     24732     24731     24733
     24735     24734     24736     24738     24737     24739     24741     24740     24742
     24744     24743     24745     24747     24746     24748     24750     24749     24751
     24753     24752     24754     24756     24755     24757     24759     24758     24760
     24762     24761     24763     24765     24764     24766     24768     24767     24769
     24771     24770     24772     24774     24773     24775     24777     24776     24778
     24780     24779     24781     24783     24782     24784     24786     24785     24787
     24789     24788     24790     24792     24791     24793     24795     24794     24796
     24798     24797     24799     24801     24800     24802     24804     24803     24805
     24807     24806     24808     24810     24809     24811     24813     24812     24814
     24816     24815     24817     24819     24818     24820     24822     24821     24823
     24825     24824     24826     24828     24827     24829     24831     24830     24832
     24834     24833     24835     24837     24836     24838     24840     24839     24841
     24843     24842     24844     24846     24845     24847     24849     24848     24850
     24852     24851     24853     24855     24854     24856     24858     24857     24859
     24861     24860     24862     24864     24863     24865     24867     24866     24868
     24870     24869     24871     24873     24872     24874     24876     24875     24877
     24879     24878     24880     24882     24881     24883     24885     24884     24886
     24888     24887     24889     24891     24890     24892     24894     24893     24895
     24897     24896     24898     24900     24899     24901     24903     24902     24904
     24906     24905     24907     24909     24908     24910     24912     24911     24913
     24915     24914     24916     24918     24917     24919     24921     24920     24922
     24924     24923     24925     24927     24926     24928     24930     24929     24931
     24933     24932     24934     24936     24935     24937     24939     24938     24940
     24942     24941     24943     24945     24944     24946     24948     24947     24949
     24951     24950     24952     24954     24953     24955     24957     24956     24958
     24960     24959     24961     24963     24962     24964     24966     24965     24967
     24969     24968     24970     24972     24971     24973     24975     24974     24976
     24978     24977     24979     24981     24980     24982     24984     24983     24985
     24987     24986     24988     24990     24989     24991     24993     24992     24994
     24996     24995     24997     24999     24998     25000     25002     25001     25003
     25005     25004     25006     25008     25007     25009     25011     25010     25012
     25014     25013     25015     25017     25016     25018     25020     25019     25021
     25023     25022     25024     25026     25025     25027     25029     25028     25030
     25032     25031     25033     25035     25034     25036     25038     25037     25039
     25041     25040     25042     25044     25043     25045     25047     25046     25048
     25050     25049     25051     25053     25052     25054     25056     25055     25057
     25059     25058     25060     25062     25061     25063     25065     25064     25066
     25068     25067     25069     25071     25070     25072     25074     25073     25075
     25077     25076     25078     25080     25079     25081     25083     25082     25084
     25086     25085     25087     25089     25088     25090     25092     25091     25093
     25095     25094     25096     25098     25097     25099     25101     25100     25102
     25104     25103     25105     25107     25106     25108     25110     25109     25111
     25113     25112     25114     25116     25115     25117     25119     25118     25120
     25122     25121     25123     25125     25124     25126     25128     25127     25129
     25131     25130     25132     25134     25133     25135     25137     25136     25138
     25140     25139     25141     25143     25142     25144     25146     25145     25147
     25149     25148     25150     25152     25151     25153     25155     25154     25156
     25158     25157     25159     25161     25160     25162     25164     25163     25165
     25167     25166     25168     25170     25169     25171     25173     25172     25174
     25176     25175     25177     25179     25178     25180     25182     25181     25183
     25185     25184     25186     25188     25187     25189     25191     25190     25192
     25194     25193     25195     25197     25196     25198     25200     25199     25201
     25203     25202     25204     25206     25205     25207     25209     25208     25210
     25212     25211     25213     25215     25214     25216     25218     25217     25219
     25221     25220     25222     25224     25223     25225     25227     25226     25228
     25230     25229     25231     25233     25232     25234     25236     25235     25237
     25239     25238     25240     25242     25241     25243     25245     25244     25246
     25248     25247     25249     25251     25250     25252     25254     25253     25255
     25257     25256     25258     25260     25259     25261     25263     25262     25264
     25266     25265     25267     25269     25268     25270     25272     25271     25273
     25275     25274     25276     25278     25277     25279     25281     25280     25282
     25284     25283     25285     25287     25286     25288     25290     25289     25291
     25293     25292     25294     25296     25295     25297     25299     25298     25300
     25302     25301     25303     25305     25304     25306     25308     25307     25309
     25311     25310     25312     25314     25313     25315     25317     25316     25318
     25320     25319     25321     25323     25322     25324     25326     25325     25327
     25329     25328     25330     25332     25331     25333     25335     25334     25336
     25338     25337     25339     25341     25340     25342     25344     25343     25345
     25347     25346     25348     25350     25349     25351     25353     25352     25354
     25356     25355     25357     25359     25358     25360     25362     25361     25363
     25365     25364     25366     25368     25367     25369     25371     25370     25372
     25374     25373     25375     25377     25376     25378     25380     25379     25381
     25383     25382     25384     25386     25385     25387     25389     25388     25390
     25392     25391     25393     25395     25394     25396     25398     25397     25399
     25401     25400     25402     25404     25403     25405     25407     25406     25408
     25410     25409     25411     25413     25412     25414     25416     25415     25417
     25419     25418     25420     25422     25421     25423     25425     25424     25426
     25428     25427     25429     25431     25430     25432     25434     25433     25435
     25437     25436     25438     25440     25439     25441     25443     25442     25444
     25446     25445     25447     25449     25448     25450     25452     25451     25453
     25455     25454     25456     25458     25457     25459     25461     25460     25462
     25464     25463     25465     25467     25466     25468     25470     25469     25471
     25473     25472     25474     25476     25475     25477     25479     25478     25480
     25482     25481     25483     25485     25484     25486     25488     25487     25489
     25491     25490     25492     25494     25493     25495     25497     25496     25498
     25500     25499     25501     25503     25502     25504     25506     25505     25507
     25509     25508     25510     25512     25511     25513     25515     25514     25516
     25518     25517     25519     25521     25520     25522     25524     25523     25525
     25527     25526     25528     25530     25529     25531     25533     25532     25534
     25536     25535     25537     25539     25538     25540     25542     25541     25543
     25545     25544     25546     25548     25547     25549     25551     25550     25552
     25554     25553     25555     25557     25556     25558     25560     25559     25561
     25563     25562     25564     25566     25565     25567     25569     25568     25570
     25572     25571     25573     25575     25574     25576     25578     25577     25579
     25581     25580     25582     25584     25583     25585     25587     25586     25588
     25590     25589     25591     25593     25592     25594     25596     25595     25597
     25599     25598     25600     25602     25601     25603     25605     25604     25606
     25608     25607     25609     25611     25610     25612     25614     25613     25615
     25617     25616     25618     25620     25619     25621     25623     25622     25624
     25626     25625     25627     25629     25628     25630     25632     25631     25633
     25635     25634     25636     25638     25637     25639     25641     25640     25642
     25644     25643     25645     25647     25646     25648     25650     25649     25651
     25653     25652     25654     25656     25655     25657     25659     25658     25660
     25662     25661     25663     25665     25664     25666     25668     25667     25669
     25671     25670     25672     25674     25673     25675     25677     25676     25678
     25680     25679     25681     25683     25682     25684     25686     25685     25687
     25689     25688     25690     25692     25691     25693     25695     25694     25696
     25698     25697     25699     25701     25700     25702     25704     25703     25705
     25707     25706     25708     25710     25709     25711     25713     25712     25714
     25716     25715     25717     25719     25718     25720     25722     25721     25723
     25725     25724     25726     25728     25727     25729     25731     25730     25732
     25734     25733     25735     25737     25736     25738     25740     25739     25741
     25743     25742     25744     25746     25745     25747     25749     25748     25750
     25752     25751     25753     25755     25754     25756     25758     25757     25759
     25761     25760     25762     25764     25763     25765     25767     25766     25768
     25770     25769     25771     25773     25772     25774     25776     25775     25777
     25779     25778     25780     25782     25781     25783     25785     25784     25786
     25788     25787     25789     25791     25790     25792     25794     25793     25795
     25797     25796     25798     25800     25799     25801     25803     25802     25804
     25806     25805     25807     25809     25808     25810     25812     25811     25813
     25815     25814     25816     25818     25817     25819     25821     25820     25822
     25824     25823     25825     25827     25826     25828     25830     25829     25831
     25833     25832     25834     25836     25835     25837     25839     25838     25840
     25842     25841     25843     25845     25844     25846     25848     25847     25849
     25851     25850     25852     25854     25853     25855     25857     25856     25858
     25860     25859     25861     25863     25862     25864     25866     25865     25867
     25869     25868     25870     25872     25871     25873     25875     25874     25876
     25878     25877     25879     25881     25880     25882     25884     25883     25885
     25887     25886     25888     25890     25889     25891     25893     25892     25894
     25896     25895     25897     25899     25898     25900     25902     25901     25903
     25905     25904     25906     25908     25907     25909     25911     25910     25912
     25914     25913     25915     25917     25916     25918     25920     25919     25921
     25923     25922     25924     25926     25925     25927     25929     25928     25930
     25932     25931     25933     25935     25934     25936     25938     25937     25939
     25941     25940     25942     25944     25943     25945     25947     25946     25948
     25950     25949     25951     25953     25952     25954     25956     25955     25957
     25959     25958     25960     25962     25961     25963     25965     25964     25966
     25968     25967     25969     25971     25970     25972     25974     25973     25975
     25977     25976     25978     25980     25979     25981     25983     25982     25984
     25986     25985     25987     25989     25988     25990     25992     25991     25993
     25995     25994     25996     25998     25997     25999     26001     26000     26002
     26004     26003     26005     26007     26006     26008     26010     26009     26011
     26013     26012     26014     26016     26015     26017     26019     26018     26020
     26022     26021     26023     26025     26024     26026     26028     26027     26029
     26031     26030     26032     26034     26033     26035     26037     26036     26038
     26040     26039     26041     26043     26042     26044     26046     26045     26047
     26049     26048     26050     26052     26051     26053     26055     26054     26056
     26058     26057     26059     26061     26060     26062     26064     26063     26065
     26067     26066     26068     26070     26069     26071     26073     26072     26074
     26076     26075     26077     26079     26078     26080     26082     26081     26083
     26085     26084     26086     26088     26087     26089     26091     26090     26092
     26094     26093     26095     26097     26096     26098     26100     26099     26101
     26103     26102     26104     26106     26105     26107     26109     26108     26110
     26112     26111     26113     26115     26114     26116     26118     26117     26119
     26121     26120     26122     26124     26123     26125     26127     26126     26128
     26130     26129     26131     26133     26132     26134     26136     26135     26137
     26139     26138     26140     26142     26141     26143     26145     26144     26146
     26148     26147     26149     26151     26150     26152     26154     26153     26155
     26157     26156     26158     26160     26159     26161     26163     26162     26164
     26166     26165     26167     26169     26168     26170     26172     26171     26173
     26175     26174     26176     26178     26177     26179     26181     26180     26182
     26184     26183     26185     26187     26186     26188     26190     26189     26191
     26193     26192     26194     26196     26195     26197     26199     26198     26200
     26202     26201     26203     26205     26204     26206     26208     26207     26209
     26211     26210     26212     26214     26213     26215     26217     26216     26218
     26220     26219     26221     26223     26222     26224     26226     26225     26227
     26229     26228     26230     26232     26231     26233     26235     26234     26236
     26238     26237     26239     26241     26240     26242     26244     26243     26245
     26247     26246     26248     26250     26249     26251     26253     26252     26254
     26256     26255     26257     26259     26258     26260     26262     26261     26263
     26265     26264     26266     26268     26267     26269     26271     26270     26272
     26274     26273     26275     26277     26276     26278     26280     26279     26281
     26283     26282     26284     26286     26285     26287     26289     26288     26290
     26292     26291     26293     26295     26294     26296     26298     26297     26299
     26301     26300     26302     26304     26303     26305     26307     26306     26308
     26310     26309     26311     26313     26312     26314     26316     26315     26317
     26319     26318     26320     26322     26321     26323     26325     26324     26326
     26328     26327     26329     26331     26330     26332     26334     26333     26335
     26337     26336     26338     26340     26339     26341     26343     26342     26344
     26346     26345     26347     26349     26348     26350     26352     26351     26353
     26355     26354     26356     26358     26357     26359     26361     26360     26362
     26364     26363     26365     26367     26366     26368     26370     26369     26371
     26373     26372     26374     26376     26375     26377     26379     26378     26380
     26382     26381     26383     26385     26384     26386     26388     26387     26389
     26391     26390     26392     26394     26393     26395     26397     26396     26398
     26400     26399     26401     26403     26402     26404     26406     26405     26407
     26409     26408     26410     26412     26411     26413     26415     26414     26416
     26418     26417     26419     26421     26420     26422     26424     26423     26425
     26427     26426     26428     26430     26429     26431     26433     26432     26434
     26436     26435     26437     26439     26438     26440     26442     26441     26443
     26445     26444     26446     26448     26447     26449     26451     26450     26452
     26454     26453     26455     26457     26456     26458     26460     26459     26461
     26463     26462     26464     26466     26465     26467     26469     26468     26470
     26472     26471     26473     26475     26474     26476     26478     26477     26479
     26481     26480     26482     26484     26483     26485     26487     26486     26488
     26490     26489     26491     26493     26492     26494     26496     26495     26497
     26499     26498     26500     26502     26501     26503     26505     26504     26506
     26508     26507     26509     26511     26510     26512     26514     26513     26515
     26517     26516     26518     26520     26519     26521     26523     26522     26524
     26526     26525     26527     26529     26528     26530     26532     26531     26533
     26535     26534     26536     26538     26537     26539     26541     26540     26542
     26544     26543     26545     26547     26546     26548     26550     26549     26551
     26553     26552     26554     26556     26555     26557     26559     26558     26560
     26562     26561     26563     26565     26564     26566     26568     26567     26569
     26571     26570     26572     26574     26573     26575     26577     26576     26578
     26580     26579     26581     26583     26582     26584     26586     26585     26587
     26589     26588     26590     26592     26591     26593     26595     26594     26596
     26598     26597     26599     26601     26600     26602     26604     26603     26605
     26607     26606     26608     26610     26609     26611     26613     26612     26614
     26616     26615     26617     26619     26618     26620     26622     26621     26623
     26625     26624     26626     26628     26627     26629     26631     26630     26632
     26634     26633     26635     26637     26636     26638     26640     26639     26641
     26643     26642     26644     26646     26645     26647     26649     26648     26650
     26652     26651     26653     26655     26654     26656     26658     26657     26659
     26661     26660     26662     26664     26663     26665     26667     26666     26668
     26670     26669     26671     26673     26672     26674     26676     26675     26677
     26679     26678     26680     26682     26681     26683     26685     26684     26686
     26688     26687     26689     26691     26690     26692     26694     26693     26695
     26697     26696     26698     26700     26699     26701     26703     26702     26704
     26706     26705     26707     26709     26708     26710     26712     26711     26713
     26715     26714     26716     26718     26717     26719     26721     26720     26722
     26724     26723     26725     26727     26726     26728     26730     26729     26731
     26733     26732     26734     26736     26735     26737     26739     26738     26740
     26742     26741     26743     26745     26744     26746     26748     26747     26749
     26751     26750     26752     26754     26753     26755     26757     26756     26758
     26760     26759     26761     26763     26762     26764     26766     26765     26767
     26769     26768     26770     26772     26771     26773     26775     26774     26776
     26778     26777     26779     26781     26780     26782     26784     26783     26785
     26787     26786     26788     26790     26789     26791     26793     26792     26794
     26796     26795     26797     26799     26798     26800     26802     26801     26803
     26805     26804     26806     26808     26807     26809     26811     26810     26812
     26814     26813     26815     26817     26816     26818     26820     26819     26821
     26823     26822     26824     26826     26825     26827     26829     26828     26830
     26832     26831     26833     26835     26834     26836     26838     26837     26839
     26841     26840     26842     26844     26843     26845     26847     26846     26848
     26850     26849     26851     26853     26852     26854     26856     26855     26857
     26859     26858     26860     26862     26861     26863     26865     26864     26866
     26868     26867     26869     26871     26870     26872     26874     26873     26875
     26877     26876     26878     26880     26879     26881     26883     26882     26884
     26886     26885     26887     26889     26888     26890     26892     26891     26893
     26895     26894     26896     26898     26897     26899     26901     26900     26902
     26904     26903     26905     26907     26906     26908     26910     26909     26911
     26913     26912     26914     26916     26915     26917     26919     26918     26920
     26922     26921     26923     26925     26924     26926     26928     26927     26929
     26931     26930     26932     26934     26933     26935     26937     26936     26938
     26940     26939     26941     26943     26942     26944     26946     26945     26947
     26949     26948     26950     26952     26951     26953     26955     26954     26956
     26958     26957     26959     26961     26960     26962     26964     26963     26965
     26967     26966     26968     26970     26969     26971     26973     26972     26974
     26976     26975     26977     26979     26978     26980     26982     26981     26983
     26985     26984     26986     26988     26987     26989     26991     26990     26992
     26994     26993     26995     26997     26996     26998     27000     26999     27001
     27003     27002     27004     27006     27005     27007     27009     27008     27010
     27012     27011     27013     27015     27014     27016     27018     27017     27019
     27021     27020     27022     27024     27023     27025     27027     27026     27028
     27030     27029     27031     27033     27032     27034     27036     27035     27037
     27039     27038     27040     27042     27041     27043     27045     27044     27046
     27048     27047     27049     27051     27050     27052     27054     27053     27055
     27057     27056     27058     27060     27059     27061     27063     27062     27064
     27066     27065     27067     27069     27068     27070     27072     27071     27073
     27075     27074     27076     27078     27077     27079     27081     27080     27082
     27084     27083     27085     27087     27086     27088     27090     27089     27091
     27093     27092     27094     27096     27095     27097     27099     27098     27100
     27102     27101     27103     27105     27104     27106     27108     27107     27109
     27111     27110     27112     27114     27113     27115     27117     27116     27118
     27120     27119     27121     27123     27122     27124     27126     27125     27127
     27129     27128     27130     27132     27131     27133     27135     27134     27136
     27138     27137     27139     27141     27140     27142     27144     27143     27145
     27147     27146     27148     27150     27149     27151     27153     27152     27154
     27156     27155     27157     27159     27158     27160     27162     27161     27163
     27165     27164     27166     27168     27167     27169     27171     27170     27172
     27174     27173     27175     27177     27176     27178     27180     27179     27181
     27183     27182     27184     27186     27185     27187     27189     27188     27190
     27192     27191     27193     27195     27194     27196     27198     27197     27199
     27201     27200     27202     27204     27203     27205     27207     27206     27208
     27210     27209     27211     27213     27212     27214     27216     27215     27217
     27219     27218     27220     27222     27221     27223     27225     27224     27226
     27228     27227     27229     27231     27230     27232     27234     27233     27235
     27237     27236     27238     27240     27239     27241     27243     27242     27244
     27246     27245     27247     27249     27248     27250     27252     27251     27253
     27255     27254     27256     27258     27257     27259     27261     27260     27262
     27264     27263     27265     27267     27266     27268     27270     27269     27271
     27273     27272     27274     27276     27275     27277     27279     27278     27280
     27282     27281     27283     27285     27284     27286     27288     27287     27289
     27291     27290     27292     27294     27293     27295     27297     27296     27298
     27300     27299     27301     27303     27302     27304     27306     27305     27307
     27309     27308     27310     27312     27311     27313     27315     27314     27316
     27318     27317     27319     27321     27320     27322     27324     27323     27325
     27327     27326     27328     27330     27329     27331     27333     27332     27334
     27336     27335     27337     27339     27338     27340     27342     27341     27343
     27345     27344     27346     27348     27347     27349     27351     27350     27352
     27354     27353     27355     27357     27356     27358     27360     27359     27361
     27363     27362     27364     27366     27365     27367     27369     27368     27370
     27372     27371     27373     27375     27374     27376     27378     27377     27379
     27381     27380     27382     27384     27383     27385     27387     27386     27388
     27390     27389     27391     27393     27392     27394     27396     27395     27397
     27399     27398     27400     27402     27401     27403     27405     27404     27406
     27408     27407     27409     27411     27410     27412     27414     27413     27415
     27417     27416     27418     27420     27419     27421     27423     27422     27424
     27426     27425     27427     27429     27428     27430     27432     27431     27433
     27435     27434     27436     27438     27437     27439     27441     27440     27442
     27444     27443     27445     27447     27446     27448     27450     27449     27451
     27453     27452     27454     27456     27455     27457     27459     27458     27460
     27462     27461     27463     27465     27464     27466     27468     27467     27469
     27471     27470     27472     27474     27473     27475     27477     27476     27478
     27480     27479     27481     27483     27482     27484     27486     27485     27487
     27489     27488     27490     27492     27491     27493     27495     27494     27496
     27498     27497     27499     27501     27500     27502     27504     27503     27505
     27507     27506     27508     27510     27509     27511     27513     27512     27514
     27516     27515     27517     27519     27518     27520     27522     27521     27523
     27525     27524     27526     27528     27527     27529     27531     27530     27532
     27534     27533     27535     27537     27536     27538     27540     27539     27541
     27543     27542     27544     27546     27545     27547     27549     27548     27550
     27552     27551     27553     27555     27554     27556     27558     27557     27559
     27561     27560     27562     27564     27563     27565     27567     27566     27568
     27570     27569     27571     27573     27572     27574     27576     27575     27577
     27579     27578     27580     27582     27581     27583     27585     27584     27586
     27588     27587     27589     27591     27590     27592     27594     27593     27595
     27597     27596     27598     27600     27599     27601     27603     27602     27604
     27606     27605     27607     27609     27608     27610     27612     27611     27613
     27615     27614     27616     27618     27617     27619     27621     27620     27622
     27624     27623     27625     27627     27626     27628     27630     27629     27631
     27633     27632     27634     27636     27635     27637     27639     27638     27640
     27642     27641     27643     27645     27644     27646     27648     27647     27649
     27651     27650     27652     27654     27653     27655     27657     27656     27658
     27660     27659     27661     27663     27662     27664     27666     27665     27667
     27669     27668     27670     27672     27671     27673     27675     27674     27676
     27678     27677     27679     27681     27680     27682     27684     27683     27685
     27687     27686     27688     27690     27689     27691     27693     27692     27694
     27696     27695     27697     27699     27698     27700     27702     27701     27703
     27705     27704     27706     27708     27707     27709     27711     27710     27712
     27714     27713     27715     27717     27716     27718     27720     27719     27721
     27723     27722     27724     27726     27725     27727     27729     27728     27730
     27732     27731     27733     27735     27734     27736     27738     27737     27739
     27741     27740     27742     27744     27743     27745     27747     27746     27748
     27750     27749     27751     27753     27752     27754     27756     27755     27757
     27759     27758     27760     27762     27761     27763     27765     27764     27766
     27768     27767     27769     27771     27770     27772     27774     27773     27775
     27777     27776     27778     27780     27779     27781     27783     27782     27784
     27786     27785     27787     27789     27788     27790     27792     27791     27793
     27795     27794     27796     27798     27797     27799     27801     27800     27802
     27804     27803     27805     27807     27806     27808     27810     27809     27811
     27813     27812     27814     27816     27815     27817     27819     27818     27820
     27822     27821     27823     27825     27824     27826     27828     27827     27829
     27831     27830     27832     27834     27833     27835     27837     27836     27838
     27840     27839     27841     27843     27842     27844     27846     27845     27847
     27849     27848     27850     27852     27851     27853     27855     27854     27856
     27858     27857     27859     27861     27860     27862     27864     27863     27865
     27867     27866     27868     27870     27869     27871     27873     27872     27874
     27876     27875     27877     27879     27878     27880     27882     27881     27883
     27885     27884     27886     27888     27887     27889     27891     27890     27892
     27894     27893     27895     27897     27896     27898     27900     27899     27901
     27903     27902     27904     27906     27905     27907     27909     27908     27910
     27912     27911     27913     27915     27914     27916     27918     27917     27919
     27921     27920     27922     27924     27923     27925     27927     27926     27928
     27930     27929     27931     27933     27932     27934     27936     27935     27937
     27939     27938     27940     27942     27941     27943     27945     27944     27946
     27948     27947     27949     27951     27950     27952     27954     27953     27955
     27957     27956     27958     27960     27959     27961     27963     27962     27964
     27966     27965     27967     27969     27968     27970     27972     27971     27973
     27975     27974     27976     27978     27977     27979     27981     27980     27982
     27984     27983     27985     27987     27986     27988     27990     27989     27991
     27993     27992     27994     27996     27995     27997     27999     27998     28000
     28002     28001     28003     28005     28004     28006     28008     28007     28009
     28011     28010     28012     28014     28013     28015     28017     28016     28018
     28020     28019     28021     28023     28022     28024     28026     28025     28027
     28029     28028     28030     28032     28031     28033     28035     28034     28036
     28038     28037     28039     28041     28040     28042     28044     28043     28045
     28047     28046     28048     28050     28049     28051     28053     28052     28054
     28056     28055     28057     28059     28058     28060     28062     28061     28063
     28065     28064     28066     28068     28067     28069     28071     28070     28072
     28074     28073     28075     28077     28076     28078     28080     28079     28081
     28083     28082     28084     28086     28085     28087     28089     28088     28090
     28092     28091     28093     28095     28094     28096     28098     28097     28099
     28101     28100     28102     28104     28103     28105     28107     28106     28108
     28110     28109     28111     28113     28112     28114     28116     28115     28117
     28119     28118     28120     28122     28121     28123     28125     28124     28126
     28128     28127     28129     28131     28130     28132     28134     28133     28135
     28137     28136     28138     28140     28139     28141     28143     28142     28144
     28146     28145     28147     28149     28148     28150     28152     28151     28153
     28155     28154     28156     28158     28157     28159     28161     28160     28162
     28164     28163     28165     28167     28166     28168     28170     28169     28171
     28173     28172     28174     28176     28175     28177     28179     28178     28180
     28182     28181     28183     28185     28184     28186     28188     28187     28189
     28191     28190     28192     28194     28193     28195     28197     28196     28198
     28200     28199     28201     28203     28202     28204     28206     28205     28207
     28209     28208     28210     28212     28211     28213     28215     28214     28216
     28218     28217     28219     28221     28220     28222     28224     28223     28225
     28227     28226     28228     28230     28229     28231     28233     28232     28234
     28236     28235     28237     28239     28238     28240     28242     28241     28243
     28245     28244     28246     28248     28247     28249     28251     28250     28252
     28254     28253     28255     28257     28256     28258     28260     28259     28261
     28263     28262     28264     28266     28265     28267     28269     28268     28270
     28272     28271     28273     28275     28274     28276     28278     28277     28279
     28281     28280     28282     28284     28283     28285     28287     28286     28288
     28290     28289     28291     28293     28292     28294     28296     28295     28297
     28299     28298     28300     28302     28301     28303     28305     28304     28306
     28308     28307     28309     28311     28310     28312     28314     28313     28315
     28317     28316     28318     28320     28319     28321     28323     28322     28324
     28326     28325     28327     28329     28328     28330     28332     28331     28333
     28335     28334     28336     28338     28337     28339     28341     28340     28342
     28344     28343     28345     28347     28346     28348     28350     28349     28351
     28353     28352     28354     28356     28355     28357     28359     28358     28360
     28362     28361     28363     28365     28364     28366     28368     28367     28369
     28371     28370     28372     28374     28373     28375     28377     28376     28378
     28380     28379     28381     28383     28382     28384     28386     28385     28387
     28389     28388     28390     28392     28391     28393     28395     28394     28396
     28398     28397     28399     28401     28400     28402     28404     28403     28405
     28407     28406     28408     28410     28409     28411     28413     28412     28414
     28416     28415     28417     28419     28418     28420     28422     28421     28423
     28425     28424     28426     28428     28427     28429     28431     28430     28432
     28434     28433     28435     28437     28436     28438     28440     28439     28441
     28443     28442     28444     28446     28445     28447     28449     28448     28450
     28452     28451     28453     28455     28454     28456     28458     28457     28459
     28461     28460     28462     28464     28463     28465     28467     28466     28468
     28470     28469     28471     28473     28472     28474     28476     28475     28477
     28479     28478     28480     28482     28481     28483     28485     28484     28486
     28488     28487     28489     28491     28490     28492     28494     28493     28495
     28497     28496     28498     28500     28499     28501     28503     28502     28504
     28506     28505     28507     28509     28508     28510     28512     28511     28513
     28515     28514     28516     28518     28517     28519     28521     28520     28522
     28524     28523     28525     28527     28526     28528     28530     28529     28531
     28533     28532     28534     28536     28535     28537     28539     28538     28540
     28542     28541     28543     28545     28544     28546     28548     28547     28549
     28551     28550     28552     28554     28553     28555     28557     28556     28558
     28560     28559     28561     28563     28562     28564     28566     28565     28567
     28569     28568     28570     28572     28571     28573     28575     28574     28576
     28578     28577     28579     28581     28580     28582     28584     28583     28585
     28587     28586     28588     28590     28589     28591     28593     28592     28594
     28596     28595     28597     28599     28598     28600     28602     28601     28603
     28605     28604     28606     28608     28607     28609     28611     28610     28612
     28614     28613     28615     28617     28616     28618     28620     28619     28621
     28623     28622     28624     28626     28625     28627     28629     28628     28630
     28632     28631     28633     28635     28634     28636     28638     28637     28639
     28641     28640     28642     28644     28643     28645     28647     28646     28648
     28650     28649     28651     28653     28652     28654     28656     28655     28657
     28659     28658     28660     28662     28661     28663     28665     28664     28666
     28668     28667     28669     28671     28670     28672     28674     28673     28675
     28677     28676     28678     28680     28679     28681     28683     28682     28684
     28686     28685     28687     28689     28688     28690     28692     28691     28693
     28695     28694     28696     28698     28697     28699     28701     28700     28702
     28704     28703     28705     28707     28706     28708     28710     28709     28711
     28713     28712     28714     28716     28715     28717     28719     28718     28720
     28722     28721     28723     28725     28724     28726     28728     28727     28729
     28731     28730     28732     28734     28733     28735     28737     28736     28738
     28740     28739     28741     28743     28742     28744     28746     28745     28747
     28749     28748     28750     28752     28751     28753     28755     28754     28756
     28758     28757     28759     28761     28760     28762     28764     28763     28765
     28767     28766     28768     28770     28769     28771     28773     28772     28774
     28776     28775     28777     28779     28778     28780     28782     28781     28783
     28785     28784     28786     28788     28787     28789     28791     28790     28792
     28794     28793     28795     28797     28796     28798     28800     28799     28801
     28803     28802     28804     28806     28805     28807     28809     28808     28810
     28812     28811     28813     28815     28814     28816     28818     28817     28819
     28821     28820     28822     28824     28823     28825     28827     28826     28828
     28830     28829     28831     28833     28832     28834     28836     28835     28837
     28839     28838     28840     28842     28841     28843     28845     28844     28846
     28848     28847     28849     28851     28850     28852     28854     28853     28855
     28857     28856     28858     28860     28859     28861     28863     28862     28864
     28866     28865     28867     28869     28868     28870     28872     28871     28873
     28875     28874     28876     28878     28877     28879     28881     28880     28882
     28884     28883     28885     28887     28886     28888     28890     28889     28891
     28893     28892     28894     28896     28895     28897     28899     28898     28900
     28902     28901     28903     28905     28904     28906     28908     28907     28909
     28911     28910     28912     28914     28913     28915     28917     28916     28918
     28920     28919     28921     28923     28922     28924     28926     28925     28927
     28929     28928     28930     28932     28931     28933     28935     28934     28936
     28938     28937     28939     28941     28940     28942     28944     28943     28945
     28947     28946     28948     28950     28949     28951     28953     28952     28954
     28956     28955     28957     28959     28958     28960     28962     28961     28963
     28965     28964     28966     28968     28967     28969     28971     28970     28972
     28974     28973     28975     28977     28976     28978     28980     28979     28981
     28983     28982     28984     28986     28985     28987     28989     28988     28990
     28992     28991     28993     28995     28994     28996     28998     28997     28999
     29001     29000     29002     29004     29003     29005     29007     29006     29008
     29010     29009     29011     29013     29012     29014     29016     29015     29017
     29019     29018     29020     29022     29021     29023     29025     29024     29026
     29028     29027     29029     29031     29030     29032     29034     29033     29035
     29037     29036     29038     29040     29039     29041     29043     29042     29044
     29046     29045     29047     29049     29048     29050     29052     29051     29053
     29055     29054     29056     29058     29057     29059     29061     29060     29062
     29064     29063     29065     29067     29066     29068     29070     29069     29071
     29073     29072     29074     29076     29075     29077     29079     29078     29080
     29082     29081     29083     29085     29084     29086     29088     29087     29089
     29091     29090     29092     29094     29093     29095     29097     29096     29098
     29100     29099     29101     29103     29102     29104     29106     29105     29107
     29109     29108     29110     29112     29111     29113     29115     29114     29116
     29118     29117     29119     29121     29120     29122     29124     29123     29125
     29127     29126     29128     29130     29129     29131     29133     29132     29134
     29136     29135     29137     29139     29138     29140     29142     29141     29143
     29145     29144     29146     29148     29147     29149     29151     29150     29152
     29154     29153     29155     29157     29156     29158     29160     29159     29161
     29163     29162     29164     29166     29165     29167     29169     29168     29170
     29172     29171     29173     29175     29174     29176     29178     29177     29179
     29181     29180     29182     29184     29183     29185     29187     29186     29188
     29190     29189     29191     29193     29192     29194     29196     29195     29197
     29199     29198     29200     29202     29201     29203     29205     29204     29206
     29208     29207     29209     29211     29210     29212     29214     29213     29215
     29217     29216     29218     29220     29219     29221     29223     29222     29224
     29226     29225     29227     29229     29228     29230     29232     29231     29233
     29235     29234     29236     29238     29237     29239     29241     29240     29242
     29244     29243     29245     29247     29246     29248     29250     29249     29251
     29253     29252     29254     29256     29255     29257     29259     29258     29260
     29262     29261     29263     29265     29264     29266     29268     29267     29269
     29271     29270     29272     29274     29273     29275     29277     29276     29278
     29280     29279     29281     29283     29282     29284     29286     29285     29287
     29289     29288     29290     29292     29291     29293     29295     29294     29296
     29298     29297     29299     29301     29300     29302     29304     29303     29305
     29307     29306     29308     29310     29309     29311     29313     29312     29314
     29316     29315     29317     29319     29318     29320     29322     29321     29323
     29325     29324     29326     29328     29327     29329     29331     29330     29332
     29334     29333     29335     29337     29336     29338     29340     29339     29341
     29343     29342     29344     29346     29345     29347     29349     29348     29350
     29352     29351     29353     29355     29354     29356     29358     29357     29359
     29361     29360     29362     29364     29363     29365     29367     29366     29368
     29370     29369     29371     29373     29372     29374     29376     29375     29377
     29379     29378     29380     29382     29381     29383     29385     29384     29386
     29388     29387     29389     29391     29390     29392     29394     29393     29395
     29397     29396     29398     29400     29399     29401     29403     29402     29404
     29406     29405     29407     29409     29408     29410     29412     29411     29413
     29415     29414     29416     29418     29417     29419     29421     29420     29422
     29424     29423     29425     29427     29426     29428     29430     29429     29431
     29433     29432     29434     29436     29435     29437     29439     29438     29440
     29442     29441     29443     29445     29444     29446     29448     29447     29449
     29451     29450     29452     29454     29453     29455     29457     29456     29458
     29460     29459     29461     29463     29462     29464     29466     29465     29467
     29469     29468     29470     29472     29471     29473     29475     29474     29476
     29478     29477     29479     29481     29480     29482     29484     29483     29485
     29487     29486     29488     29490     29489     29491     29493     29492     29494
     29496     29495     29497     29499     29498     29500     29502     29501     29503
     29505     29504     29506     29508     29507     29509     29511     29510     29512
     29514     29513     29515     29517     29516     29518     29520     29519     29521
     29523     29522     29524     29526     29525     29527     29529     29528     29530
     29532     29531     29533     29535     29534     29536     29538     29537     29539
     29541     29540     29542     29544     29543     29545     29547     29546     29548
     29550     29549     29551     29553     29552     29554     29556     29555     29557
     29559     29558     29560     29562     29561     29563     29565     29564     29566
     29568     29567     29569     29571     29570     29572     29574     29573     29575
     29577     29576     29578     29580     29579     29581     29583     29582     29584
     29586     29585     29587     29589     29588     29590     29592     29591     29593
     29595     29594     29596     29598     29597     29599     29601     29600     29602
     29604     29603     29605     29607     29606     29608     29610     29609     29611
     29613     29612     29614     29616     29615     29617     29619     29618     29620
     29622     29621     29623     29625     29624     29626     29628     29627     29629
     29631     29630     29632     29634     29633     29635     29637     29636     29638
     29640     29639     29641     29643     29642     29644     29646     29645     29647
     29649     29648     29650     29652     29651     29653     29655     29654     29656
     29658     29657     29659     29661     29660     29662     29664     29663     29665
     29667     29666     29668     29670     29669     29671     29673     29672     29674
     29676     29675     29677     29679     29678     29680     29682     29681     29683
     29685     29684     29686     29688     29687     29689     29691     29690     29692
     29694     29693     29695     29697     29696     29698     29700     29699     29701
     29703     29702     29704     29706     29705     29707     29709     29708     29710
     29712     29711     29713     29715     29714     29716     29718     29717     29719
     29721     29720     29722     29724     29723     29725     29727     29726     29728
     29730     29729     29731     29733     29732     29734     29736     29735     29737
     29739     29738     29740     29742     29741     29743     29745     29744     29746
     29748     29747     29749     29751     29750     29752     29754     29753     29755
     29757     29756     29758     29760     29759     29761     29763     29762     29764
     29766     29765     29767     29769     29768     29770     29772     29771     29773
     29775     29774     29776     29778     29777     29779     29781     29780     29782
     29784     29783     29785     29787     29786     29788     29790     29789     29791
     29793     29792     29794     29796     29795     29797     29799     29798     29800
     29802     29801     29803     29805     29804     29806     29808     29807     29809
     29811     29810     29812     29814     29813     29815     29817     29816     29818
     29820     29819     29821     29823     29822     29824     29826     29825     29827
     29829     29828     29830     29832     29831     29833     29835     29834     29836
     29838     29837     29839     29841     29840     29842     29844     29843     29845
     29847     29846     29848     29850     29849     29851     29853     29852     29854
     29856     29855     29857     29859     29858     29860     29862     29861     29863
     29865     29864     29866     29868     29867     29869     29871     29870     29872
     29874     29873     29875     29877     29876     29878     29880     29879     29881
     29883     29882     29884     29886     29885     29887     29889     29888     29890
     29892     29891     29893     29895     29894     29896     29898     29897     29899
     29901     29900     29902     29904     29903     29905     29907     29906     29908
     29910     29909     29911     29913     29912     29914     29916     29915     29917
     29919     29918     29920     29922     29921     29923     29925     29924     29926
     29928     29927     29929     29931     29930     29932     29934     29933     29935
     29937     29936     29938     29940     29939     29941     29943     29942     29944
     29946     29945     29947     29949     29948     29950     29952     29951     29953
     29955     29954     29956     29958     29957     29959     29961     29960     29962
     29964     29963     29965     29967     29966     29968     29970     29969     29971
     29973     29972     29974     29976     29975     29977     29979     29978     29980
     29982     29981     29983     29985     29984     29986     29988     29987     29989
     29991     29990     29992     29994     29993     29995     29997     29996     29998
     30000     29999     30001     30003     30002     30004     30006     30005     30007
     30009     30008     30010     30012     30011     30013     30015     30014     30016
     30018     30017     30019     30021     30020     30022     30024     30023     30025
     30027     30026     30028     30030     30029     30031     30033     30032     30034
     30036     30035     30037     30039     30038     30040     30042     30041     30043
     30045     30044     30046     30048     30047     30049     30051     30050     30052
     30054     30053     30055     30057     30056     30058     30060     30059     30061
     30063     30062     30064     30066     30065     30067     30069     30068     30070
     30072     30071     30073     30075     30074     30076     30078     30077     30079
     30081     30080     30082     30084     30083     30085     30087     30086     30088
     30090     30089     30091     30093     30092     30094     30096     30095     30097
     30099     30098     30100     30102     30101     30103     30105     30104     30106
     30108     30107     30109     30111     30110     30112     30114     30113     30115
     30117     30116     30118     30120     30119     30121     30123     30122     30124
     30126     30125     30127     30129     30128     30130     30132     30131     30133
     30135     30134     30136     30138     30137     30139     30141     30140     30142
     30144     30143     30145     30147     30146     30148     30150     30149     30151
     30153     30152     30154     30156     30155     30157     30159     30158     30160
     30162     30161     30163     30165     30164     30166     30168     30167     30169
     30171     30170     30172     30174     30173     30175     30177     30176     30178
     30180     30179     30181     30183     30182     30184     30186     30185     30187
     30189     30188     30190     30192     30191     30193     30195     30194     30196
     30198     30197     30199     30201     30200     30202     30204     30203     30205
     30207     30206     30208     30210     30209     30211     30213     30212     30214
     30216     30215     30217     30219     30218     30220     30222     30221     30223
     30225     30224     30226     30228     30227     30229     30231     30230     30232
     30234     30233     30235     30237     30236     30238     30240     30239     30241
     30243     30242     30244     30246     30245     30247     30249     30248     30250
     30252     30251     30253     30255     30254     30256     30258     30257     30259
     30261     30260     30262     30264     30263     30265     30267     30266     30268
     30270     30269     30271     30273     30272     30274     30276     30275     30277
     30279     30278     30280     30282     30281     30283     30285     30284     30286
     30288     30287     30289     30291     30290     30292     30294     30293     30295
     30297     30296     30298     30300     30299     30301     30303     30302     30304
     30306     30305     30307     30309     30308     30310     30312     30311     30313
     30315     30314     30316     30318     30317     30319     30321     30320     30322
     30324     30323     30325     30327     30326     30328     30330     30329     30331
     30333     30332     30334     30336     30335     30337     30339     30338     30340
     30342     30341     30343     30345     30344     30346     30348     30347     30349
     30351     30350     30352     30354     30353     30355     30357     30356     30358
     30360     30359     30361     30363     30362     30364     30366     30365     30367
     30369     30368     30370     30372     30371     30373     30375     30374     30376
     30378     30377     30379     30381     30380     30382     30384     30383     30385
     30387     30386     30388     30390     30389     30391     30393     30392     30394
     30396     30395     30397     30399     30398     30400     30402     30401     30403
     30405     30404     30406     30408     30407     30409     30411     30410     30412
     30414     30413     30415     30417     30416     30418     30420     30419     30421
     30423     30422     30424     30426     30425     30427     30429     30428     30430
     30432     30431     30433     30435     30434     30436     30438     30437     30439
     30441     30440     30442     30444     30443     30445     30447     30446     30448
     30450     30449     30451     30453     30452     30454     30456     30455     30457
     30459     30458     30460     30462     30461     30463     30465     30464     30466
     30468     30467     30469     30471     30470     30472     30474     30473     30475
     30477     30476     30478     30480     30479     30481     30483     30482     30484
     30486     30485     30487     30489     30488     30490     30492     30491     30493
     30495     30494     30496     30498     30497     30499     30501     30500     30502
     30504     30503     30505     30507     30506     30508     30510     30509     30511
     30513     30512     30514     30516     30515     30517     30519     30518     30520
     30522     30521     30523     30525     30524     30526     30528     30527     30529
     30531     30530     30532     30534     30533     30535     30537     30536     30538
     30540     30539     30541     30543     30542     30544     30546     30545     30547
     30549     30548     30550     30552     30551     30553     30555     30554     30556
     30558     30557     30559     30561     30560     30562     30564     30563     30565
     30567     30566     30568     30570     30569     30571     30573     30572     30574
     30576     30575     30577     30579     30578     30580     30582     30581     30583
     30585     30584     30586     30588     30587     30589     30591     30590     30592
     30594     30593     30595     30597     30596     30598     30600     30599     30601
     30603     30602     30604     30606     30605     30607     30609     30608     30610
     30612     30611     30613     30615     30614     30616     30618     30617     30619
     30621     30620     30622     30624     30623     30625     30627     30626     30628
     30630     30629     30631     30633     30632     30634     30636     30635     30637
     30639     30638     30640     30642     30641     30643     30645     30644     30646
     30648     30647     30649     30651     30650     30652     30654     30653     30655
     30657     30656     30658     30660     30659     30661     30663     30662     30664
     30666     30665     30667     30669     30668     30670     30672     30671     30673
     30675     30674     30676     30678     30677     30679     30681     30680     30682
     30684     30683     30685     30687     30686     30688     30690     30689     30691
     30693     30692     30694     30696     30695     30697     30699     30698     30700
     30702     30701     30703     30705     30704     30706     30708     30707     30709
     30711     30710     30712     30714     30713     30715     30717     30716     30718
     30720     30719     30721     30723     30722     30724     30726     30725     30727
     30729     30728     30730     30732     30731     30733     30735     30734     30736
     30738     30737     30739     30741     30740     30742     30744     30743     30745
     30747     30746     30748     30750     30749     30751     30753     30752     30754
     30756     30755     30757     30759     30758     30760     30762     30761     30763
     30765     30764     30766     30768     30767     30769     30771     30770     30772
     30774     30773     30775     30777     30776     30778     30780     30779     30781
     30783     30782     30784     30786     30785     30787     30789     30788     30790
     30792     30791     30793     30795     30794     30796     30798     30797     30799
     30801     30800     30802     30804     30803     30805     30807     30806     30808
     30810     30809     30811     30813     30812     30814     30816     30815     30817
     30819     30818     30820     30822     30821     30823     30825     30824     30826
     30828     30827     30829     30831     30830     30832     30834     30833     30835
     30837     30836     30838     30840     30839     30841     30843     30842     30844
     30846     30845     30847     30849     30848     30850     30852     30851     30853
     30855     30854     30856     30858     30857     30859     30861     30860     30862
     30864     30863     30865     30867     30866     30868     30870     30869     30871
     30873     30872     30874     30876     30875     30877     30879     30878     30880
     30882     30881     30883     30885     30884     30886     30888     30887     30889
     30891     30890     30892     30894     30893     30895     30897     30896     30898
     30900     30899     30901     30903     30902     30904     30906     30905     30907
     30909     30908     30910     30912     30911     30913     30915     30914     30916
     30918     30917     30919     30921     30920     30922     30924     30923     30925
     30927     30926     30928     30930     30929     30931     30933     30932     30934
     30936     30935     30937     30939     30938     30940     30942     30941     30943
     30945     30944     30946     30948     30947     30949     30951     30950     30952
     30954     30953     30955     30957     30956     30958     30960     30959     30961
     30963     30962     30964     30966     30965     30967     30969     30968     30970
     30972     30971     30973     30975     30974     30976     30978     30977     30979
     30981     30980     30982     30984     30983     30985     30987     30986     30988
     30990     30989     30991     30993     30992     30994     30996     30995     30997
     30999     30998     31000     31002     31001     31003     31005     31004     31006
     31008     31007     31009     31011     31010     31012     31014     31013     31015
     31017     31016     31018     31020     31019     31021     31023     31022     31024
     31026     31025     31027     31029     31028     31030     31032     31031     31033
     31035     31034     31036     31038     31037     31039     31041     31040     31042
     31044     31043     31045     31047     31046     31048     31050     31049     31051
     31053     31052     31054     31056     31055     31057     31059     31058     31060
     31062     31061     31063     31065     31064     31066     31068     31067     31069
     31071     31070     31072     31074     31073     31075     31077     31076     31078
     31080     31079     31081     31083     31082     31084     31086     31085     31087
     31089     31088     31090     31092     31091     31093     31095     31094     31096
     31098     31097     31099     31101     31100     31102     31104     31103     31105
     31107     31106     31108     31110     31109     31111     31113     31112     31114
     31116     31115     31117     31119     31118     31120     31122     31121     31123
     31125     31124     31126     31128     31127     31129     31131     31130     31132
     31134     31133     31135     31137     31136     31138     31140     31139     31141
     31143     31142     31144     31146     31145     31147     31149     31148     31150
     31152     31151     31153     31155     31154     31156     31158     31157     31159
     31161     31160     31162     31164     31163     31165     31167     31166     31168
     31170     31169     31171     31173     31172     31174     31176     31175     31177
     31179     31178     31180     31182     31181     31183     31185     31184     31186
     31188     31187     31189     31191     31190     31192     31194     31193     31195
     31197     31196     31198     31200     31199     31201     31203     31202     31204
     31206     31205     31207     31209     31208     31210     31212     31211     31213
     31215     31214     31216     31218     31217     31219     31221     31220     31222
     31224     31223     31225     31227     31226     31228     31230     31229     31231
     31233     31232     31234     31236     31235     31237     31239     31238     31240
     31242     31241     31243     31245     31244     31246     31248     31247     31249
     31251     31250     31252     31254     31253     31255     31257     31256     31258
     31260     31259     31261     31263     31262     31264     31266     31265     31267
     31269     31268     31270     31272     31271     31273     31275     31274     31276
     31278     31277     31279     31281     31280     31282     31284     31283     31285
     31287     31286     31288     31290     31289     31291     31293     31292     31294
     31296     31295     31297     31299     31298     31300     31302     31301     31303
     31305     31304     31306     31308     31307     31309     31311     31310     31312
     31314     31313     31315     31317     31316     31318     31320     31319     31321
     31323     31322     31324     31326     31325     31327     31329     31328     31330
     31332     31331     31333     31335     31334     31336     31338     31337     31339
     31341     31340     31342     31344     31343     31345     31347     31346     31348
     31350     31349     31351     31353     31352     31354     31356     31355     31357
     31359     31358     31360     31362     31361     31363     31365     31364     31366
     31368     31367     31369     31371     31370     31372     31374     31373     31375
     31377     31376     31378     31380     31379     31381     31383     31382     31384
     31386     31385     31387     31389     31388     31390     31392     31391     31393
     31395     31394     31396     31398     31397     31399     31401     31400     31402
     31404     31403     31405     31407     31406     31408     31410     31409     31411
     31413     31412     31414     31416     31415     31417     31419     31418     31420
     31422     31421     31423     31425     31424     31426     31428     31427     31429
     31431     31430     31432     31434     31433     31435     31437     31436     31438
     31440     31439     31441     31443     31442     31444     31446     31445     31447
     31449     31448     31450     31452     31451     31453     31455     31454     31456
     31458     31457     31459     31461     31460     31462     31464     31463     31465
     31467     31466     31468     31470     31469     31471     31473     31472     31474
     31476     31475     31477     31479     31478     31480     31482     31481     31483
     31485     31484     31486     31488     31487     31489     31491     31490     31492
     31494     31493     31495     31497     31496     31498     31500     31499     31501
     31503     31502     31504     31506     31505     31507     31509     31508     31510
     31512     31511     31513     31515     31514     31516     31518     31517     31519
     31521     31520     31522     31524     31523     31525     31527     31526     31528
     31530     31529     31531     31533     31532     31534     31536     31535     31537
     31539     31538     31540     31542     31541     31543     31545     31544     31546
     31548     31547     31549     31551     31550     31552     31554     31553     31555
     31557     31556     31558     31560     31559     31561     31563     31562     31564
     31566     31565     31567     31569     31568     31570     31572     31571     31573
     31575     31574     31576     31578     31577     31579     31581     31580     31582
     31584     31583     31585     31587     31586     31588     31590     31589     31591
     31593     31592     31594     31596     31595     31597     31599     31598     31600
     31602     31601     31603     31605     31604     31606     31608     31607     31609
     31611     31610     31612     31614     31613     31615     31617     31616     31618
     31620     31619     31621     31623     31622     31624     31626     31625     31627
     31629     31628     31630     31632     31631     31633     31635     31634     31636
     31638     31637     31639     31641     31640     31642     31644     31643     31645
     31647     31646     31648     31650     31649     31651     31653     31652     31654
     31656     31655     31657     31659     31658     31660     31662     31661     31663
     31665     31664     31666     31668     31667     31669     31671     31670     31672
     31674     31673     31675     31677     31676     31678     31680     31679     31681
     31683     31682     31684     31686     31685     31687     31689     31688     31690
     31692     31691     31693     31695     31694     31696     31698     31697     31699
     31701     31700     31702     31704     31703     31705     31707     31706     31708
     31710     31709     31711     31713     31712     31714     31716     31715     31717
     31719     31718     31720     31722     31721     31723     31725     31724     31726
     31728     31727     31729     31731     31730     31732     31734     31733     31735
     31737     31736     31738     31740     31739     31741     31743     31742     31744
     31746     31745     31747     31749     31748     31750     31752     31751     31753
     31755     31754     31756     31758     31757     31759     31761     31760     31762
     31764     31763     31765     31767     31766     31768     31770     31769     31771
     31773     31772     31774     31776     31775     31777     31779     31778     31780
     31782     31781     31783     31785     31784     31786     31788     31787     31789
     31791     31790     31792     31794     31793     31795     31797     31796     31798
     31800     31799     31801     31803     31802     31804     31806     31805     31807
     31809     31808     31810     31812     31811     31813     31815     31814     31816
     31818     31817     31819     31821     31820     31822     31824     31823     31825
     31827     31826     31828     31830     31829     31831     31833     31832     31834
     31836     31835     31837     31839     31838     31840     31842     31841     31843
     31845     31844     31846     31848     31847     31849     31851     31850     31852
     31854     31853     31855     31857     31856     31858     31860     31859     31861
     31863     31862     31864     31866     31865     31867     31869     31868     31870
     31872     31871     31873     31875     31874     31876     31878     31877     31879
     31881     31880     31882     31884     31883     31885     31887     31886     31888
     31890     31889     31891     31893     31892     31894     31896     31895     31897
     31899     31898     31900     31902     31901     31903     31905     31904     31906
     31908     31907     31909     31911     31910     31912     31914     31913     31915
     31917     31916     31918     31920     31919     31921     31923     31922     31924
     31926     31925     31927     31929     31928     31930     31932     31931     31933
     31935     31934     31936     31938     31937     31939     31941     31940     31942
     31944     31943     31945     31947     31946     31948     31950     31949     31951
     31953     31952     31954     31956     31955     31957     31959     31958     31960
     31962     31961     31963     31965     31964     31966     31968     31967     31969
     31971     31970     31972     31974     31973     31975     31977     31976     31978
     31980     31979     31981     31983     31982     31984     31986     31985     31987
     31989     31988     31990     31992     31991     31993     31995     31994     31996
     31998     31997     31999     32001     32000     32002     32004     32003     32005
     32007     32006     32008     32010     32009     32011     32013     32012     32014
     32016     32015     32017     32019     32018     32020     32022     32021     32023
     32025     32024     32026     32028     32027     32029     32031     32030     32032
     32034     32033     32035     32037     32036     32038     32040     32039     32041
     32043     32042     32044     32046     32045     32047     32049     32048     32050
     32052     32051     32053     32055     32054     32056     32058     32057     32059
     32061     32060     32062     32064     32063     32065     32067     32066     32068
     32070     32069     32071     32073     32072     32074     32076     32075     32077
     32079     32078     32080     32082     32081     32083     32085     32084     32086
     32088     32087     32089     32091     32090     32092     32094     32093     32095
     32097     32096     32098     32100     32099     32101     32103     32102     32104
     32106     32105     32107     32109     32108     32110     32112     32111     32113
     32115     32114     32116     32118     32117     32119     32121     32120     32122
     32124     32123     32125     32127     32126     32128     32130     32129     32131
     32133     32132     32134     32136     32135     32137     32139     32138     32140
     32142     32141     32143     32145     32144     32146     32148     32147     32149
     32151     32150     32152     32154     32153     32155     32157     32156     32158
     32160     32159     32161     32163     32162     32164     32166     32165     32167
     32169     32168     32170     32172     32171     32173     32175     32174     32176
     32178     32177     32179     32181     32180     32182     32184     32183     32185
     32187     32186     32188     32190     32189     32191     32193     32192     32194
     32196     32195     32197     32199     32198     32200     32202     32201     32203
     32205     32204     32206     32208     32207     32209     32211     32210     32212
     32214     32213     32215     32217     32216     32218     32220     32219     32221
     32223     32222     32224     32226     32225     32227     32229     32228     32230
     32232     32231     32233     32235     32234     32236     32238     32237     32239
     32241     32240     32242     32244     32243     32245     32247     32246     32248
     32250     32249     32251     32253     32252     32254     32256     32255     32257
     32259     32258     32260     32262     32261     32263     32265     32264     32266
     32268     32267     32269     32271     32270     32272     32274     32273     32275
     32277     32276     32278     32280     32279     32281     32283     32282     32284
     32286     32285     32287     32289     32288     32290     32292     32291     32293
     32295     32294     32296     32298     32297     32299     32301     32300     32302
     32304     32303     32305     32307     32306     32308     32310     32309     32311
     32313     32312     32314     32316     32315     32317     32319     32318     32320
     32322     32321     32323     32325     32324     32326     32328     32327     32329
     32331     32330     32332     32334     32333     32335     32337     32336     32338
     32340     32339     32341     32343     32342     32344     32346     32345     32347
     32349     32348     32350     32352     32351     32353     32355     32354     32356
     32358     32357     32359     32361     32360     32362     32364     32363     32365
     32367     32366     32368     32370     32369     32371     32373     32372     32374
     32376     32375     32377     32379     32378     32380     32382     32381     32383
     32385     32384     32386     32388     32387     32389     32391     32390     32392
     32394     32393     32395     32397     32396     32398     32400     32399     32401
     32403     32402     32404     32406     32405     32407     32409     32408     32410
     32412     32411     32413     32415     32414     32416     32418     32417     32419
     32421     32420     32422     32424     32423     32425     32427     32426     32428
     32430     32429     32431     32433     32432     32434     32436     32435     32437
     32439     32438     32440     32442     32441     32443     32445     32444     32446
     32448     32447     32449     32451     32450     32452     32454     32453     32455
     32457     32456     32458     32460     32459     32461     32463     32462     32464
     32466     32465     32467     32469     32468     32470     32472     32471     32473
     32475     32474     32476     32478     32477     32479     32481     32480     32482
     32484     32483     32485     32487     32486     32488     32490     32489     32491
     32493     32492     32494     32496     32495     32497     32499     32498     32500
     32502     32501     32503     32505     32504     32506     32508     32507     32509
     32511     32510     32512     32514     32513     32515     32517     32516     32518
     32520     32519     32521     32523     32522     32524     32526     32525     32527
     32529     32528     32530     32532     32531     32533     32535     32534     32536
     32538     32537     32539     32541     32540     32542     32544     32543     32545
     32547     32546     32548     32550     32549     32551     32553     32552     32554
     32556     32555     32557     32559     32558     32560     32562     32561     32563
     32565     32564     32566     32568     32567     32569     32571     32570     32572
     32574     32573     32575     32577     32576     32578     32580     32579     32581
     32583     32582     32584     32586     32585     32587     32589     32588     32590
     32592     32591     32593     32595     32594     32596     32598     32597     32599
     32601     32600     32602     32604     32603     32605     32607     32606     32608
     32610     32609     32611     32613     32612     32614     32616     32615     32617
     32619     32618     32620     32622     32621     32623     32625     32624     32626
     32628     32627     32629     32631     32630     32632     32634     32633     32635
     32637     32636     32638     32640     32639     32641     32643     32642     32644
     32646     32645     32647     32649     32648     32650     32652     32651     32653
     32655     32654     32656     32658     32657     32659     32661     32660     32662
     32664     32663     32665     32667     32666     32668     32670     32669     32671
     32673     32672     32674     32676     32675     32677     32679     32678     32680
     32682     32681     32683     32685     32684     32686     32688     32687     32689
     32691     32690     32692     32694     32693     32695     32697     32696     32698
     32700     32699     32701     32703     32702     32704     32706     32705     32707
     32709     32708     32710     32712     32711     32713     32715     32714     32716
     32718     32717     32719     32721     32720     32722     32724     32723     32725
     32727     32726     32728     32730     32729     32731     32733     32732     32734
     32736     32735     32737     32739     32738     32740     32742     32741     32743
     32745     32744     32746     32748     32747     32749     32751     32750     32752
     32754     32753     32755     32757     32756     32758     32760     32759     32761
     32763     32762     32764     32766     32765     32767     32769     32768     32770
     32772     32771     32773     32775     32774     32776     32778     32777     32779
     32781     32780     32782     32784     32783     32785     32787     32786     32788
     32790     32789     32791     32793     32792     32794     32796     32795     32797
     32799     32798     32800     32802     32801     32803     32805     32804     32806
     32808     32807     32809     32811     32810     32812     32814     32813     32815
     32817     32816     32818     32820     32819     32821     32823     32822     32824
     32826     32825     32827     32829     32828     32830     32832     32831     32833
     32835     32834     32836     32838     32837     32839     32841     32840     32842
     32844     32843     32845     32847     32846     32848     32850     32849     32851
     32853     32852     32854     32856     32855     32857     32859     32858     32860
     32862     32861     32863     32865     32864     32866     32868     32867     32869
     32871     32870     32872     32874     32873     32875     32877     32876     32878
     32880     32879     32881     32883     32882     32884     32886     32885     32887
     32889     32888     32890     32892     32891     32893     32895     32894     32896
     32898     32897     32899     32901     32900     32902     32904     32903     32905
     32907     32906     32908     32910     32909     32911     32913     32912     32914
     32916     32915     32917     32919     32918     32920     32922     32921     32923
     32925     32924     32926     32928     32927     32929     32931     32930     32932
     32934     32933     32935     32937     32936     32938     32940     32939     32941
     32943     32942     32944     32946     32945     32947     32949     32948     32950
     32952     32951     32953     32955     32954     32956     32958     32957     32959
     32961     32960     32962     32964     32963     32965     32967     32966     32968
     32970     32969     32971     32973     32972     32974     32976     32975     32977
     32979     32978     32980     32982     32981     32983     32985     32984     32986
     32988     32987     32989     32991     32990     32992     32994     32993     32995
     32997     32996     32998     33000     32999     33001     33003     33002     33004
     33006     33005     33007     33009     33008     33010     33012     33011     33013
     33015     33014     33016     33018     33017     33019     33021     33020     33022
     33024     33023     33025     33027     33026     33028     33030     33029     33031
     33033     33032     33034     33036     33035     33037     33039     33038     33040
     33042     33041     33043     33045     33044     33046     33048     33047     33049
     33051     33050     33052     33054     33053     33055     33057     33056     33058
     33060     33059     33061     33063     33062     33064     33066     33065     33067
     33069     33068     33070     33072     33071     33073     33075     33074     33076
     33078     33077     33079     33081     33080     33082     33084     33083     33085
     33087     33086     33088     33090     33089     33091     33093     33092     33094
     33096     33095     33097     33099     33098     33100     33102     33101     33103
     33105     33104     33106     33108     33107     33109     33111     33110     33112
     33114     33113     33115     33117     33116     33118     33120     33119     33121
     33123     33122     33124     33126     33125     33127     33129     33128     33130
     33132     33131     33133     33135     33134     33136     33138     33137     33139
     33141     33140     33142     33144     33143     33145     33147     33146     33148
     33150     33149     33151     33153     33152     33154     33156     33155     33157
     33159     33158     33160     33162     33161     33163     33165     33164     33166
     33168     33167     33169     33171     33170     33172     33174     33173     33175
     33177     33176     33178     33180     33179     33181     33183     33182     33184
     33186     33185     33187     33189     33188     33190     33192     33191     33193
     33195     33194     33196     33198     33197     33199     33201     33200     33202
     33204     33203     33205     33207     33206     33208     33210     33209     33211
     33213     33212     33214     33216     33215     33217     33219     33218     33220
     33222     33221     33223     33225     33224     33226     33228     33227     33229
     33231     33230     33232     33234     33233     33235     33237     33236     33238
     33240     33239     33241     33243     33242     33244     33246     33245     33247
     33249     33248     33250     33252     33251     33253     33255     33254     33256
     33258     33257     33259     33261     33260     33262     33264     33263     33265
     33267     33266     33268     33270     33269     33271     33273     33272     33274
     33276     33275     33277     33279     33278     33280     33282     33281     33283
     33285     33284     33286     33288     33287     33289     33291     33290     33292
     33294     33293     33295     33297     33296     33298     33300     33299     33301
     33303     33302     33304     33306     33305     33307     33309     33308     33310
     33312     33311     33313     33315     33314     33316     33318     33317     33319
     33321     33320     33322     33324     33323     33325     33327     33326     33328
     33330     33329     33331     33333     33332     33334     33336     33335     33337
     33339     33338     33340     33342     33341     33343     33345     33344     33346
     33348     33347     33349     33351     33350     33352     33354     33353     33355
     33357     33356     33358     33360     33359     33361     33363     33362     33364
     33366     33365     33367     33369     33368     33370     33372     33371     33373
     33375     33374     33376     33378     33377     33379     33381     33380     33382
     33384     33383     33385     33387     33386     33388     33390     33389     33391
     33393     33392     33394     33396     33395     33397     33399     33398     33400
     33402     33401     33403     33405     33404     33406     33408     33407     33409
     33411     33410     33412     33414     33413     33415     33417     33416     33418
     33420     33419     33421     33423     33422     33424     33426     33425     33427
     33429     33428     33430     33432     33431     33433     33435     33434     33436
     33438     33437     33439     33441     33440     33442     33444     33443     33445
     33447     33446     33448     33450     33449     33451     33453     33452     33454
     33456     33455     33457     33459     33458     33460     33462     33461     33463
     33465     33464     33466     33468     33467     33469     33471     33470     33472
     33474     33473     33475     33477     33476     33478     33480     33479     33481
     33483     33482     33484     33486     33485     33487     33489     33488     33490
     33492     33491     33493     33495     33494     33496     33498     33497     33499
     33501     33500     33502     33504     33503     33505     33507     33506     33508
     33510     33509     33511     33513     33512     33514     33516     33515     33517
     33519     33518     33520     33522     33521     33523     33525     33524     33526
     33528     33527     33529     33531     33530     33532     33534     33533     33535
     33537     33536     33538     33540     33539     33541     33543     33542     33544
     33546     33545     33547     33549     33548     33550     33552     33551     33553
     33555     33554     33556     33558     33557     33559     33561     33560     33562
     33564     33563     33565     33567     33566     33568     33570     33569     33571
     33573     33572     33574     33576     33575     33577     33579     33578     33580
     33582     33581     33583     33585     33584     33586     33588     33587     33589
     33591     33590     33592     33594     33593     33595     33597     33596     33598
     33600     33599     33601     33603     33602     33604     33606     33605     33607
     33609     33608     33610     33612     33611     33613     33615     33614     33616
     33618     33617     33619     33621     33620     33622     33624     33623     33625
     33627     33626     33628     33630     33629     33631     33633     33632     33634
     33636     33635     33637     33639     33638     33640     33642     33641     33643
     33645     33644     33646     33648     33647     33649     33651     33650     33652
     33654     33653     33655     33657     33656     33658     33660     33659     33661
     33663     33662     33664     33666     33665     33667     33669     33668     33670
     33672     33671     33673     33675     33674     33676     33678     33677     33679
     33681     33680     33682     33684     33683     33685     33687     33686     33688
     33690     33689     33691     33693     33692     33694     33696     33695     33697
     33699     33698     33700     33702     33701     33703     33705     33704     33706
     33708     33707     33709     33711     33710     33712     33714     33713     33715
     33717     33716     33718     33720     33719     33721     33723     33722     33724
     33726     33725     33727     33729     33728     33730     33732     33731     33733
     33735     33734     33736     33738     33737     33739     33741     33740     33742
     33744     33743     33745     33747     33746     33748     33750     33749     33751
     33753     33752     33754     33756     33755     33757     33759     33758     33760
     33762     33761     33763     33765     33764     33766     33768     33767     33769
     33771     33770     33772     33774     33773     33775     33777     33776     33778
     33780     33779     33781     33783     33782     33784     33786     33785     33787
     33789     33788     33790     33792     33791     33793     33795     33794     33796
     33798     33797     33799     33801     33800     33802     33804     33803     33805
     33807     33806     33808     33810     33809     33811     33813     33812     33814
     33816     33815     33817     33819     33818     33820     33822     33821     33823
     33825     33824     33826     33828     33827     33829     33831     33830     33832
     33834     33833     33835     33837     33836     33838     33840     33839     33841
     33843     33842     33844     33846     33845     33847     33849     33848     33850
     33852     33851     33853     33855     33854     33856     33858     33857     33859
     33861     33860     33862     33864     33863     33865     33867     33866     33868
     33870     33869     33871     33873     33872     33874     33876     33875     33877
     33879     33878     33880     33882     33881     33883     33885     33884     33886
     33888     33887     33889     33891     33890     33892     33894     33893     33895
     33897     33896     33898     33900     33899     33901     33903     33902     33904
     33906     33905     33907     33909     33908     33910     33912     33911     33913
     33915     33914     33916     33918     33917     33919     33921     33920     33922
     33924     33923     33925     33927     33926     33928     33930     33929     33931
     33933     33932     33934     33936     33935     33937     33939     33938     33940
     33942     33941     33943     33945     33944     33946     33948     33947     33949
     33951     33950     33952     33954     33953     33955     33957     33956     33958
     33960     33959     33961     33963     33962     33964     33966     33965     33967
     33969     33968     33970     33972     33971     33973     33975     33974     33976
     33978     33977     33979     33981     33980     33982     33984     33983     33985
     33987     33986     33988     33990     33989     33991     33993     33992     33994
     33996     33995     33997     33999     33998     34000     34002     34001     34003
     34005     34004     34006     34008     34007     34009     34011     34010     34012
     34014     34013     34015     34017     34016     34018     34020     34019     34021
     34023     34022     34024     34026     34025     34027     34029     34028     34030
     34032     34031     34033     34035     34034     34036     34038     34037     34039
     34041     34040     34042     34044     34043     34045     34047     34046     34048
     34050     34049     34051     34053     34052     34054     34056     34055     34057
     34059     34058     34060     34062     34061     34063     34065     34064     34066
     34068     34067     34069     34071     34070     34072     34074     34073     34075
     34077     34076     34078     34080     34079     34081     34083     34082     34084
     34086     34085     34087     34089     34088     34090     34092     34091     34093
     34095     34094     34096     34098     34097     34099     34101     34100     34102
     34104     34103     34105     34107     34106     34108     34110     34109     34111
     34113     34112     34114     34116     34115     34117     34119     34118     34120
     34122     34121     34123     34125     34124     34126     34128     34127     34129
     34131     34130     34132     34134     34133     34135     34137     34136     34138
     34140     34139     34141     34143     34142     34144     34146     34145     34147
     34149     34148     34150     34152     34151     34153     34155     34154     34156
     34158     34157     34159     34161     34160     34162     34164     34163     34165
     34167     34166     34168     34170     34169     34171     34173     34172     34174
     34176     34175     34177     34179     34178     34180     34182     34181     34183
     34185     34184     34186     34188     34187     34189     34191     34190     34192
     34194     34193     34195     34197     34196     34198     34200     34199     34201
     34203     34202     34204     34206     34205     34207     34209     34208     34210
     34212     34211     34213     34215     34214     34216     34218     34217     34219
     34221     34220     34222     34224     34223     34225     34227     34226     34228
     34230     34229     34231     34233     34232     34234     34236     34235     34237
     34239     34238     34240     34242     34241     34243     34245     34244     34246
     34248     34247     34249     34251     34250     34252     34254     34253     34255
     34257     34256     34258     34260     34259     34261     34263     34262     34264
     34266     34265     34267     34269     34268     34270     34272     34271     34273
     34275     34274     34276     34278     34277     34279     34281     34280     34282
     34284     34283     34285     34287     34286     34288     34290     34289     34291
     34293     34292     34294     34296     34295     34297     34299     34298     34300
     34302     34301     34303     34305     34304     34306     34308     34307     34309
     34311     34310     34312     34314     34313     34315     34317     34316     34318
     34320     34319     34321     34323     34322     34324     34326     34325     34327
     34329     34328     34330     34332     34331     34333     34335     34334     34336
     34338     34337     34339     34341     34340     34342     34344     34343     34345
     34347     34346     34348     34350     34349     34351     34353     34352     34354
     34356     34355     34357     34359     34358     34360     34362     34361     34363
     34365     34364     34366     34368     34367     34369     34371     34370     34372
     34374     34373     34375     34377     34376     34378     34380     34379     34381
     34383     34382     34384     34386     34385     34387     34389     34388     34390
     34392     34391     34393     34395     34394     34396     34398     34397     34399
     34401     34400     34402     34404     34403     34405     34407     34406     34408
     34410     34409     34411     34413     34412     34414     34416     34415     34417
     34419     34418     34420     34422     34421     34423     34425     34424     34426
     34428     34427     34429     34431     34430     34432     34434     34433     34435
     34437     34436     34438     34440     34439     34441     34443     34442     34444
     34446     34445     34447     34449     34448     34450     34452     34451     34453
     34455     34454     34456     34458     34457     34459     34461     34460     34462
     34464     34463     34465     34467     34466     34468     34470     34469     34471
     34473     34472     34474     34476     34475     34477     34479     34478     34480
     34482     34481     34483     34485     34484     34486     34488     34487     34489
     34491     34490     34492     34494     34493     34495     34497     34496     34498
     34500     34499     34501     34503     34502     34504     34506     34505     34507
     34509     34508     34510     34512     34511     34513     34515     34514     34516
     34518     34517     34519     34521     34520     34522     34524     34523     34525
     34527     34526     34528     34530     34529     34531     34533     34532     34534
     34536     34535     34537     34539     34538     34540     34542     34541     34543
     34545     34544     34546     34548     34547     34549     34551     34550     34552
     34554     34553     34555     34557     34556     34558     34560     34559     34561
     34563     34562     34564     34566     34565     34567     34569     34568     34570
     34572     34571     34573     34575     34574     34576     34578     34577     34579
     34581     34580     34582     34584     34583     34585     34587     34586     34588
     34590     34589     34591     34593     34592     34594     34596     34595     34597
     34599     34598     34600     34602     34601     34603     34605     34604     34606
     34608     34607     34609     34611     34610     34612     34614     34613     34615
     34617     34616     34618     34620     34619     34621     34623     34622     34624
     34626     34625     34627     34629     34628     34630     34632     34631     34633
     34635     34634     34636     34638     34637     34639     34641     34640     34642
     34644     34643     34645     34647     34646     34648     34650     34649     34651
     34653     34652     34654     34656     34655     34657     34659     34658     34660
     34662     34661     34663     34665     34664     34666     34668     34667     34669
     34671     34670     34672     34674     34673     34675     34677     34676     34678
     34680     34679     34681     34683     34682     34684     34686     34685     34687
     34689     34688     34690     34692     34691     34693     34695     34694     34696
     34698     34697     34699     34701     34700     34702     34704     34703     34705
     34707     34706     34708     34710     34709     34711     34713     34712     34714
     34716     34715     34717     34719     34718     34720     34722     34721     34723
     34725     34724     34726     34728     34727     34729     34731     34730     34732
     34734     34733     34735     34737     34736     34738     34740     34739     34741
     34743     34742     34744     34746     34745     34747     34749     34748     34750
     34752     34751     34753     34755     34754     34756     34758     34757     34759
     34761     34760     34762     34764     34763     34765     34767     34766     34768
     34770     34769     34771     34773     34772     34774     34776     34775     34777
     34779     34778     34780     34782     34781     34783     34785     34784     34786
     34788     34787     34789     34791     34790     34792     34794     34793     34795
     34797     34796     34798     34800     34799     34801     34803     34802     34804
     34806     34805     34807     34809     34808     34810     34812     34811     34813
     34815     34814     34816     34818     34817     34819     34821     34820     34822
     34824     34823     34825     34827     34826     34828     34830     34829     34831
     34833     34832     34834     34836     34835     34837     34839     34838     34840
     34842     34841     34843     34845     34844     34846     34848     34847     34849
     34851     34850     34852     34854     34853     34855     34857     34856     34858
     34860     34859     34861     34863     34862     34864     34866     34865     34867
     34869     34868     34870     34872     34871     34873     34875     34874     34876
     34878     34877     34879     34881     34880     34882     34884     34883     34885
     34887     34886     34888     34890     34889     34891     34893     34892     34894
     34896     34895     34897     34899     34898     34900     34902     34901     34903
     34905     34904     34906     34908     34907     34909     34911     34910     34912
     34914     34913     34915     34917     34916     34918     34920     34919     34921
     34923     34922     34924     34926     34925     34927     34929     34928     34930
     34932     34931     34933     34935     34934     34936     34938     34937     34939
     34941     34940     34942     34944     34943     34945     34947     34946     34948
     34950     34949     34951     34953     34952     34954     34956     34955     34957
     34959     34958     34960     34962     34961     34963     34965     34964     34966
     34968     34967     34969     34971     34970     34972     34974     34973     34975
     34977     34976     34978     34980     34979     34981     34983     34982     34984
     34986     34985     34987     34989     34988     34990     34992     34991     34993
     34995     34994     34996     34998     34997     34999     35001     35000     35002
     35004     35003     35005     35007     35006     35008     35010     35009     35011
     35013     35012     35014     35016     35015     35017     35019     35018     35020
     35022     35021     35023     35025     35024     35026     35028     35027     35029
     35031     35030     35032     35034     35033     35035     35037     35036     35038
     35040     35039     35041     35043     35042     35044     35046     35045     35047
     35049     35048     35050     35052     35051     35053     35055     35054     35056
     35058     35057     35059     35061     35060     35062     35064     35063     35065
     35067     35066     35068     35070     35069     35071     35073     35072     35074
     35076     35075     35077     35079     35078     35080     35082     35081     35083
     35085     35084     35086     35088     35087     35089     35091     35090     35092
     35094     35093     35095     35097     35096     35098     35100     35099     35101
     35103     35102     35104     35106     35105     35107     35109     35108     35110
     35112     35111     35113     35115     35114     35116     35118     35117     35119
     35121     35120     35122     35124     35123     35125     35127     35126     35128
     35130     35129     35131     35133     35132     35134     35136     35135     35137
     35139     35138     35140     35142     35141     35143     35145     35144     35146
     35148     35147     35149     35151     35150     35152     35154     35153     35155
     35157     35156     35158     35160     35159     35161     35163     35162     35164
     35166     35165     35167     35169     35168     35170     35172     35171     35173
     35175     35174     35176     35178     35177     35179     35181     35180     35182
     35184     35183     35185     35187     35186     35188     35190     35189     35191
     35193     35192     35194     35196     35195     35197     35199     35198     35200
     35202     35201     35203     35205     35204     35206     35208     35207     35209
     35211     35210     35212     35214     35213     35215     35217     35216     35218
     35220     35219     35221     35223     35222     35224     35226     35225     35227
     35229     35228     35230     35232     35231     35233     35235     35234     35236
     35238     35237     35239     35241     35240     35242     35244     35243     35245
     35247     35246     35248     35250     35249     35251     35253     35252     35254
     35256     35255     35257     35259     35258     35260     35262     35261     35263
     35265     35264     35266     35268     35267     35269     35271     35270     35272
     35274     35273     35275     35277     35276     35278     35280     35279     35281
     35283     35282     35284     35286     35285     35287     35289     35288     35290
     35292     35291     35293     35295     35294     35296     35298     35297     35299
     35301     35300     35302     35304     35303     35305     35307     35306     35308
     35310     35309     35311     35313     35312     35314     35316     35315     35317
     35319     35318     35320     35322     35321     35323     35325     35324     35326
     35328     35327     35329     35331     35330     35332     35334     35333     35335
     35337     35336     35338     35340     35339     35341     35343     35342     35344
     35346     35345     35347     35349     35348     35350     35352     35351     35353
     35355     35354     35356     35358     35357     35359     35361     35360     35362
     35364     35363     35365     35367     35366     35368     35370     35369     35371
     35373     35372     35374     35376     35375     35377     35379     35378     35380
     35382     35381     35383     35385     35384     35386     35388     35387     35389
     35391     35390     35392     35394     35393     35395     35397     35396     35398
     35400     35399     35401     35403     35402     35404     35406     35405     35407
     35409     35408     35410     35412     35411     35413     35415     35414     35416
     35418     35417     35419     35421     35420     35422     35424     35423     35425
     35427     35426     35428     35430     35429     35431     35433     35432     35434
     35436     35435     35437     35439     35438     35440     35442     35441     35443
     35445     35444     35446     35448     35447     35449     35451     35450     35452
     35454     35453     35455     35457     35456     35458     35460     35459     35461
     35463     35462     35464     35466     35465     35467     35469     35468     35470
     35472     35471     35473     35475     35474     35476     35478     35477     35479
     35481     35480     35482     35484     35483     35485     35487     35486     35488
     35490     35489     35491     35493     35492     35494     35496     35495     35497
     35499     35498     35500     35502     35501     35503     35505     35504     35506
     35508     35507     35509     35511     35510     35512     35514     35513     35515
     35517     35516     35518     35520     35519     35521     35523     35522     35524
     35526     35525     35527     35529     35528     35530     35532     35531     35533
     35535     35534     35536     35538     35537     35539     35541     35540     35542
     35544     35543     35545     35547     35546     35548     35550     35549     35551
     35553     35552     35554     35556     35555     35557     35559     35558     35560
     35562     35561     35563     35565     35564     35566     35568     35567     35569
     35571     35570     35572     35574     35573     35575     35577     35576     35578
     35580     35579     35581     35583     35582     35584     35586     35585     35587
     35589     35588     35590     35592     35591     35593     35595     35594     35596
     35598     35597     35599     35601     35600     35602     35604     35603     35605
     35607     35606     35608     35610     35609     35611     35613     35612     35614
     35616     35615     35617     35619     35618     35620     35622     35621     35623
     35625     35624     35626     35628     35627     35629     35631     35630     35632
     35634     35633     35635     35637     35636     35638     35640     35639     35641
     35643     35642     35644     35646     35645     35647     35649     35648     35650
     35652     35651     35653     35655     35654     35656     35658     35657     35659
     35661     35660     35662     35664     35663     35665     35667     35666     35668
     35670     35669     35671     35673     35672     35674     35676     35675     35677
     35679     35678     35680     35682     35681     35683     35685     35684     35686
     35688     35687     35689     35691     35690     35692     35694     35693     35695
     35697     35696     35698     35700     35699     35701     35703     35702     35704
     35706     35705     35707     35709     35708     35710     35712     35711     35713
     35715     35714     35716     35718     35717     35719     35721     35720     35722
     35724     35723     35725     35727     35726     35728     35730     35729     35731
     35733     35732     35734     35736     35735     35737     35739     35738     35740
     35742     35741     35743     35745     35744     35746     35748     35747     35749
     35751     35750     35752     35754     35753     35755     35757     35756     35758
     35760     35759     35761     35763     35762     35764     35766     35765     35767
     35769     35768     35770     35772     35771     35773     35775     35774     35776
     35778     35777     35779     35781     35780     35782     35784     35783     35785
     35787     35786     35788     35790     35789     35791     35793     35792     35794
     35796     35795     35797     35799     35798     35800     35802     35801     35803
     35805     35804     35806     35808     35807     35809     35811     35810     35812
     35814     35813     35815     35817     35816     35818     35820     35819     35821
     35823     35822     35824     35826     35825     35827     35829     35828     35830
     35832     35831     35833     35835     35834     35836     35838     35837     35839
     35841     35840     35842     35844     35843     35845     35847     35846     35848
     35850     35849     35851     35853     35852     35854     35856     35855     35857
     35859     35858     35860     35862     35861     35863     35865     35864     35866
     35868     35867     35869     35871     35870     35872     35874     35873     35875
     35877     35876     35878     35880     35879     35881     35883     35882     35884
     35886     35885     35887     35889     35888     35890     35892     35891     35893
     35895     35894     35896     35898     35897     35899     35901     35900     35902
     35904     35903     35905     35907     35906     35908     35910     35909     35911
     35913     35912     35914     35916     35915     35917     35919     35918     35920
     35922     35921     35923     35925     35924     35926     35928     35927     35929
     35931     35930     35932     35934     35933     35935     35937     35936     35938
     35940     35939     35941     35943     35942     35944     35946     35945     35947
     35949     35948     35950     35952     35951     35953     35955     35954     35956
     35958     35957     35959     35961     35960     35962     35964     35963     35965
     35967     35966     35968     35970     35969     35971     35973     35972     35974
     35976     35975     35977     35979     35978     35980     35982     35981     35983
     35985     35984     35986     35988     35987     35989     35991     35990     35992
     35994     35993     35995     35997     35996     35998     36000     35999     36001
     36003     36002     36004     36006     36005     36007     36009     36008     36010
     36012     36011     36013     36015     36014     36016     36018     36017     36019
     36021     36020     36022     36024     36023     36025     36027     36026     36028
     36030     36029     36031     36033     36032     36034     36036     36035     36037
     36039     36038     36040     36042     36041     36043     36045     36044     36046
     36048     36047     36049     36051     36050     36052     36054     36053     36055
     36057     36056     36058     36060     36059     36061     36063     36062     36064
     36066     36065     36067     36069     36068     36070     36072     36071     36073
     36075     36074     36076     36078     36077     36079     36081     36080     36082
     36084     36083     36085     36087     36086     36088     36090     36089     36091
     36093     36092     36094     36096     36095     36097     36099     36098     36100
     36102     36101     36103     36105     36104     36106     36108     36107     36109
     36111     36110     36112     36114     36113     36115     36117     36116     36118
     36120     36119     36121     36123     36122     36124     36126     36125     36127
     36129     36128     36130     36132     36131     36133     36135     36134     36136
     36138     36137     36139     36141     36140     36142     36144     36143     36145
     36147     36146     36148     36150     36149     36151     36153     36152     36154
     36156     36155     36157     36159     36158     36160     36162     36161     36163
     36165     36164     36166     36168     36167     36169     36171     36170     36172
     36174     36173     36175     36177     36176     36178     36180     36179     36181
     36183     36182     36184     36186     36185     36187     36189     36188     36190
     36192     36191     36193     36195     36194     36196     36198     36197     36199
     36201     36200     36202     36204     36203     36205     36207     36206     36208
     36210     36209     36211     36213     36212     36214     36216     36215     36217
     36219     36218     36220     36222     36221     36223     36225     36224     36226
     36228     36227     36229     36231     36230     36232     36234     36233     36235
     36237     36236     36238     36240     36239     36241     36243     36242     36244
     36246     36245     36247     36249     36248     36250     36252     36251     36253
     36255     36254     36256     36258     36257     36259     36261     36260     36262
     36264     36263     36265     36267     36266     36268     36270     36269     36271
     36273     36272     36274     36276     36275     36277     36279     36278     36280
     36282     36281     36283     36285     36284     36286     36288     36287     36289
     36291     36290     36292     36294     36293     36295     36297     36296     36298
     36300     36299     36301     36303     36302     36304     36306     36305     36307
     36309     36308     36310     36312     36311     36313     36315     36314     36316
     36318     36317     36319     36321     36320     36322     36324     36323     36325
     36327     36326     36328     36330     36329     36331     36333     36332     36334
     36336     36335     36337     36339     36338     36340     36342     36341     36343
     36345     36344     36346     36348     36347     36349     36351     36350     36352
     36354     36353     36355     36357     36356     36358     36360     36359     36361
     36363     36362     36364     36366     36365     36367     36369     36368     36370
     36372     36371     36373     36375     36374     36376     36378     36377     36379
     36381     36380     36382     36384     36383     36385     36387     36386     36388
     36390     36389     36391     36393     36392     36394     36396     36395     36397
     36399     36398     36400     36402     36401     36403     36405     36404     36406
     36408     36407     36409     36411     36410     36412     36414     36413     36415
     36417     36416     36418     36420     36419     36421     36423     36422     36424
     36426     36425     36427     36429     36428     36430     36432     36431     36433
     36435     36434     36436     36438     36437     36439     36441     36440     36442
     36444     36443     36445     36447     36446     36448     36450     36449     36451
     36453     36452     36454     36456     36455     36457     36459     36458     36460
     36462     36461     36463     36465     36464     36466     36468     36467     36469
     36471     36470     36472     36474     36473     36475     36477     36476     36478
     36480     36479     36481     36483     36482     36484     36486     36485     36487
     36489     36488     36490     36492     36491     36493     36495     36494     36496
     36498     36497     36499     36501     36500     36502     36504     36503     36505
     36507     36506     36508     36510     36509     36511     36513     36512     36514
     36516     36515     36517     36519     36518     36520     36522     36521     36523
     36525     36524     36526     36528     36527     36529     36531     36530     36532
     36534     36533     36535     36537     36536     36538     36540     36539     36541
     36543     36542     36544     36546     36545     36547     36549     36548     36550
     36552     36551     36553     36555     36554     36556     36558     36557     36559
     36561     36560     36562     36564     36563     36565     36567     36566     36568
     36570     36569     36571     36573     36572     36574     36576     36575     36577
     36579     36578     36580     36582     36581     36583     36585     36584     36586
     36588     36587     36589     36591     36590     36592     36594     36593     36595
     36597     36596     36598     36600     36599     36601     36603     36602     36604
     36606     36605     36607     36609     36608     36610     36612     36611     36613
     36615     36614     36616     36618     36617     36619     36621     36620     36622
     36624     36623     36625     36627     36626     36628     36630     36629     36631
     36633     36632     36634     36636     36635     36637     36639     36638     36640
     36642     36641     36643     36645     36644     36646     36648     36647     36649
     36651     36650     36652     36654     36653     36655     36657     36656     36658
     36660     36659     36661     36663     36662     36664     36666     36665     36667
     36669     36668     36670     36672     36671     36673     36675     36674     36676
     36678     36677     36679     36681     36680     36682     36684     36683     36685
     36687     36686     36688     36690     36689     36691     36693     36692     36694
     36696     36695     36697     36699     36698     36700     36702     36701     36703
     36705     36704     36706     36708     36707     36709     36711     36710     36712
     36714     36713     36715     36717     36716     36718     36720     36719     36721
     36723     36722     36724     36726     36725     36727     36729     36728     36730
     36732     36731     36733     36735     36734     36736     36738     36737     36739
     36741     36740     36742     36744     36743     36745     36747     36746     36748
     36750     36749     36751     36753     36752     36754     36756     36755     36757
     36759     36758     36760     36762     36761     36763     36765     36764     36766
     36768     36767     36769     36771     36770     36772     36774     36773     36775
     36777     36776     36778     36780     36779     36781     36783     36782     36784
     36786     36785     36787     36789     36788     36790     36792     36791     36793
     36795     36794     36796     36798     36797     36799     36801     36800     36802
     36804     36803     36805     36807     36806     36808     36810     36809     36811
     36813     36812     36814     36816     36815     36817     36819     36818     36820
     36822     36821     36823     36825     36824     36826     36828     36827     36829
     36831     36830     36832     36834     36833     36835     36837     36836     36838
     36840     36839     36841     36843     36842     36844     36846     36845     36847
     36849     36848     36850     36852     36851     36853     36855     36854     36856
     36858     36857     36859     36861     36860     36862     36864     36863     36865
     36867     36866     36868     36870     36869     36871     36873     36872     36874
     36876     36875     36877     36879     36878     36880     36882     36881     36883
     36885     36884     36886     36888     36887     36889     36891     36890     36892
     36894     36893     36895     36897     36896     36898     36900     36899     36901
     36903     36902     36904     36906     36905     36907     36909     36908     36910
     36912     36911     36913     36915     36914     36916     36918     36917     36919
     36921     36920     36922     36924     36923     36925     36927     36926     36928
     36930     36929     36931     36933     36932     36934     36936     36935     36937
     36939     36938     36940     36942     36941     36943     36945     36944     36946
     36948     36947     36949     36951     36950     36952     36954     36953     36955
     36957     36956     36958     36960     36959     36961     36963     36962     36964
     36966     36965     36967     36969     36968     36970     36972     36971     36973
     36975     36974     36976     36978     36977     36979     36981     36980     36982
     36984     36983     36985     36987     36986     36988     36990     36989     36991
     36993     36992     36994     36996     36995     36997     36999     36998     37000
     37002     37001     37003     37005     37004     37006     37008     37007     37009
     37011     37010     37012     37014     37013     37015     37017     37016     37018
     37020     37019     37021     37023     37022     37024     37026     37025     37027
     37029     37028     37030     37032     37031     37033     37035     37034     37036
     37038     37037     37039     37041     37040     37042     37044     37043     37045
     37047     37046     37048     37050     37049     37051     37053     37052     37054
     37056     37055     37057     37059     37058     37060     37062     37061     37063
     37065     37064     37066     37068     37067     37069     37071     37070     37072
     37074     37073     37075     37077     37076     37078     37080     37079     37081
     37083     37082     37084     37086     37085     37087     37089     37088     37090
     37092     37091     37093     37095     37094     37096     37098     37097     37099
     37101     37100     37102     37104     37103     37105     37107     37106     37108
     37110     37109     37111     37113     37112     37114     37116     37115     37117
     37119     37118     37120     37122     37121     37123     37125     37124     37126
     37128     37127     37129     37131     37130     37132     37134     37133     37135
     37137     37136     37138     37140     37139     37141     37143     37142     37144
     37146     37145     37147     37149     37148     37150     37152     37151     37153
     37155     37154     37156     37158     37157     37159     37161     37160     37162
     37164     37163     37165     37167     37166     37168     37170     37169     37171
     37173     37172     37174     37176     37175     37177     37179     37178     37180
     37182     37181     37183     37185     37184     37186     37188     37187     37189
     37191     37190     37192     37194     37193     37195     37197     37196     37198
     37200     37199     37201     37203     37202     37204     37206     37205     37207
     37209     37208     37210     37212     37211     37213     37215     37214     37216
     37218     37217     37219     37221     37220     37222     37224     37223     37225
     37227     37226     37228     37230     37229     37231     37233     37232     37234
     37236     37235     37237     37239     37238     37240     37242     37241     37243
     37245     37244     37246     37248     37247     37249     37251     37250     37252
     37254     37253     37255     37257     37256     37258     37260     37259     37261
     37263     37262     37264     37266     37265     37267     37269     37268     37270
     37272     37271     37273     37275     37274     37276     37278     37277     37279
     37281     37280     37282     37284     37283     37285     37287     37286     37288
     37290     37289     37291     37293     37292     37294     37296     37295     37297
     37299     37298     37300     37302     37301     37303     37305     37304     37306
     37308     37307     37309     37311     37310     37312     37314     37313     37315
     37317     37316     37318     37320     37319     37321     37323     37322     37324
     37326     37325     37327     37329     37328     37330     37332     37331     37333
     37335     37334     37336     37338     37337     37339     37341     37340     37342
     37344     37343     37345     37347     37346     37348     37350     37349     37351
     37353     37352     37354     37356     37355     37357     37359     37358     37360
     37362     37361     37363     37365     37364     37366     37368     37367     37369
     37371     37370     37372     37374     37373     37375     37377     37376     37378
     37380     37379     37381     37383     37382     37384     37386     37385     37387
     37389     37388     37390     37392     37391     37393     37395     37394     37396
     37398     37397     37399     37401     37400     37402     37404     37403     37405
     37407     37406     37408     37410     37409     37411     37413     37412     37414
     37416     37415     37417     37419     37418     37420     37422     37421     37423
     37425     37424     37426     37428     37427     37429     37431     37430     37432
     37434     37433     37435     37437     37436     37438     37440     37439     37441
     37443     37442     37444     37446     37445     37447     37449     37448     37450
     37452     37451     37453     37455     37454     37456     37458     37457     37459
     37461     37460     37462     37464     37463     37465     37467     37466     37468
     37470     37469     37471     37473     37472     37474     37476     37475     37477
     37479     37478     37480     37482     37481     37483     37485     37484     37486
     37488     37487     37489     37491     37490     37492     37494     37493     37495
     37497     37496     37498     37500     37499     37501     37503     37502     37504
     37506     37505     37507     37509     37508     37510     37512     37511     37513
     37515     37514     37516     37518     37517     37519     37521     37520     37522
     37524     37523     37525     37527     37526     37528     37530     37529     37531
     37533     37532     37534     37536     37535     37537     37539     37538     37540
     37542     37541     37543     37545     37544     37546     37548     37547     37549
     37551     37550     37552     37554     37553     37555     37557     37556     37558
     37560     37559     37561     37563     37562     37564     37566     37565     37567
     37569     37568     37570     37572     37571     37573     37575     37574     37576
     37578     37577     37579     37581     37580     37582     37584     37583     37585
     37587     37586     37588     37590     37589     37591     37593     37592     37594
     37596     37595     37597     37599     37598     37600     37602     37601     37603
     37605     37604     37606     37608     37607     37609     37611     37610     37612
     37614     37613     37615     37617     37616     37618     37620     37619     37621
     37623     37622     37624     37626     37625     37627     37629     37628     37630
     37632     37631     37633     37635     37634     37636     37638     37637     37639
     37641     37640     37642     37644     37643     37645     37647     37646     37648
     37650     37649     37651     37653     37652     37654     37656     37655     37657
     37659     37658     37660     37662     37661     37663     37665     37664     37666
     37668     37667     37669     37671     37670     37672     37674     37673     37675
     37677     37676     37678     37680     37679     37681     37683     37682     37684
     37686     37685     37687     37689     37688     37690     37692     37691     37693
     37695     37694     37696     37698     37697     37699     37701     37700     37702
     37704     37703     37705     37707     37706     37708     37710     37709     37711
     37713     37712     37714     37716     37715     37717     37719     37718     37720
     37722     37721     37723     37725     37724     37726     37728     37727     37729
     37731     37730     37732     37734     37733     37735     37737     37736     37738
     37740     37739     37741     37743     37742     37744     37746     37745     37747
     37749     37748     37750     37752     37751     37753     37755     37754     37756
     37758     37757     37759     37761     37760     37762     37764     37763     37765
     37767     37766     37768     37770     37769     37771     37773     37772     37774
     37776     37775     37777     37779     37778     37780     37782     37781     37783
     37785     37784     37786     37788     37787     37789     37791     37790     37792
     37794     37793     37795     37797     37796     37798     37800     37799     37801
     37803     37802     37804     37806     37805     37807     37809     37808     37810
     37812     37811     37813     37815     37814     37816     37818     37817     37819
     37821     37820     37822     37824     37823     37825     37827     37826     37828
     37830     37829     37831     37833     37832     37834     37836     37835     37837
     37839     37838     37840     37842     37841     37843     37845     37844     37846
     37848     37847     37849     37851     37850     37852     37854     37853     37855
     37857     37856     37858     37860     37859     37861     37863     37862     37864
     37866     37865     37867     37869     37868     37870     37872     37871     37873
     37875     37874     37876     37878     37877     37879     37881     37880     37882
     37884     37883     37885     37887     37886     37888     37890     37889     37891
     37893     37892     37894     37896     37895     37897     37899     37898     37900
     37902     37901     37903     37905     37904     37906     37908     37907     37909
     37911     37910     37912     37914     37913     37915     37917     37916     37918
     37920     37919     37921     37923     37922     37924     37926     37925     37927
     37929     37928     37930     37932     37931     37933     37935     37934     37936
     37938     37937     37939     37941     37940     37942     37944     37943     37945
     37947     37946     37948     37950     37949     37951     37953     37952     37954
     37956     37955     37957     37959     37958     37960     37962     37961     37963
     37965     37964     37966     37968     37967     37969     37971     37970     37972
     37974     37973     37975     37977     37976     37978     37980     37979     37981
     37983     37982     37984     37986     37985     37987     37989     37988     37990
     37992     37991     37993     37995     37994     37996     37998     37997     37999
     38001     38000     38002     38004     38003     38005     38007     38006     38008
     38010     38009     38011     38013     38012     38014     38016     38015     38017
     38019     38018     38020     38022     38021     38023     38025     38024     38026
     38028     38027     38029     38031     38030     38032     38034     38033     38035
     38037     38036     38038     38040     38039     38041     38043     38042     38044
     38046     38045     38047     38049     38048     38050     38052     38051     38053
     38055     38054     38056     38058     38057     38059     38061     38060     38062
     38064     38063     38065     38067     38066     38068     38070     38069     38071
     38073     38072     38074     38076     38075     38077     38079     38078     38080
     38082     38081     38083     38085     38084     38086     38088     38087     38089
     38091     38090     38092     38094     38093     38095     38097     38096     38098
     38100     38099     38101     38103     38102     38104     38106     38105     38107
     38109     38108     38110     38112     38111     38113     38115     38114     38116
     38118     38117     38119     38121     38120     38122     38124     38123     38125
     38127     38126     38128     38130     38129     38131     38133     38132     38134
     38136     38135     38137     38139     38138     38140     38142     38141     38143
     38145     38144     38146     38148     38147     38149     38151     38150     38152
     38154     38153     38155     38157     38156     38158     38160     38159     38161
     38163     38162     38164     38166     38165     38167     38169     38168     38170
     38172     38171     38173     38175     38174     38176     38178     38177     38179
     38181     38180     38182     38184     38183     38185     38187     38186     38188
     38190     38189     38191     38193     38192     38194     38196     38195     38197
     38199     38198     38200     38202     38201     38203     38205     38204     38206
     38208     38207     38209     38211     38210     38212     38214     38213     38215
     38217     38216     38218     38220     38219     38221     38223     38222     38224
     38226     38225     38227     38229     38228     38230     38232     38231     38233
     38235     38234     38236     38238     38237     38239     38241     38240     38242
     38244     38243     38245     38247     38246     38248     38250     38249     38251
     38253     38252     38254     38256     38255     38257     38259     38258     38260
     38262     38261     38263     38265     38264     38266     38268     38267     38269
     38271     38270     38272     38274     38273     38275     38277     38276     38278
     38280     38279     38281     38283     38282     38284     38286     38285     38287
     38289     38288     38290     38292     38291     38293     38295     38294     38296
     38298     38297     38299     38301     38300     38302     38304     38303     38305
     38307     38306     38308     38310     38309     38311     38313     38312     38314
     38316     38315     38317     38319     38318     38320     38322     38321     38323
     38325     38324     38326     38328     38327     38329     38331     38330     38332
     38334     38333     38335     38337     38336     38338     38340     38339     38341
     38343     38342     38344     38346     38345     38347     38349     38348     38350
     38352     38351     38353     38355     38354     38356     38358     38357     38359
     38361     38360     38362     38364     38363     38365     38367     38366     38368
     38370     38369     38371     38373     38372     38374     38376     38375     38377
     38379     38378     38380     38382     38381     38383     38385     38384     38386
     38388     38387     38389     38391     38390     38392     38394     38393     38395
     38397     38396     38398     38400     38399     38401     38403     38402     38404
     38406     38405     38407     38409     38408     38410     38412     38411     38413
     38415     38414     38416     38418     38417     38419     38421     38420     38422
     38424     38423     38425     38427     38426     38428     38430     38429     38431
     38433     38432     38434     38436     38435     38437     38439     38438     38440
     38442     38441     38443     38445     38444     38446     38448     38447     38449
     38451     38450     38452     38454     38453     38455     38457     38456     38458
     38460     38459     38461     38463     38462     38464     38466     38465     38467
     38469     38468     38470     38472     38471     38473     38475     38474     38476
     38478     38477     38479     38481     38480     38482     38484     38483     38485
     38487     38486     38488     38490     38489     38491     38493     38492     38494
     38496     38495     38497     38499     38498     38500     38502     38501     38503
     38505     38504     38506     38508     38507     38509     38511     38510     38512
     38514     38513     38515     38517     38516     38518     38520     38519     38521
     38523     38522     38524     38526     38525     38527     38529     38528     38530
     38532     38531     38533     38535     38534     38536     38538     38537     38539
     38541     38540     38542     38544     38543     38545     38547     38546     38548
     38550     38549     38551     38553     38552     38554     38556     38555     38557
     38559     38558     38560     38562     38561     38563     38565     38564     38566
     38568     38567     38569     38571     38570     38572     38574     38573     38575
     38577     38576     38578     38580     38579     38581     38583     38582     38584
     38586     38585     38587     38589     38588     38590     38592     38591     38593
     38595     38594     38596     38598     38597     38599     38601     38600     38602
     38604     38603     38605     38607     38606     38608     38610     38609     38611
     38613     38612     38614     38616     38615     38617     38619     38618     38620
     38622     38621     38623     38625     38624     38626     38628     38627     38629
     38631     38630     38632     38634     38633     38635     38637     38636     38638
     38640     38639     38641     38643     38642     38644     38646     38645     38647
     38649     38648     38650     38652     38651     38653     38655     38654     38656
     38658     38657     38659     38661     38660     38662     38664     38663     38665
     38667     38666     38668     38670     38669     38671     38673     38672     38674
     38676     38675     38677     38679     38678     38680     38682     38681     38683
     38685     38684     38686     38688     38687     38689     38691     38690     38692
     38694     38693     38695     38697     38696     38698     38700     38699     38701
     38703     38702     38704     38706     38705     38707     38709     38708     38710
     38712     38711     38713     38715     38714     38716     38718     38717     38719
     38721     38720     38722     38724     38723     38725     38727     38726     38728
     38730     38729     38731     38733     38732     38734     38736     38735     38737
     38739     38738     38740     38742     38741     38743     38745     38744     38746
     38748     38747     38749     38751     38750     38752     38754     38753     38755
     38757     38756     38758     38760     38759     38761     38763     38762     38764
     38766     38765     38767     38769     38768     38770     38772     38771     38773
     38775     38774     38776     38778     38777     38779     38781     38780     38782
     38784     38783     38785     38787     38786     38788     38790     38789     38791
     38793     38792     38794     38796     38795     38797     38799     38798     38800
     38802     38801     38803     38805     38804     38806     38808     38807     38809
     38811     38810     38812     38814     38813     38815     38817     38816     38818
     38820     38819     38821     38823     38822     38824     38826     38825     38827
     38829     38828     38830     38832     38831     38833     38835     38834     38836
     38838     38837     38839     38841     38840     38842     38844     38843     38845
     38847     38846     38848     38850     38849     38851     38853     38852     38854
     38856     38855     38857     38859     38858     38860     38862     38861     38863
     38865     38864     38866     38868     38867     38869     38871     38870     38872
     38874     38873     38875     38877     38876     38878     38880     38879     38881
     38883     38882     38884     38886     38885     38887     38889     38888     38890
     38892     38891     38893     38895     38894     38896     38898     38897     38899
     38901     38900     38902     38904     38903     38905     38907     38906     38908
     38910     38909     38911     38913     38912     38914     38916     38915     38917
     38919     38918     38920     38922     38921     38923     38925     38924     38926
     38928     38927     38929     38931     38930     38932     38934     38933     38935
     38937     38936     38938     38940     38939     38941     38943     38942     38944
     38946     38945     38947     38949     38948     38950     38952     38951     38953
     38955     38954     38956     38958     38957     38959     38961     38960     38962
     38964     38963     38965     38967     38966     38968     38970     38969     38971
     38973     38972     38974     38976     38975     38977     38979     38978     38980
     38982     38981     38983     38985     38984     38986     38988     38987     38989
     38991     38990     38992     38994     38993     38995     38997     38996     38998
     39000     38999     39001     39003     39002     39004     39006     39005     39007
     39009     39008     39010     39012     39011     39013     39015     39014     39016
     39018     39017     39019     39021     39020     39022     39024     39023     39025
     39027     39026     39028     39030     39029     39031     39033     39032     39034
     39036     39035     39037     39039     39038     39040     39042     39041     39043
     39045     39044     39046     39048     39047     39049     39051     39050     39052
     39054     39053     39055     39057     39056     39058     39060     39059     39061
     39063     39062     39064     39066     39065     39067     39069     39068     39070
     39072     39071     39073     39075     39074     39076     39078     39077     39079
     39081     39080     39082     39084     39083     39085     39087     39086     39088
     39090     39089     39091     39093     39092     39094     39096     39095     39097
     39099     39098     39100     39102     39101     39103     39105     39104     39106
     39108     39107     39109     39111     39110     39112     39114     39113     39115
     39117     39116     39118     39120     39119     39121     39123     39122     39124
     39126     39125     39127     39129     39128     39130     39132     39131     39133
     39135     39134     39136     39138     39137     39139     39141     39140     39142
     39144     39143     39145     39147     39146     39148     39150     39149     39151
     39153     39152     39154     39156     39155     39157     39159     39158     39160
     39162     39161     39163     39165     39164     39166     39168     39167     39169
     39171     39170     39172     39174     39173     39175     39177     39176     39178
     39180     39179     39181     39183     39182     39184     39186     39185     39187
     39189     39188     39190     39192     39191     39193     39195     39194     39196
     39198     39197     39199     39201     39200     39202     39204     39203     39205
     39207     39206     39208     39210     39209     39211     39213     39212     39214
     39216     39215     39217     39219     39218     39220     39222     39221     39223
     39225     39224     39226     39228     39227     39229     39231     39230     39232
     39234     39233     39235     39237     39236     39238     39240     39239     39241
     39243     39242     39244     39246     39245     39247     39249     39248     39250
     39252     39251     39253     39255     39254     39256     39258     39257     39259
     39261     39260     39262     39264     39263     39265     39267     39266     39268
     39270     39269     39271     39273     39272     39274     39276     39275     39277
     39279     39278     39280     39282     39281     39283     39285     39284     39286
     39288     39287     39289     39291     39290     39292     39294     39293     39295
     39297     39296     39298     39300     39299     39301     39303     39302     39304
     39306     39305     39307     39309     39308     39310     39312     39311     39313
     39315     39314     39316     39318     39317     39319     39321     39320     39322
     39324     39323     39325     39327     39326     39328     39330     39329     39331
     39333     39332     39334     39336     39335     39337     39339     39338     39340
     39342     39341     39343     39345     39344     39346     39348     39347     39349
     39351     39350     39352     39354     39353     39355     39357     39356     39358
     39360     39359     39361     39363     39362     39364     39366     39365     39367
     39369     39368     39370     39372     39371     39373     39375     39374     39376
     39378     39377     39379     39381     39380     39382     39384     39383     39385
     39387     39386     39388     39390     39389     39391     39393     39392     39394
     39396     39395     39397     39399     39398     39400     39402     39401     39403
     39405     39404     39406     39408     39407     39409     39411     39410     39412
     39414     39413     39415     39417     39416     39418     39420     39419     39421
     39423     39422     39424     39426     39425     39427     39429     39428     39430
     39432     39431     39433     39435     39434     39436     39438     39437     39439
     39441     39440     39442     39444     39443     39445     39447     39446     39448
     39450     39449     39451     39453     39452     39454     39456     39455     39457
     39459     39458     39460     39462     39461     39463     39465     39464     39466
     39468     39467     39469     39471     39470     39472     39474     39473     39475
     39477     39476     39478     39480     39479     39481     39483     39482     39484
     39486     39485     39487     39489     39488     39490     39492     39491     39493
     39495     39494     39496     39498     39497     39499     39501     39500     39502
     39504     39503     39505     39507     39506     39508     39510     39509     39511
     39513     39512     39514     39516     39515     39517     39519     39518     39520
     39522     39521     39523     39525     39524     39526     39528     39527     39529
     39531     39530     39532     39534     39533     39535     39537     39536     39538
     39540     39539     39541     39543     39542     39544     39546     39545     39547
     39549     39548     39550     39552     39551     39553     39555     39554     39556
     39558     39557     39559     39561     39560     39562     39564     39563     39565
     39567     39566     39568     39570     39569     39571     39573     39572     39574
     39576     39575     39577     39579     39578     39580     39582     39581     39583
     39585     39584     39586     39588     39587     39589     39591     39590     39592
     39594     39593     39595     39597     39596     39598     39600     39599     39601
     39603     39602     39604     39606     39605     39607     39609     39608     39610
     39612     39611     39613     39615     39614     39616     39618     39617     39619
     39621     39620     39622     39624     39623     39625     39627     39626     39628
     39630     39629     39631     39633     39632     39634     39636     39635     39637
     39639     39638     39640     39642     39641     39643     39645     39644     39646
     39648     39647     39649     39651     39650     39652     39654     39653     39655
     39657     39656     39658     39660     39659     39661     39663     39662     39664
     39666     39665     39667     39669     39668     39670     39672     39671     39673
     39675     39674     39676     39678     39677     39679     39681     39680     39682
     39684     39683     39685     39687     39686     39688     39690     39689     39691
     39693     39692     39694     39696     39695     39697     39699     39698     39700
     39702     39701     39703     39705     39704     39706     39708     39707     39709
     39711     39710     39712     39714     39713     39715     39717     39716     39718
     39720     39719     39721     39723     39722     39724     39726     39725     39727
     39729     39728     39730     39732     39731     39733     39735     39734     39736
     39738     39737     39739     39741     39740     39742     39744     39743     39745
     39747     39746     39748     39750     39749     39751     39753     39752     39754
     39756     39755     39757     39759     39758     39760     39762     39761     39763
     39765     39764     39766     39768     39767     39769     39771     39770     39772
     39774     39773     39775     39777     39776     39778     39780     39779     39781
     39783     39782     39784     39786     39785     39787     39789     39788     39790
     39792     39791     39793     39795     39794     39796     39798     39797     39799
     39801     39800     39802     39804     39803     39805     39807     39806     39808
     39810     39809     39811     39813     39812     39814     39816     39815     39817
     39819     39818     39820     39822     39821     39823     39825     39824     39826
     39828     39827     39829     39831     39830     39832     39834     39833     39835
     39837     39836     39838     39840     39839     39841     39843     39842     39844
     39846     39845     39847     39849     39848     39850     39852     39851     39853
     39855     39854     39856     39858     39857     39859     39861     39860     39862
     39864     39863     39865     39867     39866     39868     39870     39869     39871
     39873     39872     39874     39876     39875     39877     39879     39878     39880
     39882     39881     39883     39885     39884     39886     39888     39887     39889
     39891     39890     39892     39894     39893     39895     39897     39896     39898
     39900     39899     39901     39903     39902     39904     39906     39905     39907
     39909     39908     39910     39912     39911     39913     39915     39914     39916
     39918     39917     39919     39921     39920     39922     39924     39923     39925
     39927     39926     39928     39930     39929     39931     39933     39932     39934
     39936     39935     39937     39939     39938     39940     39942     39941     39943
     39945     39944     39946     39948     39947     39949     39951     39950     39952
     39954     39953     39955     39957     39956     39958     39960     39959     39961
     39963     39962     39964     39966     39965     39967     39969     39968     39970
     39972     39971     39973     39975     39974     39976     39978     39977     39979
     39981     39980     39982     39984     39983     39985     39987     39986     39988
     39990     39989     39991     39993     39992     39994     39996     39995     39997
     39999     39998     40000     40002     40001     40003     40005     40004     40006
     40008     40007     40009     40011     40010     40012     40014     40013     40015
     40017     40016     40018     40020     40019     40021     40023     40022     40024
     40026     40025     40027     40029     40028     40030     40032     40031     40033
     40035     40034     40036     40038     40037     40039     40041     40040     40042
     40044     40043     40045     40047     40046     40048     40050     40049     40051
     40053     40052     40054     40056     40055     40057     40059     40058     40060
     40062     40061     40063     40065     40064     40066     40068     40067     40069
     40071     40070     40072     40074     40073     40075     40077     40076     40078
     40080     40079     40081     40083     40082     40084     40086     40085     40087
     40089     40088     40090     40092     40091     40093     40095     40094     40096
     40098     40097     40099     40101     40100     40102     40104     40103     40105
     40107     40106     40108     40110     40109     40111     40113     40112     40114
     40116     40115     40117     40119     40118     40120     40122     40121     40123
     40125     40124     40126     40128     40127     40129     40131     40130     40132
     40134     40133     40135     40137     40136     40138     40140     40139     40141
     40143     40142     40144     40146     40145     40147     40149     40148     40150
     40152     40151     40153     40155     40154     40156     40158     40157     40159
     40161     40160     40162     40164     40163     40165     40167     40166     40168
     40170     40169     40171     40173     40172     40174     40176     40175     40177
     40179     40178     40180     40182     40181     40183     40185     40184     40186
     40188     40187     40189     40191     40190     40192     40194     40193     40195
     40197     40196     40198     40200     40199     40201     40203     40202     40204
     40206     40205     40207     40209     40208     40210     40212     40211     40213
     40215     40214     40216     40218     40217     40219     40221     40220     40222
     40224     40223     40225     40227     40226     40228     40230     40229     40231
     40233     40232     40234     40236     40235     40237     40239     40238     40240
     40242     40241     40243     40245     40244     40246     40248     40247     40249
     40251     40250     40252     40254     40253     40255     40257     40256     40258
     40260     40259     40261     40263     40262     40264     40266     40265     40267
     40269     40268     40270     40272     40271     40273     40275     40274     40276
     40278     40277     40279     40281     40280     40282     40284     40283     40285
     40287     40286     40288     40290     40289     40291     40293     40292     40294
     40296     40295     40297     40299     40298     40300     40302     40301     40303
     40305     40304     40306     40308     40307     40309     40311     40310     40312
     40314     40313     40315     40317     40316     40318     40320     40319     40321
     40323     40322     40324     40326     40325     40327     40329     40328     40330
     40332     40331     40333     40335     40334     40336     40338     40337     40339
     40341     40340     40342     40344     40343     40345     40347     40346     40348
     40350     40349     40351     40353     40352     40354     40356     40355     40357
     40359     40358     40360     40362     40361     40363     40365     40364     40366
     40368     40367     40369     40371     40370     40372     40374     40373     40375
     40377     40376     40378     40380     40379     40381     40383     40382     40384
     40386     40385     40387     40389     40388     40390     40392     40391     40393
     40395     40394     40396     40398     40397     40399     40401     40400     40402
     40404     40403     40405     40407     40406     40408     40410     40409     40411
     40413     40412     40414     40416     40415     40417     40419     40418     40420
     40422     40421     40423     40425     40424     40426     40428     40427     40429
     40431     40430     40432     40434     40433     40435     40437     40436     40438
     40440     40439     40441     40443     40442     40444     40446     40445     40447
     40449     40448     40450     40452     40451     40453     40455     40454     40456
     40458     40457     40459     40461     40460     40462     40464     40463     40465
     40467     40466     40468     40470     40469     40471     40473     40472     40474
     40476     40475     40477     40479     40478     40480     40482     40481     40483
     40485     40484     40486     40488     40487     40489     40491     40490     40492
     40494     40493     40495     40497     40496     40498     40500     40499     40501
     40503     40502     40504     40506     40505     40507     40509     40508     40510
     40512     40511     40513     40515     40514     40516     40518     40517     40519
     40521     40520     40522     40524     40523     40525     40527     40526     40528
     40530     40529     40531     40533     40532     40534     40536     40535     40537
     40539     40538     40540     40542     40541     40543     40545     40544     40546
     40548     40547     40549     40551     40550     40552     40554     40553     40555
     40557     40556     40558     40560     40559     40561     40563     40562     40564
     40566     40565     40567     40569     40568     40570     40572     40571     40573
     40575     40574     40576     40578     40577     40579     40581     40580     40582
     40584     40583     40585     40587     40586     40588     40590     40589     40591
     40593     40592     40594     40596     40595     40597     40599     40598     40600
     40602     40601     40603     40605     40604     40606     40608     40607     40609
     40611     40610     40612     40614     40613     40615     40617     40616     40618
     40620     40619     40621     40623     40622     40624     40626     40625     40627
     40629     40628     40630     40632     40631     40633     40635     40634     40636
     40638     40637     40639     40641     40640     40642     40644     40643     40645
     40647     40646     40648     40650     40649     40651     40653     40652     40654
     40656     40655     40657     40659     40658     40660     40662     40661     40663
     40665     40664     40666     40668     40667     40669     40671     40670     40672
     40674     40673     40675     40677     40676     40678     40680     40679     40681
     40683     40682     40684     40686     40685     40687     40689     40688     40690
     40692     40691     40693     40695     40694     40696     40698     40697     40699
     40701     40700     40702     40704     40703     40705     40707     40706     40708
     40710     40709     40711     40713     40712     40714     40716     40715     40717
     40719     40718     40720     40722     40721     40723     40725     40724     40726
     40728     40727     40729     40731     40730     40732     40734     40733     40735
     40737     40736     40738     40740     40739     40741     40743     40742     40744
     40746     40745     40747     40749     40748     40750     40752     40751     40753
     40755     40754     40756     40758     40757     40759     40761     40760     40762
     40764     40763     40765     40767     40766     40768     40770     40769     40771
     40773     40772     40774     40776     40775     40777     40779     40778     40780
     40782     40781     40783     40785     40784     40786     40788     40787     40789
     40791     40790     40792     40794     40793     40795     40797     40796     40798
     40800     40799     40801     40803     40802     40804     40806     40805     40807
     40809     40808     40810     40812     40811     40813     40815     40814     40816
     40818     40817     40819     40821     40820     40822     40824     40823     40825
     40827     40826     40828     40830     40829     40831     40833     40832     40834
     40836     40835     40837     40839     40838     40840     40842     40841     40843
     40845     40844     40846     40848     40847     40849     40851     40850     40852
     40854     40853     40855     40857     40856     40858     40860     40859     40861
     40863     40862     40864     40866     40865     40867     40869     40868     40870
     40872     40871     40873     40875     40874     40876     40878     40877     40879
     40881     40880     40882     40884     40883     40885     40887     40886     40888
     40890     40889     40891     40893     40892     40894     40896     40895     40897
     40899     40898     40900     40902     40901     40903     40905     40904     40906
     40908     40907     40909     40911     40910     40912     40914     40913     40915
     40917     40916     40918     40920     40919     40921     40923     40922     40924
     40926     40925     40927     40929     40928     40930     40932     40931     40933
     40935     40934     40936     40938     40937     40939     40941     40940     40942
     40944     40943     40945     40947     40946     40948     40950     40949     40951
     40953     40952     40954     40956     40955     40957     40959     40958     40960
     40962     40961     40963     40965     40964     40966     40968     40967     40969
     40971     40970     40972     40974     40973     40975     40977     40976     40978
     40980     40979     40981     40983     40982     40984     40986     40985     40987
     40989     40988     40990     40992     40991     40993     40995     40994     40996
     40998     40997     40999     41001     41000     41002     41004     41003     41005
     41007     41006     41008     41010     41009     41011     41013     41012     41014
     41016     41015     41017     41019     41018     41020     41022     41021     41023
     41025     41024     41026     41028     41027     41029     41031     41030     41032
     41034     41033     41035     41037     41036     41038     41040     41039     41041
     41043     41042     41044     41046     41045     41047     41049     41048     41050
     41052     41051     41053     41055     41054     41056     41058     41057     41059
     41061     41060     41062     41064     41063     41065     41067     41066     41068
     41070     41069     41071     41073     41072     41074     41076     41075     41077
     41079     41078     41080     41082     41081     41083     41085     41084     41086
     41088     41087     41089     41091     41090     41092     41094     41093     41095
     41097     41096     41098     41100     41099     41101     41103     41102     41104
     41106     41105     41107     41109     41108     41110     41112     41111     41113
     41115     41114     41116     41118     41117     41119     41121     41120     41122
     41124     41123     41125     41127     41126     41128     41130     41129     41131
     41133     41132     41134     41136     41135     41137     41139     41138     41140
     41142     41141     41143     41145     41144     41146     41148     41147     41149
     41151     41150     41152     41154     41153     41155     41157     41156     41158
     41160     41159     41161     41163     41162     41164     41166     41165     41167
     41169     41168     41170     41172     41171     41173     41175     41174     41176
     41178     41177     41179     41181     41180     41182     41184     41183     41185
     41187     41186     41188     41190     41189     41191     41193     41192     41194
     41196     41195     41197     41199     41198     41200     41202     41201     41203
     41205     41204     41206     41208     41207     41209     41211     41210     41212
     41214     41213     41215     41217     41216     41218     41220     41219     41221
     41223     41222     41224     41226     41225     41227     41229     41228     41230
     41232     41231     41233     41235     41234     41236     41238     41237     41239
     41241     41240     41242     41244     41243     41245     41247     41246     41248
     41250     41249     41251     41253     41252     41254     41256     41255     41257
     41259     41258     41260     41262     41261     41263     41265     41264     41266
     41268     41267     41269     41271     41270     41272     41274     41273     41275
     41277     41276     41278     41280     41279     41281     41283     41282     41284
     41286     41285     41287     41289     41288     41290     41292     41291     41293
     41295     41294     41296     41298     41297     41299     41301     41300     41302
     41304     41303     41305     41307     41306     41308     41310     41309     41311
     41313     41312     41314     41316     41315     41317     41319     41318     41320
     41322     41321     41323     41325     41324     41326     41328     41327     41329
     41331     41330     41332     41334     41333     41335     41337     41336     41338
     41340     41339     41341     41343     41342     41344     41346     41345     41347
     41349     41348     41350     41352     41351     41353     41355     41354     41356
     41358     41357     41359     41361     41360     41362     41364     41363     41365
     41367     41366     41368     41370     41369     41371     41373     41372     41374
     41376     41375     41377     41379     41378     41380     41382     41381     41383
     41385     41384     41386     41388     41387     41389     41391     41390     41392
     41394     41393     41395     41397     41396     41398     41400     41399     41401
     41403     41402     41404     41406     41405     41407     41409     41408     41410
     41412     41411     41413     41415     41414     41416     41418     41417     41419
     41421     41420     41422     41424     41423     41425     41427     41426     41428
     41430     41429     41431     41433     41432     41434     41436     41435     41437
     41439     41438     41440     41442     41441     41443     41445     41444     41446
     41448     41447     41449     41451     41450     41452     41454     41453     41455
     41457     41456     41458     41460     41459     41461     41463     41462     41464
     41466     41465     41467     41469     41468     41470     41472     41471     41473
     41475     41474     41476     41478     41477     41479     41481     41480     41482
     41484     41483     41485     41487     41486     41488     41490     41489     41491
     41493     41492     41494     41496     41495     41497     41499     41498     41500
     41502     41501     41503     41505     41504     41506     41508     41507     41509
     41511     41510     41512     41514     41513     41515     41517     41516     41518
     41520     41519     41521     41523     41522     41524     41526     41525     41527
     41529     41528     41530     41532     41531     41533     41535     41534     41536
     41538     41537     41539     41541     41540     41542     41544     41543     41545
     41547     41546     41548     41550     41549     41551     41553     41552     41554
     41556     41555     41557     41559     41558     41560     41562     41561     41563
     41565     41564     41566     41568     41567     41569     41571     41570     41572
     41574     41573     41575     41577     41576     41578     41580     41579     41581
     41583     41582     41584     41586     41585     41587     41589     41588     41590
     41592     41591     41593     41595     41594     41596     41598     41597     41599
     41601     41600     41602     41604     41603     41605     41607     41606     41608
     41610     41609     41611     41613     41612     41614     41616     41615     41617
     41619     41618     41620     41622     41621     41623     41625     41624     41626
     41628     41627     41629     41631     41630     41632     41634     41633     41635
     41637     41636     41638     41640     41639     41641     41643     41642     41644
     41646     41645     41647     41649     41648     41650     41652     41651     41653
     41655     41654     41656     41658     41657     41659     41661     41660     41662
     41664     41663     41665     41667     41666     41668     41670     41669     41671
     41673     41672     41674     41676     41675     41677     41679     41678     41680
     41682     41681     41683     41685     41684     41686     41688     41687     41689
     41691     41690     41692     41694     41693     41695     41697     41696     41698
     41700     41699     41701     41703     41702     41704     41706     41705     41707
     41709     41708     41710     41712     41711     41713     41715     41714     41716
     41718     41717     41719     41721     41720     41722     41724     41723     41725
     41727     41726     41728     41730     41729     41731     41733     41732     41734
     41736     41735     41737     41739     41738     41740     41742     41741     41743
     41745     41744     41746     41748     41747     41749     41751     41750     41752
     41754     41753     41755     41757     41756     41758     41760     41759     41761
     41763     41762     41764     41766     41765     41767     41769     41768     41770
     41772     41771     41773     41775     41774     41776     41778     41777     41779
     41781     41780     41782     41784     41783     41785     41787     41786     41788
     41790     41789     41791     41793     41792     41794     41796     41795     41797
     41799     41798     41800     41802     41801     41803     41805     41804     41806
     41808     41807     41809     41811     41810     41812     41814     41813     41815
     41817     41816     41818     41820     41819     41821     41823     41822     41824
     41826     41825     41827     41829     41828     41830     41832     41831     41833
     41835     41834     41836     41838     41837     41839     41841     41840     41842
     41844     41843     41845     41847     41846     41848     41850     41849     41851
     41853     41852     41854     41856     41855     41857     41859     41858     41860
     41862     41861     41863     41865     41864     41866     41868     41867     41869
     41871     41870     41872     41874     41873     41875     41877     41876     41878
     41880     41879     41881     41883     41882     41884     41886     41885     41887
     41889     41888     41890     41892     41891     41893     41895     41894     41896
     41898     41897     41899     41901     41900     41902     41904     41903     41905
     41907     41906     41908     41910     41909     41911     41913     41912     41914
     41916     41915     41917     41919     41918     41920     41922     41921     41923
     41925     41924     41926     41928     41927     41929     41931     41930     41932
     41934     41933     41935     41937     41936     41938     41940     41939     41941
     41943     41942     41944     41946     41945     41947     41949     41948     41950
     41952     41951     41953     41955     41954     41956     41958     41957     41959
     41961     41960     41962     41964     41963     41965     41967     41966     41968
     41970     41969     41971     41973     41972     41974     41976     41975     41977
     41979     41978     41980     41982     41981     41983     41985     41984     41986
     41988     41987     41989     41991     41990     41992     41994     41993     41995
     41997     41996     41998     42000     41999     42001     42003     42002     42004
     42006     42005     42007     42009     42008     42010     42012     42011     42013
     42015     42014     42016     42018     42017     42019     42021     42020     42022
     42024     42023     42025     42027     42026     42028     42030     42029     42031
     42033     42032     42034     42036     42035     42037     42039     42038     42040
     42042     42041     42043     42045     42044     42046     42048     42047     42049
     42051     42050     42052     42054     42053     42055     42057     42056     42058
     42060     42059     42061     42063     42062     42064     42066     42065     42067
     42069     42068     42070     42072     42071     42073     42075     42074     42076
     42078     42077     42079     42081     42080     42082     42084     42083     42085
     42087     42086     42088     42090     42089     42091     42093     42092     42094
     42096     42095     42097     42099     42098     42100     42102     42101     42103
     42105     42104     42106     42108     42107     42109     42111     42110     42112
     42114     42113     42115     42117     42116     42118     42120     42119     42121
     42123     42122     42124     42126     42125     42127     42129     42128     42130
     42132     42131     42133     42135     42134     42136     42138     42137     42139
     42141     42140     42142     42144     42143     42145     42147     42146     42148
     42150     42149     42151     42153     42152     42154     42156     42155     42157
     42159     42158     42160     42162     42161     42163     42165     42164     42166
     42168     42167     42169     42171     42170     42172     42174     42173     42175
     42177     42176     42178     42180     42179     42181     42183     42182     42184
     42186     42185     42187     42189     42188     42190     42192     42191     42193
     42195     42194     42196     42198     42197     42199     42201     42200     42202
     42204     42203     42205     42207     42206     42208     42210     42209     42211
     42213     42212     42214     42216     42215     42217     42219     42218     42220
     42222     42221     42223     42225     42224     42226     42228     42227     42229
     42231     42230     42232     42234     42233     42235     42237     42236     42238
     42240     42239     42241     42243     42242     42244     42246     42245     42247
     42249     42248     42250     42252     42251     42253     42255     42254     42256
     42258     42257     42259     42261     42260     42262     42264     42263     42265
     42267     42266     42268     42270     42269     42271     42273     42272     42274
     42276     42275     42277     42279     42278     42280     42282     42281     42283
     42285     42284     42286     42288     42287     42289     42291     42290     42292
     42294     42293     42295     42297     42296     42298     42300     42299     42301
     42303     42302     42304     42306     42305     42307     42309     42308     42310
     42312     42311     42313     42315     42314     42316     42318     42317     42319
     42321     42320     42322     42324     42323     42325     42327     42326     42328
     42330     42329     42331     42333     42332     42334     42336     42335     42337
     42339     42338     42340     42342     42341     42343     42345     42344     42346
     42348     42347     42349     42351     42350     42352     42354     42353     42355
     42357     42356     42358     42360     42359     42361     42363     42362     42364
     42366     42365     42367     42369     42368     42370     42372     42371     42373
     42375     42374     42376     42378     42377     42379     42381     42380     42382
     42384     42383     42385     42387     42386     42388     42390     42389     42391
     42393     42392     42394     42396     42395     42397     42399     42398     42400
     42402     42401     42403     42405     42404     42406     42408     42407     42409
     42411     42410     42412     42414     42413     42415     42417     42416     42418
     42420     42419     42421     42423     42422     42424     42426     42425     42427
     42429     42428     42430     42432     42431     42433     42435     42434     42436
     42438     42437     42439     42441     42440     42442     42444     42443     42445
     42447     42446     42448     42450     42449     42451     42453     42452     42454
     42456     42455     42457     42459     42458     42460     42462     42461     42463
     42465     42464     42466     42468     42467     42469     42471     42470     42472
     42474     42473     42475     42477     42476     42478     42480     42479     42481
     42483     42482     42484     42486     42485     42487     42489     42488     42490
     42492     42491     42493     42495     42494     42496     42498     42497     42499
     42501     42500     42502     42504     42503     42505     42507     42506     42508
     42510     42509     42511     42513     42512     42514     42516     42515     42517
     42519     42518     42520     42522     42521     42523     42525     42524     42526
     42528     42527     42529     42531     42530     42532     42534     42533     42535
     42537     42536     42538     42540     42539     42541     42543     42542     42544
     42546     42545     42547     42549     42548     42550     42552     42551     42553
     42555     42554     42556     42558     42557     42559     42561     42560     42562
     42564     42563     42565     42567     42566     42568     42570     42569     42571
     42573     42572     42574     42576     42575     42577     42579     42578     42580
     42582     42581     42583     42585     42584     42586     42588     42587     42589
     42591     42590     42592     42594     42593     42595     42597     42596     42598
     42600     42599     42601     42603     42602     42604     42606     42605     42607
     42609     42608     42610     42612     42611     42613     42615     42614     42616
     42618     42617     42619     42621     42620     42622     42624     42623     42625
     42627     42626     42628     42630     42629     42631     42633     42632     42634
     42636     42635     42637     42639     42638     42640     42642     42641     42643
     42645     42644     42646     42648     42647     42649     42651     42650     42652
     42654     42653     42655     42657     42656     42658     42660     42659     42661
     42663     42662     42664     42666     42665     42667     42669     42668     42670
     42672     42671     42673     42675     42674     42676     42678     42677     42679
     42681     42680     42682     42684     42683     42685     42687     42686     42688
     42690     42689     42691     42693     42692     42694     42696     42695     42697
     42699     42698     42700     42702     42701     42703     42705     42704     42706
     42708     42707     42709     42711     42710     42712     42714     42713     42715
     42717     42716     42718     42720     42719     42721     42723     42722     42724
     42726     42725     42727     42729     42728     42730     42732     42731     42733
     42735     42734     42736     42738     42737     42739     42741     42740     42742
     42744     42743     42745     42747     42746     42748     42750     42749     42751
     42753     42752     42754     42756     42755     42757     42759     42758     42760
     42762     42761     42763     42765     42764     42766     42768     42767     42769
     42771     42770     42772     42774     42773     42775     42777     42776     42778
     42780     42779     42781     42783     42782     42784     42786     42785     42787
     42789     42788     42790     42792     42791     42793     42795     42794     42796
     42798     42797     42799     42801     42800     42802     42804     42803     42805
     42807     42806     42808     42810     42809     42811     42813     42812     42814
     42816     42815     42817     42819     42818     42820     42822     42821     42823
     42825     42824     42826     42828     42827     42829     42831     42830     42832
     42834     42833     42835     42837     42836     42838     42840     42839     42841
     42843     42842     42844     42846     42845     42847     42849     42848     42850
     42852     42851     42853     42855     42854     42856     42858     42857     42859
     42861     42860     42862     42864     42863     42865     42867     42866     42868
     42870     42869     42871     42873     42872     42874     42876     42875     42877
     42879     42878     42880     42882     42881     42883     42885     42884     42886
     42888     42887     42889     42891     42890     42892     42894     42893     42895
     42897     42896     42898     42900     42899     42901     42903     42902     42904
     42906     42905     42907     42909     42908     42910     42912     42911     42913
     42915     42914     42916     42918     42917     42919     42921     42920     42922
     42924     42923     42925     42927     42926     42928     42930     42929     42931
     42933     42932     42934     42936     42935     42937     42939     42938     42940
     42942     42941     42943     42945     42944     42946     42948     42947     42949
     42951     42950     42952     42954     42953     42955     42957     42956     42958
     42960     42959     42961     42963     42962     42964     42966     42965     42967
     42969     42968     42970     42972     42971     42973     42975     42974     42976
     42978     42977     42979     42981     42980     42982     42984     42983     42985
     42987     42986     42988     42990     42989     42991     42993     42992     42994
     42996     42995     42997     42999     42998     43000     43002     43001     43003
     43005     43004     43006     43008     43007     43009     43011     43010     43012
     43014     43013     43015     43017     43016     43018     43020     43019     43021
     43023     43022     43024     43026     43025     43027     43029     43028     43030
     43032     43031     43033     43035     43034     43036     43038     43037     43039
     43041     43040     43042     43044     43043     43045     43047     43046     43048
     43050     43049     43051     43053     43052     43054     43056     43055     43057
     43059     43058     43060     43062     43061     43063     43065     43064     43066
     43068     43067     43069     43071     43070     43072     43074     43073     43075
     43077     43076     43078     43080     43079     43081     43083     43082     43084
     43086     43085     43087     43089     43088     43090     43092     43091     43093
     43095     43094     43096     43098     43097     43099     43101     43100     43102
     43104     43103     43105     43107     43106     43108     43110     43109     43111
     43113     43112     43114     43116     43115     43117     43119     43118     43120
     43122     43121     43123     43125     43124     43126     43128     43127     43129
     43131     43130     43132     43134     43133     43135     43137     43136     43138
     43140     43139     43141     43143     43142     43144     43146     43145     43147
     43149     43148     43150     43152     43151     43153     43155     43154     43156
     43158     43157     43159     43161     43160     43162     43164     43163     43165
     43167     43166     43168     43170     43169     43171     43173     43172     43174
     43176     43175     43177     43179     43178     43180     43182     43181     43183
     43185     43184     43186     43188     43187     43189     43191     43190     43192
     43194     43193     43195     43197     43196     43198     43200     43199     43201
     43203     43202     43204     43206     43205     43207     43209     43208     43210
     43212     43211     43213     43215     43214     43216     43218     43217     43219
     43221     43220     43222     43224     43223     43225     43227     43226     43228
     43230     43229     43231     43233     43232     43234     43236     43235     43237
     43239     43238     43240     43242     43241     43243     43245     43244     43246
     43248     43247     43249     43251     43250     43252     43254     43253     43255
     43257     43256     43258     43260     43259     43261     43263     43262     43264
     43266     43265     43267     43269     43268     43270     43272     43271     43273
     43275     43274     43276     43278     43277     43279     43281     43280     43282
     43284     43283     43285     43287     43286     43288     43290     43289     43291
     43293     43292     43294     43296     43295     43297     43299     43298     43300
     43302     43301     43303     43305     43304     43306     43308     43307     43309
     43311     43310     43312     43314     43313     43315     43317     43316     43318
     43320     43319     43321     43323     43322     43324     43326     43325     43327
     43329     43328     43330     43332     43331     43333     43335     43334     43336
     43338     43337     43339     43341     43340     43342     43344     43343     43345
     43347     43346     43348     43350     43349     43351     43353     43352     43354
     43356     43355     43357     43359     43358     43360     43362     43361     43363
     43365     43364     43366     43368     43367     43369     43371     43370     43372
     43374     43373     43375     43377     43376     43378     43380     43379     43381
     43383     43382     43384     43386     43385     43387     43389     43388     43390
     43392     43391     43393     43395     43394     43396     43398     43397     43399
     43401     43400     43402     43404     43403     43405     43407     43406     43408
     43410     43409     43411     43413     43412     43414     43416     43415     43417
     43419     43418     43420     43422     43421     43423     43425     43424     43426
     43428     43427     43429     43431     43430     43432     43434     43433     43435
     43437     43436     43438     43440     43439     43441     43443     43442     43444
     43446     43445     43447     43449     43448     43450     43452     43451     43453
     43455     43454     43456     43458     43457     43459     43461     43460     43462
     43464     43463     43465     43467     43466     43468     43470     43469     43471
     43473     43472     43474     43476     43475     43477     43479     43478     43480
     43482     43481     43483     43485     43484     43486     43488     43487     43489
     43491     43490     43492     43494     43493     43495     43497     43496     43498
     43500     43499     43501     43503     43502     43504     43506     43505     43507
     43509     43508     43510     43512     43511     43513     43515     43514     43516
     43518     43517     43519     43521     43520     43522     43524     43523     43525
     43527     43526     43528     43530     43529     43531     43533     43532     43534
     43536     43535     43537     43539     43538     43540     43542     43541     43543
     43545     43544     43546     43548     43547     43549     43551     43550     43552
     43554     43553     43555     43557     43556     43558     43560     43559     43561
     43563     43562     43564     43566     43565     43567     43569     43568     43570
     43572     43571     43573     43575     43574     43576     43578     43577     43579
     43581     43580     43582     43584     43583     43585     43587     43586     43588
     43590     43589     43591     43593     43592     43594     43596     43595     43597
     43599     43598     43600     43602     43601     43603     43605     43604     43606
     43608     43607     43609     43611     43610     43612     43614     43613     43615
     43617     43616     43618     43620     43619     43621     43623     43622     43624
     43626     43625     43627     43629     43628     43630     43632     43631     43633
     43635     43634     43636     43638     43637     43639     43641     43640     43642
     43644     43643     43645     43647     43646     43648     43650     43649     43651
     43653     43652     43654     43656     43655     43657     43659     43658     43660
     43662     43661     43663     43665     43664     43666     43668     43667     43669
     43671     43670     43672     43674     43673     43675     43677     43676     43678
     43680     43679     43681     43683     43682     43684     43686     43685     43687
     43689     43688     43690     43692     43691     43693     43695     43694     43696
     43698     43697     43699     43701     43700     43702     43704     43703     43705
     43707     43706     43708     43710     43709     43711     43713     43712     43714
     43716     43715     43717     43719     43718     43720     43722     43721     43723
     43725     43724     43726     43728     43727     43729     43731     43730     43732
     43734     43733     43735     43737     43736     43738     43740     43739     43741
     43743     43742     43744     43746     43745     43747     43749     43748     43750
     43752     43751     43753     43755     43754     43756     43758     43757     43759
     43761     43760     43762     43764     43763     43765     43767     43766     43768
     43770     43769     43771     43773     43772     43774     43776     43775     43777
     43779     43778     43780     43782     43781     43783     43785     43784     43786
     43788     43787     43789     43791     43790     43792     43794     43793     43795
     43797     43796     43798     43800     43799     43801     43803     43802     43804
     43806     43805     43807     43809     43808     43810     43812     43811     43813
     43815     43814     43816     43818     43817     43819     43821     43820     43822
     43824     43823     43825     43827     43826     43828     43830     43829     43831
     43833     43832     43834     43836     43835     43837     43839     43838     43840
     43842     43841     43843     43845     43844     43846     43848     43847     43849
     43851     43850     43852     43854     43853     43855     43857     43856     43858
     43860     43859     43861     43863     43862     43864     43866     43865     43867
     43869     43868     43870     43872     43871     43873     43875     43874     43876
     43878     43877     43879     43881     43880     43882     43884     43883     43885
     43887     43886     43888     43890     43889     43891     43893     43892     43894
     43896     43895     43897     43899     43898     43900     43902     43901     43903
     43905     43904     43906     43908     43907     43909     43911     43910     43912
     43914     43913     43915     43917     43916     43918     43920     43919     43921
     43923     43922     43924     43926     43925     43927     43929     43928     43930
     43932     43931     43933     43935     43934     43936     43938     43937     43939
     43941     43940     43942     43944     43943     43945     43947     43946     43948
     43950     43949     43951     43953     43952     43954     43956     43955     43957
     43959     43958     43960     43962     43961     43963     43965     43964     43966
     43968     43967     43969     43971     43970     43972     43974     43973     43975
     43977     43976     43978     43980     43979     43981     43983     43982     43984
     43986     43985     43987     43989     43988     43990     43992     43991     43993
     43995     43994     43996     43998     43997     43999     44001     44000     44002
     44004     44003     44005     44007     44006     44008     44010     44009     44011
     44013     44012     44014     44016     44015     44017     44019     44018     44020
     44022     44021     44023     44025     44024     44026     44028     44027     44029
     44031     44030     44032     44034     44033     44035     44037     44036     44038
     44040     44039     44041     44043     44042     44044     44046     44045     44047
     44049     44048     44050     44052     44051     44053     44055     44054     44056
     44058     44057     44059     44061     44060     44062     44064     44063     44065
     44067     44066     44068     44070     44069     44071     44073     44072     44074
     44076     44075     44077     44079     44078     44080     44082     44081     44083
     44085     44084     44086     44088     44087     44089     44091     44090     44092
     44094     44093     44095     44097     44096     44098     44100     44099     44101
     44103     44102     44104     44106     44105     44107     44109     44108     44110
     44112     44111     44113     44115     44114     44116     44118     44117     44119
     44121     44120     44122     44124     44123     44125     44127     44126     44128
     44130     44129     44131     44133     44132     44134     44136     44135     44137
     44139     44138     44140     44142     44141     44143     44145     44144     44146
     44148     44147     44149     44151     44150     44152     44154     44153     44155
     44157     44156     44158     44160     44159     44161     44163     44162     44164
     44166     44165     44167     44169     44168     44170     44172     44171     44173
     44175     44174     44176     44178     44177     44179     44181     44180     44182
     44184     44183     44185     44187     44186     44188     44190     44189     44191
     44193     44192     44194     44196     44195     44197     44199     44198     44200
     44202     44201     44203     44205     44204     44206     44208     44207     44209
     44211     44210     44212     44214     44213     44215     44217     44216     44218
     44220     44219     44221     44223     44222     44224     44226     44225     44227
     44229     44228     44230     44232     44231     44233     44235     44234     44236
     44238     44237     44239     44241     44240     44242     44244     44243     44245
     44247     44246     44248     44250     44249     44251     44253     44252     44254
     44256     44255     44257     44259     44258     44260     44262     44261     44263
     44265     44264     44266     44268     44267     44269     44271     44270     44272
     44274     44273     44275     44277     44276     44278     44280     44279     44281
     44283     44282     44284     44286     44285     44287     44289     44288     44290
     44292     44291     44293     44295     44294     44296     44298     44297     44299
     44301     44300     44302     44304     44303     44305     44307     44306     44308
     44310     44309     44311     44313     44312     44314     44316     44315     44317
     44319     44318     44320     44322     44321     44323     44325     44324     44326
     44328     44327     44329     44331     44330     44332     44334     44333     44335
     44337     44336     44338     44340     44339     44341     44343     44342     44344
     44346     44345     44347     44349     44348     44350     44352     44351     44353
     44355     44354     44356     44358     44357     44359     44361     44360     44362
     44364     44363     44365     44367     44366     44368     44370     44369     44371
     44373     44372     44374     44376     44375     44377     44379     44378     44380
     44382     44381     44383     44385     44384     44386     44388     44387     44389
     44391     44390     44392     44394     44393     44395     44397     44396     44398
     44400     44399     44401     44403     44402     44404     44406     44405     44407
     44409     44408     44410     44412     44411     44413     44415     44414     44416
     44418     44417     44419     44421     44420     44422     44424     44423     44425
     44427     44426     44428     44430     44429     44431     44433     44432     44434
     44436     44435     44437     44439     44438     44440     44442     44441     44443
     44445     44444     44446     44448     44447     44449     44451     44450     44452
     44454     44453     44455     44457     44456     44458     44460     44459     44461
     44463     44462     44464     44466     44465     44467     44469     44468     44470
     44472     44471     44473     44475     44474     44476     44478     44477     44479
     44481     44480     44482     44484     44483     44485     44487     44486     44488
     44490     44489     44491     44493     44492     44494     44496     44495     44497
     44499     44498     44500     44502     44501     44503     44505     44504     44506
     44508     44507     44509     44511     44510     44512     44514     44513     44515
     44517     44516     44518     44520     44519     44521     44523     44522     44524
     44526     44525     44527     44529     44528     44530     44532     44531     44533
     44535     44534     44536     44538     44537     44539     44541     44540     44542
     44544     44543     44545     44547     44546     44548     44550     44549     44551
     44553     44552     44554     44556     44555     44557     44559     44558     44560
     44562     44561     44563     44565     44564     44566     44568     44567     44569
     44571     44570     44572     44574     44573     44575     44577     44576     44578
     44580     44579     44581     44583     44582     44584     44586     44585     44587
     44589     44588     44590     44592     44591     44593     44595     44594     44596
     44598     44597     44599     44601     44600     44602     44604     44603     44605
     44607     44606     44608     44610     44609     44611     44613     44612     44614
     44616     44615     44617     44619     44618     44620     44622     44621     44623
     44625     44624     44626     44628     44627     44629     44631     44630     44632
     44634     44633     44635     44637     44636     44638     44640     44639     44641
     44643     44642     44644     44646     44645     44647     44649     44648     44650
     44652     44651     44653     44655     44654     44656     44658     44657     44659
     44661     44660     44662     44664     44663     44665     44667     44666     44668
     44670     44669     44671     44673     44672     44674     44676     44675     44677
     44679     44678     44680     44682     44681     44683     44685     44684     44686
     44688     44687     44689     44691     44690     44692     44694     44693     44695
     44697     44696     44698     44700     44699     44701     44703     44702     44704
     44706     44705     44707     44709     44708     44710     44712     44711     44713
     44715     44714     44716     44718     44717     44719     44721     44720     44722
     44724     44723     44725     44727     44726     44728     44730     44729     44731
     44733     44732     44734     44736     44735     44737     44739     44738     44740
     44742     44741     44743     44745     44744     44746     44748     44747     44749
     44751     44750     44752     44754     44753     44755     44757     44756     44758
     44760     44759     44761     44763     44762     44764     44766     44765     44767
     44769     44768     44770     44772     44771     44773     44775     44774     44776
     44778     44777     44779     44781     44780     44782     44784     44783     44785
     44787     44786     44788     44790     44789     44791     44793     44792     44794
     44796     44795     44797     44799     44798     44800     44802     44801     44803
     44805     44804     44806     44808     44807     44809     44811     44810     44812
     44814     44813     44815     44817     44816     44818     44820     44819     44821
     44823     44822     44824     44826     44825     44827     44829     44828     44830
     44832     44831     44833     44835     44834     44836     44838     44837     44839
     44841     44840     44842     44844     44843     44845     44847     44846     44848
     44850     44849     44851     44853     44852     44854     44856     44855     44857
     44859     44858     44860     44862     44861     44863     44865     44864     44866
     44868     44867     44869     44871     44870     44872     44874     44873     44875
     44877     44876     44878     44880     44879     44881     44883     44882     44884
     44886     44885     44887     44889     44888     44890     44892     44891     44893
     44895     44894     44896     44898     44897     44899     44901     44900     44902
     44904     44903     44905     44907     44906     44908     44910     44909     44911
     44913     44912     44914     44916     44915     44917     44919     44918     44920
     44922     44921     44923     44925     44924     44926     44928     44927     44929
     44931     44930     44932     44934     44933     44935     44937     44936     44938
     44940     44939     44941     44943     44942     44944     44946     44945     44947
     44949     44948     44950     44952     44951     44953     44955     44954     44956
     44958     44957     44959     44961     44960     44962     44964     44963     44965
     44967     44966     44968     44970     44969     44971     44973     44972     44974
     44976     44975     44977     44979     44978     44980     44982     44981     44983
     44985     44984     44986     44988     44987     44989     44991     44990     44992
     44994     44993     44995     44997     44996     44998     45000     44999     45001
     45003     45002     45004     45006     45005     45007     45009     45008     45010
     45012     45011     45013     45015     45014     45016     45018     45017     45019
     45021     45020     45022     45024     45023     45025     45027     45026     45028
     45030     45029     45031     45033     45032     45034     45036     45035     45037
     45039     45038     45040     45042     45041     45043     45045     45044     45046
     45048     45047     45049     45051     45050     45052     45054     45053     45055
     45057     45056     45058     45060     45059     45061     45063     45062     45064
     45066     45065     45067     45069     45068     45070     45072     45071     45073
     45075     45074     45076     45078     45077     45079     45081     45080     45082
     45084     45083     45085     45087     45086     45088     45090     45089     45091
     45093     45092     45094     45096     45095     45097     45099     45098     45100
     45102     45101     45103     45105     45104     45106     45108     45107     45109
     45111     45110     45112     45114     45113     45115     45117     45116     45118
     45120     45119     45121     45123     45122     45124     45126     45125     45127
     45129     45128     45130     45132     45131     45133     45135     45134     45136
     45138     45137     45139     45141     45140     45142     45144     45143     45145
     45147     45146     45148     45150     45149     45151     45153     45152     45154
     45156     45155     45157     45159     45158     45160     45162     45161     45163
     45165     45164     45166     45168     45167     45169     45171     45170     45172
     45174     45173     45175     45177     45176     45178     45180     45179     45181
     45183     45182     45184     45186     45185     45187     45189     45188     45190
     45192     45191     45193     45195     45194     45196     45198     45197     45199
     45201     45200     45202     45204     45203     45205     45207     45206     45208
     45210     45209     45211     45213     45212     45214     45216     45215     45217
     45219     45218     45220     45222     45221     45223     45225     45224     45226
     45228     45227     45229     45231     45230     45232     45234     45233     45235
     45237     45236     45238     45240     45239     45241     45243     45242     45244
     45246     45245     45247     45249     45248     45250     45252     45251     45253
     45255     45254     45256     45258     45257     45259     45261     45260     45262
     45264     45263     45265     45267     45266     45268     45270     45269     45271
     45273     45272     45274     45276     45275     45277     45279     45278     45280
     45282     45281     45283     45285     45284     45286     45288     45287     45289
     45291     45290     45292     45294     45293     45295     45297     45296     45298
     45300     45299     45301     45303     45302     45304     45306     45305     45307
     45309     45308     45310     45312     45311     45313     45315     45314     45316
     45318     45317     45319     45321     45320     45322     45324     45323     45325
     45327     45326     45328     45330     45329     45331     45333     45332     45334
     45336     45335     45337     45339     45338     45340     45342     45341     45343
     45345     45344     45346     45348     45347     45349     45351     45350     45352
     45354     45353     45355     45357     45356     45358     45360     45359     45361
     45363     45362     45364     45366     45365     45367     45369     45368     45370
     45372     45371     45373     45375     45374     45376     45378     45377     45379
     45381     45380     45382     45384     45383     45385     45387     45386     45388
     45390     45389     45391     45393     45392     45394     45396     45395     45397
     45399     45398     45400     45402     45401     45403     45405     45404     45406
     45408     45407     45409     45411     45410     45412     45414     45413     45415
     45417     45416     45418     45420     45419     45421     45423     45422     45424
     45426     45425     45427     45429     45428     45430     45432     45431     45433
     45435     45434     45436     45438     45437     45439     45441     45440     45442
     45444     45443     45445     45447     45446     45448     45450     45449     45451
     45453     45452     45454     45456     45455     45457     45459     45458     45460
     45462     45461     45463     45465     45464     45466     45468     45467     45469
     45471     45470     45472     45474     45473     45475     45477     45476     45478
     45480     45479     45481     45483     45482     45484     45486     45485     45487
     45489     45488     45490     45492     45491     45493     45495     45494     45496
     45498     45497     45499     45501     45500     45502     45504     45503     45505
     45507     45506     45508     45510     45509     45511     45513     45512     45514
     45516     45515     45517     45519     45518     45520     45522     45521     45523
     45525     45524     45526     45528     45527     45529     45531     45530     45532
     45534     45533     45535     45537     45536     45538     45540     45539     45541
     45543     45542     45544     45546     45545     45547     45549     45548     45550
     45552     45551     45553     45555     45554     45556     45558     45557     45559
     45561     45560     45562     45564     45563     45565     45567     45566     45568
     45570     45569     45571     45573     45572     45574     45576     45575     45577
     45579     45578     45580     45582     45581     45583     45585     45584     45586
     45588     45587     45589     45591     45590     45592     45594     45593     45595
     45597     45596     45598     45600     45599     45601     45603     45602     45604
     45606     45605     45607     45609     45608     45610     45612     45611     45613
     45615     45614     45616     45618     45617     45619     45621     45620     45622
     45624     45623     45625     45627     45626     45628     45630     45629     45631
     45633     45632     45634     45636     45635     45637     45639     45638     45640
     45642     45641     45643     45645     45644     45646     45648     45647     45649
     45651     45650     45652     45654     45653     45655     45657     45656     45658
     45660     45659     45661     45663     45662     45664     45666     45665     45667
     45669     45668     45670     45672     45671     45673     45675     45674     45676
     45678     45677     45679     45681     45680     45682     45684     45683     45685
     45687     45686     45688     45690     45689     45691     45693     45692     45694
     45696     45695     45697     45699     45698     45700     45702     45701     45703
     45705     45704     45706     45708     45707     45709     45711     45710     45712
     45714     45713     45715     45717     45716     45718     45720     45719     45721
     45723     45722     45724     45726     45725     45727     45729     45728     45730
     45732     45731     45733     45735     45734     45736     45738     45737     45739
     45741     45740     45742     45744     45743     45745     45747     45746     45748
     45750     45749     45751     45753     45752     45754     45756     45755     45757
     45759     45758     45760     45762     45761     45763     45765     45764     45766
     45768     45767     45769     45771     45770     45772     45774     45773     45775
     45777     45776     45778     45780     45779     45781     45783     45782     45784
     45786     45785     45787     45789     45788     45790     45792     45791     45793
     45795     45794     45796     45798     45797     45799     45801     45800     45802
     45804     45803     45805     45807     45806     45808     45810     45809     45811
     45813     45812     45814     45816     45815     45817     45819     45818     45820
     45822     45821     45823     45825     45824     45826     45828     45827     45829
     45831     45830     45832     45834     45833     45835     45837     45836     45838
     45840     45839     45841     45843     45842     45844     45846     45845     45847
     45849     45848     45850     45852     45851     45853     45855     45854     45856
     45858     45857     45859     45861     45860     45862     45864     45863     45865
     45867     45866     45868     45870     45869     45871     45873     45872     45874
     45876     45875     45877     45879     45878     45880     45882     45881     45883
     45885     45884     45886     45888     45887     45889     45891     45890     45892
     45894     45893     45895     45897     45896     45898     45900     45899     45901
     45903     45902     45904     45906     45905     45907     45909     45908     45910
     45912     45911     45913     45915     45914     45916     45918     45917     45919
     45921     45920     45922     45924     45923     45925     45927     45926     45928
     45930     45929     45931     45933     45932     45934     45936     45935     45937
     45939     45938     45940     45942     45941     45943     45945     45944     45946
     45948     45947     45949     45951     45950     45952     45954     45953     45955
     45957     45956     45958     45960     45959     45961     45963     45962     45964
     45966     45965     45967     45969     45968     45970     45972     45971     45973
     45975     45974     45976     45978     45977     45979     45981     45980     45982
     45984     45983     45985     45987     45986     45988     45990     45989     45991
     45993     45992     45994     45996     45995     45997     45999     45998     46000
     46002     46001     46003     46005     46004     46006     46008     46007     46009
     46011     46010     46012     46014     46013     46015     46017     46016     46018
     46020     46019     46021     46023     46022     46024     46026     46025     46027
     46029     46028     46030     46032     46031     46033     46035     46034     46036
     46038     46037     46039     46041     46040     46042     46044     46043     46045
     46047     46046     46048     46050     46049     46051     46053     46052     46054
     46056     46055     46057     46059     46058     46060     46062     46061     46063
     46065     46064     46066     46068     46067     46069     46071     46070     46072
     46074     46073     46075     46077     46076     46078     46080     46079     46081
     46083     46082     46084     46086     46085     46087     46089     46088     46090
     46092     46091     46093     46095     46094     46096     46098     46097     46099
     46101     46100     46102     46104     46103     46105     46107     46106     46108
     46110     46109     46111     46113     46112     46114     46116     46115     46117
     46119     46118     46120     46122     46121     46123     46125     46124     46126
     46128     46127     46129     46131     46130     46132     46134     46133     46135
     46137     46136     46138     46140     46139     46141     46143     46142     46144
     46146     46145     46147     46149     46148     46150     46152     46151     46153
     46155     46154     46156     46158     46157     46159     46161     46160     46162
     46164     46163     46165     46167     46166     46168     46170     46169     46171
     46173     46172     46174     46176     46175     46177     46179     46178     46180
     46182     46181     46183     46185     46184     46186     46188     46187     46189
     46191     46190     46192     46194     46193     46195     46197     46196     46198
     46200     46199     46201     46203     46202     46204     46206     46205     46207
     46209     46208     46210     46212     46211     46213     46215     46214     46216
     46218     46217     46219     46221     46220     46222     46224     46223     46225
     46227     46226     46228     46230     46229     46231     46233     46232     46234
     46236     46235     46237     46239     46238     46240     46242     46241     46243
     46245     46244     46246     46248     46247     46249     46251     46250     46252
     46254     46253     46255     46257     46256     46258     46260     46259     46261
     46263     46262     46264     46266     46265     46267     46269     46268     46270
     46272     46271     46273     46275     46274     46276     46278     46277     46279
     46281     46280     46282     46284     46283     46285     46287     46286     46288
     46290     46289     46291     46293     46292     46294     46296     46295     46297
     46299     46298     46300     46302     46301     46303     46305     46304     46306
     46308     46307     46309     46311     46310     46312     46314     46313     46315
     46317     46316     46318     46320     46319     46321     46323     46322     46324
     46326     46325     46327     46329     46328     46330     46332     46331     46333
     46335     46334     46336     46338     46337     46339     46341     46340     46342
     46344     46343     46345     46347     46346     46348     46350     46349     46351
     46353     46352     46354     46356     46355     46357     46359     46358     46360
     46362     46361     46363     46365     46364     46366     46368     46367     46369
     46371     46370     46372     46374     46373     46375     46377     46376     46378
     46380     46379     46381     46383     46382     46384     46386     46385     46387
     46389     46388     46390     46392     46391     46393     46395     46394     46396
     46398     46397     46399     46401     46400     46402     46404     46403     46405
     46407     46406     46408     46410     46409     46411     46413     46412     46414
     46416     46415     46417     46419     46418     46420     46422     46421     46423
     46425     46424     46426     46428     46427     46429     46431     46430     46432
     46434     46433     46435     46437     46436     46438     46440     46439     46441
     46443     46442     46444     46446     46445     46447     46449     46448     46450
     46452     46451     46453     46455     46454     46456     46458     46457     46459
     46461     46460     46462     46464     46463     46465     46467     46466     46468
     46470     46469     46471     46473     46472     46474     46476     46475     46477
     46479     46478     46480     46482     46481     46483     46485     46484     46486
     46488     46487     46489     46491     46490     46492     46494     46493     46495
     46497     46496     46498     46500     46499     46501     46503     46502     46504
     46506     46505     46507     46509     46508     46510     46512     46511     46513
     46515     46514     46516     46518     46517     46519     46521     46520     46522
     46524     46523     46525     46527     46526     46528     46530     46529     46531
     46533     46532     46534     46536     46535     46537     46539     46538     46540
     46542     46541     46543     46545     46544     46546     46548     46547     46549
     46551     46550     46552     46554     46553     46555     46557     46556     46558
     46560     46559     46561     46563     46562     46564     46566     46565     46567
     46569     46568     46570     46572     46571     46573     46575     46574     46576
     46578     46577     46579     46581     46580     46582     46584     46583     46585
     46587     46586     46588     46590     46589     46591     46593     46592     46594
     46596     46595     46597     46599     46598     46600     46602     46601     46603
     46605     46604     46606     46608     46607     46609     46611     46610     46612
     46614     46613     46615     46617     46616     46618     46620     46619     46621
     46623     46622     46624     46626     46625     46627     46629     46628     46630
     46632     46631     46633     46635     46634     46636     46638     46637     46639
     46641     46640     46642     46644     46643     46645     46647     46646     46648
     46650     46649     46651     46653     46652     46654     46656     46655     46657
     46659     46658     46660     46662     46661     46663     46665     46664     46666
     46668     46667     46669     46671     46670     46672     46674     46673     46675
     46677     46676     46678     46680     46679     46681     46683     46682     46684
     46686     46685     46687     46689     46688     46690     46692     46691     46693
     46695     46694     46696     46698     46697     46699     46701     46700     46702
     46704     46703     46705     46707     46706     46708     46710     46709     46711
     46713     46712     46714     46716     46715     46717     46719     46718     46720
     46722     46721     46723     46725     46724     46726     46728     46727     46729
     46731     46730     46732     46734     46733     46735     46737     46736     46738
     46740     46739     46741     46743     46742     46744     46746     46745     46747
     46749     46748     46750     46752     46751     46753     46755     46754     46756
     46758     46757     46759     46761     46760     46762     46764     46763     46765
     46767     46766     46768     46770     46769     46771     46773     46772     46774
     46776     46775     46777     46779     46778     46780     46782     46781     46783
     46785     46784     46786     46788     46787     46789     46791     46790     46792
     46794     46793     46795     46797     46796     46798     46800     46799     46801
     46803     46802     46804     46806     46805     46807     46809     46808     46810
     46812     46811     46813     46815     46814     46816     46818     46817     46819
     46821     46820     46822     46824     46823     46825     46827     46826     46828
     46830     46829     46831     46833     46832     46834     46836     46835     46837
     46839     46838     46840     46842     46841     46843     46845     46844     46846
     46848     46847     46849     46851     46850     46852     46854     46853     46855
     46857     46856     46858     46860     46859     46861     46863     46862     46864
     46866     46865     46867     46869     46868     46870     46872     46871     46873
     46875     46874     46876     46878     46877     46879     46881     46880     46882
     46884     46883     46885     46887     46886     46888     46890     46889     46891
     46893     46892     46894     46896     46895     46897     46899     46898     46900
     46902     46901     46903     46905     46904     46906     46908     46907     46909
     46911     46910     46912     46914     46913     46915     46917     46916     46918
     46920     46919     46921     46923     46922     46924     46926     46925     46927
     46929     46928     46930     46932     46931     46933     46935     46934     46936
     46938     46937     46939     46941     46940     46942     46944     46943     46945
     46947     46946     46948     46950     46949     46951     46953     46952     46954
     46956     46955     46957     46959     46958     46960     46962     46961     46963
     46965     46964     46966     46968     46967     46969     46971     46970     46972
     46974     46973     46975     46977     46976     46978     46980     46979     46981
     46983     46982     46984     46986     46985     46987     46989     46988     46990
     46992     46991     46993     46995     46994     46996     46998     46997     46999
     47001     47000     47002     47004     47003     47005     47007     47006     47008
     47010     47009     47011     47013     47012     47014     47016     47015     47017
     47019     47018     47020     47022     47021     47023     47025     47024     47026
     47028     47027     47029     47031     47030     47032     47034     47033     47035
     47037     47036     47038     47040     47039     47041     47043     47042     47044
     47046     47045     47047     47049     47048     47050     47052     47051     47053
     47055     47054     47056     47058     47057     47059     47061     47060     47062
     47064     47063     47065     47067     47066     47068     47070     47069     47071
     47073     47072     47074     47076     47075     47077     47079     47078     47080
     47082     47081     47083     47085     47084     47086     47088     47087     47089
     47091     47090     47092     47094     47093     47095     47097     47096     47098
     47100     47099     47101     47103     47102     47104     47106     47105     47107
     47109     47108     47110     47112     47111     47113     47115     47114     47116
     47118     47117     47119     47121     47120     47122     47124     47123     47125
     47127     47126     47128     47130     47129     47131     47133     47132     47134
     47136     47135     47137     47139     47138     47140     47142     47141     47143
     47145     47144     47146     47148     47147     47149     47151     47150     47152
     47154     47153     47155     47157     47156     47158     47160     47159     47161
     47163     47162     47164     47166     47165     47167     47169     47168     47170
     47172     47171     47173     47175     47174     47176     47178     47177     47179
     47181     47180     47182     47184     47183     47185     47187     47186     47188
     47190     47189     47191     47193     47192     47194     47196     47195     47197
     47199     47198     47200     47202     47201     47203     47205     47204     47206
     47208     47207     47209     47211     47210     47212     47214     47213     47215
     47217     47216     47218     47220     47219     47221     47223     47222     47224
     47226     47225     47227     47229     47228     47230     47232     47231     47233
     47235     47234     47236     47238     47237     47239     47241     47240     47242
     47244     47243     47245     47247     47246     47248     47250     47249     47251
     47253     47252     47254     47256     47255     47257     47259     47258     47260
     47262     47261     47263     47265     47264     47266     47268     47267     47269
     47271     47270     47272     47274     47273     47275     47277     47276     47278
     47280     47279     47281     47283     47282     47284     47286     47285     47287
     47289     47288     47290     47292     47291     47293     47295     47294     47296
     47298     47297     47299     47301     47300     47302     47304     47303     47305
     47307     47306     47308     47310     47309     47311     47313     47312     47314
     47316     47315     47317     47319     47318     47320     47322     47321     47323
     47325     47324     47326     47328     47327     47329     47331     47330     47332
     47334     47333     47335     47337     47336     47338     47340     47339     47341
     47343     47342     47344     47346     47345     47347     47349     47348     47350
     47352     47351     47353     47355     47354     47356     47358     47357     47359
     47361     47360     47362     47364     47363     47365     47367     47366     47368
     47370     47369     47371     47373     47372     47374     47376     47375     47377
     47379     47378     47380     47382     47381     47383     47385     47384     47386
     47388     47387     47389     47391     47390     47392     47394     47393     47395
     47397     47396     47398     47400     47399     47401     47403     47402     47404
     47406     47405     47407     47409     47408     47410     47412     47411     47413
     47415     47414     47416     47418     47417     47419     47421     47420     47422
     47424     47423     47425     47427     47426     47428     47430     47429     47431
     47433     47432     47434     47436     47435     47437     47439     47438     47440
     47442     47441     47443     47445     47444     47446     47448     47447     47449
     47451     47450     47452     47454     47453     47455     47457     47456     47458
     47460     47459     47461     47463     47462     47464     47466     47465     47467
     47469     47468     47470     47472     47471     47473     47475     47474     47476
     47478     47477     47479     47481     47480     47482     47484     47483     47485
     47487     47486     47488     47490     47489     47491     47493     47492     47494
     47496     47495     47497     47499     47498     47500     47502     47501     47503
     47505     47504     47506     47508     47507     47509     47511     47510     47512
     47514     47513     47515     47517     47516     47518     47520     47519     47521
     47523     47522     47524     47526     47525     47527     47529     47528     47530
     47532     47531     47533     47535     47534     47536     47538     47537     47539
     47541     47540     47542     47544     47543     47545     47547     47546     47548
     47550     47549     47551     47553     47552     47554     47556     47555     47557
     47559     47558     47560     47562     47561     47563     47565     47564     47566
     47568     47567     47569     47571     47570     47572     47574     47573     47575
     47577     47576     47578     47580     47579     47581     47583     47582     47584
     47586     47585     47587     47589     47588     47590     47592     47591     47593
     47595     47594     47596     47598     47597     47599     47601     47600     47602
     47604     47603     47605     47607     47606     47608     47610     47609     47611
     47613     47612     47614     47616     47615     47617     47619     47618     47620
     47622     47621     47623     47625     47624     47626     47628     47627     47629
     47631     47630     47632     47634     47633     47635     47637     47636     47638
     47640     47639     47641     47643     47642     47644     47646     47645     47647
     47649     47648     47650     47652     47651     47653     47655     47654     47656
     47658     47657     47659     47661     47660     47662     47664     47663     47665
     47667     47666     47668     47670     47669     47671     47673     47672     47674
     47676     47675     47677     47679     47678     47680     47682     47681     47683
     47685     47684     47686     47688     47687     47689     47691     47690     47692
     47694     47693     47695     47697     47696     47698     47700     47699     47701
     47703     47702     47704     47706     47705     47707     47709     47708     47710
     47712     47711     47713     47715     47714     47716     47718     47717     47719
     47721     47720     47722     47724     47723     47725     47727     47726     47728
     47730     47729     47731     47733     47732     47734     47736     47735     47737
     47739     47738     47740     47742     47741     47743     47745     47744     47746
     47748     47747     47749     47751     47750     47752     47754     47753     47755
     47757     47756     47758     47760     47759     47761     47763     47762     47764
     47766     47765     47767     47769     47768     47770     47772     47771     47773
     47775     47774     47776     47778     47777     47779     47781     47780     47782
     47784     47783     47785     47787     47786     47788     47790     47789     47791
     47793     47792     47794     47796     47795     47797     47799     47798     47800
     47802     47801     47803     47805     47804     47806     47808     47807     47809
     47811     47810     47812     47814     47813     47815     47817     47816     47818
     47820     47819     47821     47823     47822     47824     47826     47825     47827
     47829     47828     47830     47832     47831     47833     47835     47834     47836
     47838     47837     47839     47841     47840     47842     47844     47843     47845
     47847     47846     47848     47850     47849     47851     47853     47852     47854
     47856     47855     47857     47859     47858     47860     47862     47861     47863
     47865     47864     47866     47868     47867     47869     47871     47870     47872
     47874     47873     47875     47877     47876     47878     47880     47879     47881
     47883     47882     47884     47886     47885     47887     47889     47888     47890
     47892     47891     47893     47895     47894     47896     47898     47897     47899
     47901     47900     47902     47904     47903     47905     47907     47906     47908
     47910     47909     47911     47913     47912     47914     47916     47915     47917
     47919     47918     47920     47922     47921     47923     47925     47924     47926
     47928     47927     47929     47931     47930     47932     47934     47933     47935
     47937     47936     47938     47940     47939     47941     47943     47942     47944
     47946     47945     47947     47949     47948     47950     47952     47951     47953
     47955     47954     47956     47958     47957     47959     47961     47960     47962
     47964     47963     47965     47967     47966     47968     47970     47969     47971
     47973     47972     47974     47976     47975     47977     47979     47978     47980
     47982     47981     47983     47985     47984     47986     47988     47987     47989
     47991     47990     47992     47994     47993     47995     47997     47996     47998
     48000     47999     48001     48003     48002     48004     48006     48005     48007
     48009     48008     48010     48012     48011     48013     48015     48014     48016
     48018     48017     48019     48021     48020     48022     48024     48023     48025
     48027     48026     48028     48030     48029     48031     48033     48032     48034
     48036     48035     48037     48039     48038     48040     48042     48041     48043
     48045     48044     48046     48048     48047     48049     48051     48050     48052
     48054     48053     48055     48057     48056     48058     48060     48059     48061
     48063     48062     48064     48066     48065     48067     48069     48068     48070
     48072     48071     48073     48075     48074     48076     48078     48077     48079
     48081     48080     48082     48084     48083     48085     48087     48086     48088
     48090     48089     48091     48093     48092     48094     48096     48095     48097
     48099     48098     48100     48102     48101     48103     48105     48104     48106
     48108     48107     48109     48111     48110     48112     48114     48113     48115
     48117     48116     48118     48120     48119     48121     48123     48122     48124
     48126     48125     48127     48129     48128     48130     48132     48131     48133
     48135     48134     48136     48138     48137     48139     48141     48140     48142
     48144     48143     48145     48147     48146     48148     48150     48149     48151
     48153     48152     48154     48156     48155     48157     48159     48158     48160
     48162     48161     48163     48165     48164     48166     48168     48167     48169
     48171     48170     48172     48174     48173     48175     48177     48176     48178
     48180     48179     48181     48183     48182     48184     48186     48185     48187
     48189     48188     48190     48192     48191     48193     48195     48194     48196
     48198     48197     48199     48201     48200     48202     48204     48203     48205
     48207     48206     48208     48210     48209     48211     48213     48212     48214
     48216     48215     48217     48219     48218     48220     48222     48221     48223
     48225     48224     48226     48228     48227     48229     48231     48230     48232
     48234     48233     48235     48237     48236     48238     48240     48239     48241
     48243     48242     48244     48246     48245     48247     48249     48248     48250
     48252     48251     48253     48255     48254     48256     48258     48257     48259
     48261     48260     48262     48264     48263     48265     48267     48266     48268
     48270     48269     48271     48273     48272     48274     48276     48275     48277
     48279     48278     48280     48282     48281     48283     48285     48284     48286
     48288     48287     48289     48291     48290     48292     48294     48293     48295
     48297     48296     48298     48300     48299     48301     48303     48302     48304
     48306     48305     48307     48309     48308     48310     48312     48311     48313
     48315     48314     48316     48318     48317     48319     48321     48320     48322
     48324     48323     48325     48327     48326     48328     48330     48329     48331
     48333     48332     48334     48336     48335     48337     48339     48338     48340
     48342     48341     48343     48345     48344     48346     48348     48347     48349
     48351     48350     48352     48354     48353     48355     48357     48356     48358
     48360     48359     48361     48363     48362     48364     48366     48365     48367
     48369     48368     48370     48372     48371     48373     48375     48374     48376
     48378     48377     48379     48381     48380     48382     48384     48383     48385
     48387     48386     48388     48390     48389     48391     48393     48392     48394
     48396     48395     48397     48399     48398     48400     48402     48401     48403
     48405     48404     48406     48408     48407     48409     48411     48410     48412
     48414     48413     48415     48417     48416     48418     48420     48419     48421
     48423     48422     48424     48426     48425     48427     48429     48428     48430
     48432     48431     48433     48435     48434     48436     48438     48437     48439
     48441     48440     48442     48444     48443     48445     48447     48446     48448
     48450     48449     48451     48453     48452     48454     48456     48455     48457
     48459     48458     48460     48462     48461     48463     48465     48464     48466
     48468     48467     48469     48471     48470     48472     48474     48473     48475
     48477     48476     48478     48480     48479     48481     48483     48482     48484
     48486     48485     48487     48489     48488     48490     48492     48491     48493
     48495     48494     48496     48498     48497     48499     48501     48500     48502
     48504     48503     48505     48507     48506     48508     48510     48509     48511
     48513     48512     48514     48516     48515     48517     48519     48518     48520
     48522     48521     48523     48525     48524     48526     48528     48527     48529
     48531     48530     48532     48534     48533     48535     48537     48536     48538
     48540     48539     48541     48543     48542     48544     48546     48545     48547
     48549     48548     48550     48552     48551     48553     48555     48554     48556
     48558     48557     48559     48561     48560     48562     48564     48563     48565
     48567     48566     48568     48570     48569     48571     48573     48572     48574
     48576     48575     48577     48579     48578     48580     48582     48581     48583
     48585     48584     48586     48588     48587     48589     48591     48590     48592
     48594     48593     48595     48597     48596     48598     48600     48599     48601
     48603     48602     48604     48606     48605     48607     48609     48608     48610
     48612     48611     48613     48615     48614     48616     48618     48617     48619
     48621     48620     48622     48624     48623     48625     48627     48626     48628
     48630     48629     48631     48633     48632     48634     48636     48635     48637
     48639     48638     48640     48642     48641     48643     48645     48644     48646
     48648     48647     48649     48651     48650     48652     48654     48653     48655
     48657     48656     48658     48660     48659     48661     48663     48662     48664
     48666     48665     48667     48669     48668     48670     48672     48671     48673
     48675     48674     48676     48678     48677     48679     48681     48680     48682
     48684     48683     48685     48687     48686     48688     48690     48689     48691
     48693     48692     48694     48696     48695     48697     48699     48698     48700
     48702     48701     48703     48705     48704     48706     48708     48707     48709
     48711     48710     48712     48714     48713     48715     48717     48716     48718
     48720     48719     48721     48723     48722     48724     48726     48725     48727
     48729     48728     48730     48732     48731     48733     48735     48734     48736
     48738     48737     48739     48741     48740     48742     48744     48743     48745
     48747     48746     48748     48750     48749     48751     48753     48752     48754
     48756     48755     48757     48759     48758     48760     48762     48761     48763
     48765     48764     48766     48768     48767     48769     48771     48770     48772
     48774     48773     48775     48777     48776     48778     48780     48779     48781
     48783     48782     48784     48786     48785     48787     48789     48788     48790
     48792     48791     48793     48795     48794     48796     48798     48797     48799
     48801     48800     48802     48804     48803     48805     48807     48806     48808
     48810     48809     48811     48813     48812     48814     48816     48815     48817
     48819     48818     48820     48822     48821     48823     48825     48824     48826
     48828     48827     48829     48831     48830     48832     48834     48833     48835
     48837     48836     48838     48840     48839     48841     48843     48842     48844
     48846     48845     48847     48849     48848     48850     48852     48851     48853
     48855     48854     48856     48858     48857     48859     48861     48860     48862
     48864     48863     48865     48867     48866     48868     48870     48869     48871
     48873     48872     48874     48876     48875     48877     48879     48878     48880
     48882     48881     48883     48885     48884     48886     48888     48887     48889
     48891     48890     48892     48894     48893     48895     48897     48896     48898
     48900     48899     48901     48903     48902     48904     48906     48905     48907
     48909     48908     48910     48912     48911     48913     48915     48914     48916
     48918     48917     48919     48921     48920     48922     48924     48923     48925
     48927     48926     48928     48930     48929     48931     48933     48932     48934
     48936     48935     48937     48939     48938     48940     48942     48941     48943
     48945     48944     48946     48948     48947     48949     48951     48950     48952
     48954     48953     48955     48957     48956     48958     48960     48959     48961
     48963     48962     48964     48966     48965     48967     48969     48968     48970
     48972     48971     48973     48975     48974     48976     48978     48977     48979
     48981     48980     48982     48984     48983     48985     48987     48986     48988
     48990     48989     48991     48993     48992     48994     48996     48995     48997
     48999     48998     49000     49002     49001     49003     49005     49004     49006
     49008     49007     49009     49011     49010     49012     49014     49013     49015
     49017     49016     49018     49020     49019     49021     49023     49022     49024
     49026     49025     49027     49029     49028     49030     49032     49031     49033
     49035     49034     49036     49038     49037     49039     49041     49040     49042
     49044     49043     49045     49047     49046     49048     49050     49049     49051
     49053     49052     49054     49056     49055     49057     49059     49058     49060
     49062     49061     49063     49065     49064     49066     49068     49067     49069
     49071     49070     49072     49074     49073     49075     49077     49076     49078
     49080     49079     49081     49083     49082     49084     49086     49085     49087
     49089     49088     49090     49092     49091     49093     49095     49094     49096
     49098     49097     49099     49101     49100     49102     49104     49103     49105
     49107     49106     49108     49110     49109     49111     49113     49112     49114
     49116     49115     49117     49119     49118     49120     49122     49121     49123
     49125     49124     49126     49128     49127     49129     49131     49130     49132
     49134     49133     49135     49137     49136     49138     49140     49139     49141
     49143     49142     49144     49146     49145     49147     49149     49148     49150
     49152     49151     49153     49155     49154     49156     49158     49157     49159
     49161     49160     49162     49164     49163     49165     49167     49166     49168
     49170     49169     49171     49173     49172     49174     49176     49175     49177
     49179     49178     49180     49182     49181     49183     49185     49184     49186
     49188     49187     49189     49191     49190     49192     49194     49193     49195
     49197     49196     49198     49200     49199     49201     49203     49202     49204
     49206     49205     49207     49209     49208     49210     49212     49211     49213
     49215     49214     49216     49218     49217     49219     49221     49220     49222
     49224     49223     49225     49227     49226     49228     49230     49229     49231
     49233     49232     49234     49236     49235     49237     49239     49238     49240
     49242     49241     49243     49245     49244     49246     49248     49247     49249
     49251     49250     49252     49254     49253     49255     49257     49256     49258
     49260     49259     49261     49263     49262     49264     49266     49265     49267
     49269     49268     49270     49272     49271     49273     49275     49274     49276
     49278     49277     49279     49281     49280     49282     49284     49283     49285
     49287     49286     49288     49290     49289     49291     49293     49292     49294
     49296     49295     49297     49299     49298     49300     49302     49301     49303
     49305     49304     49306     49308     49307     49309     49311     49310     49312
     49314     49313     49315     49317     49316     49318     49320     49319     49321
     49323     49322     49324     49326     49325     49327     49329     49328     49330
     49332     49331     49333     49335     49334     49336     49338     49337     49339
     49341     49340     49342     49344     49343     49345     49347     49346     49348
     49350     49349     49351     49353     49352     49354     49356     49355     49357
     49359     49358     49360     49362     49361     49363     49365     49364     49366
     49368     49367     49369     49371     49370     49372     49374     49373     49375
     49377     49376     49378     49380     49379     49381     49383     49382     49384
     49386     49385     49387     49389     49388     49390     49392     49391     49393
     49395     49394     49396     49398     49397     49399     49401     49400     49402
     49404     49403     49405     49407     49406     49408     49410     49409     49411
     49413     49412     49414     49416     49415     49417     49419     49418     49420
     49422     49421     49423     49425     49424     49426     49428     49427     49429
     49431     49430     49432     49434     49433     49435     49437     49436     49438
     49440     49439     49441     49443     49442     49444     49446     49445     49447
     49449     49448     49450     49452     49451     49453     49455     49454     49456
     49458     49457     49459     49461     49460     49462     49464     49463     49465
     49467     49466     49468     49470     49469     49471     49473     49472     49474
     49476     49475     49477     49479     49478     49480     49482     49481     49483
     49485     49484     49486     49488     49487     49489     49491     49490     49492
     49494     49493     49495     49497     49496     49498     49500     49499     49501
     49503     49502     49504     49506     49505     49507     49509     49508     49510
     49512     49511     49513     49515     49514     49516     49518     49517     49519
     49521     49520     49522     49524     49523     49525     49527     49526     49528
     49530     49529     49531     49533     49532     49534     49536     49535     49537
     49539     49538     49540     49542     49541     49543     49545     49544     49546
     49548     49547     49549     49551     49550     49552     49554     49553     49555
     49557     49556     49558     49560     49559     49561     49563     49562     49564
     49566     49565     49567     49569     49568     49570     49572     49571     49573
     49575     49574     49576     49578     49577     49579     49581     49580     49582
     49584     49583     49585     49587     49586     49588     49590     49589     49591
     49593     49592     49594     49596     49595     49597     49599     49598     49600
     49602     49601     49603     49605     49604     49606     49608     49607     49609
     49611     49610     49612     49614     49613     49615     49617     49616     49618
     49620     49619     49621     49623     49622     49624     49626     49625     49627
     49629     49628     49630     49632     49631     49633     49635     49634     49636
     49638     49637     49639     49641     49640     49642     49644     49643     49645
     49647     49646     49648     49650     49649     49651     49653     49652     49654
     49656     49655     49657     49659     49658     49660     49662     49661     49663
     49665     49664     49666     49668     49667     49669     49671     49670     49672
     49674     49673     49675     49677     49676     49678     49680     49679     49681
     49683     49682     49684     49686     49685     49687     49689     49688     49690
     49692     49691     49693     49695     49694     49696     49698     49697     49699
     49701     49700     49702     49704     49703     49705     49707     49706     49708
     49710     49709     49711     49713     49712     49714     49716     49715     49717
     49719     49718     49720     49722     49721     49723     49725     49724     49726
     49728     49727     49729     49731     49730     49732     49734     49733     49735
     49737     49736     49738     49740     49739     49741     49743     49742     49744
     49746     49745     49747     49749     49748     49750     49752     49751     49753
     49755     49754     49756     49758     49757     49759     49761     49760     49762
     49764     49763     49765     49767     49766     49768     49770     49769     49771
     49773     49772     49774     49776     49775     49777     49779     49778     49780
     49782     49781     49783     49785     49784     49786     49788     49787     49789
     49791     49790     49792     49794     49793     49795     49797     49796     49798
     49800     49799     49801     49803     49802     49804     49806     49805     49807
     49809     49808     49810     49812     49811     49813     49815     49814     49816
     49818     49817     49819     49821     49820     49822     49824     49823     49825
     49827     49826     49828     49830     49829     49831     49833     49832     49834
     49836     49835     49837     49839     49838     49840     49842     49841     49843
     49845     49844     49846     49848     49847     49849     49851     49850     49852
     49854     49853     49855     49857     49856     49858     49860     49859     49861
     49863     49862     49864     49866     49865     49867     49869     49868     49870
     49872     49871     49873     49875     49874     49876     49878     49877     49879
     49881     49880     49882     49884     49883     49885     49887     49886     49888
     49890     49889     49891     49893     49892     49894     49896     49895     49897
     49899     49898     49900     49902     49901     49903     49905     49904     49906
     49908     49907     49909     49911     49910     49912     49914     49913     49915
     49917     49916     49918     49920     49919     49921     49923     49922     49924
     49926     49925     49927     49929     49928     49930     49932     49931     49933
     49935     49934     49936     49938     49937     49939     49941     49940     49942
     49944     49943     49945     49947     49946     49948     49950     49949     49951
     49953     49952     49954     49956     49955     49957     49959     49958     49960
     49962     49961     49963     49965     49964     49966     49968     49967     49969
     49971     49970     49972     49974     49973     49975     49977     49976     49978
     49980     49979     49981     49983     49982     49984     49986     49985     49987
     49989     49988     49990     49992     49991     49993     49995     49994     49996
     49998     49997     49999     50001     50000     50002     50004     50003     50005
     50007     50006     50008     50010     50009     50011     50013     50012     50014
     50016     50015     50017     50019     50018     50020     50022     50021     50023
     50025     50024     50026     50028     50027     50029     50031     50030     50032
     50034     50033     50035     50037     50036     50038     50040     50039     50041
     50043     50042     50044     50046     50045     50047     50049     50048     50050
     50052     50051     50053     50055     50054     50056     50058     50057     50059
     50061     50060     50062     50064     50063     50065     50067     50066     50068
     50070     50069     50071     50073     50072     50074     50076     50075     50077
     50079     50078     50080     50082     50081     50083     50085     50084     50086
     50088     50087     50089     50091     50090     50092     50094     50093     50095
     50097     50096     50098     50100     50099     50101     50103     50102     50104
     50106     50105     50107     50109     50108     50110     50112     50111     50113
     50115     50114     50116     50118     50117     50119     50121     50120     50122
     50124     50123     50125     50127     50126     50128     50130     50129     50131
     50133     50132     50134     50136     50135     50137     50139     50138     50140
     50142     50141     50143     50145     50144     50146     50148     50147     50149
     50151     50150     50152     50154     50153     50155     50157     50156     50158
     50160     50159     50161     50163     50162     50164     50166     50165     50167
     50169     50168     50170     50172     50171     50173     50175     50174     50176
     50178     50177     50179     50181     50180     50182     50184     50183     50185
     50187     50186     50188     50190     50189     50191     50193     50192     50194
     50196     50195     50197     50199     50198     50200     50202     50201     50203
     50205     50204     50206     50208     50207     50209     50211     50210     50212
     50214     50213     50215     50217     50216     50218     50220     50219     50221
     50223     50222     50224     50226     50225     50227     50229     50228     50230
     50232     50231     50233     50235     50234     50236     50238     50237     50239
     50241     50240     50242     50244     50243     50245     50247     50246     50248
     50250     50249     50251     50253     50252     50254     50256     50255     50257
     50259     50258     50260     50262     50261     50263     50265     50264     50266
     50268     50267     50269     50271     50270     50272     50274     50273     50275
     50277     50276     50278     50280     50279     50281     50283     50282     50284
     50286     50285     50287     50289     50288     50290     50292     50291     50293
     50295     50294     50296     50298     50297     50299     50301     50300     50302
     50304     50303     50305     50307     50306     50308     50310     50309     50311
     50313     50312     50314     50316     50315     50317     50319     50318     50320
     50322     50321     50323     50325     50324     50326     50328     50327     50329
     50331     50330     50332     50334     50333     50335     50337     50336     50338
     50340     50339     50341     50343     50342     50344     50346     50345     50347
     50349     50348     50350     50352     50351     50353     50355     50354     50356
     50358     50357     50359     50361     50360     50362     50364     50363     50365
     50367     50366     50368     50370     50369     50371     50373     50372     50374
     50376     50375     50377     50379     50378     50380     50382     50381     50383
     50385     50384     50386     50388     50387     50389     50391     50390     50392
     50394     50393     50395     50397     50396     50398     50400     50399     50401
     50403     50402     50404     50406     50405     50407     50409     50408     50410
     50412     50411     50413     50415     50414     50416     50418     50417     50419
     50421     50420     50422     50424     50423     50425     50427     50426     50428
     50430     50429     50431     50433     50432     50434     50436     50435     50437
     50439     50438     50440     50442     50441     50443     50445     50444     50446
     50448     50447     50449     50451     50450     50452     50454     50453     50455
     50457     50456     50458     50460     50459     50461     50463     50462     50464
     50466     50465     50467     50469     50468     50470     50472     50471     50473
     50475     50474     50476     50478     50477     50479     50481     50480     50482
     50484     50483     50485     50487     50486     50488     50490     50489     50491
     50493     50492     50494     50496     50495     50497     50499     50498     50500
     50502     50501     50503     50505     50504     50506     50508     50507     50509
     50511     50510     50512     50514     50513     50515     50517     50516     50518
     50520     50519     50521     50523     50522     50524     50526     50525     50527
     50529     50528     50530     50532     50531     50533     50535     50534     50536
     50538     50537     50539     50541     50540     50542     50544     50543     50545
     50547     50546     50548     50550     50549     50551     50553     50552     50554
     50556     50555     50557     50559     50558     50560     50562     50561     50563
     50565     50564     50566     50568     50567     50569     50571     50570     50572
     50574     50573     50575     50577     50576     50578     50580     50579     50581
     50583     50582     50584     50586     50585     50587     50589     50588     50590
     50592     50591     50593     50595     50594     50596     50598     50597     50599
     50601     50600     50602     50604     50603     50605     50607     50606     50608
     50610     50609     50611     50613     50612     50614     50616     50615     50617
     50619     50618     50620     50622     50621     50623     50625     50624     50626
     50628     50627     50629     50631     50630     50632     50634     50633     50635
     50637     50636     50638     50640     50639     50641     50643     50642     50644
     50646     50645     50647     50649     50648     50650     50652     50651     50653
     50655     50654     50656     50658     50657     50659     50661     50660     50662
     50664     50663     50665     50667     50666     50668     50670     50669     50671
     50673     50672     50674     50676     50675     50677     50679     50678     50680
     50682     50681     50683     50685     50684     50686     50688     50687     50689
     50691     50690     50692     50694     50693     50695     50697     50696     50698
     50700     50699     50701     50703     50702     50704     50706     50705     50707
     50709     50708     50710     50712     50711     50713     50715     50714     50716
     50718     50717     50719     50721     50720     50722     50724     50723     50725
     50727     50726     50728     50730     50729     50731     50733     50732     50734
     50736     50735     50737     50739     50738     50740     50742     50741     50743
     50745     50744     50746     50748     50747     50749     50751     50750     50752
     50754     50753     50755     50757     50756     50758     50760     50759     50761
     50763     50762     50764     50766     50765     50767     50769     50768     50770
     50772     50771     50773     50775     50774     50776     50778     50777     50779
     50781     50780     50782     50784     50783     50785     50787     50786     50788
     50790     50789     50791     50793     50792     50794     50796     50795     50797
     50799     50798     50800     50802     50801     50803     50805     50804     50806
     50808     50807     50809     50811     50810     50812     50814     50813     50815
     50817     50816     50818     50820     50819     50821     50823     50822     50824
     50826     50825     50827     50829     50828     50830     50832     50831     50833
     50835     50834     50836     50838     50837     50839     50841     50840     50842
     50844     50843     50845     50847     50846     50848     50850     50849     50851
     50853     50852     50854     50856     50855     50857     50859     50858     50860
     50862     50861     50863     50865     50864     50866     50868     50867     50869
     50871     50870     50872     50874     50873     50875     50877     50876     50878
     50880     50879     50881     50883     50882     50884     50886     50885     50887
     50889     50888     50890     50892     50891     50893     50895     50894     50896
     50898     50897     50899     50901     50900     50902     50904     50903     50905
     50907     50906     50908     50910     50909     50911     50913     50912     50914
     50916     50915     50917     50919     50918     50920     50922     50921     50923
     50925     50924     50926     50928     50927     50929     50931     50930     50932
     50934     50933     50935     50937     50936     50938     50940     50939     50941
     50943     50942     50944     50946     50945     50947     50949     50948     50950
     50952     50951     50953     50955     50954     50956     50958     50957     50959
     50961     50960     50962     50964     50963     50965     50967     50966     50968
     50970     50969     50971     50973     50972     50974     50976     50975     50977
     50979     50978     50980     50982     50981     50983     50985     50984     50986
     50988     50987     50989     50991     50990     50992     50994     50993     50995
     50997     50996     50998     51000     50999     51001     51003     51002     51004
     51006     51005     51007     51009     51008     51010     51012     51011     51013
     51015     51014     51016     51018     51017     51019     51021     51020     51022
     51024     51023     51025     51027     51026     51028     51030     51029     51031
     51033     51032     51034     51036     51035     51037     51039     51038     51040
     51042     51041     51043     51045     51044     51046     51048     51047     51049
     51051     51050     51052     51054     51053     51055     51057     51056     51058
     51060     51059     51061     51063     51062     51064     51066     51065     51067
     51069     51068     51070     51072     51071     51073     51075     51074     51076
     51078     51077     51079     51081     51080     51082     51084     51083     51085
     51087     51086     51088     51090     51089     51091     51093     51092     51094
     51096     51095     51097     51099     51098     51100     51102     51101     51103
     51105     51104     51106     51108     51107     51109     51111     51110     51112
     51114     51113     51115     51117     51116     51118     51120     51119     51121
     51123     51122     51124     51126     51125     51127     51129     51128     51130
     51132     51131     51133     51135     51134     51136     51138     51137     51139
     51141     51140     51142     51144     51143     51145     51147     51146     51148
     51150     51149     51151     51153     51152     51154     51156     51155     51157
     51159     51158     51160     51162     51161     51163     51165     51164     51166
     51168     51167     51169     51171     51170     51172     51174     51173     51175
     51177     51176     51178     51180     51179     51181     51183     51182     51184
     51186     51185     51187     51189     51188     51190     51192     51191     51193
     51195     51194     51196     51198     51197     51199     51201     51200     51202
     51204     51203     51205     51207     51206     51208     51210     51209     51211
     51213     51212     51214     51216     51215     51217     51219     51218     51220
     51222     51221     51223     51225     51224     51226     51228     51227     51229
     51231     51230     51232     51234     51233     51235     51237     51236     51238
     51240     51239     51241     51243     51242     51244     51246     51245     51247
     51249     51248     51250     51252     51251     51253     51255     51254     51256
     51258     51257     51259     51261     51260     51262     51264     51263     51265
     51267     51266     51268     51270     51269     51271     51273     51272     51274
     51276     51275     51277     51279     51278     51280     51282     51281     51283
     51285     51284     51286     51288     51287     51289     51291     51290     51292
     51294     51293     51295     51297     51296     51298     51300     51299     51301
     51303     51302     51304     51306     51305     51307     51309     51308     51310
     51312     51311     51313     51315     51314     51316     51318     51317     51319
     51321     51320     51322     51324     51323     51325     51327     51326     51328
     51330     51329     51331     51333     51332     51334     51336     51335     51337
     51339     51338     51340     51342     51341     51343     51345     51344     51346
     51348     51347     51349     51351     51350     51352     51354     51353     51355
     51357     51356     51358     51360     51359     51361     51363     51362     51364
     51366     51365     51367     51369     51368     51370     51372     51371     51373
     51375     51374     51376     51378     51377     51379     51381     51380     51382
     51384     51383     51385     51387     51386     51388     51390     51389     51391
     51393     51392     51394     51396     51395     51397     51399     51398     51400
     51402     51401     51403     51405     51404     51406     51408     51407     51409
     51411     51410     51412     51414     51413     51415     51417     51416     51418
     51420     51419     51421     51423     51422     51424     51426     51425     51427
     51429     51428     51430     51432     51431     51433     51435     51434     51436
     51438     51437     51439     51441     51440     51442     51444     51443     51445
     51447     51446     51448     51450     51449     51451     51453     51452     51454
     51456     51455     51457     51459     51458     51460     51462     51461     51463
     51465     51464     51466     51468     51467     51469     51471     51470     51472
     51474     51473     51475     51477     51476     51478     51480     51479     51481
     51483     51482     51484     51486     51485     51487     51489     51488     51490
     51492     51491     51493     51495     51494     51496     51498     51497     51499
     51501     51500     51502     51504     51503     51505     51507     51506     51508
     51510     51509     51511     51513     51512     51514     51516     51515     51517
     51519     51518     51520     51522     51521     51523     51525     51524     51526
     51528     51527     51529     51531     51530     51532     51534     51533     51535
     51537     51536     51538     51540     51539     51541     51543     51542     51544
     51546     51545     51547     51549     51548     51550     51552     51551     51553
     51555     51554     51556     51558     51557     51559     51561     51560     51562
     51564     51563     51565     51567     51566     51568     51570     51569     51571
     51573     51572     51574     51576     51575     51577     51579     51578     51580
     51582     51581     51583     51585     51584     51586     51588     51587     51589
     51591     51590     51592     51594     51593     51595     51597     51596     51598
     51600     51599     51601     51603     51602     51604     51606     51605     51607
     51609     51608     51610     51612     51611     51613     51615     51614     51616
     51618     51617     51619     51621     51620     51622     51624     51623     51625
     51627     51626     51628     51630     51629     51631     51633     51632     51634
     51636     51635     51637     51639     51638     51640     51642     51641     51643
     51645     51644     51646     51648     51647     51649     51651     51650     51652
     51654     51653     51655     51657     51656     51658     51660     51659     51661
     51663     51662     51664     51666     51665     51667     51669     51668     51670
     51672     51671     51673     51675     51674     51676     51678     51677     51679
     51681     51680     51682     51684     51683     51685     51687     51686     51688
     51690     51689     51691     51693     51692     51694     51696     51695     51697
     51699     51698     51700     51702     51701     51703     51705     51704     51706
     51708     51707     51709     51711     51710     51712     51714     51713     51715
     51717     51716     51718     51720     51719     51721     51723     51722     51724
     51726     51725     51727     51729     51728     51730     51732     51731     51733
     51735     51734     51736     51738     51737     51739     51741     51740     51742
     51744     51743     51745     51747     51746     51748     51750     51749     51751
     51753     51752     51754     51756     51755     51757     51759     51758     51760
     51762     51761     51763     51765     51764     51766     51768     51767     51769
     51771     51770     51772     51774     51773     51775     51777     51776     51778
     51780     51779     51781     51783     51782     51784     51786     51785     51787
     51789     51788     51790     51792     51791     51793     51795     51794     51796
     51798     51797     51799     51801     51800     51802     51804     51803     51805
     51807     51806     51808     51810     51809     51811     51813     51812     51814
     51816     51815     51817     51819     51818     51820     51822     51821     51823
     51825     51824     51826     51828     51827     51829     51831     51830     51832
     51834     51833     51835     51837     51836     51838     51840     51839     51841
     51843     51842     51844     51846     51845     51847     51849     51848     51850
     51852     51851     51853     51855     51854     51856     51858     51857     51859
     51861     51860     51862     51864     51863     51865     51867     51866     51868
     51870     51869     51871     51873     51872     51874     51876     51875     51877
     51879     51878     51880     51882     51881     51883     51885     51884     51886
     51888     51887     51889     51891     51890     51892     51894     51893     51895
     51897     51896     51898     51900     51899     51901     51903     51902     51904
     51906     51905     51907     51909     51908     51910     51912     51911     51913
     51915     51914     51916     51918     51917     51919     51921     51920     51922
     51924     51923     51925     51927     51926     51928     51930     51929     51931
     51933     51932     51934     51936     51935     51937     51939     51938     51940
     51942     51941     51943     51945     51944     51946     51948     51947     51949
     51951     51950     51952     51954     51953     51955     51957     51956     51958
     51960     51959     51961     51963     51962     51964     51966     51965     51967
     51969     51968     51970     51972     51971     51973     51975     51974     51976
     51978     51977     51979     51981     51980     51982     51984     51983     51985
     51987     51986     51988     51990     51989     51991     51993     51992     51994
     51996     51995     51997     51999     51998     52000     52002     52001     52003
     52005     52004     52006     52008     52007     52009     52011     52010     52012
     52014     52013     52015     52017     52016     52018     52020     52019     52021
     52023     52022     52024     52026     52025     52027     52029     52028     52030
     52032     52031     52033     52035     52034     52036     52038     52037     52039
     52041     52040     52042     52044     52043     52045     52047     52046     52048
     52050     52049     52051     52053     52052     52054     52056     52055     52057
     52059     52058     52060     52062     52061     52063     52065     52064     52066
     52068     52067     52069     52071     52070     52072     52074     52073     52075
     52077     52076     52078     52080     52079     52081     52083     52082     52084
     52086     52085     52087     52089     52088     52090     52092     52091     52093
     52095     52094     52096     52098     52097     52099     52101     52100     52102
     52104     52103     52105     52107     52106     52108     52110     52109     52111
     52113     52112     52114     52116     52115     52117     52119     52118     52120
     52122     52121     52123     52125     52124     52126     52128     52127     52129
     52131     52130     52132     52134     52133     52135     52137     52136     52138
     52140     52139     52141     52143     52142     52144     52146     52145     52147
     52149     52148     52150     52152     52151     52153     52155     52154     52156
     52158     52157     52159     52161     52160     52162     52164     52163     52165
     52167     52166     52168     52170     52169     52171     52173     52172     52174
     52176     52175     52177     52179     52178     52180     52182     52181     52183
     52185     52184     52186     52188     52187     52189     52191     52190     52192
     52194     52193     52195     52197     52196     52198     52200     52199     52201
     52203     52202     52204     52206     52205     52207     52209     52208     52210
     52212     52211     52213     52215     52214     52216     52218     52217     52219
     52221     52220     52222     52224     52223     52225     52227     52226     52228
     52230     52229     52231     52233     52232     52234     52236     52235     52237
     52239     52238     52240     52242     52241     52243     52245     52244     52246
     52248     52247     52249     52251     52250     52252     52254     52253     52255
     52257     52256     52258     52260     52259     52261     52263     52262     52264
     52266     52265     52267     52269     52268     52270     52272     52271     52273
     52275     52274     52276     52278     52277     52279     52281     52280     52282
     52284     52283     52285     52287     52286     52288     52290     52289     52291
     52293     52292     52294     52296     52295     52297     52299     52298     52300
     52302     52301     52303     52305     52304     52306     52308     52307     52309
     52311     52310     52312     52314     52313     52315     52317     52316     52318
     52320     52319     52321     52323     52322     52324     52326     52325     52327
     52329     52328     52330     52332     52331     52333     52335     52334     52336
     52338     52337     52339     52341     52340     52342     52344     52343     52345
     52347     52346     52348     52350     52349     52351     52353     52352     52354
     52356     52355     52357     52359     52358     52360     52362     52361     52363
     52365     52364     52366     52368     52367     52369     52371     52370     52372
     52374     52373     52375     52377     52376     52378     52380     52379     52381
     52383     52382     52384     52386     52385     52387     52389     52388     52390
     52392     52391     52393     52395     52394     52396     52398     52397     52399
     52401     52400     52402     52404     52403     52405     52407     52406     52408
     52410     52409     52411     52413     52412     52414     52416     52415     52417
     52419     52418     52420     52422     52421     52423     52425     52424     52426
     52428     52427     52429     52431     52430     52432     52434     52433     52435
     52437     52436     52438     52440     52439     52441     52443     52442     52444
     52446     52445     52447     52449     52448     52450     52452     52451     52453
     52455     52454     52456     52458     52457     52459     52461     52460     52462
     52464     52463     52465     52467     52466     52468     52470     52469     52471
     52473     52472     52474     52476     52475     52477     52479     52478     52480
     52482     52481     52483     52485     52484     52486     52488     52487     52489
     52491     52490     52492     52494     52493     52495     52497     52496     52498
     52500     52499     52501     52503     52502     52504     52506     52505     52507
     52509     52508     52510     52512     52511     52513     52515     52514     52516
     52518     52517     52519     52521     52520     52522     52524     52523     52525
     52527     52526     52528     52530     52529     52531     52533     52532     52534
     52536     52535     52537     52539     52538     52540     52542     52541     52543
     52545     52544     52546     52548     52547     52549     52551     52550     52552
     52554     52553     52555     52557     52556     52558     52560     52559     52561
     52563     52562     52564     52566     52565     52567     52569     52568     52570
     52572     52571     52573     52575     52574     52576     52578     52577     52579
     52581     52580     52582     52584     52583     52585     52587     52586     52588
     52590     52589     52591     52593     52592     52594     52596     52595     52597
     52599     52598     52600     52602     52601     52603     52605     52604     52606
     52608     52607     52609     52611     52610     52612     52614     52613     52615
     52617     52616     52618     52620     52619     52621     52623     52622     52624
     52626     52625     52627     52629     52628     52630     52632     52631     52633
     52635     52634     52636     52638     52637     52639     52641     52640     52642
     52644     52643     52645     52647     52646     52648     52650     52649     52651
     52653     52652     52654     52656     52655     52657     52659     52658     52660
     52662     52661     52663     52665     52664     52666     52668     52667     52669
     52671     52670     52672     52674     52673     52675     52677     52676     52678
     52680     52679     52681     52683     52682     52684     52686     52685     52687
     52689     52688     52690     52692     52691     52693     52695     52694     52696
     52698     52697     52699     52701     52700     52702     52704     52703     52705
     52707     52706     52708     52710     52709     52711     52713     52712     52714
     52716     52715     52717     52719     52718     52720     52722     52721     52723
     52725     52724     52726     52728     52727     52729     52731     52730     52732
     52734     52733     52735     52737     52736     52738     52740     52739     52741
     52743     52742     52744     52746     52745     52747     52749     52748     52750
     52752     52751     52753     52755     52754     52756     52758     52757     52759
     52761     52760     52762     52764     52763     52765     52767     52766     52768
     52770     52769     52771     52773     52772     52774     52776     52775     52777
     52779     52778     52780     52782     52781     52783     52785     52784     52786
     52788     52787     52789     52791     52790     52792     52794     52793     52795
     52797     52796     52798     52800     52799     52801     52803     52802     52804
     52806     52805     52807     52809     52808     52810     52812     52811     52813
     52815     52814     52816     52818     52817     52819     52821     52820     52822
     52824     52823     52825     52827     52826     52828     52830     52829     52831
     52833     52832     52834     52836     52835     52837     52839     52838     52840
     52842     52841     52843     52845     52844     52846     52848     52847     52849
     52851     52850     52852     52854     52853     52855     52857     52856     52858
     52860     52859     52861     52863     52862     52864     52866     52865     52867
     52869     52868     52870     52872     52871     52873     52875     52874     52876
     52878     52877     52879     52881     52880     52882     52884     52883     52885
     52887     52886     52888     52890     52889     52891     52893     52892     52894
     52896     52895     52897     52899     52898     52900     52902     52901     52903
     52905     52904     52906     52908     52907     52909     52911     52910     52912
     52914     52913     52915     52917     52916     52918     52920     52919     52921
     52923     52922     52924     52926     52925     52927     52929     52928     52930
     52932     52931     52933     52935     52934     52936     52938     52937     52939
     52941     52940     52942     52944     52943     52945     52947     52946     52948
     52950     52949     52951     52953     52952     52954     52956     52955     52957
     52959     52958     52960     52962     52961     52963     52965     52964     52966
     52968     52967     52969     52971     52970     52972     52974     52973     52975
     52977     52976     52978     52980     52979     52981     52983     52982     52984
     52986     52985     52987     52989     52988     52990     52992     52991     52993
     52995     52994     52996     52998     52997     52999     53001     53000     53002
     53004     53003     53005     53007     53006     53008     53010     53009     53011
     53013     53012     53014     53016     53015     53017     53019     53018     53020
     53022     53021     53023     53025     53024     53026     53028     53027     53029
     53031     53030     53032     53034     53033     53035     53037     53036     53038
     53040     53039     53041     53043     53042     53044     53046     53045     53047
     53049     53048     53050     53052     53051     53053     53055     53054     53056
     53058     53057     53059     53061     53060     53062     53064     53063     53065
     53067     53066     53068     53070     53069     53071     53073     53072     53074
     53076     53075     53077     53079     53078     53080     53082     53081     53083
     53085     53084     53086     53088     53087     53089     53091     53090     53092
     53094     53093     53095     53097     53096     53098     53100     53099     53101
     53103     53102     53104     53106     53105     53107     53109     53108     53110
     53112     53111     53113     53115     53114     53116     53118     53117     53119
     53121     53120     53122     53124     53123     53125     53127     53126     53128
     53130     53129     53131     53133     53132     53134     53136     53135     53137
     53139     53138     53140     53142     53141     53143     53145     53144     53146
     53148     53147     53149     53151     53150     53152     53154     53153     53155
     53157     53156     53158     53160     53159     53161     53163     53162     53164
     53166     53165     53167     53169     53168     53170     53172     53171     53173
     53175     53174     53176     53178     53177     53179     53181     53180     53182
     53184     53183     53185     53187     53186     53188     53190     53189     53191
     53193     53192     53194     53196     53195     53197     53199     53198     53200
     53202     53201     53203     53205     53204     53206     53208     53207     53209
     53211     53210     53212     53214     53213     53215     53217     53216     53218
     53220     53219     53221     53223     53222     53224     53226     53225     53227
     53229     53228     53230     53232     53231     53233     53235     53234     53236
     53238     53237     53239     53241     53240     53242     53244     53243     53245
     53247     53246     53248     53250     53249     53251     53253     53252     53254
     53256     53255     53257     53259     53258     53260     53262     53261     53263
     53265     53264     53266     53268     53267     53269     53271     53270     53272
     53274     53273     53275     53277     53276     53278     53280     53279     53281
     53283     53282     53284     53286     53285     53287     53289     53288     53290
     53292     53291     53293     53295     53294     53296     53298     53297     53299
     53301     53300     53302     53304     53303     53305     53307     53306     53308
     53310     53309     53311     53313     53312     53314     53316     53315     53317
     53319     53318     53320     53322     53321     53323     53325     53324     53326
     53328     53327     53329     53331     53330     53332     53334     53333     53335
     53337     53336     53338     53340     53339     53341     53343     53342     53344
     53346     53345     53347     53349     53348     53350     53352     53351     53353
     53355     53354     53356     53358     53357     53359     53361     53360     53362
     53364     53363     53365     53367     53366     53368     53370     53369     53371
     53373     53372     53374     53376     53375     53377     53379     53378     53380
     53382     53381     53383     53385     53384     53386     53388     53387     53389
     53391     53390     53392     53394     53393     53395     53397     53396     53398
     53400     53399     53401     53403     53402     53404     53406     53405     53407
     53409     53408     53410     53412     53411     53413     53415     53414     53416
     53418     53417     53419     53421     53420     53422     53424     53423     53425
     53427     53426     53428     53430     53429     53431     53433     53432     53434
     53436     53435     53437     53439     53438     53440     53442     53441     53443
     53445     53444     53446     53448     53447     53449     53451     53450     53452
     53454     53453     53455     53457     53456     53458     53460     53459     53461
     53463     53462     53464     53466     53465     53467     53469     53468     53470
     53472     53471     53473     53475     53474     53476     53478     53477     53479
     53481     53480     53482     53484     53483     53485     53487     53486     53488
     53490     53489     53491     53493     53492     53494     53496     53495     53497
     53499     53498     53500     53502     53501     53503     53505     53504     53506
     53508     53507     53509     53511     53510     53512     53514     53513     53515
     53517     53516     53518     53520     53519     53521     53523     53522     53524
     53526     53525     53527     53529     53528     53530     53532     53531     53533
     53535     53534     53536     53538     53537     53539     53541     53540     53542
     53544     53543     53545     53547     53546     53548     53550     53549     53551
     53553     53552     53554     53556     53555     53557     53559     53558     53560
     53562     53561     53563     53565     53564     53566     53568     53567     53569
     53571     53570     53572     53574     53573     53575     53577     53576     53578
     53580     53579     53581     53583     53582     53584     53586     53585     53587
     53589     53588     53590     53592     53591     53593     53595     53594     53596
     53598     53597     53599     53601     53600     53602     53604     53603     53605
     53607     53606     53608     53610     53609     53611     53613     53612     53614
     53616     53615     53617     53619     53618     53620     53622     53621     53623
     53625     53624     53626     53628     53627     53629     53631     53630     53632
     53634     53633     53635     53637     53636     53638     53640     53639     53641
     53643     53642     53644     53646     53645     53647     53649     53648     53650
     53652     53651     53653     53655     53654     53656     53658     53657     53659
     53661     53660     53662     53664     53663     53665     53667     53666     53668
     53670     53669     53671     53673     53672     53674     53676     53675     53677
     53679     53678     53680     53682     53681     53683     53685     53684     53686
     53688     53687     53689     53691     53690     53692     53694     53693     53695
     53697     53696     53698     53700     53699     53701     53703     53702     53704
     53706     53705     53707     53709     53708     53710     53712     53711     53713
     53715     53714     53716     53718     53717     53719     53721     53720     53722
     53724     53723     53725     53727     53726     53728     53730     53729     53731
     53733     53732     53734     53736     53735     53737     53739     53738     53740
     53742     53741     53743     53745     53744     53746     53748     53747     53749
     53751     53750     53752     53754     53753     53755     53757     53756     53758
     53760     53759     53761     53763     53762     53764     53766     53765     53767
     53769     53768     53770     53772     53771     53773     53775     53774     53776
     53778     53777     53779     53781     53780     53782     53784     53783     53785
     53787     53786     53788     53790     53789     53791     53793     53792     53794
     53796     53795     53797     53799     53798     53800     53802     53801     53803
     53805     53804     53806     53808     53807     53809     53811     53810     53812
     53814     53813     53815     53817     53816     53818     53820     53819     53821
     53823     53822     53824     53826     53825     53827     53829     53828     53830
     53832     53831     53833     53835     53834     53836     53838     53837     53839
     53841     53840     53842     53844     53843     53845     53847     53846     53848
     53850     53849     53851     53853     53852     53854     53856     53855     53857
     53859     53858     53860     53862     53861     53863     53865     53864     53866
     53868     53867     53869     53871     53870     53872     53874     53873     53875
     53877     53876     53878     53880     53879     53881     53883     53882     53884
     53886     53885     53887     53889     53888     53890     53892     53891     53893
     53895     53894     53896     53898     53897     53899     53901     53900     53902
     53904     53903     53905     53907     53906     53908     53910     53909     53911
     53913     53912     53914     53916     53915     53917     53919     53918     53920
     53922     53921     53923     53925     53924     53926     53928     53927     53929
     53931     53930     53932     53934     53933     53935     53937     53936     53938
     53940     53939     53941     53943     53942     53944     53946     53945     53947
     53949     53948     53950     53952     53951     53953     53955     53954     53956
     53958     53957     53959     53961     53960     53962     53964     53963     53965
     53967     53966     53968     53970     53969     53971     53973     53972     53974
     53976     53975     53977     53979     53978     53980     53982     53981     53983
     53985     53984     53986     53988     53987     53989     53991     53990     53992
     53994     53993     53995     53997     53996     53998     54000     53999     54001
     54003     54002     54004     54006     54005     54007     54009     54008     54010
     54012     54011     54013     54015     54014     54016     54018     54017     54019
     54021     54020     54022     54024     54023     54025     54027     54026     54028
     54030     54029     54031     54033     54032     54034     54036     54035     54037
     54039     54038     54040     54042     54041     54043     54045     54044     54046
     54048     54047     54049     54051     54050     54052     54054     54053     54055
     54057     54056     54058     54060     54059     54061     54063     54062     54064
     54066     54065     54067     54069     54068     54070     54072     54071     54073
     54075     54074     54076     54078     54077     54079     54081     54080     54082
     54084     54083     54085     54087     54086     54088     54090     54089     54091
     54093     54092     54094     54096     54095     54097     54099     54098     54100
     54102     54101     54103     54105     54104     54106     54108     54107     54109
     54111     54110     54112     54114     54113     54115     54117     54116     54118
     54120     54119     54121     54123     54122     54124     54126     54125     54127
     54129     54128     54130     54132     54131     54133     54135     54134     54136
     54138     54137     54139     54141     54140     54142     54144     54143     54145
     54147     54146     54148     54150     54149     54151     54153     54152     54154
     54156     54155     54157     54159     54158     54160     54162     54161     54163
     54165     54164     54166     54168     54167     54169     54171     54170     54172
     54174     54173     54175     54177     54176     54178     54180     54179     54181
     54183     54182     54184     54186     54185     54187     54189     54188     54190
     54192     54191     54193     54195     54194     54196     54198     54197     54199
     54201     54200     54202     54204     54203     54205     54207     54206     54208
     54210     54209     54211     54213     54212     54214     54216     54215     54217
     54219     54218     54220     54222     54221     54223     54225     54224     54226
     54228     54227     54229     54231     54230     54232     54234     54233     54235
     54237     54236     54238     54240     54239     54241     54243     54242     54244
     54246     54245     54247     54249     54248     54250     54252     54251     54253
     54255     54254     54256     54258     54257     54259     54261     54260     54262
     54264     54263     54265     54267     54266     54268     54270     54269     54271
     54273     54272     54274     54276     54275     54277     54279     54278     54280
     54282     54281     54283     54285     54284     54286     54288     54287     54289
     54291     54290     54292     54294     54293     54295     54297     54296     54298
     54300     54299     54301     54303     54302     54304     54306     54305     54307
     54309     54308     54310     54312     54311     54313     54315     54314     54316
     54318     54317     54319     54321     54320     54322     54324     54323     54325
     54327     54326     54328     54330     54329     54331     54333     54332     54334
     54336     54335     54337     54339     54338     54340     54342     54341     54343
     54345     54344     54346     54348     54347     54349     54351     54350     54352
     54354     54353     54355     54357     54356     54358     54360     54359     54361
     54363     54362     54364     54366     54365     54367     54369     54368     54370
     54372     54371     54373     54375     54374     54376     54378     54377     54379
     54381     54380     54382     54384     54383     54385     54387     54386     54388
     54390     54389     54391     54393     54392     54394     54396     54395     54397
     54399     54398     54400     54402     54401     54403     54405     54404     54406
     54408     54407     54409     54411     54410     54412     54414     54413     54415
     54417     54416     54418     54420     54419     54421     54423     54422     54424
     54426     54425     54427     54429     54428     54430     54432     54431     54433
     54435     54434     54436     54438     54437     54439     54441     54440     54442
     54444     54443     54445     54447     54446     54448     54450     54449     54451
     54453     54452     54454     54456     54455     54457     54459     54458     54460
     54462     54461     54463     54465     54464     54466     54468     54467     54469
     54471     54470     54472     54474     54473     54475     54477     54476     54478
     54480     54479     54481     54483     54482     54484     54486     54485     54487
     54489     54488     54490     54492     54491     54493     54495     54494     54496
     54498     54497     54499     54501     54500     54502     54504     54503     54505
     54507     54506     54508     54510     54509     54511     54513     54512     54514
     54516     54515     54517     54519     54518     54520     54522     54521     54523
     54525     54524     54526     54528     54527     54529     54531     54530     54532
     54534     54533     54535     54537     54536     54538     54540     54539     54541
     54543     54542     54544     54546     54545     54547     54549     54548     54550
     54552     54551     54553     54555     54554     54556     54558     54557     54559
     54561     54560     54562     54564     54563     54565     54567     54566     54568
     54570     54569     54571     54573     54572     54574     54576     54575     54577
     54579     54578     54580     54582     54581     54583     54585     54584     54586
     54588     54587     54589     54591     54590     54592     54594     54593     54595
     54597     54596     54598     54600     54599     54601     54603     54602     54604
     54606     54605     54607     54609     54608     54610     54612     54611     54613
     54615     54614     54616     54618     54617     54619     54621     54620     54622
     54624     54623     54625     54627     54626     54628     54630     54629     54631
     54633     54632     54634     54636     54635     54637     54639     54638     54640
     54642     54641     54643     54645     54644     54646     54648     54647     54649
     54651     54650     54652     54654     54653     54655     54657     54656     54658
     54660     54659     54661     54663     54662     54664     54666     54665     54667
     54669     54668     54670     54672     54671     54673     54675     54674     54676
     54678     54677     54679     54681     54680     54682     54684     54683     54685
     54687     54686     54688     54690     54689     54691     54693     54692     54694
     54696     54695     54697     54699     54698     54700     54702     54701     54703
     54705     54704     54706     54708     54707     54709     54711     54710     54712
     54714     54713     54715     54717     54716     54718     54720     54719     54721
     54723     54722     54724     54726     54725     54727     54729     54728     54730
     54732     54731     54733     54735     54734     54736     54738     54737     54739
     54741     54740     54742     54744     54743     54745     54747     54746     54748
     54750     54749     54751     54753     54752     54754     54756     54755     54757
     54759     54758     54760     54762     54761     54763     54765     54764     54766
     54768     54767     54769     54771     54770     54772     54774     54773     54775
     54777     54776     54778     54780     54779     54781     54783     54782     54784
     54786     54785     54787     54789     54788     54790     54792     54791     54793
     54795     54794     54796     54798     54797     54799     54801     54800     54802
     54804     54803     54805     54807     54806     54808     54810     54809     54811
     54813     54812     54814     54816     54815     54817     54819     54818     54820
     54822     54821     54823     54825     54824     54826     54828     54827     54829
     54831     54830     54832     54834     54833     54835     54837     54836     54838
     54840     54839     54841     54843     54842     54844     54846     54845     54847
     54849     54848     54850     54852     54851     54853     54855     54854     54856
     54858     54857     54859     54861     54860     54862     54864     54863     54865
     54867     54866     54868     54870     54869     54871     54873     54872     54874
     54876     54875     54877     54879     54878     54880     54882     54881     54883
     54885     54884     54886     54888     54887     54889     54891     54890     54892
     54894     54893     54895     54897     54896     54898     54900     54899     54901
     54903     54902     54904     54906     54905     54907     54909     54908     54910
     54912     54911     54913     54915     54914     54916     54918     54917     54919
     54921     54920     54922     54924     54923     54925     54927     54926     54928
     54930     54929     54931     54933     54932     54934     54936     54935     54937
     54939     54938     54940     54942     54941     54943     54945     54944     54946
     54948     54947     54949     54951     54950     54952     54954     54953     54955
     54957     54956     54958     54960     54959     54961     54963     54962     54964
     54966     54965     54967     54969     54968     54970     54972     54971     54973
     54975     54974     54976     54978     54977     54979     54981     54980     54982
     54984     54983     54985     54987     54986     54988     54990     54989     54991
     54993     54992     54994     54996     54995     54997     54999     54998     55000
     55002     55001     55003     55005     55004     55006     55008     55007     55009
     55011     55010     55012     55014     55013     55015     55017     55016     55018
     55020     55019     55021     55023     55022     55024     55026     55025     55027
     55029     55028     55030     55032     55031     55033     55035     55034     55036
     55038     55037     55039     55041     55040     55042     55044     55043     55045
     55047     55046     55048     55050     55049     55051     55053     55052     55054
     55056     55055     55057     55059     55058     55060     55062     55061     55063
     55065     55064     55066     55068     55067     55069     55071     55070     55072
     55074     55073     55075     55077     55076     55078     55080     55079     55081
     55083     55082     55084     55086     55085     55087     55089     55088     55090
     55092     55091     55093     55095     55094     55096     55098     55097     55099
     55101     55100     55102     55104     55103     55105     55107     55106     55108
     55110     55109     55111     55113     55112     55114     55116     55115     55117
     55119     55118     55120     55122     55121     55123     55125     55124     55126
     55128     55127     55129     55131     55130     55132     55134     55133     55135
     55137     55136     55138     55140     55139     55141     55143     55142     55144
     55146     55145     55147     55149     55148     55150     55152     55151     55153
     55155     55154     55156     55158     55157     55159     55161     55160     55162
     55164     55163     55165     55167     55166     55168     55170     55169     55171
     55173     55172     55174     55176     55175     55177     55179     55178     55180
     55182     55181     55183     55185     55184     55186     55188     55187     55189
     55191     55190     55192     55194     55193     55195     55197     55196     55198
     55200     55199     55201     55203     55202     55204     55206     55205     55207
     55209     55208     55210     55212     55211     55213     55215     55214     55216
     55218     55217     55219     55221     55220     55222     55224     55223     55225
     55227     55226     55228     55230     55229     55231     55233     55232     55234
     55236     55235     55237     55239     55238     55240     55242     55241     55243
     55245     55244     55246     55248     55247     55249     55251     55250     55252
     55254     55253     55255     55257     55256     55258     55260     55259     55261
     55263     55262     55264     55266     55265     55267     55269     55268     55270
     55272     55271     55273     55275     55274     55276     55278     55277     55279
     55281     55280     55282     55284     55283     55285     55287     55286     55288
     55290     55289     55291     55293     55292     55294     55296     55295     55297
     55299     55298     55300     55302     55301     55303     55305     55304     55306
     55308     55307     55309     55311     55310     55312     55314     55313     55315
     55317     55316     55318     55320     55319     55321     55323     55322     55324
     55326     55325     55327     55329     55328     55330     55332     55331     55333
     55335     55334     55336     55338     55337     55339     55341     55340     55342
     55344     55343     55345     55347     55346     55348     55350     55349     55351
     55353     55352     55354     55356     55355     55357     55359     55358     55360
     55362     55361     55363     55365     55364     55366     55368     55367     55369
     55371     55370     55372     55374     55373     55375     55377     55376     55378
     55380     55379     55381     55383     55382     55384     55386     55385     55387
     55389     55388     55390     55392     55391     55393     55395     55394     55396
     55398     55397     55399     55401     55400     55402     55404     55403     55405
     55407     55406     55408     55410     55409     55411     55413     55412     55414
     55416     55415     55417     55419     55418     55420     55422     55421     55423
     55425     55424     55426     55428     55427     55429     55431     55430     55432
     55434     55433     55435     55437     55436     55438     55440     55439     55441
     55443     55442     55444     55446     55445     55447     55449     55448     55450
     55452     55451     55453     55455     55454     55456     55458     55457     55459
     55461     55460     55462     55464     55463     55465     55467     55466     55468
     55470     55469     55471     55473     55472     55474     55476     55475     55477
     55479     55478     55480     55482     55481     55483     55485     55484     55486
     55488     55487     55489     55491     55490     55492     55494     55493     55495
     55497     55496     55498     55500     55499     55501     55503     55502     55504
     55506     55505     55507     55509     55508     55510     55512     55511     55513
     55515     55514     55516     55518     55517     55519     55521     55520     55522
     55524     55523     55525     55527     55526     55528     55530     55529     55531
     55533     55532     55534     55536     55535     55537     55539     55538     55540
     55542     55541     55543     55545     55544     55546     55548     55547     55549
     55551     55550     55552     55554     55553     55555     55557     55556     55558
     55560     55559     55561     55563     55562     55564     55566     55565     55567
     55569     55568     55570     55572     55571     55573     55575     55574     55576
     55578     55577     55579     55581     55580     55582     55584     55583     55585
     55587     55586     55588     55590     55589     55591     55593     55592     55594
     55596     55595     55597     55599     55598     55600     55602     55601     55603
     55605     55604     55606     55608     55607     55609     55611     55610     55612
     55614     55613     55615     55617     55616     55618     55620     55619     55621
     55623     55622     55624     55626     55625     55627     55629     55628     55630
     55632     55631     55633     55635     55634     55636     55638     55637     55639
     55641     55640     55642     55644     55643     55645     55647     55646     55648
     55650     55649     55651     55653     55652     55654     55656     55655     55657
     55659     55658     55660     55662     55661     55663     55665     55664     55666
     55668     55667     55669     55671     55670     55672     55674     55673     55675
     55677     55676     55678     55680     55679     55681     55683     55682     55684
     55686     55685     55687     55689     55688     55690     55692     55691     55693
     55695     55694     55696     55698     55697     55699     55701     55700     55702
     55704     55703     55705     55707     55706     55708     55710     55709     55711
     55713     55712     55714     55716     55715     55717     55719     55718     55720
     55722     55721     55723     55725     55724     55726     55728     55727     55729
     55731     55730     55732     55734     55733     55735     55737     55736     55738
     55740     55739     55741     55743     55742     55744     55746     55745     55747
     55749     55748     55750     55752     55751     55753     55755     55754     55756
     55758     55757     55759     55761     55760     55762     55764     55763     55765
     55767     55766     55768     55770     55769     55771     55773     55772     55774
     55776     55775     55777     55779     55778     55780     55782     55781     55783
     55785     55784     55786     55788     55787     55789     55791     55790     55792
     55794     55793     55795     55797     55796     55798     55800     55799     55801
     55803     55802     55804     55806     55805     55807     55809     55808     55810
     55812     55811     55813     55815     55814     55816     55818     55817     55819
     55821     55820     55822     55824     55823     55825     55827     55826     55828
     55830     55829     55831     55833     55832     55834     55836     55835     55837
     55839     55838     55840     55842     55841     55843     55845     55844     55846
     55848     55847     55849     55851     55850     55852     55854     55853     55855
     55857     55856     55858     55860     55859     55861     55863     55862     55864
     55866     55865     55867     55869     55868     55870     55872     55871     55873
     55875     55874     55876     55878     55877     55879     55881     55880     55882
     55884     55883     55885     55887     55886     55888     55890     55889     55891
     55893     55892     55894     55896     55895     55897     55899     55898     55900
     55902     55901     55903     55905     55904     55906     55908     55907     55909
     55911     55910     55912     55914     55913     55915     55917     55916     55918
     55920     55919     55921     55923     55922     55924     55926     55925     55927
     55929     55928     55930     55932     55931     55933     55935     55934     55936
     55938     55937     55939     55941     55940     55942     55944     55943     55945
     55947     55946     55948     55950     55949     55951     55953     55952     55954
     55956     55955     55957     55959     55958     55960     55962     55961     55963
     55965     55964     55966     55968     55967     55969     55971     55970     55972
     55974     55973     55975     55977     55976     55978     55980     55979     55981
     55983     55982     55984     55986     55985     55987     55989     55988     55990
     55992     55991     55993     55995     55994     55996     55998     55997     55999
     56001     56000     56002     56004     56003     56005     56007     56006     56008
     56010     56009     56011     56013     56012     56014     56016     56015     56017
     56019     56018     56020     56022     56021     56023     56025     56024     56026
     56028     56027     56029     56031     56030     56032     56034     56033     56035
     56037     56036     56038     56040     56039     56041     56043     56042     56044
     56046     56045     56047     56049     56048     56050     56052     56051     56053
     56055     56054     56056     56058     56057     56059     56061     56060     56062
     56064     56063     56065     56067     56066     56068     56070     56069     56071
     56073     56072     56074     56076     56075     56077     56079     56078     56080
     56082     56081     56083     56085     56084     56086     56088     56087     56089
     56091     56090     56092     56094     56093     56095     56097     56096     56098
     56100     56099     56101     56103     56102     56104     56106     56105     56107
     56109     56108     56110     56112     56111     56113     56115     56114     56116
     56118     56117     56119     56121     56120     56122     56124     56123     56125
     56127     56126     56128     56130     56129     56131     56133     56132     56134
     56136     56135     56137     56139     56138     56140     56142     56141     56143
     56145     56144     56146     56148     56147     56149     56151     56150     56152
     56154     56153     56155     56157     56156     56158     56160     56159     56161
     56163     56162     56164     56166     56165     56167     56169     56168     56170
     56172     56171     56173     56175     56174     56176     56178     56177     56179
     56181     56180     56182     56184     56183     56185     56187     56186     56188
     56190     56189     56191     56193     56192     56194     56196     56195     56197
     56199     56198     56200     56202     56201     56203     56205     56204     56206
     56208     56207     56209     56211     56210     56212     56214     56213     56215
     56217     56216     56218     56220     56219     56221     56223     56222     56224
     56226     56225     56227     56229     56228     56230     56232     56231     56233
     56235     56234     56236     56238     56237     56239     56241     56240     56242
     56244     56243     56245     56247     56246     56248     56250     56249     56251
     56253     56252     56254     56256     56255     56257     56259     56258     56260
     56262     56261     56263     56265     56264     56266     56268     56267     56269
     56271     56270     56272     56274     56273     56275     56277     56276     56278
     56280     56279     56281     56283     56282     56284     56286     56285     56287
     56289     56288     56290     56292     56291     56293     56295     56294     56296
     56298     56297     56299     56301     56300     56302     56304     56303     56305
     56307     56306     56308     56310     56309     56311     56313     56312     56314
     56316     56315     56317     56319     56318     56320     56322     56321     56323
     56325     56324     56326     56328     56327     56329     56331     56330     56332
     56334     56333     56335     56337     56336     56338     56340     56339     56341
     56343     56342     56344     56346     56345     56347     56349     56348     56350
     56352     56351     56353     56355     56354     56356     56358     56357     56359
     56361     56360     56362     56364     56363     56365     56367     56366     56368
     56370     56369     56371     56373     56372     56374     56376     56375     56377
     56379     56378     56380     56382     56381     56383     56385     56384     56386
     56388     56387     56389     56391     56390     56392     56394     56393     56395
     56397     56396     56398     56400     56399     56401     56403     56402     56404
     56406     56405     56407     56409     56408     56410     56412     56411     56413
     56415     56414     56416     56418     56417     56419     56421     56420     56422
     56424     56423     56425     56427     56426     56428     56430     56429     56431
     56433     56432     56434     56436     56435     56437     56439     56438     56440
     56442     56441     56443     56445     56444     56446     56448     56447     56449
     56451     56450     56452     56454     56453     56455     56457     56456     56458
     56460     56459     56461     56463     56462     56464     56466     56465     56467
     56469     56468     56470     56472     56471     56473     56475     56474     56476
     56478     56477     56479     56481     56480     56482     56484     56483     56485
     56487     56486     56488     56490     56489     56491     56493     56492     56494
     56496     56495     56497     56499     56498     56500     56502     56501     56503
     56505     56504     56506     56508     56507     56509     56511     56510     56512
     56514     56513     56515     56517     56516     56518     56520     56519     56521
     56523     56522     56524     56526     56525     56527     56529     56528     56530
     56532     56531     56533     56535     56534     56536     56538     56537     56539
     56541     56540     56542     56544     56543     56545     56547     56546     56548
     56550     56549     56551     56553     56552     56554     56556     56555     56557
     56559     56558     56560     56562     56561     56563     56565     56564     56566
     56568     56567     56569     56571     56570     56572     56574     56573     56575
     56577     56576     56578     56580     56579     56581     56583     56582     56584
     56586     56585     56587     56589     56588     56590     56592     56591     56593
     56595     56594     56596     56598     56597     56599     56601     56600     56602
     56604     56603     56605     56607     56606     56608     56610     56609     56611
     56613     56612     56614     56616     56615     56617     56619     56618     56620
     56622     56621     56623     56625     56624     56626     56628     56627     56629
     56631     56630     56632     56634     56633     56635     56637     56636     56638
     56640     56639     56641     56643     56642     56644     56646     56645     56647
     56649     56648     56650     56652     56651     56653     56655     56654     56656
     56658     56657     56659     56661     56660     56662     56664     56663     56665
     56667     56666     56668     56670     56669     56671     56673     56672     56674
     56676     56675     56677     56679     56678     56680     56682     56681     56683
     56685     56684     56686     56688     56687     56689     56691     56690     56692
     56694     56693     56695     56697     56696     56698     56700     56699     56701
     56703     56702     56704     56706     56705     56707     56709     56708     56710
     56712     56711     56713     56715     56714     56716     56718     56717     56719
     56721     56720     56722     56724     56723     56725     56727     56726     56728
     56730     56729     56731     56733     56732     56734     56736     56735     56737
     56739     56738     56740     56742     56741     56743     56745     56744     56746
     56748     56747     56749     56751     56750     56752     56754     56753     56755
     56757     56756     56758     56760     56759     56761     56763     56762     56764
     56766     56765     56767     56769     56768     56770     56772     56771     56773
     56775     56774     56776     56778     56777     56779     56781     56780     56782
     56784     56783     56785     56787     56786     56788     56790     56789     56791
     56793     56792     56794     56796     56795     56797     56799     56798     56800
     56802     56801     56803     56805     56804     56806     56808     56807     56809
     56811     56810     56812     56814     56813     56815     56817     56816     56818
     56820     56819     56821     56823     56822     56824     56826     56825     56827
     56829     56828     56830     56832     56831     56833     56835     56834     56836
     56838     56837     56839     56841     56840     56842     56844     56843     56845
     56847     56846     56848     56850     56849     56851     56853     56852     56854
     56856     56855     56857     56859     56858     56860     56862     56861     56863
     56865     56864     56866     56868     56867     56869     56871     56870     56872
     56874     56873     56875     56877     56876     56878     56880     56879     56881
     56883     56882     56884     56886     56885     56887     56889     56888     56890
     56892     56891     56893     56895     56894     56896     56898     56897     56899
     56901     56900     56902     56904     56903     56905     56907     56906     56908
     56910     56909     56911     56913     56912     56914     56916     56915     56917
     56919     56918     56920     56922     56921     56923     56925     56924     56926
     56928     56927     56929     56931     56930     56932     56934     56933     56935
     56937     56936     56938     56940     56939     56941     56943     56942     56944
     56946     56945     56947     56949     56948     56950     56952     56951     56953
     56955     56954     56956     56958     56957     56959     56961     56960     56962
     56964     56963     56965     56967     56966     56968     56970     56969     56971
     56973     56972     56974     56976     56975     56977     56979     56978     56980
     56982     56981     56983     56985     56984     56986     56988     56987     56989
     56991     56990     56992     56994     56993     56995     56997     56996     56998
     57000     56999     57001     57003     57002     57004     57006     57005     57007
     57009     57008     57010     57012     57011     57013     57015     57014     57016
     57018     57017     57019     57021     57020     57022     57024     57023     57025
     57027     57026     57028     57030     57029     57031     57033     57032     57034
     57036     57035     57037     57039     57038     57040     57042     57041     57043
     57045     57044     57046     57048     57047     57049     57051     57050     57052
     57054     57053     57055     57057     57056     57058     57060     57059     57061
     57063     57062     57064     57066     57065     57067     57069     57068     57070
     57072     57071     57073     57075     57074     57076     57078     57077     57079
     57081     57080     57082     57084     57083     57085     57087     57086     57088
     57090     57089     57091     57093     57092     57094     57096     57095     57097
     57099     57098     57100     57102     57101     57103     57105     57104     57106
     57108     57107     57109     57111     57110     57112     57114     57113     57115
     57117     57116     57118     57120     57119     57121     57123     57122     57124
     57126     57125     57127     57129     57128     57130     57132     57131     57133
     57135     57134     57136     57138     57137     57139     57141     57140     57142
     57144     57143     57145     57147     57146     57148     57150     57149     57151
     57153     57152     57154     57156     57155     57157     57159     57158     57160
     57162     57161     57163     57165     57164     57166     57168     57167     57169
     57171     57170     57172     57174     57173     57175     57177     57176     57178
     57180     57179     57181     57183     57182     57184     57186     57185     57187
     57189     57188     57190     57192     57191     57193     57195     57194     57196
     57198     57197     57199     57201     57200     57202     57204     57203     57205
     57207     57206     57208     57210     57209     57211     57213     57212     57214
     57216     57215     57217     57219     57218     57220     57222     57221     57223
     57225     57224     57226     57228     57227     57229     57231     57230     57232
     57234     57233     57235     57237     57236     57238     57240     57239     57241
     57243     57242     57244     57246     57245     57247     57249     57248     57250
     57252     57251     57253     57255     57254     57256     57258     57257     57259
     57261     57260     57262     57264     57263     57265     57267     57266     57268
     57270     57269     57271     57273     57272     57274     57276     57275     57277
     57279     57278     57280     57282     57281     57283     57285     57284     57286
     57288     57287     57289     57291     57290     57292     57294     57293     57295
     57297     57296     57298     57300     57299     57301     57303     57302     57304
     57306     57305     57307     57309     57308     57310     57312     57311     57313
     57315     57314     57316     57318     57317     57319     57321     57320     57322
     57324     57323     57325     57327     57326     57328     57330     57329     57331
     57333     57332     57334     57336     57335     57337     57339     57338     57340
     57342     57341     57343     57345     57344     57346     57348     57347     57349
     57351     57350     57352     57354     57353     57355     57357     57356     57358
     57360     57359     57361     57363     57362     57364     57366     57365     57367
     57369     57368     57370     57372     57371     57373     57375     57374     57376
     57378     57377     57379     57381     57380     57382     57384     57383     57385
     57387     57386     57388     57390     57389     57391     57393     57392     57394
     57396     57395     57397     57399     57398     57400     57402     57401     57403
     57405     57404     57406     57408     57407     57409     57411     57410     57412
     57414     57413     57415     57417     57416     57418     57420     57419     57421
     57423     57422     57424     57426     57425     57427     57429     57428     57430
     57432     57431     57433     57435     57434     57436     57438     57437     57439
     57441     57440     57442     57444     57443     57445     57447     57446     57448
     57450     57449     57451     57453     57452     57454     57456     57455     57457
     57459     57458     57460     57462     57461     57463     57465     57464     57466
     57468     57467     57469     57471     57470     57472     57474     57473     57475
     57477     57476     57478     57480     57479     57481     57483     57482     57484
     57486     57485     57487     57489     57488     57490     57492     57491     57493
     57495     57494     57496     57498     57497     57499     57501     57500     57502
     57504     57503     57505     57507     57506     57508     57510     57509     57511
     57513     57512     57514     57516     57515     57517     57519     57518     57520
     57522     57521     57523     57525     57524     57526     57528     57527     57529
     57531     57530     57532     57534     57533     57535     57537     57536     57538
     57540     57539     57541     57543     57542     57544     57546     57545     57547
     57549     57548     57550     57552     57551     57553     57555     57554     57556
     57558     57557     57559     57561     57560     57562     57564     57563     57565
     57567     57566     57568     57570     57569     57571     57573     57572     57574
     57576     57575     57577     57579     57578     57580     57582     57581     57583
     57585     57584     57586     57588     57587     57589     57591     57590     57592
     57594     57593     57595     57597     57596     57598     57600     57599     57601
     57603     57602     57604     57606     57605     57607     57609     57608     57610
     57612     57611     57613     57615     57614     57616     57618     57617     57619
     57621     57620     57622     57624     57623     57625     57627     57626     57628
     57630     57629     57631     57633     57632     57634     57636     57635     57637
     57639     57638     57640     57642     57641     57643     57645     57644     57646
     57648     57647     57649     57651     57650     57652     57654     57653     57655
     57657     57656     57658     57660     57659     57661     57663     57662     57664
     57666     57665     57667     57669     57668     57670     57672     57671     57673
     57675     57674     57676     57678     57677     57679     57681     57680     57682
     57684     57683     57685     57687     57686     57688     57690     57689     57691
     57693     57692     57694     57696     57695     57697     57699     57698     57700
     57702     57701     57703     57705     57704     57706     57708     57707     57709
     57711     57710     57712     57714     57713     57715     57717     57716     57718
     57720     57719     57721     57723     57722     57724     57726     57725     57727
     57729     57728     57730     57732     57731     57733     57735     57734     57736
     57738     57737     57739     57741     57740     57742     57744     57743     57745
     57747     57746     57748     57750     57749     57751     57753     57752     57754
     57756     57755     57757     57759     57758     57760     57762     57761     57763
     57765     57764     57766     57768     57767     57769     57771     57770     57772
     57774     57773     57775     57777     57776     57778     57780     57779     57781
     57783     57782     57784     57786     57785     57787     57789     57788     57790
     57792     57791     57793     57795     57794     57796     57798     57797     57799
     57801     57800     57802     57804     57803     57805     57807     57806     57808
     57810     57809     57811     57813     57812     57814     57816     57815     57817
     57819     57818     57820     57822     57821     57823     57825     57824     57826
     57828     57827     57829     57831     57830     57832     57834     57833     57835
     57837     57836     57838     57840     57839     57841     57843     57842     57844
     57846     57845     57847     57849     57848     57850     57852     57851     57853
     57855     57854     57856     57858     57857     57859     57861     57860     57862
     57864     57863     57865     57867     57866     57868     57870     57869     57871
     57873     57872     57874     57876     57875     57877     57879     57878     57880
     57882     57881     57883     57885     57884     57886     57888     57887     57889
     57891     57890     57892     57894     57893     57895     57897     57896     57898
     57900     57899     57901     57903     57902     57904     57906     57905     57907
     57909     57908     57910     57912     57911     57913     57915     57914     57916
     57918     57917     57919     57921     57920     57922     57924     57923     57925
     57927     57926     57928     57930     57929     57931     57933     57932     57934
     57936     57935     57937     57939     57938     57940     57942     57941     57943
     57945     57944     57946     57948     57947     57949     57951     57950     57952
     57954     57953     57955     57957     57956     57958     57960     57959     57961
     57963     57962     57964     57966     57965     57967     57969     57968     57970
     57972     57971     57973     57975     57974     57976     57978     57977     57979
     57981     57980     57982     57984     57983     57985     57987     57986     57988
     57990     57989     57991     57993     57992     57994     57996     57995     57997
     57999     57998     58000     58002     58001     58003     58005     58004     58006
     58008     58007     58009     58011     58010     58012     58014     58013     58015
     58017     58016     58018     58020     58019     58021     58023     58022     58024
     58026     58025     58027     58029     58028     58030     58032     58031     58033
     58035     58034     58036     58038     58037     58039     58041     58040     58042
     58044     58043     58045     58047     58046     58048     58050     58049     58051
     58053     58052     58054     58056     58055     58057     58059     58058     58060
     58062     58061     58063     58065     58064     58066     58068     58067     58069
     58071     58070     58072     58074     58073     58075     58077     58076     58078
     58080     58079     58081     58083     58082     58084     58086     58085     58087
     58089     58088     58090     58092     58091     58093     58095     58094     58096
     58098     58097     58099     58101     58100     58102     58104     58103     58105
     58107     58106     58108     58110     58109     58111     58113     58112     58114
     58116     58115     58117     58119     58118     58120     58122     58121     58123
     58125     58124     58126     58128     58127     58129     58131     58130     58132
     58134     58133     58135     58137     58136     58138     58140     58139     58141
     58143     58142     58144     58146     58145     58147     58149     58148     58150
     58152     58151     58153     58155     58154     58156     58158     58157     58159
     58161     58160     58162     58164     58163     58165     58167     58166     58168
     58170     58169     58171     58173     58172     58174     58176     58175     58177
     58179     58178     58180     58182     58181     58183     58185     58184     58186
     58188     58187     58189     58191     58190     58192     58194     58193     58195
     58197     58196     58198     58200     58199     58201     58203     58202     58204
     58206     58205     58207     58209     58208     58210     58212     58211     58213
     58215     58214     58216     58218     58217     58219     58221     58220     58222
     58224     58223     58225     58227     58226     58228     58230     58229     58231
     58233     58232     58234     58236     58235     58237     58239     58238     58240
     58242     58241     58243     58245     58244     58246     58248     58247     58249
     58251     58250     58252     58254     58253     58255     58257     58256     58258
     58260     58259     58261     58263     58262     58264     58266     58265     58267
     58269     58268     58270     58272     58271     58273     58275     58274     58276
     58278     58277     58279     58281     58280     58282     58284     58283     58285
     58287     58286     58288     58290     58289     58291     58293     58292     58294
     58296     58295     58297     58299     58298     58300     58302     58301     58303
     58305     58304     58306     58308     58307     58309     58311     58310     58312
     58314     58313     58315     58317     58316     58318     58320     58319     58321
     58323     58322     58324     58326     58325     58327     58329     58328     58330
     58332     58331     58333     58335     58334     58336     58338     58337     58339
     58341     58340     58342     58344     58343     58345     58347     58346     58348
     58350     58349     58351     58353     58352     58354     58356     58355     58357
     58359     58358     58360     58362     58361     58363     58365     58364     58366
     58368     58367     58369     58371     58370     58372     58374     58373     58375
     58377     58376     58378     58380     58379     58381     58383     58382     58384
     58386     58385     58387     58389     58388     58390     58392     58391     58393
     58395     58394     58396     58398     58397     58399     58401     58400     58402
     58404     58403     58405     58407     58406     58408     58410     58409     58411
     58413     58412     58414     58416     58415     58417     58419     58418     58420
     58422     58421     58423     58425     58424     58426     58428     58427     58429
     58431     58430     58432     58434     58433     58435     58437     58436     58438
     58440     58439     58441     58443     58442     58444     58446     58445     58447
     58449     58448     58450     58452     58451     58453     58455     58454     58456
     58458     58457     58459     58461     58460     58462     58464     58463     58465
     58467     58466     58468     58470     58469     58471     58473     58472     58474
     58476     58475     58477     58479     58478     58480     58482     58481     58483
     58485     58484     58486     58488     58487     58489     58491     58490     58492
     58494     58493     58495     58497     58496     58498     58500     58499     58501
     58503     58502     58504     58506     58505     58507     58509     58508     58510
     58512     58511     58513     58515     58514     58516     58518     58517     58519
     58521     58520     58522     58524     58523     58525     58527     58526     58528
     58530     58529     58531     58533     58532     58534     58536     58535     58537
     58539     58538     58540     58542     58541     58543     58545     58544     58546
     58548     58547     58549     58551     58550     58552     58554     58553     58555
     58557     58556     58558     58560     58559     58561     58563     58562     58564
     58566     58565     58567     58569     58568     58570     58572     58571     58573
     58575     58574     58576     58578     58577     58579     58581     58580     58582
     58584     58583     58585     58587     58586     58588     58590     58589     58591
     58593     58592     58594     58596     58595     58597     58599     58598     58600
     58602     58601     58603     58605     58604     58606     58608     58607     58609
     58611     58610     58612     58614     58613     58615     58617     58616     58618
     58620     58619     58621     58623     58622     58624     58626     58625     58627
     58629     58628     58630     58632     58631     58633     58635     58634     58636
     58638     58637     58639     58641     58640     58642     58644     58643     58645
     58647     58646     58648     58650     58649     58651     58653     58652     58654
     58656     58655     58657     58659     58658     58660     58662     58661     58663
     58665     58664     58666     58668     58667     58669     58671     58670     58672
     58674     58673     58675     58677     58676     58678     58680     58679     58681
     58683     58682     58684     58686     58685     58687     58689     58688     58690
     58692     58691     58693     58695     58694     58696     58698     58697     58699
     58701     58700     58702     58704     58703     58705     58707     58706     58708
     58710     58709     58711     58713     58712     58714     58716     58715     58717
     58719     58718     58720     58722     58721     58723     58725     58724     58726
     58728     58727     58729     58731     58730     58732     58734     58733     58735
     58737     58736     58738     58740     58739     58741     58743     58742     58744
     58746     58745     58747     58749     58748     58750     58752     58751     58753
     58755     58754     58756     58758     58757     58759     58761     58760     58762
     58764     58763     58765     58767     58766     58768     58770     58769     58771
     58773     58772     58774     58776     58775     58777     58779     58778     58780
     58782     58781     58783     58785     58784     58786     58788     58787     58789
     58791     58790     58792     58794     58793     58795     58797     58796     58798
     58800     58799     58801     58803     58802     58804     58806     58805     58807
     58809     58808     58810     58812     58811     58813     58815     58814     58816
     58818     58817     58819     58821     58820     58822     58824     58823     58825
     58827     58826     58828     58830     58829     58831     58833     58832     58834
     58836     58835     58837     58839     58838     58840     58842     58841     58843
     58845     58844     58846     58848     58847     58849     58851     58850     58852
     58854     58853     58855     58857     58856     58858     58860     58859     58861
     58863     58862     58864     58866     58865     58867     58869     58868     58870
     58872     58871     58873     58875     58874     58876     58878     58877     58879
     58881     58880     58882     58884     58883     58885     58887     58886     58888
     58890     58889     58891     58893     58892     58894     58896     58895     58897
     58899     58898     58900     58902     58901     58903     58905     58904     58906
     58908     58907     58909     58911     58910     58912     58914     58913     58915
     58917     58916     58918     58920     58919     58921     58923     58922     58924
     58926     58925     58927     58929     58928     58930     58932     58931     58933
     58935     58934     58936     58938     58937     58939     58941     58940     58942
     58944     58943     58945     58947     58946     58948     58950     58949     58951
     58953     58952     58954     58956     58955     58957     58959     58958     58960
     58962     58961     58963     58965     58964     58966     58968     58967     58969
     58971     58970     58972     58974     58973     58975     58977     58976     58978
     58980     58979     58981     58983     58982     58984     58986     58985     58987
     58989     58988     58990     58992     58991     58993     58995     58994     58996
     58998     58997     58999     59001     59000     59002     59004     59003     59005
     59007     59006     59008     59010     59009     59011     59013     59012     59014
     59016     59015     59017     59019     59018     59020     59022     59021     59023
     59025     59024     59026     59028     59027     59029     59031     59030     59032
     59034     59033     59035     59037     59036     59038     59040     59039     59041
     59043     59042     59044     59046     59045     59047     59049     59048     59050
     59052     59051     59053     59055     59054     59056     59058     59057     59059
     59061     59060     59062     59064     59063     59065     59067     59066     59068
     59070     59069     59071     59073     59072     59074     59076     59075     59077
     59079     59078     59080     59082     59081     59083     59085     59084     59086
     59088     59087     59089     59091     59090     59092     59094     59093     59095
     59097     59096     59098     59100     59099     59101     59103     59102     59104
     59106     59105     59107     59109     59108     59110     59112     59111     59113
     59115     59114     59116     59118     59117     59119     59121     59120     59122
     59124     59123     59125     59127     59126     59128     59130     59129     59131
     59133     59132     59134     59136     59135     59137     59139     59138     59140
     59142     59141     59143     59145     59144     59146     59148     59147     59149
     59151     59150     59152     59154     59153     59155     59157     59156     59158
     59160     59159     59161     59163     59162     59164     59166     59165     59167
     59169     59168     59170     59172     59171     59173     59175     59174     59176
     59178     59177     59179     59181     59180     59182     59184     59183     59185
     59187     59186     59188     59190     59189     59191     59193     59192     59194
     59196     59195     59197     59199     59198     59200     59202     59201     59203
     59205     59204     59206     59208     59207     59209     59211     59210     59212
     59214     59213     59215     59217     59216     59218     59220     59219     59221
     59223     59222     59224     59226     59225     59227     59229     59228     59230
     59232     59231     59233     59235     59234     59236     59238     59237     59239
     59241     59240     59242     59244     59243     59245     59247     59246     59248
     59250     59249     59251     59253     59252     59254     59256     59255     59257
     59259     59258     59260     59262     59261     59263     59265     59264     59266
     59268     59267     59269     59271     59270     59272     59274     59273     59275
     59277     59276     59278     59280     59279     59281     59283     59282     59284
     59286     59285     59287     59289     59288     59290     59292     59291     59293
     59295     59294     59296     59298     59297     59299     59301     59300     59302
     59304     59303     59305     59307     59306     59308     59310     59309     59311
     59313     59312     59314     59316     59315     59317     59319     59318     59320
     59322     59321     59323     59325     59324     59326     59328     59327     59329
     59331     59330     59332     59334     59333     59335     59337     59336     59338
     59340     59339     59341     59343     59342     59344     59346     59345     59347
     59349     59348     59350     59352     59351     59353     59355     59354     59356
     59358     59357     59359     59361     59360     59362     59364     59363     59365
     59367     59366     59368     59370     59369     59371     59373     59372     59374
     59376     59375     59377     59379     59378     59380     59382     59381     59383
     59385     59384     59386     59388     59387     59389     59391     59390     59392
     59394     59393     59395     59397     59396     59398     59400     59399     59401
     59403     59402     59404     59406     59405     59407     59409     59408     59410
     59412     59411     59413     59415     59414     59416     59418     59417     59419
     59421     59420     59422     59424     59423     59425     59427     59426     59428
     59430     59429     59431     59433     59432     59434     59436     59435     59437
     59439     59438     59440     59442     59441     59443     59445     59444     59446
     59448     59447     59449     59451     59450     59452     59454     59453     59455
     59457     59456     59458     59460     59459     59461     59463     59462     59464
     59466     59465     59467     59469     59468     59470     59472     59471     59473
     59475     59474     59476     59478     59477     59479     59481     59480     59482
     59484     59483     59485     59487     59486     59488     59490     59489     59491
     59493     59492     59494     59496     59495     59497     59499     59498     59500
     59502     59501     59503     59505     59504     59506     59508     59507     59509
     59511     59510     59512     59514     59513     59515     59517     59516     59518
     59520     59519     59521     59523     59522     59524     59526     59525     59527
     59529     59528     59530     59532     59531     59533     59535     59534     59536
     59538     59537     59539     59541     59540     59542     59544     59543     59545
     59547     59546     59548     59550     59549     59551     59553     59552     59554
     59556     59555     59557     59559     59558     59560     59562     59561     59563
     59565     59564     59566     59568     59567     59569     59571     59570     59572
     59574     59573     59575     59577     59576     59578     59580     59579     59581
     59583     59582     59584     59586     59585     59587     59589     59588     59590
     59592     59591     59593     59595     59594     59596     59598     59597     59599
     59601     59600     59602     59604     59603     59605     59607     59606     59608
     59610     59609     59611     59613     59612     59614     59616     59615     59617
     59619     59618     59620     59622     59621     59623     59625     59624     59626
     59628     59627     59629     59631     59630     59632     59634     59633     59635
     59637     59636     59638     59640     59639     59641     59643     59642     59644
     59646     59645     59647     59649     59648     59650     59652     59651     59653
     59655     59654     59656     59658     59657     59659     59661     59660     59662
     59664     59663     59665     59667     59666     59668     59670     59669     59671
     59673     59672     59674     59676     59675     59677     59679     59678     59680
     59682     59681     59683     59685     59684     59686     59688     59687     59689
     59691     59690     59692     59694     59693     59695     59697     59696     59698
     59700     59699     59701     59703     59702     59704     59706     59705     59707
     59709     59708     59710     59712     59711     59713     59715     59714     59716
     59718     59717     59719     59721     59720     59722     59724     59723     59725
     59727     59726     59728     59730     59729     59731     59733     59732     59734
     59736     59735     59737     59739     59738     59740     59742     59741     59743
     59745     59744     59746     59748     59747     59749     59751     59750     59752
     59754     59753     59755     59757     59756     59758     59760     59759     59761
     59763     59762     59764     59766     59765     59767     59769     59768     59770
     59772     59771     59773     59775     59774     59776     59778     59777     59779
     59781     59780     59782     59784     59783     59785     59787     59786     59788
     59790     59789     59791     59793     59792     59794     59796     59795     59797
     59799     59798     59800     59802     59801     59803     59805     59804     59806
     59808     59807     59809     59811     59810     59812     59814     59813     59815
     59817     59816     59818     59820     59819     59821     59823     59822     59824
     59826     59825     59827     59829     59828     59830     59832     59831     59833
     59835     59834     59836     59838     59837     59839     59841     59840     59842
     59844     59843     59845     59847     59846     59848     59850     59849     59851
     59853     59852     59854     59856     59855     59857     59859     59858     59860
     59862     59861     59863     59865     59864     59866     59868     59867     59869
     59871     59870     59872     59874     59873     59875     59877     59876     59878
     59880     59879     59881     59883     59882     59884     59886     59885     59887
     59889     59888     59890     59892     59891     59893     59895     59894     59896
     59898     59897     59899     59901     59900     59902     59904     59903     59905
     59907     59906     59908     59910     59909     59911     59913     59912     59914
     59916     59915     59917     59919     59918     59920     59922     59921     59923
     59925     59924     59926     59928     59927     59929     59931     59930     59932
     59934     59933     59935     59937     59936     59938     59940     59939     59941
     59943     59942     59944     59946     59945     59947     59949     59948     59950
     59952     59951     59953     59955     59954     59956     59958     59957     59959
     59961     59960     59962     59964     59963     59965     59967     59966     59968
     59970     59969     59971     59973     59972     59974     59976     59975     59977
     59979     59978     59980     59982     59981     59983     59985     59984     59986
     59988     59987     59989     59991     59990     59992     59994     59993     59995
     59997     59996     59998     60000     59999     60001     60003     60002     60004
     60006     60005     60007     60009     60008     60010     60012     60011     60013
     60015     60014     60016     60018     60017     60019     60021     60020     60022
     60024     60023     60025     60027     60026     60028     60030     60029     60031
     60033     60032     60034     60036     60035     60037     60039     60038     60040
     60042     60041     60043     60045     60044     60046     60048     60047     60049
     60051     60050     60052     60054     60053     60055     60057     60056     60058
     60060     60059     60061     60063     60062     60064     60066     60065     60067
     60069     60068     60070     60072     60071     60073     60075     60074     60076
     60078     60077     60079     60081     60080     60082     60084     60083     60085
     60087     60086     60088     60090     60089     60091     60093     60092     60094
     60096     60095     60097     60099     60098     60100     60102     60101     60103
     60105     60104     60106     60108     60107     60109     60111     60110     60112
     60114     60113     60115     60117     60116     60118     60120     60119     60121
     60123     60122     60124     60126     60125     60127     60129     60128     60130
     60132     60131     60133     60135     60134     60136     60138     60137     60139
     60141     60140     60142     60144     60143     60145     60147     60146     60148
     60150     60149     60151     60153     60152     60154     60156     60155     60157
     60159     60158     60160     60162     60161     60163     60165     60164     60166
     60168     60167     60169     60171     60170     60172     60174     60173     60175
     60177     60176     60178     60180     60179     60181     60183     60182     60184
     60186     60185     60187     60189     60188     60190     60192     60191     60193
     60195     60194     60196     60198     60197     60199     60201     60200     60202
     60204     60203     60205     60207     60206     60208     60210     60209     60211
     60213     60212     60214     60216     60215     60217     60219     60218     60220
     60222     60221     60223     60225     60224     60226     60228     60227     60229
     60231     60230     60232     60234     60233     60235     60237     60236     60238
     60240     60239     60241     60243     60242     60244     60246     60245     60247
     60249     60248     60250     60252     60251     60253     60255     60254     60256
     60258     60257     60259     60261     60260     60262     60264     60263     60265
     60267     60266     60268     60270     60269     60271     60273     60272     60274
     60276     60275     60277     60279     60278     60280     60282     60281     60283
     60285     60284     60286     60288     60287     60289     60291     60290     60292
     60294     60293     60295     60297     60296     60298     60300     60299     60301
     60303     60302     60304     60306     60305     60307     60309     60308     60310
     60312     60311     60313     60315     60314     60316     60318     60317     60319
     60321     60320     60322     60324     60323     60325     60327     60326     60328
     60330     60329     60331     60333     60332     60334     60336     60335     60337
     60339     60338     60340     60342     60341     60343     60345     60344     60346
     60348     60347     60349     60351     60350     60352     60354     60353     60355
     60357     60356     60358     60360     60359     60361     60363     60362     60364
     60366     60365     60367     60369     60368     60370     60372     60371     60373
     60375     60374     60376     60378     60377     60379     60381     60380     60382
     60384     60383     60385     60387     60386     60388     60390     60389     60391
     60393     60392     60394     60396     60395     60397     60399     60398     60400
     60402     60401     60403     60405     60404     60406     60408     60407     60409
     60411     60410     60412     60414     60413     60415     60417     60416     60418
     60420     60419     60421     60423     60422     60424     60426     60425     60427
     60429     60428     60430     60432     60431     60433     60435     60434     60436
     60438     60437     60439     60441     60440     60442     60444     60443     60445
     60447     60446     60448     60450     60449     60451     60453     60452     60454
     60456     60455     60457     60459     60458     60460     60462     60461     60463
     60465     60464     60466     60468     60467     60469     60471     60470     60472
     60474     60473     60475     60477     60476     60478     60480     60479     60481
     60483     60482     60484     60486     60485     60487     60489     60488     60490
     60492     60491     60493     60495     60494     60496     60498     60497     60499
     60501     60500     60502     60504     60503     60505     60507     60506     60508
     60510     60509     60511     60513     60512     60514     60516     60515     60517
     60519     60518     60520     60522     60521     60523     60525     60524     60526
     60528     60527     60529     60531     60530     60532     60534     60533     60535
     60537     60536     60538     60540     60539     60541     60543     60542     60544
     60546     60545     60547     60549     60548     60550     60552     60551     60553
     60555     60554     60556     60558     60557     60559     60561     60560     60562
     60564     60563     60565     60567     60566     60568     60570     60569     60571
     60573     60572     60574     60576     60575     60577     60579     60578     60580
     60582     60581     60583     60585     60584     60586     60588     60587     60589
     60591     60590     60592     60594     60593     60595     60597     60596     60598
     60600     60599     60601     60603     60602     60604     60606     60605     60607
     60609     60608     60610     60612     60611     60613     60615     60614     60616
     60618     60617     60619     60621     60620     60622     60624     60623     60625
     60627     60626     60628     60630     60629     60631     60633     60632     60634
     60636     60635     60637     60639     60638     60640     60642     60641     60643
     60645     60644     60646     60648     60647     60649     60651     60650     60652
     60654     60653     60655     60657     60656     60658     60660     60659     60661
     60663     60662     60664     60666     60665     60667     60669     60668     60670
     60672     60671     60673     60675     60674     60676     60678     60677     60679
     60681     60680     60682     60684     60683     60685     60687     60686     60688
     60690     60689     60691     60693     60692     60694     60696     60695     60697
     60699     60698     60700     60702     60701     60703     60705     60704     60706
     60708     60707     60709     60711     60710     60712     60714     60713     60715
     60717     60716     60718     60720     60719     60721     60723     60722     60724
     60726     60725     60727     60729     60728     60730     60732     60731     60733
     60735     60734     60736     60738     60737     60739     60741     60740     60742
     60744     60743     60745     60747     60746     60748     60750     60749     60751
     60753     60752     60754     60756     60755     60757     60759     60758     60760
     60762     60761     60763     60765     60764     60766     60768     60767     60769
     60771     60770     60772     60774     60773     60775     60777     60776     60778
     60780     60779     60781     60783     60782     60784     60786     60785     60787
     60789     60788     60790     60792     60791     60793     60795     60794     60796
     60798     60797     60799     60801     60800     60802     60804     60803     60805
     60807     60806     60808     60810     60809     60811     60813     60812     60814
     60816     60815     60817     60819     60818     60820     60822     60821     60823
     60825     60824     60826     60828     60827     60829     60831     60830     60832
     60834     60833     60835     60837     60836     60838     60840     60839     60841
     60843     60842     60844     60846     60845     60847     60849     60848     60850
     60852     60851     60853     60855     60854     60856     60858     60857     60859
     60861     60860     60862     60864     60863     60865     60867     60866     60868
     60870     60869     60871     60873     60872     60874     60876     60875     60877
     60879     60878     60880     60882     60881     60883     60885     60884     60886
     60888     60887     60889     60891     60890     60892     60894     60893     60895
     60897     60896     60898     60900     60899     60901     60903     60902     60904
     60906     60905     60907     60909     60908     60910     60912     60911     60913
     60915     60914     60916     60918     60917     60919     60921     60920     60922
     60924     60923     60925     60927     60926     60928     60930     60929     60931
     60933     60932     60934     60936     60935     60937     60939     60938     60940
     60942     60941     60943     60945     60944     60946     60948     60947     60949
     60951     60950     60952     60954     60953     60955     60957     60956     60958
     60960     60959     60961     60963     60962     60964     60966     60965     60967
     60969     60968     60970     60972     60971     60973     60975     60974     60976
     60978     60977     60979     60981     60980     60982     60984     60983     60985
     60987     60986     60988     60990     60989     60991     60993     60992     60994
     60996     60995     60997     60999     60998     61000     61002     61001     61003
     61005     61004     61006     61008     61007     61009     61011     61010     61012
     61014     61013     61015     61017     61016     61018     61020     61019     61021
     61023     61022     61024     61026     61025     61027     61029     61028     61030
     61032     61031     61033     61035     61034     61036     61038     61037     61039
     61041     61040     61042     61044     61043     61045     61047     61046     61048
     61050     61049     61051     61053     61052     61054     61056     61055     61057
     61059     61058     61060     61062     61061     61063     61065     61064     61066
     61068     61067     61069     61071     61070     61072     61074     61073     61075
     61077     61076     61078     61080     61079     61081     61083     61082     61084
     61086     61085     61087     61089     61088     61090     61092     61091     61093
     61095     61094     61096     61098     61097     61099     61101     61100     61102
     61104     61103     61105     61107     61106     61108     61110     61109     61111
     61113     61112     61114     61116     61115     61117     61119     61118     61120
     61122     61121     61123     61125     61124     61126     61128     61127     61129
     61131     61130     61132     61134     61133     61135     61137     61136     61138
     61140     61139     61141     61143     61142     61144     61146     61145     61147
     61149     61148     61150     61152     61151     61153     61155     61154     61156
     61158     61157     61159     61161     61160     61162     61164     61163     61165
     61167     61166     61168     61170     61169     61171     61173     61172     61174
     61176     61175     61177     61179     61178     61180     61182     61181     61183
     61185     61184     61186     61188     61187     61189     61191     61190     61192
     61194     61193     61195     61197     61196     61198     61200     61199     61201
     61203     61202     61204     61206     61205     61207     61209     61208     61210
     61212     61211     61213     61215     61214     61216     61218     61217     61219
     61221     61220     61222     61224     61223     61225     61227     61226     61228
     61230     61229     61231     61233     61232     61234     61236     61235     61237
     61239     61238     61240     61242     61241     61243     61245     61244     61246
     61248     61247     61249     61251     61250     61252     61254     61253     61255
     61257     61256     61258     61260     61259     61261     61263     61262     61264
     61266     61265     61267     61269     61268     61270     61272     61271     61273
     61275     61274     61276     61278     61277     61279     61281     61280     61282
     61284     61283     61285     61287     61286     61288     61290     61289     61291
     61293     61292     61294     61296     61295     61297     61299     61298     61300
     61302     61301     61303     61305     61304     61306     61308     61307     61309
     61311     61310     61312     61314     61313     61315     61317     61316     61318
     61320     61319     61321     61323     61322     61324     61326     61325     61327
     61329     61328     61330     61332     61331     61333     61335     61334     61336
     61338     61337     61339     61341     61340     61342     61344     61343     61345
     61347     61346     61348     61350     61349     61351     61353     61352     61354
     61356     61355     61357     61359     61358     61360     61362     61361     61363
     61365     61364     61366     61368     61367     61369     61371     61370     61372
     61374     61373     61375     61377     61376     61378     61380     61379     61381
     61383     61382     61384     61386     61385     61387     61389     61388     61390
     61392     61391     61393     61395     61394     61396     61398     61397     61399
     61401     61400     61402     61404     61403     61405     61407     61406     61408
     61410     61409     61411     61413     61412     61414     61416     61415     61417
     61419     61418     61420     61422     61421     61423     61425     61424     61426
     61428     61427     61429     61431     61430     61432     61434     61433     61435
     61437     61436     61438     61440     61439     61441     61443     61442     61444
     61446     61445     61447     61449     61448     61450     61452     61451     61453
     61455     61454     61456     61458     61457     61459     61461     61460     61462
     61464     61463     61465     61467     61466     61468     61470     61469     61471
     61473     61472     61474     61476     61475     61477     61479     61478     61480
     61482     61481     61483     61485     61484     61486     61488     61487     61489
     61491     61490     61492     61494     61493     61495     61497     61496     61498
     61500     61499     61501     61503     61502     61504     61506     61505     61507
     61509     61508     61510     61512     61511     61513     61515     61514     61516
     61518     61517     61519     61521     61520     61522     61524     61523     61525
     61527     61526     61528     61530     61529     61531     61533     61532     61534
     61536     61535     61537     61539     61538     61540     61542     61541     61543
     61545     61544     61546     61548     61547     61549     61551     61550     61552
     61554     61553     61555     61557     61556     61558     61560     61559     61561
     61563     61562     61564     61566     61565     61567     61569     61568     61570
     61572     61571     61573     61575     61574     61576     61578     61577     61579
     61581     61580     61582     61584     61583     61585     61587     61586     61588
     61590     61589     61591     61593     61592     61594     61596     61595     61597
     61599     61598     61600     61602     61601     61603     61605     61604     61606
     61608     61607     61609     61611     61610     61612     61614     61613     61615
     61617     61616     61618     61620     61619     61621     61623     61622     61624
     61626     61625     61627     61629     61628     61630     61632     61631     61633
     61635     61634     61636     61638     61637     61639     61641     61640     61642
     61644     61643     61645     61647     61646     61648     61650     61649     61651
     61653     61652     61654     61656     61655     61657     61659     61658     61660
     61662     61661     61663     61665     61664     61666     61668     61667     61669
     61671     61670     61672     61674     61673     61675     61677     61676     61678
     61680     61679     61681     61683     61682     61684     61686     61685     61687
     61689     61688     61690     61692     61691     61693     61695     61694     61696
     61698     61697     61699     61701     61700     61702     61704     61703     61705
     61707     61706     61708     61710     61709     61711     61713     61712     61714
     61716     61715     61717     61719     61718     61720     61722     61721     61723
     61725     61724     61726     61728     61727     61729     61731     61730     61732
     61734     61733     61735     61737     61736     61738     61740     61739     61741
     61743     61742     61744     61746     61745     61747     61749     61748     61750
     61752     61751     61753     61755     61754     61756     61758     61757     61759
     61761     61760     61762     61764     61763     61765     61767     61766     61768
     61770     61769     61771     61773     61772     61774     61776     61775     61777
     61779     61778     61780     61782     61781     61783     61785     61784     61786
     61788     61787     61789     61791     61790     61792     61794     61793     61795
     61797     61796     61798     61800     61799     61801     61803     61802     61804
     61806     61805     61807     61809     61808     61810     61812     61811     61813
     61815     61814     61816     61818     61817     61819     61821     61820     61822
     61824     61823     61825     61827     61826     61828     61830     61829     61831
     61833     61832     61834     61836     61835     61837     61839     61838     61840
     61842     61841     61843     61845     61844     61846     61848     61847     61849
     61851     61850     61852     61854     61853     61855     61857     61856     61858
     61860     61859     61861     61863     61862     61864     61866     61865     61867
     61869     61868     61870     61872     61871     61873     61875     61874     61876
     61878     61877     61879     61881     61880     61882     61884     61883     61885
     61887     61886     61888     61890     61889     61891     61893     61892     61894
     61896     61895     61897     61899     61898     61900     61902     61901     61903
     61905     61904     61906     61908     61907     61909     61911     61910     61912
     61914     61913     61915     61917     61916     61918     61920     61919     61921
     61923     61922     61924     61926     61925     61927     61929     61928     61930
     61932     61931     61933     61935     61934     61936     61938     61937     61939
     61941     61940     61942     61944     61943     61945     61947     61946     61948
     61950     61949     61951     61953     61952     61954     61956     61955     61957
     61959     61958     61960     61962     61961     61963     61965     61964     61966
     61968     61967     61969     61971     61970     61972     61974     61973     61975
     61977     61976     61978     61980     61979     61981     61983     61982     61984
     61986     61985     61987     61989     61988     61990     61992     61991     61993
     61995     61994     61996     61998     61997     61999     62001     62000     62002
     62004     62003     62005     62007     62006     62008     62010     62009     62011
     62013     62012     62014     62016     62015     62017     62019     62018     62020
     62022     62021     62023     62025     62024     62026     62028     62027     62029
     62031     62030     62032     62034     62033     62035     62037     62036     62038
     62040     62039     62041     62043     62042     62044     62046     62045     62047
     62049     62048     62050     62052     62051     62053     62055     62054     62056
     62058     62057     62059     62061     62060     62062     62064     62063     62065
     62067     62066     62068     62070     62069     62071     62073     62072     62074
     62076     62075     62077     62079     62078     62080     62082     62081     62083
     62085     62084     62086     62088     62087     62089     62091     62090     62092
     62094     62093     62095     62097     62096     62098     62100     62099     62101
     62103     62102     62104     62106     62105     62107     62109     62108     62110
     62112     62111     62113     62115     62114     62116     62118     62117     62119
     62121     62120     62122     62124     62123     62125     62127     62126     62128
     62130     62129     62131     62133     62132     62134     62136     62135     62137
     62139     62138     62140     62142     62141     62143     62145     62144     62146
     62148     62147     62149     62151     62150     62152     62154     62153     62155
     62157     62156     62158     62160     62159     62161     62163     62162     62164
     62166     62165     62167     62169     62168     62170     62172     62171     62173
     62175     62174     62176     62178     62177     62179     62181     62180     62182
     62184     62183     62185     62187     62186     62188     62190     62189     62191
     62193     62192     62194     62196     62195     62197     62199     62198     62200
     62202     62201     62203     62205     62204     62206     62208     62207     62209
     62211     62210     62212     62214     62213     62215     62217     62216     62218
     62220     62219     62221     62223     62222     62224     62226     62225     62227
     62229     62228     62230     62232     62231     62233     62235     62234     62236
     62238     62237     62239     62241     62240     62242     62244     62243     62245
     62247     62246     62248     62250     62249     62251     62253     62252     62254
     62256     62255     62257     62259     62258     62260     62262     62261     62263
     62265     62264     62266     62268     62267     62269     62271     62270     62272
     62274     62273     62275     62277     62276     62278     62280     62279     62281
     62283     62282     62284     62286     62285     62287     62289     62288     62290
     62292     62291     62293     62295     62294     62296     62298     62297     62299
     62301     62300     62302     62304     62303     62305     62307     62306     62308
     62310     62309     62311     62313     62312     62314     62316     62315     62317
     62319     62318     62320     62322     62321     62323     62325     62324     62326
     62328     62327     62329     62331     62330     62332     62334     62333     62335
     62337     62336     62338     62340     62339     62341     62343     62342     62344
     62346     62345     62347     62349     62348     62350     62352     62351     62353
     62355     62354     62356     62358     62357     62359     62361     62360     62362
     62364     62363     62365     62367     62366     62368     62370     62369     62371
     62373     62372     62374     62376     62375     62377     62379     62378     62380
     62382     62381     62383     62385     62384     62386     62388     62387     62389
     62391     62390     62392     62394     62393     62395     62397     62396     62398
     62400     62399     62401     62403     62402     62404     62406     62405     62407
     62409     62408     62410     62412     62411     62413     62415     62414     62416
     62418     62417     62419     62421     62420     62422     62424     62423     62425
     62427     62426     62428     62430     62429     62431     62433     62432     62434
     62436     62435     62437     62439     62438     62440     62442     62441     62443
     62445     62444     62446     62448     62447     62449     62451     62450     62452
     62454     62453     62455     62457     62456     62458     62460     62459     62461
     62463     62462     62464     62466     62465     62467     62469     62468     62470
     62472     62471     62473     62475     62474     62476     62478     62477     62479
     62481     62480     62482     62484     62483     62485     62487     62486     62488
     62490     62489     62491     62493     62492     62494     62496     62495     62497
     62499     62498     62500     62502     62501     62503     62505     62504     62506
     62508     62507     62509     62511     62510     62512     62514     62513     62515
     62517     62516     62518     62520     62519     62521     62523     62522     62524
     62526     62525     62527     62529     62528     62530     62532     62531     62533
     62535     62534     62536     62538     62537     62539     62541     62540     62542
     62544     62543     62545     62547     62546     62548     62550     62549     62551
     62553     62552     62554     62556     62555     62557     62559     62558     62560
     62562     62561     62563     62565     62564     62566     62568     62567     62569
     62571     62570     62572     62574     62573     62575     62577     62576     62578
     62580     62579     62581     62583     62582     62584     62586     62585     62587
     62589     62588     62590     62592     62591     62593     62595     62594     62596
     62598     62597     62599     62601     62600     62602     62604     62603     62605
     62607     62606     62608     62610     62609     62611     62613     62612     62614
     62616     62615     62617     62619     62618     62620     62622     62621     62623
     62625     62624     62626     62628     62627     62629     62631     62630     62632
     62634     62633     62635     62637     62636     62638     62640     62639     62641
     62643     62642     62644     62646     62645     62647     62649     62648     62650
     62652     62651     62653     62655     62654     62656     62658     62657     62659
     62661     62660     62662     62664     62663     62665     62667     62666     62668
     62670     62669     62671     62673     62672     62674     62676     62675     62677
     62679     62678     62680     62682     62681     62683     62685     62684     62686
     62688     62687     62689     62691     62690     62692     62694     62693     62695
     62697     62696     62698     62700     62699     62701     62703     62702     62704
     62706     62705     62707     62709     62708     62710     62712     62711     62713
     62715     62714     62716     62718     62717     62719     62721     62720     62722
     62724     62723     62725     62727     62726     62728     62730     62729     62731
     62733     62732     62734     62736     62735     62737     62739     62738     62740
     62742     62741     62743     62745     62744     62746     62748     62747     62749
     62751     62750     62752     62754     62753     62755     62757     62756     62758
     62760     62759     62761     62763     62762     62764     62766     62765     62767
     62769     62768     62770     62772     62771     62773     62775     62774     62776
     62778     62777     62779     62781     62780     62782     62784     62783     62785
     62787     62786     62788     62790     62789     62791     62793     62792     62794
     62796     62795     62797     62799     62798     62800     62802     62801     62803
     62805     62804     62806     62808     62807     62809     62811     62810     62812
     62814     62813     62815     62817     62816     62818     62820     62819     62821
     62823     62822     62824     62826     62825     62827     62829     62828     62830
     62832     62831     62833     62835     62834     62836     62838     62837     62839
     62841     62840     62842     62844     62843     62845     62847     62846     62848
     62850     62849     62851     62853     62852     62854     62856     62855     62857
     62859     62858     62860     62862     62861     62863     62865     62864     62866
     62868     62867     62869     62871     62870     62872     62874     62873     62875
     62877     62876     62878     62880     62879     62881     62883     62882     62884
     62886     62885     62887     62889     62888     62890     62892     62891     62893
     62895     62894     62896     62898     62897     62899     62901     62900     62902
     62904     62903     62905     62907     62906     62908     62910     62909     62911
     62913     62912     62914     62916     62915     62917     62919     62918     62920
     62922     62921     62923     62925     62924     62926     62928     62927     62929
     62931     62930     62932     62934     62933     62935     62937     62936     62938
     62940     62939     62941     62943     62942     62944     62946     62945     62947
     62949     62948     62950     62952     62951     62953     62955     62954     62956
     62958     62957     62959     62961     62960     62962     62964     62963     62965
     62967     62966     62968     62970     62969     62971     62973     62972     62974
     62976     62975     62977     62979     62978     62980     62982     62981     62983
     62985     62984     62986     62988     62987     62989     62991     62990     62992
     62994     62993     62995     62997     62996     62998     63000     62999     63001
     63003     63002     63004     63006     63005     63007     63009     63008     63010
     63012     63011     63013     63015     63014     63016     63018     63017     63019
     63021     63020     63022     63024     63023     63025     63027     63026     63028
     63030     63029     63031     63033     63032     63034     63036     63035     63037
     63039     63038     63040     63042     63041     63043     63045     63044     63046
     63048     63047     63049     63051     63050     63052     63054     63053     63055
     63057     63056     63058     63060     63059     63061     63063     63062     63064
     63066     63065     63067     63069     63068     63070     63072     63071     63073
     63075     63074     63076     63078     63077     63079     63081     63080     63082
     63084     63083     63085     63087     63086     63088     63090     63089     63091
     63093     63092     63094     63096     63095     63097     63099     63098     63100
     63102     63101     63103     63105     63104     63106     63108     63107     63109
     63111     63110     63112     63114     63113     63115     63117     63116     63118
     63120     63119     63121     63123     63122     63124     63126     63125     63127
     63129     63128     63130     63132     63131     63133     63135     63134     63136
     63138     63137     63139     63141     63140     63142     63144     63143     63145
     63147     63146     63148     63150     63149     63151     63153     63152     63154
     63156     63155     63157     63159     63158     63160     63162     63161     63163
     63165     63164     63166     63168     63167     63169     63171     63170     63172
     63174     63173     63175     63177     63176     63178     63180     63179     63181
     63183     63182     63184     63186     63185     63187     63189     63188     63190
     63192     63191     63193     63195     63194     63196     63198     63197     63199
     63201     63200     63202     63204     63203     63205     63207     63206     63208
     63210     63209     63211     63213     63212     63214     63216     63215     63217
     63219     63218     63220     63222     63221     63223     63225     63224     63226
     63228     63227     63229     63231     63230     63232     63234     63233     63235
     63237     63236     63238     63240     63239     63241     63243     63242     63244
     63246     63245     63247     63249     63248     63250     63252     63251     63253
     63255     63254     63256     63258     63257     63259     63261     63260     63262
     63264     63263     63265     63267     63266     63268     63270     63269     63271
     63273     63272     63274     63276     63275     63277     63279     63278     63280
     63282     63281     63283     63285     63284     63286     63288     63287     63289
     63291     63290     63292     63294     63293     63295     63297     63296     63298
     63300     63299     63301     63303     63302     63304     63306     63305     63307
     63309     63308     63310     63312     63311     63313     63315     63314     63316
     63318     63317     63319     63321     63320     63322     63324     63323     63325
     63327     63326     63328     63330     63329     63331     63333     63332     63334
     63336     63335     63337     63339     63338     63340     63342     63341     63343
     63345     63344     63346     63348     63347     63349     63351     63350     63352
     63354     63353     63355     63357     63356     63358     63360     63359     63361
     63363     63362     63364     63366     63365     63367     63369     63368     63370
     63372     63371     63373     63375     63374     63376     63378     63377     63379
     63381     63380     63382     63384     63383     63385     63387     63386     63388
     63390     63389     63391     63393     63392     63394     63396     63395     63397
     63399     63398     63400     63402     63401     63403     63405     63404     63406
     63408     63407     63409     63411     63410     63412     63414     63413     63415
     63417     63416     63418     63420     63419     63421     63423     63422     63424
     63426     63425     63427     63429     63428     63430     63432     63431     63433
     63435     63434     63436     63438     63437     63439     63441     63440     63442
     63444     63443     63445     63447     63446     63448     63450     63449     63451
     63453     63452     63454     63456     63455     63457     63459     63458     63460
     63462     63461     63463     63465     63464     63466     63468     63467     63469
     63471     63470     63472     63474     63473     63475     63477     63476     63478
     63480     63479     63481     63483     63482     63484     63486     63485     63487
     63489     63488     63490     63492     63491     63493     63495     63494     63496
     63498     63497     63499     63501     63500     63502     63504     63503     63505
     63507     63506     63508     63510     63509     63511     63513     63512     63514
     63516     63515     63517     63519     63518     63520     63522     63521     63523
     63525     63524     63526     63528     63527     63529     63531     63530     63532
     63534     63533     63535     63537     63536     63538     63540     63539     63541
     63543     63542     63544     63546     63545     63547     63549     63548     63550
     63552     63551     63553     63555     63554     63556     63558     63557     63559
     63561     63560     63562     63564     63563     63565     63567     63566     63568
     63570     63569     63571     63573     63572     63574     63576     63575     63577
     63579     63578     63580     63582     63581     63583     63585     63584     63586
     63588     63587     63589     63591     63590     63592     63594     63593     63595
     63597     63596     63598     63600     63599     63601     63603     63602     63604
     63606     63605     63607     63609     63608     63610     63612     63611     63613
     63615     63614     63616     63618     63617     63619     63621     63620     63622
     63624     63623     63625     63627     63626     63628     63630     63629     63631
     63633     63632     63634     63636     63635     63637     63639     63638     63640
     63642     63641     63643     63645     63644     63646     63648     63647     63649
     63651     63650     63652     63654     63653     63655     63657     63656     63658
     63660     63659     63661     63663     63662     63664     63666     63665     63667
     63669     63668     63670     63672     63671     63673     63675     63674     63676
     63678     63677     63679     63681     63680     63682     63684     63683     63685
     63687     63686     63688     63690     63689     63691     63693     63692     63694
     63696     63695     63697     63699     63698     63700     63702     63701     63703
     63705     63704     63706     63708     63707     63709     63711     63710     63712
     63714     63713     63715     63717     63716     63718     63720     63719     63721
     63723     63722     63724     63726     63725     63727     63729     63728     63730
     63732     63731     63733     63735     63734     63736     63738     63737     63739
     63741     63740     63742     63744     63743     63745     63747     63746     63748
     63750     63749     63751     63753     63752     63754     63756     63755     63757
     63759     63758     63760     63762     63761     63763     63765     63764     63766
     63768     63767     63769     63771     63770     63772     63774     63773     63775
     63777     63776     63778     63780     63779     63781     63783     63782     63784
     63786     63785     63787     63789     63788     63790     63792     63791     63793
     63795     63794     63796     63798     63797     63799     63801     63800     63802
     63804     63803     63805     63807     63806     63808     63810     63809     63811
     63813     63812     63814     63816     63815     63817     63819     63818     63820
     63822     63821     63823     63825     63824     63826     63828     63827     63829
     63831     63830     63832     63834     63833     63835     63837     63836     63838
     63840     63839     63841     63843     63842     63844     63846     63845     63847
     63849     63848     63850     63852     63851     63853     63855     63854     63856
     63858     63857     63859     63861     63860     63862     63864     63863     63865
     63867     63866     63868     63870     63869     63871     63873     63872     63874
     63876     63875     63877     63879     63878     63880     63882     63881     63883
     63885     63884     63886     63888     63887     63889     63891     63890     63892
     63894     63893     63895     63897     63896     63898     63900     63899     63901
     63903     63902     63904     63906     63905     63907     63909     63908     63910
     63912     63911     63913     63915     63914     63916     63918     63917     63919
     63921     63920     63922     63924     63923     63925     63927     63926     63928
     63930     63929     63931     63933     63932     63934     63936     63935     63937
     63939     63938     63940     63942     63941     63943     63945     63944     63946
     63948     63947     63949     63951     63950     63952     63954     63953     63955
     63957     63956     63958     63960     63959     63961     63963     63962     63964
     63966     63965     63967     63969     63968     63970     63972     63971     63973
     63975     63974     63976     63978     63977     63979     63981     63980     63982
     63984     63983     63985     63987     63986     63988     63990     63989     63991
     63993     63992     63994     63996     63995     63997     63999     63998     64000
     64002     64001     64003     64005     64004     64006     64008     64007     64009
     64011     64010     64012     64014     64013     64015     64017     64016     64018
     64020     64019     64021     64023     64022     64024     64026     64025     64027
     64029     64028     64030     64032     64031     64033     64035     64034     64036
     64038     64037     64039     64041     64040     64042     64044     64043     64045
     64047     64046     64048     64050     64049     64051     64053     64052     64054
     64056     64055     64057     64059     64058     64060     64062     64061     64063
     64065     64064     64066     64068     64067     64069     64071     64070     64072
     64074     64073     64075     64077     64076     64078     64080     64079     64081
     64083     64082     64084     64086     64085     64087     64089     64088     64090
     64092     64091     64093     64095     64094     64096     64098     64097     64099
     64101     64100     64102     64104     64103     64105     64107     64106     64108
     64110     64109     64111     64113     64112     64114     64116     64115     64117
     64119     64118     64120     64122     64121     64123     64125     64124     64126
     64128     64127     64129     64131     64130     64132     64134     64133     64135
     64137     64136     64138     64140     64139     64141     64143     64142     64144
     64146     64145     64147     64149     64148     64150     64152     64151     64153
     64155     64154     64156     64158     64157     64159     64161     64160     64162
     64164     64163     64165     64167     64166     64168     64170     64169     64171
     64173     64172     64174     64176     64175     64177     64179     64178     64180
     64182     64181     64183     64185     64184     64186     64188     64187     64189
     64191     64190     64192     64194     64193     64195     64197     64196     64198
     64200     64199     64201     64203     64202     64204     64206     64205     64207
     64209     64208     64210     64212     64211     64213     64215     64214     64216
     64218     64217     64219     64221     64220     64222     64224     64223     64225
     64227     64226     64228     64230     64229     64231     64233     64232     64234
     64236     64235     64237     64239     64238     64240     64242     64241     64243
     64245     64244     64246     64248     64247     64249     64251     64250     64252
     64254     64253     64255     64257     64256     64258     64260     64259     64261
     64263     64262     64264     64266     64265     64267     64269     64268     64270
     64272     64271     64273     64275     64274     64276     64278     64277     64279
     64281     64280     64282     64284     64283     64285     64287     64286     64288
     64290     64289     64291     64293     64292     64294     64296     64295     64297
     64299     64298     64300     64302     64301     64303     64305     64304     64306
     64308     64307     64309     64311     64310     64312     64314     64313     64315
     64317     64316     64318     64320     64319     64321     64323     64322     64324
     64326     64325     64327     64329     64328     64330     64332     64331     64333
     64335     64334     64336     64338     64337     64339     64341     64340     64342
     64344     64343     64345     64347     64346     64348     64350     64349     64351
     64353     64352     64354     64356     64355     64357     64359     64358     64360
     64362     64361     64363     64365     64364     64366     64368     64367     64369
     64371     64370     64372     64374     64373     64375     64377     64376     64378
     64380     64379     64381     64383     64382     64384     64386     64385     64387
     64389     64388     64390     64392     64391     64393     64395     64394     64396
     64398     64397     64399     64401     64400     64402     64404     64403     64405
     64407     64406     64408     64410     64409     64411     64413     64412     64414
     64416     64415     64417     64419     64418     64420     64422     64421     64423
     64425     64424     64426     64428     64427     64429     64431     64430     64432
     64434     64433     64435     64437     64436     64438     64440     64439     64441
     64443     64442     64444     64446     64445     64447     64449     64448     64450
     64452     64451     64453     64455     64454     64456     64458     64457     64459
     64461     64460     64462     64464     64463     64465     64467     64466     64468
     64470     64469     64471     64473     64472     64474     64476     64475     64477
     64479     64478     64480     64482     64481     64483     64485     64484     64486
     64488     64487     64489     64491     64490     64492     64494     64493     64495
     64497     64496     64498     64500     64499     64501     64503     64502     64504
     64506     64505     64507     64509     64508     64510     64512     64511     64513
     64515     64514     64516     64518     64517     64519     64521     64520     64522
     64524     64523     64525     64527     64526     64528     64530     64529     64531
     64533     64532     64534     64536     64535     64537     64539     64538     64540
     64542     64541     64543     64545     64544     64546     64548     64547     64549
     64551     64550     64552     64554     64553     64555     64557     64556     64558
     64560     64559     64561     64563     64562     64564     64566     64565     64567
     64569     64568     64570     64572     64571     64573     64575     64574     64576
     64578     64577     64579     64581     64580     64582     64584     64583     64585
     64587     64586     64588     64590     64589     64591     64593     64592     64594
     64596     64595     64597     64599     64598     64600     64602     64601     64603
     64605     64604     64606     64608     64607     64609     64611     64610     64612
     64614     64613     64615     64617     64616     64618     64620     64619     64621
     64623     64622     64624     64626     64625     64627     64629     64628     64630
     64632     64631     64633     64635     64634     64636     64638     64637     64639
     64641     64640     64642     64644     64643     64645     64647     64646     64648
     64650     64649     64651     64653     64652     64654     64656     64655     64657
     64659     64658     64660     64662     64661     64663     64665     64664     64666
     64668     64667     64669     64671     64670     64672     64674     64673     64675
     64677     64676     64678     64680     64679     64681     64683     64682     64684
     64686     64685     64687     64689     64688     64690     64692     64691     64693
     64695     64694     64696     64698     64697     64699     64701     64700     64702
     64704     64703     64705     64707     64706     64708     64710     64709     64711
     64713     64712     64714     64716     64715     64717     64719     64718     64720
     64722     64721     64723     64725     64724     64726     64728     64727     64729
     64731     64730     64732     64734     64733     64735     64737     64736     64738
     64740     64739     64741     64743     64742     64744     64746     64745     64747
     64749     64748     64750     64752     64751     64753     64755     64754     64756
     64758     64757     64759     64761     64760     64762     64764     64763     64765
     64767     64766     64768     64770     64769     64771     64773     64772     64774
     64776     64775     64777     64779     64778     64780     64782     64781     64783
     64785     64784     64786     64788     64787     64789     64791     64790     64792
     64794     64793     64795     64797     64796     64798     64800     64799     64801
     64803     64802     64804     64806     64805     64807     64809     64808     64810
     64812     64811     64813     64815     64814     64816     64818     64817     64819
     64821     64820     64822     64824     64823     64825     64827     64826     64828
     64830     64829     64831     64833     64832     64834     64836     64835     64837
     64839     64838     64840     64842     64841     64843     64845     64844     64846
     64848     64847     64849     64851     64850     64852     64854     64853     64855
     64857     64856     64858     64860     64859     64861     64863     64862     64864
     64866     64865     64867     64869     64868     64870     64872     64871     64873
     64875     64874     64876     64878     64877     64879     64881     64880     64882
     64884     64883     64885     64887     64886     64888     64890     64889     64891
     64893     64892     64894     64896     64895     64897     64899     64898     64900
     64902     64901     64903     64905     64904     64906     64908     64907     64909
     64911     64910     64912     64914     64913     64915     64917     64916     64918
     64920     64919     64921     64923     64922     64924     64926     64925     64927
     64929     64928     64930     64932     64931     64933     64935     64934     64936
     64938     64937     64939     64941     64940     64942     64944     64943     64945
     64947     64946     64948     64950     64949     64951     64953     64952     64954
     64956     64955     64957     64959     64958     64960     64962     64961     64963
     64965     64964     64966     64968     64967     64969     64971     64970     64972
     64974     64973     64975     64977     64976     64978     64980     64979     64981
     64983     64982     64984     64986     64985     64987     64989     64988     64990
     64992     64991     64993     64995     64994     64996     64998     64997     64999
     65001     65000     65002     65004     65003     65005     65007     65006     65008
     65010     65009     65011     65013     65012     65014     65016     65015     65017
     65019     65018     65020     65022     65021     65023     65025     65024     65026
     65028     65027     65029     65031     65030     65032     65034     65033     65035
     65037     65036     65038     65040     65039     65041     65043     65042     65044
     65046     65045     65047     65049     65048     65050     65052     65051     65053
     65055     65054     65056     65058     65057     65059     65061     65060     65062
     65064     65063     65065     65067     65066     65068     65070     65069     65071
     65073     65072     65074     65076     65075     65077     65079     65078     65080
     65082     65081     65083     65085     65084     65086     65088     65087     65089
     65091     65090     65092     65094     65093     65095     65097     65096     65098
     65100     65099     65101     65103     65102     65104     65106     65105     65107
     65109     65108     65110     65112     65111     65113     65115     65114     65116
     65118     65117     65119     65121     65120     65122     65124     65123     65125
     65127     65126     65128     65130     65129     65131     65133     65132     65134
     65136     65135     65137     65139     65138     65140     65142     65141     65143
     65145     65144     65146     65148     65147     65149     65151     65150     65152
     65154     65153     65155     65157     65156     65158     65160     65159     65161
     65163     65162     65164     65166     65165     65167     65169     65168     65170
     65172     65171     65173     65175     65174     65176     65178     65177     65179
     65181     65180     65182     65184     65183     65185     65187     65186     65188
     65190     65189     65191     65193     65192     65194     65196     65195     65197
     65199     65198     65200     65202     65201     65203     65205     65204     65206
     65208     65207     65209     65211     65210     65212     65214     65213     65215
     65217     65216     65218     65220     65219     65221     65223     65222     65224
     65226     65225     65227     65229     65228     65230     65232     65231     65233
     65235     65234     65236     65238     65237     65239     65241     65240     65242
     65244     65243     65245     65247     65246     65248     65250     65249     65251
     65253     65252     65254     65256     65255     65257     65259     65258     65260
     65262     65261     65263     65265     65264     65266     65268     65267     65269
     65271     65270     65272     65274     65273     65275     65277     65276     65278
     65280     65279     65281     65283     65282     65284     65286     65285     65287
     65289     65288     65290     65292     65291     65293     65295     65294     65296
     65298     65297     65299     65301     65300     65302     65304     65303     65305
     65307     65306     65308     65310     65309     65311     65313     65312     65314
     65316     65315     65317     65319     65318     65320     65322     65321     65323
     65325     65324     65326     65328     65327     65329     65331     65330     65332
     65334     65333     65335     65337     65336     65338     65340     65339     65341
     65343     65342     65344     65346     65345     65347     65349     65348     65350
     65352     65351     65353     65355     65354     65356     65358     65357     65359
     65361     65360     65362     65364     65363     65365     65367     65366     65368
     65370     65369     65371     65373     65372     65374     65376     65375     65377
     65379     65378     65380     65382     65381     65383     65385     65384     65386
     65388     65387     65389     65391     65390     65392     65394     65393     65395
     65397     65396     65398     65400     65399     65401     65403     65402     65404
     65406     65405     65407     65409     65408     65410     65412     65411     65413
     65415     65414     65416     65418     65417     65419     65421     65420     65422
     65424     65423     65425     65427     65426     65428     65430     65429     65431
     65433     65432     65434     65436     65435     65437     65439     65438     65440
     65442     65441     65443     65445     65444     65446     65448     65447     65449
     65451     65450     65452     65454     65453     65455     65457     65456     65458
     65460     65459     65461     65463     65462     65464     65466     65465     65467
     65469     65468     65470     65472     65471     65473     65475     65474     65476
     65478     65477     65479     65481     65480     65482     65484     65483     65485
     65487     65486     65488     65490     65489     65491     65493     65492     65494
     65496     65495     65497     65499     65498     65500     65502     65501     65503
     65505     65504     65506     65508     65507     65509     65511     65510     65512
     65514     65513     65515     65517     65516     65518     65520     65519     65521
     65523     65522     65524     65526     65525     65527     65529     65528     65530
     65532     65531     65533     65535     65534     65536     65538     65537     65539
     65541     65540     65542     65544     65543     65545     65547     65546     65548
     65550     65549     65551     65553     65552     65554     65556     65555     65557
     65559     65558     65560     65562     65561     65563     65565     65564     65566
     65568     65567     65569     65571     65570     65572     65574     65573     65575
     65577     65576     65578     65580     65579     65581     65583     65582     65584
     65586     65585     65587     65589     65588     65590     65592     65591     65593
     65595     65594     65596     65598     65597     65599     65601     65600     65602
     65604     65603     65605     65607     65606     65608     65610     65609     65611
     65613     65612     65614     65616     65615     65617     65619     65618     65620
     65622     65621     65623     65625     65624     65626     65628     65627     65629
     65631     65630     65632     65634     65633     65635     65637     65636     65638
     65640     65639     65641     65643     65642     65644     65646     65645     65647
     65649     65648     65650     65652     65651     65653     65655     65654     65656
     65658     65657     65659     65661     65660     65662     65664     65663     65665
     65667     65666     65668     65670     65669     65671     65673     65672     65674
     65676     65675     65677     65679     65678     65680     65682     65681     65683
     65685     65684     65686     65688     65687     65689     65691     65690     65692
     65694     65693     65695     65697     65696     65698     65700     65699     65701
     65703     65702     65704     65706     65705     65707     65709     65708     65710
     65712     65711     65713     65715     65714     65716     65718     65717     65719
     65721     65720     65722     65724     65723     65725     65727     65726     65728
     65730     65729     65731     65733     65732     65734     65736     65735     65737
     65739     65738     65740     65742     65741     65743     65745     65744     65746
     65748     65747     65749     65751     65750     65752     65754     65753     65755
     65757     65756     65758     65760     65759     65761     65763     65762     65764
     65766     65765     65767     65769     65768     65770     65772     65771     65773
     65775     65774     65776     65778     65777     65779     65781     65780     65782
     65784     65783     65785     65787     65786     65788     65790     65789     65791
     65793     65792     65794     65796     65795     65797     65799     65798     65800
     65802     65801     65803     65805     65804     65806     65808     65807     65809
     65811     65810     65812     65814     65813     65815     65817     65816     65818
     65820     65819     65821     65823     65822     65824     65826     65825     65827
     65829     65828     65830     65832     65831     65833     65835     65834     65836
     65838     65837     65839     65841     65840     65842     65844     65843     65845
     65847     65846     65848     65850     65849     65851     65853     65852     65854
     65856     65855     65857     65859     65858     65860     65862     65861     65863
     65865     65864     65866     65868     65867     65869     65871     65870     65872
     65874     65873     65875     65877     65876     65878     65880     65879     65881
     65883     65882     65884     65886     65885     65887     65889     65888     65890
     65892     65891     65893     65895     65894     65896     65898     65897     65899
     65901     65900     65902     65904     65903     65905     65907     65906     65908
     65910     65909     65911     65913     65912     65914     65916     65915     65917
     65919     65918     65920     65922     65921     65923     65925     65924     65926
     65928     65927     65929     65931     65930     65932     65934     65933     65935
     65937     65936     65938     65940     65939     65941     65943     65942     65944
     65946     65945     65947     65949     65948     65950     65952     65951     65953
     65955     65954     65956     65958     65957     65959     65961     65960     65962
     65964     65963     65965     65967     65966     65968     65970     65969     65971
     65973     65972     65974     65976     65975     65977     65979     65978     65980
     65982     65981     65983     65985     65984     65986     65988     65987     65989
     65991     65990     65992     65994     65993     65995     65997     65996     65998
     66000     65999     66001     66003     66002     66004     66006     66005     66007
     66009     66008     66010     66012     66011     66013     66015     66014     66016
     66018     66017     66019     66021     66020     66022     66024     66023     66025
     66027     66026     66028     66030     66029     66031     66033     66032     66034
     66036     66035     66037     66039     66038     66040     66042     66041     66043
     66045     66044     66046     66048     66047     66049     66051     66050     66052
     66054     66053     66055     66057     66056     66058     66060     66059     66061
     66063     66062     66064     66066     66065     66067     66069     66068     66070
     66072     66071     66073     66075     66074     66076     66078     66077     66079
     66081     66080     66082     66084     66083     66085     66087     66086     66088
     66090     66089     66091     66093     66092     66094     66096     66095     66097
     66099     66098     66100     66102     66101     66103     66105     66104     66106
     66108     66107     66109     66111     66110     66112     66114     66113     66115
     66117     66116     66118     66120     66119     66121     66123     66122     66124
     66126     66125     66127     66129     66128     66130     66132     66131     66133
     66135     66134     66136     66138     66137     66139     66141     66140     66142
     66144     66143     66145     66147     66146     66148     66150     66149     66151
     66153     66152     66154     66156     66155     66157     66159     66158     66160
     66162     66161     66163     66165     66164     66166     66168     66167     66169
     66171     66170     66172     66174     66173     66175     66177     66176     66178
     66180     66179     66181     66183     66182     66184     66186     66185     66187
     66189     66188     66190     66192     66191     66193     66195     66194     66196
     66198     66197     66199     66201     66200     66202     66204     66203     66205
     66207     66206     66208     66210     66209     66211     66213     66212     66214
     66216     66215     66217     66219     66218     66220     66222     66221     66223
     66225     66224     66226     66228     66227     66229     66231     66230     66232
     66234     66233     66235     66237     66236     66238     66240     66239     66241
     66243     66242     66244     66246     66245     66247     66249     66248     66250
     66252     66251     66253     66255     66254     66256     66258     66257     66259
     66261     66260     66262     66264     66263     66265     66267     66266     66268
     66270     66269     66271     66273     66272     66274     66276     66275     66277
     66279     66278     66280     66282     66281     66283     66285     66284     66286
     66288     66287     66289     66291     66290     66292     66294     66293     66295
     66297     66296     66298     66300     66299     66301     66303     66302     66304
     66306     66305     66307     66309     66308     66310     66312     66311     66313
     66315     66314     66316     66318     66317     66319     66321     66320     66322
     66324     66323     66325     66327     66326     66328     66330     66329     66331
     66333     66332     66334     66336     66335     66337     66339     66338     66340
     66342     66341     66343     66345     66344     66346     66348     66347     66349
     66351     66350     66352     66354     66353     66355     66357     66356     66358
     66360     66359     66361     66363     66362     66364     66366     66365     66367
     66369     66368     66370     66372     66371     66373     66375     66374     66376
     66378     66377     66379     66381     66380     66382     66384     66383     66385
     66387     66386     66388     66390     66389     66391     66393     66392     66394
     66396     66395     66397     66399     66398     66400     66402     66401     66403
     66405     66404     66406     66408     66407     66409     66411     66410     66412
     66414     66413     66415     66417     66416     66418     66420     66419     66421
     66423     66422     66424     66426     66425     66427     66429     66428     66430
     66432     66431     66433     66435     66434     66436     66438     66437     66439
     66441     66440     66442     66444     66443     66445     66447     66446     66448
     66450     66449     66451     66453     66452     66454     66456     66455     66457
     66459     66458     66460     66462     66461     66463     66465     66464     66466
     66468     66467     66469     66471     66470     66472     66474     66473     66475
     66477     66476     66478     66480     66479     66481     66483     66482     66484
     66486     66485     66487     66489     66488     66490     66492     66491     66493
     66495     66494     66496     66498     66497     66499     66501     66500     66502
     66504     66503     66505     66507     66506     66508     66510     66509     66511
     66513     66512     66514     66516     66515     66517     66519     66518     66520
     66522     66521     66523     66525     66524     66526     66528     66527     66529
     66531     66530     66532     66534     66533     66535     66537     66536     66538
     66540     66539     66541     66543     66542     66544     66546     66545     66547
     66549     66548     66550     66552     66551     66553     66555     66554     66556
     66558     66557     66559     66561     66560     66562     66564     66563     66565
     66567     66566     66568     66570     66569     66571     66573     66572     66574
     66576     66575     66577     66579     66578     66580     66582     66581     66583
     66585     66584     66586     66588     66587     66589     66591     66590     66592
     66594     66593     66595     66597     66596     66598     66600     66599     66601
     66603     66602     66604     66606     66605     66607     66609     66608     66610
     66612     66611     66613     66615     66614     66616     66618     66617     66619
     66621     66620     66622     66624     66623     66625     66627     66626     66628
     66630     66629     66631     66633     66632     66634     66636     66635     66637
     66639     66638     66640     66642     66641     66643     66645     66644     66646
     66648     66647     66649     66651     66650     66652     66654     66653     66655
     66657     66656     66658     66660     66659     66661     66663     66662     66664
     66666     66665     66667     66669     66668     66670     66672     66671     66673
     66675     66674     66676     66678     66677     66679     66681     66680     66682
     66684     66683     66685     66687     66686     66688     66690     66689     66691
     66693     66692     66694     66696     66695     66697     66699     66698     66700
     66702     66701     66703     66705     66704     66706     66708     66707     66709
     66711     66710     66712     66714     66713     66715     66717     66716     66718
     66720     66719     66721     66723     66722     66724     66726     66725     66727
     66729     66728     66730     66732     66731     66733     66735     66734     66736
     66738     66737     66739     66741     66740     66742     66744     66743     66745
     66747     66746     66748     66750     66749     66751     66753     66752     66754
     66756     66755     66757     66759     66758     66760     66762     66761     66763
     66765     66764     66766     66768     66767     66769     66771     66770     66772
     66774     66773     66775     66777     66776     66778     66780     66779     66781
     66783     66782     66784     66786     66785     66787     66789     66788     66790
     66792     66791     66793     66795     66794     66796     66798     66797     66799
     66801     66800     66802     66804     66803     66805     66807     66806     66808
     66810     66809     66811     66813     66812     66814     66816     66815     66817
     66819     66818     66820     66822     66821     66823     66825     66824     66826
     66828     66827     66829     66831     66830     66832     66834     66833     66835
     66837     66836     66838     66840     66839     66841     66843     66842     66844
     66846     66845     66847     66849     66848     66850     66852     66851     66853
     66855     66854     66856     66858     66857     66859     66861     66860     66862
     66864     66863     66865     66867     66866     66868     66870     66869     66871
     66873     66872     66874     66876     66875     66877     66879     66878     66880
     66882     66881     66883     66885     66884     66886     66888     66887     66889
     66891     66890     66892     66894     66893     66895     66897     66896     66898
     66900     66899     66901     66903     66902     66904     66906     66905     66907
     66909     66908     66910     66912     66911     66913     66915     66914     66916
     66918     66917     66919     66921     66920     66922     66924     66923     66925
     66927     66926     66928     66930     66929     66931     66933     66932     66934
     66936     66935     66937     66939     66938     66940     66942     66941     66943
     66945     66944     66946     66948     66947     66949     66951     66950     66952
     66954     66953     66955     66957     66956     66958     66960     66959     66961
     66963     66962     66964     66966     66965     66967     66969     66968     66970
     66972     66971     66973     66975     66974     66976     66978     66977     66979
     66981     66980     66982     66984     66983     66985     66987     66986     66988
     66990     66989     66991     66993     66992     66994     66996     66995     66997
     66999     66998     67000     67002     67001     67003     67005     67004     67006
     67008     67007     67009     67011     67010     67012     67014     67013     67015
     67017     67016     67018     67020     67019     67021     67023     67022     67024
     67026     67025     67027     67029     67028     67030     67032     67031     67033
     67035     67034     67036     67038     67037     67039     67041     67040     67042
     67044     67043     67045     67047     67046     67048     67050     67049     67051
     67053     67052     67054     67056     67055     67057     67059     67058     67060
     67062     67061     67063     67065     67064     67066     67068     67067     67069
     67071     67070     67072     67074     67073     67075     67077     67076     67078
     67080     67079     67081     67083     67082     67084     67086     67085     67087
     67089     67088     67090     67092     67091     67093     67095     67094     67096
     67098     67097     67099     67101     67100     67102     67104     67103     67105
     67107     67106     67108     67110     67109     67111     67113     67112     67114
     67116     67115     67117     67119     67118     67120     67122     67121     67123
     67125     67124     67126     67128     67127     67129     67131     67130     67132
     67134     67133     67135     67137     67136     67138     67140     67139     67141
     67143     67142     67144     67146     67145     67147     67149     67148     67150
     67152     67151     67153     67155     67154     67156     67158     67157     67159
     67161     67160     67162     67164     67163     67165     67167     67166     67168
     67170     67169     67171     67173     67172     67174     67176     67175     67177
     67179     67178     67180     67182     67181     67183     67185     67184     67186
     67188     67187     67189     67191     67190     67192     67194     67193     67195
     67197     67196     67198     67200     67199     67201     67203     67202     67204
     67206     67205     67207     67209     67208     67210     67212     67211     67213
     67215     67214     67216     67218     67217     67219     67221     67220     67222
     67224     67223     67225     67227     67226     67228     67230     67229     67231
     67233     67232     67234     67236     67235     67237     67239     67238     67240
     67242     67241     67243     67245     67244     67246     67248     67247     67249
     67251     67250     67252     67254     67253     67255     67257     67256     67258
     67260     67259     67261     67263     67262     67264     67266     67265     67267
     67269     67268     67270     67272     67271     67273     67275     67274     67276
     67278     67277     67279     67281     67280     67282     67284     67283     67285
     67287     67286     67288     67290     67289     67291     67293     67292     67294
     67296     67295     67297     67299     67298     67300     67302     67301     67303
     67305     67304     67306     67308     67307     67309     67311     67310     67312
     67314     67313     67315     67317     67316     67318     67320     67319     67321
     67323     67322     67324     67326     67325     67327     67329     67328     67330
     67332     67331     67333     67335     67334     67336     67338     67337     67339
     67341     67340     67342     67344     67343     67345     67347     67346     67348
     67350     67349     67351     67353     67352     67354     67356     67355     67357
     67359     67358     67360     67362     67361     67363     67365     67364     67366
     67368     67367     67369     67371     67370     67372     67374     67373     67375
     67377     67376     67378     67380     67379     67381     67383     67382     67384
     67386     67385     67387     67389     67388     67390     67392     67391     67393
     67395     67394     67396     67398     67397     67399     67401     67400     67402
     67404     67403     67405     67407     67406     67408     67410     67409     67411
     67413     67412     67414     67416     67415     67417     67419     67418     67420
     67422     67421     67423     67425     67424     67426     67428     67427     67429
     67431     67430     67432     67434     67433     67435     67437     67436     67438
     67440     67439     67441     67443     67442     67444     67446     67445     67447
     67449     67448     67450     67452     67451     67453     67455     67454     67456
     67458     67457     67459     67461     67460     67462     67464     67463     67465
     67467     67466     67468     67470     67469     67471     67473     67472     67474
     67476     67475     67477     67479     67478     67480     67482     67481     67483
     67485     67484     67486     67488     67487     67489     67491     67490     67492
     67494     67493     67495     67497     67496     67498     67500     67499     67501
     67503     67502     67504     67506     67505     67507     67509     67508     67510
     67512     67511     67513     67515     67514     67516     67518     67517     67519
     67521     67520     67522     67524     67523     67525     67527     67526     67528
     67530     67529     67531     67533     67532     67534     67536     67535     67537
     67539     67538     67540     67542     67541     67543     67545     67544     67546
     67548     67547     67549     67551     67550     67552     67554     67553     67555
     67557     67556     67558     67560     67559     67561     67563     67562     67564
     67566     67565     67567     67569     67568     67570     67572     67571     67573
     67575     67574     67576     67578     67577     67579     67581     67580     67582
     67584     67583     67585     67587     67586     67588     67590     67589     67591
     67593     67592     67594     67596     67595     67597     67599     67598     67600
     67602     67601     67603     67605     67604     67606     67608     67607     67609
     67611     67610     67612     67614     67613     67615     67617     67616     67618
     67620     67619     67621     67623     67622     67624     67626     67625     67627
     67629     67628     67630     67632     67631     67633     67635     67634     67636
     67638     67637     67639     67641     67640     67642     67644     67643     67645
     67647     67646     67648     67650     67649     67651     67653     67652     67654
     67656     67655     67657     67659     67658     67660     67662     67661     67663
     67665     67664     67666     67668     67667     67669     67671     67670     67672
     67674     67673     67675     67677     67676     67678     67680     67679     67681
     67683     67682     67684     67686     67685     67687     67689     67688     67690
     67692     67691     67693     67695     67694     67696     67698     67697     67699
     67701     67700     67702     67704     67703     67705     67707     67706     67708
     67710     67709     67711     67713     67712     67714     67716     67715     67717
     67719     67718     67720     67722     67721     67723     67725     67724     67726
     67728     67727     67729     67731     67730     67732     67734     67733     67735
     67737     67736     67738     67740     67739     67741     67743     67742     67744
     67746     67745     67747     67749     67748     67750     67752     67751     67753
     67755     67754     67756     67758     67757     67759     67761     67760     67762
     67764     67763     67765     67767     67766     67768     67770     67769     67771
     67773     67772     67774     67776     67775     67777     67779     67778     67780
     67782     67781     67783     67785     67784     67786     67788     67787     67789
     67791     67790     67792     67794     67793     67795     67797     67796     67798
     67800     67799     67801     67803     67802     67804     67806     67805     67807
     67809     67808     67810     67812     67811     67813     67815     67814     67816
     67818     67817     67819     67821     67820     67822     67824     67823     67825
     67827     67826     67828     67830     67829     67831     67833     67832     67834
     67836     67835     67837     67839     67838     67840     67842     67841     67843
     67845     67844     67846     67848     67847     67849     67851     67850     67852
     67854     67853     67855     67857     67856     67858     67860     67859     67861
     67863     67862     67864     67866     67865     67867     67869     67868     67870
     67872     67871     67873     67875     67874     67876     67878     67877     67879
     67881     67880     67882     67884     67883     67885     67887     67886     67888
     67890     67889     67891     67893     67892     67894     67896     67895     67897
     67899     67898     67900     67902     67901     67903     67905     67904     67906
     67908     67907     67909     67911     67910     67912     67914     67913     67915
     67917     67916     67918     67920     67919     67921     67923     67922     67924
     67926     67925     67927     67929     67928     67930     67932     67931     67933
     67935     67934     67936     67938     67937     67939     67941     67940     67942
     67944     67943     67945     67947     67946     67948     67950     67949     67951
     67953     67952     67954     67956     67955     67957     67959     67958     67960
     67962     67961     67963     67965     67964     67966     67968     67967     67969
     67971     67970     67972     67974     67973     67975     67977     67976     67978
     67980     67979     67981     67983     67982     67984     67986     67985     67987
     67989     67988     67990     67992     67991     67993     67995     67994     67996
     67998     67997     67999     68001     68000     68002     68004     68003     68005
     68007     68006     68008     68010     68009     68011     68013     68012     68014
     68016     68015     68017     68019     68018     68020     68022     68021     68023
     68025     68024     68026     68028     68027     68029     68031     68030     68032
     68034     68033     68035     68037     68036     68038     68040     68039     68041
     68043     68042     68044     68046     68045     68047     68049     68048     68050
     68052     68051     68053     68055     68054     68056     68058     68057     68059
     68061     68060     68062     68064     68063     68065     68067     68066     68068
     68070     68069     68071     68073     68072     68074     68076     68075     68077
     68079     68078     68080     68082     68081     68083     68085     68084     68086
     68088     68087     68089     68091     68090     68092     68094     68093     68095
     68097     68096     68098     68100     68099     68101     68103     68102     68104
     68106     68105     68107     68109     68108     68110     68112     68111     68113
     68115     68114     68116     68118     68117     68119     68121     68120     68122
     68124     68123     68125     68127     68126     68128     68130     68129     68131
     68133     68132     68134     68136     68135     68137     68139     68138     68140
     68142     68141     68143     68145     68144     68146     68148     68147     68149
     68151     68150     68152     68154     68153     68155     68157     68156     68158
     68160     68159     68161     68163     68162     68164     68166     68165     68167
     68169     68168     68170     68172     68171     68173     68175     68174     68176
     68178     68177     68179     68181     68180     68182     68184     68183     68185
     68187     68186     68188     68190     68189     68191     68193     68192     68194
     68196     68195     68197     68199     68198     68200     68202     68201     68203
     68205     68204     68206     68208     68207     68209     68211     68210     68212
     68214     68213     68215     68217     68216     68218     68220     68219     68221
     68223     68222     68224     68226     68225     68227     68229     68228     68230
     68232     68231     68233     68235     68234     68236     68238     68237     68239
     68241     68240     68242     68244     68243     68245     68247     68246     68248
     68250     68249     68251     68253     68252     68254     68256     68255     68257
     68259     68258     68260     68262     68261     68263     68265     68264     68266
     68268     68267     68269     68271     68270     68272     68274     68273     68275
     68277     68276     68278     68280     68279     68281     68283     68282     68284
     68286     68285     68287     68289     68288     68290     68292     68291     68293
     68295     68294     68296     68298     68297     68299     68301     68300     68302
     68304     68303     68305     68307     68306     68308     68310     68309     68311
     68313     68312     68314     68316     68315     68317     68319     68318     68320
     68322     68321     68323     68325     68324     68326     68328     68327     68329
     68331     68330     68332     68334     68333     68335     68337     68336     68338
     68340     68339     68341     68343     68342     68344     68346     68345     68347
     68349     68348     68350     68352     68351     68353     68355     68354     68356
     68358     68357     68359     68361     68360     68362     68364     68363     68365
     68367     68366     68368     68370     68369     68371     68373     68372     68374
     68376     68375     68377     68379     68378     68380     68382     68381     68383
     68385     68384     68386     68388     68387     68389     68391     68390     68392
     68394     68393     68395     68397     68396     68398     68400     68399     68401
     68403     68402     68404     68406     68405     68407     68409     68408     68410
     68412     68411     68413     68415     68414     68416     68418     68417     68419
     68421     68420     68422     68424     68423     68425     68427     68426     68428
     68430     68429     68431     68433     68432     68434     68436     68435     68437
     68439     68438     68440     68442     68441     68443     68445     68444     68446
     68448     68447     68449     68451     68450     68452     68454     68453     68455
     68457     68456     68458     68460     68459     68461     68463     68462     68464
     68466     68465     68467     68469     68468     68470     68472     68471     68473
     68475     68474     68476     68478     68477     68479     68481     68480     68482
     68484     68483     68485     68487     68486     68488     68490     68489     68491
     68493     68492     68494     68496     68495     68497     68499     68498     68500
     68502     68501     68503     68505     68504     68506     68508     68507     68509
     68511     68510     68512     68514     68513     68515     68517     68516     68518
     68520     68519     68521     68523     68522     68524     68526     68525     68527
     68529     68528     68530     68532     68531     68533     68535     68534     68536
     68538     68537     68539     68541     68540     68542     68544     68543     68545
     68547     68546     68548     68550     68549     68551     68553     68552     68554
     68556     68555     68557     68559     68558     68560     68562     68561     68563
     68565     68564     68566     68568     68567     68569     68571     68570     68572
     68574     68573     68575     68577     68576     68578     68580     68579     68581
     68583     68582     68584     68586     68585     68587     68589     68588     68590
     68592     68591     68593     68595     68594     68596     68598     68597     68599
     68601     68600     68602     68604     68603     68605     68607     68606     68608
     68610     68609     68611     68613     68612     68614     68616     68615     68617
     68619     68618     68620     68622     68621     68623     68625     68624     68626
     68628     68627     68629     68631     68630     68632     68634     68633     68635
     68637     68636     68638     68640     68639     68641     68643     68642     68644
     68646     68645     68647     68649     68648     68650     68652     68651     68653
     68655     68654     68656     68658     68657     68659     68661     68660     68662
     68664     68663     68665     68667     68666     68668     68670     68669     68671
     68673     68672     68674     68676     68675     68677     68679     68678     68680
     68682     68681     68683     68685     68684     68686     68688     68687     68689
     68691     68690     68692     68694     68693     68695     68697     68696     68698
     68700     68699     68701     68703     68702     68704     68706     68705     68707
     68709     68708     68710     68712     68711     68713     68715     68714     68716
     68718     68717     68719     68721     68720     68722     68724     68723     68725
     68727     68726     68728     68730     68729     68731     68733     68732     68734
     68736     68735     68737     68739     68738     68740     68742     68741     68743
     68745     68744     68746     68748     68747     68749     68751     68750     68752
     68754     68753     68755     68757     68756     68758     68760     68759     68761
     68763     68762     68764     68766     68765     68767     68769     68768     68770
     68772     68771     68773     68775     68774     68776     68778     68777     68779
     68781     68780     68782     68784     68783     68785     68787     68786     68788
     68790     68789     68791     68793     68792     68794     68796     68795     68797
     68799     68798     68800     68802     68801     68803     68805     68804     68806
     68808     68807     68809     68811     68810     68812     68814     68813     68815
     68817     68816     68818     68820     68819     68821     68823     68822     68824
     68826     68825     68827     68829     68828     68830     68832     68831     68833
     68835     68834     68836     68838     68837     68839     68841     68840     68842
     68844     68843     68845     68847     68846     68848     68850     68849     68851
     68853     68852     68854     68856     68855     68857     68859     68858     68860
     68862     68861     68863     68865     68864     68866     68868     68867     68869
     68871     68870     68872     68874     68873     68875     68877     68876     68878
     68880     68879     68881     68883     68882     68884     68886     68885     68887
     68889     68888     68890     68892     68891     68893     68895     68894     68896
     68898     68897     68899     68901     68900     68902     68904     68903     68905
     68907     68906     68908     68910     68909     68911     68913     68912     68914
     68916     68915     68917     68919     68918     68920     68922     68921     68923
     68925     68924     68926     68928     68927     68929     68931     68930     68932
     68934     68933     68935     68937     68936     68938     68940     68939     68941
     68943     68942     68944     68946     68945     68947     68949     68948     68950
     68952     68951     68953     68955     68954     68956     68958     68957     68959
     68961     68960     68962     68964     68963     68965     68967     68966     68968
     68970     68969     68971     68973     68972     68974     68976     68975     68977
     68979     68978     68980     68982     68981     68983     68985     68984     68986
     68988     68987     68989     68991     68990     68992     68994     68993     68995
     68997     68996     68998     69000     68999     69001     69003     69002     69004
     69006     69005     69007     69009     69008     69010     69012     69011     69013
     69015     69014     69016     69018     69017     69019     69021     69020     69022
     69024     69023     69025     69027     69026     69028     69030     69029     69031
     69033     69032     69034     69036     69035     69037     69039     69038     69040
     69042     69041     69043     69045     69044     69046     69048     69047     69049
     69051     69050     69052     69054     69053     69055     69057     69056     69058
     69060     69059     69061     69063     69062     69064     69066     69065     69067
     69069     69068     69070     69072     69071     69073     69075     69074     69076
     69078     69077     69079     69081     69080     69082     69084     69083     69085
     69087     69086     69088     69090     69089     69091     69093     69092     69094
     69096     69095     69097     69099     69098     69100     69102     69101     69103
     69105     69104     69106     69108     69107     69109     69111     69110     69112
     69114     69113     69115     69117     69116     69118     69120     69119     69121
     69123     69122     69124     69126     69125     69127     69129     69128     69130
     69132     69131     69133     69135     69134     69136     69138     69137     69139
     69141     69140     69142     69144     69143     69145     69147     69146     69148
     69150     69149     69151     69153     69152     69154     69156     69155     69157
     69159     69158     69160     69162     69161     69163     69165     69164     69166
     69168     69167     69169     69171     69170     69172     69174     69173     69175
     69177     69176     69178     69180     69179     69181     69183     69182     69184
     69186     69185     69187     69189     69188     69190     69192     69191     69193
     69195     69194     69196     69198     69197     69199     69201     69200     69202
     69204     69203     69205     69207     69206     69208     69210     69209     69211
     69213     69212     69214     69216     69215     69217     69219     69218     69220
     69222     69221     69223     69225     69224     69226     69228     69227     69229
     69231     69230     69232     69234     69233     69235     69237     69236     69238
     69240     69239     69241     69243     69242     69244     69246     69245     69247
     69249     69248     69250     69252     69251     69253     69255     69254     69256
     69258     69257     69259     69261     69260     69262     69264     69263     69265
     69267     69266     69268     69270     69269     69271     69273     69272     69274
     69276     69275     69277     69279     69278     69280     69282     69281     69283
     69285     69284     69286     69288     69287     69289     69291     69290     69292
     69294     69293     69295     69297     69296     69298     69300     69299     69301
     69303     69302     69304     69306     69305     69307     69309     69308     69310
     69312     69311     69313     69315     69314     69316     69318     69317     69319
     69321     69320     69322     69324     69323     69325     69327     69326     69328
     69330     69329     69331     69333     69332     69334     69336     69335     69337
     69339     69338     69340     69342     69341     69343     69345     69344     69346
     69348     69347     69349     69351     69350     69352     69354     69353     69355
     69357     69356     69358     69360     69359     69361     69363     69362     69364
     69366     69365     69367     69369     69368     69370     69372     69371     69373
     69375     69374     69376     69378     69377     69379     69381     69380     69382
     69384     69383     69385     69387     69386     69388     69390     69389     69391
     69393     69392     69394     69396     69395     69397     69399     69398     69400
     69402     69401     69403     69405     69404     69406     69408     69407     69409
     69411     69410     69412     69414     69413     69415     69417     69416     69418
     69420     69419     69421     69423     69422     69424     69426     69425     69427
     69429     69428     69430     69432     69431     69433     69435     69434     69436
     69438     69437     69439     69441     69440     69442     69444     69443     69445
     69447     69446     69448     69450     69449     69451     69453     69452     69454
     69456     69455     69457     69459     69458     69460     69462     69461     69463
     69465     69464     69466     69468     69467     69469     69471     69470     69472
     69474     69473     69475     69477     69476     69478     69480     69479     69481
     69483     69482     69484     69486     69485     69487     69489     69488     69490
     69492     69491     69493     69495     69494     69496     69498     69497     69499
     69501     69500     69502     69504     69503     69505     69507     69506     69508
     69510     69509     69511     69513     69512     69514     69516     69515     69517
     69519     69518     69520     69522     69521     69523     69525     69524     69526
     69528     69527     69529     69531     69530     69532     69534     69533     69535
     69537     69536     69538     69540     69539     69541     69543     69542     69544
     69546     69545     69547     69549     69548     69550     69552     69551     69553
     69555     69554     69556     69558     69557     69559     69561     69560     69562
     69564     69563     69565     69567     69566     69568     69570     69569     69571
     69573     69572     69574     69576     69575     69577     69579     69578     69580
     69582     69581     69583     69585     69584     69586     69588     69587     69589
     69591     69590     69592     69594     69593     69595     69597     69596     69598
     69600     69599     69601     69603     69602     69604     69606     69605     69607
     69609     69608     69610     69612     69611     69613     69615     69614     69616
     69618     69617     69619     69621     69620     69622     69624     69623     69625
     69627     69626     69628     69630     69629     69631     69633     69632     69634
     69636     69635     69637     69639     69638     69640     69642     69641     69643
     69645     69644     69646     69648     69647     69649     69651     69650     69652
     69654     69653     69655     69657     69656     69658     69660     69659     69661
     69663     69662     69664     69666     69665     69667     69669     69668     69670
     69672     69671     69673     69675     69674     69676     69678     69677     69679
     69681     69680     69682     69684     69683     69685     69687     69686     69688
     69690     69689     69691     69693     69692     69694     69696     69695     69697
     69699     69698     69700     69702     69701     69703     69705     69704     69706
     69708     69707     69709     69711     69710     69712     69714     69713     69715
     69717     69716     69718     69720     69719     69721     69723     69722     69724
     69726     69725     69727     69729     69728     69730     69732     69731     69733
     69735     69734     69736     69738     69737     69739     69741     69740     69742
     69744     69743     69745     69747     69746     69748     69750     69749     69751
     69753     69752     69754     69756     69755     69757     69759     69758     69760
     69762     69761     69763     69765     69764     69766     69768     69767     69769
     69771     69770     69772     69774     69773     69775     69777     69776     69778
     69780     69779     69781     69783     69782     69784     69786     69785     69787
     69789     69788     69790     69792     69791     69793     69795     69794     69796
     69798     69797     69799     69801     69800     69802     69804     69803     69805
     69807     69806     69808     69810     69809     69811     69813     69812     69814
     69816     69815     69817     69819     69818     69820     69822     69821     69823
     69825     69824     69826     69828     69827     69829     69831     69830     69832
     69834     69833     69835     69837     69836     69838     69840     69839     69841
     69843     69842     69844     69846     69845     69847     69849     69848     69850
     69852     69851     69853     69855     69854     69856     69858     69857     69859
     69861     69860     69862     69864     69863     69865     69867     69866     69868
     69870     69869     69871     69873     69872     69874     69876     69875     69877
     69879     69878     69880     69882     69881     69883     69885     69884     69886
     69888     69887     69889     69891     69890     69892     69894     69893     69895
     69897     69896     69898     69900     69899     69901     69903     69902     69904
     69906     69905     69907     69909     69908     69910     69912     69911     69913
     69915     69914     69916     69918     69917     69919     69921     69920     69922
     69924     69923     69925     69927     69926     69928     69930     69929     69931
     69933     69932     69934     69936     69935     69937     69939     69938     69940
     69942     69941     69943     69945     69944     69946     69948     69947     69949
     69951     69950     69952     69954     69953     69955     69957     69956     69958
     69960     69959     69961     69963     69962     69964     69966     69965     69967
     69969     69968     69970     69972     69971     69973     69975     69974     69976
     69978     69977     69979     69981     69980     69982     69984     69983     69985
     69987     69986     69988     69990     69989     69991     69993     69992     69994
     69996     69995     69997     69999     69998     70000     70002     70001     70003
     70005     70004     70006     70008     70007     70009     70011     70010     70012
     70014     70013     70015     70017     70016     70018     70020     70019     70021
     70023     70022     70024     70026     70025     70027     70029     70028     70030
     70032     70031     70033     70035     70034     70036     70038     70037     70039
     70041     70040     70042     70044     70043     70045     70047     70046     70048
     70050     70049     70051     70053     70052     70054     70056     70055     70057
     70059     70058     70060     70062     70061     70063     70065     70064     70066
     70068     70067     70069     70071     70070     70072     70074     70073     70075
     70077     70076     70078     70080     70079     70081     70083     70082     70084
     70086     70085     70087     70089     70088     70090     70092     70091     70093
     70095     70094     70096     70098     70097     70099     70101     70100     70102
     70104     70103     70105     70107     70106     70108     70110     70109     70111
     70113     70112     70114     70116     70115     70117     70119     70118     70120
     70122     70121     70123     70125     70124     70126     70128     70127     70129
     70131     70130     70132     70134     70133     70135     70137     70136     70138
     70140     70139     70141     70143     70142     70144     70146     70145     70147
     70149     70148     70150     70152     70151     70153     70155     70154     70156
     70158     70157     70159     70161     70160     70162     70164     70163     70165
     70167     70166     70168     70170     70169     70171     70173     70172     70174
     70176     70175     70177     70179     70178     70180     70182     70181     70183
     70185     70184     70186     70188     70187     70189     70191     70190     70192
     70194     70193     70195     70197     70196     70198     70200     70199     70201
     70203     70202     70204     70206     70205     70207     70209     70208     70210
     70212     70211     70213     70215     70214     70216     70218     70217     70219
     70221     70220     70222     70224     70223     70225     70227     70226     70228
     70230     70229     70231     70233     70232     70234     70236     70235     70237
     70239     70238     70240     70242     70241     70243     70245     70244     70246
     70248     70247     70249     70251     70250     70252     70254     70253     70255
     70257     70256     70258     70260     70259     70261     70263     70262     70264
     70266     70265     70267     70269     70268     70270     70272     70271     70273
     70275     70274     70276     70278     70277     70279     70281     70280     70282
     70284     70283     70285     70287     70286     70288     70290     70289     70291
     70293     70292     70294     70296     70295     70297     70299     70298     70300
     70302     70301     70303     70305     70304     70306     70308     70307     70309
     70311     70310     70312     70314     70313     70315     70317     70316     70318
     70320     70319     70321     70323     70322     70324     70326     70325     70327
     70329     70328     70330     70332     70331     70333     70335     70334     70336
     70338     70337     70339     70341     70340     70342     70344     70343     70345
     70347     70346     70348     70350     70349     70351     70353     70352     70354
     70356     70355     70357     70359     70358     70360     70362     70361     70363
     70365     70364     70366     70368     70367     70369     70371     70370     70372
     70374     70373     70375     70377     70376     70378     70380     70379     70381
     70383     70382     70384     70386     70385     70387     70389     70388     70390
     70392     70391     70393     70395     70394     70396     70398     70397     70399
     70401     70400     70402     70404     70403     70405     70407     70406     70408
     70410     70409     70411     70413     70412     70414     70416     70415     70417
     70419     70418     70420     70422     70421     70423     70425     70424     70426
     70428     70427     70429     70431     70430     70432     70434     70433     70435
     70437     70436     70438     70440     70439     70441     70443     70442     70444
     70446     70445     70447     70449     70448     70450     70452     70451     70453
     70455     70454     70456     70458     70457     70459     70461     70460     70462
     70464     70463     70465     70467     70466     70468     70470     70469     70471
     70473     70472     70474     70476     70475     70477     70479     70478     70480
     70482     70481     70483     70485     70484     70486     70488     70487     70489
     70491     70490     70492     70494     70493     70495     70497     70496     70498
     70500     70499     70501     70503     70502     70504     70506     70505     70507
     70509     70508     70510     70512     70511     70513     70515     70514     70516
     70518     70517     70519     70521     70520     70522     70524     70523     70525
     70527     70526     70528     70530     70529     70531     70533     70532     70534
     70536     70535     70537     70539     70538     70540     70542     70541     70543
     70545     70544     70546     70548     70547     70549     70551     70550     70552
     70554     70553     70555     70557     70556     70558     70560     70559     70561
     70563     70562     70564     70566     70565     70567     70569     70568     70570
     70572     70571     70573     70575     70574     70576     70578     70577     70579
     70581     70580     70582     70584     70583     70585     70587     70586     70588
     70590     70589     70591     70593     70592     70594     70596     70595     70597
     70599     70598     70600     70602     70601     70603     70605     70604     70606
     70608     70607     70609     70611     70610     70612     70614     70613     70615
     70617     70616     70618     70620     70619     70621     70623     70622     70624
     70626     70625     70627     70629     70628     70630     70632     70631     70633
     70635     70634     70636     70638     70637     70639     70641     70640     70642
     70644     70643     70645     70647     70646     70648     70650     70649     70651
     70653     70652     70654     70656     70655     70657     70659     70658     70660
     70662     70661     70663     70665     70664     70666     70668     70667     70669
     70671     70670     70672     70674     70673     70675     70677     70676     70678
     70680     70679     70681     70683     70682     70684     70686     70685     70687
     70689     70688     70690     70692     70691     70693     70695     70694     70696
     70698     70697     70699     70701     70700     70702     70704     70703     70705
     70707     70706     70708     70710     70709     70711     70713     70712     70714
     70716     70715     70717     70719     70718     70720     70722     70721     70723
     70725     70724     70726     70728     70727     70729     70731     70730     70732
     70734     70733     70735     70737     70736     70738     70740     70739     70741
     70743     70742     70744     70746     70745     70747     70749     70748     70750
     70752     70751     70753     70755     70754     70756     70758     70757     70759
     70761     70760     70762     70764     70763     70765     70767     70766     70768
     70770     70769     70771     70773     70772     70774     70776     70775     70777
     70779     70778     70780     70782     70781     70783     70785     70784     70786
     70788     70787     70789     70791     70790     70792     70794     70793     70795
     70797     70796     70798     70800     70799     70801     70803     70802     70804
     70806     70805     70807     70809     70808     70810     70812     70811     70813
     70815     70814     70816     70818     70817     70819     70821     70820     70822
     70824     70823     70825     70827     70826     70828     70830     70829     70831
     70833     70832     70834     70836     70835     70837     70839     70838     70840
     70842     70841     70843     70845     70844     70846     70848     70847     70849
     70851     70850     70852     70854     70853     70855     70857     70856     70858
     70860     70859     70861     70863     70862     70864     70866     70865     70867
     70869     70868     70870     70872     70871     70873     70875     70874     70876
     70878     70877     70879     70881     70880     70882     70884     70883     70885
     70887     70886     70888     70890     70889     70891     70893     70892     70894
     70896     70895     70897     70899     70898     70900     70902     70901     70903
     70905     70904     70906     70908     70907     70909     70911     70910     70912
     70914     70913     70915     70917     70916     70918     70920     70919     70921
     70923     70922     70924     70926     70925     70927     70929     70928     70930
     70932     70931     70933     70935     70934     70936     70938     70937     70939
     70941     70940     70942     70944     70943     70945     70947     70946     70948
     70950     70949     70951     70953     70952     70954     70956     70955     70957
     70959     70958     70960     70962     70961     70963     70965     70964     70966
     70968     70967     70969     70971     70970     70972     70974     70973     70975
     70977     70976     70978     70980     70979     70981     70983     70982     70984
     70986     70985     70987     70989     70988     70990     70992     70991     70993
     70995     70994     70996     70998     70997     70999     71001     71000     71002
     71004     71003     71005     71007     71006     71008     71010     71009     71011
     71013     71012     71014     71016     71015     71017     71019     71018     71020
     71022     71021     71023     71025     71024     71026     71028     71027     71029
     71031     71030     71032     71034     71033     71035     71037     71036     71038
     71040     71039     71041     71043     71042     71044     71046     71045     71047
     71049     71048     71050     71052     71051     71053     71055     71054     71056
     71058     71057     71059     71061     71060     71062     71064     71063     71065
     71067     71066     71068     71070     71069     71071     71073     71072     71074
     71076     71075     71077     71079     71078     71080     71082     71081     71083
     71085     71084     71086     71088     71087     71089     71091     71090     71092
     71094     71093     71095     71097     71096     71098     71100     71099     71101
     71103     71102     71104     71106     71105     71107     71109     71108     71110
     71112     71111     71113     71115     71114     71116     71118     71117     71119
     71121     71120     71122     71124     71123     71125     71127     71126     71128
     71130     71129     71131     71133     71132     71134     71136     71135     71137
     71139     71138     71140     71142     71141     71143     71145     71144     71146
     71148     71147     71149     71151     71150     71152     71154     71153     71155
     71157     71156     71158     71160     71159     71161     71163     71162     71164
     71166     71165     71167     71169     71168     71170     71172     71171     71173
     71175     71174     71176     71178     71177     71179     71181     71180     71182
     71184     71183     71185     71187     71186     71188     71190     71189     71191
     71193     71192     71194     71196     71195     71197     71199     71198     71200
     71202     71201     71203     71205     71204     71206     71208     71207     71209
     71211     71210     71212     71214     71213     71215     71217     71216     71218
     71220     71219     71221     71223     71222     71224     71226     71225     71227
     71229     71228     71230     71232     71231     71233     71235     71234     71236
     71238     71237     71239     71241     71240     71242     71244     71243     71245
     71247     71246     71248     71250     71249     71251     71253     71252     71254
     71256     71255     71257     71259     71258     71260     71262     71261     71263
     71265     71264     71266     71268     71267     71269     71271     71270     71272
     71274     71273     71275     71277     71276     71278     71280     71279     71281
     71283     71282     71284     71286     71285     71287     71289     71288     71290
     71292     71291     71293     71295     71294     71296     71298     71297     71299
     71301     71300     71302     71304     71303     71305     71307     71306     71308
     71310     71309     71311     71313     71312     71314     71316     71315     71317
     71319     71318     71320     71322     71321     71323     71325     71324     71326
     71328     71327     71329     71331     71330     71332     71334     71333     71335
     71337     71336     71338     71340     71339     71341     71343     71342     71344
     71346     71345     71347     71349     71348     71350     71352     71351     71353
     71355     71354     71356     71358     71357     71359     71361     71360     71362
     71364     71363     71365     71367     71366     71368     71370     71369     71371
     71373     71372     71374     71376     71375     71377     71379     71378     71380
     71382     71381     71383     71385     71384     71386     71388     71387     71389
     71391     71390     71392     71394     71393     71395     71397     71396     71398
     71400     71399     71401     71403     71402     71404     71406     71405     71407
     71409     71408     71410     71412     71411     71413     71415     71414     71416
     71418     71417     71419     71421     71420     71422     71424     71423     71425
     71427     71426     71428     71430     71429     71431     71433     71432     71434
     71436     71435     71437     71439     71438     71440     71442     71441     71443
     71445     71444     71446     71448     71447     71449     71451     71450     71452
     71454     71453     71455     71457     71456     71458     71460     71459     71461
     71463     71462     71464     71466     71465     71467     71469     71468     71470
     71472     71471     71473     71475     71474     71476     71478     71477     71479
     71481     71480     71482     71484     71483     71485     71487     71486     71488
     71490     71489     71491     71493     71492     71494     71496     71495     71497
     71499     71498     71500     71502     71501     71503     71505     71504     71506
     71508     71507     71509     71511     71510     71512     71514     71513     71515
     71517     71516     71518     71520     71519     71521     71523     71522     71524
     71526     71525     71527     71529     71528     71530     71532     71531     71533
     71535     71534     71536     71538     71537     71539     71541     71540     71542
     71544     71543     71545     71547     71546     71548     71550     71549     71551
     71553     71552     71554     71556     71555     71557     71559     71558     71560
     71562     71561     71563     71565     71564     71566     71568     71567     71569
     71571     71570     71572     71574     71573     71575     71577     71576     71578
     71580     71579     71581     71583     71582     71584     71586     71585     71587
     71589     71588     71590     71592     71591     71593     71595     71594     71596
     71598     71597     71599     71601     71600     71602     71604     71603     71605
     71607     71606     71608     71610     71609     71611     71613     71612     71614
     71616     71615     71617     71619     71618     71620     71622     71621     71623
     71625     71624     71626     71628     71627     71629     71631     71630     71632
     71634     71633     71635     71637     71636     71638     71640     71639     71641
     71643     71642     71644     71646     71645     71647     71649     71648     71650
     71652     71651     71653     71655     71654     71656     71658     71657     71659
     71661     71660     71662     71664     71663     71665     71667     71666     71668
     71670     71669     71671     71673     71672     71674     71676     71675     71677
     71679     71678     71680     71682     71681     71683     71685     71684     71686
     71688     71687     71689     71691     71690     71692     71694     71693     71695
     71697     71696     71698     71700     71699     71701     71703     71702     71704
     71706     71705     71707     71709     71708     71710     71712     71711     71713
     71715     71714     71716     71718     71717     71719     71721     71720     71722
     71724     71723     71725     71727     71726     71728     71730     71729     71731
     71733     71732     71734     71736     71735     71737     71739     71738     71740
     71742     71741     71743     71745     71744     71746     71748     71747     71749
     71751     71750     71752     71754     71753     71755     71757     71756     71758
     71760     71759     71761     71763     71762     71764     71766     71765     71767
     71769     71768     71770     71772     71771     71773     71775     71774     71776
     71778     71777     71779     71781     71780     71782     71784     71783     71785
     71787     71786     71788     71790     71789     71791     71793     71792     71794
     71796     71795     71797     71799     71798     71800     71802     71801     71803
     71805     71804     71806     71808     71807     71809     71811     71810     71812
     71814     71813     71815     71817     71816     71818     71820     71819     71821
     71823     71822     71824     71826     71825     71827     71829     71828     71830
     71832     71831     71833     71835     71834     71836     71838     71837     71839
     71841     71840     71842     71844     71843     71845     71847     71846     71848
     71850     71849     71851     71853     71852     71854     71856     71855     71857
     71859     71858     71860     71862     71861     71863     71865     71864     71866
     71868     71867     71869     71871     71870     71872     71874     71873     71875
     71877     71876     71878     71880     71879     71881     71883     71882     71884
     71886     71885     71887     71889     71888     71890     71892     71891     71893
     71895     71894     71896     71898     71897     71899     71901     71900     71902
     71904     71903     71905     71907     71906     71908     71910     71909     71911
     71913     71912     71914     71916     71915     71917     71919     71918     71920
     71922     71921     71923     71925     71924     71926     71928     71927     71929
     71931     71930     71932     71934     71933     71935     71937     71936     71938
     71940     71939     71941     71943     71942     71944     71946     71945     71947
     71949     71948     71950     71952     71951     71953     71955     71954     71956
     71958     71957     71959     71961     71960     71962     71964     71963     71965
     71967     71966     71968     71970     71969     71971     71973     71972     71974
     71976     71975     71977     71979     71978     71980     71982     71981     71983
     71985     71984     71986     71988     71987     71989     71991     71990     71992
     71994     71993     71995     71997     71996     71998     72000     71999     72001
     72003     72002     72004     72006     72005     72007     72009     72008     72010
     72012     72011     72013     72015     72014     72016     72018     72017     72019
     72021     72020     72022     72024     72023     72025     72027     72026     72028
     72030     72029     72031     72033     72032     72034     72036     72035     72037
     72039     72038     72040     72042     72041     72043     72045     72044     72046
     72048     72047     72049     72051     72050     72052     72054     72053     72055
     72057     72056     72058     72060     72059     72061     72063     72062     72064
     72066     72065     72067     72069     72068     72070     72072     72071     72073
     72075     72074     72076     72078     72077     72079     72081     72080     72082
     72084     72083     72085     72087     72086     72088     72090     72089     72091
     72093     72092     72094     72096     72095     72097     72099     72098     72100
     72102     72101     72103     72105     72104     72106     72108     72107     72109
     72111     72110     72112     72114     72113     72115     72117     72116     72118
     72120     72119     72121     72123     72122     72124     72126     72125     72127
     72129     72128     72130     72132     72131     72133     72135     72134     72136
     72138     72137     72139     72141     72140     72142     72144     72143     72145
     72147     72146     72148     72150     72149     72151     72153     72152     72154
     72156     72155     72157     72159     72158     72160     72162     72161     72163
     72165     72164     72166     72168     72167     72169     72171     72170     72172
     72174     72173     72175     72177     72176     72178     72180     72179     72181
     72183     72182     72184     72186     72185     72187     72189     72188     72190
     72192     72191     72193     72195     72194     72196     72198     72197     72199
     72201     72200     72202     72204     72203     72205     72207     72206     72208
     72210     72209     72211     72213     72212     72214     72216     72215     72217
     72219     72218     72220     72222     72221     72223     72225     72224     72226
     72228     72227     72229     72231     72230     72232     72234     72233     72235
     72237     72236     72238     72240     72239     72241     72243     72242     72244
     72246     72245     72247     72249     72248     72250     72252     72251     72253
     72255     72254     72256     72258     72257     72259     72261     72260     72262
     72264     72263     72265     72267     72266     72268     72270     72269     72271
     72273     72272     72274     72276     72275     72277     72279     72278     72280
     72282     72281     72283     72285     72284     72286     72288     72287     72289
     72291     72290     72292     72294     72293     72295     72297     72296     72298
     72300     72299     72301     72303     72302     72304     72306     72305     72307
     72309     72308     72310     72312     72311     72313     72315     72314     72316
     72318     72317     72319     72321     72320     72322     72324     72323     72325
     72327     72326     72328     72330     72329     72331     72333     72332     72334
     72336     72335     72337     72339     72338     72340     72342     72341     72343
     72345     72344     72346     72348     72347     72349     72351     72350     72352
     72354     72353     72355     72357     72356     72358     72360     72359     72361
     72363     72362     72364     72366     72365     72367     72369     72368     72370
     72372     72371     72373     72375     72374     72376     72378     72377     72379
     72381     72380     72382     72384     72383     72385     72387     72386     72388
     72390     72389     72391     72393     72392     72394     72396     72395     72397
     72399     72398     72400     72402     72401     72403     72405     72404     72406
     72408     72407     72409     72411     72410     72412     72414     72413     72415
     72417     72416     72418     72420     72419     72421     72423     72422     72424
     72426     72425     72427     72429     72428     72430     72432     72431     72433
     72435     72434     72436     72438     72437     72439     72441     72440     72442
     72444     72443     72445     72447     72446     72448     72450     72449     72451
     72453     72452     72454     72456     72455     72457     72459     72458     72460
     72462     72461     72463     72465     72464     72466     72468     72467     72469
     72471     72470     72472     72474     72473     72475     72477     72476     72478
     72480     72479     72481     72483     72482     72484     72486     72485     72487
     72489     72488     72490     72492     72491     72493     72495     72494     72496
     72498     72497     72499     72501     72500     72502     72504     72503     72505
     72507     72506     72508     72510     72509     72511     72513     72512     72514
     72516     72515     72517     72519     72518     72520     72522     72521     72523
     72525     72524     72526     72528     72527     72529     72531     72530     72532
     72534     72533     72535     72537     72536     72538     72540     72539     72541
     72543     72542     72544     72546     72545     72547     72549     72548     72550
     72552     72551     72553     72555     72554     72556     72558     72557     72559
     72561     72560     72562     72564     72563     72565     72567     72566     72568
     72570     72569     72571     72573     72572     72574     72576     72575     72577
     72579     72578     72580     72582     72581     72583     72585     72584     72586
     72588     72587     72589     72591     72590     72592     72594     72593     72595
     72597     72596     72598     72600     72599     72601     72603     72602     72604
     72606     72605     72607     72609     72608     72610     72612     72611     72613
     72615     72614     72616     72618     72617     72619     72621     72620     72622
     72624     72623     72625     72627     72626     72628     72630     72629     72631
     72633     72632     72634     72636     72635     72637     72639     72638     72640
     72642     72641     72643     72645     72644     72646     72648     72647     72649
     72651     72650     72652     72654     72653     72655     72657     72656     72658
     72660     72659     72661     72663     72662     72664     72666     72665     72667
     72669     72668     72670     72672     72671     72673     72675     72674     72676
     72678     72677     72679     72681     72680     72682     72684     72683     72685
     72687     72686     72688     72690     72689     72691     72693     72692     72694
     72696     72695     72697     72699     72698     72700     72702     72701     72703
     72705     72704     72706     72708     72707     72709     72711     72710     72712
     72714     72713     72715     72717     72716     72718     72720     72719     72721
     72723     72722     72724     72726     72725     72727     72729     72728     72730
     72732     72731     72733     72735     72734     72736     72738     72737     72739
     72741     72740     72742     72744     72743     72745     72747     72746     72748
     72750     72749     72751     72753     72752     72754     72756     72755     72757
     72759     72758     72760     72762     72761     72763     72765     72764     72766
     72768     72767     72769     72771     72770     72772     72774     72773     72775
     72777     72776     72778     72780     72779     72781     72783     72782     72784
     72786     72785     72787     72789     72788     72790     72792     72791     72793
     72795     72794     72796     72798     72797     72799     72801     72800     72802
     72804     72803     72805     72807     72806     72808     72810     72809     72811
     72813     72812     72814     72816     72815     72817     72819     72818     72820
     72822     72821     72823     72825     72824     72826     72828     72827     72829
     72831     72830     72832     72834     72833     72835     72837     72836     72838
     72840     72839     72841     72843     72842     72844     72846     72845     72847
     72849     72848     72850     72852     72851     72853     72855     72854     72856
     72858     72857     72859     72861     72860     72862     72864     72863     72865
     72867     72866     72868     72870     72869     72871     72873     72872     72874
     72876     72875     72877     72879     72878     72880     72882     72881     72883
     72885     72884     72886     72888     72887     72889     72891     72890     72892
     72894     72893     72895     72897     72896     72898     72900     72899     72901
     72903     72902     72904     72906     72905     72907     72909     72908     72910
     72912     72911     72913     72915     72914     72916     72918     72917     72919
     72921     72920     72922     72924     72923     72925     72927     72926     72928
     72930     72929     72931     72933     72932     72934     72936     72935     72937
     72939     72938     72940     72942     72941     72943     72945     72944     72946
     72948     72947     72949     72951     72950     72952     72954     72953     72955
     72957     72956     72958     72960     72959     72961     72963     72962     72964
     72966     72965     72967     72969     72968     72970     72972     72971     72973
     72975     72974     72976     72978     72977     72979     72981     72980     72982
     72984     72983     72985     72987     72986     72988     72990     72989     72991
     72993     72992     72994     72996     72995     72997     72999     72998     73000
     73002     73001     73003     73005     73004     73006     73008     73007     73009
     73011     73010     73012     73014     73013     73015     73017     73016     73018
     73020     73019     73021     73023     73022     73024     73026     73025     73027
     73029     73028     73030     73032     73031     73033     73035     73034     73036
     73038     73037     73039     73041     73040     73042     73044     73043     73045
     73047     73046     73048     73050     73049     73051     73053     73052     73054
     73056     73055     73057     73059     73058     73060     73062     73061     73063
     73065     73064     73066     73068     73067     73069     73071     73070     73072
     73074     73073     73075     73077     73076     73078     73080     73079     73081
     73083     73082     73084     73086     73085     73087     73089     73088     73090
     73092     73091     73093     73095     73094     73096     73098     73097     73099
     73101     73100     73102     73104     73103     73105     73107     73106     73108
     73110     73109     73111     73113     73112     73114     73116     73115     73117
     73119     73118     73120     73122     73121     73123     73125     73124     73126
     73128     73127     73129     73131     73130     73132     73134     73133     73135
     73137     73136     73138     73140     73139     73141     73143     73142     73144
     73146     73145     73147     73149     73148     73150     73152     73151     73153
     73155     73154     73156     73158     73157     73159     73161     73160     73162
     73164     73163     73165     73167     73166     73168     73170     73169     73171
     73173     73172     73174     73176     73175     73177     73179     73178     73180
     73182     73181     73183     73185     73184     73186     73188     73187     73189
     73191     73190     73192     73194     73193     73195     73197     73196     73198
     73200     73199     73201     73203     73202     73204     73206     73205     73207
     73209     73208     73210     73212     73211     73213     73215     73214     73216
     73218     73217     73219     73221     73220     73222     73224     73223     73225
     73227     73226     73228     73230     73229     73231     73233     73232     73234
     73236     73235     73237     73239     73238     73240     73242     73241     73243
     73245     73244     73246     73248     73247     73249     73251     73250     73252
     73254     73253     73255     73257     73256     73258     73260     73259     73261
     73263     73262     73264     73266     73265     73267     73269     73268     73270
     73272     73271     73273     73275     73274     73276     73278     73277     73279
     73281     73280     73282     73284     73283     73285     73287     73286     73288
     73290     73289     73291     73293     73292     73294     73296     73295     73297
     73299     73298     73300     73302     73301     73303     73305     73304     73306
     73308     73307     73309     73311     73310     73312     73314     73313     73315
     73317     73316     73318     73320     73319     73321     73323     73322     73324
     73326     73325     73327     73329     73328     73330     73332     73331     73333
     73335     73334     73336     73338     73337     73339     73341     73340     73342
     73344     73343     73345     73347     73346     73348     73350     73349     73351
     73353     73352     73354     73356     73355     73357     73359     73358     73360
     73362     73361     73363     73365     73364     73366     73368     73367     73369
     73371     73370     73372     73374     73373     73375     73377     73376     73378
     73380     73379     73381     73383     73382     73384     73386     73385     73387
     73389     73388     73390     73392     73391     73393     73395     73394     73396
     73398     73397     73399     73401     73400     73402     73404     73403     73405
     73407     73406     73408     73410     73409     73411     73413     73412     73414
     73416     73415     73417     73419     73418     73420     73422     73421     73423
     73425     73424     73426     73428     73427     73429     73431     73430     73432
     73434     73433     73435     73437     73436     73438     73440     73439     73441
     73443     73442     73444     73446     73445     73447     73449     73448     73450
     73452     73451     73453     73455     73454     73456     73458     73457     73459
     73461     73460     73462     73464     73463     73465     73467     73466     73468
     73470     73469     73471     73473     73472     73474     73476     73475     73477
     73479     73478     73480     73482     73481     73483     73485     73484     73486
     73488     73487     73489     73491     73490     73492     73494     73493     73495
     73497     73496     73498     73500     73499     73501     73503     73502     73504
     73506     73505     73507     73509     73508     73510     73512     73511     73513
     73515     73514     73516     73518     73517     73519     73521     73520     73522
     73524     73523     73525     73527     73526     73528     73530     73529     73531
     73533     73532     73534     73536     73535     73537     73539     73538     73540
     73542     73541     73543     73545     73544     73546     73548     73547     73549
     73551     73550     73552     73554     73553     73555     73557     73556     73558
     73560     73559     73561     73563     73562     73564     73566     73565     73567
     73569     73568     73570     73572     73571     73573     73575     73574     73576
     73578     73577     73579     73581     73580     73582     73584     73583     73585
     73587     73586     73588     73590     73589     73591     73593     73592     73594
     73596     73595     73597     73599     73598     73600     73602     73601     73603
     73605     73604     73606     73608     73607     73609     73611     73610     73612
     73614     73613     73615     73617     73616     73618     73620     73619     73621
     73623     73622     73624     73626     73625     73627     73629     73628     73630
     73632     73631     73633     73635     73634     73636     73638     73637     73639
     73641     73640     73642     73644     73643     73645     73647     73646     73648
     73650     73649     73651     73653     73652     73654     73656     73655     73657
     73659     73658     73660     73662     73661     73663     73665     73664     73666
     73668     73667     73669     73671     73670     73672     73674     73673     73675
     73677     73676     73678     73680     73679     73681     73683     73682     73684
     73686     73685     73687     73689     73688     73690     73692     73691     73693
     73695     73694     73696     73698     73697     73699     73701     73700     73702
     73704     73703     73705     73707     73706     73708     73710     73709     73711
     73713     73712     73714     73716     73715     73717     73719     73718     73720
     73722     73721     73723     73725     73724     73726     73728     73727     73729
     73731     73730     73732     73734     73733     73735     73737     73736     73738
     73740     73739     73741     73743     73742     73744     73746     73745     73747
     73749     73748     73750     73752     73751     73753     73755     73754     73756
     73758     73757     73759     73761     73760     73762     73764     73763     73765
     73767     73766     73768     73770     73769     73771     73773     73772     73774
     73776     73775     73777     73779     73778     73780     73782     73781     73783
     73785     73784     73786     73788     73787     73789     73791     73790     73792
     73794     73793     73795     73797     73796     73798     73800     73799     73801
     73803     73802     73804     73806     73805     73807     73809     73808     73810
     73812     73811     73813     73815     73814     73816     73818     73817     73819
     73821     73820     73822     73824     73823     73825     73827     73826     73828
     73830     73829     73831     73833     73832     73834     73836     73835     73837
     73839     73838     73840     73842     73841     73843     73845     73844     73846
     73848     73847     73849     73851     73850     73852     73854     73853     73855
     73857     73856     73858     73860     73859     73861     73863     73862     73864
     73866     73865     73867     73869     73868     73870     73872     73871     73873
     73875     73874     73876     73878     73877     73879     73881     73880     73882
     73884     73883     73885     73887     73886     73888     73890     73889     73891
     73893     73892     73894     73896     73895     73897     73899     73898     73900
     73902     73901     73903     73905     73904     73906     73908     73907     73909
     73911     73910     73912     73914     73913     73915     73917     73916     73918
     73920     73919     73921     73923     73922     73924     73926     73925     73927
     73929     73928     73930     73932     73931     73933     73935     73934     73936
     73938     73937     73939     73941     73940     73942     73944     73943     73945
     73947     73946     73948     73950     73949     73951     73953     73952     73954
     73956     73955     73957     73959     73958     73960     73962     73961     73963
     73965     73964     73966     73968     73967     73969     73971     73970     73972
     73974     73973     73975     73977     73976     73978     73980     73979     73981
     73983     73982     73984     73986     73985     73987     73989     73988     73990
     73992     73991     73993     73995     73994     73996     73998     73997     73999
     74001     74000     74002     74004     74003     74005     74007     74006     74008
     74010     74009     74011     74013     74012     74014     74016     74015     74017
     74019     74018     74020     74022     74021     74023     74025     74024     74026
     74028     74027     74029     74031     74030     74032     74034     74033     74035
     74037     74036     74038     74040     74039     74041     74043     74042     74044
     74046     74045     74047     74049     74048     74050     74052     74051     74053
     74055     74054     74056     74058     74057     74059     74061     74060     74062
     74064     74063     74065     74067     74066     74068     74070     74069     74071
     74073     74072     74074     74076     74075     74077     74079     74078     74080
     74082     74081     74083     74085     74084     74086     74088     74087     74089
     74091     74090     74092     74094     74093     74095     74097     74096     74098
     74100     74099     74101     74103     74102     74104     74106     74105     74107
     74109     74108     74110     74112     74111     74113     74115     74114     74116
     74118     74117     74119     74121     74120     74122     74124     74123     74125
     74127     74126     74128     74130     74129     74131     74133     74132     74134
     74136     74135     74137     74139     74138     74140     74142     74141     74143
     74145     74144     74146     74148     74147     74149     74151     74150     74152
     74154     74153     74155     74157     74156     74158     74160     74159     74161
     74163     74162     74164     74166     74165     74167     74169     74168     74170
     74172     74171     74173     74175     74174     74176     74178     74177     74179
     74181     74180     74182     74184     74183     74185     74187     74186     74188
     74190     74189     74191     74193     74192     74194     74196     74195     74197
     74199     74198     74200     74202     74201     74203     74205     74204     74206
     74208     74207     74209     74211     74210     74212     74214     74213     74215
     74217     74216     74218     74220     74219     74221     74223     74222     74224
     74226     74225     74227     74229     74228     74230     74232     74231     74233
     74235     74234     74236     74238     74237     74239     74241     74240     74242
     74244     74243     74245     74247     74246     74248     74250     74249     74251
     74253     74252     74254     74256     74255     74257     74259     74258     74260
     74262     74261     74263     74265     74264     74266     74268     74267     74269
     74271     74270     74272     74274     74273     74275     74277     74276     74278
     74280     74279     74281     74283     74282     74284     74286     74285     74287
     74289     74288     74290     74292     74291     74293     74295     74294     74296
     74298     74297     74299     74301     74300     74302     74304     74303     74305
     74307     74306     74308     74310     74309     74311     74313     74312     74314
     74316     74315     74317     74319     74318     74320     74322     74321     74323
     74325     74324     74326     74328     74327     74329     74331     74330     74332
     74334     74333     74335     74337     74336     74338     74340     74339     74341
     74343     74342     74344     74346     74345     74347     74349     74348     74350
     74352     74351     74353     74355     74354     74356     74358     74357     74359
     74361     74360     74362     74364     74363     74365     74367     74366     74368
     74370     74369     74371     74373     74372     74374     74376     74375     74377
     74379     74378     74380     74382     74381     74383     74385     74384     74386
     74388     74387     74389     74391     74390     74392     74394     74393     74395
     74397     74396     74398     74400     74399     74401     74403     74402     74404
     74406     74405     74407     74409     74408     74410     74412     74411     74413
     74415     74414     74416     74418     74417     74419     74421     74420     74422
     74424     74423     74425     74427     74426     74428     74430     74429     74431
     74433     74432     74434     74436     74435     74437     74439     74438     74440
     74442     74441     74443     74445     74444     74446     74448     74447     74449
     74451     74450     74452     74454     74453     74455     74457     74456     74458
     74460     74459     74461     74463     74462     74464     74466     74465     74467
     74469     74468     74470     74472     74471     74473     74475     74474     74476
     74478     74477     74479     74481     74480     74482     74484     74483     74485
     74487     74486     74488     74490     74489     74491     74493     74492     74494
     74496     74495     74497     74499     74498     74500     74502     74501     74503
     74505     74504     74506     74508     74507     74509     74511     74510     74512
     74514     74513     74515     74517     74516     74518     74520     74519     74521
     74523     74522     74524     74526     74525     74527     74529     74528     74530
     74532     74531     74533     74535     74534     74536     74538     74537     74539
     74541     74540     74542     74544     74543     74545     74547     74546     74548
     74550     74549     74551     74553     74552     74554     74556     74555     74557
     74559     74558     74560     74562     74561     74563     74565     74564     74566
     74568     74567     74569     74571     74570     74572     74574     74573     74575
     74577     74576     74578     74580     74579     74581     74583     74582     74584
     74586     74585     74587     74589     74588     74590     74592     74591     74593
     74595     74594     74596     74598     74597     74599     74601     74600     74602
     74604     74603     74605     74607     74606     74608     74610     74609     74611
     74613     74612     74614     74616     74615     74617     74619     74618     74620
     74622     74621     74623     74625     74624     74626     74628     74627     74629
     74631     74630     74632     74634     74633     74635     74637     74636     74638
     74640     74639     74641     74643     74642     74644     74646     74645     74647
     74649     74648     74650     74652     74651     74653     74655     74654     74656
     74658     74657     74659     74661     74660     74662     74664     74663     74665
     74667     74666     74668     74670     74669     74671     74673     74672     74674
     74676     74675     74677     74679     74678     74680     74682     74681     74683
     74685     74684     74686     74688     74687     74689     74691     74690     74692
     74694     74693     74695     74697     74696     74698     74700     74699     74701
     74703     74702     74704     74706     74705     74707     74709     74708     74710
     74712     74711     74713     74715     74714     74716     74718     74717     74719
     74721     74720     74722     74724     74723     74725     74727     74726     74728
     74730     74729     74731     74733     74732     74734     74736     74735     74737
     74739     74738     74740     74742     74741     74743     74745     74744     74746
     74748     74747     74749     74751     74750     74752     74754     74753     74755
     74757     74756     74758     74760     74759     74761     74763     74762     74764
     74766     74765     74767     74769     74768     74770     74772     74771     74773
     74775     74774     74776     74778     74777     74779     74781     74780     74782
     74784     74783     74785     74787     74786     74788     74790     74789     74791
     74793     74792     74794     74796     74795     74797     74799     74798     74800
     74802     74801     74803     74805     74804     74806     74808     74807     74809
     74811     74810     74812     74814     74813     74815     74817     74816     74818
     74820     74819     74821     74823     74822     74824     74826     74825     74827
     74829     74828     74830     74832     74831     74833     74835     74834     74836
     74838     74837     74839     74841     74840     74842     74844     74843     74845
     74847     74846     74848     74850     74849     74851     74853     74852     74854
     74856     74855     74857     74859     74858     74860     74862     74861     74863
     74865     74864     74866     74868     74867     74869     74871     74870     74872
     74874     74873     74875     74877     74876     74878     74880     74879     74881
     74883     74882     74884     74886     74885     74887     74889     74888     74890
     74892     74891     74893     74895     74894     74896     74898     74897     74899
     74901     74900     74902     74904     74903     74905     74907     74906     74908
     74910     74909     74911     74913     74912     74914     74916     74915     74917
     74919     74918     74920     74922     74921     74923     74925     74924     74926
     74928     74927     74929     74931     74930     74932     74934     74933     74935
     74937     74936     74938     74940     74939     74941     74943     74942     74944
     74946     74945     74947     74949     74948     74950     74952     74951     74953
     74955     74954     74956     74958     74957     74959     74961     74960     74962
     74964     74963     74965     74967     74966     74968     74970     74969     74971
     74973     74972     74974     74976     74975     74977     74979     74978     74980
     74982     74981     74983     74985     74984     74986     74988     74987     74989
     74991     74990     74992     74994     74993     74995     74997     74996     74998
     75000     74999     75001     75003     75002     75004     75006     75005     75007
     75009     75008     75010     75012     75011     75013     75015     75014     75016
     75018     75017     75019     75021     75020     75022     75024     75023     75025
     75027     75026     75028     75030     75029     75031     75033     75032     75034
     75036     75035     75037     75039     75038     75040     75042     75041     75043
     75045     75044     75046     75048     75047     75049     75051     75050     75052
     75054     75053     75055     75057     75056     75058     75060     75059     75061
     75063     75062     75064     75066     75065     75067     75069     75068     75070
     75072     75071     75073     75075     75074     75076     75078     75077     75079
     75081     75080     75082     75084     75083     75085     75087     75086     75088
     75090     75089     75091     75093     75092     75094     75096     75095     75097
     75099     75098     75100     75102     75101     75103     75105     75104     75106
     75108     75107     75109     75111     75110     75112     75114     75113     75115
     75117     75116     75118     75120     75119     75121     75123     75122     75124
     75126     75125     75127     75129     75128     75130     75132     75131     75133
     75135     75134     75136     75138     75137     75139     75141     75140     75142
     75144     75143     75145     75147     75146     75148     75150     75149     75151
     75153     75152     75154     75156     75155     75157     75159     75158     75160
     75162     75161     75163     75165     75164     75166     75168     75167     75169
     75171     75170     75172     75174     75173     75175     75177     75176     75178
     75180     75179     75181     75183     75182     75184     75186     75185     75187
     75189     75188     75190     75192     75191     75193     75195     75194     75196
     75198     75197     75199     75201     75200     75202     75204     75203     75205
     75207     75206     75208     75210     75209     75211     75213     75212     75214
     75216     75215     75217     75219     75218     75220     75222     75221     75223
     75225     75224     75226     75228     75227     75229     75231     75230     75232
     75234     75233     75235     75237     75236     75238     75240     75239     75241
     75243     75242     75244     75246     75245     75247     75249     75248     75250
     75252     75251     75253     75255     75254     75256     75258     75257     75259
     75261     75260     75262     75264     75263     75265     75267     75266     75268
     75270     75269     75271     75273     75272     75274     75276     75275     75277
     75279     75278     75280     75282     75281     75283     75285     75284     75286
     75288     75287     75289     75291     75290     75292     75294     75293     75295
     75297     75296     75298     75300     75299     75301     75303     75302     75304
     75306     75305     75307     75309     75308     75310     75312     75311     75313
     75315     75314     75316     75318     75317     75319     75321     75320     75322
     75324     75323     75325     75327     75326     75328     75330     75329     75331
     75333     75332     75334     75336     75335     75337     75339     75338     75340
     75342     75341     75343     75345     75344     75346     75348     75347     75349
     75351     75350     75352     75354     75353     75355     75357     75356     75358
     75360     75359     75361     75363     75362     75364     75366     75365     75367
     75369     75368     75370     75372     75371     75373     75375     75374     75376
     75378     75377     75379     75381     75380     75382     75384     75383     75385
     75387     75386     75388     75390     75389     75391     75393     75392     75394
     75396     75395     75397     75399     75398     75400     75402     75401     75403
     75405     75404     75406     75408     75407     75409     75411     75410     75412
     75414     75413     75415     75417     75416     75418     75420     75419     75421
     75423     75422     75424     75426     75425     75427     75429     75428     75430
     75432     75431     75433     75435     75434     75436     75438     75437     75439
     75441     75440     75442     75444     75443     75445     75447     75446     75448
     75450     75449     75451     75453     75452     75454     75456     75455     75457
     75459     75458     75460     75462     75461     75463     75465     75464     75466
     75468     75467     75469     75471     75470     75472     75474     75473     75475
     75477     75476     75478     75480     75479     75481     75483     75482     75484
     75486     75485     75487     75489     75488     75490     75492     75491     75493
     75495     75494     75496     75498     75497     75499     75501     75500     75502
     75504     75503     75505     75507     75506     75508     75510     75509     75511
     75513     75512     75514     75516     75515     75517     75519     75518     75520
     75522     75521     75523     75525     75524     75526     75528     75527     75529
     75531     75530     75532     75534     75533     75535     75537     75536     75538
     75540     75539     75541     75543     75542     75544     75546     75545     75547
     75549     75548     75550     75552     75551     75553     75555     75554     75556
     75558     75557     75559     75561     75560     75562     75564     75563     75565
     75567     75566     75568     75570     75569     75571     75573     75572     75574
     75576     75575     75577     75579     75578     75580     75582     75581     75583
     75585     75584     75586     75588     75587     75589     75591     75590     75592
     75594     75593     75595     75597     75596     75598     75600     75599     75601
     75603     75602     75604     75606     75605     75607     75609     75608     75610
     75612     75611     75613     75615     75614     75616     75618     75617     75619
     75621     75620     75622     75624     75623     75625     75627     75626     75628
     75630     75629     75631     75633     75632     75634     75636     75635     75637
     75639     75638     75640     75642     75641     75643     75645     75644     75646
     75648     75647     75649     75651     75650     75652     75654     75653     75655
     75657     75656     75658     75660     75659     75661     75663     75662     75664
     75666     75665     75667     75669     75668     75670     75672     75671     75673
     75675     75674     75676     75678     75677     75679     75681     75680     75682
     75684     75683     75685     75687     75686     75688     75690     75689     75691
     75693     75692     75694     75696     75695     75697     75699     75698     75700
     75702     75701     75703     75705     75704     75706     75708     75707     75709
     75711     75710     75712     75714     75713     75715     75717     75716     75718
     75720     75719     75721     75723     75722     75724     75726     75725     75727
     75729     75728     75730     75732     75731     75733     75735     75734     75736
     75738     75737     75739     75741     75740     75742     75744     75743     75745
     75747     75746     75748     75750     75749     75751     75753     75752     75754
     75756     75755     75757     75759     75758     75760     75762     75761     75763
     75765     75764     75766     75768     75767     75769     75771     75770     75772
     75774     75773     75775     75777     75776     75778     75780     75779     75781
     75783     75782     75784     75786     75785     75787     75789     75788     75790
     75792     75791     75793     75795     75794     75796     75798     75797     75799
     75801     75800     75802     75804     75803     75805     75807     75806     75808
     75810     75809     75811     75813     75812     75814     75816     75815     75817
     75819     75818     75820     75822     75821     75823     75825     75824     75826
     75828     75827     75829     75831     75830     75832     75834     75833     75835
     75837     75836     75838     75840     75839     75841     75843     75842     75844
     75846     75845     75847     75849     75848     75850     75852     75851     75853
     75855     75854     75856     75858     75857     75859     75861     75860     75862
     75864     75863     75865     75867     75866     75868     75870     75869     75871
     75873     75872     75874     75876     75875     75877     75879     75878     75880
     75882     75881     75883     75885     75884     75886     75888     75887     75889
     75891     75890     75892     75894     75893     75895     75897     75896     75898
     75900     75899     75901     75903     75902     75904     75906     75905     75907
     75909     75908     75910     75912     75911     75913     75915     75914     75916
     75918     75917     75919     75921     75920     75922     75924     75923     75925
     75927     75926     75928     75930     75929     75931     75933     75932     75934
     75936     75935     75937     75939     75938     75940     75942     75941     75943
     75945     75944     75946     75948     75947     75949     75951     75950     75952
     75954     75953     75955     75957     75956     75958     75960     75959     75961
     75963     75962     75964     75966     75965     75967     75969     75968     75970
     75972     75971     75973     75975     75974     75976     75978     75977     75979
     75981     75980     75982     75984     75983     75985     75987     75986     75988
     75990     75989     75991     75993     75992     75994     75996     75995     75997
     75999     75998     76000     76002     76001     76003     76005     76004     76006
     76008     76007     76009     76011     76010     76012     76014     76013     76015
     76017     76016     76018     76020     76019     76021     76023     76022     76024
     76026     76025     76027     76029     76028     76030     76032     76031     76033
     76035     76034     76036     76038     76037     76039     76041     76040     76042
     76044     76043     76045     76047     76046     76048     76050     76049     76051
     76053     76052     76054     76056     76055     76057     76059     76058     76060
     76062     76061     76063     76065     76064     76066     76068     76067     76069
     76071     76070     76072     76074     76073     76075     76077     76076     76078
     76080     76079     76081     76083     76082     76084     76086     76085     76087
     76089     76088     76090     76092     76091     76093     76095     76094     76096
     76098     76097     76099     76101     76100     76102     76104     76103     76105
     76107     76106     76108     76110     76109     76111     76113     76112     76114
     76116     76115     76117     76119     76118     76120     76122     76121     76123
     76125     76124     76126     76128     76127     76129     76131     76130     76132
     76134     76133     76135     76137     76136     76138     76140     76139     76141
     76143     76142     76144     76146     76145     76147     76149     76148     76150
     76152     76151     76153     76155     76154     76156     76158     76157     76159
     76161     76160     76162     76164     76163     76165     76167     76166     76168
     76170     76169     76171     76173     76172     76174     76176     76175     76177
     76179     76178     76180     76182     76181     76183     76185     76184     76186
     76188     76187     76189     76191     76190     76192     76194     76193     76195
     76197     76196     76198     76200     76199     76201     76203     76202     76204
     76206     76205     76207     76209     76208     76210     76212     76211     76213
     76215     76214     76216     76218     76217     76219     76221     76220     76222
     76224     76223     76225     76227     76226     76228     76230     76229     76231
     76233     76232     76234     76236     76235     76237     76239     76238     76240
     76242     76241     76243     76245     76244     76246     76248     76247     76249
     76251     76250     76252     76254     76253     76255     76257     76256     76258
     76260     76259     76261     76263     76262     76264     76266     76265     76267
     76269     76268     76270     76272     76271     76273     76275     76274     76276
     76278     76277     76279     76281     76280     76282     76284     76283     76285
     76287     76286     76288     76290     76289     76291     76293     76292     76294
     76296     76295     76297     76299     76298     76300     76302     76301     76303
     76305     76304     76306     76308     76307     76309     76311     76310     76312
     76314     76313     76315     76317     76316     76318     76320     76319     76321
     76323     76322     76324     76326     76325     76327     76329     76328     76330
     76332     76331     76333     76335     76334     76336     76338     76337     76339
     76341     76340     76342     76344     76343     76345     76347     76346     76348
     76350     76349     76351     76353     76352     76354     76356     76355     76357
     76359     76358     76360     76362     76361     76363     76365     76364     76366
     76368     76367     76369     76371     76370     76372     76374     76373     76375
     76377     76376     76378     76380     76379     76381     76383     76382     76384
     76386     76385     76387     76389     76388     76390     76392     76391     76393
     76395     76394     76396     76398     76397     76399     76401     76400     76402
     76404     76403     76405     76407     76406     76408     76410     76409     76411
     76413     76412     76414     76416     76415     76417     76419     76418     76420
     76422     76421     76423     76425     76424     76426     76428     76427     76429
     76431     76430     76432     76434     76433     76435     76437     76436     76438
     76440     76439     76441     76443     76442     76444     76446     76445     76447
     76449     76448     76450     76452     76451     76453     76455     76454     76456
     76458     76457     76459     76461     76460     76462     76464     76463     76465
     76467     76466     76468     76470     76469     76471     76473     76472     76474
     76476     76475     76477     76479     76478     76480     76482     76481     76483
     76485     76484     76486     76488     76487     76489     76491     76490     76492
     76494     76493     76495     76497     76496     76498     76500     76499     76501
     76503     76502     76504     76506     76505     76507     76509     76508     76510
     76512     76511     76513     76515     76514     76516     76518     76517     76519
     76521     76520     76522     76524     76523     76525     76527     76526     76528
     76530     76529     76531     76533     76532     76534     76536     76535     76537
     76539     76538     76540     76542     76541     76543     76545     76544     76546
     76548     76547     76549     76551     76550     76552     76554     76553     76555
     76557     76556     76558     76560     76559     76561     76563     76562     76564
     76566     76565     76567     76569     76568     76570     76572     76571     76573
     76575     76574     76576     76578     76577     76579     76581     76580     76582
     76584     76583     76585     76587     76586     76588     76590     76589     76591
     76593     76592     76594     76596     76595     76597     76599     76598     76600
     76602     76601     76603     76605     76604     76606     76608     76607     76609
     76611     76610     76612     76614     76613     76615     76617     76616     76618
     76620     76619     76621     76623     76622     76624     76626     76625     76627
     76629     76628     76630     76632     76631     76633     76635     76634     76636
     76638     76637     76639     76641     76640     76642     76644     76643     76645
     76647     76646     76648     76650     76649     76651     76653     76652     76654
     76656     76655     76657     76659     76658     76660     76662     76661     76663
     76665     76664     76666     76668     76667     76669     76671     76670     76672
     76674     76673     76675     76677     76676     76678     76680     76679     76681
     76683     76682     76684     76686     76685     76687     76689     76688     76690
     76692     76691     76693     76695     76694     76696     76698     76697     76699
     76701     76700     76702     76704     76703     76705     76707     76706     76708
     76710     76709     76711     76713     76712     76714     76716     76715     76717
     76719     76718     76720     76722     76721     76723     76725     76724     76726
     76728     76727     76729     76731     76730     76732     76734     76733     76735
     76737     76736     76738     76740     76739     76741     76743     76742     76744
     76746     76745     76747     76749     76748     76750     76752     76751     76753
     76755     76754     76756     76758     76757     76759     76761     76760     76762
     76764     76763     76765     76767     76766     76768     76770     76769     76771
     76773     76772     76774     76776     76775     76777     76779     76778     76780
     76782     76781     76783     76785     76784     76786     76788     76787     76789
     76791     76790     76792     76794     76793     76795     76797     76796     76798
     76800     76799     76801     76803     76802     76804     76806     76805     76807
     76809     76808     76810     76812     76811     76813     76815     76814     76816
     76818     76817     76819     76821     76820     76822     76824     76823     76825
     76827     76826     76828     76830     76829     76831     76833     76832     76834
     76836     76835     76837     76839     76838     76840     76842     76841     76843
     76845     76844     76846     76848     76847     76849     76851     76850     76852
     76854     76853     76855     76857     76856     76858     76860     76859     76861
     76863     76862     76864     76866     76865     76867     76869     76868     76870
     76872     76871     76873     76875     76874     76876     76878     76877     76879
     76881     76880     76882     76884     76883     76885     76887     76886     76888
     76890     76889     76891     76893     76892     76894     76896     76895     76897
     76899     76898     76900     76902     76901     76903     76905     76904     76906
     76908     76907     76909     76911     76910     76912     76914     76913     76915
     76917     76916     76918     76920     76919     76921     76923     76922     76924
     76926     76925     76927     76929     76928     76930     76932     76931     76933
     76935     76934     76936     76938     76937     76939     76941     76940     76942
     76944     76943     76945     76947     76946     76948     76950     76949     76951
     76953     76952     76954     76956     76955     76957     76959     76958     76960
     76962     76961     76963     76965     76964     76966     76968     76967     76969
     76971     76970     76972     76974     76973     76975     76977     76976     76978
     76980     76979     76981     76983     76982     76984     76986     76985     76987
     76989     76988     76990     76992     76991     76993     76995     76994     76996
     76998     76997     76999     77001     77000     77002     77004     77003     77005
     77007     77006     77008     77010     77009     77011     77013     77012     77014
     77016     77015     77017     77019     77018     77020     77022     77021     77023
     77025     77024     77026     77028     77027     77029     77031     77030     77032
     77034     77033     77035     77037     77036     77038     77040     77039     77041
     77043     77042     77044     77046     77045     77047     77049     77048     77050
     77052     77051     77053     77055     77054     77056     77058     77057     77059
     77061     77060     77062     77064     77063     77065     77067     77066     77068
     77070     77069     77071     77073     77072     77074     77076     77075     77077
     77079     77078     77080     77082     77081     77083     77085     77084     77086
     77088     77087     77089     77091     77090     77092     77094     77093     77095
     77097     77096     77098     77100     77099     77101     77103     77102     77104
     77106     77105     77107     77109     77108     77110     77112     77111     77113
     77115     77114     77116     77118     77117     77119     77121     77120     77122
     77124     77123     77125     77127     77126     77128     77130     77129     77131
     77133     77132     77134     77136     77135     77137     77139     77138     77140
     77142     77141     77143     77145     77144     77146     77148     77147     77149
     77151     77150     77152     77154     77153     77155     77157     77156     77158
     77160     77159     77161     77163     77162     77164     77166     77165     77167
     77169     77168     77170     77172     77171     77173     77175     77174     77176
     77178     77177     77179     77181     77180     77182     77184     77183     77185
     77187     77186     77188     77190     77189     77191     77193     77192     77194
     77196     77195     77197     77199     77198     77200     77202     77201     77203
     77205     77204     77206     77208     77207     77209     77211     77210     77212
     77214     77213     77215     77217     77216     77218     77220     77219     77221
     77223     77222     77224     77226     77225     77227     77229     77228     77230
     77232     77231     77233     77235     77234     77236     77238     77237     77239
     77241     77240     77242     77244     77243     77245     77247     77246     77248
     77250     77249     77251     77253     77252     77254     77256     77255     77257
     77259     77258     77260     77262     77261     77263     77265     77264     77266
     77268     77267     77269     77271     77270     77272     77274     77273     77275
     77277     77276     77278     77280     77279     77281     77283     77282     77284
     77286     77285     77287     77289     77288     77290     77292     77291     77293
     77295     77294     77296     77298     77297     77299     77301     77300     77302
     77304     77303     77305     77307     77306     77308     77310     77309     77311
     77313     77312     77314     77316     77315     77317     77319     77318     77320
     77322     77321     77323     77325     77324     77326     77328     77327     77329
     77331     77330     77332     77334     77333     77335     77337     77336     77338
     77340     77339     77341     77343     77342     77344     77346     77345     77347
     77349     77348     77350     77352     77351     77353     77355     77354     77356
     77358     77357     77359     77361     77360     77362     77364     77363     77365
     77367     77366     77368     77370     77369     77371     77373     77372     77374
     77376     77375     77377     77379     77378     77380     77382     77381     77383
     77385     77384     77386     77388     77387     77389     77391     77390     77392
     77394     77393     77395     77397     77396     77398     77400     77399     77401
     77403     77402     77404     77406     77405     77407     77409     77408     77410
     77412     77411     77413     77415     77414     77416     77418     77417     77419
     77421     77420     77422     77424     77423     77425     77427     77426     77428
     77430     77429     77431     77433     77432     77434     77436     77435     77437
     77439     77438     77440     77442     77441     77443     77445     77444     77446
     77448     77447     77449     77451     77450     77452     77454     77453     77455
     77457     77456     77458     77460     77459     77461     77463     77462     77464
     77466     77465     77467     77469     77468     77470     77472     77471     77473
     77475     77474     77476     77478     77477     77479     77481     77480     77482
     77484     77483     77485     77487     77486     77488     77490     77489     77491
     77493     77492     77494     77496     77495     77497     77499     77498     77500
     77502     77501     77503     77505     77504     77506     77508     77507     77509
     77511     77510     77512     77514     77513     77515     77517     77516     77518
     77520     77519     77521     77523     77522     77524     77526     77525     77527
     77529     77528     77530     77532     77531     77533     77535     77534     77536
     77538     77537     77539     77541     77540     77542     77544     77543     77545
     77547     77546     77548     77550     77549     77551     77553     77552     77554
     77556     77555     77557     77559     77558     77560     77562     77561     77563
     77565     77564     77566     77568     77567     77569     77571     77570     77572
     77574     77573     77575     77577     77576     77578     77580     77579     77581
     77583     77582     77584     77586     77585     77587     77589     77588     77590
     77592     77591     77593     77595     77594     77596     77598     77597     77599
     77601     77600     77602     77604     77603     77605     77607     77606     77608
     77610     77609     77611     77613     77612     77614     77616     77615     77617
     77619     77618     77620     77622     77621     77623     77625     77624     77626
     77628     77627     77629     77631     77630     77632     77634     77633     77635
     77637     77636     77638     77640     77639     77641     77643     77642     77644
     77646     77645     77647     77649     77648     77650     77652     77651     77653
     77655     77654     77656     77658     77657     77659     77661     77660     77662
     77664     77663     77665     77667     77666     77668     77670     77669     77671
     77673     77672     77674     77676     77675     77677     77679     77678     77680
     77682     77681     77683     77685     77684     77686     77688     77687     77689
     77691     77690     77692     77694     77693     77695     77697     77696     77698
     77700     77699     77701     77703     77702     77704     77706     77705     77707
     77709     77708     77710     77712     77711     77713     77715     77714     77716
     77718     77717     77719     77721     77720     77722     77724     77723     77725
     77727     77726     77728     77730     77729     77731     77733     77732     77734
     77736     77735     77737     77739     77738     77740     77742     77741     77743
     77745     77744     77746     77748     77747     77749     77751     77750     77752
     77754     77753     77755     77757     77756     77758     77760     77759     77761
     77763     77762     77764     77766     77765     77767     77769     77768     77770
     77772     77771     77773     77775     77774     77776     77778     77777     77779
     77781     77780     77782     77784     77783     77785     77787     77786     77788
     77790     77789     77791     77793     77792     77794     77796     77795     77797
     77799     77798     77800     77802     77801     77803     77805     77804     77806
     77808     77807     77809     77811     77810     77812     77814     77813     77815
     77817     77816     77818     77820     77819     77821     77823     77822     77824
     77826     77825     77827     77829     77828     77830     77832     77831     77833
     77835     77834     77836     77838     77837     77839     77841     77840     77842
     77844     77843     77845     77847     77846     77848     77850     77849     77851
     77853     77852     77854     77856     77855     77857     77859     77858     77860
     77862     77861     77863     77865     77864     77866     77868     77867     77869
     77871     77870     77872     77874     77873     77875     77877     77876     77878
     77880     77879     77881     77883     77882     77884     77886     77885     77887
     77889     77888     77890     77892     77891     77893     77895     77894     77896
     77898     77897     77899     77901     77900     77902     77904     77903     77905
     77907     77906     77908     77910     77909     77911     77913     77912     77914
     77916     77915     77917     77919     77918     77920     77922     77921     77923
     77925     77924     77926     77928     77927     77929     77931     77930     77932
     77934     77933     77935     77937     77936     77938     77940     77939     77941
     77943     77942     77944     77946     77945     77947     77949     77948     77950
     77952     77951     77953     77955     77954     77956     77958     77957     77959
     77961     77960     77962     77964     77963     77965     77967     77966     77968
     77970     77969     77971     77973     77972     77974     77976     77975     77977
     77979     77978     77980     77982     77981     77983     77985     77984     77986
     77988     77987     77989     77991     77990     77992     77994     77993     77995
     77997     77996     77998     78000     77999     78001     78003     78002     78004
     78006     78005     78007     78009     78008     78010     78012     78011     78013
     78015     78014     78016     78018     78017     78019     78021     78020     78022
     78024     78023     78025     78027     78026     78028     78030     78029     78031
     78033     78032     78034     78036     78035     78037     78039     78038     78040
     78042     78041     78043     78045     78044     78046     78048     78047     78049
     78051     78050     78052     78054     78053     78055     78057     78056     78058
     78060     78059     78061     78063     78062     78064     78066     78065     78067
     78069     78068     78070     78072     78071     78073     78075     78074     78076
     78078     78077     78079     78081     78080     78082     78084     78083     78085
     78087     78086     78088     78090     78089     78091     78093     78092     78094
     78096     78095     78097     78099     78098     78100     78102     78101     78103
     78105     78104     78106     78108     78107     78109     78111     78110     78112
     78114     78113     78115     78117     78116     78118     78120     78119     78121
     78123     78122     78124     78126     78125     78127     78129     78128     78130
     78132     78131     78133     78135     78134     78136     78138     78137     78139
     78141     78140     78142     78144     78143     78145     78147     78146     78148
     78150     78149     78151     78153     78152     78154     78156     78155     78157
     78159     78158     78160     78162     78161     78163     78165     78164     78166
     78168     78167     78169     78171     78170     78172     78174     78173     78175
     78177     78176     78178     78180     78179     78181     78183     78182     78184
     78186     78185     78187     78189     78188     78190     78192     78191     78193
     78195     78194     78196     78198     78197     78199     78201     78200     78202
     78204     78203     78205     78207     78206     78208     78210     78209     78211
     78213     78212     78214     78216     78215     78217     78219     78218     78220
     78222     78221     78223     78225     78224     78226     78228     78227     78229
     78231     78230     78232     78234     78233     78235     78237     78236     78238
     78240     78239     78241     78243     78242     78244     78246     78245     78247
     78249     78248     78250     78252     78251     78253     78255     78254     78256
     78258     78257     78259     78261     78260     78262     78264     78263     78265
     78267     78266     78268     78270     78269     78271     78273     78272     78274
     78276     78275     78277     78279     78278     78280     78282     78281     78283
     78285     78284     78286     78288     78287     78289     78291     78290     78292
     78294     78293     78295     78297     78296     78298     78300     78299     78301
     78303     78302     78304     78306     78305     78307     78309     78308     78310
     78312     78311     78313     78315     78314     78316     78318     78317     78319
     78321     78320     78322     78324     78323     78325     78327     78326     78328
     78330     78329     78331     78333     78332     78334     78336     78335     78337
     78339     78338     78340     78342     78341     78343     78345     78344     78346
     78348     78347     78349     78351     78350     78352     78354     78353     78355
     78357     78356     78358     78360     78359     78361     78363     78362     78364
     78366     78365     78367     78369     78368     78370     78372     78371     78373
     78375     78374     78376     78378     78377     78379     78381     78380     78382
     78384     78383     78385     78387     78386     78388     78390     78389     78391
     78393     78392     78394     78396     78395     78397     78399     78398     78400
     78402     78401     78403     78405     78404     78406     78408     78407     78409
     78411     78410     78412     78414     78413     78415     78417     78416     78418
     78420     78419     78421     78423     78422     78424     78426     78425     78427
     78429     78428     78430     78432     78431     78433     78435     78434     78436
     78438     78437     78439     78441     78440     78442     78444     78443     78445
     78447     78446     78448     78450     78449     78451     78453     78452     78454
     78456     78455     78457     78459     78458     78460     78462     78461     78463
     78465     78464     78466     78468     78467     78469     78471     78470     78472
     78474     78473     78475     78477     78476     78478     78480     78479     78481
     78483     78482     78484     78486     78485     78487     78489     78488     78490
     78492     78491     78493     78495     78494     78496     78498     78497     78499
     78501     78500     78502     78504     78503     78505     78507     78506     78508
     78510     78509     78511     78513     78512     78514     78516     78515     78517
     78519     78518     78520     78522     78521     78523     78525     78524     78526
     78528     78527     78529     78531     78530     78532     78534     78533     78535
     78537     78536     78538     78540     78539     78541     78543     78542     78544
     78546     78545     78547     78549     78548     78550     78552     78551     78553
     78555     78554     78556     78558     78557     78559     78561     78560     78562
     78564     78563     78565     78567     78566     78568     78570     78569     78571
     78573     78572     78574     78576     78575     78577     78579     78578     78580
     78582     78581     78583     78585     78584     78586     78588     78587     78589
     78591     78590     78592     78594     78593     78595     78597     78596     78598
     78600     78599     78601     78603     78602     78604     78606     78605     78607
     78609     78608     78610     78612     78611     78613     78615     78614     78616
     78618     78617     78619     78621     78620     78622     78624     78623     78625
     78627     78626     78628     78630     78629     78631     78633     78632     78634
     78636     78635     78637     78639     78638     78640     78642     78641     78643
     78645     78644     78646     78648     78647     78649     78651     78650     78652
     78654     78653     78655     78657     78656     78658     78660     78659     78661
     78663     78662     78664     78666     78665     78667     78669     78668     78670
     78672     78671     78673     78675     78674     78676     78678     78677     78679
     78681     78680     78682     78684     78683     78685     78687     78686     78688
     78690     78689     78691     78693     78692     78694     78696     78695     78697
     78699     78698     78700     78702     78701     78703     78705     78704     78706
     78708     78707     78709     78711     78710     78712     78714     78713     78715
     78717     78716     78718     78720     78719     78721     78723     78722     78724
     78726     78725     78727     78729     78728     78730     78732     78731     78733
     78735     78734     78736     78738     78737     78739     78741     78740     78742
     78744     78743     78745     78747     78746     78748     78750     78749     78751
     78753     78752     78754     78756     78755     78757     78759     78758     78760
     78762     78761     78763     78765     78764     78766     78768     78767     78769
     78771     78770     78772     78774     78773     78775     78777     78776     78778
     78780     78779     78781     78783     78782     78784     78786     78785     78787
     78789     78788     78790     78792     78791     78793     78795     78794     78796
     78798     78797     78799     78801     78800     78802     78804     78803     78805
     78807     78806     78808     78810     78809     78811     78813     78812     78814
     78816     78815     78817     78819     78818     78820     78822     78821     78823
     78825     78824     78826     78828     78827     78829     78831     78830     78832
     78834     78833     78835     78837     78836     78838     78840     78839     78841
     78843     78842     78844     78846     78845     78847     78849     78848     78850
     78852     78851     78853     78855     78854     78856     78858     78857     78859
     78861     78860     78862     78864     78863     78865     78867     78866     78868
     78870     78869     78871     78873     78872     78874     78876     78875     78877
     78879     78878     78880     78882     78881     78883     78885     78884     78886
     78888     78887     78889     78891     78890     78892     78894     78893     78895
     78897     78896     78898     78900     78899     78901     78903     78902     78904
     78906     78905     78907     78909     78908     78910     78912     78911     78913
     78915     78914     78916     78918     78917     78919     78921     78920     78922
     78924     78923     78925     78927     78926     78928     78930     78929     78931
     78933     78932     78934     78936     78935     78937     78939     78938     78940
     78942     78941     78943     78945     78944     78946     78948     78947     78949
     78951     78950     78952     78954     78953     78955     78957     78956     78958
     78960     78959     78961     78963     78962     78964     78966     78965     78967
     78969     78968     78970     78972     78971     78973     78975     78974     78976
     78978     78977     78979     78981     78980     78982     78984     78983     78985
     78987     78986     78988     78990     78989     78991     78993     78992     78994
     78996     78995     78997     78999     78998     79000     79002     79001     79003
     79005     79004     79006     79008     79007     79009     79011     79010     79012
     79014     79013     79015     79017     79016     79018     79020     79019     79021
     79023     79022     79024     79026     79025     79027     79029     79028     79030
     79032     79031     79033     79035     79034     79036     79038     79037     79039
     79041     79040     79042     79044     79043     79045     79047     79046     79048
     79050     79049     79051     79053     79052     79054     79056     79055     79057
     79059     79058     79060     79062     79061     79063     79065     79064     79066
     79068     79067     79069     79071     79070     79072     79074     79073     79075
     79077     79076     79078     79080     79079     79081     79083     79082     79084
     79086     79085     79087     79089     79088     79090     79092     79091     79093
     79095     79094     79096     79098     79097     79099     79101     79100     79102
     79104     79103     79105     79107     79106     79108     79110     79109     79111
     79113     79112     79114     79116     79115     79117     79119     79118     79120
     79122     79121     79123     79125     79124     79126     79128     79127     79129
     79131     79130     79132     79134     79133     79135     79137     79136     79138
     79140     79139     79141     79143     79142     79144     79146     79145     79147
     79149     79148     79150     79152     79151     79153     79155     79154     79156
     79158     79157     79159     79161     79160     79162     79164     79163     79165
     79167     79166     79168     79170     79169     79171     79173     79172     79174
     79176     79175     79177     79179     79178     79180     79182     79181     79183
     79185     79184     79186     79188     79187     79189     79191     79190     79192
     79194     79193     79195     79197     79196     79198     79200     79199     79201
     79203     79202     79204     79206     79205     79207     79209     79208     79210
     79212     79211     79213     79215     79214     79216     79218     79217     79219
     79221     79220     79222     79224     79223     79225     79227     79226     79228
     79230     79229     79231     79233     79232     79234     79236     79235     79237
     79239     79238     79240     79242     79241     79243     79245     79244     79246
     79248     79247     79249     79251     79250     79252     79254     79253     79255
     79257     79256     79258     79260     79259     79261     79263     79262     79264
     79266     79265     79267     79269     79268     79270     79272     79271     79273
     79275     79274     79276     79278     79277     79279     79281     79280     79282
     79284     79283     79285     79287     79286     79288     79290     79289     79291
     79293     79292     79294     79296     79295     79297     79299     79298     79300
     79302     79301     79303     79305     79304     79306     79308     79307     79309
     79311     79310     79312     79314     79313     79315     79317     79316     79318
     79320     79319     79321     79323     79322     79324     79326     79325     79327
     79329     79328     79330     79332     79331     79333     79335     79334     79336
     79338     79337     79339     79341     79340     79342     79344     79343     79345
     79347     79346     79348     79350     79349     79351     79353     79352     79354
     79356     79355     79357     79359     79358     79360     79362     79361     79363
     79365     79364     79366     79368     79367     79369     79371     79370     79372
     79374     79373     79375     79377     79376     79378     79380     79379     79381
     79383     79382     79384     79386     79385     79387     79389     79388     79390
     79392     79391     79393     79395     79394     79396     79398     79397     79399
     79401     79400     79402     79404     79403     79405     79407     79406     79408
     79410     79409     79411     79413     79412     79414     79416     79415     79417
     79419     79418     79420     79422     79421     79423     79425     79424     79426
     79428     79427     79429     79431     79430     79432     79434     79433     79435
     79437     79436     79438     79440     79439     79441     79443     79442     79444
     79446     79445     79447     79449     79448     79450     79452     79451     79453
     79455     79454     79456     79458     79457     79459     79461     79460     79462
     79464     79463     79465     79467     79466     79468     79470     79469     79471
     79473     79472     79474     79476     79475     79477     79479     79478     79480
     79482     79481     79483     79485     79484     79486     79488     79487     79489
     79491     79490     79492     79494     79493     79495     79497     79496     79498
     79500     79499     79501     79503     79502     79504     79506     79505     79507
     79509     79508     79510     79512     79511     79513     79515     79514     79516
     79518     79517     79519     79521     79520     79522     79524     79523     79525
     79527     79526     79528     79530     79529     79531     79533     79532     79534
     79536     79535     79537     79539     79538     79540     79542     79541     79543
     79545     79544     79546     79548     79547     79549     79551     79550     79552
     79554     79553     79555     79557     79556     79558     79560     79559     79561
     79563     79562     79564     79566     79565     79567     79569     79568     79570
     79572     79571     79573     79575     79574     79576     79578     79577     79579
     79581     79580     79582     79584     79583     79585     79587     79586     79588
     79590     79589     79591     79593     79592     79594     79596     79595     79597
     79599     79598     79600     79602     79601     79603     79605     79604     79606
     79608     79607     79609     79611     79610     79612     79614     79613     79615
     79617     79616     79618     79620     79619     79621     79623     79622     79624
     79626     79625     79627     79629     79628     79630     79632     79631     79633
     79635     79634     79636     79638     79637     79639     79641     79640     79642
     79644     79643     79645     79647     79646     79648     79650     79649     79651
     79653     79652     79654     79656     79655     79657     79659     79658     79660
     79662     79661     79663     79665     79664     79666     79668     79667     79669
     79671     79670     79672     79674     79673     79675     79677     79676     79678
     79680     79679     79681     79683     79682     79684     79686     79685     79687
     79689     79688     79690     79692     79691     79693     79695     79694     79696
     79698     79697     79699     79701     79700     79702     79704     79703     79705
     79707     79706     79708     79710     79709     79711     79713     79712     79714
     79716     79715     79717     79719     79718     79720     79722     79721     79723
     79725     79724     79726     79728     79727     79729     79731     79730     79732
     79734     79733     79735     79737     79736     79738     79740     79739     79741
     79743     79742     79744     79746     79745     79747     79749     79748     79750
     79752     79751     79753     79755     79754     79756     79758     79757     79759
     79761     79760     79762     79764     79763     79765     79767     79766     79768
     79770     79769     79771     79773     79772     79774     79776     79775     79777
     79779     79778     79780     79782     79781     79783     79785     79784     79786
     79788     79787     79789     79791     79790     79792     79794     79793     79795
     79797     79796     79798     79800     79799     79801     79803     79802     79804
     79806     79805     79807     79809     79808     79810     79812     79811     79813
     79815     79814     79816     79818     79817     79819     79821     79820     79822
     79824     79823     79825     79827     79826     79828     79830     79829     79831
     79833     79832     79834     79836     79835     79837     79839     79838     79840
     79842     79841     79843     79845     79844     79846     79848     79847     79849
     79851     79850     79852     79854     79853     79855     79857     79856     79858
     79860     79859     79861     79863     79862     79864     79866     79865     79867
     79869     79868     79870     79872     79871     79873     79875     79874     79876
     79878     79877     79879     79881     79880     79882     79884     79883     79885
     79887     79886     79888     79890     79889     79891     79893     79892     79894
     79896     79895     79897     79899     79898     79900     79902     79901     79903
     79905     79904     79906     79908     79907     79909     79911     79910     79912
     79914     79913     79915     79917     79916     79918     79920     79919     79921
     79923     79922     79924     79926     79925     79927     79929     79928     79930
     79932     79931     79933     79935     79934     79936     79938     79937     79939
     79941     79940     79942     79944     79943     79945     79947     79946     79948
     79950     79949     79951     79953     79952     79954     79956     79955     79957
     79959     79958     79960     79962     79961     79963     79965     79964     79966
     79968     79967     79969     79971     79970     79972     79974     79973     79975
     79977     79976     79978     79980     79979     79981     79983     79982     79984
     79986     79985     79987     79989     79988     79990     79992     79991     79993
     79995     79994     79996     79998     79997     79999     80001     80000     80002
     80004     80003     80005     80007     80006     80008     80010     80009     80011
     80013     80012     80014     80016     80015     80017     80019     80018     80020
     80022     80021     80023     80025     80024     80026     80028     80027     80029
     80031     80030     80032     80034     80033     80035     80037     80036     80038
     80040     80039     80041     80043     80042     80044     80046     80045     80047
     80049     80048     80050     80052     80051     80053     80055     80054     80056
     80058     80057     80059     80061     80060     80062     80064     80063     80065
     80067     80066     80068     80070     80069     80071     80073     80072     80074
     80076     80075     80077     80079     80078     80080     80082     80081     80083
     80085     80084     80086     80088     80087     80089     80091     80090     80092
     80094     80093     80095     80097     80096     80098     80100     80099     80101
     80103     80102     80104     80106     80105     80107     80109     80108     80110
     80112     80111     80113     80115     80114     80116     80118     80117     80119
     80121     80120     80122     80124     80123     80125     80127     80126     80128
     80130     80129     80131     80133     80132     80134     80136     80135     80137
     80139     80138     80140     80142     80141     80143     80145     80144     80146
     80148     80147     80149     80151     80150     80152     80154     80153     80155
     80157     80156     80158     80160     80159     80161     80163     80162     80164
     80166     80165     80167     80169     80168     80170     80172     80171     80173
     80175     80174     80176     80178     80177     80179     80181     80180     80182
     80184     80183     80185     80187     80186     80188     80190     80189     80191
     80193     80192     80194     80196     80195     80197     80199     80198     80200
     80202     80201     80203     80205     80204     80206     80208     80207     80209
     80211     80210     80212     80214     80213     80215     80217     80216     80218
     80220     80219     80221     80223     80222     80224     80226     80225     80227
     80229     80228     80230     80232     80231     80233     80235     80234     80236
     80238     80237     80239     80241     80240     80242     80244     80243     80245
     80247     80246     80248     80250     80249     80251     80253     80252     80254
     80256     80255     80257     80259     80258     80260     80262     80261     80263
     80265     80264     80266     80268     80267     80269     80271     80270     80272
     80274     80273     80275     80277     80276     80278     80280     80279     80281
     80283     80282     80284     80286     80285     80287     80289     80288     80290
     80292     80291     80293     80295     80294     80296     80298     80297     80299
     80301     80300     80302     80304     80303     80305     80307     80306     80308
     80310     80309     80311     80313     80312     80314     80316     80315     80317
     80319     80318     80320     80322     80321     80323     80325     80324     80326
     80328     80327     80329     80331     80330     80332     80334     80333     80335
     80337     80336     80338     80340     80339     80341     80343     80342     80344
     80346     80345     80347     80349     80348     80350     80352     80351     80353
     80355     80354     80356     80358     80357     80359     80361     80360     80362
     80364     80363     80365     80367     80366     80368     80370     80369     80371
     80373     80372     80374     80376     80375     80377     80379     80378     80380
     80382     80381     80383     80385     80384     80386     80388     80387     80389
     80391     80390     80392     80394     80393     80395     80397     80396     80398
     80400     80399     80401     80403     80402     80404     80406     80405     80407
     80409     80408     80410     80412     80411     80413     80415     80414     80416
     80418     80417     80419     80421     80420     80422     80424     80423     80425
     80427     80426     80428     80430     80429     80431     80433     80432     80434
     80436     80435     80437     80439     80438     80440     80442     80441     80443
     80445     80444     80446     80448     80447     80449     80451     80450     80452
     80454     80453     80455     80457     80456     80458     80460     80459     80461
     80463     80462     80464     80466     80465     80467     80469     80468     80470
     80472     80471     80473     80475     80474     80476     80478     80477     80479
     80481     80480     80482     80484     80483     80485     80487     80486     80488
     80490     80489     80491     80493     80492     80494     80496     80495     80497
     80499     80498     80500     80502     80501     80503     80505     80504     80506
     80508     80507     80509     80511     80510     80512     80514     80513     80515
     80517     80516     80518     80520     80519     80521     80523     80522     80524
     80526     80525     80527     80529     80528     80530     80532     80531     80533
     80535     80534     80536     80538     80537     80539     80541     80540     80542
     80544     80543     80545     80547     80546     80548     80550     80549     80551
     80553     80552     80554     80556     80555     80557     80559     80558     80560
     80562     80561     80563     80565     80564     80566     80568     80567     80569
     80571     80570     80572     80574     80573     80575     80577     80576     80578
     80580     80579     80581     80583     80582     80584     80586     80585     80587
     80589     80588     80590     80592     80591     80593     80595     80594     80596
     80598     80597     80599     80601     80600     80602     80604     80603     80605
     80607     80606     80608     80610     80609     80611     80613     80612     80614
     80616     80615     80617     80619     80618     80620     80622     80621     80623
     80625     80624     80626     80628     80627     80629     80631     80630     80632
     80634     80633     80635     80637     80636     80638     80640     80639     80641
     80643     80642     80644     80646     80645     80647     80649     80648     80650
     80652     80651     80653     80655     80654     80656     80658     80657     80659
     80661     80660     80662     80664     80663     80665     80667     80666     80668
     80670     80669     80671     80673     80672     80674     80676     80675     80677
     80679     80678     80680     80682     80681     80683     80685     80684     80686
     80688     80687     80689     80691     80690     80692     80694     80693     80695
     80697     80696     80698     80700     80699     80701     80703     80702     80704
     80706     80705     80707     80709     80708     80710     80712     80711     80713
     80715     80714     80716     80718     80717     80719     80721     80720     80722
     80724     80723     80725     80727     80726     80728     80730     80729     80731
     80733     80732     80734     80736     80735     80737     80739     80738     80740
     80742     80741     80743     80745     80744     80746     80748     80747     80749
     80751     80750     80752     80754     80753     80755     80757     80756     80758
     80760     80759     80761     80763     80762     80764     80766     80765     80767
     80769     80768     80770     80772     80771     80773     80775     80774     80776
     80778     80777     80779     80781     80780     80782     80784     80783     80785
     80787     80786     80788     80790     80789     80791     80793     80792     80794
     80796     80795     80797     80799     80798     80800     80802     80801     80803
     80805     80804     80806     80808     80807     80809     80811     80810     80812
     80814     80813     80815     80817     80816     80818     80820     80819     80821
     80823     80822     80824     80826     80825     80827     80829     80828     80830
     80832     80831     80833     80835     80834     80836     80838     80837     80839
     80841     80840     80842     80844     80843     80845     80847     80846     80848
     80850     80849     80851     80853     80852     80854     80856     80855     80857
     80859     80858     80860     80862     80861     80863     80865     80864     80866
     80868     80867     80869     80871     80870     80872     80874     80873     80875
     80877     80876     80878     80880     80879     80881     80883     80882     80884
     80886     80885     80887     80889     80888     80890     80892     80891     80893
     80895     80894     80896     80898     80897     80899     80901     80900     80902
     80904     80903     80905     80907     80906     80908     80910     80909     80911
     80913     80912     80914     80916     80915     80917     80919     80918     80920
     80922     80921     80923     80925     80924     80926     80928     80927     80929
     80931     80930     80932     80934     80933     80935     80937     80936     80938
     80940     80939     80941     80943     80942     80944     80946     80945     80947
     80949     80948     80950     80952     80951     80953     80955     80954     80956
     80958     80957     80959     80961     80960     80962     80964     80963     80965
     80967     80966     80968     80970     80969     80971     80973     80972     80974
     80976     80975     80977     80979     80978     80980     80982     80981     80983
     80985     80984     80986     80988     80987     80989     80991     80990     80992
     80994     80993     80995     80997     80996     80998     81000     80999     81001
     81003     81002     81004     81006     81005     81007     81009     81008     81010
     81012     81011     81013     81015     81014     81016     81018     81017     81019
     81021     81020     81022     81024     81023     81025     81027     81026     81028
     81030     81029     81031     81033     81032     81034     81036     81035     81037
     81039     81038     81040     81042     81041     81043     81045     81044     81046
     81048     81047     81049     81051     81050     81052     81054     81053     81055
     81057     81056     81058     81060     81059     81061     81063     81062     81064
     81066     81065     81067     81069     81068     81070     81072     81071     81073
     81075     81074     81076     81078     81077     81079     81081     81080     81082
     81084     81083     81085     81087     81086     81088     81090     81089     81091
     81093     81092     81094     81096     81095     81097     81099     81098     81100
     81102     81101     81103     81105     81104     81106     81108     81107     81109
     81111     81110     81112     81114     81113     81115     81117     81116     81118
     81120     81119     81121     81123     81122     81124     81126     81125     81127
     81129     81128     81130     81132     81131     81133     81135     81134     81136
     81138     81137     81139     81141     81140     81142     81144     81143     81145
     81147     81146     81148     81150     81149     81151     81153     81152     81154
     81156     81155     81157     81159     81158     81160     81162     81161     81163
     81165     81164     81166     81168     81167     81169     81171     81170     81172
     81174     81173     81175     81177     81176     81178     81180     81179     81181
     81183     81182     81184     81186     81185     81187     81189     81188     81190
     81192     81191     81193     81195     81194     81196     81198     81197     81199
     81201     81200     81202     81204     81203     81205     81207     81206     81208
     81210     81209     81211     81213     81212     81214     81216     81215     81217
     81219     81218     81220     81222     81221     81223     81225     81224     81226
     81228     81227     81229     81231     81230     81232     81234     81233     81235
     81237     81236     81238     81240     81239     81241     81243     81242     81244
     81246     81245     81247     81249     81248     81250     81252     81251     81253
     81255     81254     81256     81258     81257     81259     81261     81260     81262
     81264     81263     81265     81267     81266     81268     81270     81269     81271
     81273     81272     81274     81276     81275     81277     81279     81278     81280
     81282     81281     81283     81285     81284     81286     81288     81287     81289
     81291     81290     81292     81294     81293     81295     81297     81296     81298
     81300     81299     81301     81303     81302     81304     81306     81305     81307
     81309     81308     81310     81312     81311     81313     81315     81314     81316
     81318     81317     81319     81321     81320     81322     81324     81323     81325
     81327     81326     81328     81330     81329     81331     81333     81332     81334
     81336     81335     81337     81339     81338     81340     81342     81341     81343
     81345     81344     81346     81348     81347     81349     81351     81350     81352
     81354     81353     81355     81357     81356     81358     81360     81359     81361
     81363     81362     81364     81366     81365     81367     81369     81368     81370
     81372     81371     81373     81375     81374     81376     81378     81377     81379
     81381     81380     81382     81384     81383     81385     81387     81386     81388
     81390     81389     81391     81393     81392     81394     81396     81395     81397
     81399     81398     81400     81402     81401     81403     81405     81404     81406
     81408     81407     81409     81411     81410     81412     81414     81413     81415
     81417     81416     81418     81420     81419     81421     81423     81422     81424
     81426     81425     81427     81429     81428     81430     81432     81431     81433
     81435     81434     81436     81438     81437     81439     81441     81440     81442
     81444     81443     81445     81447     81446     81448     81450     81449     81451
     81453     81452     81454     81456     81455     81457     81459     81458     81460
     81462     81461     81463     81465     81464     81466     81468     81467     81469
     81471     81470     81472     81474     81473     81475     81477     81476     81478
     81480     81479     81481     81483     81482     81484     81486     81485     81487
     81489     81488     81490     81492     81491     81493     81495     81494     81496
     81498     81497     81499     81501     81500     81502     81504     81503     81505
     81507     81506     81508     81510     81509     81511     81513     81512     81514
     81516     81515     81517     81519     81518     81520     81522     81521     81523
     81525     81524     81526     81528     81527     81529     81531     81530     81532
     81534     81533     81535     81537     81536     81538     81540     81539     81541
     81543     81542     81544     81546     81545     81547     81549     81548     81550
     81552     81551     81553     81555     81554     81556     81558     81557     81559
     81561     81560     81562     81564     81563     81565     81567     81566     81568
     81570     81569     81571     81573     81572     81574     81576     81575     81577
     81579     81578     81580     81582     81581     81583     81585     81584     81586
     81588     81587     81589     81591     81590     81592     81594     81593     81595
     81597     81596     81598     81600     81599     81601     81603     81602     81604
     81606     81605     81607     81609     81608     81610     81612     81611     81613
     81615     81614     81616     81618     81617     81619     81621     81620     81622
     81624     81623     81625     81627     81626     81628     81630     81629     81631
     81633     81632     81634     81636     81635     81637     81639     81638     81640
     81642     81641     81643     81645     81644     81646     81648     81647     81649
     81651     81650     81652     81654     81653     81655     81657     81656     81658
     81660     81659     81661     81663     81662     81664     81666     81665     81667
     81669     81668     81670     81672     81671     81673     81675     81674     81676
     81678     81677     81679     81681     81680     81682     81684     81683     81685
     81687     81686     81688     81690     81689     81691     81693     81692     81694
     81696     81695     81697     81699     81698     81700     81702     81701     81703
     81705     81704     81706     81708     81707     81709     81711     81710     81712
     81714     81713     81715     81717     81716     81718     81720     81719     81721
     81723     81722     81724     81726     81725     81727     81729     81728     81730
     81732     81731     81733     81735     81734     81736     81738     81737     81739
     81741     81740     81742     81744     81743     81745     81747     81746     81748
     81750     81749     81751     81753     81752     81754     81756     81755     81757
     81759     81758     81760     81762     81761     81763     81765     81764     81766
     81768     81767     81769     81771     81770     81772     81774     81773     81775
     81777     81776     81778     81780     81779     81781     81783     81782     81784
     81786     81785     81787     81789     81788     81790     81792     81791     81793
     81795     81794     81796     81798     81797     81799     81801     81800     81802
     81804     81803     81805     81807     81806     81808     81810     81809     81811
     81813     81812     81814     81816     81815     81817     81819     81818     81820
     81822     81821     81823     81825     81824     81826     81828     81827     81829
     81831     81830     81832     81834     81833     81835     81837     81836     81838
     81840     81839     81841     81843     81842     81844     81846     81845     81847
     81849     81848     81850     81852     81851     81853     81855     81854     81856
     81858     81857     81859     81861     81860     81862     81864     81863     81865
     81867     81866     81868     81870     81869     81871     81873     81872     81874
     81876     81875     81877     81879     81878     81880     81882     81881     81883
     81885     81884     81886     81888     81887     81889     81891     81890     81892
     81894     81893     81895     81897     81896     81898     81900     81899     81901
     81903     81902     81904     81906     81905     81907     81909     81908     81910
     81912     81911     81913     81915     81914     81916     81918     81917     81919
     81921     81920     81922     81924     81923     81925     81927     81926     81928
     81930     81929     81931     81933     81932     81934     81936     81935     81937
     81939     81938     81940     81942     81941     81943     81945     81944     81946
     81948     81947     81949     81951     81950     81952     81954     81953     81955
     81957     81956     81958     81960     81959     81961     81963     81962     81964
     81966     81965     81967     81969     81968     81970     81972     81971     81973
     81975     81974     81976     81978     81977     81979     81981     81980     81982
     81984     81983     81985     81987     81986     81988     81990     81989     81991
     81993     81992     81994     81996     81995     81997     81999     81998     82000
     82002     82001     82003     82005     82004     82006     82008     82007     82009
     82011     82010     82012     82014     82013     82015     82017     82016     82018
     82020     82019     82021     82023     82022     82024     82026     82025     82027
     82029     82028     82030     82032     82031     82033     82035     82034     82036
     82038     82037     82039     82041     82040     82042     82044     82043     82045
     82047     82046     82048     82050     82049     82051     82053     82052     82054
     82056     82055     82057     82059     82058     82060     82062     82061     82063
     82065     82064     82066     82068     82067     82069     82071     82070     82072
     82074     82073     82075     82077     82076     82078     82080     82079     82081
     82083     82082     82084     82086     82085     82087     82089     82088     82090
     82092     82091     82093     82095     82094     82096     82098     82097     82099
     82101     82100     82102     82104     82103     82105     82107     82106     82108
     82110     82109     82111     82113     82112     82114     82116     82115     82117
     82119     82118     82120     82122     82121     82123     82125     82124     82126
     82128     82127     82129     82131     82130     82132     82134     82133     82135
     82137     82136     82138     82140     82139     82141     82143     82142     82144
     82146     82145     82147     82149     82148     82150     82152     82151     82153
     82155     82154     82156     82158     82157     82159     82161     82160     82162
     82164     82163     82165     82167     82166     82168     82170     82169     82171
     82173     82172     82174     82176     82175     82177     82179     82178     82180
     82182     82181     82183     82185     82184     82186     82188     82187     82189
     82191     82190     82192     82194     82193     82195     82197     82196     82198
     82200     82199     82201     82203     82202     82204     82206     82205     82207
     82209     82208     82210     82212     82211     82213     82215     82214     82216
     82218     82217     82219     82221     82220     82222     82224     82223     82225
     82227     82226     82228     82230     82229     82231     82233     82232     82234
     82236     82235     82237     82239     82238     82240     82242     82241     82243
     82245     82244     82246     82248     82247     82249     82251     82250     82252
     82254     82253     82255     82257     82256     82258     82260     82259     82261
     82263     82262     82264     82266     82265     82267     82269     82268     82270
     82272     82271     82273     82275     82274     82276     82278     82277     82279
     82281     82280     82282     82284     82283     82285     82287     82286     82288
     82290     82289     82291     82293     82292     82294     82296     82295     82297
     82299     82298     82300     82302     82301     82303     82305     82304     82306
     82308     82307     82309     82311     82310     82312     82314     82313     82315
     82317     82316     82318     82320     82319     82321     82323     82322     82324
     82326     82325     82327     82329     82328     82330     82332     82331     82333
     82335     82334     82336     82338     82337     82339     82341     82340     82342
     82344     82343     82345     82347     82346     82348     82350     82349     82351
     82353     82352     82354     82356     82355     82357     82359     82358     82360
     82362     82361     82363     82365     82364     82366     82368     82367     82369
     82371     82370     82372     82374     82373     82375     82377     82376     82378
     82380     82379     82381     82383     82382     82384     82386     82385     82387
     82389     82388     82390     82392     82391     82393     82395     82394     82396
     82398     82397     82399     82401     82400     82402     82404     82403     82405
     82407     82406     82408     82410     82409     82411     82413     82412     82414
     82416     82415     82417     82419     82418     82420     82422     82421     82423
     82425     82424     82426     82428     82427     82429     82431     82430     82432
     82434     82433     82435     82437     82436     82438     82440     82439     82441
     82443     82442     82444     82446     82445     82447     82449     82448     82450
     82452     82451     82453     82455     82454     82456     82458     82457     82459
     82461     82460     82462     82464     82463     82465     82467     82466     82468
     82470     82469     82471     82473     82472     82474     82476     82475     82477
     82479     82478     82480     82482     82481     82483     82485     82484     82486
     82488     82487     82489     82491     82490     82492     82494     82493     82495
     82497     82496     82498     82500     82499     82501     82503     82502     82504
     82506     82505     82507     82509     82508     82510     82512     82511     82513
     82515     82514     82516     82518     82517     82519     82521     82520     82522
     82524     82523     82525     82527     82526     82528     82530     82529     82531
     82533     82532     82534     82536     82535     82537     82539     82538     82540
     82542     82541     82543     82545     82544     82546     82548     82547     82549
     82551     82550     82552     82554     82553     82555     82557     82556     82558
     82560     82559     82561     82563     82562     82564     82566     82565     82567
     82569     82568     82570     82572     82571     82573     82575     82574     82576
     82578     82577     82579     82581     82580     82582     82584     82583     82585
     82587     82586     82588     82590     82589     82591     82593     82592     82594
     82596     82595     82597     82599     82598     82600     82602     82601     82603
     82605     82604     82606     82608     82607     82609     82611     82610     82612
     82614     82613     82615     82617     82616     82618     82620     82619     82621
     82623     82622     82624     82626     82625     82627     82629     82628     82630
     82632     82631     82633     82635     82634     82636     82638     82637     82639
     82641     82640     82642     82644     82643     82645     82647     82646     82648
     82650     82649     82651     82653     82652     82654     82656     82655     82657
     82659     82658     82660     82662     82661     82663     82665     82664     82666
     82668     82667     82669     82671     82670     82672     82674     82673     82675
     82677     82676     82678     82680     82679     82681     82683     82682     82684
     82686     82685     82687     82689     82688     82690     82692     82691     82693
     82695     82694     82696     82698     82697     82699     82701     82700     82702
     82704     82703     82705     82707     82706     82708     82710     82709     82711
     82713     82712     82714     82716     82715     82717     82719     82718     82720
     82722     82721     82723     82725     82724     82726     82728     82727     82729
     82731     82730     82732     82734     82733     82735     82737     82736     82738
     82740     82739     82741     82743     82742     82744     82746     82745     82747
     82749     82748     82750     82752     82751     82753     82755     82754     82756
     82758     82757     82759     82761     82760     82762     82764     82763     82765
     82767     82766     82768     82770     82769     82771     82773     82772     82774
     82776     82775     82777     82779     82778     82780     82782     82781     82783
     82785     82784     82786     82788     82787     82789     82791     82790     82792
     82794     82793     82795     82797     82796     82798     82800     82799     82801
     82803     82802     82804     82806     82805     82807     82809     82808     82810
     82812     82811     82813     82815     82814     82816     82818     82817     82819
     82821     82820     82822     82824     82823     82825     82827     82826     82828
     82830     82829     82831     82833     82832     82834     82836     82835     82837
     82839     82838     82840     82842     82841     82843     82845     82844     82846
     82848     82847     82849     82851     82850     82852     82854     82853     82855
     82857     82856     82858     82860     82859     82861     82863     82862     82864
     82866     82865     82867     82869     82868     82870     82872     82871     82873
     82875     82874     82876     82878     82877     82879     82881     82880     82882
     82884     82883     82885     82887     82886     82888     82890     82889     82891
     82893     82892     82894     82896     82895     82897     82899     82898     82900
     82902     82901     82903     82905     82904     82906     82908     82907     82909
     82911     82910     82912     82914     82913     82915     82917     82916     82918
     82920     82919     82921     82923     82922     82924     82926     82925     82927
     82929     82928     82930     82932     82931     82933     82935     82934     82936
     82938     82937     82939     82941     82940     82942     82944     82943     82945
     82947     82946     82948     82950     82949     82951     82953     82952     82954
     82956     82955     82957     82959     82958     82960     82962     82961     82963
     82965     82964     82966     82968     82967     82969     82971     82970     82972
     82974     82973     82975     82977     82976     82978     82980     82979     82981
     82983     82982     82984     82986     82985     82987     82989     82988     82990
     82992     82991     82993     82995     82994     82996     82998     82997     82999
     83001     83000     83002     83004     83003     83005     83007     83006     83008
     83010     83009     83011     83013     83012     83014     83016     83015     83017
     83019     83018     83020     83022     83021     83023     83025     83024     83026
     83028     83027     83029     83031     83030     83032     83034     83033     83035
     83037     83036     83038     83040     83039     83041     83043     83042     83044
     83046     83045     83047     83049     83048     83050     83052     83051     83053
     83055     83054     83056     83058     83057     83059     83061     83060     83062
     83064     83063     83065     83067     83066     83068     83070     83069     83071
     83073     83072     83074     83076     83075     83077     83079     83078     83080
     83082     83081     83083     83085     83084     83086     83088     83087     83089
     83091     83090     83092     83094     83093     83095     83097     83096     83098
     83100     83099     83101     83103     83102     83104     83106     83105     83107
     83109     83108     83110     83112     83111     83113     83115     83114     83116
     83118     83117     83119     83121     83120     83122     83124     83123     83125
     83127     83126     83128     83130     83129     83131     83133     83132     83134
     83136     83135     83137     83139     83138     83140     83142     83141     83143
     83145     83144     83146     83148     83147     83149     83151     83150     83152
     83154     83153     83155     83157     83156     83158     83160     83159     83161
     83163     83162     83164     83166     83165     83167     83169     83168     83170
     83172     83171     83173     83175     83174     83176     83178     83177     83179
     83181     83180     83182     83184     83183     83185     83187     83186     83188
     83190     83189     83191     83193     83192     83194     83196     83195     83197
     83199     83198     83200     83202     83201     83203     83205     83204     83206
     83208     83207     83209     83211     83210     83212     83214     83213     83215
     83217     83216     83218     83220     83219     83221     83223     83222     83224
     83226     83225     83227     83229     83228     83230     83232     83231     83233
     83235     83234     83236     83238     83237     83239     83241     83240     83242
     83244     83243     83245     83247     83246     83248     83250     83249     83251
     83253     83252     83254     83256     83255     83257     83259     83258     83260
     83262     83261     83263     83265     83264     83266     83268     83267     83269
     83271     83270     83272     83274     83273     83275     83277     83276     83278
     83280     83279     83281     83283     83282     83284     83286     83285     83287
     83289     83288     83290     83292     83291     83293     83295     83294     83296
     83298     83297     83299     83301     83300     83302     83304     83303     83305
     83307     83306     83308     83310     83309     83311     83313     83312     83314
     83316     83315     83317     83319     83318     83320     83322     83321     83323
     83325     83324     83326     83328     83327     83329     83331     83330     83332
     83334     83333     83335     83337     83336     83338     83340     83339     83341
     83343     83342     83344     83346     83345     83347     83349     83348     83350
     83352     83351     83353     83355     83354     83356     83358     83357     83359
     83361     83360     83362     83364     83363     83365     83367     83366     83368
     83370     83369     83371     83373     83372     83374     83376     83375     83377
     83379     83378     83380     83382     83381     83383     83385     83384     83386
     83388     83387     83389     83391     83390     83392     83394     83393     83395
     83397     83396     83398     83400     83399     83401     83403     83402     83404
     83406     83405     83407     83409     83408     83410     83412     83411     83413
     83415     83414     83416     83418     83417     83419     83421     83420     83422
     83424     83423     83425     83427     83426     83428     83430     83429     83431
     83433     83432     83434     83436     83435     83437     83439     83438     83440
     83442     83441     83443     83445     83444     83446     83448     83447     83449
     83451     83450     83452     83454     83453     83455     83457     83456     83458
     83460     83459     83461     83463     83462     83464     83466     83465     83467
     83469     83468     83470     83472     83471     83473     83475     83474     83476
     83478     83477     83479     83481     83480     83482     83484     83483     83485
     83487     83486     83488     83490     83489     83491     83493     83492     83494
     83496     83495     83497     83499     83498     83500     83502     83501     83503
     83505     83504     83506     83508     83507     83509     83511     83510     83512
     83514     83513     83515     83517     83516     83518     83520     83519     83521
     83523     83522     83524     83526     83525     83527     83529     83528     83530
     83532     83531     83533     83535     83534     83536     83538     83537     83539
     83541     83540     83542     83544     83543     83545     83547     83546     83548
     83550     83549     83551     83553     83552     83554     83556     83555     83557
     83559     83558     83560     83562     83561     83563     83565     83564     83566
     83568     83567     83569     83571     83570     83572     83574     83573     83575
     83577     83576     83578     83580     83579     83581     83583     83582     83584
     83586     83585     83587     83589     83588     83590     83592     83591     83593
     83595     83594     83596     83598     83597     83599     83601     83600     83602
     83604     83603     83605     83607     83606     83608     83610     83609     83611
     83613     83612     83614     83616     83615     83617     83619     83618     83620
     83622     83621     83623     83625     83624     83626     83628     83627     83629
     83631     83630     83632     83634     83633     83635     83637     83636     83638
     83640     83639     83641     83643     83642     83644     83646     83645     83647
     83649     83648     83650     83652     83651     83653     83655     83654     83656
     83658     83657     83659     83661     83660     83662     83664     83663     83665
     83667     83666     83668     83670     83669     83671     83673     83672     83674
     83676     83675     83677     83679     83678     83680     83682     83681     83683
     83685     83684     83686     83688     83687     83689     83691     83690     83692
     83694     83693     83695     83697     83696     83698     83700     83699     83701
     83703     83702     83704     83706     83705     83707     83709     83708     83710
     83712     83711     83713     83715     83714     83716     83718     83717     83719
     83721     83720     83722     83724     83723     83725     83727     83726     83728
     83730     83729     83731     83733     83732     83734     83736     83735     83737
     83739     83738     83740     83742     83741     83743     83745     83744     83746
     83748     83747     83749     83751     83750     83752     83754     83753     83755
     83757     83756     83758     83760     83759     83761     83763     83762     83764
     83766     83765     83767     83769     83768     83770     83772     83771     83773
     83775     83774     83776     83778     83777     83779     83781     83780     83782
     83784     83783     83785     83787     83786     83788     83790     83789     83791
     83793     83792     83794     83796     83795     83797     83799     83798     83800
     83802     83801     83803     83805     83804     83806     83808     83807     83809
     83811     83810     83812     83814     83813     83815     83817     83816     83818
     83820     83819     83821     83823     83822     83824     83826     83825     83827
     83829     83828     83830     83832     83831     83833     83835     83834     83836
     83838     83837     83839     83841     83840     83842     83844     83843     83845
     83847     83846     83848     83850     83849     83851     83853     83852     83854
     83856     83855     83857     83859     83858     83860     83862     83861     83863
     83865     83864     83866     83868     83867     83869     83871     83870     83872
     83874     83873     83875     83877     83876     83878     83880     83879     83881
     83883     83882     83884     83886     83885     83887     83889     83888     83890
     83892     83891     83893     83895     83894     83896     83898     83897     83899
     83901     83900     83902     83904     83903     83905     83907     83906     83908
     83910     83909     83911     83913     83912     83914     83916     83915     83917
     83919     83918     83920     83922     83921     83923     83925     83924     83926
     83928     83927     83929     83931     83930     83932     83934     83933     83935
     83937     83936     83938     83940     83939     83941     83943     83942     83944
     83946     83945     83947     83949     83948     83950     83952     83951     83953
     83955     83954     83956     83958     83957     83959     83961     83960     83962
     83964     83963     83965     83967     83966     83968     83970     83969     83971
     83973     83972     83974     83976     83975     83977     83979     83978     83980
     83982     83981     83983     83985     83984     83986     83988     83987     83989
     83991     83990     83992     83994     83993     83995     83997     83996     83998
     84000     83999     84001     84003     84002     84004     84006     84005     84007
     84009     84008     84010     84012     84011     84013     84015     84014     84016
     84018     84017     84019     84021     84020     84022     84024     84023     84025
     84027     84026     84028     84030     84029     84031     84033     84032     84034
     84036     84035     84037     84039     84038     84040     84042     84041     84043
     84045     84044     84046     84048     84047     84049     84051     84050     84052
     84054     84053     84055     84057     84056     84058     84060     84059     84061
     84063     84062     84064     84066     84065     84067     84069     84068     84070
     84072     84071     84073     84075     84074     84076     84078     84077     84079
     84081     84080     84082     84084     84083     84085     84087     84086     84088
     84090     84089     84091     84093     84092     84094     84096     84095     84097
     84099     84098     84100     84102     84101     84103     84105     84104     84106
     84108     84107     84109     84111     84110     84112     84114     84113     84115
     84117     84116     84118     84120     84119     84121     84123     84122     84124
     84126     84125     84127     84129     84128     84130     84132     84131     84133
     84135     84134     84136     84138     84137     84139     84141     84140     84142
     84144     84143     84145     84147     84146     84148     84150     84149     84151
     84153     84152     84154     84156     84155     84157     84159     84158     84160
     84162     84161     84163     84165     84164     84166     84168     84167     84169
     84171     84170     84172     84174     84173     84175     84177     84176     84178
     84180     84179     84181     84183     84182     84184     84186     84185     84187
     84189     84188     84190     84192     84191     84193     84195     84194     84196
     84198     84197     84199     84201     84200     84202     84204     84203     84205
     84207     84206     84208     84210     84209     84211     84213     84212     84214
     84216     84215     84217     84219     84218     84220     84222     84221     84223
     84225     84224     84226     84228     84227     84229     84231     84230     84232
     84234     84233     84235     84237     84236     84238     84240     84239     84241
     84243     84242     84244     84246     84245     84247     84249     84248     84250
     84252     84251     84253     84255     84254     84256     84258     84257     84259
     84261     84260     84262     84264     84263     84265     84267     84266     84268
     84270     84269     84271     84273     84272     84274     84276     84275     84277
     84279     84278     84280     84282     84281     84283     84285     84284     84286
     84288     84287     84289     84291     84290     84292     84294     84293     84295
     84297     84296     84298     84300     84299     84301     84303     84302     84304
     84306     84305     84307     84309     84308     84310     84312     84311     84313
     84315     84314     84316     84318     84317     84319     84321     84320     84322
     84324     84323     84325     84327     84326     84328     84330     84329     84331
     84333     84332     84334     84336     84335     84337     84339     84338     84340
     84342     84341     84343     84345     84344     84346     84348     84347     84349
     84351     84350     84352     84354     84353     84355     84357     84356     84358
     84360     84359     84361     84363     84362     84364     84366     84365     84367
     84369     84368     84370     84372     84371     84373     84375     84374     84376
     84378     84377     84379     84381     84380     84382     84384     84383     84385
     84387     84386     84388     84390     84389     84391     84393     84392     84394
     84396     84395     84397     84399     84398     84400     84402     84401     84403
     84405     84404     84406     84408     84407     84409     84411     84410     84412
     84414     84413     84415     84417     84416     84418     84420     84419     84421
     84423     84422     84424     84426     84425     84427     84429     84428     84430
     84432     84431     84433     84435     84434     84436     84438     84437     84439
     84441     84440     84442     84444     84443     84445     84447     84446     84448
     84450     84449     84451     84453     84452     84454     84456     84455     84457
     84459     84458     84460     84462     84461     84463     84465     84464     84466
     84468     84467     84469     84471     84470     84472     84474     84473     84475
     84477     84476     84478     84480     84479     84481     84483     84482     84484
     84486     84485     84487     84489     84488     84490     84492     84491     84493
     84495     84494     84496     84498     84497     84499     84501     84500     84502
     84504     84503     84505     84507     84506     84508     84510     84509     84511
     84513     84512     84514     84516     84515     84517     84519     84518     84520
     84522     84521     84523     84525     84524     84526     84528     84527     84529
     84531     84530     84532     84534     84533     84535     84537     84536     84538
     84540     84539     84541     84543     84542     84544     84546     84545     84547
     84549     84548     84550     84552     84551     84553     84555     84554     84556
     84558     84557     84559     84561     84560     84562     84564     84563     84565
     84567     84566     84568     84570     84569     84571     84573     84572     84574
     84576     84575     84577     84579     84578     84580     84582     84581     84583
     84585     84584     84586     84588     84587     84589     84591     84590     84592
     84594     84593     84595     84597     84596     84598     84600     84599     84601
     84603     84602     84604     84606     84605     84607     84609     84608     84610
     84612     84611     84613     84615     84614     84616     84618     84617     84619
     84621     84620     84622     84624     84623     84625     84627     84626     84628
     84630     84629     84631     84633     84632     84634     84636     84635     84637
     84639     84638     84640     84642     84641     84643     84645     84644     84646
     84648     84647     84649     84651     84650     84652     84654     84653     84655
     84657     84656     84658     84660     84659     84661     84663     84662     84664
     84666     84665     84667     84669     84668     84670     84672     84671     84673
     84675     84674     84676     84678     84677     84679     84681     84680     84682
     84684     84683     84685     84687     84686     84688     84690     84689     84691
     84693     84692     84694     84696     84695     84697     84699     84698     84700
     84702     84701     84703     84705     84704     84706     84708     84707     84709
     84711     84710     84712     84714     84713     84715     84717     84716     84718
     84720     84719     84721     84723     84722     84724     84726     84725     84727
     84729     84728     84730     84732     84731     84733     84735     84734     84736
     84738     84737     84739     84741     84740     84742     84744     84743     84745
     84747     84746     84748     84750     84749     84751     84753     84752     84754
     84756     84755     84757     84759     84758     84760     84762     84761     84763
     84765     84764     84766     84768     84767     84769     84771     84770     84772
     84774     84773     84775     84777     84776     84778     84780     84779     84781
     84783     84782     84784     84786     84785     84787     84789     84788     84790
     84792     84791     84793     84795     84794     84796     84798     84797     84799
     84801     84800     84802     84804     84803     84805     84807     84806     84808
     84810     84809     84811     84813     84812     84814     84816     84815     84817
     84819     84818     84820     84822     84821     84823     84825     84824     84826
     84828     84827     84829     84831     84830     84832     84834     84833     84835
     84837     84836     84838     84840     84839     84841     84843     84842     84844
     84846     84845     84847     84849     84848     84850     84852     84851     84853
     84855     84854     84856     84858     84857     84859     84861     84860     84862
     84864     84863     84865     84867     84866     84868     84870     84869     84871
     84873     84872     84874     84876     84875     84877     84879     84878     84880
     84882     84881     84883     84885     84884     84886     84888     84887     84889
     84891     84890     84892     84894     84893     84895     84897     84896     84898
     84900     84899     84901     84903     84902     84904     84906     84905     84907
     84909     84908     84910     84912     84911     84913     84915     84914     84916
     84918     84917     84919     84921     84920     84922     84924     84923     84925
     84927     84926     84928     84930     84929     84931     84933     84932     84934
     84936     84935     84937     84939     84938     84940     84942     84941     84943
     84945     84944     84946     84948     84947     84949     84951     84950     84952
     84954     84953     84955     84957     84956     84958     84960     84959     84961
     84963     84962     84964     84966     84965     84967     84969     84968     84970
     84972     84971     84973     84975     84974     84976     84978     84977     84979
     84981     84980     84982     84984     84983     84985     84987     84986     84988
     84990     84989     84991     84993     84992     84994     84996     84995     84997
     84999     84998     85000     85002     85001     85003     85005     85004     85006
     85008     85007     85009     85011     85010     85012     85014     85013     85015
     85017     85016     85018     85020     85019     85021     85023     85022     85024
     85026     85025     85027     85029     85028     85030     85032     85031     85033
     85035     85034     85036     85038     85037     85039     85041     85040     85042
     85044     85043     85045     85047     85046     85048     85050     85049     85051
     85053     85052     85054     85056     85055     85057     85059     85058     85060
     85062     85061     85063     85065     85064     85066     85068     85067     85069
     85071     85070     85072     85074     85073     85075     85077     85076     85078
     85080     85079     85081     85083     85082     85084     85086     85085     85087
     85089     85088     85090     85092     85091     85093     85095     85094     85096
     85098     85097     85099     85101     85100     85102     85104     85103     85105
     85107     85106     85108     85110     85109     85111     85113     85112     85114
     85116     85115     85117     85119     85118     85120     85122     85121     85123
     85125     85124     85126     85128     85127     85129     85131     85130     85132
     85134     85133     85135     85137     85136     85138     85140     85139     85141
     85143     85142     85144     85146     85145     85147     85149     85148     85150
     85152     85151     85153     85155     85154     85156     85158     85157     85159
     85161     85160     85162     85164     85163     85165     85167     85166     85168
     85170     85169     85171     85173     85172     85174     85176     85175     85177
     85179     85178     85180     85182     85181     85183     85185     85184     85186
     85188     85187     85189     85191     85190     85192     85194     85193     85195
     85197     85196     85198     85200     85199     85201     85203     85202     85204
     85206     85205     85207     85209     85208     85210     85212     85211     85213
     85215     85214     85216     85218     85217     85219     85221     85220     85222
     85224     85223     85225     85227     85226     85228     85230     85229     85231
     85233     85232     85234     85236     85235     85237     85239     85238     85240
     85242     85241     85243     85245     85244     85246     85248     85247     85249
     85251     85250     85252     85254     85253     85255     85257     85256     85258
     85260     85259     85261     85263     85262     85264     85266     85265     85267
     85269     85268     85270     85272     85271     85273     85275     85274     85276
     85278     85277     85279     85281     85280     85282     85284     85283     85285
     85287     85286     85288     85290     85289     85291     85293     85292     85294
     85296     85295     85297     85299     85298     85300     85302     85301     85303
     85305     85304     85306     85308     85307     85309     85311     85310     85312
     85314     85313     85315     85317     85316     85318     85320     85319     85321
     85323     85322     85324     85326     85325     85327     85329     85328     85330
     85332     85331     85333     85335     85334     85336     85338     85337     85339
     85341     85340     85342     85344     85343     85345     85347     85346     85348
     85350     85349     85351     85353     85352     85354     85356     85355     85357
     85359     85358     85360     85362     85361     85363     85365     85364     85366
     85368     85367     85369     85371     85370     85372     85374     85373     85375
     85377     85376     85378     85380     85379     85381     85383     85382     85384
     85386     85385     85387     85389     85388     85390     85392     85391     85393
     85395     85394     85396     85398     85397     85399     85401     85400     85402
     85404     85403     85405     85407     85406     85408     85410     85409     85411
     85413     85412     85414     85416     85415     85417     85419     85418     85420
     85422     85421     85423     85425     85424     85426     85428     85427     85429
     85431     85430     85432     85434     85433     85435     85437     85436     85438
     85440     85439     85441     85443     85442     85444     85446     85445     85447
     85449     85448     85450     85452     85451     85453     85455     85454     85456
     85458     85457     85459     85461     85460     85462     85464     85463     85465
     85467     85466     85468     85470     85469     85471     85473     85472     85474
     85476     85475     85477     85479     85478     85480     85482     85481     85483
     85485     85484     85486     85488     85487     85489     85491     85490     85492
     85494     85493     85495     85497     85496     85498     85500     85499     85501
     85503     85502     85504     85506     85505     85507     85509     85508     85510
     85512     85511     85513     85515     85514     85516     85518     85517     85519
     85521     85520     85522     85524     85523     85525     85527     85526     85528
     85530     85529     85531     85533     85532     85534     85536     85535     85537
     85539     85538     85540     85542     85541     85543     85545     85544     85546
     85548     85547     85549     85551     85550     85552     85554     85553     85555
     85557     85556     85558     85560     85559     85561     85563     85562     85564
     85566     85565     85567     85569     85568     85570     85572     85571     85573
     85575     85574     85576     85578     85577     85579     85581     85580     85582
     85584     85583     85585     85587     85586     85588     85590     85589     85591
     85593     85592     85594     85596     85595     85597     85599     85598     85600
     85602     85601     85603     85605     85604     85606     85608     85607     85609
     85611     85610     85612     85614     85613     85615     85617     85616     85618
     85620     85619     85621     85623     85622     85624     85626     85625     85627
     85629     85628     85630     85632     85631     85633     85635     85634     85636
     85638     85637     85639     85641     85640     85642     85644     85643     85645
     85647     85646     85648     85650     85649     85651     85653     85652     85654
     85656     85655     85657     85659     85658     85660     85662     85661     85663
     85665     85664     85666     85668     85667     85669     85671     85670     85672
     85674     85673     85675     85677     85676     85678     85680     85679     85681
     85683     85682     85684     85686     85685     85687     85689     85688     85690
     85692     85691     85693     85695     85694     85696     85698     85697     85699
     85701     85700     85702     85704     85703     85705     85707     85706     85708
     85710     85709     85711     85713     85712     85714     85716     85715     85717
     85719     85718     85720     85722     85721     85723     85725     85724     85726
     85728     85727     85729     85731     85730     85732     85734     85733     85735
     85737     85736     85738     85740     85739     85741     85743     85742     85744
     85746     85745     85747     85749     85748     85750     85752     85751     85753
     85755     85754     85756     85758     85757     85759     85761     85760     85762
     85764     85763     85765     85767     85766     85768     85770     85769     85771
     85773     85772     85774     85776     85775     85777     85779     85778     85780
     85782     85781     85783     85785     85784     85786     85788     85787     85789
     85791     85790     85792     85794     85793     85795     85797     85796     85798
     85800     85799     85801     85803     85802     85804     85806     85805     85807
     85809     85808     85810     85812     85811     85813     85815     85814     85816
     85818     85817     85819     85821     85820     85822     85824     85823     85825
     85827     85826     85828     85830     85829     85831     85833     85832     85834
     85836     85835     85837     85839     85838     85840     85842     85841     85843
     85845     85844     85846     85848     85847     85849     85851     85850     85852
     85854     85853     85855     85857     85856     85858     85860     85859     85861
     85863     85862     85864     85866     85865     85867     85869     85868     85870
     85872     85871     85873     85875     85874     85876     85878     85877     85879
     85881     85880     85882     85884     85883     85885     85887     85886     85888
     85890     85889     85891     85893     85892     85894     85896     85895     85897
     85899     85898     85900     85902     85901     85903     85905     85904     85906
     85908     85907     85909     85911     85910     85912     85914     85913     85915
     85917     85916     85918     85920     85919     85921     85923     85922     85924
     85926     85925     85927     85929     85928     85930     85932     85931     85933
     85935     85934     85936     85938     85937     85939     85941     85940     85942
     85944     85943     85945     85947     85946     85948     85950     85949     85951
     85953     85952     85954     85956     85955     85957     85959     85958     85960
     85962     85961     85963     85965     85964     85966     85968     85967     85969
     85971     85970     85972     85974     85973     85975     85977     85976     85978
     85980     85979     85981     85983     85982     85984     85986     85985     85987
     85989     85988     85990     85992     85991     85993     85995     85994     85996
     85998     85997     85999     86001     86000     86002     86004     86003     86005
     86007     86006     86008     86010     86009     86011     86013     86012     86014
     86016     86015     86017     86019     86018     86020     86022     86021     86023
     86025     86024     86026     86028     86027     86029     86031     86030     86032
     86034     86033     86035     86037     86036     86038     86040     86039     86041
     86043     86042     86044     86046     86045     86047     86049     86048     86050
     86052     86051     86053     86055     86054     86056     86058     86057     86059
     86061     86060     86062     86064     86063     86065     86067     86066     86068
     86070     86069     86071     86073     86072     86074     86076     86075     86077
     86079     86078     86080     86082     86081     86083     86085     86084     86086
     86088     86087     86089     86091     86090     86092     86094     86093     86095
     86097     86096     86098     86100     86099     86101     86103     86102     86104
     86106     86105     86107     86109     86108     86110     86112     86111     86113
     86115     86114     86116     86118     86117     86119     86121     86120     86122
     86124     86123     86125     86127     86126     86128     86130     86129     86131
     86133     86132     86134     86136     86135     86137     86139     86138     86140
     86142     86141     86143     86145     86144     86146     86148     86147     86149
     86151     86150     86152     86154     86153     86155     86157     86156     86158
     86160     86159     86161     86163     86162     86164     86166     86165     86167
     86169     86168     86170     86172     86171     86173     86175     86174     86176
     86178     86177     86179     86181     86180     86182     86184     86183     86185
     86187     86186     86188     86190     86189     86191     86193     86192     86194
     86196     86195     86197     86199     86198     86200     86202     86201     86203
     86205     86204     86206     86208     86207     86209     86211     86210     86212
     86214     86213     86215     86217     86216     86218     86220     86219     86221
     86223     86222     86224     86226     86225     86227     86229     86228     86230
     86232     86231     86233     86235     86234     86236     86238     86237     86239
     86241     86240     86242     86244     86243     86245     86247     86246     86248
     86250     86249     86251     86253     86252     86254     86256     86255     86257
     86259     86258     86260     86262     86261     86263     86265     86264     86266
     86268     86267     86269     86271     86270     86272     86274     86273     86275
     86277     86276     86278     86280     86279     86281     86283     86282     86284
     86286     86285     86287     86289     86288     86290     86292     86291     86293
     86295     86294     86296     86298     86297     86299     86301     86300     86302
     86304     86303     86305     86307     86306     86308     86310     86309     86311
     86313     86312     86314     86316     86315     86317     86319     86318     86320
     86322     86321     86323     86325     86324     86326     86328     86327     86329
     86331     86330     86332     86334     86333     86335     86337     86336     86338
     86340     86339     86341     86343     86342     86344     86346     86345     86347
     86349     86348     86350     86352     86351     86353     86355     86354     86356
     86358     86357     86359     86361     86360     86362     86364     86363     86365
     86367     86366     86368     86370     86369     86371     86373     86372     86374
     86376     86375     86377     86379     86378     86380     86382     86381     86383
     86385     86384     86386     86388     86387     86389     86391     86390     86392
     86394     86393     86395     86397     86396     86398     86400     86399     86401
     86403     86402     86404     86406     86405     86407     86409     86408     86410
     86412     86411     86413     86415     86414     86416     86418     86417     86419
     86421     86420     86422     86424     86423     86425     86427     86426     86428
     86430     86429     86431     86433     86432     86434     86436     86435     86437
     86439     86438     86440     86442     86441     86443     86445     86444     86446
     86448     86447     86449     86451     86450     86452     86454     86453     86455
     86457     86456     86458     86460     86459     86461     86463     86462     86464
     86466     86465     86467     86469     86468     86470     86472     86471     86473
     86475     86474     86476     86478     86477     86479     86481     86480     86482
     86484     86483     86485     86487     86486     86488     86490     86489     86491
     86493     86492     86494     86496     86495     86497     86499     86498     86500
     86502     86501     86503     86505     86504     86506     86508     86507     86509
     86511     86510     86512     86514     86513     86515     86517     86516     86518
     86520     86519     86521     86523     86522     86524     86526     86525     86527
     86529     86528     86530     86532     86531     86533     86535     86534     86536
     86538     86537     86539     86541     86540     86542     86544     86543     86545
     86547     86546     86548     86550     86549     86551     86553     86552     86554
     86556     86555     86557     86559     86558     86560     86562     86561     86563
     86565     86564     86566     86568     86567     86569     86571     86570     86572
     86574     86573     86575     86577     86576     86578     86580     86579     86581
     86583     86582     86584     86586     86585     86587     86589     86588     86590
     86592     86591     86593     86595     86594     86596     86598     86597     86599
     86601     86600     86602     86604     86603     86605     86607     86606     86608
     86610     86609     86611     86613     86612     86614     86616     86615     86617
     86619     86618     86620     86622     86621     86623     86625     86624     86626
     86628     86627     86629     86631     86630     86632     86634     86633     86635
     86637     86636     86638     86640     86639     86641     86643     86642     86644
     86646     86645     86647     86649     86648     86650     86652     86651     86653
     86655     86654     86656     86658     86657     86659     86661     86660     86662
     86664     86663     86665     86667     86666     86668     86670     86669     86671
     86673     86672     86674     86676     86675     86677     86679     86678     86680
     86682     86681     86683     86685     86684     86686     86688     86687     86689
     86691     86690     86692     86694     86693     86695     86697     86696     86698
     86700     86699     86701     86703     86702     86704     86706     86705     86707
     86709     86708     86710     86712     86711     86713     86715     86714     86716
     86718     86717     86719     86721     86720     86722     86724     86723     86725
     86727     86726     86728     86730     86729     86731     86733     86732     86734
     86736     86735     86737     86739     86738     86740     86742     86741     86743
     86745     86744     86746     86748     86747     86749     86751     86750     86752
     86754     86753     86755     86757     86756     86758     86760     86759     86761
     86763     86762     86764     86766     86765     86767     86769     86768     86770
     86772     86771     86773     86775     86774     86776     86778     86777     86779
     86781     86780     86782     86784     86783     86785     86787     86786     86788
     86790     86789     86791     86793     86792     86794     86796     86795     86797
     86799     86798     86800     86802     86801     86803     86805     86804     86806
     86808     86807     86809     86811     86810     86812     86814     86813     86815
     86817     86816     86818     86820     86819     86821     86823     86822     86824
     86826     86825     86827     86829     86828     86830     86832     86831     86833
     86835     86834     86836     86838     86837     86839     86841     86840     86842
     86844     86843     86845     86847     86846     86848     86850     86849     86851
     86853     86852     86854     86856     86855     86857     86859     86858     86860
     86862     86861     86863     86865     86864     86866     86868     86867     86869
     86871     86870     86872     86874     86873     86875     86877     86876     86878
     86880     86879     86881     86883     86882     86884     86886     86885     86887
     86889     86888     86890     86892     86891     86893     86895     86894     86896
     86898     86897     86899     86901     86900     86902     86904     86903     86905
     86907     86906     86908     86910     86909     86911     86913     86912     86914
     86916     86915     86917     86919     86918     86920     86922     86921     86923
     86925     86924     86926     86928     86927     86929     86931     86930     86932
     86934     86933     86935     86937     86936     86938     86940     86939     86941
     86943     86942     86944     86946     86945     86947     86949     86948     86950
     86952     86951     86953     86955     86954     86956     86958     86957     86959
     86961     86960     86962     86964     86963     86965     86967     86966     86968
     86970     86969     86971     86973     86972     86974     86976     86975     86977
     86979     86978     86980     86982     86981     86983     86985     86984     86986
     86988     86987     86989     86991     86990     86992     86994     86993     86995
     86997     86996     86998     87000     86999     87001     87003     87002     87004
     87006     87005     87007     87009     87008     87010     87012     87011     87013
     87015     87014     87016     87018     87017     87019     87021     87020     87022
     87024     87023     87025     87027     87026     87028     87030     87029     87031
     87033     87032     87034     87036     87035     87037     87039     87038     87040
     87042     87041     87043     87045     87044     87046     87048     87047     87049
     87051     87050     87052     87054     87053     87055     87057     87056     87058
     87060     87059     87061     87063     87062     87064     87066     87065     87067
     87069     87068     87070     87072     87071     87073     87075     87074     87076
     87078     87077     87079     87081     87080     87082     87084     87083     87085
     87087     87086     87088     87090     87089     87091     87093     87092     87094
     87096     87095     87097     87099     87098     87100     87102     87101     87103
     87105     87104     87106     87108     87107     87109     87111     87110     87112
     87114     87113     87115     87117     87116     87118     87120     87119     87121
     87123     87122     87124     87126     87125     87127     87129     87128     87130
     87132     87131     87133     87135     87134     87136     87138     87137     87139
     87141     87140     87142     87144     87143     87145     87147     87146     87148
     87150     87149     87151     87153     87152     87154     87156     87155     87157
     87159     87158     87160     87162     87161     87163     87165     87164     87166
     87168     87167     87169     87171     87170     87172     87174     87173     87175
     87177     87176     87178     87180     87179     87181     87183     87182     87184
     87186     87185     87187     87189     87188     87190     87192     87191     87193
     87195     87194     87196     87198     87197     87199     87201     87200     87202
     87204     87203     87205     87207     87206     87208     87210     87209     87211
     87213     87212     87214     87216     87215     87217     87219     87218     87220
     87222     87221     87223     87225     87224     87226     87228     87227     87229
     87231     87230     87232     87234     87233     87235     87237     87236     87238
     87240     87239     87241     87243     87242     87244     87246     87245     87247
     87249     87248     87250     87252     87251     87253     87255     87254     87256
     87258     87257     87259     87261     87260     87262     87264     87263     87265
     87267     87266     87268     87270     87269     87271     87273     87272     87274
     87276     87275     87277     87279     87278     87280     87282     87281     87283
     87285     87284     87286     87288     87287     87289     87291     87290     87292
     87294     87293     87295     87297     87296     87298     87300     87299     87301
     87303     87302     87304     87306     87305     87307     87309     87308     87310
     87312     87311     87313     87315     87314     87316     87318     87317     87319
     87321     87320     87322     87324     87323     87325     87327     87326     87328
     87330     87329     87331     87333     87332     87334     87336     87335     87337
     87339     87338     87340     87342     87341     87343     87345     87344     87346
     87348     87347     87349     87351     87350     87352     87354     87353     87355
     87357     87356     87358     87360     87359     87361     87363     87362     87364
     87366     87365     87367     87369     87368     87370     87372     87371     87373
     87375     87374     87376     87378     87377     87379     87381     87380     87382
     87384     87383     87385     87387     87386     87388     87390     87389     87391
     87393     87392     87394     87396     87395     87397     87399     87398     87400
     87402     87401     87403     87405     87404     87406     87408     87407     87409
     87411     87410     87412     87414     87413     87415     87417     87416     87418
     87420     87419     87421     87423     87422     87424     87426     87425     87427
     87429     87428     87430     87432     87431     87433     87435     87434     87436
     87438     87437     87439     87441     87440     87442     87444     87443     87445
     87447     87446     87448     87450     87449     87451     87453     87452     87454
     87456     87455     87457     87459     87458     87460     87462     87461     87463
     87465     87464     87466     87468     87467     87469     87471     87470     87472
     87474     87473     87475     87477     87476     87478     87480     87479     87481
     87483     87482     87484     87486     87485     87487     87489     87488     87490
     87492     87491     87493     87495     87494     87496     87498     87497     87499
     87501     87500     87502     87504     87503     87505     87507     87506     87508
     87510     87509     87511     87513     87512     87514     87516     87515     87517
     87519     87518     87520     87522     87521     87523     87525     87524     87526
     87528     87527     87529     87531     87530     87532     87534     87533     87535
     87537     87536     87538     87540     87539     87541     87543     87542     87544
     87546     87545     87547     87549     87548     87550     87552     87551     87553
     87555     87554     87556     87558     87557     87559     87561     87560     87562
     87564     87563     87565     87567     87566     87568     87570     87569     87571
     87573     87572     87574     87576     87575     87577     87579     87578     87580
     87582     87581     87583     87585     87584     87586     87588     87587     87589
     87591     87590     87592     87594     87593     87595     87597     87596     87598
     87600     87599     87601     87603     87602     87604     87606     87605     87607
     87609     87608     87610     87612     87611     87613     87615     87614     87616
     87618     87617     87619     87621     87620     87622     87624     87623     87625
     87627     87626     87628     87630     87629     87631     87633     87632     87634
     87636     87635     87637     87639     87638     87640     87642     87641     87643
     87645     87644     87646     87648     87647     87649     87651     87650     87652
     87654     87653     87655     87657     87656     87658     87660     87659     87661
     87663     87662     87664     87666     87665     87667     87669     87668     87670
     87672     87671     87673     87675     87674     87676     87678     87677     87679
     87681     87680     87682     87684     87683     87685     87687     87686     87688
     87690     87689     87691     87693     87692     87694     87696     87695     87697
     87699     87698     87700     87702     87701     87703     87705     87704     87706
     87708     87707     87709     87711     87710     87712     87714     87713     87715
     87717     87716     87718     87720     87719     87721     87723     87722     87724
     87726     87725     87727     87729     87728     87730     87732     87731     87733
     87735     87734     87736     87738     87737     87739     87741     87740     87742
     87744     87743     87745     87747     87746     87748     87750     87749     87751
     87753     87752     87754     87756     87755     87757     87759     87758     87760
     87762     87761     87763     87765     87764     87766     87768     87767     87769
     87771     87770     87772     87774     87773     87775     87777     87776     87778
     87780     87779     87781     87783     87782     87784     87786     87785     87787
     87789     87788     87790     87792     87791     87793     87795     87794     87796
     87798     87797     87799     87801     87800     87802     87804     87803     87805
     87807     87806     87808     87810     87809     87811     87813     87812     87814
     87816     87815     87817     87819     87818     87820     87822     87821     87823
     87825     87824     87826     87828     87827     87829     87831     87830     87832
     87834     87833     87835     87837     87836     87838     87840     87839     87841
     87843     87842     87844     87846     87845     87847     87849     87848     87850
     87852     87851     87853     87855     87854     87856     87858     87857     87859
     87861     87860     87862     87864     87863     87865     87867     87866     87868
     87870     87869     87871     87873     87872     87874     87876     87875     87877
     87879     87878     87880     87882     87881     87883     87885     87884     87886
     87888     87887     87889     87891     87890     87892     87894     87893     87895
     87897     87896     87898     87900     87899     87901     87903     87902     87904
     87906     87905     87907     87909     87908     87910     87912     87911     87913
     87915     87914     87916     87918     87917     87919     87921     87920     87922
     87924     87923     87925     87927     87926     87928     87930     87929     87931
     87933     87932     87934     87936     87935     87937     87939     87938     87940
     87942     87941     87943     87945     87944     87946     87948     87947     87949
     87951     87950     87952     87954     87953     87955     87957     87956     87958
     87960     87959     87961     87963     87962     87964     87966     87965     87967
     87969     87968     87970     87972     87971     87973     87975     87974     87976
     87978     87977     87979     87981     87980     87982     87984     87983     87985
     87987     87986     87988     87990     87989     87991     87993     87992     87994
     87996     87995     87997     87999     87998     88000     88002     88001     88003
     88005     88004     88006     88008     88007     88009     88011     88010     88012
     88014     88013     88015     88017     88016     88018     88020     88019     88021
     88023     88022     88024     88026     88025     88027     88029     88028     88030
     88032     88031     88033     88035     88034     88036     88038     88037     88039
     88041     88040     88042     88044     88043     88045     88047     88046     88048
     88050     88049     88051     88053     88052     88054     88056     88055     88057
     88059     88058     88060     88062     88061     88063     88065     88064     88066
     88068     88067     88069     88071     88070     88072     88074     88073     88075
     88077     88076     88078     88080     88079     88081     88083     88082     88084
     88086     88085     88087     88089     88088     88090     88092     88091     88093
     88095     88094     88096     88098     88097     88099     88101     88100     88102
     88104     88103     88105     88107     88106     88108     88110     88109     88111
     88113     88112     88114     88116     88115     88117     88119     88118     88120
     88122     88121     88123     88125     88124     88126     88128     88127     88129
     88131     88130     88132     88134     88133     88135     88137     88136     88138
     88140     88139     88141     88143     88142     88144     88146     88145     88147
     88149     88148     88150     88152     88151     88153     88155     88154     88156
     88158     88157     88159     88161     88160     88162     88164     88163     88165
     88167     88166     88168     88170     88169     88171     88173     88172     88174
     88176     88175     88177     88179     88178     88180     88182     88181     88183
     88185     88184     88186     88188     88187     88189     88191     88190     88192
     88194     88193     88195     88197     88196     88198     88200     88199     88201
     88203     88202     88204     88206     88205     88207     88209     88208     88210
     88212     88211     88213     88215     88214     88216     88218     88217     88219
     88221     88220     88222     88224     88223     88225     88227     88226     88228
     88230     88229     88231     88233     88232     88234     88236     88235     88237
     88239     88238     88240     88242     88241     88243     88245     88244     88246
     88248     88247     88249     88251     88250     88252     88254     88253     88255
     88257     88256     88258     88260     88259     88261     88263     88262     88264
     88266     88265     88267     88269     88268     88270     88272     88271     88273
     88275     88274     88276     88278     88277     88279     88281     88280     88282
     88284     88283     88285     88287     88286     88288     88290     88289     88291
     88293     88292     88294     88296     88295     88297     88299     88298     88300
     88302     88301     88303     88305     88304     88306     88308     88307     88309
     88311     88310     88312     88314     88313     88315     88317     88316     88318
     88320     88319     88321     88323     88322     88324     88326     88325     88327
     88329     88328     88330     88332     88331     88333     88335     88334     88336
     88338     88337     88339     88341     88340     88342     88344     88343     88345
     88347     88346     88348     88350     88349     88351     88353     88352     88354
     88356     88355     88357     88359     88358     88360     88362     88361     88363
     88365     88364     88366     88368     88367     88369     88371     88370     88372
     88374     88373     88375     88377     88376     88378     88380     88379     88381
     88383     88382     88384     88386     88385     88387     88389     88388     88390
     88392     88391     88393     88395     88394     88396     88398     88397     88399
     88401     88400     88402     88404     88403     88405     88407     88406     88408
     88410     88409     88411     88413     88412     88414     88416     88415     88417
     88419     88418     88420     88422     88421     88423     88425     88424     88426
     88428     88427     88429     88431     88430     88432     88434     88433     88435
     88437     88436     88438     88440     88439     88441     88443     88442     88444
     88446     88445     88447     88449     88448     88450     88452     88451     88453
     88455     88454     88456     88458     88457     88459     88461     88460     88462
     88464     88463     88465     88467     88466     88468     88470     88469     88471
     88473     88472     88474     88476     88475     88477     88479     88478     88480
     88482     88481     88483     88485     88484     88486     88488     88487     88489
     88491     88490     88492     88494     88493     88495     88497     88496     88498
     88500     88499     88501     88503     88502     88504     88506     88505     88507
     88509     88508     88510     88512     88511     88513     88515     88514     88516
     88518     88517     88519     88521     88520     88522     88524     88523     88525
     88527     88526     88528     88530     88529     88531     88533     88532     88534
     88536     88535     88537     88539     88538     88540     88542     88541     88543
     88545     88544     88546     88548     88547     88549     88551     88550     88552
     88554     88553     88555     88557     88556     88558     88560     88559     88561
     88563     88562     88564     88566     88565     88567     88569     88568     88570
     88572     88571     88573     88575     88574     88576     88578     88577     88579
     88581     88580     88582     88584     88583     88585     88587     88586     88588
     88590     88589     88591     88593     88592     88594     88596     88595     88597
     88599     88598     88600     88602     88601     88603     88605     88604     88606
     88608     88607     88609     88611     88610     88612     88614     88613     88615
     88617     88616     88618     88620     88619     88621     88623     88622     88624
     88626     88625     88627     88629     88628     88630     88632     88631     88633
     88635     88634     88636     88638     88637     88639     88641     88640     88642
     88644     88643     88645     88647     88646     88648     88650     88649     88651
     88653     88652     88654     88656     88655     88657     88659     88658     88660
     88662     88661     88663     88665     88664     88666     88668     88667     88669
     88671     88670     88672     88674     88673     88675     88677     88676     88678
     88680     88679     88681     88683     88682     88684     88686     88685     88687
     88689     88688     88690     88692     88691     88693     88695     88694     88696
     88698     88697     88699     88701     88700     88702     88704     88703     88705
     88707     88706     88708     88710     88709     88711     88713     88712     88714
     88716     88715     88717     88719     88718     88720     88722     88721     88723
     88725     88724     88726     88728     88727     88729     88731     88730     88732
     88734     88733     88735     88737     88736     88738     88740     88739     88741
     88743     88742     88744     88746     88745     88747     88749     88748     88750
     88752     88751     88753     88755     88754     88756     88758     88757     88759
     88761     88760     88762     88764     88763     88765     88767     88766     88768
     88770     88769     88771     88773     88772     88774     88776     88775     88777
     88779     88778     88780     88782     88781     88783     88785     88784     88786
     88788     88787     88789     88791     88790     88792     88794     88793     88795
     88797     88796     88798     88800     88799     88801     88803     88802     88804
     88806     88805     88807     88809     88808     88810     88812     88811     88813
     88815     88814     88816     88818     88817     88819     88821     88820     88822
     88824     88823     88825     88827     88826     88828     88830     88829     88831
     88833     88832     88834     88836     88835     88837     88839     88838     88840
     88842     88841     88843     88845     88844     88846     88848     88847     88849
     88851     88850     88852     88854     88853     88855     88857     88856     88858
     88860     88859     88861     88863     88862     88864     88866     88865     88867
     88869     88868     88870     88872     88871     88873     88875     88874     88876
     88878     88877     88879     88881     88880     88882     88884     88883     88885
     88887     88886     88888     88890     88889     88891     88893     88892     88894
     88896     88895     88897     88899     88898     88900     88902     88901     88903
     88905     88904     88906     88908     88907     88909     88911     88910     88912
     88914     88913     88915     88917     88916     88918     88920     88919     88921
     88923     88922     88924     88926     88925     88927     88929     88928     88930
     88932     88931     88933     88935     88934     88936     88938     88937     88939
     88941     88940     88942     88944     88943     88945     88947     88946     88948
     88950     88949     88951     88953     88952     88954     88956     88955     88957
     88959     88958     88960     88962     88961     88963     88965     88964     88966
     88968     88967     88969     88971     88970     88972     88974     88973     88975
     88977     88976     88978     88980     88979     88981     88983     88982     88984
     88986     88985     88987     88989     88988     88990     88992     88991     88993
     88995     88994     88996     88998     88997     88999     89001     89000     89002
     89004     89003     89005     89007     89006     89008     89010     89009     89011
     89013     89012     89014     89016     89015     89017     89019     89018     89020
     89022     89021     89023     89025     89024     89026     89028     89027     89029
     89031     89030     89032     89034     89033     89035     89037     89036     89038
     89040     89039     89041     89043     89042     89044     89046     89045     89047
     89049     89048     89050     89052     89051     89053     89055     89054     89056
     89058     89057     89059     89061     89060     89062     89064     89063     89065
     89067     89066     89068     89070     89069     89071     89073     89072     89074
     89076     89075     89077     89079     89078     89080     89082     89081     89083
     89085     89084     89086     89088     89087     89089     89091     89090     89092
     89094     89093     89095     89097     89096     89098     89100     89099     89101
     89103     89102     89104     89106     89105     89107     89109     89108     89110
     89112     89111     89113     89115     89114     89116     89118     89117     89119
     89121     89120     89122     89124     89123     89125     89127     89126     89128
     89130     89129     89131     89133     89132     89134     89136     89135     89137
     89139     89138     89140     89142     89141     89143     89145     89144     89146
     89148     89147     89149     89151     89150     89152     89154     89153     89155
     89157     89156     89158     89160     89159     89161     89163     89162     89164
     89166     89165     89167     89169     89168     89170     89172     89171     89173
     89175     89174     89176     89178     89177     89179     89181     89180     89182
     89184     89183     89185     89187     89186     89188     89190     89189     89191
     89193     89192     89194     89196     89195     89197     89199     89198     89200
     89202     89201     89203     89205     89204     89206     89208     89207     89209
     89211     89210     89212     89214     89213     89215     89217     89216     89218
     89220     89219     89221     89223     89222     89224     89226     89225     89227
     89229     89228     89230     89232     89231     89233     89235     89234     89236
     89238     89237     89239     89241     89240     89242     89244     89243     89245
     89247     89246     89248     89250     89249     89251     89253     89252     89254
     89256     89255     89257     89259     89258     89260     89262     89261     89263
     89265     89264     89266     89268     89267     89269     89271     89270     89272
     89274     89273     89275     89277     89276     89278     89280     89279     89281
     89283     89282     89284     89286     89285     89287     89289     89288     89290
     89292     89291     89293     89295     89294     89296     89298     89297     89299
     89301     89300     89302     89304     89303     89305     89307     89306     89308
     89310     89309     89311     89313     89312     89314     89316     89315     89317
     89319     89318     89320     89322     89321     89323     89325     89324     89326
     89328     89327     89329     89331     89330     89332     89334     89333     89335
     89337     89336     89338     89340     89339     89341     89343     89342     89344
     89346     89345     89347     89349     89348     89350     89352     89351     89353
     89355     89354     89356     89358     89357     89359     89361     89360     89362
     89364     89363     89365     89367     89366     89368     89370     89369     89371
     89373     89372     89374     89376     89375     89377     89379     89378     89380
     89382     89381     89383     89385     89384     89386     89388     89387     89389
     89391     89390     89392     89394     89393     89395     89397     89396     89398
     89400     89399     89401     89403     89402     89404     89406     89405     89407
     89409     89408     89410     89412     89411     89413     89415     89414     89416
     89418     89417     89419     89421     89420     89422     89424     89423     89425
     89427     89426     89428     89430     89429     89431     89433     89432     89434
     89436     89435     89437     89439     89438     89440     89442     89441     89443
     89445     89444     89446     89448     89447     89449     89451     89450     89452
     89454     89453     89455     89457     89456     89458     89460     89459     89461
     89463     89462     89464     89466     89465     89467     89469     89468     89470
     89472     89471     89473     89475     89474     89476     89478     89477     89479
     89481     89480     89482     89484     89483     89485     89487     89486     89488
     89490     89489     89491     89493     89492     89494     89496     89495     89497
     89499     89498     89500     89502     89501     89503     89505     89504     89506
     89508     89507     89509     89511     89510     89512     89514     89513     89515
     89517     89516     89518     89520     89519     89521     89523     89522     89524
     89526     89525     89527     89529     89528     89530     89532     89531     89533
     89535     89534     89536     89538     89537     89539     89541     89540     89542
     89544     89543     89545     89547     89546     89548     89550     89549     89551
     89553     89552     89554     89556     89555     89557     89559     89558     89560
     89562     89561     89563     89565     89564     89566     89568     89567     89569
     89571     89570     89572     89574     89573     89575     89577     89576     89578
     89580     89579     89581     89583     89582     89584     89586     89585     89587
     89589     89588     89590     89592     89591     89593     89595     89594     89596
     89598     89597     89599     89601     89600     89602     89604     89603     89605
     89607     89606     89608     89610     89609     89611     89613     89612     89614
     89616     89615     89617     89619     89618     89620     89622     89621     89623
     89625     89624     89626     89628     89627     89629     89631     89630     89632
     89634     89633     89635     89637     89636     89638     89640     89639     89641
     89643     89642     89644     89646     89645     89647     89649     89648     89650
     89652     89651     89653     89655     89654     89656     89658     89657     89659
     89661     89660     89662     89664     89663     89665     89667     89666     89668
     89670     89669     89671     89673     89672     89674     89676     89675     89677
     89679     89678     89680     89682     89681     89683     89685     89684     89686
     89688     89687     89689     89691     89690     89692     89694     89693     89695
     89697     89696     89698     89700     89699     89701     89703     89702     89704
     89706     89705     89707     89709     89708     89710     89712     89711     89713
     89715     89714     89716     89718     89717     89719     89721     89720     89722
     89724     89723     89725     89727     89726     89728     89730     89729     89731
     89733     89732     89734     89736     89735     89737     89739     89738     89740
     89742     89741     89743     89745     89744     89746     89748     89747     89749
     89751     89750     89752     89754     89753     89755     89757     89756     89758
     89760     89759     89761     89763     89762     89764     89766     89765     89767
     89769     89768     89770     89772     89771     89773     89775     89774     89776
     89778     89777     89779     89781     89780     89782     89784     89783     89785
     89787     89786     89788     89790     89789     89791     89793     89792     89794
     89796     89795     89797     89799     89798     89800     89802     89801     89803
     89805     89804     89806     89808     89807     89809     89811     89810     89812
     89814     89813     89815     89817     89816     89818     89820     89819     89821
     89823     89822     89824     89826     89825     89827     89829     89828     89830
     89832     89831     89833     89835     89834     89836     89838     89837     89839
     89841     89840     89842     89844     89843     89845     89847     89846     89848
     89850     89849     89851     89853     89852     89854     89856     89855     89857
     89859     89858     89860     89862     89861     89863     89865     89864     89866
     89868     89867     89869     89871     89870     89872     89874     89873     89875
     89877     89876     89878     89880     89879     89881     89883     89882     89884
     89886     89885     89887     89889     89888     89890     89892     89891     89893
     89895     89894     89896     89898     89897     89899     89901     89900     89902
     89904     89903     89905     89907     89906     89908     89910     89909     89911
     89913     89912     89914     89916     89915     89917     89919     89918     89920
     89922     89921     89923     89925     89924     89926     89928     89927     89929
     89931     89930     89932     89934     89933     89935     89937     89936     89938
     89940     89939     89941     89943     89942     89944     89946     89945     89947
     89949     89948     89950     89952     89951     89953     89955     89954     89956
     89958     89957     89959     89961     89960     89962     89964     89963     89965
     89967     89966     89968     89970     89969     89971     89973     89972     89974
     89976     89975     89977     89979     89978     89980     89982     89981     89983
     89985     89984     89986     89988     89987     89989     89991     89990     89992
     89994     89993     89995     89997     89996     89998     90000     89999     90001
     90003     90002     90004     90006     90005     90007     90009     90008     90010
     90012     90011     90013     90015     90014     90016     90018     90017     90019
     90021     90020     90022     90024     90023     90025     90027     90026     90028
     90030     90029     90031     90033     90032     90034     90036     90035     90037
     90039     90038     90040     90042     90041     90043     90045     90044     90046
     90048     90047     90049     90051     90050     90052     90054     90053     90055
     90057     90056     90058     90060     90059     90061     90063     90062     90064
     90066     90065     90067     90069     90068     90070     90072     90071     90073
     90075     90074     90076     90078     90077     90079     90081     90080     90082
     90084     90083     90085     90087     90086     90088     90090     90089     90091
     90093     90092     90094     90096     90095     90097     90099     90098     90100
     90102     90101     90103     90105     90104     90106     90108     90107     90109
     90111     90110     90112     90114     90113     90115     90117     90116     90118
     90120     90119     90121     90123     90122     90124     90126     90125     90127
     90129     90128     90130     90132     90131     90133     90135     90134     90136
     90138     90137     90139     90141     90140     90142     90144     90143     90145
     90147     90146     90148     90150     90149     90151     90153     90152     90154
     90156     90155     90157     90159     90158     90160     90162     90161     90163
     90165     90164     90166     90168     90167     90169     90171     90170     90172
     90174     90173     90175     90177     90176     90178     90180     90179     90181
     90183     90182     90184     90186     90185     90187     90189     90188     90190
     90192     90191     90193     90195     90194     90196     90198     90197     90199
     90201     90200     90202     90204     90203     90205     90207     90206     90208
     90210     90209     90211     90213     90212     90214     90216     90215     90217
     90219     90218     90220     90222     90221     90223     90225     90224     90226
     90228     90227     90229     90231     90230     90232     90234     90233     90235
     90237     90236     90238     90240     90239     90241     90243     90242     90244
     90246     90245     90247     90249     90248     90250     90252     90251     90253
     90255     90254     90256     90258     90257     90259     90261     90260     90262
     90264     90263     90265     90267     90266     90268     90270     90269     90271
     90273     90272     90274     90276     90275     90277     90279     90278     90280
     90282     90281     90283     90285     90284     90286     90288     90287     90289
     90291     90290     90292     90294     90293     90295     90297     90296     90298
     90300     90299     90301     90303     90302     90304     90306     90305     90307
     90309     90308     90310     90312     90311     90313     90315     90314     90316
     90318     90317     90319     90321     90320     90322     90324     90323     90325
     90327     90326     90328     90330     90329     90331     90333     90332     90334
     90336     90335     90337     90339     90338     90340     90342     90341     90343
     90345     90344     90346     90348     90347     90349     90351     90350     90352
     90354     90353     90355     90357     90356     90358     90360     90359     90361
     90363     90362     90364     90366     90365     90367     90369     90368     90370
     90372     90371     90373     90375     90374     90376     90378     90377     90379
     90381     90380     90382     90384     90383     90385     90387     90386     90388
     90390     90389     90391     90393     90392     90394     90396     90395     90397
     90399     90398     90400     90402     90401     90403     90405     90404     90406
     90408     90407     90409     90411     90410     90412     90414     90413     90415
     90417     90416     90418     90420     90419     90421     90423     90422     90424
     90426     90425     90427     90429     90428     90430     90432     90431     90433
     90435     90434     90436     90438     90437     90439     90441     90440     90442
     90444     90443     90445     90447     90446     90448     90450     90449     90451
     90453     90452     90454     90456     90455     90457     90459     90458     90460
     90462     90461     90463     90465     90464     90466     90468     90467     90469
     90471     90470     90472     90474     90473     90475     90477     90476     90478
     90480     90479     90481     90483     90482     90484     90486     90485     90487
     90489     90488     90490     90492     90491     90493     90495     90494     90496
     90498     90497     90499     90501     90500     90502     90504     90503     90505
     90507     90506     90508     90510     90509     90511     90513     90512     90514
     90516     90515     90517     90519     90518     90520     90522     90521     90523
     90525     90524     90526     90528     90527     90529     90531     90530     90532
     90534     90533     90535     90537     90536     90538     90540     90539     90541
     90543     90542     90544     90546     90545     90547     90549     90548     90550
     90552     90551     90553     90555     90554     90556     90558     90557     90559
     90561     90560     90562     90564     90563     90565     90567     90566     90568
     90570     90569     90571     90573     90572     90574     90576     90575     90577
     90579     90578     90580     90582     90581     90583     90585     90584     90586
     90588     90587     90589     90591     90590     90592     90594     90593     90595
     90597     90596     90598     90600     90599     90601     90603     90602     90604
     90606     90605     90607     90609     90608     90610     90612     90611     90613
     90615     90614     90616     90618     90617     90619     90621     90620     90622
     90624     90623     90625     90627     90626     90628     90630     90629     90631
     90633     90632     90634     90636     90635     90637     90639     90638     90640
     90642     90641     90643     90645     90644     90646     90648     90647     90649
     90651     90650     90652     90654     90653     90655     90657     90656     90658
     90660     90659     90661     90663     90662     90664     90666     90665     90667
     90669     90668     90670     90672     90671     90673     90675     90674     90676
     90678     90677     90679     90681     90680     90682     90684     90683     90685
     90687     90686     90688     90690     90689     90691     90693     90692     90694
     90696     90695     90697     90699     90698     90700     90702     90701     90703
     90705     90704     90706     90708     90707     90709     90711     90710     90712
     90714     90713     90715     90717     90716     90718     90720     90719     90721
     90723     90722     90724     90726     90725     90727     90729     90728     90730
     90732     90731     90733     90735     90734     90736     90738     90737     90739
     90741     90740     90742     90744     90743     90745     90747     90746     90748
     90750     90749     90751     90753     90752     90754     90756     90755     90757
     90759     90758     90760     90762     90761     90763     90765     90764     90766
     90768     90767     90769     90771     90770     90772     90774     90773     90775
     90777     90776     90778     90780     90779     90781     90783     90782     90784
     90786     90785     90787     90789     90788     90790     90792     90791     90793
     90795     90794     90796     90798     90797     90799     90801     90800     90802
     90804     90803     90805     90807     90806     90808     90810     90809     90811
     90813     90812     90814     90816     90815     90817     90819     90818     90820
     90822     90821     90823     90825     90824     90826     90828     90827     90829
     90831     90830     90832     90834     90833     90835     90837     90836     90838
     90840     90839     90841     90843     90842     90844     90846     90845     90847
     90849     90848     90850     90852     90851     90853     90855     90854     90856
     90858     90857     90859     90861     90860     90862     90864     90863     90865
     90867     90866     90868     90870     90869     90871     90873     90872     90874
     90876     90875     90877     90879     90878     90880     90882     90881     90883
     90885     90884     90886     90888     90887     90889     90891     90890     90892
     90894     90893     90895     90897     90896     90898     90900     90899     90901
     90903     90902     90904     90906     90905     90907     90909     90908     90910
     90912     90911     90913     90915     90914     90916     90918     90917     90919
     90921     90920     90922     90924     90923     90925     90927     90926     90928
     90930     90929     90931     90933     90932     90934     90936     90935     90937
     90939     90938     90940     90942     90941     90943     90945     90944     90946
     90948     90947     90949     90951     90950     90952     90954     90953     90955
     90957     90956     90958     90960     90959     90961     90963     90962     90964
     90966     90965     90967     90969     90968     90970     90972     90971     90973
     90975     90974     90976     90978     90977     90979     90981     90980     90982
     90984     90983     90985     90987     90986     90988     90990     90989     90991
     90993     90992     90994     90996     90995     90997     90999     90998     91000
     91002     91001     91003     91005     91004     91006     91008     91007     91009
     91011     91010     91012     91014     91013     91015     91017     91016     91018
     91020     91019     91021     91023     91022     91024     91026     91025     91027
     91029     91028     91030     91032     91031     91033     91035     91034     91036
     91038     91037     91039     91041     91040     91042     91044     91043     91045
     91047     91046     91048     91050     91049     91051     91053     91052     91054
     91056     91055     91057     91059     91058     91060     91062     91061     91063
     91065     91064     91066     91068     91067     91069     91071     91070     91072
     91074     91073     91075     91077     91076     91078     91080     91079     91081
     91083     91082     91084     91086     91085     91087     91089     91088     91090
     91092     91091     91093     91095     91094     91096     91098     91097     91099
     91101     91100     91102     91104     91103     91105     91107     91106     91108
     91110     91109     91111     91113     91112     91114     91116     91115     91117
     91119     91118     91120     91122     91121     91123     91125     91124     91126
     91128     91127     91129     91131     91130     91132     91134     91133     91135
     91137     91136     91138     91140     91139     91141     91143     91142     91144
     91146     91145     91147     91149     91148     91150     91152     91151     91153
     91155     91154     91156     91158     91157     91159     91161     91160     91162
     91164     91163     91165     91167     91166     91168     91170     91169     91171
     91173     91172     91174     91176     91175     91177     91179     91178     91180
     91182     91181     91183     91185     91184     91186     91188     91187     91189
     91191     91190     91192     91194     91193     91195     91197     91196     91198
     91200     91199     91201     91203     91202     91204     91206     91205     91207
     91209     91208     91210     91212     91211     91213     91215     91214     91216
     91218     91217     91219     91221     91220     91222     91224     91223     91225
     91227     91226     91228     91230     91229     91231     91233     91232     91234
     91236     91235     91237     91239     91238     91240     91242     91241     91243
     91245     91244     91246     91248     91247     91249     91251     91250     91252
     91254     91253     91255     91257     91256     91258     91260     91259     91261
     91263     91262     91264     91266     91265     91267     91269     91268     91270
     91272     91271     91273     91275     91274     91276     91278     91277     91279
     91281     91280     91282     91284     91283     91285     91287     91286     91288
     91290     91289     91291     91293     91292     91294     91296     91295     91297
     91299     91298     91300     91302     91301     91303     91305     91304     91306
     91308     91307     91309     91311     91310     91312     91314     91313     91315
     91317     91316     91318     91320     91319     91321     91323     91322     91324
     91326     91325     91327     91329     91328     91330     91332     91331     91333
     91335     91334     91336     91338     91337     91339     91341     91340     91342
     91344     91343     91345     91347     91346     91348     91350     91349     91351
     91353     91352     91354     91356     91355     91357     91359     91358     91360
     91362     91361     91363     91365     91364     91366     91368     91367     91369
     91371     91370     91372     91374     91373     91375     91377     91376     91378
     91380     91379     91381     91383     91382     91384     91386     91385     91387
     91389     91388     91390     91392     91391     91393     91395     91394     91396
     91398     91397     91399     91401     91400     91402     91404     91403     91405
     91407     91406     91408     91410     91409     91411     91413     91412     91414
     91416     91415     91417     91419     91418     91420     91422     91421     91423
     91425     91424     91426     91428     91427     91429     91431     91430     91432
     91434     91433     91435     91437     91436     91438     91440     91439     91441
     91443     91442     91444     91446     91445     91447     91449     91448     91450
     91452     91451     91453     91455     91454     91456     91458     91457     91459
     91461     91460     91462     91464     91463     91465     91467     91466     91468
     91470     91469     91471     91473     91472     91474     91476     91475     91477
     91479     91478     91480     91482     91481     91483     91485     91484     91486
     91488     91487     91489     91491     91490     91492     91494     91493     91495
     91497     91496     91498     91500     91499     91501     91503     91502     91504
     91506     91505     91507     91509     91508     91510     91512     91511     91513
     91515     91514     91516     91518     91517     91519     91521     91520     91522
     91524     91523     91525     91527     91526     91528     91530     91529     91531
     91533     91532     91534     91536     91535     91537     91539     91538     91540
     91542     91541     91543     91545     91544     91546     91548     91547     91549
     91551     91550     91552     91554     91553     91555     91557     91556     91558
     91560     91559     91561     91563     91562     91564     91566     91565     91567
     91569     91568     91570     91572     91571     91573     91575     91574     91576
     91578     91577     91579     91581     91580     91582     91584     91583     91585
     91587     91586     91588     91590     91589     91591     91593     91592     91594
     91596     91595     91597     91599     91598     91600     91602     91601     91603
     91605     91604     91606     91608     91607     91609     91611     91610     91612
     91614     91613     91615     91617     91616     91618     91620     91619     91621
     91623     91622     91624     91626     91625     91627     91629     91628     91630
     91632     91631     91633     91635     91634     91636     91638     91637     91639
     91641     91640     91642     91644     91643     91645     91647     91646     91648
     91650     91649     91651     91653     91652     91654     91656     91655     91657
     91659     91658     91660     91662     91661     91663     91665     91664     91666
     91668     91667     91669     91671     91670     91672     91674     91673     91675
     91677     91676     91678     91680     91679     91681     91683     91682     91684
     91686     91685     91687     91689     91688     91690     91692     91691     91693
     91695     91694     91696     91698     91697     91699     91701     91700     91702
     91704     91703     91705     91707     91706     91708     91710     91709     91711
     91713     91712     91714     91716     91715     91717     91719     91718     91720
     91722     91721     91723     91725     91724     91726     91728     91727     91729
     91731     91730     91732     91734     91733     91735     91737     91736     91738
     91740     91739     91741     91743     91742     91744     91746     91745     91747
     91749     91748     91750     91752     91751     91753     91755     91754     91756
     91758     91757     91759     91761     91760     91762     91764     91763     91765
     91767     91766     91768     91770     91769     91771     91773     91772     91774
     91776     91775     91777     91779     91778     91780     91782     91781     91783
     91785     91784     91786     91788     91787     91789     91791     91790     91792
     91794     91793     91795     91797     91796     91798     91800     91799     91801
     91803     91802     91804     91806     91805     91807     91809     91808     91810
     91812     91811     91813     91815     91814     91816     91818     91817     91819
     91821     91820     91822     91824     91823     91825     91827     91826     91828
     91830     91829     91831     91833     91832     91834     91836     91835     91837
     91839     91838     91840     91842     91841     91843     91845     91844     91846
     91848     91847     91849     91851     91850     91852     91854     91853     91855
     91857     91856     91858     91860     91859     91861     91863     91862     91864
     91866     91865     91867     91869     91868     91870     91872     91871     91873
     91875     91874     91876     91878     91877     91879     91881     91880     91882
     91884     91883     91885     91887     91886     91888     91890     91889     91891
     91893     91892     91894     91896     91895     91897     91899     91898     91900
     91902     91901     91903     91905     91904     91906     91908     91907     91909
     91911     91910     91912     91914     91913     91915     91917     91916     91918
     91920     91919     91921     91923     91922     91924     91926     91925     91927
     91929     91928     91930     91932     91931     91933     91935     91934     91936
     91938     91937     91939     91941     91940     91942     91944     91943     91945
     91947     91946     91948     91950     91949     91951     91953     91952     91954
     91956     91955     91957     91959     91958     91960     91962     91961     91963
     91965     91964     91966     91968     91967     91969     91971     91970     91972
     91974     91973     91975     91977     91976     91978     91980     91979     91981
     91983     91982     91984     91986     91985     91987     91989     91988     91990
     91992     91991     91993     91995     91994     91996     91998     91997     91999
     92001     92000     92002     92004     92003     92005     92007     92006     92008
     92010     92009     92011     92013     92012     92014     92016     92015     92017
     92019     92018     92020     92022     92021     92023     92025     92024     92026
     92028     92027     92029     92031     92030     92032     92034     92033     92035
     92037     92036     92038     92040     92039     92041     92043     92042     92044
     92046     92045     92047     92049     92048     92050     92052     92051     92053
     92055     92054     92056     92058     92057     92059     92061     92060     92062
     92064     92063     92065     92067     92066     92068     92070     92069     92071
     92073     92072     92074     92076     92075     92077     92079     92078     92080
     92082     92081     92083     92085     92084     92086     92088     92087     92089
     92091     92090     92092     92094     92093     92095     92097     92096     92098
     92100     92099     92101     92103     92102     92104     92106     92105     92107
     92109     92108     92110     92112     92111     92113     92115     92114     92116
     92118     92117     92119     92121     92120     92122     92124     92123     92125
     92127     92126     92128     92130     92129     92131     92133     92132     92134
     92136     92135     92137     92139     92138     92140     92142     92141     92143
     92145     92144     92146     92148     92147     92149     92151     92150     92152
     92154     92153     92155     92157     92156     92158     92160     92159     92161
     92163     92162     92164     92166     92165     92167     92169     92168     92170
     92172     92171     92173     92175     92174     92176     92178     92177     92179
     92181     92180     92182     92184     92183     92185     92187     92186     92188
     92190     92189     92191     92193     92192     92194     92196     92195     92197
     92199     92198     92200     92202     92201     92203     92205     92204     92206
     92208     92207     92209     92211     92210     92212     92214     92213     92215
     92217     92216     92218     92220     92219     92221     92223     92222     92224
     92226     92225     92227     92229     92228     92230     92232     92231     92233
     92235     92234     92236     92238     92237     92239     92241     92240     92242
     92244     92243     92245     92247     92246     92248     92250     92249     92251
     92253     92252     92254     92256     92255     92257     92259     92258     92260
     92262     92261     92263     92265     92264     92266     92268     92267     92269
     92271     92270     92272     92274     92273     92275     92277     92276     92278
     92280     92279     92281     92283     92282     92284     92286     92285     92287
     92289     92288     92290     92292     92291     92293     92295     92294     92296
     92298     92297     92299     92301     92300     92302     92304     92303     92305
     92307     92306     92308     92310     92309     92311     92313     92312     92314
     92316     92315     92317     92319     92318     92320     92322     92321     92323
     92325     92324     92326     92328     92327     92329     92331     92330     92332
     92334     92333     92335     92337     92336     92338     92340     92339     92341
     92343     92342     92344     92346     92345     92347     92349     92348     92350
     92352     92351     92353     92355     92354     92356     92358     92357     92359
     92361     92360     92362     92364     92363     92365     92367     92366     92368
     92370     92369     92371     92373     92372     92374     92376     92375     92377
     92379     92378     92380     92382     92381     92383     92385     92384     92386
     92388     92387     92389     92391     92390     92392     92394     92393     92395
     92397     92396     92398     92400     92399     92401     92403     92402     92404
     92406     92405     92407     92409     92408     92410     92412     92411     92413
     92415     92414     92416     92418     92417     92419     92421     92420     92422
     92424     92423     92425     92427     92426     92428     92430     92429     92431
     92433     92432     92434     92436     92435     92437     92439     92438     92440
     92442     92441     92443     92445     92444     92446     92448     92447     92449
     92451     92450     92452     92454     92453     92455     92457     92456     92458
     92460     92459     92461     92463     92462     92464     92466     92465     92467
     92469     92468     92470     92472     92471     92473     92475     92474     92476
     92478     92477     92479     92481     92480     92482     92484     92483     92485
     92487     92486     92488     92490     92489     92491     92493     92492     92494
     92496     92495     92497     92499     92498     92500     92502     92501     92503
     92505     92504     92506     92508     92507     92509     92511     92510     92512
     92514     92513     92515     92517     92516     92518     92520     92519     92521
     92523     92522     92524     92526     92525     92527     92529     92528     92530
     92532     92531     92533     92535     92534     92536     92538     92537     92539
     92541     92540     92542     92544     92543     92545     92547     92546     92548
     92550     92549     92551     92553     92552     92554     92556     92555     92557
     92559     92558     92560     92562     92561     92563     92565     92564     92566
     92568     92567     92569     92571     92570     92572     92574     92573     92575
     92577     92576     92578     92580     92579     92581     92583     92582     92584
     92586     92585     92587     92589     92588     92590     92592     92591     92593
     92595     92594     92596     92598     92597     92599     92601     92600     92602
     92604     92603     92605     92607     92606     92608     92610     92609     92611
     92613     92612     92614     92616     92615     92617     92619     92618     92620
     92622     92621     92623     92625     92624     92626     92628     92627     92629
     92631     92630     92632     92634     92633     92635     92637     92636     92638
     92640     92639     92641     92643     92642     92644     92646     92645     92647
     92649     92648     92650     92652     92651     92653     92655     92654     92656
     92658     92657     92659     92661     92660     92662     92664     92663     92665
     92667     92666     92668     92670     92669     92671     92673     92672     92674
     92676     92675     92677     92679     92678     92680     92682     92681     92683
     92685     92684     92686     92688     92687     92689     92691     92690     92692
     92694     92693     92695     92697     92696     92698     92700     92699     92701
     92703     92702     92704     92706     92705     92707     92709     92708     92710
     92712     92711     92713     92715     92714     92716     92718     92717     92719
     92721     92720     92722     92724     92723     92725     92727     92726     92728
     92730     92729     92731     92733     92732     92734     92736     92735     92737
     92739     92738     92740     92742     92741     92743     92745     92744     92746
     92748     92747     92749     92751     92750     92752     92754     92753     92755
     92757     92756     92758     92760     92759     92761     92763     92762     92764
     92766     92765     92767     92769     92768     92770     92772     92771     92773
     92775     92774     92776     92778     92777     92779     92781     92780     92782
     92784     92783     92785     92787     92786     92788     92790     92789     92791
     92793     92792     92794     92796     92795     92797     92799     92798     92800
     92802     92801     92803     92805     92804     92806     92808     92807     92809
     92811     92810     92812     92814     92813     92815     92817     92816     92818
     92820     92819     92821     92823     92822     92824     92826     92825     92827
     92829     92828     92830     92832     92831     92833     92835     92834     92836
     92838     92837     92839     92841     92840     92842     92844     92843     92845
     92847     92846     92848     92850     92849     92851     92853     92852     92854
     92856     92855     92857     92859     92858     92860     92862     92861     92863
     92865     92864     92866     92868     92867     92869     92871     92870     92872
     92874     92873     92875     92877     92876     92878     92880     92879     92881
     92883     92882     92884     92886     92885     92887     92889     92888     92890
     92892     92891     92893     92895     92894     92896     92898     92897     92899
     92901     92900     92902     92904     92903     92905     92907     92906     92908
     92910     92909     92911     92913     92912     92914     92916     92915     92917
     92919     92918     92920     92922     92921     92923     92925     92924     92926
     92928     92927     92929     92931     92930     92932     92934     92933     92935
     92937     92936     92938     92940     92939     92941     92943     92942     92944
     92946     92945     92947     92949     92948     92950     92952     92951     92953
     92955     92954     92956     92958     92957     92959     92961     92960     92962
     92964     92963     92965     92967     92966     92968     92970     92969     92971
     92973     92972     92974     92976     92975     92977     92979     92978     92980
     92982     92981     92983     92985     92984     92986     92988     92987     92989
     92991     92990     92992     92994     92993     92995     92997     92996     92998
     93000     92999     93001     93003     93002     93004     93006     93005     93007
     93009     93008     93010     93012     93011     93013     93015     93014     93016
     93018     93017     93019     93021     93020     93022     93024     93023     93025
     93027     93026     93028     93030     93029     93031     93033     93032     93034
     93036     93035     93037     93039     93038     93040     93042     93041     93043
     93045     93044     93046     93048     93047     93049     93051     93050     93052
     93054     93053     93055     93057     93056     93058     93060     93059     93061
     93063     93062     93064     93066     93065     93067     93069     93068     93070
     93072     93071     93073     93075     93074     93076     93078     93077     93079
     93081     93080     93082     93084     93083     93085     93087     93086     93088
     93090     93089     93091     93093     93092     93094     93096     93095     93097
     93099     93098     93100     93102     93101     93103     93105     93104     93106
     93108     93107     93109     93111     93110     93112     93114     93113     93115
     93117     93116     93118     93120     93119     93121     93123     93122     93124
     93126     93125     93127     93129     93128     93130     93132     93131     93133
     93135     93134     93136     93138     93137     93139     93141     93140     93142
     93144     93143     93145     93147     93146     93148     93150     93149     93151
     93153     93152     93154     93156     93155     93157     93159     93158     93160
     93162     93161     93163     93165     93164     93166     93168     93167     93169
     93171     93170     93172     93174     93173     93175     93177     93176     93178
     93180     93179     93181     93183     93182     93184     93186     93185     93187
     93189     93188     93190     93192     93191     93193     93195     93194     93196
     93198     93197     93199     93201     93200     93202     93204     93203     93205
     93207     93206     93208     93210     93209     93211     93213     93212     93214
     93216     93215     93217     93219     93218     93220     93222     93221     93223
     93225     93224     93226     93228     93227     93229     93231     93230     93232
     93234     93233     93235     93237     93236     93238     93240     93239     93241
     93243     93242     93244     93246     93245     93247     93249     93248     93250
     93252     93251     93253     93255     93254     93256     93258     93257     93259
     93261     93260     93262     93264     93263     93265     93267     93266     93268
     93270     93269     93271     93273     93272     93274     93276     93275     93277
     93279     93278     93280     93282     93281     93283     93285     93284     93286
     93288     93287     93289     93291     93290     93292     93294     93293     93295
     93297     93296     93298     93300     93299     93301     93303     93302     93304
     93306     93305     93307     93309     93308     93310     93312     93311     93313
     93315     93314     93316     93318     93317     93319     93321     93320     93322
     93324     93323     93325     93327     93326     93328     93330     93329     93331
     93333     93332     93334     93336     93335     93337     93339     93338     93340
     93342     93341     93343     93345     93344     93346     93348     93347     93349
     93351     93350     93352     93354     93353     93355     93357     93356     93358
     93360     93359     93361     93363     93362     93364     93366     93365     93367
     93369     93368     93370     93372     93371     93373     93375     93374     93376
     93378     93377     93379     93381     93380     93382     93384     93383     93385
     93387     93386     93388     93390     93389     93391     93393     93392     93394
     93396     93395     93397     93399     93398     93400     93402     93401     93403
     93405     93404     93406     93408     93407     93409     93411     93410     93412
     93414     93413     93415     93417     93416     93418     93420     93419     93421
     93423     93422     93424     93426     93425     93427     93429     93428     93430
     93432     93431     93433     93435     93434     93436     93438     93437     93439
     93441     93440     93442     93444     93443     93445     93447     93446     93448
     93450     93449     93451     93453     93452     93454     93456     93455     93457
     93459     93458     93460     93462     93461     93463     93465     93464     93466
     93468     93467     93469     93471     93470     93472     93474     93473     93475
     93477     93476     93478     93480     93479     93481     93483     93482     93484
     93486     93485     93487     93489     93488     93490     93492     93491     93493
     93495     93494     93496     93498     93497     93499     93501     93500     93502
     93504     93503     93505     93507     93506     93508     93510     93509     93511
     93513     93512     93514     93516     93515     93517     93519     93518     93520
     93522     93521     93523     93525     93524     93526     93528     93527     93529
     93531     93530     93532     93534     93533     93535     93537     93536     93538
     93540     93539     93541     93543     93542     93544     93546     93545     93547
     93549     93548     93550     93552     93551     93553     93555     93554     93556
     93558     93557     93559     93561     93560     93562     93564     93563     93565
     93567     93566     93568     93570     93569     93571     93573     93572     93574
     93576     93575     93577     93579     93578     93580     93582     93581     93583
     93585     93584     93586     93588     93587     93589     93591     93590     93592
     93594     93593     93595     93597     93596     93598     93600     93599     93601
     93603     93602     93604     93606     93605     93607     93609     93608     93610
     93612     93611     93613     93615     93614     93616     93618     93617     93619
     93621     93620     93622     93624     93623     93625     93627     93626     93628
     93630     93629     93631     93633     93632     93634     93636     93635     93637
     93639     93638     93640     93642     93641     93643     93645     93644     93646
     93648     93647     93649     93651     93650     93652     93654     93653     93655
     93657     93656     93658     93660     93659     93661     93663     93662     93664
     93666     93665     93667     93669     93668     93670     93672     93671     93673
     93675     93674     93676     93678     93677     93679     93681     93680     93682
     93684     93683     93685     93687     93686     93688     93690     93689     93691
     93693     93692     93694     93696     93695     93697     93699     93698     93700
     93702     93701     93703     93705     93704     93706     93708     93707     93709
     93711     93710     93712     93714     93713     93715     93717     93716     93718
     93720     93719     93721     93723     93722     93724     93726     93725     93727
     93729     93728     93730     93732     93731     93733     93735     93734     93736
     93738     93737     93739     93741     93740     93742     93744     93743     93745
     93747     93746     93748     93750     93749     93751     93753     93752     93754
     93756     93755     93757     93759     93758     93760     93762     93761     93763
     93765     93764     93766     93768     93767     93769     93771     93770     93772
     93774     93773     93775     93777     93776     93778     93780     93779     93781
     93783     93782     93784     93786     93785     93787     93789     93788     93790
     93792     93791     93793     93795     93794     93796     93798     93797     93799
     93801     93800     93802     93804     93803     93805     93807     93806     93808
     93810     93809     93811     93813     93812     93814     93816     93815     93817
     93819     93818     93820     93822     93821     93823     93825     93824     93826
     93828     93827     93829     93831     93830     93832     93834     93833     93835
     93837     93836     93838     93840     93839     93841     93843     93842     93844
     93846     93845     93847     93849     93848     93850     93852     93851     93853
     93855     93854     93856     93858     93857     93859     93861     93860     93862
     93864     93863     93865     93867     93866     93868     93870     93869     93871
     93873     93872     93874     93876     93875     93877     93879     93878     93880
     93882     93881     93883     93885     93884     93886     93888     93887     93889
     93891     93890     93892     93894     93893     93895     93897     93896     93898
     93900     93899     93901     93903     93902     93904     93906     93905     93907
     93909     93908     93910     93912     93911     93913     93915     93914     93916
     93918     93917     93919     93921     93920     93922     93924     93923     93925
     93927     93926     93928     93930     93929     93931     93933     93932     93934
     93936     93935     93937     93939     93938     93940     93942     93941     93943
     93945     93944     93946     93948     93947     93949     93951     93950     93952
     93954     93953     93955     93957     93956     93958     93960     93959     93961
     93963     93962     93964     93966     93965     93967     93969     93968     93970
     93972     93971     93973     93975     93974     93976     93978     93977     93979
     93981     93980     93982     93984     93983     93985     93987     93986     93988
     93990     93989     93991     93993     93992     93994     93996     93995     93997
     93999     93998     94000     94002     94001     94003     94005     94004     94006
     94008     94007     94009     94011     94010     94012     94014     94013     94015
     94017     94016     94018     94020     94019     94021     94023     94022     94024
     94026     94025     94027     94029     94028     94030     94032     94031     94033
     94035     94034     94036     94038     94037     94039     94041     94040     94042
     94044     94043     94045     94047     94046     94048     94050     94049     94051
     94053     94052     94054     94056     94055     94057     94059     94058     94060
     94062     94061     94063     94065     94064     94066     94068     94067     94069
     94071     94070     94072     94074     94073     94075     94077     94076     94078
     94080     94079     94081     94083     94082     94084     94086     94085     94087
     94089     94088     94090     94092     94091     94093     94095     94094     94096
     94098     94097     94099     94101     94100     94102     94104     94103     94105
     94107     94106     94108     94110     94109     94111     94113     94112     94114
     94116     94115     94117     94119     94118     94120     94122     94121     94123
     94125     94124     94126     94128     94127     94129     94131     94130     94132
     94134     94133     94135     94137     94136     94138     94140     94139     94141
     94143     94142     94144     94146     94145     94147     94149     94148     94150
     94152     94151     94153     94155     94154     94156     94158     94157     94159
     94161     94160     94162     94164     94163     94165     94167     94166     94168
     94170     94169     94171     94173     94172     94174     94176     94175     94177
     94179     94178     94180     94182     94181     94183     94185     94184     94186
     94188     94187     94189     94191     94190     94192     94194     94193     94195
     94197     94196     94198     94200     94199     94201     94203     94202     94204
     94206     94205     94207     94209     94208     94210     94212     94211     94213
     94215     94214     94216     94218     94217     94219     94221     94220     94222
     94224     94223     94225     94227     94226     94228     94230     94229     94231
     94233     94232     94234     94236     94235     94237     94239     94238     94240
     94242     94241     94243     94245     94244     94246     94248     94247     94249
     94251     94250     94252     94254     94253     94255     94257     94256     94258
     94260     94259     94261     94263     94262     94264     94266     94265     94267
     94269     94268     94270     94272     94271     94273     94275     94274     94276
     94278     94277     94279     94281     94280     94282     94284     94283     94285
     94287     94286     94288     94290     94289     94291     94293     94292     94294
     94296     94295     94297     94299     94298     94300     94302     94301     94303
     94305     94304     94306     94308     94307     94309     94311     94310     94312
     94314     94313     94315     94317     94316     94318     94320     94319     94321
     94323     94322     94324     94326     94325     94327     94329     94328     94330
     94332     94331     94333     94335     94334     94336     94338     94337     94339
     94341     94340     94342     94344     94343     94345     94347     94346     94348
     94350     94349     94351     94353     94352     94354     94356     94355     94357
     94359     94358     94360     94362     94361     94363     94365     94364     94366
     94368     94367     94369     94371     94370     94372     94374     94373     94375
     94377     94376     94378     94380     94379     94381     94383     94382     94384
     94386     94385     94387     94389     94388     94390     94392     94391     94393
     94395     94394     94396     94398     94397     94399     94401     94400     94402
     94404     94403     94405     94407     94406     94408     94410     94409     94411
     94413     94412     94414     94416     94415     94417     94419     94418     94420
     94422     94421     94423     94425     94424     94426     94428     94427     94429
     94431     94430     94432     94434     94433     94435     94437     94436     94438
     94440     94439     94441     94443     94442     94444     94446     94445     94447
     94449     94448     94450     94452     94451     94453     94455     94454     94456
     94458     94457     94459     94461     94460     94462     94464     94463     94465
     94467     94466     94468     94470     94469     94471     94473     94472     94474
     94476     94475     94477     94479     94478     94480     94482     94481     94483
     94485     94484     94486     94488     94487     94489     94491     94490     94492
     94494     94493     94495     94497     94496     94498     94500     94499     94501
     94503     94502     94504     94506     94505     94507     94509     94508     94510
     94512     94511     94513     94515     94514     94516     94518     94517     94519
     94521     94520     94522     94524     94523     94525     94527     94526     94528
     94530     94529     94531     94533     94532     94534     94536     94535     94537
     94539     94538     94540     94542     94541     94543     94545     94544     94546
     94548     94547     94549     94551     94550     94552     94554     94553     94555
     94557     94556     94558     94560     94559     94561     94563     94562     94564
     94566     94565     94567     94569     94568     94570     94572     94571     94573
     94575     94574     94576     94578     94577     94579     94581     94580     94582
     94584     94583     94585     94587     94586     94588     94590     94589     94591
     94593     94592     94594     94596     94595     94597     94599     94598     94600
     94602     94601     94603     94605     94604     94606     94608     94607     94609
     94611     94610     94612     94614     94613     94615     94617     94616     94618
     94620     94619     94621     94623     94622     94624     94626     94625     94627
     94629     94628     94630     94632     94631     94633     94635     94634     94636
     94638     94637     94639     94641     94640     94642     94644     94643     94645
     94647     94646     94648     94650     94649     94651     94653     94652     94654
     94656     94655     94657     94659     94658     94660     94662     94661     94663
     94665     94664     94666     94668     94667     94669     94671     94670     94672
     94674     94673     94675     94677     94676     94678     94680     94679     94681
     94683     94682     94684     94686     94685     94687     94689     94688     94690
     94692     94691     94693     94695     94694     94696     94698     94697     94699
     94701     94700     94702     94704     94703     94705     94707     94706     94708
     94710     94709     94711     94713     94712     94714     94716     94715     94717
     94719     94718     94720     94722     94721     94723     94725     94724     94726
     94728     94727     94729     94731     94730     94732     94734     94733     94735
     94737     94736     94738     94740     94739     94741     94743     94742     94744
     94746     94745     94747     94749     94748     94750     94752     94751     94753
     94755     94754     94756     94758     94757     94759     94761     94760     94762
     94764     94763     94765     94767     94766     94768     94770     94769     94771
     94773     94772     94774     94776     94775     94777     94779     94778     94780
     94782     94781     94783     94785     94784     94786     94788     94787     94789
     94791     94790     94792     94794     94793     94795     94797     94796     94798
     94800     94799     94801     94803     94802     94804     94806     94805     94807
     94809     94808     94810     94812     94811     94813     94815     94814     94816
     94818     94817     94819     94821     94820     94822     94824     94823     94825
     94827     94826     94828     94830     94829     94831     94833     94832     94834
     94836     94835     94837     94839     94838     94840     94842     94841     94843
     94845     94844     94846     94848     94847     94849     94851     94850     94852
     94854     94853     94855     94857     94856     94858     94860     94859     94861
     94863     94862     94864     94866     94865     94867     94869     94868     94870
     94872     94871     94873     94875     94874     94876     94878     94877     94879
     94881     94880     94882     94884     94883     94885     94887     94886     94888
     94890     94889     94891     94893     94892     94894     94896     94895     94897
     94899     94898     94900     94902     94901     94903     94905     94904     94906
     94908     94907     94909     94911     94910     94912     94914     94913     94915
     94917     94916     94918     94920     94919     94921     94923     94922     94924
     94926     94925     94927     94929     94928     94930     94932     94931     94933
     94935     94934     94936     94938     94937     94939     94941     94940     94942
     94944     94943     94945     94947     94946     94948     94950     94949     94951
     94953     94952     94954     94956     94955     94957     94959     94958     94960
     94962     94961     94963     94965     94964     94966     94968     94967     94969
     94971     94970     94972     94974     94973     94975     94977     94976     94978
     94980     94979     94981     94983     94982     94984     94986     94985     94987
     94989     94988     94990     94992     94991     94993     94995     94994     94996
     94998     94997     94999     95001     95000     95002     95004     95003     95005
     95007     95006     95008     95010     95009     95011     95013     95012     95014
     95016     95015     95017     95019     95018     95020     95022     95021     95023
     95025     95024     95026     95028     95027     95029     95031     95030     95032
     95034     95033     95035     95037     95036     95038     95040     95039     95041
     95043     95042     95044     95046     95045     95047     95049     95048     95050
     95052     95051     95053     95055     95054     95056     95058     95057     95059
     95061     95060     95062     95064     95063     95065     95067     95066     95068
     95070     95069     95071     95073     95072     95074     95076     95075     95077
     95079     95078     95080     95082     95081     95083     95085     95084     95086
     95088     95087     95089     95091     95090     95092     95094     95093     95095
     95097     95096     95098     95100     95099     95101     95103     95102     95104
     95106     95105     95107     95109     95108     95110     95112     95111     95113
     95115     95114     95116     95118     95117     95119     95121     95120     95122
     95124     95123     95125     95127     95126     95128     95130     95129     95131
     95133     95132     95134     95136     95135     95137     95139     95138     95140
     95142     95141     95143     95145     95144     95146     95148     95147     95149
     95151     95150     95152     95154     95153     95155     95157     95156     95158
     95160     95159     95161     95163     95162     95164     95166     95165     95167
     95169     95168     95170     95172     95171     95173     95175     95174     95176
     95178     95177     95179     95181     95180     95182     95184     95183     95185
     95187     95186     95188     95190     95189     95191     95193     95192     95194
     95196     95195     95197     95199     95198     95200     95202     95201     95203
     95205     95204     95206     95208     95207     95209     95211     95210     95212
     95214     95213     95215     95217     95216     95218     95220     95219     95221
     95223     95222     95224     95226     95225     95227     95229     95228     95230
     95232     95231     95233     95235     95234     95236     95238     95237     95239
     95241     95240     95242     95244     95243     95245     95247     95246     95248
     95250     95249     95251     95253     95252     95254     95256     95255     95257
     95259     95258     95260     95262     95261     95263     95265     95264     95266
     95268     95267     95269     95271     95270     95272     95274     95273     95275
     95277     95276     95278     95280     95279     95281     95283     95282     95284
     95286     95285     95287     95289     95288     95290     95292     95291     95293
     95295     95294     95296     95298     95297     95299     95301     95300     95302
     95304     95303     95305     95307     95306     95308     95310     95309     95311
     95313     95312     95314     95316     95315     95317     95319     95318     95320
     95322     95321     95323     95325     95324     95326     95328     95327     95329
     95331     95330     95332     95334     95333     95335     95337     95336     95338
     95340     95339     95341     95343     95342     95344     95346     95345     95347
     95349     95348     95350     95352     95351     95353     95355     95354     95356
     95358     95357     95359     95361     95360     95362     95364     95363     95365
     95367     95366     95368     95370     95369     95371     95373     95372     95374
     95376     95375     95377     95379     95378     95380     95382     95381     95383
     95385     95384     95386     95388     95387     95389     95391     95390     95392
     95394     95393     95395     95397     95396     95398     95400     95399     95401
     95403     95402     95404     95406     95405     95407     95409     95408     95410
     95412     95411     95413     95415     95414     95416     95418     95417     95419
     95421     95420     95422     95424     95423     95425     95427     95426     95428
     95430     95429     95431     95433     95432     95434     95436     95435     95437
     95439     95438     95440     95442     95441     95443     95445     95444     95446
     95448     95447     95449     95451     95450     95452     95454     95453     95455
     95457     95456     95458     95460     95459     95461     95463     95462     95464
     95466     95465     95467     95469     95468     95470     95472     95471     95473
     95475     95474     95476     95478     95477     95479     95481     95480     95482
     95484     95483     95485     95487     95486     95488     95490     95489     95491
     95493     95492     95494     95496     95495     95497     95499     95498     95500
     95502     95501     95503     95505     95504     95506     95508     95507     95509
     95511     95510     95512     95514     95513     95515     95517     95516     95518
     95520     95519     95521     95523     95522     95524     95526     95525     95527
     95529     95528     95530     95532     95531     95533     95535     95534     95536
     95538     95537     95539     95541     95540     95542     95544     95543     95545
     95547     95546     95548     95550     95549     95551     95553     95552     95554
     95556     95555     95557     95559     95558     95560     95562     95561     95563
     95565     95564     95566     95568     95567     95569     95571     95570     95572
     95574     95573     95575     95577     95576     95578     95580     95579     95581
     95583     95582     95584     95586     95585     95587     95589     95588     95590
     95592     95591     95593     95595     95594     95596     95598     95597     95599
     95601     95600     95602     95604     95603     95605     95607     95606     95608
     95610     95609     95611     95613     95612     95614     95616     95615     95617
     95619     95618     95620     95622     95621     95623     95625     95624     95626
     95628     95627     95629     95631     95630     95632     95634     95633     95635
     95637     95636     95638     95640     95639     95641     95643     95642     95644
     95646     95645     95647     95649     95648     95650     95652     95651     95653
     95655     95654     95656     95658     95657     95659     95661     95660     95662
     95664     95663     95665     95667     95666     95668     95670     95669     95671
     95673     95672     95674     95676     95675     95677     95679     95678     95680
     95682     95681     95683     95685     95684     95686     95688     95687     95689
     95691     95690     95692     95694     95693     95695     95697     95696     95698
     95700     95699     95701     95703     95702     95704     95706     95705     95707
     95709     95708     95710     95712     95711     95713     95715     95714     95716
     95718     95717     95719     95721     95720     95722     95724     95723     95725
     95727     95726     95728     95730     95729     95731     95733     95732     95734
     95736     95735     95737     95739     95738     95740     95742     95741     95743
     95745     95744     95746     95748     95747     95749     95751     95750     95752
     95754     95753     95755     95757     95756     95758     95760     95759     95761
     95763     95762     95764     95766     95765     95767     95769     95768     95770
     95772     95771     95773     95775     95774     95776     95778     95777     95779
     95781     95780     95782     95784     95783     95785     95787     95786     95788
     95790     95789     95791     95793     95792     95794     95796     95795     95797
     95799     95798     95800     95802     95801     95803     95805     95804     95806
     95808     95807     95809     95811     95810     95812     95814     95813     95815
     95817     95816     95818     95820     95819     95821     95823     95822     95824
     95826     95825     95827     95829     95828     95830     95832     95831     95833
     95835     95834     95836     95838     95837     95839     95841     95840     95842
     95844     95843     95845     95847     95846     95848     95850     95849     95851
     95853     95852     95854     95856     95855     95857     95859     95858     95860
     95862     95861     95863     95865     95864     95866     95868     95867     95869
     95871     95870     95872     95874     95873     95875     95877     95876     95878
     95880     95879     95881     95883     95882     95884     95886     95885     95887
     95889     95888     95890     95892     95891     95893     95895     95894     95896
     95898     95897     95899     95901     95900     95902     95904     95903     95905
     95907     95906     95908     95910     95909     95911     95913     95912     95914
     95916     95915     95917     95919     95918     95920     95922     95921     95923
     95925     95924     95926     95928     95927     95929     95931     95930     95932
     95934     95933     95935     95937     95936     95938     95940     95939     95941
     95943     95942     95944     95946     95945     95947     95949     95948     95950
     95952     95951     95953     95955     95954     95956     95958     95957     95959
     95961     95960     95962     95964     95963     95965     95967     95966     95968
     95970     95969     95971     95973     95972     95974     95976     95975     95977
     95979     95978     95980     95982     95981     95983     95985     95984     95986
     95988     95987     95989     95991     95990     95992     95994     95993     95995
     95997     95996     95998     96000     95999     96001     96003     96002     96004
     96006     96005     96007     96009     96008     96010     96012     96011     96013
     96015     96014     96016     96018     96017     96019     96021     96020     96022
     96024     96023     96025     96027     96026     96028     96030     96029     96031
     96033     96032     96034     96036     96035     96037     96039     96038     96040
     96042     96041     96043     96045     96044     96046     96048     96047     96049
     96051     96050     96052     96054     96053     96055     96057     96056     96058
     96060     96059     96061     96063     96062     96064     96066     96065     96067
     96069     96068     96070     96072     96071     96073     96075     96074     96076
     96078     96077     96079     96081     96080     96082     96084     96083     96085
     96087     96086     96088     96090     96089     96091     96093     96092     96094
     96096     96095     96097     96099     96098     96100     96102     96101     96103
     96105     96104     96106     96108     96107     96109     96111     96110     96112
     96114     96113     96115     96117     96116     96118     96120     96119     96121
     96123     96122     96124     96126     96125     96127     96129     96128     96130
     96132     96131     96133     96135     96134     96136     96138     96137     96139
     96141     96140     96142     96144     96143     96145     96147     96146     96148
     96150     96149     96151     96153     96152     96154     96156     96155     96157
     96159     96158     96160     96162     96161     96163     96165     96164     96166
     96168     96167     96169     96171     96170     96172     96174     96173     96175
     96177     96176     96178     96180     96179     96181     96183     96182     96184
     96186     96185     96187     96189     96188     96190     96192     96191     96193
     96195     96194     96196     96198     96197     96199     96201     96200     96202
     96204     96203     96205     96207     96206     96208     96210     96209     96211
     96213     96212     96214     96216     96215     96217     96219     96218     96220
     96222     96221     96223     96225     96224     96226     96228     96227     96229
     96231     96230     96232     96234     96233     96235     96237     96236     96238
     96240     96239     96241     96243     96242     96244     96246     96245     96247
     96249     96248     96250     96252     96251     96253     96255     96254     96256
     96258     96257     96259     96261     96260     96262     96264     96263     96265
     96267     96266     96268     96270     96269     96271     96273     96272     96274
     96276     96275     96277     96279     96278     96280     96282     96281     96283
     96285     96284     96286     96288     96287     96289     96291     96290     96292
     96294     96293     96295     96297     96296     96298     96300     96299     96301
     96303     96302     96304     96306     96305     96307     96309     96308     96310
     96312     96311     96313     96315     96314     96316     96318     96317     96319
     96321     96320     96322     96324     96323     96325     96327     96326     96328
     96330     96329     96331     96333     96332     96334     96336     96335     96337
     96339     96338     96340     96342     96341     96343     96345     96344     96346
     96348     96347     96349     96351     96350     96352     96354     96353     96355
     96357     96356     96358     96360     96359     96361     96363     96362     96364
     96366     96365     96367     96369     96368     96370     96372     96371     96373
     96375     96374     96376     96378     96377     96379     96381     96380     96382
     96384     96383     96385     96387     96386     96388     96390     96389     96391
     96393     96392     96394     96396     96395     96397     96399     96398     96400
     96402     96401     96403     96405     96404     96406     96408     96407     96409
     96411     96410     96412     96414     96413     96415     96417     96416     96418
     96420     96419     96421     96423     96422     96424     96426     96425     96427
     96429     96428     96430     96432     96431     96433     96435     96434     96436
     96438     96437     96439     96441     96440     96442     96444     96443     96445
     96447     96446     96448     96450     96449     96451     96453     96452     96454
     96456     96455     96457     96459     96458     96460     96462     96461     96463
     96465     96464     96466     96468     96467     96469     96471     96470     96472
     96474     96473     96475     96477     96476     96478     96480     96479     96481
     96483     96482     96484     96486     96485     96487     96489     96488     96490
     96492     96491     96493     96495     96494     96496     96498     96497     96499
     96501     96500     96502     96504     96503     96505     96507     96506     96508
     96510     96509     96511     96513     96512     96514     96516     96515     96517
     96519     96518     96520     96522     96521     96523     96525     96524     96526
     96528     96527     96529     96531     96530     96532     96534     96533     96535
     96537     96536     96538     96540     96539     96541     96543     96542     96544
     96546     96545     96547     96549     96548     96550     96552     96551     96553
     96555     96554     96556     96558     96557     96559     96561     96560     96562
     96564     96563     96565     96567     96566     96568     96570     96569     96571
     96573     96572     96574     96576     96575     96577     96579     96578     96580
     96582     96581     96583     96585     96584     96586     96588     96587     96589
     96591     96590     96592     96594     96593     96595     96597     96596     96598
     96600     96599     96601     96603     96602     96604     96606     96605     96607
     96609     96608     96610     96612     96611     96613     96615     96614     96616
     96618     96617     96619     96621     96620     96622     96624     96623     96625
     96627     96626     96628     96630     96629     96631     96633     96632     96634
     96636     96635     96637     96639     96638     96640     96642     96641     96643
     96645     96644     96646     96648     96647     96649     96651     96650     96652
     96654     96653     96655     96657     96656     96658     96660     96659     96661
     96663     96662     96664     96666     96665     96667     96669     96668     96670
     96672     96671     96673     96675     96674     96676     96678     96677     96679
     96681     96680     96682     96684     96683     96685     96687     96686     96688
     96690     96689     96691     96693     96692     96694     96696     96695     96697
     96699     96698     96700     96702     96701     96703     96705     96704     96706
     96708     96707     96709     96711     96710     96712     96714     96713     96715
     96717     96716     96718     96720     96719     96721     96723     96722     96724
     96726     96725     96727     96729     96728     96730     96732     96731     96733
     96735     96734     96736     96738     96737     96739     96741     96740     96742
     96744     96743     96745     96747     96746     96748     96750     96749     96751
     96753     96752     96754     96756     96755     96757     96759     96758     96760
     96762     96761     96763     96765     96764     96766     96768     96767     96769
     96771     96770     96772     96774     96773     96775     96777     96776     96778
     96780     96779     96781     96783     96782     96784     96786     96785     96787
     96789     96788     96790     96792     96791     96793     96795     96794     96796
     96798     96797     96799     96801     96800     96802     96804     96803     96805
     96807     96806     96808     96810     96809     96811     96813     96812     96814
     96816     96815     96817     96819     96818     96820     96822     96821     96823
     96825     96824     96826     96828     96827     96829     96831     96830     96832
     96834     96833     96835     96837     96836     96838     96840     96839     96841
     96843     96842     96844     96846     96845     96847     96849     96848     96850
     96852     96851     96853     96855     96854     96856     96858     96857     96859
     96861     96860     96862     96864     96863     96865     96867     96866     96868
     96870     96869     96871     96873     96872     96874     96876     96875     96877
     96879     96878     96880     96882     96881     96883     96885     96884     96886
     96888     96887     96889     96891     96890     96892     96894     96893     96895
     96897     96896     96898     96900     96899     96901     96903     96902     96904
     96906     96905     96907     96909     96908     96910     96912     96911     96913
     96915     96914     96916     96918     96917     96919     96921     96920     96922
     96924     96923     96925     96927     96926     96928     96930     96929     96931
     96933     96932     96934     96936     96935     96937     96939     96938     96940
     96942     96941     96943     96945     96944     96946     96948     96947     96949
     96951     96950     96952     96954     96953     96955     96957     96956     96958
     96960     96959     96961     96963     96962     96964     96966     96965     96967
     96969     96968     96970     96972     96971     96973     96975     96974     96976
     96978     96977     96979     96981     96980     96982     96984     96983     96985
     96987     96986     96988     96990     96989     96991     96993     96992     96994
     96996     96995     96997     96999     96998     97000     97002     97001     97003
     97005     97004     97006     97008     97007     97009     97011     97010     97012
     97014     97013     97015     97017     97016     97018     97020     97019     97021
     97023     97022     97024     97026     97025     97027     97029     97028     97030
     97032     97031     97033     97035     97034     97036     97038     97037     97039
     97041     97040     97042     97044     97043     97045     97047     97046     97048
     97050     97049     97051     97053     97052     97054     97056     97055     97057
     97059     97058     97060     97062     97061     97063     97065     97064     97066
     97068     97067     97069     97071     97070     97072     97074     97073     97075
     97077     97076     97078     97080     97079     97081     97083     97082     97084
     97086     97085     97087     97089     97088     97090     97092     97091     97093
     97095     97094     97096     97098     97097     97099     97101     97100     97102
     97104     97103     97105     97107     97106     97108     97110     97109     97111
     97113     97112     97114     97116     97115     97117     97119     97118     97120
     97122     97121     97123     97125     97124     97126     97128     97127     97129
     97131     97130     97132     97134     97133     97135     97137     97136     97138
     97140     97139     97141     97143     97142     97144     97146     97145     97147
     97149     97148     97150     97152     97151     97153     97155     97154     97156
     97158     97157     97159     97161     97160     97162     97164     97163     97165
     97167     97166     97168     97170     97169     97171     97173     97172     97174
     97176     97175     97177     97179     97178     97180     97182     97181     97183
     97185     97184     97186     97188     97187     97189     97191     97190     97192
     97194     97193     97195     97197     97196     97198     97200     97199     97201
     97203     97202     97204     97206     97205     97207     97209     97208     97210
     97212     97211     97213     97215     97214     97216     97218     97217     97219
     97221     97220     97222     97224     97223     97225     97227     97226     97228
     97230     97229     97231     97233     97232     97234     97236     97235     97237
     97239     97238     97240     97242     97241     97243     97245     97244     97246
     97248     97247     97249     97251     97250     97252     97254     97253     97255
     97257     97256     97258     97260     97259     97261     97263     97262     97264
     97266     97265     97267     97269     97268     97270     97272     97271     97273
     97275     97274     97276     97278     97277     97279     97281     97280     97282
     97284     97283     97285     97287     97286     97288     97290     97289     97291
     97293     97292     97294     97296     97295     97297     97299     97298     97300
     97302     97301     97303     97305     97304     97306     97308     97307     97309
     97311     97310     97312     97314     97313     97315     97317     97316     97318
     97320     97319     97321     97323     97322     97324     97326     97325     97327
     97329     97328     97330     97332     97331     97333     97335     97334     97336
     97338     97337     97339     97341     97340     97342     97344     97343     97345
     97347     97346     97348     97350     97349     97351     97353     97352     97354
     97356     97355     97357     97359     97358     97360     97362     97361     97363
     97365     97364     97366     97368     97367     97369     97371     97370     97372
     97374     97373     97375     97377     97376     97378     97380     97379     97381
     97383     97382     97384     97386     97385     97387     97389     97388     97390
     97392     97391     97393     97395     97394     97396     97398     97397     97399
     97401     97400     97402     97404     97403     97405     97407     97406     97408
     97410     97409     97411     97413     97412     97414     97416     97415     97417
     97419     97418     97420     97422     97421     97423     97425     97424     97426
     97428     97427     97429     97431     97430     97432     97434     97433     97435
     97437     97436     97438     97440     97439     97441     97443     97442     97444
     97446     97445     97447     97449     97448     97450     97452     97451     97453
     97455     97454     97456     97458     97457     97459     97461     97460     97462
     97464     97463     97465     97467     97466     97468     97470     97469     97471
     97473     97472     97474     97476     97475     97477     97479     97478     97480
     97482     97481     97483     97485     97484     97486     97488     97487     97489
     97491     97490     97492     97494     97493     97495     97497     97496     97498
     97500     97499     97501     97503     97502     97504     97506     97505     97507
     97509     97508     97510     97512     97511     97513     97515     97514     97516
     97518     97517     97519     97521     97520     97522     97524     97523     97525
     97527     97526     97528     97530     97529     97531     97533     97532     97534
     97536     97535     97537     97539     97538     97540     97542     97541     97543
     97545     97544     97546     97548     97547     97549     97551     97550     97552
     97554     97553     97555     97557     97556     97558     97560     97559     97561
     97563     97562     97564     97566     97565     97567     97569     97568     97570
     97572     97571     97573     97575     97574     97576     97578     97577     97579
     97581     97580     97582     97584     97583     97585     97587     97586     97588
     97590     97589     97591     97593     97592     97594     97596     97595     97597
     97599     97598     97600     97602     97601     97603     97605     97604     97606
     97608     97607     97609     97611     97610     97612     97614     97613     97615
     97617     97616     97618     97620     97619     97621     97623     97622     97624
     97626     97625     97627     97629     97628     97630     97632     97631     97633
     97635     97634     97636     97638     97637     97639     97641     97640     97642
     97644     97643     97645     97647     97646     97648     97650     97649     97651
     97653     97652     97654     97656     97655     97657     97659     97658     97660
     97662     97661     97663     97665     97664     97666     97668     97667     97669
     97671     97670     97672     97674     97673     97675     97677     97676     97678
     97680     97679     97681     97683     97682     97684     97686     97685     97687
     97689     97688     97690     97692     97691     97693     97695     97694     97696
     97698     97697     97699     97701     97700     97702     97704     97703     97705
     97707     97706     97708     97710     97709     97711     97713     97712     97714
     97716     97715     97717     97719     97718     97720     97722     97721     97723
     97725     97724     97726     97728     97727     97729     97731     97730     97732
     97734     97733     97735     97737     97736     97738     97740     97739     97741
     97743     97742     97744     97746     97745     97747     97749     97748     97750
     97752     97751     97753     97755     97754     97756     97758     97757     97759
     97761     97760     97762     97764     97763     97765     97767     97766     97768
     97770     97769     97771     97773     97772     97774     97776     97775     97777
     97779     97778     97780     97782     97781     97783     97785     97784     97786
     97788     97787     97789     97791     97790     97792     97794     97793     97795
     97797     97796     97798     97800     97799     97801     97803     97802     97804
     97806     97805     97807     97809     97808     97810     97812     97811     97813
     97815     97814     97816     97818     97817     97819     97821     97820     97822
     97824     97823     97825     97827     97826     97828     97830     97829     97831
     97833     97832     97834     97836     97835     97837     97839     97838     97840
     97842     97841     97843     97845     97844     97846     97848     97847     97849
     97851     97850     97852     97854     97853     97855     97857     97856     97858
     97860     97859     97861     97863     97862     97864     97866     97865     97867
     97869     97868     97870     97872     97871     97873     97875     97874     97876
     97878     97877     97879     97881     97880     97882     97884     97883     97885
     97887     97886     97888     97890     97889     97891     97893     97892     97894
     97896     97895     97897     97899     97898     97900     97902     97901     97903
     97905     97904     97906     97908     97907     97909     97911     97910     97912
     97914     97913     97915     97917     97916     97918     97920     97919     97921
     97923     97922     97924     97926     97925     97927     97929     97928     97930
     97932     97931     97933     97935     97934     97936     97938     97937     97939
     97941     97940     97942     97944     97943     97945     97947     97946     97948
     97950     97949     97951     97953     97952     97954     97956     97955     97957
     97959     97958     97960     97962     97961     97963     97965     97964     97966
     97968     97967     97969     97971     97970     97972     97974     97973     97975
     97977     97976     97978     97980     97979     97981     97983     97982     97984
     97986     97985     97987     97989     97988     97990     97992     97991     97993
     97995     97994     97996     97998     97997     97999     98001     98000     98002
     98004     98003     98005     98007     98006     98008     98010     98009     98011
     98013     98012     98014     98016     98015     98017     98019     98018     98020
     98022     98021     98023     98025     98024     98026     98028     98027     98029
     98031     98030     98032     98034     98033     98035     98037     98036     98038
     98040     98039     98041     98043     98042     98044     98046     98045     98047
     98049     98048     98050     98052     98051     98053     98055     98054     98056
     98058     98057     98059     98061     98060     98062     98064     98063     98065
     98067     98066     98068     98070     98069     98071     98073     98072     98074
     98076     98075     98077     98079     98078     98080     98082     98081     98083
     98085     98084     98086     98088     98087     98089     98091     98090     98092
     98094     98093     98095     98097     98096     98098     98100     98099     98101
     98103     98102     98104     98106     98105     98107     98109     98108     98110
     98112     98111     98113     98115     98114     98116     98118     98117     98119
     98121     98120     98122     98124     98123     98125     98127     98126     98128
     98130     98129     98131     98133     98132     98134     98136     98135     98137
     98139     98138     98140     98142     98141     98143     98145     98144     98146
     98148     98147     98149     98151     98150     98152     98154     98153     98155
     98157     98156     98158     98160     98159     98161     98163     98162     98164
     98166     98165     98167     98169     98168     98170     98172     98171     98173
     98175     98174     98176     98178     98177     98179     98181     98180     98182
     98184     98183     98185     98187     98186     98188     98190     98189     98191
     98193     98192     98194     98196     98195     98197     98199     98198     98200
     98202     98201     98203     98205     98204     98206     98208     98207     98209
     98211     98210     98212     98214     98213     98215     98217     98216     98218
     98220     98219     98221     98223     98222     98224     98226     98225     98227
     98229     98228     98230     98232     98231     98233     98235     98234     98236
     98238     98237     98239     98241     98240     98242     98244     98243     98245
     98247     98246     98248     98250     98249     98251     98253     98252     98254
     98256     98255     98257     98259     98258     98260     98262     98261     98263
     98265     98264     98266     98268     98267     98269     98271     98270     98272
     98274     98273     98275     98277     98276     98278     98280     98279     98281
     98283     98282     98284     98286     98285     98287     98289     98288     98290
     98292     98291     98293     98295     98294     98296     98298     98297     98299
     98301     98300     98302     98304     98303     98305     98307     98306     98308
     98310     98309     98311     98313     98312     98314     98316     98315     98317
     98319     98318     98320     98322     98321     98323     98325     98324     98326
     98328     98327     98329     98331     98330     98332     98334     98333     98335
     98337     98336     98338     98340     98339     98341     98343     98342     98344
     98346     98345     98347     98349     98348     98350     98352     98351     98353
     98355     98354     98356     98358     98357     98359     98361     98360     98362
     98364     98363     98365     98367     98366     98368     98370     98369     98371
     98373     98372     98374     98376     98375     98377     98379     98378     98380
     98382     98381     98383     98385     98384     98386     98388     98387     98389
     98391     98390     98392     98394     98393     98395     98397     98396     98398
     98400     98399     98401     98403     98402     98404     98406     98405     98407
     98409     98408     98410     98412     98411     98413     98415     98414     98416
     98418     98417     98419     98421     98420     98422     98424     98423     98425
     98427     98426     98428     98430     98429     98431     98433     98432     98434
     98436     98435     98437     98439     98438     98440     98442     98441     98443
     98445     98444     98446     98448     98447     98449     98451     98450     98452
     98454     98453     98455     98457     98456     98458     98460     98459     98461
     98463     98462     98464     98466     98465     98467     98469     98468     98470
     98472     98471     98473     98475     98474     98476     98478     98477     98479
     98481     98480     98482     98484     98483     98485     98487     98486     98488
     98490     98489     98491     98493     98492     98494     98496     98495     98497
     98499     98498     98500     98502     98501     98503     98505     98504     98506
     98508     98507     98509     98511     98510     98512     98514     98513     98515
     98517     98516     98518     98520     98519     98521     98523     98522     98524
     98526     98525     98527     98529     98528     98530     98532     98531     98533
     98535     98534     98536     98538     98537     98539     98541     98540     98542
     98544     98543     98545     98547     98546     98548     98550     98549     98551
     98553     98552     98554     98556     98555     98557     98559     98558     98560
     98562     98561     98563     98565     98564     98566     98568     98567     98569
     98571     98570     98572     98574     98573     98575     98577     98576     98578
     98580     98579     98581     98583     98582     98584     98586     98585     98587
     98589     98588     98590     98592     98591     98593     98595     98594     98596
     98598     98597     98599     98601     98600     98602     98604     98603     98605
     98607     98606     98608     98610     98609     98611     98613     98612     98614
     98616     98615     98617     98619     98618     98620     98622     98621     98623
     98625     98624     98626     98628     98627     98629     98631     98630     98632
     98634     98633     98635     98637     98636     98638     98640     98639     98641
     98643     98642     98644     98646     98645     98647     98649     98648     98650
     98652     98651     98653     98655     98654     98656     98658     98657     98659
     98661     98660     98662     98664     98663     98665     98667     98666     98668
     98670     98669     98671     98673     98672     98674     98676     98675     98677
     98679     98678     98680     98682     98681     98683     98685     98684     98686
     98688     98687     98689     98691     98690     98692     98694     98693     98695
     98697     98696     98698     98700     98699     98701     98703     98702     98704
     98706     98705     98707     98709     98708     98710     98712     98711     98713
     98715     98714     98716     98718     98717     98719     98721     98720     98722
     98724     98723     98725     98727     98726     98728     98730     98729     98731
     98733     98732     98734     98736     98735     98737     98739     98738     98740
     98742     98741     98743     98745     98744     98746     98748     98747     98749
     98751     98750     98752     98754     98753     98755     98757     98756     98758
     98760     98759     98761     98763     98762     98764     98766     98765     98767
     98769     98768     98770     98772     98771     98773     98775     98774     98776
     98778     98777     98779     98781     98780     98782     98784     98783     98785
     98787     98786     98788     98790     98789     98791     98793     98792     98794
     98796     98795     98797     98799     98798     98800     98802     98801     98803
     98805     98804     98806     98808     98807     98809     98811     98810     98812
     98814     98813     98815     98817     98816     98818     98820     98819     98821
     98823     98822     98824     98826     98825     98827     98829     98828     98830
     98832     98831     98833     98835     98834     98836     98838     98837     98839
     98841     98840     98842     98844     98843     98845     98847     98846     98848
     98850     98849     98851     98853     98852     98854     98856     98855     98857
     98859     98858     98860     98862     98861     98863     98865     98864     98866
     98868     98867     98869     98871     98870     98872     98874     98873     98875
     98877     98876     98878     98880     98879     98881     98883     98882     98884
     98886     98885     98887     98889     98888     98890     98892     98891     98893
     98895     98894     98896     98898     98897     98899     98901     98900     98902
     98904     98903     98905     98907     98906     98908     98910     98909     98911
     98913     98912     98914     98916     98915     98917     98919     98918     98920
     98922     98921     98923     98925     98924     98926     98928     98927     98929
     98931     98930     98932     98934     98933     98935     98937     98936     98938
     98940     98939     98941     98943     98942     98944     98946     98945     98947
     98949     98948     98950     98952     98951     98953     98955     98954     98956
     98958     98957     98959     98961     98960     98962     98964     98963     98965
     98967     98966     98968     98970     98969     98971     98973     98972     98974
     98976     98975     98977     98979     98978     98980     98982     98981     98983
     98985     98984     98986     98988     98987     98989     98991     98990     98992
     98994     98993     98995     98997     98996     98998     99000     98999     99001
     99003     99002     99004     99006     99005     99007     99009     99008     99010
     99012     99011     99013     99015     99014     99016     99018     99017     99019
     99021     99020     99022     99024     99023     99025     99027     99026     99028
     99030     99029     99031     99033     99032     99034     99036     99035     99037
     99039     99038     99040     99042     99041     99043     99045     99044     99046
     99048     99047     99049     99051     99050     99052     99054     99053     99055
     99057     99056     99058     99060     99059     99061     99063     99062     99064
     99066     99065     99067     99069     99068     99070     99072     99071     99073
     99075     99074     99076     99078     99077     99079     99081     99080     99082
     99084     99083     99085     99087     99086     99088     99090     99089     99091
     99093     99092     99094     99096     99095     99097     99099     99098     99100
     99102     99101     99103     99105     99104     99106     99108     99107     99109
     99111     99110     99112     99114     99113     99115     99117     99116     99118
     99120     99119     99121     99123     99122     99124     99126     99125     99127
     99129     99128     99130     99132     99131     99133     99135     99134     99136
     99138     99137     99139     99141     99140     99142     99144     99143     99145
     99147     99146     99148     99150     99149     99151     99153     99152     99154
     99156     99155     99157     99159     99158     99160     99162     99161     99163
     99165     99164     99166     99168     99167     99169     99171     99170     99172
     99174     99173     99175     99177     99176     99178     99180     99179     99181
     99183     99182     99184     99186     99185     99187     99189     99188     99190
     99192     99191     99193     99195     99194     99196     99198     99197     99199
     99201     99200     99202     99204     99203     99205     99207     99206     99208
     99210     99209     99211     99213     99212     99214     99216     99215     99217
     99219     99218     99220     99222     99221     99223     99225     99224     99226
     99228     99227     99229     99231     99230     99232     99234     99233     99235
     99237     99236     99238     99240     99239     99241     99243     99242     99244
     99246     99245     99247     99249     99248     99250     99252     99251     99253
     99255     99254     99256     99258     99257     99259     99261     99260     99262
     99264     99263     99265     99267     99266     99268     99270     99269     99271
     99273     99272     99274     99276     99275     99277     99279     99278     99280
     99282     99281     99283     99285     99284     99286     99288     99287     99289
     99291     99290     99292     99294     99293     99295     99297     99296     99298
     99300     99299     99301     99303     99302     99304     99306     99305     99307
     99309     99308     99310     99312     99311     99313     99315     99314     99316
     99318     99317     99319     99321     99320     99322     99324     99323     99325
     99327     99326     99328     99330     99329     99331     99333     99332     99334
     99336     99335     99337     99339     99338     99340     99342     99341     99343
     99345     99344     99346     99348     99347     99349     99351     99350     99352
     99354     99353     99355     99357     99356     99358     99360     99359     99361
     99363     99362     99364     99366     99365     99367     99369     99368     99370
     99372     99371     99373     99375     99374     99376     99378     99377     99379
     99381     99380     99382     99384     99383     99385     99387     99386     99388
     99390     99389     99391     99393     99392     99394     99396     99395     99397
     99399     99398     99400     99402     99401     99403     99405     99404     99406
     99408     99407     99409     99411     99410     99412     99414     99413     99415
     99417     99416     99418     99420     99419     99421     99423     99422     99424
     99426     99425     99427     99429     99428     99430     99432     99431     99433
     99435     99434     99436     99438     99437     99439     99441     99440     99442
     99444     99443     99445     99447     99446     99448     99450     99449     99451
     99453     99452     99454     99456     99455     99457     99459     99458     99460
     99462     99461     99463     99465     99464     99466     99468     99467     99469
     99471     99470     99472     99474     99473     99475     99477     99476     99478
     99480     99479     99481     99483     99482     99484     99486     99485     99487
     99489     99488     99490     99492     99491     99493     99495     99494     99496
     99498     99497     99499     99501     99500     99502     99504     99503     99505
     99507     99506     99508     99510     99509     99511     99513     99512     99514
     99516     99515     99517     99519     99518     99520     99522     99521     99523
     99525     99524     99526     99528     99527     99529     99531     99530     99532
     99534     99533     99535     99537     99536     99538     99540     99539     99541
     99543     99542     99544     99546     99545     99547     99549     99548     99550
     99552     99551     99553     99555     99554     99556     99558     99557     99559
     99561     99560     99562     99564     99563     99565     99567     99566     99568
     99570     99569     99571     99573     99572     99574     99576     99575     99577
     99579     99578     99580     99582     99581     99583     99585     99584     99586
     99588     99587     99589     99591     99590     99592     99594     99593     99595
     99597     99596     99598     99600     99599     99601     99603     99602     99604
     99606     99605     99607     99609     99608     99610     99612     99611     99613
     99615     99614     99616     99618     99617     99619     99621     99620     99622
     99624     99623     99625     99627     99626     99628     99630     99629     99631
     99633     99632     99634     99636     99635     99637     99639     99638     99640
     99642     99641     99643     99645     99644     99646     99648     99647     99649
     99651     99650     99652     99654     99653     99655     99657     99656     99658
     99660     99659     99661     99663     99662     99664     99666     99665     99667
     99669     99668     99670     99672     99671     99673     99675     99674     99676
     99678     99677     99679     99681     99680     99682     99684     99683     99685
     99687     99686     99688     99690     99689     99691     99693     99692     99694
     99696     99695     99697     99699     99698     99700     99702     99701     99703
     99705     99704     99706     99708     99707     99709     99711     99710     99712
     99714     99713     99715     99717     99716     99718     99720     99719     99721
     99723     99722     99724     99726     99725     99727     99729     99728     99730
     99732     99731     99733     99735     99734     99736     99738     99737     99739
     99741     99740     99742     99744     99743     99745     99747     99746     99748
     99750     99749     99751     99753     99752     99754     99756     99755     99757
     99759     99758     99760     99762     99761     99763     99765     99764     99766
     99768     99767     99769     99771     99770     99772     99774     99773     99775
     99777     99776     99778     99780     99779     99781     99783     99782     99784
     99786     99785     99787     99789     99788     99790     99792     99791     99793
     99795     99794     99796     99798     99797     99799     99801     99800     99802
     99804     99803     99805     99807     99806     99808     99810     99809     99811
     99813     99812     99814     99816     99815     99817     99819     99818     99820
     99822     99821     99823     99825     99824     99826     99828     99827     99829
     99831     99830     99832     99834     99833     99835     99837     99836     99838
     99840     99839     99841     99843     99842     99844     99846     99845     99847
     99849     99848     99850     99852     99851     99853     99855     99854     99856
     99858     99857     99859     99861     99860     99862     99864     99863     99865
     99867     99866     99868     99870     99869     99871     99873     99872     99874
     99876     99875     99877     99879     99878     99880     99882     99881     99883
     99885     99884     99886     99888     99887     99889     99891     99890     99892
     99894     99893     99895     99897     99896     99898     99900     99899     99901
     99903     99902     99904     99906     99905     99907     99909     99908     99910
     99912     99911     99913     99915     99914     99916     99918     99917     99919
     99921     99920     99922     99924     99923     99925     99927     99926     99928
     99930     99929     99931     99933     99932     99934     99936     99935     99937
     99939     99938     99940     99942     99941     99943     99945     99944     99946
     99948     99947     99949     99951     99950     99952     99954     99953     99955
     99957     99956     99958     99960     99959     99961     99963     99962     99964
     99966     99965     99967     99969     99968     99970     99972     99971     99973
     99975     99974     99976     99978     99977     99979     99981     99980     99982
     99984     99983     99985     99987     99986     99988     99990     99989     99991
     99993     99992     99994     99996     99995     99997     99999     99998    100000
    100002    100001    100003    100005    100004    100006    100008    100007    100009
    100011    100010    100012    100014    100013    100015    100017    100016    100018
    100020    100019    100021    100023    100022    100024    100026    100025    100027
    100029    100028    100030    100032    100031    100033    100035    100034    100036
    100038    100037    100039    100041    100040    100042    100044    100043    100045
    100047    100046    100048    100050    100049    100051    100053    100052    100054
    100056    100055    100057    100059    100058    100060    100062    100061    100063
    100065    100064    100066    100068    100067    100069    100071    100070    100072
    100074    100073    100075    100077    100076    100078    100080    100079    100081
    100083    100082    100084    100086    100085    100087    100089    100088    100090
    100092    100091    100093    100095    100094    100096    100098    100097    100099
    100101    100100    100102    100104    100103    100105    100107    100106    100108
    100110    100109    100111    100113    100112    100114    100116    100115    100117
    100119    100118    100120    100122    100121    100123    100125    100124    100126
    100128    100127    100129    100131    100130    100132    100134    100133    100135
    100137    100136    100138    100140    100139    100141    100143    100142    100144
    100146    100145    100147    100149    100148    100150    100152    100151    100153
    100155    100154    100156    100158    100157    100159    100161    100160    100162
    100164    100163    100165    100167    100166    100168    100170    100169    100171
    100173    100172    100174    100176    100175    100177    100179    100178    100180
    100182    100181    100183    100185    100184    100186    100188    100187    100189
    100191    100190    100192    100194    100193    100195    100197    100196    100198
    100200    100199    100201    100203    100202    100204    100206    100205    100207
    100209    100208    100210    100212    100211    100213    100215    100214    100216
    100218    100217    100219    100221    100220    100222    100224    100223    100225
    100227    100226    100228    100230    100229    100231    100233    100232    100234
    100236    100235    100237    100239    100238    100240    100242    100241    100243
    100245    100244    100246    100248    100247    100249    100251    100250    100252
    100254    100253    100255    100257    100256    100258    100260    100259    100261
    100263    100262    100264    100266    100265    100267    100269    100268    100270
    100272    100271    100273    100275    100274    100276    100278    100277    100279
    100281    100280    100282    100284    100283    100285    100287    100286    100288
    100290    100289    100291    100293    100292    100294    100296    100295    100297
    100299    100298    100300    100302    100301    100303    100305    100304    100306
    100308    100307    100309    100311    100310    100312    100314    100313    100315
    100317    100316    100318    100320    100319    100321    100323    100322    100324
    100326    100325    100327    100329    100328    100330    100332    100331    100333
    100335    100334    100336    100338    100337    100339    100341    100340    100342
    100344    100343    100345    100347    100346    100348    100350    100349    100351
    100353    100352    100354    100356    100355    100357    100359    100358    100360
    100362    100361    100363    100365    100364    100366    100368    100367    100369
    100371    100370    100372    100374    100373    100375    100377    100376    100378
    100380    100379    100381    100383    100382    100384    100386    100385    100387
    100389    100388    100390    100392    100391    100393    100395    100394    100396
    100398    100397    100399    100401    100400    100402    100404    100403    100405
    100407    100406    100408    100410    100409    100411    100413    100412    100414
    100416    100415    100417    100419    100418    100420    100422    100421    100423
    100425    100424    100426    100428    100427    100429    100431    100430    100432
    100434    100433    100435    100437    100436    100438    100440    100439    100441
    100443    100442    100444    100446    100445    100447    100449    100448    100450
    100452    100451    100453    100455    100454    100456    100458    100457    100459
    100461    100460    100462    100464    100463    100465    100467    100466    100468
    100470    100469    100471    100473    100472    100474    100476    100475    100477
    100479    100478    100480    100482    100481    100483    100485    100484    100486
    100488    100487    100489    100491    100490    100492    100494    100493    100495
    100497    100496    100498    100500    100499    100501    100503    100502    100504
    100506    100505    100507    100509    100508    100510    100512    100511    100513
    100515    100514    100516    100518    100517    100519    100521    100520    100522
    100524    100523    100525    100527    100526    100528    100530    100529    100531
    100533    100532    100534    100536    100535    100537    100539    100538    100540
    100542    100541    100543    100545    100544    100546    100548    100547    100549
    100551    100550    100552    100554    100553    100555    100557    100556    100558
    100560    100559    100561    100563    100562    100564    100566    100565    100567
    100569    100568    100570    100572    100571    100573    100575    100574    100576
    100578    100577    100579    100581    100580    100582    100584    100583    100585
    100587    100586    100588    100590    100589    100591    100593    100592    100594
    100596    100595    100597    100599    100598    100600    100602    100601    100603
    100605    100604    100606    100608    100607    100609    100611    100610    100612
    100614    100613    100615    100617    100616    100618    100620    100619    100621
    100623    100622    100624    100626    100625    100627    100629    100628    100630
    100632    100631    100633    100635    100634    100636    100638    100637    100639
    100641    100640    100642    100644    100643    100645    100647    100646    100648
    100650    100649    100651    100653    100652    100654    100656    100655    100657
    100659    100658    100660    100662    100661    100663    100665    100664    100666
    100668    100667    100669    100671    100670    100672    100674    100673    100675
    100677    100676    100678    100680    100679    100681    100683    100682    100684
    100686    100685    100687    100689    100688    100690    100692    100691    100693
    100695    100694    100696    100698    100697    100699    100701    100700    100702
    100704    100703    100705    100707    100706    100708    100710    100709    100711
    100713    100712    100714    100716    100715    100717    100719    100718    100720
    100722    100721    100723    100725    100724    100726    100728    100727    100729
    100731    100730    100732    100734    100733    100735    100737    100736    100738
    100740    100739    100741    100743    100742    100744    100746    100745    100747
    100749    100748    100750    100752    100751    100753    100755    100754    100756
    100758    100757    100759    100761    100760    100762    100764    100763    100765
    100767    100766    100768    100770    100769    100771    100773    100772    100774
    100776    100775    100777    100779    100778    100780    100782    100781    100783
    100785    100784    100786    100788    100787    100789    100791    100790    100792
    100794    100793    100795    100797    100796    100798    100800    100799    100801
    100803    100802    100804    100806    100805    100807    100809    100808    100810
    100812    100811    100813    100815    100814    100816    100818    100817    100819
    100821    100820    100822    100824    100823    100825    100827    100826    100828
    100830    100829    100831    100833    100832    100834    100836    100835    100837
    100839    100838    100840    100842    100841    100843    100845    100844    100846
    100848    100847    100849    100851    100850    100852    100854    100853    100855
    100857    100856    100858    100860    100859    100861    100863    100862    100864
    100866    100865    100867    100869    100868    100870    100872    100871    100873
    100875    100874    100876    100878    100877    100879    100881    100880    100882
    100884    100883    100885    100887    100886    100888    100890    100889    100891
    100893    100892    100894    100896    100895    100897    100899    100898    100900
    100902    100901    100903    100905    100904    100906    100908    100907    100909
    100911    100910    100912    100914    100913    100915    100917    100916    100918
    100920    100919    100921    100923    100922    100924    100926    100925    100927
    100929    100928    100930    100932    100931    100933    100935    100934    100936
    100938    100937    100939    100941    100940    100942    100944    100943    100945
    100947    100946    100948    100950    100949    100951    100953    100952    100954
    100956    100955    100957    100959    100958    100960    100962    100961    100963
    100965    100964    100966    100968    100967    100969    100971    100970    100972
    100974    100973    100975    100977    100976    100978    100980    100979    100981
    100983    100982    100984    100986    100985    100987    100989    100988    100990
    100992    100991    100993    100995    100994    100996    100998    100997    100999
    101001    101000    101002    101004    101003    101005    101007    101006    101008
    101010    101009    101011    101013    101012    101014    101016    101015    101017
    101019    101018    101020    101022    101021    101023    101025    101024    101026
    101028    101027    101029    101031    101030    101032    101034    101033    101035
    101037    101036    101038    101040    101039    101041    101043    101042    101044
    101046    101045    101047    101049    101048    101050    101052    101051    101053
    101055    101054    101056    101058    101057    101059    101061    101060    101062
    101064    101063    101065    101067    101066    101068    101070    101069    101071
    101073    101072    101074    101076    101075    101077    101079    101078    101080
    101082    101081    101083    101085    101084    101086    101088    101087    101089
    101091    101090    101092    101094    101093    101095    101097    101096    101098
    101100    101099    101101    101103    101102    101104    101106    101105    101107
    101109    101108    101110    101112    101111    101113    101115    101114    101116
    101118    101117    101119    101121    101120    101122    101124    101123    101125
    101127    101126    101128    101130    101129    101131    101133    101132    101134
    101136    101135    101137    101139    101138    101140    101142    101141    101143
    101145    101144    101146    101148    101147    101149    101151    101150    101152
    101154    101153    101155    101157    101156    101158    101160    101159    101161
    101163    101162    101164    101166    101165    101167    101169    101168    101170
    101172    101171    101173    101175    101174    101176    101178    101177    101179
    101181    101180    101182    101184    101183    101185    101187    101186    101188
    101190    101189    101191    101193    101192    101194    101196    101195    101197
    101199    101198    101200    101202    101201    101203    101205    101204    101206
    101208    101207    101209    101211    101210    101212    101214    101213    101215
    101217    101216    101218    101220    101219    101221    101223    101222    101224
    101226    101225    101227    101229    101228    101230    101232    101231    101233
    101235    101234    101236    101238    101237    101239    101241    101240    101242
    101244    101243    101245    101247    101246    101248    101250    101249    101251
    101253    101252    101254    101256    101255    101257    101259    101258    101260
    101262    101261    101263    101265    101264    101266    101268    101267    101269
    101271    101270    101272    101274    101273    101275    101277    101276    101278
    101280    101279    101281    101283    101282    101284    101286    101285    101287
    101289    101288    101290    101292    101291    101293    101295    101294    101296
    101298    101297    101299    101301    101300    101302    101304    101303    101305
    101307    101306    101308    101310    101309    101311    101313    101312    101314
    101316    101315    101317    101319    101318    101320    101322    101321    101323
    101325    101324    101326    101328    101327    101329    101331    101330    101332
    101334    101333    101335    101337    101336    101338    101340    101339    101341
    101343    101342    101344    101346    101345    101347    101349    101348    101350
    101352    101351    101353    101355    101354    101356    101358    101357    101359
    101361    101360    101362    101364    101363    101365    101367    101366    101368
    101370    101369    101371    101373    101372    101374    101376    101375    101377
    101379    101378    101380    101382    101381    101383    101385    101384    101386
    101388    101387    101389    101391    101390    101392    101394    101393    101395
    101397    101396    101398    101400    101399    101401    101403    101402    101404
    101406    101405    101407    101409    101408    101410    101412    101411    101413
    101415    101414    101416    101418    101417    101419    101421    101420    101422
    101424    101423    101425    101427    101426    101428    101430    101429    101431
    101433    101432    101434    101436    101435    101437    101439    101438    101440
    101442    101441    101443    101445    101444    101446    101448    101447    101449
    101451    101450    101452    101454    101453    101455    101457    101456    101458
    101460    101459    101461    101463    101462    101464    101466    101465    101467
    101469    101468    101470    101472    101471    101473    101475    101474    101476
    101478    101477    101479    101481    101480    101482    101484    101483    101485
    101487    101486    101488    101490    101489    101491    101493    101492    101494
    101496    101495    101497    101499    101498    101500    101502    101501    101503
    101505    101504    101506    101508    101507    101509    101511    101510    101512
    101514    101513    101515    101517    101516    101518    101520    101519    101521
    101523    101522    101524    101526    101525    101527    101529    101528    101530
    101532    101531    101533    101535    101534    101536    101538    101537    101539
    101541    101540    101542    101544    101543    101545    101547    101546    101548
    101550    101549    101551    101553    101552    101554    101556    101555    101557
    101559    101558    101560    101562    101561    101563    101565    101564    101566
    101568    101567    101569    101571    101570    101572    101574    101573    101575
    101577    101576    101578    101580    101579    101581    101583    101582    101584
    101586    101585    101587    101589    101588    101590    101592    101591    101593
    101595    101594    101596    101598    101597    101599    101601    101600    101602
    101604    101603    101605    101607    101606    101608    101610    101609    101611
    101613    101612    101614    101616    101615    101617    101619    101618    101620
    101622    101621    101623    101625    101624    101626    101628    101627    101629
    101631    101630    101632    101634    101633    101635    101637    101636    101638
    101640    101639    101641    101643    101642    101644    101646    101645    101647
    101649    101648    101650    101652    101651    101653    101655    101654    101656
    101658    101657    101659    101661    101660    101662    101664    101663    101665
    101667    101666    101668    101670    101669    101671    101673    101672    101674
    101676    101675    101677    101679    101678    101680    101682    101681    101683
    101685    101684    101686    101688    101687    101689    101691    101690    101692
    101694    101693    101695    101697    101696    101698    101700    101699    101701
    101703    101702    101704    101706    101705    101707    101709    101708    101710
    101712    101711    101713    101715    101714    101716    101718    101717    101719
    101721    101720    101722    101724    101723    101725    101727    101726    101728
    101730    101729    101731    101733    101732    101734    101736    101735    101737
    101739    101738    101740    101742    101741    101743    101745    101744    101746
    101748    101747    101749    101751    101750    101752    101754    101753    101755
    101757    101756    101758    101760    101759    101761    101763    101762    101764
    101766    101765    101767    101769    101768    101770    101772    101771    101773
    101775    101774    101776    101778    101777    101779    101781    101780    101782
    101784    101783    101785    101787    101786    101788    101790    101789    101791
    101793    101792    101794    101796    101795    101797    101799    101798    101800
    101802    101801    101803    101805    101804    101806    101808    101807    101809
    101811    101810    101812    101814    101813    101815    101817    101816    101818
    101820    101819    101821    101823    101822    101824    101826    101825    101827
    101829    101828    101830    101832    101831    101833    101835    101834    101836
    101838    101837    101839    101841    101840    101842    101844    101843    101845
    101847    101846    101848    101850    101849    101851    101853    101852    101854
    101856    101855    101857    101859    101858    101860    101862    101861    101863
    101865    101864    101866    101868    101867    101869    101871    101870    101872
    101874    101873    101875    101877    101876    101878    101880    101879    101881
    101883    101882    101884    101886    101885    101887    101889    101888    101890
    101892    101891    101893    101895    101894    101896    101898    101897    101899
    101901    101900    101902    101904    101903    101905    101907    101906    101908
    101910    101909    101911    101913    101912    101914    101916    101915    101917
    101919    101918    101920    101922    101921    101923    101925    101924    101926
    101928    101927    101929    101931    101930    101932    101934    101933    101935
    101937    101936    101938    101940    101939    101941    101943    101942    101944
    101946    101945    101947    101949    101948    101950    101952    101951    101953
    101955    101954    101956    101958    101957    101959    101961    101960    101962
    101964    101963    101965    101967    101966    101968    101970    101969    101971
    101973    101972    101974    101976    101975    101977    101979    101978    101980
    101982    101981    101983    101985    101984    101986    101988    101987    101989
    101991    101990    101992    101994    101993    101995    101997    101996    101998
    102000    101999    102001    102003    102002    102004    102006    102005    102007
    102009    102008    102010    102012    102011    102013    102015    102014    102016
    102018    102017    102019    102021    102020    102022    102024    102023    102025
    102027    102026    102028    102030    102029    102031    102033    102032    102034
    102036    102035    102037    102039    102038    102040    102042    102041    102043
    102045    102044    102046    102048    102047    102049    102051    102050    102052
    102054    102053    102055    102057    102056    102058    102060    102059    102061
    102063    102062    102064    102066    102065    102067    102069    102068    102070
    102072    102071    102073    102075    102074    102076    102078    102077    102079
    102081    102080    102082    102084    102083    102085    102087    102086    102088
    102090    102089    102091    102093    102092    102094    102096    102095    102097
    102099    102098    102100    102102    102101    102103    102105    102104    102106
    102108    102107    102109    102111    102110    102112    102114    102113    102115
    102117    102116    102118    102120    102119    102121    102123    102122    102124
    102126    102125    102127    102129    102128    102130    102132    102131    102133
    102135    102134    102136    102138    102137    102139    102141    102140    102142
    102144    102143    102145    102147    102146    102148    102150    102149    102151
    102153    102152    102154    102156    102155    102157    102159    102158    102160
    102162    102161    102163    102165    102164    102166    102168    102167    102169
    102171    102170    102172    102174    102173    102175    102177    102176    102178
    102180    102179    102181    102183    102182    102184    102186    102185    102187
    102189    102188    102190    102192    102191    102193    102195    102194    102196
    102198    102197    102199    102201    102200    102202    102204    102203    102205
    102207    102206    102208    102210    102209    102211    102213    102212    102214
    102216    102215    102217    102219    102218    102220    102222    102221    102223
    102225    102224    102226    102228    102227    102229    102231    102230    102232
    102234    102233    102235    102237    102236    102238    102240    102239    102241
    102243    102242    102244    102246    102245    102247    102249    102248    102250
    102252    102251    102253    102255    102254    102256    102258    102257    102259
    102261    102260    102262    102264    102263    102265    102267    102266    102268
    102270    102269    102271    102273    102272    102274    102276    102275    102277
    102279    102278    102280    102282    102281    102283    102285    102284    102286
    102288    102287    102289    102291    102290    102292    102294    102293    102295
    102297    102296    102298    102300    102299    102301    102303    102302    102304
    102306    102305    102307    102309    102308    102310    102312    102311    102313
    102315    102314    102316    102318    102317    102319    102321    102320    102322
    102324    102323    102325    102327    102326    102328    102330    102329    102331
    102333    102332    102334    102336    102335    102337    102339    102338    102340
    102342    102341    102343    102345    102344    102346    102348    102347    102349
    102351    102350    102352    102354    102353    102355    102357    102356    102358
    102360    102359    102361    102363    102362    102364    102366    102365    102367
    102369    102368    102370    102372    102371    102373    102375    102374    102376
    102378    102377    102379    102381    102380    102382    102384    102383    102385
    102387    102386    102388    102390    102389    102391    102393    102392    102394
    102396    102395    102397    102399    102398    102400    102402    102401    102403
    102405    102404    102406    102408    102407    102409    102411    102410    102412
    102414    102413    102415    102417    102416    102418    102420    102419    102421
    102423    102422    102424    102426    102425    102427    102429    102428    102430
    102432    102431    102433    102435    102434    102436    102438    102437    102439
    102441    102440    102442    102444    102443    102445    102447    102446    102448
    102450    102449    102451    102453    102452    102454    102456    102455    102457
    102459    102458    102460    102462    102461    102463    102465    102464    102466
    102468    102467    102469    102471    102470    102472    102474    102473    102475
    102477    102476    102478    102480    102479    102481    102483    102482    102484
    102486    102485    102487    102489    102488    102490    102492    102491    102493
    102495    102494    102496    102498    102497    102499    102501    102500    102502
    102504    102503    102505    102507    102506    102508    102510    102509    102511
    102513    102512    102514    102516    102515    102517    102519    102518    102520
    102522    102521    102523    102525    102524    102526    102528    102527    102529
    102531    102530    102532    102534    102533    102535    102537    102536    102538
    102540    102539    102541    102543    102542    102544    102546    102545    102547
    102549    102548    102550    102552    102551    102553    102555    102554    102556
    102558    102557    102559    102561    102560    102562    102564    102563    102565
    102567    102566    102568    102570    102569    102571    102573    102572    102574
    102576    102575    102577    102579    102578    102580    102582    102581    102583
    102585    102584    102586    102588    102587    102589    102591    102590    102592
    102594    102593    102595    102597    102596    102598    102600    102599    102601
    102603    102602    102604    102606    102605    102607    102609    102608    102610
    102612    102611    102613    102615    102614    102616    102618    102617    102619
    102621    102620    102622    102624    102623    102625    102627    102626    102628
    102630    102629    102631    102633    102632    102634    102636    102635    102637
    102639    102638    102640    102642    102641    102643    102645    102644    102646
    102648    102647    102649    102651    102650    102652    102654    102653    102655
    102657    102656    102658    102660    102659    102661    102663    102662    102664
    102666    102665    102667    102669    102668    102670    102672    102671    102673
    102675    102674    102676    102678    102677    102679    102681    102680    102682
    102684    102683    102685    102687    102686    102688    102690    102689    102691
    102693    102692    102694    102696    102695    102697    102699    102698    102700
    102702    102701    102703    102705    102704    102706    102708    102707    102709
    102711    102710    102712    102714    102713    102715    102717    102716    102718
    102720    102719    102721    102723    102722    102724    102726    102725    102727
    102729    102728    102730    102732    102731    102733    102735    102734    102736
    102738    102737    102739    102741    102740    102742    102744    102743    102745
    102747    102746    102748    102750    102749    102751    102753    102752    102754
    102756    102755    102757    102759    102758    102760    102762    102761    102763
    102765    102764    102766    102768    102767    102769    102771    102770    102772
    102774    102773    102775    102777    102776    102778    102780    102779    102781
    102783    102782    102784    102786    102785    102787    102789    102788    102790
    102792    102791    102793    102795    102794    102796    102798    102797    102799
    102801    102800    102802    102804    102803    102805    102807    102806    102808
    102810    102809    102811    102813    102812    102814    102816    102815    102817
    102819    102818    102820    102822    102821    102823    102825    102824    102826
    102828    102827    102829    102831    102830    102832    102834    102833    102835
    102837    102836    102838    102840    102839    102841    102843    102842    102844
    102846    102845    102847    102849    102848    102850    102852    102851    102853
    102855    102854    102856    102858    102857    102859    102861    102860    102862
    102864    102863    102865    102867    102866    102868    102870    102869    102871
    102873    102872    102874    102876    102875    102877    102879    102878    102880
    102882    102881    102883    102885    102884    102886    102888    102887    102889
    102891    102890    102892    102894    102893    102895    102897    102896    102898
    102900    102899    102901    102903    102902    102904    102906    102905    102907
    102909    102908    102910    102912    102911    102913    102915    102914    102916
    102918    102917    102919    102921    102920    102922    102924    102923    102925
    102927    102926    102928    102930    102929    102931    102933    102932    102934
    102936    102935    102937    102939    102938    102940    102942    102941    102943
    102945    102944    102946    102948    102947    102949    102951    102950    102952
    102954    102953    102955    102957    102956    102958    102960    102959    102961
    102963    102962    102964    102966    102965    102967    102969    102968    102970
    102972    102971    102973    102975    102974    102976    102978    102977    102979
    102981    102980    102982    102984    102983    102985    102987    102986    102988
    102990    102989    102991    102993    102992    102994    102996    102995    102997
    102999    102998    103000    103002    103001    103003    103005    103004    103006
    103008    103007    103009    103011    103010    103012    103014    103013    103015
    103017    103016    103018    103020    103019    103021    103023    103022    103024
    103026    103025    103027    103029    103028    103030    103032    103031    103033
    103035    103034    103036    103038    103037    103039    103041    103040    103042
    103044    103043    103045    103047    103046    103048    103050    103049    103051
    103053    103052    103054    103056    103055    103057    103059    103058    103060
    103062    103061    103063    103065    103064    103066    103068    103067    103069
    103071    103070    103072    103074    103073    103075    103077    103076    103078
    103080    103079    103081    103083    103082    103084    103086    103085    103087
    103089    103088    103090    103092    103091    103093    103095    103094    103096
    103098    103097    103099    103101    103100    103102    103104    103103    103105
    103107    103106    103108    103110    103109    103111    103113    103112    103114
    103116    103115    103117    103119    103118    103120    103122    103121    103123
    103125    103124    103126    103128    103127    103129    103131    103130    103132
    103134    103133    103135    103137    103136    103138    103140    103139    103141
    103143    103142    103144    103146    103145    103147    103149    103148    103150
    103152    103151    103153    103155    103154    103156    103158    103157    103159
    103161    103160    103162    103164    103163    103165    103167    103166    103168
    103170    103169    103171    103173    103172    103174    103176    103175    103177
    103179    103178    103180    103182    103181    103183    103185    103184    103186
    103188    103187    103189    103191    103190    103192    103194    103193    103195
    103197    103196    103198    103200    103199    103201    103203    103202    103204
    103206    103205    103207    103209    103208    103210    103212    103211    103213
    103215    103214    103216    103218    103217    103219    103221    103220    103222
    103224    103223    103225    103227    103226    103228    103230    103229    103231
    103233    103232    103234    103236    103235    103237    103239    103238    103240
    103242    103241    103243    103245    103244    103246    103248    103247    103249
    103251    103250    103252    103254    103253    103255    103257    103256    103258
    103260    103259    103261    103263    103262    103264    103266    103265    103267
    103269    103268    103270    103272    103271    103273    103275    103274    103276
    103278    103277    103279    103281    103280    103282    103284    103283    103285
    103287    103286    103288    103290    103289    103291    103293    103292    103294
    103296    103295    103297    103299    103298    103300    103302    103301    103303
    103305    103304    103306    103308    103307    103309    103311    103310    103312
    103314    103313    103315    103317    103316    103318    103320    103319    103321
    103323    103322    103324    103326    103325    103327    103329    103328    103330
    103332    103331    103333    103335    103334    103336    103338    103337    103339
    103341    103340    103342    103344    103343    103345    103347    103346    103348
    103350    103349    103351    103353    103352    103354    103356    103355    103357
    103359    103358    103360    103362    103361    103363    103365    103364    103366
    103368    103367    103369    103371    103370    103372    103374    103373    103375
    103377    103376    103378    103380    103379    103381    103383    103382    103384
    103386    103385    103387    103389    103388    103390    103392    103391    103393
    103395    103394    103396    103398    103397    103399    103401    103400    103402
    103404    103403    103405    103407    103406    103408    103410    103409    103411
    103413    103412    103414    103416    103415    103417    103419    103418    103420
    103422    103421    103423    103425    103424    103426    103428    103427    103429
    103431    103430    103432    103434    103433    103435    103437    103436    103438
    103440    103439    103441    103443    103442    103444    103446    103445    103447
    103449    103448    103450    103452    103451    103453    103455    103454    103456
    103458    103457    103459    103461    103460    103462    103464    103463    103465
    103467    103466    103468    103470    103469    103471    103473    103472    103474
    103476    103475    103477    103479    103478    103480    103482    103481    103483
    103485    103484    103486    103488    103487    103489    103491    103490    103492
    103494    103493    103495    103497    103496    103498    103500    103499    103501
    103503    103502    103504    103506    103505    103507    103509    103508    103510
    103512    103511    103513    103515    103514    103516    103518    103517    103519
    103521    103520    103522    103524    103523    103525    103527    103526    103528
    103530    103529    103531    103533    103532    103534    103536    103535    103537
    103539    103538    103540    103542    103541    103543    103545    103544    103546
    103548    103547    103549    103551    103550    103552    103554    103553    103555
    103557    103556    103558    103560    103559    103561    103563    103562    103564
    103566    103565    103567    103569    103568    103570    103572    103571    103573
    103575    103574    103576    103578    103577    103579    103581    103580    103582
    103584    103583    103585    103587    103586    103588    103590    103589    103591
    103593    103592    103594    103596    103595    103597    103599    103598    103600
    103602    103601    103603    103605    103604    103606    103608    103607    103609
    103611    103610    103612    103614    103613    103615    103617    103616    103618
    103620    103619    103621    103623    103622    103624    103626    103625    103627
    103629    103628    103630    103632    103631    103633    103635    103634    103636
    103638    103637    103639    103641    103640    103642    103644    103643    103645
    103647    103646    103648    103650    103649    103651    103653    103652    103654
    103656    103655    103657    103659    103658    103660    103662    103661    103663
    103665    103664    103666    103668    103667    103669    103671    103670    103672
    103674    103673    103675    103677    103676    103678    103680    103679    103681
    103683    103682    103684    103686    103685    103687    103689    103688    103690
    103692    103691    103693    103695    103694    103696    103698    103697    103699
    103701    103700    103702    103704    103703    103705    103707    103706    103708
    103710    103709    103711    103713    103712    103714    103716    103715    103717
    103719    103718    103720    103722    103721    103723    103725    103724    103726
    103728    103727    103729    103731    103730    103732    103734    103733    103735
    103737    103736    103738    103740    103739    103741    103743    103742    103744
    103746    103745    103747    103749    103748    103750    103752    103751    103753
    103755    103754    103756    103758    103757    103759    103761    103760    103762
    103764    103763    103765    103767    103766    103768    103770    103769    103771
    103773    103772    103774    103776    103775    103777    103779    103778    103780
    103782    103781    103783    103785    103784    103786    103788    103787    103789
    103791    103790    103792    103794    103793    103795    103797    103796    103798
    103800    103799    103801    103803    103802    103804    103806    103805    103807
    103809    103808    103810    103812    103811    103813    103815    103814    103816
    103818    103817    103819    103821    103820    103822    103824    103823    103825
    103827    103826    103828    103830    103829    103831    103833    103832    103834
    103836    103835    103837    103839    103838    103840    103842    103841    103843
    103845    103844    103846    103848    103847    103849    103851    103850    103852
    103854    103853    103855    103857    103856    103858    103860    103859    103861
    103863    103862    103864    103866    103865    103867    103869    103868    103870
    103872    103871    103873    103875    103874    103876    103878    103877    103879
    103881    103880    103882    103884    103883    103885    103887    103886    103888
    103890    103889    103891    103893    103892    103894    103896    103895    103897
    103899    103898    103900    103902    103901    103903    103905    103904    103906
    103908    103907    103909    103911    103910    103912    103914    103913    103915
    103917    103916    103918    103920    103919    103921    103923    103922    103924
    103926    103925    103927    103929    103928    103930    103932    103931    103933
    103935    103934    103936    103938    103937    103939    103941    103940    103942
    103944    103943    103945    103947    103946    103948    103950    103949    103951
    103953    103952    103954    103956    103955    103957    103959    103958    103960
    103962    103961    103963    103965    103964    103966    103968    103967    103969
    103971    103970    103972    103974    103973    103975    103977    103976    103978
    103980    103979    103981    103983    103982    103984    103986    103985    103987
    103989    103988    103990    103992    103991    103993    103995    103994    103996
    103998    103997    103999    104001    104000    104002    104004    104003    104005
    104007    104006    104008    104010    104009    104011    104013    104012    104014
    104016    104015    104017    104019    104018    104020    104022    104021    104023
    104025    104024    104026    104028    104027    104029    104031    104030    104032
    104034    104033    104035    104037    104036    104038    104040    104039    104041
    104043    104042    104044    104046    104045    104047    104049    104048    104050
    104052    104051    104053    104055    104054    104056    104058    104057    104059
    104061    104060    104062    104064    104063    104065    104067    104066    104068
    104070    104069    104071    104073    104072    104074    104076    104075    104077
    104079    104078    104080    104082    104081    104083    104085    104084    104086
    104088    104087    104089    104091    104090    104092    104094    104093    104095
    104097    104096    104098    104100    104099    104101    104103    104102    104104
    104106    104105    104107    104109    104108    104110    104112    104111    104113
    104115    104114    104116    104118    104117    104119    104121    104120    104122
    104124    104123    104125    104127    104126    104128    104130    104129    104131
    104133    104132    104134    104136    104135    104137    104139    104138    104140
    104142    104141    104143    104145    104144    104146    104148    104147    104149
    104151    104150    104152    104154    104153    104155    104157    104156    104158
    104160    104159    104161    104163    104162    104164    104166    104165    104167
    104169    104168    104170    104172    104171    104173    104175    104174    104176
    104178    104177    104179    104181    104180    104182    104184    104183    104185
    104187    104186    104188    104190    104189    104191    104193    104192    104194
    104196    104195    104197    104199    104198    104200    104202    104201    104203
    104205    104204    104206    104208    104207    104209    104211    104210    104212
    104214    104213    104215    104217    104216    104218    104220    104219    104221
    104223    104222    104224    104226    104225    104227    104229    104228    104230
    104232    104231    104233    104235    104234    104236    104238    104237    104239
    104241    104240    104242    104244    104243    104245    104247    104246    104248
    104250    104249    104251    104253    104252    104254    104256    104255    104257
    104259    104258    104260    104262    104261    104263    104265    104264    104266
    104268    104267    104269    104271    104270    104272    104274    104273    104275
    104277    104276    104278    104280    104279    104281    104283    104282    104284
    104286    104285    104287    104289    104288    104290    104292    104291    104293
    104295    104294    104296    104298    104297    104299    104301    104300    104302
    104304    104303    104305    104307    104306    104308    104310    104309    104311
    104313    104312    104314    104316    104315    104317    104319    104318    104320
    104322    104321    104323    104325    104324    104326    104328    104327    104329
    104331    104330    104332    104334    104333    104335    104337    104336    104338
    104340    104339    104341    104343    104342    104344    104346    104345    104347
    104349    104348    104350    104352    104351    104353    104355    104354    104356
    104358    104357    104359    104361    104360    104362    104364    104363    104365
    104367    104366    104368    104370    104369    104371    104373    104372    104374
    104376    104375    104377    104379    104378    104380    104382    104381    104383
    104385    104384    104386    104388    104387    104389    104391    104390    104392
    104394    104393    104395    104397    104396    104398    104400    104399    104401
    104403    104402    104404    104406    104405    104407    104409    104408    104410
    104412    104411    104413    104415    104414    104416    104418    104417    104419
    104421    104420    104422    104424    104423    104425    104427    104426    104428
    104430    104429    104431    104433    104432    104434    104436    104435    104437
    104439    104438    104440    104442    104441    104443    104445    104444    104446
    104448    104447    104449    104451    104450    104452    104454    104453    104455
    104457    104456    104458    104460    104459    104461    104463    104462    104464
    104466    104465    104467    104469    104468    104470    104472    104471    104473
    104475    104474    104476    104478    104477    104479    104481    104480    104482
    104484    104483    104485    104487    104486    104488    104490    104489    104491
    104493    104492    104494    104496    104495    104497    104499    104498    104500
    104502    104501    104503    104505    104504    104506    104508    104507    104509
    104511    104510    104512    104514    104513    104515    104517    104516    104518
    104520    104519    104521    104523    104522    104524    104526    104525    104527
    104529    104528    104530    104532    104531    104533    104535    104534    104536
    104538    104537    104539    104541    104540    104542    104544    104543    104545
    104547    104546    104548    104550    104549    104551    104553    104552    104554
    104556    104555    104557    104559    104558    104560    104562    104561    104563
    104565    104564    104566    104568    104567    104569    104571    104570    104572
    104574    104573    104575    104577    104576    104578    104580    104579    104581
    104583    104582    104584    104586    104585    104587    104589    104588    104590
    104592    104591    104593    104595    104594    104596    104598    104597    104599
    104601    104600    104602    104604    104603    104605    104607    104606    104608
    104610    104609    104611    104613    104612    104614    104616    104615    104617
    104619    104618    104620    104622    104621    104623    104625    104624    104626
    104628    104627    104629    104631    104630    104632    104634    104633    104635
    104637    104636    104638    104640    104639    104641    104643    104642    104644
    104646    104645    104647    104649    104648    104650    104652    104651    104653
    104655    104654    104656    104658    104657    104659    104661    104660    104662
    104664    104663    104665    104667    104666    104668    104670    104669    104671
    104673    104672    104674    104676    104675    104677    104679    104678    104680
    104682    104681    104683    104685    104684    104686    104688    104687    104689
    104691    104690    104692    104694    104693    104695    104697    104696    104698
    104700    104699    104701    104703    104702    104704    104706    104705    104707
    104709    104708    104710    104712    104711    104713    104715    104714    104716
    104718    104717    104719    104721    104720    104722    104724    104723    104725
    104727    104726    104728    104730    104729    104731    104733    104732    104734
    104736    104735    104737    104739    104738    104740    104742    104741    104743
    104745    104744    104746    104748    104747    104749    104751    104750    104752
    104754    104753    104755    104757    104756    104758    104760    104759    104761
    104763    104762    104764    104766    104765    104767    104769    104768    104770
    104772    104771    104773    104775    104774    104776    104778    104777    104779
    104781    104780    104782    104784    104783    104785    104787    104786    104788
    104790    104789    104791    104793    104792    104794    104796    104795    104797
    104799    104798    104800    104802    104801    104803    104805    104804    104806
    104808    104807    104809    104811    104810    104812    104814    104813    104815
    104817    104816    104818    104820    104819    104821    104823    104822    104824
    104826    104825    104827    104829    104828    104830    104832    104831    104833
    104835    104834    104836    104838    104837    104839    104841    104840    104842
    104844    104843    104845    104847    104846    104848    104850    104849    104851
    104853    104852    104854    104856    104855    104857    104859    104858    104860
    104862    104861    104863    104865    104864    104866    104868    104867    104869
    104871    104870    104872    104874    104873    104875    104877    104876    104878
    104880    104879    104881    104883    104882    104884    104886    104885    104887
    104889    104888    104890    104892    104891    104893    104895    104894    104896
    104898    104897    104899    104901    104900    104902    104904    104903    104905
    104907    104906    104908    104910    104909    104911    104913    104912    104914
    104916    104915    104917    104919    104918    104920    104922    104921    104923
    104925    104924    104926    104928    104927    104929    104931    104930    104932
    104934    104933    104935    104937    104936    104938    104940    104939    104941
    104943    104942    104944    104946    104945    104947    104949    104948    104950
    104952    104951    104953    104955    104954    104956    104958    104957    104959
    104961    104960    104962    104964    104963    104965    104967    104966    104968
    104970    104969    104971    104973    104972    104974    104976    104975    104977
    104979    104978    104980    104982    104981    104983    104985    104984    104986
    104988    104987    104989    104991    104990    104992    104994    104993    104995
    104997    104996    104998    105000    104999    105001    105003    105002    105004
    105006    105005    105007    105009    105008    105010    105012    105011    105013
    105015    105014    105016    105018    105017    105019    105021    105020    105022
    105024    105023    105025    105027    105026    105028    105030    105029    105031
    105033    105032    105034    105036    105035    105037    105039    105038    105040
    105042    105041    105043    105045    105044    105046    105048    105047    105049
    105051    105050    105052    105054    105053    105055    105057    105056    105058
    105060    105059    105061    105063    105062    105064    105066    105065    105067
    105069    105068    105070    105072    105071    105073    105075    105074    105076
    105078    105077    105079    105081    105080    105082    105084    105083    105085
    105087    105086    105088    105090    105089    105091    105093    105092    105094
    105096    105095    105097    105099    105098    105100    105102    105101    105103
    105105    105104    105106    105108    105107    105109    105111    105110    105112
    105114    105113    105115    105117    105116    105118    105120    105119    105121
    105123    105122    105124    105126    105125    105127    105129    105128    105130
    105132    105131    105133    105135    105134    105136    105138    105137    105139
    105141    105140    105142    105144    105143    105145    105147    105146    105148
    105150    105149    105151    105153    105152    105154    105156    105155    105157
    105159    105158    105160    105162    105161    105163    105165    105164    105166
    105168    105167    105169    105171    105170    105172    105174    105173    105175
    105177    105176    105178    105180    105179    105181    105183    105182    105184
    105186    105185    105187    105189    105188    105190    105192    105191    105193
    105195    105194    105196    105198    105197    105199    105201    105200    105202
    105204    105203    105205    105207    105206    105208    105210    105209    105211
    105213    105212    105214    105216    105215    105217    105219    105218    105220
    105222    105221    105223    105225    105224    105226    105228    105227    105229
    105231    105230    105232    105234    105233    105235    105237    105236    105238
    105240    105239    105241    105243    105242    105244    105246    105245    105247
    105249    105248    105250    105252    105251    105253    105255    105254    105256
    105258    105257    105259    105261    105260    105262    105264    105263    105265
    105267    105266    105268    105270    105269    105271    105273    105272    105274
    105276    105275    105277    105279    105278    105280    105282    105281    105283
    105285    105284    105286    105288    105287    105289    105291    105290    105292
    105294    105293    105295    105297    105296    105298    105300    105299    105301
    105303    105302    105304    105306    105305    105307    105309    105308    105310
    105312    105311    105313    105315    105314    105316    105318    105317    105319
    105321    105320    105322    105324    105323    105325    105327    105326    105328
    105330    105329    105331    105333    105332    105334    105336    105335    105337
    105339    105338    105340    105342    105341    105343    105345    105344    105346
    105348    105347    105349    105351    105350    105352    105354    105353    105355
    105357    105356    105358    105360    105359    105361    105363    105362    105364
    105366    105365    105367    105369    105368    105370    105372    105371    105373
    105375    105374    105376    105378    105377    105379    105381    105380    105382
    105384    105383    105385    105387    105386    105388    105390    105389    105391
    105393    105392    105394    105396    105395    105397    105399    105398    105400
    105402    105401    105403    105405    105404    105406    105408    105407    105409
    105411    105410    105412    105414    105413    105415    105417    105416    105418
    105420    105419    105421    105423    105422    105424    105426    105425    105427
    105429    105428    105430    105432    105431    105433    105435    105434    105436
    105438    105437    105439    105441    105440    105442    105444    105443    105445
    105447    105446    105448    105450    105449    105451    105453    105452    105454
    105456    105455    105457    105459    105458    105460    105462    105461    105463
    105465    105464    105466    105468    105467    105469    105471    105470    105472
    105474    105473    105475    105477    105476    105478    105480    105479    105481
    105483    105482    105484    105486    105485    105487    105489    105488    105490
    105492    105491    105493    105495    105494    105496    105498    105497    105499
    105501    105500    105502    105504    105503    105505    105507    105506    105508
    105510    105509    105511    105513    105512    105514    105516    105515    105517
    105519    105518    105520    105522    105521    105523    105525    105524    105526
    105528    105527    105529    105531    105530    105532    105534    105533    105535
    105537    105536    105538    105540    105539    105541    105543    105542    105544
    105546    105545    105547    105549    105548    105550    105552    105551    105553
    105555    105554    105556    105558    105557    105559    105561    105560    105562
    105564    105563    105565    105567    105566    105568    105570    105569    105571
    105573    105572    105574    105576    105575    105577    105579    105578    105580
    105582    105581    105583    105585    105584    105586    105588    105587    105589
    105591    105590    105592    105594    105593    105595    105597    105596    105598
    105600    105599    105601    105603    105602    105604    105606    105605    105607
    105609    105608    105610    105612    105611    105613    105615    105614    105616
    105618    105617    105619    105621    105620    105622    105624    105623    105625
    105627    105626    105628    105630    105629    105631    105633    105632    105634
    105636    105635    105637    105639    105638    105640    105642    105641    105643
    105645    105644    105646    105648    105647    105649    105651    105650    105652
    105654    105653    105655    105657    105656    105658    105660    105659    105661
    105663    105662    105664    105666    105665    105667    105669    105668    105670
    105672    105671    105673    105675    105674    105676    105678    105677    105679
    105681    105680    105682    105684    105683    105685    105687    105686    105688
    105690    105689    105691    105693    105692    105694    105696    105695    105697
    105699    105698    105700    105702    105701    105703    105705    105704    105706
    105708    105707    105709    105711    105710    105712    105714    105713    105715
    105717    105716    105718    105720    105719    105721    105723    105722    105724
    105726    105725    105727    105729    105728    105730    105732    105731    105733
    105735    105734    105736    105738    105737    105739    105741    105740    105742
    105744    105743    105745    105747    105746    105748    105750    105749    105751
    105753    105752    105754    105756    105755    105757    105759    105758    105760
    105762    105761    105763    105765    105764    105766    105768    105767    105769
    105771    105770    105772    105774    105773    105775    105777    105776    105778
    105780    105779    105781    105783    105782    105784    105786    105785    105787
    105789    105788    105790    105792    105791    105793    105795    105794    105796
    105798    105797    105799    105801    105800    105802    105804    105803    105805
    105807    105806    105808    105810    105809    105811    105813    105812    105814
    105816    105815    105817    105819    105818    105820    105822    105821    105823
    105825    105824    105826    105828    105827    105829    105831    105830    105832
    105834    105833    105835    105837    105836    105838    105840    105839    105841
    105843    105842    105844    105846    105845    105847    105849    105848    105850
    105852    105851    105853    105855    105854    105856    105858    105857    105859
    105861    105860    105862    105864    105863    105865    105867    105866    105868
    105870    105869    105871    105873    105872    105874    105876    105875    105877
    105879    105878    105880    105882    105881    105883    105885    105884    105886
    105888    105887    105889    105891    105890    105892    105894    105893    105895
    105897    105896    105898    105900    105899    105901    105903    105902    105904
    105906    105905    105907    105909    105908    105910    105912    105911    105913
    105915    105914    105916    105918    105917    105919    105921    105920    105922
    105924    105923    105925    105927    105926    105928    105930    105929    105931
    105933    105932    105934    105936    105935    105937    105939    105938    105940
    105942    105941    105943    105945    105944    105946    105948    105947    105949
    105951    105950    105952    105954    105953    105955    105957    105956    105958
    105960    105959    105961    105963    105962    105964    105966    105965    105967
    105969    105968    105970    105972    105971    105973    105975    105974    105976
    105978    105977    105979    105981    105980    105982    105984    105983    105985
    105987    105986    105988    105990    105989    105991    105993    105992    105994

     26344 !NPHI: dihedrals
         1         2        17        18         1         2        17        19
         1         2        17        23         2         1         5         6
         2         1         5         7         2         1         5         8
         2         1         9        10         2         1         9        11
         2         1         9        12         2         1        13        14
         2         1        13        15         2         1        13        16
         2        17        23        20         3         2         1         5
         3         2         1         9         3         2         1        13
         3         2        17        18         3         2        17        19
         3         2        17        23         4         2         1         5
         4         2         1         9         4         2         1        13
         4         2        17        18         4         2        17        19
         4         2        17        23         5         1         2        17
         5         1         9        10         5         1         9        11
         5         1         9        12         5         1        13        14
         5         1        13        15         5         1        13        16
         6         5         1         9         6         5         1        13
         7         5         1         9         7         5         1        13
         8         5         1         9         8         5         1        13
         9         1         2        17         9         1        13        14
         9         1        13        15         9         1        13        16
        10         9         1        13        11         9         1        13
        12         9         1        13        13         1         2        17
        17        23        20        21        17        23        20        22
        17        23        20        24        18        17        23        20
        19        17        23        20        20        24        25        26
        20        24        25        27        20        24        25        28
        21        20        24        25        22        20        24        25
        23        20        24        25        24        25        28        29
        24        25        28        30        24        25        28        36
        25        28        30        31        25        28        36        37
        25        28        36        38        25        28        36        39
        26        25        28        29        26        25        28        30
        26        25        28        36        27        25        28        29
        27        25        28        30        27        25        28        36
        28        30        31        32        28        30        31        33
        28        36        39        40        29        28        30        31
        29        28        36        37        29        28        36        38
        29        28        36        39        30        28        36        37
        30        28        36        38        30        28        36        39
        30        31        33        34        30        31        33        35
        30        31        33        45        31        30        28        36
        31        33        45        46        31        33        45        47
        31        33        45        48        32        31        33        34
        32        31        33        35        32        31        33        45
        33        45        48        49        33        45        48        50
        33        45        48        51        34        33        45        46
        34        33        45        47        34        33        45        48
        35        33        45        46        35        33        45        47
        35        33        45        48        36        39        40        41
        36        39        40        42        37        36        39        40
        38        36        39        40        39        40        42        43
        39        40        42        44        39        40        42        92
        40        42        92        93        40        42        92        94
        40        42        92        95        41        40        42        43
        41        40        42        44        41        40        42        92
        42        92        95        96        42        92        95        97
        42        92        95        98        43        42        92        93
        43        42        92        94        43        42        92        95
        44        42        92        93        44        42        92        94
        44        42        92        95        45        48        51        52
        45        48        51        53        45        48        51        54
        46        45        48        49        46        45        48        50
        46        45        48        51        47        45        48        49
        47        45        48        50        47        45        48        51
        48        51        54        55        48        51        54        56
        48        51        54        57        49        48        51        52
        49        48        51        53        49        48        51        54
        50        48        51        52        50        48        51        53
        50        48        51        54        51        54        57        58
        51        54        57        59        51        54        57        60
        52        51        54        55        52        51        54        56
        52        51        54        57        53        51        54        55
        53        51        54        56        53        51        54        57
        54        57        60        61        54        57        60        62
        54        57        60        63        55        54        57        58
        55        54        57        59        55        54        57        60
        56        54        57        58        56        54        57        59
        56        54        57        60        57        60        63        64
        57        60        63        65        58        57        60        61
        58        57        60        62        58        57        60        63
        59        57        60        61        59        57        60        62
        59        57        60        63        60        63        65        66
        60        63        65        67        61        60        63        64
        61        60        63        65        62        60        63        64
        62        60        63        65        63        65        67        68
        63        65        67        69        63        65        67        70
        64        63        65        66        64        63        65        67
        65        67        70        71        65        67        70        72
        65        67        70        73        66        65        67        68
        66        65        67        69        66        65        67        70
        67        70        73        74        67        70        73        75
        67        70        73        76        68        67        70        71
        68        67        70        72        68        67        70        73
        69        67        70        71        69        67        70        72
        69        67        70        73        70        73        76        77
        70        73        76        78        70        73        76        79
        71        70        73        74        71        70        73        75
        71        70        73        76        72        70        73        74
        72        70        73        75        72        70        73        76
        73        76        79        80        73        76        79        81
        73        76        79        82        74        73        76        77
        74        73        76        78        74        73        76        79
        75        73        76        77        75        73        76        78
        75        73        76        79        76        79        82        83
        76        79        82        84        76        79        82        85
        77        76        79        80        77        76        79        81
        77        76        79        82        78        76        79        80
        78        76        79        81        78        76        79        82
        79        82        85        86        79        82        85        87
        79        82        85        88        80        79        82        83
        80        79        82        84        80        79        82        85
        81        79        82        83        81        79        82        84
        81        79        82        85        82        85        88        89
        82        85        88        90        82        85        88        91
        83        82        85        86        83        82        85        87
        83        82        85        88        84        82        85        86
        84        82        85        87        84        82        85        88
        86        85        88        89        86        85        88        90
        86        85        88        91        87        85        88        89
        87        85        88        90        87        85        88        91
        92        95        98        99        92        95        98       100
        92        95        98       101        93        92        95        96
        93        92        95        97        93        92        95        98
        94        92        95        96        94        92        95        97
        94        92        95        98        95        98       101       102
        95        98       101       103        95        98       101       104
        96        95        98        99        96        95        98       100
        96        95        98       101        97        95        98        99
        97        95        98       100        97        95        98       101
        98       101       104       105        98       101       104       106
        98       101       104       107        99        98       101       102
        99        98       101       103        99        98       101       104
       100        98       101       102       100        98       101       103
       100        98       101       104       101       104       107       108
       101       104       107       109       101       104       107       110
       102       101       104       105       102       101       104       106
       102       101       104       107       103       101       104       105
       103       101       104       106       103       101       104       107
       104       107       110       111       104       107       110       112
       104       107       110       113       105       104       107       108
       105       104       107       109       105       104       107       110
       106       104       107       108       106       104       107       109
       106       104       107       110       107       110       113       114
       107       110       113       115       107       110       113       116
       108       107       110       111       108       107       110       112
       108       107       110       113       109       107       110       111
       109       107       110       112       109       107       110       113
       110       113       116       117       110       113       116       118
       110       113       116       119       111       110       113       114
       111       110       113       115       111       110       113       116
       112       110       113       114       112       110       113       115
       112       110       113       116       113       116       119       120
       113       116       119       121       113       116       119       122
       114       113       116       117       114       113       116       118
       114       113       116       119       115       113       116       117
       115       113       116       118       115       113       116       119
       116       119       122       123       116       119       122       124
       116       119       122       125       117       116       119       120
       117       116       119       121       117       116       119       122
       118       116       119       120       118       116       119       121
       118       116       119       122       119       122       125       126
       119       122       125       127       119       122       125       128
       120       119       122       123       120       119       122       124
       120       119       122       125       121       119       122       123
       121       119       122       124       121       119       122       125
       122       125       128       129       122       125       128       130
       122       125       128       131       123       122       125       126
       123       122       125       127       123       122       125       128
       124       122       125       126       124       122       125       127
       124       122       125       128       125       128       131       132
       125       128       131       133       125       128       131       134
       126       125       128       129       126       125       128       130
       126       125       128       131       127       125       128       129
       127       125       128       130       127       125       128       131
       129       128       131       132       129       128       131       133
       129       128       131       134       130       128       131       132
       130       128       131       133       130       128       131       134
       135       136       151       152       135       136       151       153
       135       136       151       157       136       135       139       140
       136       135       139       141       136       135       139       142
       136       135       143       144       136       135       143       145
       136       135       143       146       136       135       147       148
       136       135       147       149       136       135       147       150
       136       151       157       154       137       136       135       139
       137       136       135       143       137       136       135       147
       137       136       151       152       137       136       151       153
       137       136       151       157       138       136       135       139
       138       136       135       143       138       136       135       147
       138       136       151       152       138       136       151       153
       138       136       151       157       139       135       136       151
       139       135       143       144       139       135       143       145
       139       135       143       146       139       135       147       148
       139       135       147       149       139       135       147       150
       140       139       135       143       140       139       135       147
       141       139       135       143       141       139       135       147
       142       139       135       143       142       139       135       147
       143       135       136       151       143       135       147       148
       143       135       147       149       143       135       147       150
       144       143       135       147       145       143       135       147
       146       143       135       147       147       135       136       151
       151       157       154       155       151       157       154       156
       151       157       154       158       152       151       157       154
       153       151       157       154       154       158       159       160
       154       158       159       161       154       158       159       162
       155       154       158       159       156       154       158       159
       157       154       158       159       158       159       162       163
       158       159       162       164       158       159       162       170
       159       162       164       165       159       162       170       171
       159       162       170       172       159       162       170       173
       160       159       162       163       160       159       162       164
       160       159       162       170       161       159       162       163
       161       159       162       164       161       159       162       170
       162       164       165       166       162       164       165       167
       162       170       173       174       163       162       164       165
       163       162       170       171       163       162       170       172
       163       162       170       173       164       162       170       171
       164       162       170       172       164       162       170       173
       164       165       167       168       164       165       167       169
       164       165       167       179       165       164       162       170
       165       167       179       180       165       167       179       181
       165       167       179       182       166       165       167       168
       166       165       167       169       166       165       167       179
       167       179       182       183       167       179       182       184
       167       179       182       185       168       167       179       180
       168       167       179       181       168       167       179       182
       169       167       179       180       169       167       179       181
       169       167       179       182       170       173       174       175
       170       173       174       176       171       170       173       174
       172       170       173       174       173       174       176       177
       173       174       176       178       173       174       176       226
       174       176       226       227       174       176       226       228
       174       176       226       229       175       174       176       177
       175       174       176       178       175       174       176       226
       176       226       229       230       176       226       229       231
       176       226       229       232       177       176       226       227
       177       176       226       228       177       176       226       229
       178       176       226       227       178       176       226       228
       178       176       226       229       179       182       185       186
       179       182       185       187       179       182       185       188
       180       179       182       183       180       179       182       184
       180       179       182       185       181       179       182       183
       181       179       182       184       181       179       182       185
       182       185       188       189       182       185       188       190
       182       185       188       191       183       182       185       186
       183       182       185       187       183       182       185       188
       184       182       185       186       184       182       185       187
       184       182       185       188       185       188       191       192
       185       188       191       193       185       188       191       194
       186       185       188       189       186       185       188       190
       186       185       188       191       187       185       188       189
       187       185       188       190       187       185       188       191
       188       191       194       195       188       191       194       196
       188       191       194       197       189       188       191       192
       189       188       191       193       189       188       191       194
       190       188       191       192       190       188       191       193
       190       188       191       194       191       194       197       198
       191       194       197       199       192       191       194       195
       192       191       194       196       192       191       194       197
       193       191       194       195       193       191       194       196
       193       191       194       197       194       197       199       200
       194       197       199       201       195       194       197       198
       195       194       197       199       196       194       197       198
       196       194       197       199       197       199       201       202
       197       199       201       203       197       199       201       204
       198       197       199       200       198       197       199       201
       199       201       204       205       199       201       204       206
       199       201       204       207       200       199       201       202
       200       199       201       203       200       199       201       204
       201       204       207       208       201       204       207       209
       201       204       207       210       202       201       204       205
       202       201       204       206       202       201       204       207
       203       201       204       205       203       201       204       206
       203       201       204       207       204       207       210       211
       204       207       210       212       204       207       210       213
       205       204       207       208       205       204       207       209
       205       204       207       210       206       204       207       208
       206       204       207       209       206       204       207       210
       207       210       213       214       207       210       213       215
       207       210       213       216       208       207       210       211
       208       207       210       212       208       207       210       213
       209       207       210       211       209       207       210       212
       209       207       210       213       210       213       216       217
       210       213       216       218       210       213       216       219
       211       210       213       214       211       210       213       215
       211       210       213       216       212       210       213       214
       212       210       213       215       212       210       213       216
       213       216       219       220       213       216       219       221
       213       216       219       222       214       213       216       217
       214       213       216       218       214       213       216       219
       215       213       216       217       215       213       216       218
       215       213       216       219       216       219       222       223
       216       219       222       224       216       219       222       225
       217       216       219       220       217       216       219       221
       217       216       219       222       218       216       219       220
       218       216       219       221       218       216       219       222
       220       219       222       223       220       219       222       224
       220       219       222       225       221       219       222       223
       221       219       222       224       221       219       222       225
       226       229       232       233       226       229       232       234
       226       229       232       235       227       226       229       230
       227       226       229       231       227       226       229       232
       228       226       229       230       228       226       229       231
       228       226       229       232       229       232       235       236
       229       232       235       237       229       232       235       238
       230       229       232       233       230       229       232       234
       230       229       232       235       231       229       232       233
       231       229       232       234       231       229       232       235
       232       235       238       239       232       235       238       240
       232       235       238       241       233       232       235       236
       233       232       235       237       233       232       235       238
       234       232       235       236       234       232       235       237
       234       232       235       238       235       238       241       242
       235       238       241       243       235       238       241       244
       236       235       238       239       236       235       238       240
       236       235       238       241       237       235       238       239
       237       235       238       240       237       235       238       241
       238       241       244       245       238       241       244       246
       238       241       244       247       239       238       241       242
       239       238       241       243       239       238       241       244
       240       238       241       242       240       238       241       243
       240       238       241       244       241       244       247       248
       241       244       247       249       241       244       247       250
       242       241       244       245       242       241       244       246
       242       241       244       247       243       241       244       245
       243       241       244       246       243       241       244       247
       244       247       250       251       244       247       250       252
       244       247       250       253       245       244       247       248
       245       244       247       249       245       244       247       250
       246       244       247       248       246       244       247       249
       246       244       247       250       247       250       253       254
       247       250       253       255       247       250       253       256
       248       247       250       251       248       247       250       252
       248       247       250       253       249       247       250       251
       249       247       250       252       249       247       250       253
       250       253       256       257       250       253       256       258
       250       253       256       259       251       250       253       254
       251       250       253       255       251       250       253       256
       252       250       253       254       252       250       253       255
       252       250       253       256       253       256       259       260
       253       256       259       261       253       256       259       262
       254       253       256       257       254       253       256       258
       254       253       256       259       255       253       256       257
       255       253       256       258       255       253       256       259
       256       259       262       263       256       259       262       264
       256       259       262       265       257       256       259       260
       257       256       259       261       257       256       259       262
       258       256       259       260       258       256       259       261
       258       256       259       262       259       262       265       266
       259       262       265       267       259       262       265       268
       260       259       262       263       260       259       262       264
       260       259       262       265       261       259       262       263
       261       259       262       264       261       259       262       265
       263       262       265       266       263       262       265       267
       263       262       265       268       264       262       265       266
       264       262       265       267       264       262       265       268
       269       270       285       286       269       270       285       287
       269       270       285       291       270       269       273       274
       270       269       273       275       270       269       273       276
       270       269       277       278       270       269       277       279
       270       269       277       280       270       269       281       282
       270       269       281       283       270       269       281       284
       270       285       291       288       271       270       269       273
       271       270       269       277       271       270       269       281
       271       270       285       286       271       270       285       287
       271       270       285       291       272       270       269       273
       272       270       269       277       272       270       269       281
       272       270       285       286       272       270       285       287
       272       270       285       291       273       269       270       285
       273       269       277       278       273       269       277       279
       273       269       277       280       273       269       281       282
       273       269       281       283       273       269       281       284
       274       273       269       277       274       273       269       281
       275       273       269       277       275       273       269       281
       276       273       269       277       276       273       269       281
       277       269       270       285       277       269       281       282
       277       269       281       283       277       269       281       284
       278       277       269       281       279       277       269       281
       280       277       269       281       281       269       270       285
       285       291       288       289       285       291       288       290
       285       291       288       292       286       285       291       288
       287       285       291       288       288       292       293       294
       288       292       293       295       288       292       293       296
       289       288       292       293       290       288       292       293
       291       288       292       293       292       293       296       297
       292       293       296       298       292       293       296       304
       293       296       298       299       293       296       304       305
       293       296       304       306       293       296       304       307
       294       293       296       297       294       293       296       298
       294       293       296       304       295       293       296       297
       295       293       296       298       295       293       296       304
       296       298       299       300       296       298       299       301
       296       304       307       308       297       296       298       299
       297       296       304       305       297       296       304       306
       297       296       304       307       298       296       304       305
       298       296       304       306       298       296       304       307
       298       299       301       302       298       299       301       303
       298       299       301       313       299       298       296       304
       299       301       313       314       299       301       313       315
       299       301       313       316       300       299       301       302
       300       299       301       303       300       299       301       313
       301       313       316       317       301       313       316       318
       301       313       316       319       302       301       313       314
       302       301       313       315       302       301       313       316
       303       301       313       314       303       301       313       315
       303       301       313       316       304       307       308       309
       304       307       308       310       305       304       307       308
       306       304       307       308       307       308       310       311
       307       308       310       312       307       308       310       360
       308       310       360       361       308       310       360       362
       308       310       360       363       309       308       310       311
       309       308       310       312       309       308       310       360
       310       360       363       364       310       360       363       365
       310       360       363       366       311       310       360       361
       311       310       360       362       311       310       360       363
       312       310       360       361       312       310       360       362
       312       310       360       363       313       316       319       320
       313       316       319       321       313       316       319       322
       314       313       316       317       314       313       316       318
       314       313       316       319       315       313       316       317
       315       313       316       318       315       313       316       319
       316       319       322       323       316       319       322       324
       316       319       322       325       317       316       319       320
       317       316       319       321       317       316       319       322
       318       316       319       320       318       316       319       321
       318       316       319       322       319       322       325       326
       319       322       325       327       319       322       325       328
       320       319       322       323       320       319       322       324
       320       319       322       325       321       319       322       323
       321       319       322       324       321       319       322       325
       322       325       328       329       322       325       328       330
       322       325       328       331       323       322       325       326
       323       322       325       327       323       322       325       328
       324       322       325       326       324       322       325       327
       324       322       325       328       325       328       331       332
       325       328       331       333       326       325       328       329
       326       325       328       330       326       325       328       331
       327       325       328       329       327       325       328       330
       327       325       328       331       328       331       333       334
       328       331       333       335       329       328       331       332
       329       328       331       333       330       328       331       332
       330       328       331       333       331       333       335       336
       331       333       335       337       331       333       335       338
       332       331       333       334       332       331       333       335
       333       335       338       339       333       335       338       340
       333       335       338       341       334       333       335       336
       334       333       335       337       334       333       335       338
       335       338       341       342       335       338       341       343
       335       338       341       344       336       335       338       339
       336       335       338       340       336       335       338       341
       337       335       338       339       337       335       338       340
       337       335       338       341       338       341       344       345
       338       341       344       346       338       341       344       347
       339       338       341       342       339       338       341       343
       339       338       341       344       340       338       341       342
       340       338       341       343       340       338       341       344
       341       344       347       348       341       344       347       349
       341       344       347       350       342       341       344       345
       342       341       344       346       342       341       344       347
       343       341       344       345       343       341       344       346
       343       341       344       347       344       347       350       351
       344       347       350       352       344       347       350       353
       345       344       347       348       345       344       347       349
       345       344       347       350       346       344       347       348
       346       344       347       349       346       344       347       350
       347       350       353       354       347       350       353       355
       347       350       353       356       348       347       350       351
       348       347       350       352       348       347       350       353
       349       347       350       351       349       347       350       352
       349       347       350       353       350       353       356       357
       350       353       356       358       350       353       356       359
       351       350       353       354       351       350       353       355
       351       350       353       356       352       350       353       354
       352       350       353       355       352       350       353       356
       354       353       356       357       354       353       356       358
       354       353       356       359       355       353       356       357
       355       353       356       358       355       353       356       359
       360       363       366       367       360       363       366       368
       360       363       366       369       361       360       363       364
       361       360       363       365       361       360       363       366
       362       360       363       364       362       360       363       365
       362       360       363       366       363       366       369       370
       363       366       369       371       363       366       369       372
       364       363       366       367       364       363       366       368
       364       363       366       369       365       363       366       367
       365       363       366       368       365       363       366       369
       366       369       372       373       366       369       372       374
       366       369       372       375       367       366       369       370
       367       366       369       371       367       366       369       372
       368       366       369       370       368       366       369       371
       368       366       369       372       369       372       375       376
       369       372       375       377       369       372       375       378
       370       369       372       373       370       369       372       374
       370       369       372       375       371       369       372       373
       371       369       372       374       371       369       372       375
       372       375       378       379       372       375       378       380
       372       375       378       381       373       372       375       376
       373       372       375       377       373       372       375       378
       374       372       375       376       374       372       375       377
       374       372       375       378       375       378       381       382
       375       378       381       383       375       378       381       384
       376       375       378       379       376       375       378       380
       376       375       378       381       377       375       378       379
       377       375       378       380       377       375       378       381
       378       381       384       385       378       381       384       386
       378       381       384       387       379       378       381       382
       379       378       381       383       379       378       381       384
       380       378       381       382       380       378       381       383
       380       378       381       384       381       384       387       388
       381       384       387       389       381       384       387       390
       382       381       384       385       382       381       384       386
       382       381       384       387       383       381       384       385
       383       381       384       386       383       381       384       387
       384       387       390       391       384       387       390       392
       384       387       390       393       385       384       387       388
       385       384       387       389       385       384       387       390
       386       384       387       388       386       384       387       389
       386       384       387       390       387       390       393       394
       387       390       393       395       387       390       393       396
       388       387       390       391       388       387       390       392
       388       387       390       393       389       387       390       391
       389       387       390       392       389       387       390       393
       390       393       396       397       390       393       396       398
       390       393       396       399       391       390       393       394
       391       390       393       395       391       390       393       396
       392       390       393       394       392       390       393       395
       392       390       393       396       393       396       399       400
       393       396       399       401       393       396       399       402
       394       393       396       397       394       393       396       398
       394       393       396       399       395       393       396       397
       395       393       396       398       395       393       396       399
       397       396       399       400       397       396       399       401
       397       396       399       402       398       396       399       400
       398       396       399       401       398       396       399       402
       403       404       419       420       403       404       419       421
       403       404       419       425       404       403       407       408
       404       403       407       409       404       403       407       410
       404       403       411       412       404       403       411       413
       404       403       411       414       404       403       415       416
       404       403       415       417       404       403       415       418
       404       419       425       422       405       404       403       407
       405       404       403       411       405       404       403       415
       405       404       419       420       405       404       419       421
       405       404       419       425       406       404       403       407
       406       404       403       411       406       404       403       415
       406       404       419       420       406       404       419       421
       406       404       419       425       407       403       404       419
       407       403       411       412       407       403       411       413
       407       403       411       414       407       403       415       416
       407       403       415       417       407       403       415       418
       408       407       403       411       408       407       403       415
       409       407       403       411       409       407       403       415
       410       407       403       411       410       407       403       415
       411       403       404       419       411       403       415       416
       411       403       415       417       411       403       415       418
       412       411       403       415       413       411       403       415
       414       411       403       415       415       403       404       419
       419       425       422       423       419       425       422       424
       419       425       422       426       420       419       425       422
       421       419       425       422       422       426       427       428
       422       426       427       429       422       426       427       430
       423       422       426       427       424       422       426       427
       425       422       426       427       426       427       430       431
       426       427       430       432       426       427       430       438
       427       430       432       433       427       430       438       439
       427       430       438       440       427       430       438       441
       428       427       430       431       428       427       430       432
       428       427       430       438       429       427       430       431
       429       427       430       432       429       427       430       438
       430       432       433       434       430       432       433       435
       430       438       441       442       431       430       432       433
       431       430       438       439       431       430       438       440
       431       430       438       441       432       430       438       439
       432       430       438       440       432       430       438       441
       432       433       435       436       432       433       435       437
       432       433       435       447       433       432       430       438
       433       435       447       448       433       435       447       449
       433       435       447       450       434       433       435       436
       434       433       435       437       434       433       435       447
       435       447       450       451       435       447       450       452
       435       447       450       453       436       435       447       448
       436       435       447       449       436       435       447       450
       437       435       447       448       437       435       447       449
       437       435       447       450       438       441       442       443
       438       441       442       444       439       438       441       442
       440       438       441       442       441       442       444       445
       441       442       444       446       441       442       444       494
       442       444       494       495       442       444       494       496
       442       444       494       497       443       442       444       445
       443       442       444       446       443       442       444       494
       444       494       497       498       444       494       497       499
       444       494       497       500       445       444       494       495
       445       444       494       496       445       444       494       497
       446       444       494       495       446       444       494       496
       446       444       494       497       447       450       453       454
       447       450       453       455       447       450       453       456
       448       447       450       451       448       447       450       452
       448       447       450       453       449       447       450       451
       449       447       450       452       449       447       450       453
       450       453       456       457       450       453       456       458
       450       453       456       459       451       450       453       454
       451       450       453       455       451       450       453       456
       452       450       453       454       452       450       453       455
       452       450       453       456       453       456       459       460
       453       456       459       461       453       456       459       462
       454       453       456       457       454       453       456       458
       454       453       456       459       455       453       456       457
       455       453       456       458       455       453       456       459
       456       459       462       463       456       459       462       464
       456       459       462       465       457       456       459       460
       457       456       459       461       457       456       459       462
       458       456       459       460       458       456       459       461
       458       456       459       462       459       462       465       466
       459       462       465       467       460       459       462       463
       460       459       462       464       460       459       462       465
       461       459       462       463       461       459       462       464
       461       459       462       465       462       465       467       468
       462       465       467       469       463       462       465       466
       463       462       465       467       464       462       465       466
       464       462       465       467       465       467       469       470
       465       467       469       471       465       467       469       472
       466       465       467       468       466       465       467       469
       467       469       472       473       467       469       472       474
       467       469       472       475       468       467       469       470
       468       467       469       471       468       467       469       472
       469       472       475       476       469       472       475       477
       469       472       475       478       470       469       472       473
       470       469       472       474       470       469       472       475
       471       469       472       473       471       469       472       474
       471       469       472       475       472       475       478       479
       472       475       478       480       472       475       478       481
       473       472       475       476       473       472       475       477
       473       472       475       478       474       472       475       476
       474       472       475       477       474       472       475       478
       475       478       481       482       475       478       481       483
       475       478       481       484       476       475       478       479
       476       475       478       480       476       475       478       481
       477       475       478       479       477       475       478       480
       477       475       478       481       478       481       484       485
       478       481       484       486       478       481       484       487
       479       478       481       482       479       478       481       483
       479       478       481       484       480       478       481       482
       480       478       481       483       480       478       481       484
       481       484       487       488       481       484       487       489
       481       484       487       490       482       481       484       485
       482       481       484       486       482       481       484       487
       483       481       484       485       483       481       484       486
       483       481       484       487       484       487       490       491
       484       487       490       492       484       487       490       493
       485       484       487       488       485       484       487       489
       485       484       487       490       486       484       487       488
       486       484       487       489       486       484       487       490
       488       487       490       491       488       487       490       492
       488       487       490       493       489       487       490       491
       489       487       490       492       489       487       490       493
       494       497       500       501       494       497       500       502
       494       497       500       503       495       494       497       498
       495       494       497       499       495       494       497       500
       496       494       497       498       496       494       497       499
       496       494       497       500       497       500       503       504
       497       500       503       505       497       500       503       506
       498       497       500       501       498       497       500       502
       498       497       500       503       499       497       500       501
       499       497       500       502       499       497       500       503
       500       503       506       507       500       503       506       508
       500       503       506       509       501       500       503       504
       501       500       503       505       501       500       503       506
       502       500       503       504       502       500       503       505
       502       500       503       506       503       506       509       510
       503       506       509       511       503       506       509       512
       504       503       506       507       504       503       506       508
       504       503       506       509       505       503       506       507
       505       503       506       508       505       503       506       509
       506       509       512       513       506       509       512       514
       506       509       512       515       507       506       509       510
       507       506       509       511       507       506       509       512
       508       506       509       510       508       506       509       511
       508       506       509       512       509       512       515       516
       509       512       515       517       509       512       515       518
       510       509       512       513       510       509       512       514
       510       509       512       515       511       509       512       513
       511       509       512       514       511       509       512       515
       512       515       518       519       512       515       518       520
       512       515       518       521       513       512       515       516
       513       512       515       517       513       512       515       518
       514       512       515       516       514       512       515       517
       514       512       515       518       515       518       521       522
       515       518       521       523       515       518       521       524
       516       515       518       519       516       515       518       520
       516       515       518       521       517       515       518       519
       517       515       518       520       517       515       518       521
       518       521       524       525       518       521       524       526
       518       521       524       527       519       518       521       522
       519       518       521       523       519       518       521       524
       520       518       521       522       520       518       521       523
       520       518       521       524       521       524       527       528
       521       524       527       529       521       524       527       530
       522       521       524       525       522       521       524       526
       522       521       524       527       523       521       524       525
       523       521       524       526       523       521       524       527
       524       527       530       531       524       527       530       532
       524       527       530       533       525       524       527       528
       525       524       527       529       525       524       527       530
       526       524       527       528       526       524       527       529
       526       524       527       530       527       530       533       534
       527       530       533       535       527       530       533       536
       528       527       530       531       528       527       530       532
       528       527       530       533       529       527       530       531
       529       527       530       532       529       527       530       533
       531       530       533       534       531       530       533       535
       531       530       533       536       532       530       533       534
       532       530       533       535       532       530       533       536
       537       538       553       554       537       538       553       555
       537       538       553       559       538       537       541       542
       538       537       541       543       538       537       541       544
       538       537       545       546       538       537       545       547
       538       537       545       548       538       537       549       550
       538       537       549       551       538       537       549       552
       538       553       559       556       539       538       537       541
       539       538       537       545       539       538       537       549
       539       538       553       554       539       538       553       555
       539       538       553       559       540       538       537       541
       540       538       537       545       540       538       537       549
       540       538       553       554       540       538       553       555
       540       538       553       559       541       537       538       553
       541       537       545       546       541       537       545       547
       541       537       545       548       541       537       549       550
       541       537       549       551       541       537       549       552
       542       541       537       545       542       541       537       549
       543       541       537       545       543       541       537       549
       544       541       537       545       544       541       537       549
       545       537       538       553       545       537       549       550
       545       537       549       551       545       537       549       552
       546       545       537       549       547       545       537       549
       548       545       537       549       549       537       538       553
       553       559       556       557       553       559       556       558
       553       559       556       560       554       553       559       556
       555       553       559       556       556       560       561       562
       556       560       561       563       556       560       561       564
       557       556       560       561       558       556       560       561
       559       556       560       561       560       561       564       565
       560       561       564       566       560       561       564       572
       561       564       566       567       561       564       572       573
       561       564       572       574       561       564       572       575
       562       561       564       565       562       561       564       566
       562       561       564       572       563       561       564       565
       563       561       564       566       563       561       564       572
       564       566       567       568       564       566       567       569
       564       572       575       576       565       564       566       567
       565       564       572       573       565       564       572       574
       565       564       572       575       566       564       572       573
       566       564       572       574       566       564       572       575
       566       567       569       570       566       567       569       571
       566       567       569       581       567       566       564       572
       567       569       581       582       567       569       581       583
       567       569       581       584       568       567       569       570
       568       567       569       571       568       567       569       581
       569       581       584       585       569       581       584       586
       569       581       584       587       570       569       581       582
       570       569       581       583       570       569       581       584
       571       569       581       582       571       569       581       583
       571       569       581       584       572       575       576       577
       572       575       576       578       573       572       575       576
       574       572       575       576       575       576       578       579
       575       576       578       580       575       576       578       628
       576       578       628       629       576       578       628       630
       576       578       628       631       577       576       578       579
       577       576       578       580       577       576       578       628
       578       628       631       632       578       628       631       633
       578       628       631       634       579       578       628       629
       579       578       628       630       579       578       628       631
       580       578       628       629       580       578       628       630
       580       578       628       631       581       584       587       588
       581       584       587       589       581       584       587       590
       582       581       584       585       582       581       584       586
       582       581       584       587       583       581       584       585
       583       581       584       586       583       581       584       587
       584       587       590       591       584       587       590       592
       584       587       590       593       585       584       587       588
       585       584       587       589       585       584       587       590
       586       584       587       588       586       584       587       589
       586       584       587       590       587       590       593       594
       587       590       593       595       587       590       593       596
       588       587       590       591       588       587       590       592
       588       587       590       593       589       587       590       591
       589       587       590       592       589       587       590       593
       590       593       596       597       590       593       596       598
       590       593       596       599       591       590       593       594
       591       590       593       595       591       590       593       596
       592       590       593       594       592       590       593       595
       592       590       593       596       593       596       599       600
       593       596       599       601       594       593       596       597
       594       593       596       598       594       593       596       599
       595       593       596       597       595       593       596       598
       595       593       596       599       596       599       601       602
       596       599       601       603       597       596       599       600
       597       596       599       601       598       596       599       600
       598       596       599       601       599       601       603       604
       599       601       603       605       599       601       603       606
       600       599       601       602       600       599       601       603
       601       603       606       607       601       603       606       608
       601       603       606       609       602       601       603       604
       602       601       603       605       602       601       603       606
       603       606       609       610       603       606       609       611
       603       606       609       612       604       603       606       607
       604       603       606       608       604       603       606       609
       605       603       606       607       605       603       606       608
       605       603       606       609       606       609       612       613
       606       609       612       614       606       609       612       615
       607       606       609       610       607       606       609       611
       607       606       609       612       608       606       609       610
       608       606       609       611       608       606       609       612
       609       612       615       616       609       612       615       617
       609       612       615       618       610       609       612       613
       610       609       612       614       610       609       612       615
       611       609       612       613       611       609       612       614
       611       609       612       615       612       615       618       619
       612       615       618       620       612       615       618       621
       613       612       615       616       613       612       615       617
       613       612       615       618       614       612       615       616
       614       612       615       617       614       612       615       618
       615       618       621       622       615       618       621       623
       615       618       621       624       616       615       618       619
       616       615       618       620       616       615       618       621
       617       615       618       619       617       615       618       620
       617       615       618       621       618       621       624       625
       618       621       624       626       618       621       624       627
       619       618       621       622       619       618       621       623
       619       618       621       624       620       618       621       622
       620       618       621       623       620       618       621       624
       622       621       624       625       622       621       624       626
       622       621       624       627       623       621       624       625
       623       621       624       626       623       621       624       627
       628       631       634       635       628       631       634       636
       628       631       634       637       629       628       631       632
       629       628       631       633       629       628       631       634
       630       628       631       632       630       628       631       633
       630       628       631       634       631       634       637       638
       631       634       637       639       631       634       637       640
       632       631       634       635       632       631       634       636
       632       631       634       637       633       631       634       635
       633       631       634       636       633       631       634       637
       634       637       640       641       634       637       640       642
       634       637       640       643       635       634       637       638
       635       634       637       639       635       634       637       640
       636       634       637       638       636       634       637       639
       636       634       637       640       637       640       643       644
       637       640       643       645       637       640       643       646
       638       637       640       641       638       637       640       642
       638       637       640       643       639       637       640       641
       639       637       640       642       639       637       640       643
       640       643       646       647       640       643       646       648
       640       643       646       649       641       640       643       644
       641       640       643       645       641       640       643       646
       642       640       643       644       642       640       643       645
       642       640       643       646       643       646       649       650
       643       646       649       651       643       646       649       652
       644       643       646       647       644       643       646       648
       644       643       646       649       645       643       646       647
       645       643       646       648       645       643       646       649
       646       649       652       653       646       649       652       654
       646       649       652       655       647       646       649       650
       647       646       649       651       647       646       649       652
       648       646       649       650       648       646       649       651
       648       646       649       652       649       652       655       656
       649       652       655       657       649       652       655       658
       650       649       652       653       650       649       652       654
       650       649       652       655       651       649       652       653
       651       649       652       654       651       649       652       655
       652       655       658       659       652       655       658       660
       652       655       658       661       653       652       655       656
       653       652       655       657       653       652       655       658
       654       652       655       656       654       652       655       657
       654       652       655       658       655       658       661       662
       655       658       661       663       655       658       661       664
       656       655       658       659       656       655       658       660
       656       655       658       661       657       655       658       659
       657       655       658       660       657       655       658       661
       658       661       664       665       658       661       664       666
       658       661       664       667       659       658       661       662
       659       658       661       663       659       658       661       664
       660       658       661       662       660       658       661       663
       660       658       661       664       661       664       667       668
       661       664       667       669       661       664       667       670
       662       661       664       665       662       661       664       666
       662       661       664       667       663       661       664       665
       663       661       664       666       663       661       664       667
       665       664       667       668       665       664       667       669
       665       664       667       670       666       664       667       668
       666       664       667       669       666       664       667       670
       671       672       687       688       671       672       687       689
       671       672       687       693       672       671       675       676
       672       671       675       677       672       671       675       678
       672       671       679       680       672       671       679       681
       672       671       679       682       672       671       683       684
       672       671       683       685       672       671       683       686
       672       687       693       690       673       672       671       675
       673       672       671       679       673       672       671       683
       673       672       687       688       673       672       687       689
       673       672       687       693       674       672       671       675
       674       672       671       679       674       672       671       683
       674       672       687       688       674       672       687       689
       674       672       687       693       675       671       672       687
       675       671       679       680       675       671       679       681
       675       671       679       682       675       671       683       684
       675       671       683       685       675       671       683       686
       676       675       671       679       676       675       671       683
       677       675       671       679       677       675       671       683
       678       675       671       679       678       675       671       683
       679       671       672       687       679       671       683       684
       679       671       683       685       679       671       683       686
       680       679       671       683       681       679       671       683
       682       679       671       683       683       671       672       687
       687       693       690       691       687       693       690       692
       687       693       690       694       688       687       693       690
       689       687       693       690       690       694       695       696
       690       694       695       697       690       694       695       698
       691       690       694       695       692       690       694       695
       693       690       694       695       694       695       698       699
       694       695       698       700       694       695       698       706
       695       698       700       701       695       698       706       707
       695       698       706       708       695       698       706       709
       696       695       698       699       696       695       698       700
       696       695       698       706       697       695       698       699
       697       695       698       700       697       695       698       706
       698       700       701       702       698       700       701       703
       698       706       709       710       699       698       700       701
       699       698       706       707       699       698       706       708
       699       698       706       709       700       698       706       707
       700       698       706       708       700       698       706       709
       700       701       703       704       700       701       703       705
       700       701       703       715       701       700       698       706
       701       703       715       716       701       703       715       717
       701       703       715       718       702       701       703       704
       702       701       703       705       702       701       703       715
       703       715       718       719       703       715       718       720
       703       715       718       721       704       703       715       716
       704       703       715       717       704       703       715       718
       705       703       715       716       705       703       715       717
       705       703       715       718       706       709       710       711
       706       709       710       712       707       706       709       710
       708       706       709       710       709       710       712       713
       709       710       712       714       709       710       712       762
       710       712       762       763       710       712       762       764
       710       712       762       765       711       710       712       713
       711       710       712       714       711       710       712       762
       712       762       765       766       712       762       765       767
       712       762       765       768       713       712       762       763
       713       712       762       764       713       712       762       765
       714       712       762       763       714       712       762       764
       714       712       762       765       715       718       721       722
       715       718       721       723       715       718       721       724
       716       715       718       719       716       715       718       720
       716       715       718       721       717       715       718       719
       717       715       718       720       717       715       718       721
       718       721       724       725       718       721       724       726
       718       721       724       727       719       718       721       722
       719       718       721       723       719       718       721       724
       720       718       721       722       720       718       721       723
       720       718       721       724       721       724       727       728
       721       724       727       729       721       724       727       730
       722       721       724       725       722       721       724       726
       722       721       724       727       723       721       724       725
       723       721       724       726       723       721       724       727
       724       727       730       731       724       727       730       732
       724       727       730       733       725       724       727       728
       725       724       727       729       725       724       727       730
       726       724       727       728       726       724       727       729
       726       724       727       730       727       730       733       734
       727       730       733       735       728       727       730       731
       728       727       730       732       728       727       730       733
       729       727       730       731       729       727       730       732
       729       727       730       733       730       733       735       736
       730       733       735       737       731       730       733       734
       731       730       733       735       732       730       733       734
       732       730       733       735       733       735       737       738
       733       735       737       739       733       735       737       740
       734       733       735       736       734       733       735       737
       735       737       740       741       735       737       740       742
       735       737       740       743       736       735       737       738
       736       735       737       739       736       735       737       740
       737       740       743       744       737       740       743       745
       737       740       743       746       738       737       740       741
       738       737       740       742       738       737       740       743
       739       737       740       741       739       737       740       742
       739       737       740       743       740       743       746       747
       740       743       746       748       740       743       746       749
       741       740       743       744       741       740       743       745
       741       740       743       746       742       740       743       744
       742       740       743       745       742       740       743       746
       743       746       749       750       743       746       749       751
       743       746       749       752       744       743       746       747
       744       743       746       748       744       743       746       749
       745       743       746       747       745       743       746       748
       745       743       746       749       746       749       752       753
       746       749       752       754       746       749       752       755
       747       746       749       750       747       746       749       751
       747       746       749       752       748       746       749       750
       748       746       749       751       748       746       749       752
       749       752       755       756       749       752       755       757
       749       752       755       758       750       749       752       753
       750       749       752       754       750       749       752       755
       751       749       752       753       751       749       752       754
       751       749       752       755       752       755       758       759
       752       755       758       760       752       755       758       761
       753       752       755       756       753       752       755       757
       753       752       755       758       754       752       755       756
       754       752       755       757       754       752       755       758
       756       755       758       759       756       755       758       760
       756       755       758       761       757       755       758       759
       757       755       758       760       757       755       758       761
       762       765       768       769       762       765       768       770
       762       765       768       771       763       762       765       766
       763       762       765       767       763       762       765       768
       764       762       765       766       764       762       765       767
       764       762       765       768       765       768       771       772
       765       768       771       773       765       768       771       774
       766       765       768       769       766       765       768       770
       766       765       768       771       767       765       768       769
       767       765       768       770       767       765       768       771
       768       771       774       775       768       771       774       776
       768       771       774       777       769       768       771       772
       769       768       771       773       769       768       771       774
       770       768       771       772       770       768       771       773
       770       768       771       774       771       774       777       778
       771       774       777       779       771       774       777       780
       772       771       774       775       772       771       774       776
       772       771       774       777       773       771       774       775
       773       771       774       776       773       771       774       777
       774       777       780       781       774       777       780       782
       774       777       780       783       775       774       777       778
       775       774       777       779       775       774       777       780
       776       774       777       778       776       774       777       779
       776       774       777       780       777       780       783       784
       777       780       783       785       777       780       783       786
       778       777       780       781       778       777       780       782
       778       777       780       783       779       777       780       781
       779       777       780       782       779       777       780       783
       780       783       786       787       780       783       786       788
       780       783       786       789       781       780       783       784
       781       780       783       785       781       780       783       786
       782       780       783       784       782       780       783       785
       782       780       783       786       783       786       789       790
       783       786       789       791       783       786       789       792
       784       783       786       787       784       783       786       788
       784       783       786       789       785       783       786       787
       785       783       786       788       785       783       786       789
       786       789       792       793       786       789       792       794
       786       789       792       795       787       786       789       790
       787       786       789       791       787       786       789       792
       788       786       789       790       788       786       789       791
       788       786       789       792       789       792       795       796
       789       792       795       797       789       792       795       798
       790       789       792       793       790       789       792       794
       790       789       792       795       791       789       792       793
       791       789       792       794       791       789       792       795
       792       795       798       799       792       795       798       800
       792       795       798       801       793       792       795       796
       793       792       795       797       793       792       795       798
       794       792       795       796       794       792       795       797
       794       792       795       798       795       798       801       802
       795       798       801       803       795       798       801       804
       796       795       798       799       796       795       798       800
       796       795       798       801       797       795       798       799
       797       795       798       800       797       795       798       801
       799       798       801       802       799       798       801       803
       799       798       801       804       800       798       801       802
       800       798       801       803       800       798       801       804
       805       806       821       822       805       806       821       823
       805       806       821       827       806       805       809       810
       806       805       809       811       806       805       809       812
       806       805       813       814       806       805       813       815
       806       805       813       816       806       805       817       818
       806       805       817       819       806       805       817       820
       806       821       827       824       807       806       805       809
       807       806       805       813       807       806       805       817
       807       806       821       822       807       806       821       823
       807       806       821       827       808       806       805       809
       808       806       805       813       808       806       805       817
       808       806       821       822       808       806       821       823
       808       806       821       827       809       805       806       821
       809       805       813       814       809       805       813       815
       809       805       813       816       809       805       817       818
       809       805       817       819       809       805       817       820
       810       809       805       813       810       809       805       817
       811       809       805       813       811       809       805       817
       812       809       805       813       812       809       805       817
       813       805       806       821       813       805       817       818
       813       805       817       819       813       805       817       820
       814       813       805       817       815       813       805       817
       816       813       805       817       817       805       806       821
       821       827       824       825       821       827       824       826
       821       827       824       828       822       821       827       824
       823       821       827       824       824       828       829       830
       824       828       829       831       824       828       829       832
       825       824       828       829       826       824       828       829
       827       824       828       829       828       829       832       833
       828       829       832       834       828       829       832       840
       829       832       834       835       829       832       840       841
       829       832       840       842       829       832       840       843
       830       829       832       833       830       829       832       834
       830       829       832       840       831       829       832       833
       831       829       832       834       831       829       832       840
       832       834       835       836       832       834       835       837
       832       840       843       844       833       832       834       835
       833       832       840       841       833       832       840       842
       833       832       840       843       834       832       840       841
       834       832       840       842       834       832       840       843
       834       835       837       838       834       835       837       839
       834       835       837       849       835       834       832       840
       835       837       849       850       835       837       849       851
       835       837       849       852       836       835       837       838
       836       835       837       839       836       835       837       849
       837       849       852       853       837       849       852       854
       837       849       852       855       838       837       849       850
       838       837       849       851       838       837       849       852
       839       837       849       850       839       837       849       851
       839       837       849       852       840       843       844       845
       840       843       844       846       841       840       843       844
       842       840       843       844       843       844       846       847
       843       844       846       848       843       844       846       896
       844       846       896       897       844       846       896       898
       844       846       896       899       845       844       846       847
       845       844       846       848       845       844       846       896
       846       896       899       900       846       896       899       901
       846       896       899       902       847       846       896       897
       847       846       896       898       847       846       896       899
       848       846       896       897       848       846       896       898
       848       846       896       899       849       852       855       856
       849       852       855       857       849       852       855       858
       850       849       852       853       850       849       852       854
       850       849       852       855       851       849       852       853
       851       849       852       854       851       849       852       855
       852       855       858       859       852       855       858       860
       852       855       858       861       853       852       855       856
       853       852       855       857       853       852       855       858
       854       852       855       856       854       852       855       857
       854       852       855       858       855       858       861       862
       855       858       861       863       855       858       861       864
       856       855       858       859       856       855       858       860
       856       855       858       861       857       855       858       859
       857       855       858       860       857       855       858       861
       858       861       864       865       858       861       864       866
       858       861       864       867       859       858       861       862
       859       858       861       863       859       858       861       864
       860       858       861       862       860       858       861       863
       860       858       861       864       861       864       867       868
       861       864       867       869       862       861       864       865
       862       861       864       866       862       861       864       867
       863       861       864       865       863       861       864       866
       863       861       864       867       864       867       869       870
       864       867       869       871       865       864       867       868
       865       864       867       869       866       864       867       868
       866       864       867       869       867       869       871       872
       867       869       871       873       867       869       871       874
       868       867       869       870       868       867       869       871
       869       871       874       875       869       871       874       876
       869       871       874       877       870       869       871       872
       870       869       871       873       870       869       871       874
       871       874       877       878       871       874       877       879
       871       874       877       880       872       871       874       875
       872       871       874       876       872       871       874       877
       873       871       874       875       873       871       874       876
       873       871       874       877       874       877       880       881
       874       877       880       882       874       877       880       883
       875       874       877       878       875       874       877       879
       875       874       877       880       876       874       877       878
       876       874       877       879       876       874       877       880
       877       880       883       884       877       880       883       885
       877       880       883       886       878       877       880       881
       878       877       880       882       878       877       880       883
       879       877       880       881       879       877       880       882
       879       877       880       883       880       883       886       887
       880       883       886       888       880       883       886       889
       881       880       883       884       881       880       883       885
       881       880       883       886       882       880       883       884
       882       880       883       885       882       880       883       886
       883       886       889       890       883       886       889       891
       883       886       889       892       884       883       886       887
       884       883       886       888       884       883       886       889
       885       883       886       887       885       883       886       888
       885       883       886       889       886       889       892       893
       886       889       892       894       886       889       892       895
       887       886       889       890       887       886       889       891
       887       886       889       892       888       886       889       890
       888       886       889       891       888       886       889       892
       890       889       892       893       890       889       892       894
       890       889       892       895       891       889       892       893
       891       889       892       894       891       889       892       895
       896       899       902       903       896       899       902       904
       896       899       902       905       897       896       899       900
       897       896       899       901       897       896       899       902
       898       896       899       900       898       896       899       901
       898       896       899       902       899       902       905       906
       899       902       905       907       899       902       905       908
       900       899       902       903       900       899       902       904
       900       899       902       905       901       899       902       903
       901       899       902       904       901       899       902       905
       902       905       908       909       902       905       908       910
       902       905       908       911       903       902       905       906
       903       902       905       907       903       902       905       908
       904       902       905       906       904       902       905       907
       904       902       905       908       905       908       911       912
       905       908       911       913       905       908       911       914
       906       905       908       909       906       905       908       910
       906       905       908       911       907       905       908       909
       907       905       908       910       907       905       908       911
       908       911       914       915       908       911       914       916
       908       911       914       917       909       908       911       912
       909       908       911       913       909       908       911       914
       910       908       911       912       910       908       911       913
       910       908       911       914       911       914       917       918
       911       914       917       919       911       914       917       920
       912       911       914       915       912       911       914       916
       912       911       914       917       913       911       914       915
       913       911       914       916       913       911       914       917
       914       917       920       921       914       917       920       922
       914       917       920       923       915       914       917       918
       915       914       917       919       915       914       917       920
       916       914       917       918       916       914       917       919
       916       914       917       920       917       920       923       924
       917       920       923       925       917       920       923       926
       918       917       920       921       918       917       920       922
       918       917       920       923       919       917       920       921
       919       917       920       922       919       917       920       923
       920       923       926       927       920       923       926       928
       920       923       926       929       921       920       923       924
       921       920       923       925       921       920       923       926
       922       920       923       924       922       920       923       925
       922       920       923       926       923       926       929       930
       923       926       929       931       923       926       929       932
       924       923       926       927       924       923       926       928
       924       923       926       929       925       923       926       927
       925       923       926       928       925       923       926       929
       926       929       932       933       926       929       932       934
       926       929       932       935       927       926       929       930
       927       926       929       931       927       926       929       932
       928       926       929       930       928       926       929       931
       928       926       929       932       929       932       935       936
       929       932       935       937       929       932       935       938
       930       929       932       933       930       929       932       934
       930       929       932       935       931       929       932       933
       931       929       932       934       931       929       932       935
       933       932       935       936       933       932       935       937
       933       932       935       938       934       932       935       936
       934       932       935       937       934       932       935       938
       939       940       955       956       939       940       955       957
       939       940       955       961       940       939       943       944
       940       939       943       945       940       939       943       946
       940       939       947       948       940       939       947       949
       940       939       947       950       940       939       951       952
       940       939       951       953       940       939       951       954
       940       955       961       958       941       940       939       943
       941       940       939       947       941       940       939       951
       941       940       955       956       941       940       955       957
       941       940       955       961       942       940       939       943
       942       940       939       947       942       940       939       951
       942       940       955       956       942       940       955       957
       942       940       955       961       943       939       940       955
       943       939       947       948       943       939       947       949
       943       939       947       950       943       939       951       952
       943       939       951       953       943       939       951       954
       944       943       939       947       944       943       939       951
       945       943       939       947       945       943       939       951
       946       943       939       947       946       943       939       951
       947       939       940       955       947       939       951       952
       947       939       951       953       947       939       951       954
       948       947       939       951       949       947       939       951
       950       947       939       951       951       939       940       955
       955       961       958       959       955       961       958       960
       955       961       958       962       956       955       961       958
       957       955       961       958       958       962       963       964
       958       962       963       965       958       962       963       966
       959       958       962       963       960       958       962       963
       961       958       962       963       962       963       966       967
       962       963       966       968       962       963       966       974
       963       966       968       969       963       966       974       975
       963       966       974       976       963       966       974       977
       964       963       966       967       964       963       966       968
       964       963       966       974       965       963       966       967
       965       963       966       968       965       963       966       974
       966       968       969       970       966       968       969       971
       966       974       977       978       967       966       968       969
       967       966       974       975       967       966       974       976
       967       966       974       977       968       966       974       975
       968       966       974       976       968       966       974       977
       968       969       971       972       968       969       971       973
       968       969       971       983       969       968       966       974
       969       971       983       984       969       971       983       985
       969       971       983       986       970       969       971       972
       970       969       971       973       970       969       971       983
       971       983       986       987       971       983       986       988
       971       983       986       989       972       971       983       984
       972       971       983       985       972       971       983       986
       973       971       983       984       973       971       983       985
       973       971       983       986       974       977       978       979
       974       977       978       980       975       974       977       978
       976       974       977       978       977       978       980       981
       977       978       980       982       977       978       980      1030
       978       980      1030      1031       978       980      1030      1032
       978       980      1030      1033       979       978       980       981
       979       978       980       982       979       978       980      1030
       980      1030      1033      1034       980      1030      1033      1035
       980      1030      1033      1036       981       980      1030      1031
       981       980      1030      1032       981       980      1030      1033
       982       980      1030      1031       982       980      1030      1032
       982       980      1030      1033       983       986       989       990
       983       986       989       991       983       986       989       992
       984       983       986       987       984       983       986       988
       984       983       986       989       985       983       986       987
       985       983       986       988       985       983       986       989
       986       989       992       993       986       989       992       994
       986       989       992       995       987       986       989       990
       987       986       989       991       987       986       989       992
       988       986       989       990       988       986       989       991
       988       986       989       992       989       992       995       996
       989       992       995       997       989       992       995       998
       990       989       992       993       990       989       992       994
       990       989       992       995       991       989       992       993
       991       989       992       994       991       989       992       995
       992       995       998       999       992       995       998      1000
       992       995       998      1001       993       992       995       996
       993       992       995       997       993       992       995       998
       994       992       995       996       994       992       995       997
       994       992       995       998       995       998      1001      1002
       995       998      1001      1003       996       995       998       999
       996       995       998      1000       996       995       998      1001
       997       995       998       999       997       995       998      1000
       997       995       998      1001       998      1001      1003      1004
       998      1001      1003      1005       999       998      1001      1002
       999       998      1001      1003      1000       998      1001      1002
      1000       998      1001      1003      1001      1003      1005      1006
      1001      1003      1005      1007      1001      1003      1005      1008
      1002      1001      1003      1004      1002      1001      1003      1005
      1003      1005      1008      1009      1003      1005      1008      1010
      1003      1005      1008      1011      1004      1003      1005      1006
      1004      1003      1005      1007      1004      1003      1005      1008
      1005      1008      1011      1012      1005      1008      1011      1013
      1005      1008      1011      1014      1006      1005      1008      1009
      1006      1005      1008      1010      1006      1005      1008      1011
      1007      1005      1008      1009      1007      1005      1008      1010
      1007      1005      1008      1011      1008      1011      1014      1015
      1008      1011      1014      1016      1008      1011      1014      1017
      1009      1008      1011      1012      1009      1008      1011      1013
      1009      1008      1011      1014      1010      1008      1011      1012
      1010      1008      1011      1013      1010      1008      1011      1014
      1011      1014      1017      1018      1011      1014      1017      1019
      1011      1014      1017      1020      1012      1011      1014      1015
      1012      1011      1014      1016      1012      1011      1014      1017
      1013      1011      1014      1015      1013      1011      1014      1016
      1013      1011      1014      1017      1014      1017      1020      1021
      1014      1017      1020      1022      1014      1017      1020      1023
      1015      1014      1017      1018      1015      1014      1017      1019
      1015      1014      1017      1020      1016      1014      1017      1018
      1016      1014      1017      1019      1016      1014      1017      1020
      1017      1020      1023      1024      1017      1020      1023      1025
      1017      1020      1023      1026      1018      1017      1020      1021
      1018      1017      1020      1022      1018      1017      1020      1023
      1019      1017      1020      1021      1019      1017      1020      1022
      1019      1017      1020      1023      1020      1023      1026      1027
      1020      1023      1026      1028      1020      1023      1026      1029
      1021      1020      1023      1024      1021      1020      1023      1025
      1021      1020      1023      1026      1022      1020      1023      1024
      1022      1020      1023      1025      1022      1020      1023      1026
      1024      1023      1026      1027      1024      1023      1026      1028
      1024      1023      1026      1029      1025      1023      1026      1027
      1025      1023      1026      1028      1025      1023      1026      1029
      1030      1033      1036      1037      1030      1033      1036      1038
      1030      1033      1036      1039      1031      1030      1033      1034
      1031      1030      1033      1035      1031      1030      1033      1036
      1032      1030      1033      1034      1032      1030      1033      1035
      1032      1030      1033      1036      1033      1036      1039      1040
      1033      1036      1039      1041      1033      1036      1039      1042
      1034      1033      1036      1037      1034      1033      1036      1038
      1034      1033      1036      1039      1035      1033      1036      1037
      1035      1033      1036      1038      1035      1033      1036      1039
      1036      1039      1042      1043      1036      1039      1042      1044
      1036      1039      1042      1045      1037      1036      1039      1040
      1037      1036      1039      1041      1037      1036      1039      1042
      1038      1036      1039      1040      1038      1036      1039      1041
      1038      1036      1039      1042      1039      1042      1045      1046
      1039      1042      1045      1047      1039      1042      1045      1048
      1040      1039      1042      1043      1040      1039      1042      1044
      1040      1039      1042      1045      1041      1039      1042      1043
      1041      1039      1042      1044      1041      1039      1042      1045
      1042      1045      1048      1049      1042      1045      1048      1050
      1042      1045      1048      1051      1043      1042      1045      1046
      1043      1042      1045      1047      1043      1042      1045      1048
      1044      1042      1045      1046      1044      1042      1045      1047
      1044      1042      1045      1048      1045      1048      1051      1052
      1045      1048      1051      1053      1045      1048      1051      1054
      1046      1045      1048      1049      1046      1045      1048      1050
      1046      1045      1048      1051      1047      1045      1048      1049
      1047      1045      1048      1050      1047      1045      1048      1051
      1048      1051      1054      1055      1048      1051      1054      1056
      1048      1051      1054      1057      1049      1048      1051      1052
      1049      1048      1051      1053      1049      1048      1051      1054
      1050      1048      1051      1052      1050      1048      1051      1053
      1050      1048      1051      1054      1051      1054      1057      1058
      1051      1054      1057      1059      1051      1054      1057      1060
      1052      1051      1054      1055      1052      1051      1054      1056
      1052      1051      1054      1057      1053      1051      1054      1055
      1053      1051      1054      1056      1053      1051      1054      1057
      1054      1057      1060      1061      1054      1057      1060      1062
      1054      1057      1060      1063      1055      1054      1057      1058
      1055      1054      1057      1059      1055      1054      1057      1060
      1056      1054      1057      1058      1056      1054      1057      1059
      1056      1054      1057      1060      1057      1060      1063      1064
      1057      1060      1063      1065      1057      1060      1063      1066
      1058      1057      1060      1061      1058      1057      1060      1062
      1058      1057      1060      1063      1059      1057      1060      1061
      1059      1057      1060      1062      1059      1057      1060      1063
      1060      1063      1066      1067      1060      1063      1066      1068
      1060      1063      1066      1069      1061      1060      1063      1064
      1061      1060      1063      1065      1061      1060      1063      1066
      1062      1060      1063      1064      1062      1060      1063      1065
      1062      1060      1063      1066      1063      1066      1069      1070
      1063      1066      1069      1071      1063      1066      1069      1072
      1064      1063      1066      1067      1064      1063      1066      1068
      1064      1063      1066      1069      1065      1063      1066      1067
      1065      1063      1066      1068      1065      1063      1066      1069
      1067      1066      1069      1070      1067      1066      1069      1071
      1067      1066      1069      1072      1068      1066      1069      1070
      1068      1066      1069      1071      1068      1066      1069      1072
      1073      1074      1089      1090      1073      1074      1089      1091
      1073      1074      1089      1095      1074      1073      1077      1078
      1074      1073      1077      1079      1074      1073      1077      1080
      1074      1073      1081      1082      1074      1073      1081      1083
      1074      1073      1081      1084      1074      1073      1085      1086
      1074      1073      1085      1087      1074      1073      1085      1088
      1074      1089      1095      1092      1075      1074      1073      1077
      1075      1074      1073      1081      1075      1074      1073      1085
      1075      1074      1089      1090      1075      1074      1089      1091
      1075      1074      1089      1095      1076      1074      1073      1077
      1076      1074      1073      1081      1076      1074      1073      1085
      1076      1074      1089      1090      1076      1074      1089      1091
      1076      1074      1089      1095      1077      1073      1074      1089
      1077      1073      1081      1082      1077      1073      1081      1083
      1077      1073      1081      1084      1077      1073      1085      1086
      1077      1073      1085      1087      1077      1073      1085      1088
      1078      1077      1073      1081      1078      1077      1073      1085
      1079      1077      1073      1081      1079      1077      1073      1085
      1080      1077      1073      1081      1080      1077      1073      1085
      1081      1073      1074      1089      1081      1073      1085      1086
      1081      1073      1085      1087      1081      1073      1085      1088
      1082      1081      1073      1085      1083      1081      1073      1085
      1084      1081      1073      1085      1085      1073      1074      1089
      1089      1095      1092      1093      1089      1095      1092      1094
      1089      1095      1092      1096      1090      1089      1095      1092
      1091      1089      1095      1092      1092      1096      1097      1098
      1092      1096      1097      1099      1092      1096      1097      1100
      1093      1092      1096      1097      1094      1092      1096      1097
      1095      1092      1096      1097      1096      1097      1100      1101
      1096      1097      1100      1102      1096      1097      1100      1108
      1097      1100      1102      1103      1097      1100      1108      1109
      1097      1100      1108      1110      1097      1100      1108      1111
      1098      1097      1100      1101      1098      1097      1100      1102
      1098      1097      1100      1108      1099      1097      1100      1101
      1099      1097      1100      1102      1099      1097      1100      1108
      1100      1102      1103      1104      1100      1102      1103      1105
      1100      1108      1111      1112      1101      1100      1102      1103
      1101      1100      1108      1109      1101      1100      1108      1110
      1101      1100      1108      1111      1102      1100      1108      1109
      1102      1100      1108      1110      1102      1100      1108      1111
      1102      1103      1105      1106      1102      1103      1105      1107
      1102      1103      1105      1117      1103      1102      1100      1108
      1103      1105      1117      1118      1103      1105      1117      1119
      1103      1105      1117      1120      1104      1103      1105      1106
      1104      1103      1105      1107      1104      1103      1105      1117
      1105      1117      1120      1121      1105      1117      1120      1122
      1105      1117      1120      1123      1106      1105      1117      1118
      1106      1105      1117      1119      1106      1105      1117      1120
      1107      1105      1117      1118      1107      1105      1117      1119
      1107      1105      1117      1120      1108      1111      1112      1113
      1108      1111      1112      1114      1109      1108      1111      1112
      1110      1108      1111      1112      1111      1112      1114      1115
      1111      1112      1114      1116      1111      1112      1114      1164
      1112      1114      1164      1165      1112      1114      1164      1166
      1112      1114      1164      1167      1113      1112      1114      1115
      1113      1112      1114      1116      1113      1112      1114      1164
      1114      1164      1167      1168      1114      1164      1167      1169
      1114      1164      1167      1170      1115      1114      1164      1165
      1115      1114      1164      1166      1115      1114      1164      1167
      1116      1114      1164      1165      1116      1114      1164      1166
      1116      1114      1164      1167      1117      1120      1123      1124
      1117      1120      1123      1125      1117      1120      1123      1126
      1118      1117      1120      1121      1118      1117      1120      1122
      1118      1117      1120      1123      1119      1117      1120      1121
      1119      1117      1120      1122      1119      1117      1120      1123
      1120      1123      1126      1127      1120      1123      1126      1128
      1120      1123      1126      1129      1121      1120      1123      1124
      1121      1120      1123      1125      1121      1120      1123      1126
      1122      1120      1123      1124      1122      1120      1123      1125
      1122      1120      1123      1126      1123      1126      1129      1130
      1123      1126      1129      1131      1123      1126      1129      1132
      1124      1123      1126      1127      1124      1123      1126      1128
      1124      1123      1126      1129      1125      1123      1126      1127
      1125      1123      1126      1128      1125      1123      1126      1129
      1126      1129      1132      1133      1126      1129      1132      1134
      1126      1129      1132      1135      1127      1126      1129      1130
      1127      1126      1129      1131      1127      1126      1129      1132
      1128      1126      1129      1130      1128      1126      1129      1131
      1128      1126      1129      1132      1129      1132      1135      1136
      1129      1132      1135      1137      1130      1129      1132      1133
      1130      1129      1132      1134      1130      1129      1132      1135
      1131      1129      1132      1133      1131      1129      1132      1134
      1131      1129      1132      1135      1132      1135      1137      1138
      1132      1135      1137      1139      1133      1132      1135      1136
      1133      1132      1135      1137      1134      1132      1135      1136
      1134      1132      1135      1137      1135      1137      1139      1140
      1135      1137      1139      1141      1135      1137      1139      1142
      1136      1135      1137      1138      1136      1135      1137      1139
      1137      1139      1142      1143      1137      1139      1142      1144
      1137      1139      1142      1145      1138      1137      1139      1140
      1138      1137      1139      1141      1138      1137      1139      1142
      1139      1142      1145      1146      1139      1142      1145      1147
      1139      1142      1145      1148      1140      1139      1142      1143
      1140      1139      1142      1144      1140      1139      1142      1145
      1141      1139      1142      1143      1141      1139      1142      1144
      1141      1139      1142      1145      1142      1145      1148      1149
      1142      1145      1148      1150      1142      1145      1148      1151
      1143      1142      1145      1146      1143      1142      1145      1147
      1143      1142      1145      1148      1144      1142      1145      1146
      1144      1142      1145      1147      1144      1142      1145      1148
      1145      1148      1151      1152      1145      1148      1151      1153
      1145      1148      1151      1154      1146      1145      1148      1149
      1146      1145      1148      1150      1146      1145      1148      1151
      1147      1145      1148      1149      1147      1145      1148      1150
      1147      1145      1148      1151      1148      1151      1154      1155
      1148      1151      1154      1156      1148      1151      1154      1157
      1149      1148      1151      1152      1149      1148      1151      1153
      1149      1148      1151      1154      1150      1148      1151      1152
      1150      1148      1151      1153      1150      1148      1151      1154
      1151      1154      1157      1158      1151      1154      1157      1159
      1151      1154      1157      1160      1152      1151      1154      1155
      1152      1151      1154      1156      1152      1151      1154      1157
      1153      1151      1154      1155      1153      1151      1154      1156
      1153      1151      1154      1157      1154      1157      1160      1161
      1154      1157      1160      1162      1154      1157      1160      1163
      1155      1154      1157      1158      1155      1154      1157      1159
      1155      1154      1157      1160      1156      1154      1157      1158
      1156      1154      1157      1159      1156      1154      1157      1160
      1158      1157      1160      1161      1158      1157      1160      1162
      1158      1157      1160      1163      1159      1157      1160      1161
      1159      1157      1160      1162      1159      1157      1160      1163
      1164      1167      1170      1171      1164      1167      1170      1172
      1164      1167      1170      1173      1165      1164      1167      1168
      1165      1164      1167      1169      1165      1164      1167      1170
      1166      1164      1167      1168      1166      1164      1167      1169
      1166      1164      1167      1170      1167      1170      1173      1174
      1167      1170      1173      1175      1167      1170      1173      1176
      1168      1167      1170      1171      1168      1167      1170      1172
      1168      1167      1170      1173      1169      1167      1170      1171
      1169      1167      1170      1172      1169      1167      1170      1173
      1170      1173      1176      1177      1170      1173      1176      1178
      1170      1173      1176      1179      1171      1170      1173      1174
      1171      1170      1173      1175      1171      1170      1173      1176
      1172      1170      1173      1174      1172      1170      1173      1175
      1172      1170      1173      1176      1173      1176      1179      1180
      1173      1176      1179      1181      1173      1176      1179      1182
      1174      1173      1176      1177      1174      1173      1176      1178
      1174      1173      1176      1179      1175      1173      1176      1177
      1175      1173      1176      1178      1175      1173      1176      1179
      1176      1179      1182      1183      1176      1179      1182      1184
      1176      1179      1182      1185      1177      1176      1179      1180
      1177      1176      1179      1181      1177      1176      1179      1182
      1178      1176      1179      1180      1178      1176      1179      1181
      1178      1176      1179      1182      1179      1182      1185      1186
      1179      1182      1185      1187      1179      1182      1185      1188
      1180      1179      1182      1183      1180      1179      1182      1184
      1180      1179      1182      1185      1181      1179      1182      1183
      1181      1179      1182      1184      1181      1179      1182      1185
      1182      1185      1188      1189      1182      1185      1188      1190
      1182      1185      1188      1191      1183      1182      1185      1186
      1183      1182      1185      1187      1183      1182      1185      1188
      1184      1182      1185      1186      1184      1182      1185      1187
      1184      1182      1185      1188      1185      1188      1191      1192
      1185      1188      1191      1193      1185      1188      1191      1194
      1186      1185      1188      1189      1186      1185      1188      1190
      1186      1185      1188      1191      1187      1185      1188      1189
      1187      1185      1188      1190      1187      1185      1188      1191
      1188      1191      1194      1195      1188      1191      1194      1196
      1188      1191      1194      1197      1189      1188      1191      1192
      1189      1188      1191      1193      1189      1188      1191      1194
      1190      1188      1191      1192      1190      1188      1191      1193
      1190      1188      1191      1194      1191      1194      1197      1198
      1191      1194      1197      1199      1191      1194      1197      1200
      1192      1191      1194      1195      1192      1191      1194      1196
      1192      1191      1194      1197      1193      1191      1194      1195
      1193      1191      1194      1196      1193      1191      1194      1197
      1194      1197      1200      1201      1194      1197      1200      1202
      1194      1197      1200      1203      1195      1194      1197      1198
      1195      1194      1197      1199      1195      1194      1197      1200
      1196      1194      1197      1198      1196      1194      1197      1199
      1196      1194      1197      1200      1197      1200      1203      1204
      1197      1200      1203      1205      1197      1200      1203      1206
      1198      1197      1200      1201      1198      1197      1200      1202
      1198      1197      1200      1203      1199      1197      1200      1201
      1199      1197      1200      1202      1199      1197      1200      1203
      1201      1200      1203      1204      1201      1200      1203      1205
      1201      1200      1203      1206      1202      1200      1203      1204
      1202      1200      1203      1205      1202      1200      1203      1206
      1207      1208      1223      1224      1207      1208      1223      1225
      1207      1208      1223      1229      1208      1207      1211      1212
      1208      1207      1211      1213      1208      1207      1211      1214
      1208      1207      1215      1216      1208      1207      1215      1217
      1208      1207      1215      1218      1208      1207      1219      1220
      1208      1207      1219      1221      1208      1207      1219      1222
      1208      1223      1229      1226      1209      1208      1207      1211
      1209      1208      1207      1215      1209      1208      1207      1219
      1209      1208      1223      1224      1209      1208      1223      1225
      1209      1208      1223      1229      1210      1208      1207      1211
      1210      1208      1207      1215      1210      1208      1207      1219
      1210      1208      1223      1224      1210      1208      1223      1225
      1210      1208      1223      1229      1211      1207      1208      1223
      1211      1207      1215      1216      1211      1207      1215      1217
      1211      1207      1215      1218      1211      1207      1219      1220
      1211      1207      1219      1221      1211      1207      1219      1222
      1212      1211      1207      1215      1212      1211      1207      1219
      1213      1211      1207      1215      1213      1211      1207      1219
      1214      1211      1207      1215      1214      1211      1207      1219
      1215      1207      1208      1223      1215      1207      1219      1220
      1215      1207      1219      1221      1215      1207      1219      1222
      1216      1215      1207      1219      1217      1215      1207      1219
      1218      1215      1207      1219      1219      1207      1208      1223
      1223      1229      1226      1227      1223      1229      1226      1228
      1223      1229      1226      1230      1224      1223      1229      1226
      1225      1223      1229      1226      1226      1230      1231      1232
      1226      1230      1231      1233      1226      1230      1231      1234
      1227      1226      1230      1231      1228      1226      1230      1231
      1229      1226      1230      1231      1230      1231      1234      1235
      1230      1231      1234      1236      1230      1231      1234      1242
      1231      1234      1236      1237      1231      1234      1242      1243
      1231      1234      1242      1244      1231      1234      1242      1245
      1232      1231      1234      1235      1232      1231      1234      1236
      1232      1231      1234      1242      1233      1231      1234      1235
      1233      1231      1234      1236      1233      1231      1234      1242
      1234      1236      1237      1238      1234      1236      1237      1239
      1234      1242      1245      1246      1235      1234      1236      1237
      1235      1234      1242      1243      1235      1234      1242      1244
      1235      1234      1242      1245      1236      1234      1242      1243
      1236      1234      1242      1244      1236      1234      1242      1245
      1236      1237      1239      1240      1236      1237      1239      1241
      1236      1237      1239      1251      1237      1236      1234      1242
      1237      1239      1251      1252      1237      1239      1251      1253
      1237      1239      1251      1254      1238      1237      1239      1240
      1238      1237      1239      1241      1238      1237      1239      1251
      1239      1251      1254      1255      1239      1251      1254      1256
      1239      1251      1254      1257      1240      1239      1251      1252
      1240      1239      1251      1253      1240      1239      1251      1254
      1241      1239      1251      1252      1241      1239      1251      1253
      1241      1239      1251      1254      1242      1245      1246      1247
      1242      1245      1246      1248      1243      1242      1245      1246
      1244      1242      1245      1246      1245      1246      1248      1249
      1245      1246      1248      1250      1245      1246      1248      1298
      1246      1248      1298      1299      1246      1248      1298      1300
      1246      1248      1298      1301      1247      1246      1248      1249
      1247      1246      1248      1250      1247      1246      1248      1298
      1248      1298      1301      1302      1248      1298      1301      1303
      1248      1298      1301      1304      1249      1248      1298      1299
      1249      1248      1298      1300      1249      1248      1298      1301
      1250      1248      1298      1299      1250      1248      1298      1300
      1250      1248      1298      1301      1251      1254      1257      1258
      1251      1254      1257      1259      1251      1254      1257      1260
      1252      1251      1254      1255      1252      1251      1254      1256
      1252      1251      1254      1257      1253      1251      1254      1255
      1253      1251      1254      1256      1253      1251      1254      1257
      1254      1257      1260      1261      1254      1257      1260      1262
      1254      1257      1260      1263      1255      1254      1257      1258
      1255      1254      1257      1259      1255      1254      1257      1260
      1256      1254      1257      1258      1256      1254      1257      1259
      1256      1254      1257      1260      1257      1260      1263      1264
      1257      1260      1263      1265      1257      1260      1263      1266
      1258      1257      1260      1261      1258      1257      1260      1262
      1258      1257      1260      1263      1259      1257      1260      1261
      1259      1257      1260      1262      1259      1257      1260      1263
      1260      1263      1266      1267      1260      1263      1266      1268
      1260      1263      1266      1269      1261      1260      1263      1264
      1261      1260      1263      1265      1261      1260      1263      1266
      1262      1260      1263      1264      1262      1260      1263      1265
      1262      1260      1263      1266      1263      1266      1269      1270
      1263      1266      1269      1271      1264      1263      1266      1267
      1264      1263      1266      1268      1264      1263      1266      1269
      1265      1263      1266      1267      1265      1263      1266      1268
      1265      1263      1266      1269      1266      1269      1271      1272
      1266      1269      1271      1273      1267      1266      1269      1270
      1267      1266      1269      1271      1268      1266      1269      1270
      1268      1266      1269      1271      1269      1271      1273      1274
      1269      1271      1273      1275      1269      1271      1273      1276
      1270      1269      1271      1272      1270      1269      1271      1273
      1271      1273      1276      1277      1271      1273      1276      1278
      1271      1273      1276      1279      1272      1271      1273      1274
      1272      1271      1273      1275      1272      1271      1273      1276
      1273      1276      1279      1280      1273      1276      1279      1281
      1273      1276      1279      1282      1274      1273      1276      1277
      1274      1273      1276      1278      1274      1273      1276      1279
      1275      1273      1276      1277      1275      1273      1276      1278
      1275      1273      1276      1279      1276      1279      1282      1283
      1276      1279      1282      1284      1276      1279      1282      1285
      1277      1276      1279      1280      1277      1276      1279      1281
      1277      1276      1279      1282      1278      1276      1279      1280
      1278      1276      1279      1281      1278      1276      1279      1282
      1279      1282      1285      1286      1279      1282      1285      1287
      1279      1282      1285      1288      1280      1279      1282      1283
      1280      1279      1282      1284      1280      1279      1282      1285
      1281      1279      1282      1283      1281      1279      1282      1284
      1281      1279      1282      1285      1282      1285      1288      1289
      1282      1285      1288      1290      1282      1285      1288      1291
      1283      1282      1285      1286      1283      1282      1285      1287
      1283      1282      1285      1288      1284      1282      1285      1286
      1284      1282      1285      1287      1284      1282      1285      1288
      1285      1288      1291      1292      1285      1288      1291      1293
      1285      1288      1291      1294      1286      1285      1288      1289
      1286      1285      1288      1290      1286      1285      1288      1291
      1287      1285      1288      1289      1287      1285      1288      1290
      1287      1285      1288      1291      1288      1291      1294      1295
      1288      1291      1294      1296      1288      1291      1294      1297
      1289      1288      1291      1292      1289      1288      1291      1293
      1289      1288      1291      1294      1290      1288      1291      1292
      1290      1288      1291      1293      1290      1288      1291      1294
      1292      1291      1294      1295      1292      1291      1294      1296
      1292      1291      1294      1297      1293      1291      1294      1295
      1293      1291      1294      1296      1293      1291      1294      1297
      1298      1301      1304      1305      1298      1301      1304      1306
      1298      1301      1304      1307      1299      1298      1301      1302
      1299      1298      1301      1303      1299      1298      1301      1304
      1300      1298      1301      1302      1300      1298      1301      1303
      1300      1298      1301      1304      1301      1304      1307      1308
      1301      1304      1307      1309      1301      1304      1307      1310
      1302      1301      1304      1305      1302      1301      1304      1306
      1302      1301      1304      1307      1303      1301      1304      1305
      1303      1301      1304      1306      1303      1301      1304      1307
      1304      1307      1310      1311      1304      1307      1310      1312
      1304      1307      1310      1313      1305      1304      1307      1308
      1305      1304      1307      1309      1305      1304      1307      1310
      1306      1304      1307      1308      1306      1304      1307      1309
      1306      1304      1307      1310      1307      1310      1313      1314
      1307      1310      1313      1315      1307      1310      1313      1316
      1308      1307      1310      1311      1308      1307      1310      1312
      1308      1307      1310      1313      1309      1307      1310      1311
      1309      1307      1310      1312      1309      1307      1310      1313
      1310      1313      1316      1317      1310      1313      1316      1318
      1310      1313      1316      1319      1311      1310      1313      1314
      1311      1310      1313      1315      1311      1310      1313      1316
      1312      1310      1313      1314      1312      1310      1313      1315
      1312      1310      1313      1316      1313      1316      1319      1320
      1313      1316      1319      1321      1313      1316      1319      1322
      1314      1313      1316      1317      1314      1313      1316      1318
      1314      1313      1316      1319      1315      1313      1316      1317
      1315      1313      1316      1318      1315      1313      1316      1319
      1316      1319      1322      1323      1316      1319      1322      1324
      1316      1319      1322      1325      1317      1316      1319      1320
      1317      1316      1319      1321      1317      1316      1319      1322
      1318      1316      1319      1320      1318      1316      1319      1321
      1318      1316      1319      1322      1319      1322      1325      1326
      1319      1322      1325      1327      1319      1322      1325      1328
      1320      1319      1322      1323      1320      1319      1322      1324
      1320      1319      1322      1325      1321      1319      1322      1323
      1321      1319      1322      1324      1321      1319      1322      1325
      1322      1325      1328      1329      1322      1325      1328      1330
      1322      1325      1328      1331      1323      1322      1325      1326
      1323      1322      1325      1327      1323      1322      1325      1328
      1324      1322      1325      1326      1324      1322      1325      1327
      1324      1322      1325      1328      1325      1328      1331      1332
      1325      1328      1331      1333      1325      1328      1331      1334
      1326      1325      1328      1329      1326      1325      1328      1330
      1326      1325      1328      1331      1327      1325      1328      1329
      1327      1325      1328      1330      1327      1325      1328      1331
      1328      1331      1334      1335      1328      1331      1334      1336
      1328      1331      1334      1337      1329      1328      1331      1332
      1329      1328      1331      1333      1329      1328      1331      1334
      1330      1328      1331      1332      1330      1328      1331      1333
      1330      1328      1331      1334      1331      1334      1337      1338
      1331      1334      1337      1339      1331      1334      1337      1340
      1332      1331      1334      1335      1332      1331      1334      1336
      1332      1331      1334      1337      1333      1331      1334      1335
      1333      1331      1334      1336      1333      1331      1334      1337
      1335      1334      1337      1338      1335      1334      1337      1339
      1335      1334      1337      1340      1336      1334      1337      1338
      1336      1334      1337      1339      1336      1334      1337      1340
      1341      1342      1357      1358      1341      1342      1357      1359
      1341      1342      1357      1363      1342      1341      1345      1346
      1342      1341      1345      1347      1342      1341      1345      1348
      1342      1341      1349      1350      1342      1341      1349      1351
      1342      1341      1349      1352      1342      1341      1353      1354
      1342      1341      1353      1355      1342      1341      1353      1356
      1342      1357      1363      1360      1343      1342      1341      1345
      1343      1342      1341      1349      1343      1342      1341      1353
      1343      1342      1357      1358      1343      1342      1357      1359
      1343      1342      1357      1363      1344      1342      1341      1345
      1344      1342      1341      1349      1344      1342      1341      1353
      1344      1342      1357      1358      1344      1342      1357      1359
      1344      1342      1357      1363      1345      1341      1342      1357
      1345      1341      1349      1350      1345      1341      1349      1351
      1345      1341      1349      1352      1345      1341      1353      1354
      1345      1341      1353      1355      1345      1341      1353      1356
      1346      1345      1341      1349      1346      1345      1341      1353
      1347      1345      1341      1349      1347      1345      1341      1353
      1348      1345      1341      1349      1348      1345      1341      1353
      1349      1341      1342      1357      1349      1341      1353      1354
      1349      1341      1353      1355      1349      1341      1353      1356
      1350      1349      1341      1353      1351      1349      1341      1353
      1352      1349      1341      1353      1353      1341      1342      1357
      1357      1363      1360      1361      1357      1363      1360      1362
      1357      1363      1360      1364      1358      1357      1363      1360
      1359      1357      1363      1360      1360      1364      1365      1366
      1360      1364      1365      1367      1360      1364      1365      1368
      1361      1360      1364      1365      1362      1360      1364      1365
      1363      1360      1364      1365      1364      1365      1368      1369
      1364      1365      1368      1370      1364      1365      1368      1376
      1365      1368      1370      1371      1365      1368      1376      1377
      1365      1368      1376      1378      1365      1368      1376      1379
      1366      1365      1368      1369      1366      1365      1368      1370
      1366      1365      1368      1376      1367      1365      1368      1369
      1367      1365      1368      1370      1367      1365      1368      1376
      1368      1370      1371      1372      1368      1370      1371      1373
      1368      1376      1379      1380      1369      1368      1370      1371
      1369      1368      1376      1377      1369      1368      1376      1378
      1369      1368      1376      1379      1370      1368      1376      1377
      1370      1368      1376      1378      1370      1368      1376      1379
      1370      1371      1373      1374      1370      1371      1373      1375
      1370      1371      1373      1385      1371      1370      1368      1376
      1371      1373      1385      1386      1371      1373      1385      1387
      1371      1373      1385      1388      1372      1371      1373      1374
      1372      1371      1373      1375      1372      1371      1373      1385
      1373      1385      1388      1389      1373      1385      1388      1390
      1373      1385      1388      1391      1374      1373      1385      1386
      1374      1373      1385      1387      1374      1373      1385      1388
      1375      1373      1385      1386      1375      1373      1385      1387
      1375      1373      1385      1388      1376      1379      1380      1381
      1376      1379      1380      1382      1377      1376      1379      1380
      1378      1376      1379      1380      1379      1380      1382      1383
      1379      1380      1382      1384      1379      1380      1382      1432
      1380      1382      1432      1433      1380      1382      1432      1434
      1380      1382      1432      1435      1381      1380      1382      1383
      1381      1380      1382      1384      1381      1380      1382      1432
      1382      1432      1435      1436      1382      1432      1435      1437
      1382      1432      1435      1438      1383      1382      1432      1433
      1383      1382      1432      1434      1383      1382      1432      1435
      1384      1382      1432      1433      1384      1382      1432      1434
      1384      1382      1432      1435      1385      1388      1391      1392
      1385      1388      1391      1393      1385      1388      1391      1394
      1386      1385      1388      1389      1386      1385      1388      1390
      1386      1385      1388      1391      1387      1385      1388      1389
      1387      1385      1388      1390      1387      1385      1388      1391
      1388      1391      1394      1395      1388      1391      1394      1396
      1388      1391      1394      1397      1389      1388      1391      1392
      1389      1388      1391      1393      1389      1388      1391      1394
      1390      1388      1391      1392      1390      1388      1391      1393
      1390      1388      1391      1394      1391      1394      1397      1398
      1391      1394      1397      1399      1391      1394      1397      1400
      1392      1391      1394      1395      1392      1391      1394      1396
      1392      1391      1394      1397      1393      1391      1394      1395
      1393      1391      1394      1396      1393      1391      1394      1397
      1394      1397      1400      1401      1394      1397      1400      1402
      1394      1397      1400      1403      1395      1394      1397      1398
      1395      1394      1397      1399      1395      1394      1397      1400
      1396      1394      1397      1398      1396      1394      1397      1399
      1396      1394      1397      1400      1397      1400      1403      1404
      1397      1400      1403      1405      1398      1397      1400      1401
      1398      1397      1400      1402      1398      1397      1400      1403
      1399      1397      1400      1401      1399      1397      1400      1402
      1399      1397      1400      1403      1400      1403      1405      1406
      1400      1403      1405      1407      1401      1400      1403      1404
      1401      1400      1403      1405      1402      1400      1403      1404
      1402      1400      1403      1405      1403      1405      1407      1408
      1403      1405      1407      1409      1403      1405      1407      1410
      1404      1403      1405      1406      1404      1403      1405      1407
      1405      1407      1410      1411      1405      1407      1410      1412
      1405      1407      1410      1413      1406      1405      1407      1408
      1406      1405      1407      1409      1406      1405      1407      1410
      1407      1410      1413      1414      1407      1410      1413      1415
      1407      1410      1413      1416      1408      1407      1410      1411
      1408      1407      1410      1412      1408      1407      1410      1413
      1409      1407      1410      1411      1409      1407      1410      1412
      1409      1407      1410      1413      1410      1413      1416      1417
      1410      1413      1416      1418      1410      1413      1416      1419
      1411      1410      1413      1414      1411      1410      1413      1415
      1411      1410      1413      1416      1412      1410      1413      1414
      1412      1410      1413      1415      1412      1410      1413      1416
      1413      1416      1419      1420      1413      1416      1419      1421
      1413      1416      1419      1422      1414      1413      1416      1417
      1414      1413      1416      1418      1414      1413      1416      1419
      1415      1413      1416      1417      1415      1413      1416      1418
      1415      1413      1416      1419      1416      1419      1422      1423
      1416      1419      1422      1424      1416      1419      1422      1425
      1417      1416      1419      1420      1417      1416      1419      1421
      1417      1416      1419      1422      1418      1416      1419      1420
      1418      1416      1419      1421      1418      1416      1419      1422
      1419      1422      1425      1426      1419      1422      1425      1427
      1419      1422      1425      1428      1420      1419      1422      1423
      1420      1419      1422      1424      1420      1419      1422      1425
      1421      1419      1422      1423      1421      1419      1422      1424
      1421      1419      1422      1425      1422      1425      1428      1429
      1422      1425      1428      1430      1422      1425      1428      1431
      1423      1422      1425      1426      1423      1422      1425      1427
      1423      1422      1425      1428      1424      1422      1425      1426
      1424      1422      1425      1427      1424      1422      1425      1428
      1426      1425      1428      1429      1426      1425      1428      1430
      1426      1425      1428      1431      1427      1425      1428      1429
      1427      1425      1428      1430      1427      1425      1428      1431
      1432      1435      1438      1439      1432      1435      1438      1440
      1432      1435      1438      1441      1433      1432      1435      1436
      1433      1432      1435      1437      1433      1432      1435      1438
      1434      1432      1435      1436      1434      1432      1435      1437
      1434      1432      1435      1438      1435      1438      1441      1442
      1435      1438      1441      1443      1435      1438      1441      1444
      1436      1435      1438      1439      1436      1435      1438      1440
      1436      1435      1438      1441      1437      1435      1438      1439
      1437      1435      1438      1440      1437      1435      1438      1441
      1438      1441      1444      1445      1438      1441      1444      1446
      1438      1441      1444      1447      1439      1438      1441      1442
      1439      1438      1441      1443      1439      1438      1441      1444
      1440      1438      1441      1442      1440      1438      1441      1443
      1440      1438      1441      1444      1441      1444      1447      1448
      1441      1444      1447      1449      1441      1444      1447      1450
      1442      1441      1444      1445      1442      1441      1444      1446
      1442      1441      1444      1447      1443      1441      1444      1445
      1443      1441      1444      1446      1443      1441      1444      1447
      1444      1447      1450      1451      1444      1447      1450      1452
      1444      1447      1450      1453      1445      1444      1447      1448
      1445      1444      1447      1449      1445      1444      1447      1450
      1446      1444      1447      1448      1446      1444      1447      1449
      1446      1444      1447      1450      1447      1450      1453      1454
      1447      1450      1453      1455      1447      1450      1453      1456
      1448      1447      1450      1451      1448      1447      1450      1452
      1448      1447      1450      1453      1449      1447      1450      1451
      1449      1447      1450      1452      1449      1447      1450      1453
      1450      1453      1456      1457      1450      1453      1456      1458
      1450      1453      1456      1459      1451      1450      1453      1454
      1451      1450      1453      1455      1451      1450      1453      1456
      1452      1450      1453      1454      1452      1450      1453      1455
      1452      1450      1453      1456      1453      1456      1459      1460
      1453      1456      1459      1461      1453      1456      1459      1462
      1454      1453      1456      1457      1454      1453      1456      1458
      1454      1453      1456      1459      1455      1453      1456      1457
      1455      1453      1456      1458      1455      1453      1456      1459
      1456      1459      1462      1463      1456      1459      1462      1464
      1456      1459      1462      1465      1457      1456      1459      1460
      1457      1456      1459      1461      1457      1456      1459      1462
      1458      1456      1459      1460      1458      1456      1459      1461
      1458      1456      1459      1462      1459      1462      1465      1466
      1459      1462      1465      1467      1459      1462      1465      1468
      1460      1459      1462      1463      1460      1459      1462      1464
      1460      1459      1462      1465      1461      1459      1462      1463
      1461      1459      1462      1464      1461      1459      1462      1465
      1462      1465      1468      1469      1462      1465      1468      1470
      1462      1465      1468      1471      1463      1462      1465      1466
      1463      1462      1465      1467      1463      1462      1465      1468
      1464      1462      1465      1466      1464      1462      1465      1467
      1464      1462      1465      1468      1465      1468      1471      1472
      1465      1468      1471      1473      1465      1468      1471      1474
      1466      1465      1468      1469      1466      1465      1468      1470
      1466      1465      1468      1471      1467      1465      1468      1469
      1467      1465      1468      1470      1467      1465      1468      1471
      1469      1468      1471      1472      1469      1468      1471      1473
      1469      1468      1471      1474      1470      1468      1471      1472
      1470      1468      1471      1473      1470      1468      1471      1474
      1475      1476      1491      1492      1475      1476      1491      1493
      1475      1476      1491      1497      1476      1475      1479      1480
      1476      1475      1479      1481      1476      1475      1479      1482
      1476      1475      1483      1484      1476      1475      1483      1485
      1476      1475      1483      1486      1476      1475      1487      1488
      1476      1475      1487      1489      1476      1475      1487      1490
      1476      1491      1497      1494      1477      1476      1475      1479
      1477      1476      1475      1483      1477      1476      1475      1487
      1477      1476      1491      1492      1477      1476      1491      1493
      1477      1476      1491      1497      1478      1476      1475      1479
      1478      1476      1475      1483      1478      1476      1475      1487
      1478      1476      1491      1492      1478      1476      1491      1493
      1478      1476      1491      1497      1479      1475      1476      1491
      1479      1475      1483      1484      1479      1475      1483      1485
      1479      1475      1483      1486      1479      1475      1487      1488
      1479      1475      1487      1489      1479      1475      1487      1490
      1480      1479      1475      1483      1480      1479      1475      1487
      1481      1479      1475      1483      1481      1479      1475      1487
      1482      1479      1475      1483      1482      1479      1475      1487
      1483      1475      1476      1491      1483      1475      1487      1488
      1483      1475      1487      1489      1483      1475      1487      1490
      1484      1483      1475      1487      1485      1483      1475      1487
      1486      1483      1475      1487      1487      1475      1476      1491
      1491      1497      1494      1495      1491      1497      1494      1496
      1491      1497      1494      1498      1492      1491      1497      1494
      1493      1491      1497      1494      1494      1498      1499      1500
      1494      1498      1499      1501      1494      1498      1499      1502
      1495      1494      1498      1499      1496      1494      1498      1499
      1497      1494      1498      1499      1498      1499      1502      1503
      1498      1499      1502      1504      1498      1499      1502      1510
      1499      1502      1504      1505      1499      1502      1510      1511
      1499      1502      1510      1512      1499      1502      1510      1513
      1500      1499      1502      1503      1500      1499      1502      1504
      1500      1499      1502      1510      1501      1499      1502      1503
      1501      1499      1502      1504      1501      1499      1502      1510
      1502      1504      1505      1506      1502      1504      1505      1507
      1502      1510      1513      1514      1503      1502      1504      1505
      1503      1502      1510      1511      1503      1502      1510      1512
      1503      1502      1510      1513      1504      1502      1510      1511
      1504      1502      1510      1512      1504      1502      1510      1513
      1504      1505      1507      1508      1504      1505      1507      1509
      1504      1505      1507      1519      1505      1504      1502      1510
      1505      1507      1519      1520      1505      1507      1519      1521
      1505      1507      1519      1522      1506      1505      1507      1508
      1506      1505      1507      1509      1506      1505      1507      1519
      1507      1519      1522      1523      1507      1519      1522      1524
      1507      1519      1522      1525      1508      1507      1519      1520
      1508      1507      1519      1521      1508      1507      1519      1522
      1509      1507      1519      1520      1509      1507      1519      1521
      1509      1507      1519      1522      1510      1513      1514      1515
      1510      1513      1514      1516      1511      1510      1513      1514
      1512      1510      1513      1514      1513      1514      1516      1517
      1513      1514      1516      1518      1513      1514      1516      1566
      1514      1516      1566      1567      1514      1516      1566      1568
      1514      1516      1566      1569      1515      1514      1516      1517
      1515      1514      1516      1518      1515      1514      1516      1566
      1516      1566      1569      1570      1516      1566      1569      1571
      1516      1566      1569      1572      1517      1516      1566      1567
      1517      1516      1566      1568      1517      1516      1566      1569
      1518      1516      1566      1567      1518      1516      1566      1568
      1518      1516      1566      1569      1519      1522      1525      1526
      1519      1522      1525      1527      1519      1522      1525      1528
      1520      1519      1522      1523      1520      1519      1522      1524
      1520      1519      1522      1525      1521      1519      1522      1523
      1521      1519      1522      1524      1521      1519      1522      1525
      1522      1525      1528      1529      1522      1525      1528      1530
      1522      1525      1528      1531      1523      1522      1525      1526
      1523      1522      1525      1527      1523      1522      1525      1528
      1524      1522      1525      1526      1524      1522      1525      1527
      1524      1522      1525      1528      1525      1528      1531      1532
      1525      1528      1531      1533      1525      1528      1531      1534
      1526      1525      1528      1529      1526      1525      1528      1530
      1526      1525      1528      1531      1527      1525      1528      1529
      1527      1525      1528      1530      1527      1525      1528      1531
      1528      1531      1534      1535      1528      1531      1534      1536
      1528      1531      1534      1537      1529      1528      1531      1532
      1529      1528      1531      1533      1529      1528      1531      1534
      1530      1528      1531      1532      1530      1528      1531      1533
      1530      1528      1531      1534      1531      1534      1537      1538
      1531      1534      1537      1539      1532      1531      1534      1535
      1532      1531      1534      1536      1532      1531      1534      1537
      1533      1531      1534      1535      1533      1531      1534      1536
      1533      1531      1534      1537      1534      1537      1539      1540
      1534      1537      1539      1541      1535      1534      1537      1538
      1535      1534      1537      1539      1536      1534      1537      1538
      1536      1534      1537      1539      1537      1539      1541      1542
      1537      1539      1541      1543      1537      1539      1541      1544
      1538      1537      1539      1540      1538      1537      1539      1541
      1539      1541      1544      1545      1539      1541      1544      1546
      1539      1541      1544      1547      1540      1539      1541      1542
      1540      1539      1541      1543      1540      1539      1541      1544
      1541      1544      1547      1548      1541      1544      1547      1549
      1541      1544      1547      1550      1542      1541      1544      1545
      1542      1541      1544      1546      1542      1541      1544      1547
      1543      1541      1544      1545      1543      1541      1544      1546
      1543      1541      1544      1547      1544      1547      1550      1551
      1544      1547      1550      1552      1544      1547      1550      1553
      1545      1544      1547      1548      1545      1544      1547      1549
      1545      1544      1547      1550      1546      1544      1547      1548
      1546      1544      1547      1549      1546      1544      1547      1550
      1547      1550      1553      1554      1547      1550      1553      1555
      1547      1550      1553      1556      1548      1547      1550      1551
      1548      1547      1550      1552      1548      1547      1550      1553
      1549      1547      1550      1551      1549      1547      1550      1552
      1549      1547      1550      1553      1550      1553      1556      1557
      1550      1553      1556      1558      1550      1553      1556      1559
      1551      1550      1553      1554      1551      1550      1553      1555
      1551      1550      1553      1556      1552      1550      1553      1554
      1552      1550      1553      1555      1552      1550      1553      1556
      1553      1556      1559      1560      1553      1556      1559      1561
      1553      1556      1559      1562      1554      1553      1556      1557
      1554      1553      1556      1558      1554      1553      1556      1559
      1555      1553      1556      1557      1555      1553      1556      1558
      1555      1553      1556      1559      1556      1559      1562      1563
      1556      1559      1562      1564      1556      1559      1562      1565
      1557      1556      1559      1560      1557      1556      1559      1561
      1557      1556      1559      1562      1558      1556      1559      1560
      1558      1556      1559      1561      1558      1556      1559      1562
      1560      1559      1562      1563      1560      1559      1562      1564
      1560      1559      1562      1565      1561      1559      1562      1563
      1561      1559      1562      1564      1561      1559      1562      1565
      1566      1569      1572      1573      1566      1569      1572      1574
      1566      1569      1572      1575      1567      1566      1569      1570
      1567      1566      1569      1571      1567      1566      1569      1572
      1568      1566      1569      1570      1568      1566      1569      1571
      1568      1566      1569      1572      1569      1572      1575      1576
      1569      1572      1575      1577      1569      1572      1575      1578
      1570      1569      1572      1573      1570      1569      1572      1574
      1570      1569      1572      1575      1571      1569      1572      1573
      1571      1569      1572      1574      1571      1569      1572      1575
      1572      1575      1578      1579      1572      1575      1578      1580
      1572      1575      1578      1581      1573      1572      1575      1576
      1573      1572      1575      1577      1573      1572      1575      1578
      1574      1572      1575      1576      1574      1572      1575      1577
      1574      1572      1575      1578      1575      1578      1581      1582
      1575      1578      1581      1583      1575      1578      1581      1584
      1576      1575      1578      1579      1576      1575      1578      1580
      1576      1575      1578      1581      1577      1575      1578      1579
      1577      1575      1578      1580      1577      1575      1578      1581
      1578      1581      1584      1585      1578      1581      1584      1586
      1578      1581      1584      1587      1579      1578      1581      1582
      1579      1578      1581      1583      1579      1578      1581      1584
      1580      1578      1581      1582      1580      1578      1581      1583
      1580      1578      1581      1584      1581      1584      1587      1588
      1581      1584      1587      1589      1581      1584      1587      1590
      1582      1581      1584      1585      1582      1581      1584      1586
      1582      1581      1584      1587      1583      1581      1584      1585
      1583      1581      1584      1586      1583      1581      1584      1587
      1584      1587      1590      1591      1584      1587      1590      1592
      1584      1587      1590      1593      1585      1584      1587      1588
      1585      1584      1587      1589      1585      1584      1587      1590
      1586      1584      1587      1588      1586      1584      1587      1589
      1586      1584      1587      1590      1587      1590      1593      1594
      1587      1590      1593      1595      1587      1590      1593      1596
      1588      1587      1590      1591      1588      1587      1590      1592
      1588      1587      1590      1593      1589      1587      1590      1591
      1589      1587      1590      1592      1589      1587      1590      1593
      1590      1593      1596      1597      1590      1593      1596      1598
      1590      1593      1596      1599      1591      1590      1593      1594
      1591      1590      1593      1595      1591      1590      1593      1596
      1592      1590      1593      1594      1592      1590      1593      1595
      1592      1590      1593      1596      1593      1596      1599      1600
      1593      1596      1599      1601      1593      1596      1599      1602
      1594      1593      1596      1597      1594      1593      1596      1598
      1594      1593      1596      1599      1595      1593      1596      1597
      1595      1593      1596      1598      1595      1593      1596      1599
      1596      1599      1602      1603      1596      1599      1602      1604
      1596      1599      1602      1605      1597      1596      1599      1600
      1597      1596      1599      1601      1597      1596      1599      1602
      1598      1596      1599      1600      1598      1596      1599      1601
      1598      1596      1599      1602      1599      1602      1605      1606
      1599      1602      1605      1607      1599      1602      1605      1608
      1600      1599      1602      1603      1600      1599      1602      1604
      1600      1599      1602      1605      1601      1599      1602      1603
      1601      1599      1602      1604      1601      1599      1602      1605
      1603      1602      1605      1606      1603      1602      1605      1607
      1603      1602      1605      1608      1604      1602      1605      1606
      1604      1602      1605      1607      1604      1602      1605      1608
      1609      1610      1625      1626      1609      1610      1625      1627
      1609      1610      1625      1631      1610      1609      1613      1614
      1610      1609      1613      1615      1610      1609      1613      1616
      1610      1609      1617      1618      1610      1609      1617      1619
      1610      1609      1617      1620      1610      1609      1621      1622
      1610      1609      1621      1623      1610      1609      1621      1624
      1610      1625      1631      1628      1611      1610      1609      1613
      1611      1610      1609      1617      1611      1610      1609      1621
      1611      1610      1625      1626      1611      1610      1625      1627
      1611      1610      1625      1631      1612      1610      1609      1613
      1612      1610      1609      1617      1612      1610      1609      1621
      1612      1610      1625      1626      1612      1610      1625      1627
      1612      1610      1625      1631      1613      1609      1610      1625
      1613      1609      1617      1618      1613      1609      1617      1619
      1613      1609      1617      1620      1613      1609      1621      1622
      1613      1609      1621      1623      1613      1609      1621      1624
      1614      1613      1609      1617      1614      1613      1609      1621
      1615      1613      1609      1617      1615      1613      1609      1621
      1616      1613      1609      1617      1616      1613      1609      1621
      1617      1609      1610      1625      1617      1609      1621      1622
      1617      1609      1621      1623      1617      1609      1621      1624
      1618      1617      1609      1621      1619      1617      1609      1621
      1620      1617      1609      1621      1621      1609      1610      1625
      1625      1631      1628      1629      1625      1631      1628      1630
      1625      1631      1628      1632      1626      1625      1631      1628
      1627      1625      1631      1628      1628      1632      1633      1634
      1628      1632      1633      1635      1628      1632      1633      1636
      1629      1628      1632      1633      1630      1628      1632      1633
      1631      1628      1632      1633      1632      1633      1636      1637
      1632      1633      1636      1638      1632      1633      1636      1644
      1633      1636      1638      1639      1633      1636      1644      1645
      1633      1636      1644      1646      1633      1636      1644      1647
      1634      1633      1636      1637      1634      1633      1636      1638
      1634      1633      1636      1644      1635      1633      1636      1637
      1635      1633      1636      1638      1635      1633      1636      1644
      1636      1638      1639      1640      1636      1638      1639      1641
      1636      1644      1647      1648      1637      1636      1638      1639
      1637      1636      1644      1645      1637      1636      1644      1646
      1637      1636      1644      1647      1638      1636      1644      1645
      1638      1636      1644      1646      1638      1636      1644      1647
      1638      1639      1641      1642      1638      1639      1641      1643
      1638      1639      1641      1653      1639      1638      1636      1644
      1639      1641      1653      1654      1639      1641      1653      1655
      1639      1641      1653      1656      1640      1639      1641      1642
      1640      1639      1641      1643      1640      1639      1641      1653
      1641      1653      1656      1657      1641      1653      1656      1658
      1641      1653      1656      1659      1642      1641      1653      1654
      1642      1641      1653      1655      1642      1641      1653      1656
      1643      1641      1653      1654      1643      1641      1653      1655
      1643      1641      1653      1656      1644      1647      1648      1649
      1644      1647      1648      1650      1645      1644      1647      1648
      1646      1644      1647      1648      1647      1648      1650      1651
      1647      1648      1650      1652      1647      1648      1650      1700
      1648      1650      1700      1701      1648      1650      1700      1702
      1648      1650      1700      1703      1649      1648      1650      1651
      1649      1648      1650      1652      1649      1648      1650      1700
      1650      1700      1703      1704      1650      1700      1703      1705
      1650      1700      1703      1706      1651      1650      1700      1701
      1651      1650      1700      1702      1651      1650      1700      1703
      1652      1650      1700      1701      1652      1650      1700      1702
      1652      1650      1700      1703      1653      1656      1659      1660
      1653      1656      1659      1661      1653      1656      1659      1662
      1654      1653      1656      1657      1654      1653      1656      1658
      1654      1653      1656      1659      1655      1653      1656      1657
      1655      1653      1656      1658      1655      1653      1656      1659
      1656      1659      1662      1663      1656      1659      1662      1664
      1656      1659      1662      1665      1657      1656      1659      1660
      1657      1656      1659      1661      1657      1656      1659      1662
      1658      1656      1659      1660      1658      1656      1659      1661
      1658      1656      1659      1662      1659      1662      1665      1666
      1659      1662      1665      1667      1659      1662      1665      1668
      1660      1659      1662      1663      1660      1659      1662      1664
      1660      1659      1662      1665      1661      1659      1662      1663
      1661      1659      1662      1664      1661      1659      1662      1665
      1662      1665      1668      1669      1662      1665      1668      1670
      1662      1665      1668      1671      1663      1662      1665      1666
      1663      1662      1665      1667      1663      1662      1665      1668
      1664      1662      1665      1666      1664      1662      1665      1667
      1664      1662      1665      1668      1665      1668      1671      1672
      1665      1668      1671      1673      1666      1665      1668      1669
      1666      1665      1668      1670      1666      1665      1668      1671
      1667      1665      1668      1669      1667      1665      1668      1670
      1667      1665      1668      1671      1668      1671      1673      1674
      1668      1671      1673      1675      1669      1668      1671      1672
      1669      1668      1671      1673      1670      1668      1671      1672
      1670      1668      1671      1673      1671      1673      1675      1676
      1671      1673      1675      1677      1671      1673      1675      1678
      1672      1671      1673      1674      1672      1671      1673      1675
      1673      1675      1678      1679      1673      1675      1678      1680
      1673      1675      1678      1681      1674      1673      1675      1676
      1674      1673      1675      1677      1674      1673      1675      1678
      1675      1678      1681      1682      1675      1678      1681      1683
      1675      1678      1681      1684      1676      1675      1678      1679
      1676      1675      1678      1680      1676      1675      1678      1681
      1677      1675      1678      1679      1677      1675      1678      1680
      1677      1675      1678      1681      1678      1681      1684      1685
      1678      1681      1684      1686      1678      1681      1684      1687
      1679      1678      1681      1682      1679      1678      1681      1683
      1679      1678      1681      1684      1680      1678      1681      1682
      1680      1678      1681      1683      1680      1678      1681      1684
      1681      1684      1687      1688      1681      1684      1687      1689
      1681      1684      1687      1690      1682      1681      1684      1685
      1682      1681      1684      1686      1682      1681      1684      1687
      1683      1681      1684      1685      1683      1681      1684      1686
      1683      1681      1684      1687      1684      1687      1690      1691
      1684      1687      1690      1692      1684      1687      1690      1693
      1685      1684      1687      1688      1685      1684      1687      1689
      1685      1684      1687      1690      1686      1684      1687      1688
      1686      1684      1687      1689      1686      1684      1687      1690
      1687      1690      1693      1694      1687      1690      1693      1695
      1687      1690      1693      1696      1688      1687      1690      1691
      1688      1687      1690      1692      1688      1687      1690      1693
      1689      1687      1690      1691      1689      1687      1690      1692
      1689      1687      1690      1693      1690      1693      1696      1697
      1690      1693      1696      1698      1690      1693      1696      1699
      1691      1690      1693      1694      1691      1690      1693      1695
      1691      1690      1693      1696      1692      1690      1693      1694
      1692      1690      1693      1695      1692      1690      1693      1696
      1694      1693      1696      1697      1694      1693      1696      1698
      1694      1693      1696      1699      1695      1693      1696      1697
      1695      1693      1696      1698      1695      1693      1696      1699
      1700      1703      1706      1707      1700      1703      1706      1708
      1700      1703      1706      1709      1701      1700      1703      1704
      1701      1700      1703      1705      1701      1700      1703      1706
      1702      1700      1703      1704      1702      1700      1703      1705
      1702      1700      1703      1706      1703      1706      1709      1710
      1703      1706      1709      1711      1703      1706      1709      1712
      1704      1703      1706      1707      1704      1703      1706      1708
      1704      1703      1706      1709      1705      1703      1706      1707
      1705      1703      1706      1708      1705      1703      1706      1709
      1706      1709      1712      1713      1706      1709      1712      1714
      1706      1709      1712      1715      1707      1706      1709      1710
      1707      1706      1709      1711      1707      1706      1709      1712
      1708      1706      1709      1710      1708      1706      1709      1711
      1708      1706      1709      1712      1709      1712      1715      1716
      1709      1712      1715      1717      1709      1712      1715      1718
      1710      1709      1712      1713      1710      1709      1712      1714
      1710      1709      1712      1715      1711      1709      1712      1713
      1711      1709      1712      1714      1711      1709      1712      1715
      1712      1715      1718      1719      1712      1715      1718      1720
      1712      1715      1718      1721      1713      1712      1715      1716
      1713      1712      1715      1717      1713      1712      1715      1718
      1714      1712      1715      1716      1714      1712      1715      1717
      1714      1712      1715      1718      1715      1718      1721      1722
      1715      1718      1721      1723      1715      1718      1721      1724
      1716      1715      1718      1719      1716      1715      1718      1720
      1716      1715      1718      1721      1717      1715      1718      1719
      1717      1715      1718      1720      1717      1715      1718      1721
      1718      1721      1724      1725      1718      1721      1724      1726
      1718      1721      1724      1727      1719      1718      1721      1722
      1719      1718      1721      1723      1719      1718      1721      1724
      1720      1718      1721      1722      1720      1718      1721      1723
      1720      1718      1721      1724      1721      1724      1727      1728
      1721      1724      1727      1729      1721      1724      1727      1730
      1722      1721      1724      1725      1722      1721      1724      1726
      1722      1721      1724      1727      1723      1721      1724      1725
      1723      1721      1724      1726      1723      1721      1724      1727
      1724      1727      1730      1731      1724      1727      1730      1732
      1724      1727      1730      1733      1725      1724      1727      1728
      1725      1724      1727      1729      1725      1724      1727      1730
      1726      1724      1727      1728      1726      1724      1727      1729
      1726      1724      1727      1730      1727      1730      1733      1734
      1727      1730      1733      1735      1727      1730      1733      1736
      1728      1727      1730      1731      1728      1727      1730      1732
      1728      1727      1730      1733      1729      1727      1730      1731
      1729      1727      1730      1732      1729      1727      1730      1733
      1730      1733      1736      1737      1730      1733      1736      1738
      1730      1733      1736      1739      1731      1730      1733      1734
      1731      1730      1733      1735      1731      1730      1733      1736
      1732      1730      1733      1734      1732      1730      1733      1735
      1732      1730      1733      1736      1733      1736      1739      1740
      1733      1736      1739      1741      1733      1736      1739      1742
      1734      1733      1736      1737      1734      1733      1736      1738
      1734      1733      1736      1739      1735      1733      1736      1737
      1735      1733      1736      1738      1735      1733      1736      1739
      1737      1736      1739      1740      1737      1736      1739      1741
      1737      1736      1739      1742      1738      1736      1739      1740
      1738      1736      1739      1741      1738      1736      1739      1742
      1743      1744      1759      1760      1743      1744      1759      1761
      1743      1744      1759      1765      1744      1743      1747      1748
      1744      1743      1747      1749      1744      1743      1747      1750
      1744      1743      1751      1752      1744      1743      1751      1753
      1744      1743      1751      1754      1744      1743      1755      1756
      1744      1743      1755      1757      1744      1743      1755      1758
      1744      1759      1765      1762      1745      1744      1743      1747
      1745      1744      1743      1751      1745      1744      1743      1755
      1745      1744      1759      1760      1745      1744      1759      1761
      1745      1744      1759      1765      1746      1744      1743      1747
      1746      1744      1743      1751      1746      1744      1743      1755
      1746      1744      1759      1760      1746      1744      1759      1761
      1746      1744      1759      1765      1747      1743      1744      1759
      1747      1743      1751      1752      1747      1743      1751      1753
      1747      1743      1751      1754      1747      1743      1755      1756
      1747      1743      1755      1757      1747      1743      1755      1758
      1748      1747      1743      1751      1748      1747      1743      1755
      1749      1747      1743      1751      1749      1747      1743      1755
      1750      1747      1743      1751      1750      1747      1743      1755
      1751      1743      1744      1759      1751      1743      1755      1756
      1751      1743      1755      1757      1751      1743      1755      1758
      1752      1751      1743      1755      1753      1751      1743      1755
      1754      1751      1743      1755      1755      1743      1744      1759
      1759      1765      1762      1763      1759      1765      1762      1764
      1759      1765      1762      1766      1760      1759      1765      1762
      1761      1759      1765      1762      1762      1766      1767      1768
      1762      1766      1767      1769      1762      1766      1767      1770
      1763      1762      1766      1767      1764      1762      1766      1767
      1765      1762      1766      1767      1766      1767      1770      1771
      1766      1767      1770      1772      1766      1767      1770      1778
      1767      1770      1772      1773      1767      1770      1778      1779
      1767      1770      1778      1780      1767      1770      1778      1781
      1768      1767      1770      1771      1768      1767      1770      1772
      1768      1767      1770      1778      1769      1767      1770      1771
      1769      1767      1770      1772      1769      1767      1770      1778
      1770      1772      1773      1774      1770      1772      1773      1775
      1770      1778      1781      1782      1771      1770      1772      1773
      1771      1770      1778      1779      1771      1770      1778      1780
      1771      1770      1778      1781      1772      1770      1778      1779
      1772      1770      1778      1780      1772      1770      1778      1781
      1772      1773      1775      1776      1772      1773      1775      1777
      1772      1773      1775      1787      1773      1772      1770      1778
      1773      1775      1787      1788      1773      1775      1787      1789
      1773      1775      1787      1790      1774      1773      1775      1776
      1774      1773      1775      1777      1774      1773      1775      1787
      1775      1787      1790      1791      1775      1787      1790      1792
      1775      1787      1790      1793      1776      1775      1787      1788
      1776      1775      1787      1789      1776      1775      1787      1790
      1777      1775      1787      1788      1777      1775      1787      1789
      1777      1775      1787      1790      1778      1781      1782      1783
      1778      1781      1782      1784      1779      1778      1781      1782
      1780      1778      1781      1782      1781      1782      1784      1785
      1781      1782      1784      1786      1781      1782      1784      1834
      1782      1784      1834      1835      1782      1784      1834      1836
      1782      1784      1834      1837      1783      1782      1784      1785
      1783      1782      1784      1786      1783      1782      1784      1834
      1784      1834      1837      1838      1784      1834      1837      1839
      1784      1834      1837      1840      1785      1784      1834      1835
      1785      1784      1834      1836      1785      1784      1834      1837
      1786      1784      1834      1835      1786      1784      1834      1836
      1786      1784      1834      1837      1787      1790      1793      1794
      1787      1790      1793      1795      1787      1790      1793      1796
      1788      1787      1790      1791      1788      1787      1790      1792
      1788      1787      1790      1793      1789      1787      1790      1791
      1789      1787      1790      1792      1789      1787      1790      1793
      1790      1793      1796      1797      1790      1793      1796      1798
      1790      1793      1796      1799      1791      1790      1793      1794
      1791      1790      1793      1795      1791      1790      1793      1796
      1792      1790      1793      1794      1792      1790      1793      1795
      1792      1790      1793      1796      1793      1796      1799      1800
      1793      1796      1799      1801      1793      1796      1799      1802
      1794      1793      1796      1797      1794      1793      1796      1798
      1794      1793      1796      1799      1795      1793      1796      1797
      1795      1793      1796      1798      1795      1793      1796      1799
      1796      1799      1802      1803      1796      1799      1802      1804
      1796      1799      1802      1805      1797      1796      1799      1800
      1797      1796      1799      1801      1797      1796      1799      1802
      1798      1796      1799      1800      1798      1796      1799      1801
      1798      1796      1799      1802      1799      1802      1805      1806
      1799      1802      1805      1807      1800      1799      1802      1803
      1800      1799      1802      1804      1800      1799      1802      1805
      1801      1799      1802      1803      1801      1799      1802      1804
      1801      1799      1802      1805      1802      1805      1807      1808
      1802      1805      1807      1809      1803      1802      1805      1806
      1803      1802      1805      1807      1804      1802      1805      1806
      1804      1802      1805      1807      1805      1807      1809      1810
      1805      1807      1809      1811      1805      1807      1809      1812
      1806      1805      1807      1808      1806      1805      1807      1809
      1807      1809      1812      1813      1807      1809      1812      1814
      1807      1809      1812      1815      1808      1807      1809      1810
      1808      1807      1809      1811      1808      1807      1809      1812
      1809      1812      1815      1816      1809      1812      1815      1817
      1809      1812      1815      1818      1810      1809      1812      1813
      1810      1809      1812      1814      1810      1809      1812      1815
      1811      1809      1812      1813      1811      1809      1812      1814
      1811      1809      1812      1815      1812      1815      1818      1819
      1812      1815      1818      1820      1812      1815      1818      1821
      1813      1812      1815      1816      1813      1812      1815      1817
      1813      1812      1815      1818      1814      1812      1815      1816
      1814      1812      1815      1817      1814      1812      1815      1818
      1815      1818      1821      1822      1815      1818      1821      1823
      1815      1818      1821      1824      1816      1815      1818      1819
      1816      1815      1818      1820      1816      1815      1818      1821
      1817      1815      1818      1819      1817      1815      1818      1820
      1817      1815      1818      1821      1818      1821      1824      1825
      1818      1821      1824      1826      1818      1821      1824      1827
      1819      1818      1821      1822      1819      1818      1821      1823
      1819      1818      1821      1824      1820      1818      1821      1822
      1820      1818      1821      1823      1820      1818      1821      1824
      1821      1824      1827      1828      1821      1824      1827      1829
      1821      1824      1827      1830      1822      1821      1824      1825
      1822      1821      1824      1826      1822      1821      1824      1827
      1823      1821      1824      1825      1823      1821      1824      1826
      1823      1821      1824      1827      1824      1827      1830      1831
      1824      1827      1830      1832      1824      1827      1830      1833
      1825      1824      1827      1828      1825      1824      1827      1829
      1825      1824      1827      1830      1826      1824      1827      1828
      1826      1824      1827      1829      1826      1824      1827      1830
      1828      1827      1830      1831      1828      1827      1830      1832
      1828      1827      1830      1833      1829      1827      1830      1831
      1829      1827      1830      1832      1829      1827      1830      1833
      1834      1837      1840      1841      1834      1837      1840      1842
      1834      1837      1840      1843      1835      1834      1837      1838
      1835      1834      1837      1839      1835      1834      1837      1840
      1836      1834      1837      1838      1836      1834      1837      1839
      1836      1834      1837      1840      1837      1840      1843      1844
      1837      1840      1843      1845      1837      1840      1843      1846
      1838      1837      1840      1841      1838      1837      1840      1842
      1838      1837      1840      1843      1839      1837      1840      1841
      1839      1837      1840      1842      1839      1837      1840      1843
      1840      1843      1846      1847      1840      1843      1846      1848
      1840      1843      1846      1849      1841      1840      1843      1844
      1841      1840      1843      1845      1841      1840      1843      1846
      1842      1840      1843      1844      1842      1840      1843      1845
      1842      1840      1843      1846      1843      1846      1849      1850
      1843      1846      1849      1851      1843      1846      1849      1852
      1844      1843      1846      1847      1844      1843      1846      1848
      1844      1843      1846      1849      1845      1843      1846      1847
      1845      1843      1846      1848      1845      1843      1846      1849
      1846      1849      1852      1853      1846      1849      1852      1854
      1846      1849      1852      1855      1847      1846      1849      1850
      1847      1846      1849      1851      1847      1846      1849      1852
      1848      1846      1849      1850      1848      1846      1849      1851
      1848      1846      1849      1852      1849      1852      1855      1856
      1849      1852      1855      1857      1849      1852      1855      1858
      1850      1849      1852      1853      1850      1849      1852      1854
      1850      1849      1852      1855      1851      1849      1852      1853
      1851      1849      1852      1854      1851      1849      1852      1855
      1852      1855      1858      1859      1852      1855      1858      1860
      1852      1855      1858      1861      1853      1852      1855      1856
      1853      1852      1855      1857      1853      1852      1855      1858
      1854      1852      1855      1856      1854      1852      1855      1857
      1854      1852      1855      1858      1855      1858      1861      1862
      1855      1858      1861      1863      1855      1858      1861      1864
      1856      1855      1858      1859      1856      1855      1858      1860
      1856      1855      1858      1861      1857      1855      1858      1859
      1857      1855      1858      1860      1857      1855      1858      1861
      1858      1861      1864      1865      1858      1861      1864      1866
      1858      1861      1864      1867      1859      1858      1861      1862
      1859      1858      1861      1863      1859      1858      1861      1864
      1860      1858      1861      1862      1860      1858      1861      1863
      1860      1858      1861      1864      1861      1864      1867      1868
      1861      1864      1867      1869      1861      1864      1867      1870
      1862      1861      1864      1865      1862      1861      1864      1866
      1862      1861      1864      1867      1863      1861      1864      1865
      1863      1861      1864      1866      1863      1861      1864      1867
      1864      1867      1870      1871      1864      1867      1870      1872
      1864      1867      1870      1873      1865      1864      1867      1868
      1865      1864      1867      1869      1865      1864      1867      1870
      1866      1864      1867      1868      1866      1864      1867      1869
      1866      1864      1867      1870      1867      1870      1873      1874
      1867      1870      1873      1875      1867      1870      1873      1876
      1868      1867      1870      1871      1868      1867      1870      1872
      1868      1867      1870      1873      1869      1867      1870      1871
      1869      1867      1870      1872      1869      1867      1870      1873
      1871      1870      1873      1874      1871      1870      1873      1875
      1871      1870      1873      1876      1872      1870      1873      1874
      1872      1870      1873      1875      1872      1870      1873      1876
      1877      1878      1893      1894      1877      1878      1893      1895
      1877      1878      1893      1899      1878      1877      1881      1882
      1878      1877      1881      1883      1878      1877      1881      1884
      1878      1877      1885      1886      1878      1877      1885      1887
      1878      1877      1885      1888      1878      1877      1889      1890
      1878      1877      1889      1891      1878      1877      1889      1892
      1878      1893      1899      1896      1879      1878      1877      1881
      1879      1878      1877      1885      1879      1878      1877      1889
      1879      1878      1893      1894      1879      1878      1893      1895
      1879      1878      1893      1899      1880      1878      1877      1881
      1880      1878      1877      1885      1880      1878      1877      1889
      1880      1878      1893      1894      1880      1878      1893      1895
      1880      1878      1893      1899      1881      1877      1878      1893
      1881      1877      1885      1886      1881      1877      1885      1887
      1881      1877      1885      1888      1881      1877      1889      1890
      1881      1877      1889      1891      1881      1877      1889      1892
      1882      1881      1877      1885      1882      1881      1877      1889
      1883      1881      1877      1885      1883      1881      1877      1889
      1884      1881      1877      1885      1884      1881      1877      1889
      1885      1877      1878      1893      1885      1877      1889      1890
      1885      1877      1889      1891      1885      1877      1889      1892
      1886      1885      1877      1889      1887      1885      1877      1889
      1888      1885      1877      1889      1889      1877      1878      1893
      1893      1899      1896      1897      1893      1899      1896      1898
      1893      1899      1896      1900      1894      1893      1899      1896
      1895      1893      1899      1896      1896      1900      1901      1902
      1896      1900      1901      1903      1896      1900      1901      1904
      1897      1896      1900      1901      1898      1896      1900      1901
      1899      1896      1900      1901      1900      1901      1904      1905
      1900      1901      1904      1906      1900      1901      1904      1912
      1901      1904      1906      1907      1901      1904      1912      1913
      1901      1904      1912      1914      1901      1904      1912      1915
      1902      1901      1904      1905      1902      1901      1904      1906
      1902      1901      1904      1912      1903      1901      1904      1905
      1903      1901      1904      1906      1903      1901      1904      1912
      1904      1906      1907      1908      1904      1906      1907      1909
      1904      1912      1915      1916      1905      1904      1906      1907
      1905      1904      1912      1913      1905      1904      1912      1914
      1905      1904      1912      1915      1906      1904      1912      1913
      1906      1904      1912      1914      1906      1904      1912      1915
      1906      1907      1909      1910      1906      1907      1909      1911
      1906      1907      1909      1921      1907      1906      1904      1912
      1907      1909      1921      1922      1907      1909      1921      1923
      1907      1909      1921      1924      1908      1907      1909      1910
      1908      1907      1909      1911      1908      1907      1909      1921
      1909      1921      1924      1925      1909      1921      1924      1926
      1909      1921      1924      1927      1910      1909      1921      1922
      1910      1909      1921      1923      1910      1909      1921      1924
      1911      1909      1921      1922      1911      1909      1921      1923
      1911      1909      1921      1924      1912      1915      1916      1917
      1912      1915      1916      1918      1913      1912      1915      1916
      1914      1912      1915      1916      1915      1916      1918      1919
      1915      1916      1918      1920      1915      1916      1918      1968
      1916      1918      1968      1969      1916      1918      1968      1970
      1916      1918      1968      1971      1917      1916      1918      1919
      1917      1916      1918      1920      1917      1916      1918      1968
      1918      1968      1971      1972      1918      1968      1971      1973
      1918      1968      1971      1974      1919      1918      1968      1969
      1919      1918      1968      1970      1919      1918      1968      1971
      1920      1918      1968      1969      1920      1918      1968      1970
      1920      1918      1968      1971      1921      1924      1927      1928
      1921      1924      1927      1929      1921      1924      1927      1930
      1922      1921      1924      1925      1922      1921      1924      1926
      1922      1921      1924      1927      1923      1921      1924      1925
      1923      1921      1924      1926      1923      1921      1924      1927
      1924      1927      1930      1931      1924      1927      1930      1932
      1924      1927      1930      1933      1925      1924      1927      1928
      1925      1924      1927      1929      1925      1924      1927      1930
      1926      1924      1927      1928      1926      1924      1927      1929
      1926      1924      1927      1930      1927      1930      1933      1934
      1927      1930      1933      1935      1927      1930      1933      1936
      1928      1927      1930      1931      1928      1927      1930      1932
      1928      1927      1930      1933      1929      1927      1930      1931
      1929      1927      1930      1932      1929      1927      1930      1933
      1930      1933      1936      1937      1930      1933      1936      1938
      1930      1933      1936      1939      1931      1930      1933      1934
      1931      1930      1933      1935      1931      1930      1933      1936
      1932      1930      1933      1934      1932      1930      1933      1935
      1932      1930      1933      1936      1933      1936      1939      1940
      1933      1936      1939      1941      1934      1933      1936      1937
      1934      1933      1936      1938      1934      1933      1936      1939
      1935      1933      1936      1937      1935      1933      1936      1938
      1935      1933      1936      1939      1936      1939      1941      1942
      1936      1939      1941      1943      1937      1936      1939      1940
      1937      1936      1939      1941      1938      1936      1939      1940
      1938      1936      1939      1941      1939      1941      1943      1944
      1939      1941      1943      1945      1939      1941      1943      1946
      1940      1939      1941      1942      1940      1939      1941      1943
      1941      1943      1946      1947      1941      1943      1946      1948
      1941      1943      1946      1949      1942      1941      1943      1944
      1942      1941      1943      1945      1942      1941      1943      1946
      1943      1946      1949      1950      1943      1946      1949      1951
      1943      1946      1949      1952      1944      1943      1946      1947
      1944      1943      1946      1948      1944      1943      1946      1949
      1945      1943      1946      1947      1945      1943      1946      1948
      1945      1943      1946      1949      1946      1949      1952      1953
      1946      1949      1952      1954      1946      1949      1952      1955
      1947      1946      1949      1950      1947      1946      1949      1951
      1947      1946      1949      1952      1948      1946      1949      1950
      1948      1946      1949      1951      1948      1946      1949      1952
      1949      1952      1955      1956      1949      1952      1955      1957
      1949      1952      1955      1958      1950      1949      1952      1953
      1950      1949      1952      1954      1950      1949      1952      1955
      1951      1949      1952      1953      1951      1949      1952      1954
      1951      1949      1952      1955      1952      1955      1958      1959
      1952      1955      1958      1960      1952      1955      1958      1961
      1953      1952      1955      1956      1953      1952      1955      1957
      1953      1952      1955      1958      1954      1952      1955      1956
      1954      1952      1955      1957      1954      1952      1955      1958
      1955      1958      1961      1962      1955      1958      1961      1963
      1955      1958      1961      1964      1956      1955      1958      1959
      1956      1955      1958      1960      1956      1955      1958      1961
      1957      1955      1958      1959      1957      1955      1958      1960
      1957      1955      1958      1961      1958      1961      1964      1965
      1958      1961      1964      1966      1958      1961      1964      1967
      1959      1958      1961      1962      1959      1958      1961      1963
      1959      1958      1961      1964      1960      1958      1961      1962
      1960      1958      1961      1963      1960      1958      1961      1964
      1962      1961      1964      1965      1962      1961      1964      1966
      1962      1961      1964      1967      1963      1961      1964      1965
      1963      1961      1964      1966      1963      1961      1964      1967
      1968      1971      1974      1975      1968      1971      1974      1976
      1968      1971      1974      1977      1969      1968      1971      1972
      1969      1968      1971      1973      1969      1968      1971      1974
      1970      1968      1971      1972      1970      1968      1971      1973
      1970      1968      1971      1974      1971      1974      1977      1978
      1971      1974      1977      1979      1971      1974      1977      1980
      1972      1971      1974      1975      1972      1971      1974      1976
      1972      1971      1974      1977      1973      1971      1974      1975
      1973      1971      1974      1976      1973      1971      1974      1977
      1974      1977      1980      1981      1974      1977      1980      1982
      1974      1977      1980      1983      1975      1974      1977      1978
      1975      1974      1977      1979      1975      1974      1977      1980
      1976      1974      1977      1978      1976      1974      1977      1979
      1976      1974      1977      1980      1977      1980      1983      1984
      1977      1980      1983      1985      1977      1980      1983      1986
      1978      1977      1980      1981      1978      1977      1980      1982
      1978      1977      1980      1983      1979      1977      1980      1981
      1979      1977      1980      1982      1979      1977      1980      1983
      1980      1983      1986      1987      1980      1983      1986      1988
      1980      1983      1986      1989      1981      1980      1983      1984
      1981      1980      1983      1985      1981      1980      1983      1986
      1982      1980      1983      1984      1982      1980      1983      1985
      1982      1980      1983      1986      1983      1986      1989      1990
      1983      1986      1989      1991      1983      1986      1989      1992
      1984      1983      1986      1987      1984      1983      1986      1988
      1984      1983      1986      1989      1985      1983      1986      1987
      1985      1983      1986      1988      1985      1983      1986      1989
      1986      1989      1992      1993      1986      1989      1992      1994
      1986      1989      1992      1995      1987      1986      1989      1990
      1987      1986      1989      1991      1987      1986      1989      1992
      1988      1986      1989      1990      1988      1986      1989      1991
      1988      1986      1989      1992      1989      1992      1995      1996
      1989      1992      1995      1997      1989      1992      1995      1998
      1990      1989      1992      1993      1990      1989      1992      1994
      1990      1989      1992      1995      1991      1989      1992      1993
      1991      1989      1992      1994      1991      1989      1992      1995
      1992      1995      1998      1999      1992      1995      1998      2000
      1992      1995      1998      2001      1993      1992      1995      1996
      1993      1992      1995      1997      1993      1992      1995      1998
      1994      1992      1995      1996      1994      1992      1995      1997
      1994      1992      1995      1998      1995      1998      2001      2002
      1995      1998      2001      2003      1995      1998      2001      2004
      1996      1995      1998      1999      1996      1995      1998      2000
      1996      1995      1998      2001      1997      1995      1998      1999
      1997      1995      1998      2000      1997      1995      1998      2001
      1998      2001      2004      2005      1998      2001      2004      2006
      1998      2001      2004      2007      1999      1998      2001      2002
      1999      1998      2001      2003      1999      1998      2001      2004
      2000      1998      2001      2002      2000      1998      2001      2003
      2000      1998      2001      2004      2001      2004      2007      2008
      2001      2004      2007      2009      2001      2004      2007      2010
      2002      2001      2004      2005      2002      2001      2004      2006
      2002      2001      2004      2007      2003      2001      2004      2005
      2003      2001      2004      2006      2003      2001      2004      2007
      2005      2004      2007      2008      2005      2004      2007      2009
      2005      2004      2007      2010      2006      2004      2007      2008
      2006      2004      2007      2009      2006      2004      2007      2010
      2011      2012      2027      2028      2011      2012      2027      2029
      2011      2012      2027      2033      2012      2011      2015      2016
      2012      2011      2015      2017      2012      2011      2015      2018
      2012      2011      2019      2020      2012      2011      2019      2021
      2012      2011      2019      2022      2012      2011      2023      2024
      2012      2011      2023      2025      2012      2011      2023      2026
      2012      2027      2033      2030      2013      2012      2011      2015
      2013      2012      2011      2019      2013      2012      2011      2023
      2013      2012      2027      2028      2013      2012      2027      2029
      2013      2012      2027      2033      2014      2012      2011      2015
      2014      2012      2011      2019      2014      2012      2011      2023
      2014      2012      2027      2028      2014      2012      2027      2029
      2014      2012      2027      2033      2015      2011      2012      2027
      2015      2011      2019      2020      2015      2011      2019      2021
      2015      2011      2019      2022      2015      2011      2023      2024
      2015      2011      2023      2025      2015      2011      2023      2026
      2016      2015      2011      2019      2016      2015      2011      2023
      2017      2015      2011      2019      2017      2015      2011      2023
      2018      2015      2011      2019      2018      2015      2011      2023
      2019      2011      2012      2027      2019      2011      2023      2024
      2019      2011      2023      2025      2019      2011      2023      2026
      2020      2019      2011      2023      2021      2019      2011      2023
      2022      2019      2011      2023      2023      2011      2012      2027
      2027      2033      2030      2031      2027      2033      2030      2032
      2027      2033      2030      2034      2028      2027      2033      2030
      2029      2027      2033      2030      2030      2034      2035      2036
      2030      2034      2035      2037      2030      2034      2035      2038
      2031      2030      2034      2035      2032      2030      2034      2035
      2033      2030      2034      2035      2034      2035      2038      2039
      2034      2035      2038      2040      2034      2035      2038      2046
      2035      2038      2040      2041      2035      2038      2046      2047
      2035      2038      2046      2048      2035      2038      2046      2049
      2036      2035      2038      2039      2036      2035      2038      2040
      2036      2035      2038      2046      2037      2035      2038      2039
      2037      2035      2038      2040      2037      2035      2038      2046
      2038      2040      2041      2042      2038      2040      2041      2043
      2038      2046      2049      2050      2039      2038      2040      2041
      2039      2038      2046      2047      2039      2038      2046      2048
      2039      2038      2046      2049      2040      2038      2046      2047
      2040      2038      2046      2048      2040      2038      2046      2049
      2040      2041      2043      2044      2040      2041      2043      2045
      2040      2041      2043      2055      2041      2040      2038      2046
      2041      2043      2055      2056      2041      2043      2055      2057
      2041      2043      2055      2058      2042      2041      2043      2044
      2042      2041      2043      2045      2042      2041      2043      2055
      2043      2055      2058      2059      2043      2055      2058      2060
      2043      2055      2058      2061      2044      2043      2055      2056
      2044      2043      2055      2057      2044      2043      2055      2058
      2045      2043      2055      2056      2045      2043      2055      2057
      2045      2043      2055      2058      2046      2049      2050      2051
      2046      2049      2050      2052      2047      2046      2049      2050
      2048      2046      2049      2050      2049      2050      2052      2053
      2049      2050      2052      2054      2049      2050      2052      2102
      2050      2052      2102      2103      2050      2052      2102      2104
      2050      2052      2102      2105      2051      2050      2052      2053
      2051      2050      2052      2054      2051      2050      2052      2102
      2052      2102      2105      2106      2052      2102      2105      2107
      2052      2102      2105      2108      2053      2052      2102      2103
      2053      2052      2102      2104      2053      2052      2102      2105
      2054      2052      2102      2103      2054      2052      2102      2104
      2054      2052      2102      2105      2055      2058      2061      2062
      2055      2058      2061      2063      2055      2058      2061      2064
      2056      2055      2058      2059      2056      2055      2058      2060
      2056      2055      2058      2061      2057      2055      2058      2059
      2057      2055      2058      2060      2057      2055      2058      2061
      2058      2061      2064      2065      2058      2061      2064      2066
      2058      2061      2064      2067      2059      2058      2061      2062
      2059      2058      2061      2063      2059      2058      2061      2064
      2060      2058      2061      2062      2060      2058      2061      2063
      2060      2058      2061      2064      2061      2064      2067      2068
      2061      2064      2067      2069      2061      2064      2067      2070
      2062      2061      2064      2065      2062      2061      2064      2066
      2062      2061      2064      2067      2063      2061      2064      2065
      2063      2061      2064      2066      2063      2061      2064      2067
      2064      2067      2070      2071      2064      2067      2070      2072
      2064      2067      2070      2073      2065      2064      2067      2068
      2065      2064      2067      2069      2065      2064      2067      2070
      2066      2064      2067      2068      2066      2064      2067      2069
      2066      2064      2067      2070      2067      2070      2073      2074
      2067      2070      2073      2075      2068      2067      2070      2071
      2068      2067      2070      2072      2068      2067      2070      2073
      2069      2067      2070      2071      2069      2067      2070      2072
      2069      2067      2070      2073      2070      2073      2075      2076
      2070      2073      2075      2077      2071      2070      2073      2074
      2071      2070      2073      2075      2072      2070      2073      2074
      2072      2070      2073      2075      2073      2075      2077      2078
      2073      2075      2077      2079      2073      2075      2077      2080
      2074      2073      2075      2076      2074      2073      2075      2077
      2075      2077      2080      2081      2075      2077      2080      2082
      2075      2077      2080      2083      2076      2075      2077      2078
      2076      2075      2077      2079      2076      2075      2077      2080
      2077      2080      2083      2084      2077      2080      2083      2085
      2077      2080      2083      2086      2078      2077      2080      2081
      2078      2077      2080      2082      2078      2077      2080      2083
      2079      2077      2080      2081      2079      2077      2080      2082
      2079      2077      2080      2083      2080      2083      2086      2087
      2080      2083      2086      2088      2080      2083      2086      2089
      2081      2080      2083      2084      2081      2080      2083      2085
      2081      2080      2083      2086      2082      2080      2083      2084
      2082      2080      2083      2085      2082      2080      2083      2086
      2083      2086      2089      2090      2083      2086      2089      2091
      2083      2086      2089      2092      2084      2083      2086      2087
      2084      2083      2086      2088      2084      2083      2086      2089
      2085      2083      2086      2087      2085      2083      2086      2088
      2085      2083      2086      2089      2086      2089      2092      2093
      2086      2089      2092      2094      2086      2089      2092      2095
      2087      2086      2089      2090      2087      2086      2089      2091
      2087      2086      2089      2092      2088      2086      2089      2090
      2088      2086      2089      2091      2088      2086      2089      2092
      2089      2092      2095      2096      2089      2092      2095      2097
      2089      2092      2095      2098      2090      2089      2092      2093
      2090      2089      2092      2094      2090      2089      2092      2095
      2091      2089      2092      2093      2091      2089      2092      2094
      2091      2089      2092      2095      2092      2095      2098      2099
      2092      2095      2098      2100      2092      2095      2098      2101
      2093      2092      2095      2096      2093      2092      2095      2097
      2093      2092      2095      2098      2094      2092      2095      2096
      2094      2092      2095      2097      2094      2092      2095      2098
      2096      2095      2098      2099      2096      2095      2098      2100
      2096      2095      2098      2101      2097      2095      2098      2099
      2097      2095      2098      2100      2097      2095      2098      2101
      2102      2105      2108      2109      2102      2105      2108      2110
      2102      2105      2108      2111      2103      2102      2105      2106
      2103      2102      2105      2107      2103      2102      2105      2108
      2104      2102      2105      2106      2104      2102      2105      2107
      2104      2102      2105      2108      2105      2108      2111      2112
      2105      2108      2111      2113      2105      2108      2111      2114
      2106      2105      2108      2109      2106      2105      2108      2110
      2106      2105      2108      2111      2107      2105      2108      2109
      2107      2105      2108      2110      2107      2105      2108      2111
      2108      2111      2114      2115      2108      2111      2114      2116
      2108      2111      2114      2117      2109      2108      2111      2112
      2109      2108      2111      2113      2109      2108      2111      2114
      2110      2108      2111      2112      2110      2108      2111      2113
      2110      2108      2111      2114      2111      2114      2117      2118
      2111      2114      2117      2119      2111      2114      2117      2120
      2112      2111      2114      2115      2112      2111      2114      2116
      2112      2111      2114      2117      2113      2111      2114      2115
      2113      2111      2114      2116      2113      2111      2114      2117
      2114      2117      2120      2121      2114      2117      2120      2122
      2114      2117      2120      2123      2115      2114      2117      2118
      2115      2114      2117      2119      2115      2114      2117      2120
      2116      2114      2117      2118      2116      2114      2117      2119
      2116      2114      2117      2120      2117      2120      2123      2124
      2117      2120      2123      2125      2117      2120      2123      2126
      2118      2117      2120      2121      2118      2117      2120      2122
      2118      2117      2120      2123      2119      2117      2120      2121
      2119      2117      2120      2122      2119      2117      2120      2123
      2120      2123      2126      2127      2120      2123      2126      2128
      2120      2123      2126      2129      2121      2120      2123      2124
      2121      2120      2123      2125      2121      2120      2123      2126
      2122      2120      2123      2124      2122      2120      2123      2125
      2122      2120      2123      2126      2123      2126      2129      2130
      2123      2126      2129      2131      2123      2126      2129      2132
      2124      2123      2126      2127      2124      2123      2126      2128
      2124      2123      2126      2129      2125      2123      2126      2127
      2125      2123      2126      2128      2125      2123      2126      2129
      2126      2129      2132      2133      2126      2129      2132      2134
      2126      2129      2132      2135      2127      2126      2129      2130
      2127      2126      2129      2131      2127      2126      2129      2132
      2128      2126      2129      2130      2128      2126      2129      2131
      2128      2126      2129      2132      2129      2132      2135      2136
      2129      2132      2135      2137      2129      2132      2135      2138
      2130      2129      2132      2133      2130      2129      2132      2134
      2130      2129      2132      2135      2131      2129      2132      2133
      2131      2129      2132      2134      2131      2129      2132      2135
      2132      2135      2138      2139      2132      2135      2138      2140
      2132      2135      2138      2141      2133      2132      2135      2136
      2133      2132      2135      2137      2133      2132      2135      2138
      2134      2132      2135      2136      2134      2132      2135      2137
      2134      2132      2135      2138      2135      2138      2141      2142
      2135      2138      2141      2143      2135      2138      2141      2144
      2136      2135      2138      2139      2136      2135      2138      2140
      2136      2135      2138      2141      2137      2135      2138      2139
      2137      2135      2138      2140      2137      2135      2138      2141
      2139      2138      2141      2142      2139      2138      2141      2143
      2139      2138      2141      2144      2140      2138      2141      2142
      2140      2138      2141      2143      2140      2138      2141      2144
      2145      2146      2161      2162      2145      2146      2161      2163
      2145      2146      2161      2167      2146      2145      2149      2150
      2146      2145      2149      2151      2146      2145      2149      2152
      2146      2145      2153      2154      2146      2145      2153      2155
      2146      2145      2153      2156      2146      2145      2157      2158
      2146      2145      2157      2159      2146      2145      2157      2160
      2146      2161      2167      2164      2147      2146      2145      2149
      2147      2146      2145      2153      2147      2146      2145      2157
      2147      2146      2161      2162      2147      2146      2161      2163
      2147      2146      2161      2167      2148      2146      2145      2149
      2148      2146      2145      2153      2148      2146      2145      2157
      2148      2146      2161      2162      2148      2146      2161      2163
      2148      2146      2161      2167      2149      2145      2146      2161
      2149      2145      2153      2154      2149      2145      2153      2155
      2149      2145      2153      2156      2149      2145      2157      2158
      2149      2145      2157      2159      2149      2145      2157      2160
      2150      2149      2145      2153      2150      2149      2145      2157
      2151      2149      2145      2153      2151      2149      2145      2157
      2152      2149      2145      2153      2152      2149      2145      2157
      2153      2145      2146      2161      2153      2145      2157      2158
      2153      2145      2157      2159      2153      2145      2157      2160
      2154      2153      2145      2157      2155      2153      2145      2157
      2156      2153      2145      2157      2157      2145      2146      2161
      2161      2167      2164      2165      2161      2167      2164      2166
      2161      2167      2164      2168      2162      2161      2167      2164
      2163      2161      2167      2164      2164      2168      2169      2170
      2164      2168      2169      2171      2164      2168      2169      2172
      2165      2164      2168      2169      2166      2164      2168      2169
      2167      2164      2168      2169      2168      2169      2172      2173
      2168      2169      2172      2174      2168      2169      2172      2180
      2169      2172      2174      2175      2169      2172      2180      2181
      2169      2172      2180      2182      2169      2172      2180      2183
      2170      2169      2172      2173      2170      2169      2172      2174
      2170      2169      2172      2180      2171      2169      2172      2173
      2171      2169      2172      2174      2171      2169      2172      2180
      2172      2174      2175      2176      2172      2174      2175      2177
      2172      2180      2183      2184      2173      2172      2174      2175
      2173      2172      2180      2181      2173      2172      2180      2182
      2173      2172      2180      2183      2174      2172      2180      2181
      2174      2172      2180      2182      2174      2172      2180      2183
      2174      2175      2177      2178      2174      2175      2177      2179
      2174      2175      2177      2189      2175      2174      2172      2180
      2175      2177      2189      2190      2175      2177      2189      2191
      2175      2177      2189      2192      2176      2175      2177      2178
      2176      2175      2177      2179      2176      2175      2177      2189
      2177      2189      2192      2193      2177      2189      2192      2194
      2177      2189      2192      2195      2178      2177      2189      2190
      2178      2177      2189      2191      2178      2177      2189      2192
      2179      2177      2189      2190      2179      2177      2189      2191
      2179      2177      2189      2192      2180      2183      2184      2185
      2180      2183      2184      2186      2181      2180      2183      2184
      2182      2180      2183      2184      2183      2184      2186      2187
      2183      2184      2186      2188      2183      2184      2186      2236
      2184      2186      2236      2237      2184      2186      2236      2238
      2184      2186      2236      2239      2185      2184      2186      2187
      2185      2184      2186      2188      2185      2184      2186      2236
      2186      2236      2239      2240      2186      2236      2239      2241
      2186      2236      2239      2242      2187      2186      2236      2237
      2187      2186      2236      2238      2187      2186      2236      2239
      2188      2186      2236      2237      2188      2186      2236      2238
      2188      2186      2236      2239      2189      2192      2195      2196
      2189      2192      2195      2197      2189      2192      2195      2198
      2190      2189      2192      2193      2190      2189      2192      2194
      2190      2189      2192      2195      2191      2189      2192      2193
      2191      2189      2192      2194      2191      2189      2192      2195
      2192      2195      2198      2199      2192      2195      2198      2200
      2192      2195      2198      2201      2193      2192      2195      2196
      2193      2192      2195      2197      2193      2192      2195      2198
      2194      2192      2195      2196      2194      2192      2195      2197
      2194      2192      2195      2198      2195      2198      2201      2202
      2195      2198      2201      2203      2195      2198      2201      2204
      2196      2195      2198      2199      2196      2195      2198      2200
      2196      2195      2198      2201      2197      2195      2198      2199
      2197      2195      2198      2200      2197      2195      2198      2201
      2198      2201      2204      2205      2198      2201      2204      2206
      2198      2201      2204      2207      2199      2198      2201      2202
      2199      2198      2201      2203      2199      2198      2201      2204
      2200      2198      2201      2202      2200      2198      2201      2203
      2200      2198      2201      2204      2201      2204      2207      2208
      2201      2204      2207      2209      2202      2201      2204      2205
      2202      2201      2204      2206      2202      2201      2204      2207
      2203      2201      2204      2205      2203      2201      2204      2206
      2203      2201      2204      2207      2204      2207      2209      2210
      2204      2207      2209      2211      2205      2204      2207      2208
      2205      2204      2207      2209      2206      2204      2207      2208
      2206      2204      2207      2209      2207      2209      2211      2212
      2207      2209      2211      2213      2207      2209      2211      2214
      2208      2207      2209      2210      2208      2207      2209      2211
      2209      2211      2214      2215      2209      2211      2214      2216
      2209      2211      2214      2217      2210      2209      2211      2212
      2210      2209      2211      2213      2210      2209      2211      2214
      2211      2214      2217      2218      2211      2214      2217      2219
      2211      2214      2217      2220      2212      2211      2214      2215
      2212      2211      2214      2216      2212      2211      2214      2217
      2213      2211      2214      2215      2213      2211      2214      2216
      2213      2211      2214      2217      2214      2217      2220      2221
      2214      2217      2220      2222      2214      2217      2220      2223
      2215      2214      2217      2218      2215      2214      2217      2219
      2215      2214      2217      2220      2216      2214      2217      2218
      2216      2214      2217      2219      2216      2214      2217      2220
      2217      2220      2223      2224      2217      2220      2223      2225
      2217      2220      2223      2226      2218      2217      2220      2221
      2218      2217      2220      2222      2218      2217      2220      2223
      2219      2217      2220      2221      2219      2217      2220      2222
      2219      2217      2220      2223      2220      2223      2226      2227
      2220      2223      2226      2228      2220      2223      2226      2229
      2221      2220      2223      2224      2221      2220      2223      2225
      2221      2220      2223      2226      2222      2220      2223      2224
      2222      2220      2223      2225      2222      2220      2223      2226
      2223      2226      2229      2230      2223      2226      2229      2231
      2223      2226      2229      2232      2224      2223      2226      2227
      2224      2223      2226      2228      2224      2223      2226      2229
      2225      2223      2226      2227      2225      2223      2226      2228
      2225      2223      2226      2229      2226      2229      2232      2233
      2226      2229      2232      2234      2226      2229      2232      2235
      2227      2226      2229      2230      2227      2226      2229      2231
      2227      2226      2229      2232      2228      2226      2229      2230
      2228      2226      2229      2231      2228      2226      2229      2232
      2230      2229      2232      2233      2230      2229      2232      2234
      2230      2229      2232      2235      2231      2229      2232      2233
      2231      2229      2232      2234      2231      2229      2232      2235
      2236      2239      2242      2243      2236      2239      2242      2244
      2236      2239      2242      2245      2237      2236      2239      2240
      2237      2236      2239      2241      2237      2236      2239      2242
      2238      2236      2239      2240      2238      2236      2239      2241
      2238      2236      2239      2242      2239      2242      2245      2246
      2239      2242      2245      2247      2239      2242      2245      2248
      2240      2239      2242      2243      2240      2239      2242      2244
      2240      2239      2242      2245      2241      2239      2242      2243
      2241      2239      2242      2244      2241      2239      2242      2245
      2242      2245      2248      2249      2242      2245      2248      2250
      2242      2245      2248      2251      2243      2242      2245      2246
      2243      2242      2245      2247      2243      2242      2245      2248
      2244      2242      2245      2246      2244      2242      2245      2247
      2244      2242      2245      2248      2245      2248      2251      2252
      2245      2248      2251      2253      2245      2248      2251      2254
      2246      2245      2248      2249      2246      2245      2248      2250
      2246      2245      2248      2251      2247      2245      2248      2249
      2247      2245      2248      2250      2247      2245      2248      2251
      2248      2251      2254      2255      2248      2251      2254      2256
      2248      2251      2254      2257      2249      2248      2251      2252
      2249      2248      2251      2253      2249      2248      2251      2254
      2250      2248      2251      2252      2250      2248      2251      2253
      2250      2248      2251      2254      2251      2254      2257      2258
      2251      2254      2257      2259      2251      2254      2257      2260
      2252      2251      2254      2255      2252      2251      2254      2256
      2252      2251      2254      2257      2253      2251      2254      2255
      2253      2251      2254      2256      2253      2251      2254      2257
      2254      2257      2260      2261      2254      2257      2260      2262
      2254      2257      2260      2263      2255      2254      2257      2258
      2255      2254      2257      2259      2255      2254      2257      2260
      2256      2254      2257      2258      2256      2254      2257      2259
      2256      2254      2257      2260      2257      2260      2263      2264
      2257      2260      2263      2265      2257      2260      2263      2266
      2258      2257      2260      2261      2258      2257      2260      2262
      2258      2257      2260      2263      2259      2257      2260      2261
      2259      2257      2260      2262      2259      2257      2260      2263
      2260      2263      2266      2267      2260      2263      2266      2268
      2260      2263      2266      2269      2261      2260      2263      2264
      2261      2260      2263      2265      2261      2260      2263      2266
      2262      2260      2263      2264      2262      2260      2263      2265
      2262      2260      2263      2266      2263      2266      2269      2270
      2263      2266      2269      2271      2263      2266      2269      2272
      2264      2263      2266      2267      2264      2263      2266      2268
      2264      2263      2266      2269      2265      2263      2266      2267
      2265      2263      2266      2268      2265      2263      2266      2269
      2266      2269      2272      2273      2266      2269      2272      2274
      2266      2269      2272      2275      2267      2266      2269      2270
      2267      2266      2269      2271      2267      2266      2269      2272
      2268      2266      2269      2270      2268      2266      2269      2271
      2268      2266      2269      2272      2269      2272      2275      2276
      2269      2272      2275      2277      2269      2272      2275      2278
      2270      2269      2272      2273      2270      2269      2272      2274
      2270      2269      2272      2275      2271      2269      2272      2273
      2271      2269      2272      2274      2271      2269      2272      2275
      2273      2272      2275      2276      2273      2272      2275      2277
      2273      2272      2275      2278      2274      2272      2275      2276
      2274      2272      2275      2277      2274      2272      2275      2278
      2279      2280      2295      2296      2279      2280      2295      2297
      2279      2280      2295      2301      2280      2279      2283      2284
      2280      2279      2283      2285      2280      2279      2283      2286
      2280      2279      2287      2288      2280      2279      2287      2289
      2280      2279      2287      2290      2280      2279      2291      2292
      2280      2279      2291      2293      2280      2279      2291      2294
      2280      2295      2301      2298      2281      2280      2279      2283
      2281      2280      2279      2287      2281      2280      2279      2291
      2281      2280      2295      2296      2281      2280      2295      2297
      2281      2280      2295      2301      2282      2280      2279      2283
      2282      2280      2279      2287      2282      2280      2279      2291
      2282      2280      2295      2296      2282      2280      2295      2297
      2282      2280      2295      2301      2283      2279      2280      2295
      2283      2279      2287      2288      2283      2279      2287      2289
      2283      2279      2287      2290      2283      2279      2291      2292
      2283      2279      2291      2293      2283      2279      2291      2294
      2284      2283      2279      2287      2284      2283      2279      2291
      2285      2283      2279      2287      2285      2283      2279      2291
      2286      2283      2279      2287      2286      2283      2279      2291
      2287      2279      2280      2295      2287      2279      2291      2292
      2287      2279      2291      2293      2287      2279      2291      2294
      2288      2287      2279      2291      2289      2287      2279      2291
      2290      2287      2279      2291      2291      2279      2280      2295
      2295      2301      2298      2299      2295      2301      2298      2300
      2295      2301      2298      2302      2296      2295      2301      2298
      2297      2295      2301      2298      2298      2302      2303      2304
      2298      2302      2303      2305      2298      2302      2303      2306
      2299      2298      2302      2303      2300      2298      2302      2303
      2301      2298      2302      2303      2302      2303      2306      2307
      2302      2303      2306      2308      2302      2303      2306      2314
      2303      2306      2308      2309      2303      2306      2314      2315
      2303      2306      2314      2316      2303      2306      2314      2317
      2304      2303      2306      2307      2304      2303      2306      2308
      2304      2303      2306      2314      2305      2303      2306      2307
      2305      2303      2306      2308      2305      2303      2306      2314
      2306      2308      2309      2310      2306      2308      2309      2311
      2306      2314      2317      2318      2307      2306      2308      2309
      2307      2306      2314      2315      2307      2306      2314      2316
      2307      2306      2314      2317      2308      2306      2314      2315
      2308      2306      2314      2316      2308      2306      2314      2317
      2308      2309      2311      2312      2308      2309      2311      2313
      2308      2309      2311      2323      2309      2308      2306      2314
      2309      2311      2323      2324      2309      2311      2323      2325
      2309      2311      2323      2326      2310      2309      2311      2312
      2310      2309      2311      2313      2310      2309      2311      2323
      2311      2323      2326      2327      2311      2323      2326      2328
      2311      2323      2326      2329      2312      2311      2323      2324
      2312      2311      2323      2325      2312      2311      2323      2326
      2313      2311      2323      2324      2313      2311      2323      2325
      2313      2311      2323      2326      2314      2317      2318      2319
      2314      2317      2318      2320      2315      2314      2317      2318
      2316      2314      2317      2318      2317      2318      2320      2321
      2317      2318      2320      2322      2317      2318      2320      2370
      2318      2320      2370      2371      2318      2320      2370      2372
      2318      2320      2370      2373      2319      2318      2320      2321
      2319      2318      2320      2322      2319      2318      2320      2370
      2320      2370      2373      2374      2320      2370      2373      2375
      2320      2370      2373      2376      2321      2320      2370      2371
      2321      2320      2370      2372      2321      2320      2370      2373
      2322      2320      2370      2371      2322      2320      2370      2372
      2322      2320      2370      2373      2323      2326      2329      2330
      2323      2326      2329      2331      2323      2326      2329      2332
      2324      2323      2326      2327      2324      2323      2326      2328
      2324      2323      2326      2329      2325      2323      2326      2327
      2325      2323      2326      2328      2325      2323      2326      2329
      2326      2329      2332      2333      2326      2329      2332      2334
      2326      2329      2332      2335      2327      2326      2329      2330
      2327      2326      2329      2331      2327      2326      2329      2332
      2328      2326      2329      2330      2328      2326      2329      2331
      2328      2326      2329      2332      2329      2332      2335      2336
      2329      2332      2335      2337      2329      2332      2335      2338
      2330      2329      2332      2333      2330      2329      2332      2334
      2330      2329      2332      2335      2331      2329      2332      2333
      2331      2329      2332      2334      2331      2329      2332      2335
      2332      2335      2338      2339      2332      2335      2338      2340
      2332      2335      2338      2341      2333      2332      2335      2336
      2333      2332      2335      2337      2333      2332      2335      2338
      2334      2332      2335      2336      2334      2332      2335      2337
      2334      2332      2335      2338      2335      2338      2341      2342
      2335      2338      2341      2343      2336      2335      2338      2339
      2336      2335      2338      2340      2336      2335      2338      2341
      2337      2335      2338      2339      2337      2335      2338      2340
      2337      2335      2338      2341      2338      2341      2343      2344
      2338      2341      2343      2345      2339      2338      2341      2342
      2339      2338      2341      2343      2340      2338      2341      2342
      2340      2338      2341      2343      2341      2343      2345      2346
      2341      2343      2345      2347      2341      2343      2345      2348
      2342      2341      2343      2344      2342      2341      2343      2345
      2343      2345      2348      2349      2343      2345      2348      2350
      2343      2345      2348      2351      2344      2343      2345      2346
      2344      2343      2345      2347      2344      2343      2345      2348
      2345      2348      2351      2352      2345      2348      2351      2353
      2345      2348      2351      2354      2346      2345      2348      2349
      2346      2345      2348      2350      2346      2345      2348      2351
      2347      2345      2348      2349      2347      2345      2348      2350
      2347      2345      2348      2351      2348      2351      2354      2355
      2348      2351      2354      2356      2348      2351      2354      2357
      2349      2348      2351      2352      2349      2348      2351      2353
      2349      2348      2351      2354      2350      2348      2351      2352
      2350      2348      2351      2353      2350      2348      2351      2354
      2351      2354      2357      2358      2351      2354      2357      2359
      2351      2354      2357      2360      2352      2351      2354      2355
      2352      2351      2354      2356      2352      2351      2354      2357
      2353      2351      2354      2355      2353      2351      2354      2356
      2353      2351      2354      2357      2354      2357      2360      2361
      2354      2357      2360      2362      2354      2357      2360      2363
      2355      2354      2357      2358      2355      2354      2357      2359
      2355      2354      2357      2360      2356      2354      2357      2358
      2356      2354      2357      2359      2356      2354      2357      2360
      2357      2360      2363      2364      2357      2360      2363      2365
      2357      2360      2363      2366      2358      2357      2360      2361
      2358      2357      2360      2362      2358      2357      2360      2363
      2359      2357      2360      2361      2359      2357      2360      2362
      2359      2357      2360      2363      2360      2363      2366      2367
      2360      2363      2366      2368      2360      2363      2366      2369
      2361      2360      2363      2364      2361      2360      2363      2365
      2361      2360      2363      2366      2362      2360      2363      2364
      2362      2360      2363      2365      2362      2360      2363      2366
      2364      2363      2366      2367      2364      2363      2366      2368
      2364      2363      2366      2369      2365      2363      2366      2367
      2365      2363      2366      2368      2365      2363      2366      2369
      2370      2373      2376      2377      2370      2373      2376      2378
      2370      2373      2376      2379      2371      2370      2373      2374
      2371      2370      2373      2375      2371      2370      2373      2376
      2372      2370      2373      2374      2372      2370      2373      2375
      2372      2370      2373      2376      2373      2376      2379      2380
      2373      2376      2379      2381      2373      2376      2379      2382
      2374      2373      2376      2377      2374      2373      2376      2378
      2374      2373      2376      2379      2375      2373      2376      2377
      2375      2373      2376      2378      2375      2373      2376      2379
      2376      2379      2382      2383      2376      2379      2382      2384
      2376      2379      2382      2385      2377      2376      2379      2380
      2377      2376      2379      2381      2377      2376      2379      2382
      2378      2376      2379      2380      2378      2376      2379      2381
      2378      2376      2379      2382      2379      2382      2385      2386
      2379      2382      2385      2387      2379      2382      2385      2388
      2380      2379      2382      2383      2380      2379      2382      2384
      2380      2379      2382      2385      2381      2379      2382      2383
      2381      2379      2382      2384      2381      2379      2382      2385
      2382      2385      2388      2389      2382      2385      2388      2390
      2382      2385      2388      2391      2383      2382      2385      2386
      2383      2382      2385      2387      2383      2382      2385      2388
      2384      2382      2385      2386      2384      2382      2385      2387
      2384      2382      2385      2388      2385      2388      2391      2392
      2385      2388      2391      2393      2385      2388      2391      2394
      2386      2385      2388      2389      2386      2385      2388      2390
      2386      2385      2388      2391      2387      2385      2388      2389
      2387      2385      2388      2390      2387      2385      2388      2391
      2388      2391      2394      2395      2388      2391      2394      2396
      2388      2391      2394      2397      2389      2388      2391      2392
      2389      2388      2391      2393      2389      2388      2391      2394
      2390      2388      2391      2392      2390      2388      2391      2393
      2390      2388      2391      2394      2391      2394      2397      2398
      2391      2394      2397      2399      2391      2394      2397      2400
      2392      2391      2394      2395      2392      2391      2394      2396
      2392      2391      2394      2397      2393      2391      2394      2395
      2393      2391      2394      2396      2393      2391      2394      2397
      2394      2397      2400      2401      2394      2397      2400      2402
      2394      2397      2400      2403      2395      2394      2397      2398
      2395      2394      2397      2399      2395      2394      2397      2400
      2396      2394      2397      2398      2396      2394      2397      2399
      2396      2394      2397      2400      2397      2400      2403      2404
      2397      2400      2403      2405      2397      2400      2403      2406
      2398      2397      2400      2401      2398      2397      2400      2402
      2398      2397      2400      2403      2399      2397      2400      2401
      2399      2397      2400      2402      2399      2397      2400      2403
      2400      2403      2406      2407      2400      2403      2406      2408
      2400      2403      2406      2409      2401      2400      2403      2404
      2401      2400      2403      2405      2401      2400      2403      2406
      2402      2400      2403      2404      2402      2400      2403      2405
      2402      2400      2403      2406      2403      2406      2409      2410
      2403      2406      2409      2411      2403      2406      2409      2412
      2404      2403      2406      2407      2404      2403      2406      2408
      2404      2403      2406      2409      2405      2403      2406      2407
      2405      2403      2406      2408      2405      2403      2406      2409
      2407      2406      2409      2410      2407      2406      2409      2411
      2407      2406      2409      2412      2408      2406      2409      2410
      2408      2406      2409      2411      2408      2406      2409      2412
      2413      2414      2429      2430      2413      2414      2429      2431
      2413      2414      2429      2435      2414      2413      2417      2418
      2414      2413      2417      2419      2414      2413      2417      2420
      2414      2413      2421      2422      2414      2413      2421      2423
      2414      2413      2421      2424      2414      2413      2425      2426
      2414      2413      2425      2427      2414      2413      2425      2428
      2414      2429      2435      2432      2415      2414      2413      2417
      2415      2414      2413      2421      2415      2414      2413      2425
      2415      2414      2429      2430      2415      2414      2429      2431
      2415      2414      2429      2435      2416      2414      2413      2417
      2416      2414      2413      2421      2416      2414      2413      2425
      2416      2414      2429      2430      2416      2414      2429      2431
      2416      2414      2429      2435      2417      2413      2414      2429
      2417      2413      2421      2422      2417      2413      2421      2423
      2417      2413      2421      2424      2417      2413      2425      2426
      2417      2413      2425      2427      2417      2413      2425      2428
      2418      2417      2413      2421      2418      2417      2413      2425
      2419      2417      2413      2421      2419      2417      2413      2425
      2420      2417      2413      2421      2420      2417      2413      2425
      2421      2413      2414      2429      2421      2413      2425      2426
      2421      2413      2425      2427      2421      2413      2425      2428
      2422      2421      2413      2425      2423      2421      2413      2425
      2424      2421      2413      2425      2425      2413      2414      2429
      2429      2435      2432      2433      2429      2435      2432      2434
      2429      2435      2432      2436      2430      2429      2435      2432
      2431      2429      2435      2432      2432      2436      2437      2438
      2432      2436      2437      2439      2432      2436      2437      2440
      2433      2432      2436      2437      2434      2432      2436      2437
      2435      2432      2436      2437      2436      2437      2440      2441
      2436      2437      2440      2442      2436      2437      2440      2448
      2437      2440      2442      2443      2437      2440      2448      2449
      2437      2440      2448      2450      2437      2440      2448      2451
      2438      2437      2440      2441      2438      2437      2440      2442
      2438      2437      2440      2448      2439      2437      2440      2441
      2439      2437      2440      2442      2439      2437      2440      2448
      2440      2442      2443      2444      2440      2442      2443      2445
      2440      2448      2451      2452      2441      2440      2442      2443
      2441      2440      2448      2449      2441      2440      2448      2450
      2441      2440      2448      2451      2442      2440      2448      2449
      2442      2440      2448      2450      2442      2440      2448      2451
      2442      2443      2445      2446      2442      2443      2445      2447
      2442      2443      2445      2457      2443      2442      2440      2448
      2443      2445      2457      2458      2443      2445      2457      2459
      2443      2445      2457      2460      2444      2443      2445      2446
      2444      2443      2445      2447      2444      2443      2445      2457
      2445      2457      2460      2461      2445      2457      2460      2462
      2445      2457      2460      2463      2446      2445      2457      2458
      2446      2445      2457      2459      2446      2445      2457      2460
      2447      2445      2457      2458      2447      2445      2457      2459
      2447      2445      2457      2460      2448      2451      2452      2453
      2448      2451      2452      2454      2449      2448      2451      2452
      2450      2448      2451      2452      2451      2452      2454      2455
      2451      2452      2454      2456      2451      2452      2454      2504
      2452      2454      2504      2505      2452      2454      2504      2506
      2452      2454      2504      2507      2453      2452      2454      2455
      2453      2452      2454      2456      2453      2452      2454      2504
      2454      2504      2507      2508      2454      2504      2507      2509
      2454      2504      2507      2510      2455      2454      2504      2505
      2455      2454      2504      2506      2455      2454      2504      2507
      2456      2454      2504      2505      2456      2454      2504      2506
      2456      2454      2504      2507      2457      2460      2463      2464
      2457      2460      2463      2465      2457      2460      2463      2466
      2458      2457      2460      2461      2458      2457      2460      2462
      2458      2457      2460      2463      2459      2457      2460      2461
      2459      2457      2460      2462      2459      2457      2460      2463
      2460      2463      2466      2467      2460      2463      2466      2468
      2460      2463      2466      2469      2461      2460      2463      2464
      2461      2460      2463      2465      2461      2460      2463      2466
      2462      2460      2463      2464      2462      2460      2463      2465
      2462      2460      2463      2466      2463      2466      2469      2470
      2463      2466      2469      2471      2463      2466      2469      2472
      2464      2463      2466      2467      2464      2463      2466      2468
      2464      2463      2466      2469      2465      2463      2466      2467
      2465      2463      2466      2468      2465      2463      2466      2469
      2466      2469      2472      2473      2466      2469      2472      2474
      2466      2469      2472      2475      2467      2466      2469      2470
      2467      2466      2469      2471      2467      2466      2469      2472
      2468      2466      2469      2470      2468      2466      2469      2471
      2468      2466      2469      2472      2469      2472      2475      2476
      2469      2472      2475      2477      2470      2469      2472      2473
      2470      2469      2472      2474      2470      2469      2472      2475
      2471      2469      2472      2473      2471      2469      2472      2474
      2471      2469      2472      2475      2472      2475      2477      2478
      2472      2475      2477      2479      2473      2472      2475      2476
      2473      2472      2475      2477      2474      2472      2475      2476
      2474      2472      2475      2477      2475      2477      2479      2480
      2475      2477      2479      2481      2475      2477      2479      2482
      2476      2475      2477      2478      2476      2475      2477      2479
      2477      2479      2482      2483      2477      2479      2482      2484
      2477      2479      2482      2485      2478      2477      2479      2480
      2478      2477      2479      2481      2478      2477      2479      2482
      2479      2482      2485      2486      2479      2482      2485      2487
      2479      2482      2485      2488      2480      2479      2482      2483
      2480      2479      2482      2484      2480      2479      2482      2485
      2481      2479      2482      2483      2481      2479      2482      2484
      2481      2479      2482      2485      2482      2485      2488      2489
      2482      2485      2488      2490      2482      2485      2488      2491
      2483      2482      2485      2486      2483      2482      2485      2487
      2483      2482      2485      2488      2484      2482      2485      2486
      2484      2482      2485      2487      2484      2482      2485      2488
      2485      2488      2491      2492      2485      2488      2491      2493
      2485      2488      2491      2494      2486      2485      2488      2489
      2486      2485      2488      2490      2486      2485      2488      2491
      2487      2485      2488      2489      2487      2485      2488      2490
      2487      2485      2488      2491      2488      2491      2494      2495
      2488      2491      2494      2496      2488      2491      2494      2497
      2489      2488      2491      2492      2489      2488      2491      2493
      2489      2488      2491      2494      2490      2488      2491      2492
      2490      2488      2491      2493      2490      2488      2491      2494
      2491      2494      2497      2498      2491      2494      2497      2499
      2491      2494      2497      2500      2492      2491      2494      2495
      2492      2491      2494      2496      2492      2491      2494      2497
      2493      2491      2494      2495      2493      2491      2494      2496
      2493      2491      2494      2497      2494      2497      2500      2501
      2494      2497      2500      2502      2494      2497      2500      2503
      2495      2494      2497      2498      2495      2494      2497      2499
      2495      2494      2497      2500      2496      2494      2497      2498
      2496      2494      2497      2499      2496      2494      2497      2500
      2498      2497      2500      2501      2498      2497      2500      2502
      2498      2497      2500      2503      2499      2497      2500      2501
      2499      2497      2500      2502      2499      2497      2500      2503
      2504      2507      2510      2511      2504      2507      2510      2512
      2504      2507      2510      2513      2505      2504      2507      2508
      2505      2504      2507      2509      2505      2504      2507      2510
      2506      2504      2507      2508      2506      2504      2507      2509
      2506      2504      2507      2510      2507      2510      2513      2514
      2507      2510      2513      2515      2507      2510      2513      2516
      2508      2507      2510      2511      2508      2507      2510      2512
      2508      2507      2510      2513      2509      2507      2510      2511
      2509      2507      2510      2512      2509      2507      2510      2513
      2510      2513      2516      2517      2510      2513      2516      2518
      2510      2513      2516      2519      2511      2510      2513      2514
      2511      2510      2513      2515      2511      2510      2513      2516
      2512      2510      2513      2514      2512      2510      2513      2515
      2512      2510      2513      2516      2513      2516      2519      2520
      2513      2516      2519      2521      2513      2516      2519      2522
      2514      2513      2516      2517      2514      2513      2516      2518
      2514      2513      2516      2519      2515      2513      2516      2517
      2515      2513      2516      2518      2515      2513      2516      2519
      2516      2519      2522      2523      2516      2519      2522      2524
      2516      2519      2522      2525      2517      2516      2519      2520
      2517      2516      2519      2521      2517      2516      2519      2522
      2518      2516      2519      2520      2518      2516      2519      2521
      2518      2516      2519      2522      2519      2522      2525      2526
      2519      2522      2525      2527      2519      2522      2525      2528
      2520      2519      2522      2523      2520      2519      2522      2524
      2520      2519      2522      2525      2521      2519      2522      2523
      2521      2519      2522      2524      2521      2519      2522      2525
      2522      2525      2528      2529      2522      2525      2528      2530
      2522      2525      2528      2531      2523      2522      2525      2526
      2523      2522      2525      2527      2523      2522      2525      2528
      2524      2522      2525      2526      2524      2522      2525      2527
      2524      2522      2525      2528      2525      2528      2531      2532
      2525      2528      2531      2533      2525      2528      2531      2534
      2526      2525      2528      2529      2526      2525      2528      2530
      2526      2525      2528      2531      2527      2525      2528      2529
      2527      2525      2528      2530      2527      2525      2528      2531
      2528      2531      2534      2535      2528      2531      2534      2536
      2528      2531      2534      2537      2529      2528      2531      2532
      2529      2528      2531      2533      2529      2528      2531      2534
      2530      2528      2531      2532      2530      2528      2531      2533
      2530      2528      2531      2534      2531      2534      2537      2538
      2531      2534      2537      2539      2531      2534      2537      2540
      2532      2531      2534      2535      2532      2531      2534      2536
      2532      2531      2534      2537      2533      2531      2534      2535
      2533      2531      2534      2536      2533      2531      2534      2537
      2534      2537      2540      2541      2534      2537      2540      2542
      2534      2537      2540      2543      2535      2534      2537      2538
      2535      2534      2537      2539      2535      2534      2537      2540
      2536      2534      2537      2538      2536      2534      2537      2539
      2536      2534      2537      2540      2537      2540      2543      2544
      2537      2540      2543      2545      2537      2540      2543      2546
      2538      2537      2540      2541      2538      2537      2540      2542
      2538      2537      2540      2543      2539      2537      2540      2541
      2539      2537      2540      2542      2539      2537      2540      2543
      2541      2540      2543      2544      2541      2540      2543      2545
      2541      2540      2543      2546      2542      2540      2543      2544
      2542      2540      2543      2545      2542      2540      2543      2546
      2547      2548      2563      2564      2547      2548      2563      2565
      2547      2548      2563      2569      2548      2547      2551      2552
      2548      2547      2551      2553      2548      2547      2551      2554
      2548      2547      2555      2556      2548      2547      2555      2557
      2548      2547      2555      2558      2548      2547      2559      2560
      2548      2547      2559      2561      2548      2547      2559      2562
      2548      2563      2569      2566      2549      2548      2547      2551
      2549      2548      2547      2555      2549      2548      2547      2559
      2549      2548      2563      2564      2549      2548      2563      2565
      2549      2548      2563      2569      2550      2548      2547      2551
      2550      2548      2547      2555      2550      2548      2547      2559
      2550      2548      2563      2564      2550      2548      2563      2565
      2550      2548      2563      2569      2551      2547      2548      2563
      2551      2547      2555      2556      2551      2547      2555      2557
      2551      2547      2555      2558      2551      2547      2559      2560
      2551      2547      2559      2561      2551      2547      2559      2562
      2552      2551      2547      2555      2552      2551      2547      2559
      2553      2551      2547      2555      2553      2551      2547      2559
      2554      2551      2547      2555      2554      2551      2547      2559
      2555      2547      2548      2563      2555      2547      2559      2560
      2555      2547      2559      2561      2555      2547      2559      2562
      2556      2555      2547      2559      2557      2555      2547      2559
      2558      2555      2547      2559      2559      2547      2548      2563
      2563      2569      2566      2567      2563      2569      2566      2568
      2563      2569      2566      2570      2564      2563      2569      2566
      2565      2563      2569      2566      2566      2570      2571      2572
      2566      2570      2571      2573      2566      2570      2571      2574
      2567      2566      2570      2571      2568      2566      2570      2571
      2569      2566      2570      2571      2570      2571      2574      2575
      2570      2571      2574      2576      2570      2571      2574      2582
      2571      2574      2576      2577      2571      2574      2582      2583
      2571      2574      2582      2584      2571      2574      2582      2585
      2572      2571      2574      2575      2572      2571      2574      2576
      2572      2571      2574      2582      2573      2571      2574      2575
      2573      2571      2574      2576      2573      2571      2574      2582
      2574      2576      2577      2578      2574      2576      2577      2579
      2574      2582      2585      2586      2575      2574      2576      2577
      2575      2574      2582      2583      2575      2574      2582      2584
      2575      2574      2582      2585      2576      2574      2582      2583
      2576      2574      2582      2584      2576      2574      2582      2585
      2576      2577      2579      2580      2576      2577      2579      2581
      2576      2577      2579      2591      2577      2576      2574      2582
      2577      2579      2591      2592      2577      2579      2591      2593
      2577      2579      2591      2594      2578      2577      2579      2580
      2578      2577      2579      2581      2578      2577      2579      2591
      2579      2591      2594      2595      2579      2591      2594      2596
      2579      2591      2594      2597      2580      2579      2591      2592
      2580      2579      2591      2593      2580      2579      2591      2594
      2581      2579      2591      2592      2581      2579      2591      2593
      2581      2579      2591      2594      2582      2585      2586      2587
      2582      2585      2586      2588      2583      2582      2585      2586
      2584      2582      2585      2586      2585      2586      2588      2589
      2585      2586      2588      2590      2585      2586      2588      2638
      2586      2588      2638      2639      2586      2588      2638      2640
      2586      2588      2638      2641      2587      2586      2588      2589
      2587      2586      2588      2590      2587      2586      2588      2638
      2588      2638      2641      2642      2588      2638      2641      2643
      2588      2638      2641      2644      2589      2588      2638      2639
      2589      2588      2638      2640      2589      2588      2638      2641
      2590      2588      2638      2639      2590      2588      2638      2640
      2590      2588      2638      2641      2591      2594      2597      2598
      2591      2594      2597      2599      2591      2594      2597      2600
      2592      2591      2594      2595      2592      2591      2594      2596
      2592      2591      2594      2597      2593      2591      2594      2595
      2593      2591      2594      2596      2593      2591      2594      2597
      2594      2597      2600      2601      2594      2597      2600      2602
      2594      2597      2600      2603      2595      2594      2597      2598
      2595      2594      2597      2599      2595      2594      2597      2600
      2596      2594      2597      2598      2596      2594      2597      2599
      2596      2594      2597      2600      2597      2600      2603      2604
      2597      2600      2603      2605      2597      2600      2603      2606
      2598      2597      2600      2601      2598      2597      2600      2602
      2598      2597      2600      2603      2599      2597      2600      2601
      2599      2597      2600      2602      2599      2597      2600      2603
      2600      2603      2606      2607      2600      2603      2606      2608
      2600      2603      2606      2609      2601      2600      2603      2604
      2601      2600      2603      2605      2601      2600      2603      2606
      2602      2600      2603      2604      2602      2600      2603      2605
      2602      2600      2603      2606      2603      2606      2609      2610
      2603      2606      2609      2611      2604      2603      2606      2607
      2604      2603      2606      2608      2604      2603      2606      2609
      2605      2603      2606      2607      2605      2603      2606      2608
      2605      2603      2606      2609      2606      2609      2611      2612
      2606      2609      2611      2613      2607      2606      2609      2610
      2607      2606      2609      2611      2608      2606      2609      2610
      2608      2606      2609      2611      2609      2611      2613      2614
      2609      2611      2613      2615      2609      2611      2613      2616
      2610      2609      2611      2612      2610      2609      2611      2613
      2611      2613      2616      2617      2611      2613      2616      2618
      2611      2613      2616      2619      2612      2611      2613      2614
      2612      2611      2613      2615      2612      2611      2613      2616
      2613      2616      2619      2620      2613      2616      2619      2621
      2613      2616      2619      2622      2614      2613      2616      2617
      2614      2613      2616      2618      2614      2613      2616      2619
      2615      2613      2616      2617      2615      2613      2616      2618
      2615      2613      2616      2619      2616      2619      2622      2623
      2616      2619      2622      2624      2616      2619      2622      2625
      2617      2616      2619      2620      2617      2616      2619      2621
      2617      2616      2619      2622      2618      2616      2619      2620
      2618      2616      2619      2621      2618      2616      2619      2622
      2619      2622      2625      2626      2619      2622      2625      2627
      2619      2622      2625      2628      2620      2619      2622      2623
      2620      2619      2622      2624      2620      2619      2622      2625
      2621      2619      2622      2623      2621      2619      2622      2624
      2621      2619      2622      2625      2622      2625      2628      2629
      2622      2625      2628      2630      2622      2625      2628      2631
      2623      2622      2625      2626      2623      2622      2625      2627
      2623      2622      2625      2628      2624      2622      2625      2626
      2624      2622      2625      2627      2624      2622      2625      2628
      2625      2628      2631      2632      2625      2628      2631      2633
      2625      2628      2631      2634      2626      2625      2628      2629
      2626      2625      2628      2630      2626      2625      2628      2631
      2627      2625      2628      2629      2627      2625      2628      2630
      2627      2625      2628      2631      2628      2631      2634      2635
      2628      2631      2634      2636      2628      2631      2634      2637
      2629      2628      2631      2632      2629      2628      2631      2633
      2629      2628      2631      2634      2630      2628      2631      2632
      2630      2628      2631      2633      2630      2628      2631      2634
      2632      2631      2634      2635      2632      2631      2634      2636
      2632      2631      2634      2637      2633      2631      2634      2635
      2633      2631      2634      2636      2633      2631      2634      2637
      2638      2641      2644      2645      2638      2641      2644      2646
      2638      2641      2644      2647      2639      2638      2641      2642
      2639      2638      2641      2643      2639      2638      2641      2644
      2640      2638      2641      2642      2640      2638      2641      2643
      2640      2638      2641      2644      2641      2644      2647      2648
      2641      2644      2647      2649      2641      2644      2647      2650
      2642      2641      2644      2645      2642      2641      2644      2646
      2642      2641      2644      2647      2643      2641      2644      2645
      2643      2641      2644      2646      2643      2641      2644      2647
      2644      2647      2650      2651      2644      2647      2650      2652
      2644      2647      2650      2653      2645      2644      2647      2648
      2645      2644      2647      2649      2645      2644      2647      2650
      2646      2644      2647      2648      2646      2644      2647      2649
      2646      2644      2647      2650      2647      2650      2653      2654
      2647      2650      2653      2655      2647      2650      2653      2656
      2648      2647      2650      2651      2648      2647      2650      2652
      2648      2647      2650      2653      2649      2647      2650      2651
      2649      2647      2650      2652      2649      2647      2650      2653
      2650      2653      2656      2657      2650      2653      2656      2658
      2650      2653      2656      2659      2651      2650      2653      2654
      2651      2650      2653      2655      2651      2650      2653      2656
      2652      2650      2653      2654      2652      2650      2653      2655
      2652      2650      2653      2656      2653      2656      2659      2660
      2653      2656      2659      2661      2653      2656      2659      2662
      2654      2653      2656      2657      2654      2653      2656      2658
      2654      2653      2656      2659      2655      2653      2656      2657
      2655      2653      2656      2658      2655      2653      2656      2659
      2656      2659      2662      2663      2656      2659      2662      2664
      2656      2659      2662      2665      2657      2656      2659      2660
      2657      2656      2659      2661      2657      2656      2659      2662
      2658      2656      2659      2660      2658      2656      2659      2661
      2658      2656      2659      2662      2659      2662      2665      2666
      2659      2662      2665      2667      2659      2662      2665      2668
      2660      2659      2662      2663      2660      2659      2662      2664
      2660      2659      2662      2665      2661      2659      2662      2663
      2661      2659      2662      2664      2661      2659      2662      2665
      2662      2665      2668      2669      2662      2665      2668      2670
      2662      2665      2668      2671      2663      2662      2665      2666
      2663      2662      2665      2667      2663      2662      2665      2668
      2664      2662      2665      2666      2664      2662      2665      2667
      2664      2662      2665      2668      2665      2668      2671      2672
      2665      2668      2671      2673      2665      2668      2671      2674
      2666      2665      2668      2669      2666      2665      2668      2670
      2666      2665      2668      2671      2667      2665      2668      2669
      2667      2665      2668      2670      2667      2665      2668      2671
      2668      2671      2674      2675      2668      2671      2674      2676
      2668      2671      2674      2677      2669      2668      2671      2672
      2669      2668      2671      2673      2669      2668      2671      2674
      2670      2668      2671      2672      2670      2668      2671      2673
      2670      2668      2671      2674      2671      2674      2677      2678
      2671      2674      2677      2679      2671      2674      2677      2680
      2672      2671      2674      2675      2672      2671      2674      2676
      2672      2671      2674      2677      2673      2671      2674      2675
      2673      2671      2674      2676      2673      2671      2674      2677
      2675      2674      2677      2678      2675      2674      2677      2679
      2675      2674      2677      2680      2676      2674      2677      2678
      2676      2674      2677      2679      2676      2674      2677      2680
      2681      2682      2697      2698      2681      2682      2697      2699
      2681      2682      2697      2703      2682      2681      2685      2686
      2682      2681      2685      2687      2682      2681      2685      2688
      2682      2681      2689      2690      2682      2681      2689      2691
      2682      2681      2689      2692      2682      2681      2693      2694
      2682      2681      2693      2695      2682      2681      2693      2696
      2682      2697      2703      2700      2683      2682      2681      2685
      2683      2682      2681      2689      2683      2682      2681      2693
      2683      2682      2697      2698      2683      2682      2697      2699
      2683      2682      2697      2703      2684      2682      2681      2685
      2684      2682      2681      2689      2684      2682      2681      2693
      2684      2682      2697      2698      2684      2682      2697      2699
      2684      2682      2697      2703      2685      2681      2682      2697
      2685      2681      2689      2690      2685      2681      2689      2691
      2685      2681      2689      2692      2685      2681      2693      2694
      2685      2681      2693      2695      2685      2681      2693      2696
      2686      2685      2681      2689      2686      2685      2681      2693
      2687      2685      2681      2689      2687      2685      2681      2693
      2688      2685      2681      2689      2688      2685      2681      2693
      2689      2681      2682      2697      2689      2681      2693      2694
      2689      2681      2693      2695      2689      2681      2693      2696
      2690      2689      2681      2693      2691      2689      2681      2693
      2692      2689      2681      2693      2693      2681      2682      2697
      2697      2703      2700      2701      2697      2703      2700      2702
      2697      2703      2700      2704      2698      2697      2703      2700
      2699      2697      2703      2700      2700      2704      2705      2706
      2700      2704      2705      2707      2700      2704      2705      2708
      2701      2700      2704      2705      2702      2700      2704      2705
      2703      2700      2704      2705      2704      2705      2708      2709
      2704      2705      2708      2710      2704      2705      2708      2716
      2705      2708      2710      2711      2705      2708      2716      2717
      2705      2708      2716      2718      2705      2708      2716      2719
      2706      2705      2708      2709      2706      2705      2708      2710
      2706      2705      2708      2716      2707      2705      2708      2709
      2707      2705      2708      2710      2707      2705      2708      2716
      2708      2710      2711      2712      2708      2710      2711      2713
      2708      2716      2719      2720      2709      2708      2710      2711
      2709      2708      2716      2717      2709      2708      2716      2718
      2709      2708      2716      2719      2710      2708      2716      2717
      2710      2708      2716      2718      2710      2708      2716      2719
      2710      2711      2713      2714      2710      2711      2713      2715
      2710      2711      2713      2725      2711      2710      2708      2716
      2711      2713      2725      2726      2711      2713      2725      2727
      2711      2713      2725      2728      2712      2711      2713      2714
      2712      2711      2713      2715      2712      2711      2713      2725
      2713      2725      2728      2729      2713      2725      2728      2730
      2713      2725      2728      2731      2714      2713      2725      2726
      2714      2713      2725      2727      2714      2713      2725      2728
      2715      2713      2725      2726      2715      2713      2725      2727
      2715      2713      2725      2728      2716      2719      2720      2721
      2716      2719      2720      2722      2717      2716      2719      2720
      2718      2716      2719      2720      2719      2720      2722      2723
      2719      2720      2722      2724      2719      2720      2722      2772
      2720      2722      2772      2773      2720      2722      2772      2774
      2720      2722      2772      2775      2721      2720      2722      2723
      2721      2720      2722      2724      2721      2720      2722      2772
      2722      2772      2775      2776      2722      2772      2775      2777
      2722      2772      2775      2778      2723      2722      2772      2773
      2723      2722      2772      2774      2723      2722      2772      2775
      2724      2722      2772      2773      2724      2722      2772      2774
      2724      2722      2772      2775      2725      2728      2731      2732
      2725      2728      2731      2733      2725      2728      2731      2734
      2726      2725      2728      2729      2726      2725      2728      2730
      2726      2725      2728      2731      2727      2725      2728      2729
      2727      2725      2728      2730      2727      2725      2728      2731
      2728      2731      2734      2735      2728      2731      2734      2736
      2728      2731      2734      2737      2729      2728      2731      2732
      2729      2728      2731      2733      2729      2728      2731      2734
      2730      2728      2731      2732      2730      2728      2731      2733
      2730      2728      2731      2734      2731      2734      2737      2738
      2731      2734      2737      2739      2731      2734      2737      2740
      2732      2731      2734      2735      2732      2731      2734      2736
      2732      2731      2734      2737      2733      2731      2734      2735
      2733      2731      2734      2736      2733      2731      2734      2737
      2734      2737      2740      2741      2734      2737      2740      2742
      2734      2737      2740      2743      2735      2734      2737      2738
      2735      2734      2737      2739      2735      2734      2737      2740
      2736      2734      2737      2738      2736      2734      2737      2739
      2736      2734      2737      2740      2737      2740      2743      2744
      2737      2740      2743      2745      2738      2737      2740      2741
      2738      2737      2740      2742      2738      2737      2740      2743
      2739      2737      2740      2741      2739      2737      2740      2742
      2739      2737      2740      2743      2740      2743      2745      2746
      2740      2743      2745      2747      2741      2740      2743      2744
      2741      2740      2743      2745      2742      2740      2743      2744
      2742      2740      2743      2745      2743      2745      2747      2748
      2743      2745      2747      2749      2743      2745      2747      2750
      2744      2743      2745      2746      2744      2743      2745      2747
      2745      2747      2750      2751      2745      2747      2750      2752
      2745      2747      2750      2753      2746      2745      2747      2748
      2746      2745      2747      2749      2746      2745      2747      2750
      2747      2750      2753      2754      2747      2750      2753      2755
      2747      2750      2753      2756      2748      2747      2750      2751
      2748      2747      2750      2752      2748      2747      2750      2753
      2749      2747      2750      2751      2749      2747      2750      2752
      2749      2747      2750      2753      2750      2753      2756      2757
      2750      2753      2756      2758      2750      2753      2756      2759
      2751      2750      2753      2754      2751      2750      2753      2755
      2751      2750      2753      2756      2752      2750      2753      2754
      2752      2750      2753      2755      2752      2750      2753      2756
      2753      2756      2759      2760      2753      2756      2759      2761
      2753      2756      2759      2762      2754      2753      2756      2757
      2754      2753      2756      2758      2754      2753      2756      2759
      2755      2753      2756      2757      2755      2753      2756      2758
      2755      2753      2756      2759      2756      2759      2762      2763
      2756      2759      2762      2764      2756      2759      2762      2765
      2757      2756      2759      2760      2757      2756      2759      2761
      2757      2756      2759      2762      2758      2756      2759      2760
      2758      2756      2759      2761      2758      2756      2759      2762
      2759      2762      2765      2766      2759      2762      2765      2767
      2759      2762      2765      2768      2760      2759      2762      2763
      2760      2759      2762      2764      2760      2759      2762      2765
      2761      2759      2762      2763      2761      2759      2762      2764
      2761      2759      2762      2765      2762      2765      2768      2769
      2762      2765      2768      2770      2762      2765      2768      2771
      2763      2762      2765      2766      2763      2762      2765      2767
      2763      2762      2765      2768      2764      2762      2765      2766
      2764      2762      2765      2767      2764      2762      2765      2768
      2766      2765      2768      2769      2766      2765      2768      2770
      2766      2765      2768      2771      2767      2765      2768      2769
      2767      2765      2768      2770      2767      2765      2768      2771
      2772      2775      2778      2779      2772      2775      2778      2780
      2772      2775      2778      2781      2773      2772      2775      2776
      2773      2772      2775      2777      2773      2772      2775      2778
      2774      2772      2775      2776      2774      2772      2775      2777
      2774      2772      2775      2778      2775      2778      2781      2782
      2775      2778      2781      2783      2775      2778      2781      2784
      2776      2775      2778      2779      2776      2775      2778      2780
      2776      2775      2778      2781      2777      2775      2778      2779
      2777      2775      2778      2780      2777      2775      2778      2781
      2778      2781      2784      2785      2778      2781      2784      2786
      2778      2781      2784      2787      2779      2778      2781      2782
      2779      2778      2781      2783      2779      2778      2781      2784
      2780      2778      2781      2782      2780      2778      2781      2783
      2780      2778      2781      2784      2781      2784      2787      2788
      2781      2784      2787      2789      2781      2784      2787      2790
      2782      2781      2784      2785      2782      2781      2784      2786
      2782      2781      2784      2787      2783      2781      2784      2785
      2783      2781      2784      2786      2783      2781      2784      2787
      2784      2787      2790      2791      2784      2787      2790      2792
      2784      2787      2790      2793      2785      2784      2787      2788
      2785      2784      2787      2789      2785      2784      2787      2790
      2786      2784      2787      2788      2786      2784      2787      2789
      2786      2784      2787      2790      2787      2790      2793      2794
      2787      2790      2793      2795      2787      2790      2793      2796
      2788      2787      2790      2791      2788      2787      2790      2792
      2788      2787      2790      2793      2789      2787      2790      2791
      2789      2787      2790      2792      2789      2787      2790      2793
      2790      2793      2796      2797      2790      2793      2796      2798
      2790      2793      2796      2799      2791      2790      2793      2794
      2791      2790      2793      2795      2791      2790      2793      2796
      2792      2790      2793      2794      2792      2790      2793      2795
      2792      2790      2793      2796      2793      2796      2799      2800
      2793      2796      2799      2801      2793      2796      2799      2802
      2794      2793      2796      2797      2794      2793      2796      2798
      2794      2793      2796      2799      2795      2793      2796      2797
      2795      2793      2796      2798      2795      2793      2796      2799
      2796      2799      2802      2803      2796      2799      2802      2804
      2796      2799      2802      2805      2797      2796      2799      2800
      2797      2796      2799      2801      2797      2796      2799      2802
      2798      2796      2799      2800      2798      2796      2799      2801
      2798      2796      2799      2802      2799      2802      2805      2806
      2799      2802      2805      2807      2799      2802      2805      2808
      2800      2799      2802      2803      2800      2799      2802      2804
      2800      2799      2802      2805      2801      2799      2802      2803
      2801      2799      2802      2804      2801      2799      2802      2805
      2802      2805      2808      2809      2802      2805      2808      2810
      2802      2805      2808      2811      2803      2802      2805      2806
      2803      2802      2805      2807      2803      2802      2805      2808
      2804      2802      2805      2806      2804      2802      2805      2807
      2804      2802      2805      2808      2805      2808      2811      2812
      2805      2808      2811      2813      2805      2808      2811      2814
      2806      2805      2808      2809      2806      2805      2808      2810
      2806      2805      2808      2811      2807      2805      2808      2809
      2807      2805      2808      2810      2807      2805      2808      2811
      2809      2808      2811      2812      2809      2808      2811      2813
      2809      2808      2811      2814      2810      2808      2811      2812
      2810      2808      2811      2813      2810      2808      2811      2814
      2815      2816      2831      2832      2815      2816      2831      2833
      2815      2816      2831      2837      2816      2815      2819      2820
      2816      2815      2819      2821      2816      2815      2819      2822
      2816      2815      2823      2824      2816      2815      2823      2825
      2816      2815      2823      2826      2816      2815      2827      2828
      2816      2815      2827      2829      2816      2815      2827      2830
      2816      2831      2837      2834      2817      2816      2815      2819
      2817      2816      2815      2823      2817      2816      2815      2827
      2817      2816      2831      2832      2817      2816      2831      2833
      2817      2816      2831      2837      2818      2816      2815      2819
      2818      2816      2815      2823      2818      2816      2815      2827
      2818      2816      2831      2832      2818      2816      2831      2833
      2818      2816      2831      2837      2819      2815      2816      2831
      2819      2815      2823      2824      2819      2815      2823      2825
      2819      2815      2823      2826      2819      2815      2827      2828
      2819      2815      2827      2829      2819      2815      2827      2830
      2820      2819      2815      2823      2820      2819      2815      2827
      2821      2819      2815      2823      2821      2819      2815      2827
      2822      2819      2815      2823      2822      2819      2815      2827
      2823      2815      2816      2831      2823      2815      2827      2828
      2823      2815      2827      2829      2823      2815      2827      2830
      2824      2823      2815      2827      2825      2823      2815      2827
      2826      2823      2815      2827      2827      2815      2816      2831
      2831      2837      2834      2835      2831      2837      2834      2836
      2831      2837      2834      2838      2832      2831      2837      2834
      2833      2831      2837      2834      2834      2838      2839      2840
      2834      2838      2839      2841      2834      2838      2839      2842
      2835      2834      2838      2839      2836      2834      2838      2839
      2837      2834      2838      2839      2838      2839      2842      2843
      2838      2839      2842      2844      2838      2839      2842      2850
      2839      2842      2844      2845      2839      2842      2850      2851
      2839      2842      2850      2852      2839      2842      2850      2853
      2840      2839      2842      2843      2840      2839      2842      2844
      2840      2839      2842      2850      2841      2839      2842      2843
      2841      2839      2842      2844      2841      2839      2842      2850
      2842      2844      2845      2846      2842      2844      2845      2847
      2842      2850      2853      2854      2843      2842      2844      2845
      2843      2842      2850      2851      2843      2842      2850      2852
      2843      2842      2850      2853      2844      2842      2850      2851
      2844      2842      2850      2852      2844      2842      2850      2853
      2844      2845      2847      2848      2844      2845      2847      2849
      2844      2845      2847      2859      2845      2844      2842      2850
      2845      2847      2859      2860      2845      2847      2859      2861
      2845      2847      2859      2862      2846      2845      2847      2848
      2846      2845      2847      2849      2846      2845      2847      2859
      2847      2859      2862      2863      2847      2859      2862      2864
      2847      2859      2862      2865      2848      2847      2859      2860
      2848      2847      2859      2861      2848      2847      2859      2862
      2849      2847      2859      2860      2849      2847      2859      2861
      2849      2847      2859      2862      2850      2853      2854      2855
      2850      2853      2854      2856      2851      2850      2853      2854
      2852      2850      2853      2854      2853      2854      2856      2857
      2853      2854      2856      2858      2853      2854      2856      2906
      2854      2856      2906      2907      2854      2856      2906      2908
      2854      2856      2906      2909      2855      2854      2856      2857
      2855      2854      2856      2858      2855      2854      2856      2906
      2856      2906      2909      2910      2856      2906      2909      2911
      2856      2906      2909      2912      2857      2856      2906      2907
      2857      2856      2906      2908      2857      2856      2906      2909
      2858      2856      2906      2907      2858      2856      2906      2908
      2858      2856      2906      2909      2859      2862      2865      2866
      2859      2862      2865      2867      2859      2862      2865      2868
      2860      2859      2862      2863      2860      2859      2862      2864
      2860      2859      2862      2865      2861      2859      2862      2863
      2861      2859      2862      2864      2861      2859      2862      2865
      2862      2865      2868      2869      2862      2865      2868      2870
      2862      2865      2868      2871      2863      2862      2865      2866
      2863      2862      2865      2867      2863      2862      2865      2868
      2864      2862      2865      2866      2864      2862      2865      2867
      2864      2862      2865      2868      2865      2868      2871      2872
      2865      2868      2871      2873      2865      2868      2871      2874
      2866      2865      2868      2869      2866      2865      2868      2870
      2866      2865      2868      2871      2867      2865      2868      2869
      2867      2865      2868      2870      2867      2865      2868      2871
      2868      2871      2874      2875      2868      2871      2874      2876
      2868      2871      2874      2877      2869      2868      2871      2872
      2869      2868      2871      2873      2869      2868      2871      2874
      2870      2868      2871      2872      2870      2868      2871      2873
      2870      2868      2871      2874      2871      2874      2877      2878
      2871      2874      2877      2879      2872      2871      2874      2875
      2872      2871      2874      2876      2872      2871      2874      2877
      2873      2871      2874      2875      2873      2871      2874      2876
      2873      2871      2874      2877      2874      2877      2879      2880
      2874      2877      2879      2881      2875      2874      2877      2878
      2875      2874      2877      2879      2876      2874      2877      2878
      2876      2874      2877      2879      2877      2879      2881      2882
      2877      2879      2881      2883      2877      2879      2881      2884
      2878      2877      2879      2880      2878      2877      2879      2881
      2879      2881      2884      2885      2879      2881      2884      2886
      2879      2881      2884      2887      2880      2879      2881      2882
      2880      2879      2881      2883      2880      2879      2881      2884
      2881      2884      2887      2888      2881      2884      2887      2889
      2881      2884      2887      2890      2882      2881      2884      2885
      2882      2881      2884      2886      2882      2881      2884      2887
      2883      2881      2884      2885      2883      2881      2884      2886
      2883      2881      2884      2887      2884      2887      2890      2891
      2884      2887      2890      2892      2884      2887      2890      2893
      2885      2884      2887      2888      2885      2884      2887      2889
      2885      2884      2887      2890      2886      2884      2887      2888
      2886      2884      2887      2889      2886      2884      2887      2890
      2887      2890      2893      2894      2887      2890      2893      2895
      2887      2890      2893      2896      2888      2887      2890      2891
      2888      2887      2890      2892      2888      2887      2890      2893
      2889      2887      2890      2891      2889      2887      2890      2892
      2889      2887      2890      2893      2890      2893      2896      2897
      2890      2893      2896      2898      2890      2893      2896      2899
      2891      2890      2893      2894      2891      2890      2893      2895
      2891      2890      2893      2896      2892      2890      2893      2894
      2892      2890      2893      2895      2892      2890      2893      2896
      2893      2896      2899      2900      2893      2896      2899      2901
      2893      2896      2899      2902      2894      2893      2896      2897
      2894      2893      2896      2898      2894      2893      2896      2899
      2895      2893      2896      2897      2895      2893      2896      2898
      2895      2893      2896      2899      2896      2899      2902      2903
      2896      2899      2902      2904      2896      2899      2902      2905
      2897      2896      2899      2900      2897      2896      2899      2901
      2897      2896      2899      2902      2898      2896      2899      2900
      2898      2896      2899      2901      2898      2896      2899      2902
      2900      2899      2902      2903      2900      2899      2902      2904
      2900      2899      2902      2905      2901      2899      2902      2903
      2901      2899      2902      2904      2901      2899      2902      2905
      2906      2909      2912      2913      2906      2909      2912      2914
      2906      2909      2912      2915      2907      2906      2909      2910
      2907      2906      2909      2911      2907      2906      2909      2912
      2908      2906      2909      2910      2908      2906      2909      2911
      2908      2906      2909      2912      2909      2912      2915      2916
      2909      2912      2915      2917      2909      2912      2915      2918
      2910      2909      2912      2913      2910      2909      2912      2914
      2910      2909      2912      2915      2911      2909      2912      2913
      2911      2909      2912      2914      2911      2909      2912      2915
      2912      2915      2918      2919      2912      2915      2918      2920
      2912      2915      2918      2921      2913      2912      2915      2916
      2913      2912      2915      2917      2913      2912      2915      2918
      2914      2912      2915      2916      2914      2912      2915      2917
      2914      2912      2915      2918      2915      2918      2921      2922
      2915      2918      2921      2923      2915      2918      2921      2924
      2916      2915      2918      2919      2916      2915      2918      2920
      2916      2915      2918      2921      2917      2915      2918      2919
      2917      2915      2918      2920      2917      2915      2918      2921
      2918      2921      2924      2925      2918      2921      2924      2926
      2918      2921      2924      2927      2919      2918      2921      2922
      2919      2918      2921      2923      2919      2918      2921      2924
      2920      2918      2921      2922      2920      2918      2921      2923
      2920      2918      2921      2924      2921      2924      2927      2928
      2921      2924      2927      2929      2921      2924      2927      2930
      2922      2921      2924      2925      2922      2921      2924      2926
      2922      2921      2924      2927      2923      2921      2924      2925
      2923      2921      2924      2926      2923      2921      2924      2927
      2924      2927      2930      2931      2924      2927      2930      2932
      2924      2927      2930      2933      2925      2924      2927      2928
      2925      2924      2927      2929      2925      2924      2927      2930
      2926      2924      2927      2928      2926      2924      2927      2929
      2926      2924      2927      2930      2927      2930      2933      2934
      2927      2930      2933      2935      2927      2930      2933      2936
      2928      2927      2930      2931      2928      2927      2930      2932
      2928      2927      2930      2933      2929      2927      2930      2931
      2929      2927      2930      2932      2929      2927      2930      2933
      2930      2933      2936      2937      2930      2933      2936      2938
      2930      2933      2936      2939      2931      2930      2933      2934
      2931      2930      2933      2935      2931      2930      2933      2936
      2932      2930      2933      2934      2932      2930      2933      2935
      2932      2930      2933      2936      2933      2936      2939      2940
      2933      2936      2939      2941      2933      2936      2939      2942
      2934      2933      2936      2937      2934      2933      2936      2938
      2934      2933      2936      2939      2935      2933      2936      2937
      2935      2933      2936      2938      2935      2933      2936      2939
      2936      2939      2942      2943      2936      2939      2942      2944
      2936      2939      2942      2945      2937      2936      2939      2940
      2937      2936      2939      2941      2937      2936      2939      2942
      2938      2936      2939      2940      2938      2936      2939      2941
      2938      2936      2939      2942      2939      2942      2945      2946
      2939      2942      2945      2947      2939      2942      2945      2948
      2940      2939      2942      2943      2940      2939      2942      2944
      2940      2939      2942      2945      2941      2939      2942      2943
      2941      2939      2942      2944      2941      2939      2942      2945
      2943      2942      2945      2946      2943      2942      2945      2947
      2943      2942      2945      2948      2944      2942      2945      2946
      2944      2942      2945      2947      2944      2942      2945      2948
      2949      2950      2965      2966      2949      2950      2965      2967
      2949      2950      2965      2971      2950      2949      2953      2954
      2950      2949      2953      2955      2950      2949      2953      2956
      2950      2949      2957      2958      2950      2949      2957      2959
      2950      2949      2957      2960      2950      2949      2961      2962
      2950      2949      2961      2963      2950      2949      2961      2964
      2950      2965      2971      2968      2951      2950      2949      2953
      2951      2950      2949      2957      2951      2950      2949      2961
      2951      2950      2965      2966      2951      2950      2965      2967
      2951      2950      2965      2971      2952      2950      2949      2953
      2952      2950      2949      2957      2952      2950      2949      2961
      2952      2950      2965      2966      2952      2950      2965      2967
      2952      2950      2965      2971      2953      2949      2950      2965
      2953      2949      2957      2958      2953      2949      2957      2959
      2953      2949      2957      2960      2953      2949      2961      2962
      2953      2949      2961      2963      2953      2949      2961      2964
      2954      2953      2949      2957      2954      2953      2949      2961
      2955      2953      2949      2957      2955      2953      2949      2961
      2956      2953      2949      2957      2956      2953      2949      2961
      2957      2949      2950      2965      2957      2949      2961      2962
      2957      2949      2961      2963      2957      2949      2961      2964
      2958      2957      2949      2961      2959      2957      2949      2961
      2960      2957      2949      2961      2961      2949      2950      2965
      2965      2971      2968      2969      2965      2971      2968      2970
      2965      2971      2968      2972      2966      2965      2971      2968
      2967      2965      2971      2968      2968      2972      2973      2974
      2968      2972      2973      2975      2968      2972      2973      2976
      2969      2968      2972      2973      2970      2968      2972      2973
      2971      2968      2972      2973      2972      2973      2976      2977
      2972      2973      2976      2978      2972      2973      2976      2984
      2973      2976      2978      2979      2973      2976      2984      2985
      2973      2976      2984      2986      2973      2976      2984      2987
      2974      2973      2976      2977      2974      2973      2976      2978
      2974      2973      2976      2984      2975      2973      2976      2977
      2975      2973      2976      2978      2975      2973      2976      2984
      2976      2978      2979      2980      2976      2978      2979      2981
      2976      2984      2987      2988      2977      2976      2978      2979
      2977      2976      2984      2985      2977      2976      2984      2986
      2977      2976      2984      2987      2978      2976      2984      2985
      2978      2976      2984      2986      2978      2976      2984      2987
      2978      2979      2981      2982      2978      2979      2981      2983
      2978      2979      2981      2993      2979      2978      2976      2984
      2979      2981      2993      2994      2979      2981      2993      2995
      2979      2981      2993      2996      2980      2979      2981      2982
      2980      2979      2981      2983      2980      2979      2981      2993
      2981      2993      2996      2997      2981      2993      2996      2998
      2981      2993      2996      2999      2982      2981      2993      2994
      2982      2981      2993      2995      2982      2981      2993      2996
      2983      2981      2993      2994      2983      2981      2993      2995
      2983      2981      2993      2996      2984      2987      2988      2989
      2984      2987      2988      2990      2985      2984      2987      2988
      2986      2984      2987      2988      2987      2988      2990      2991
      2987      2988      2990      2992      2987      2988      2990      3040
      2988      2990      3040      3041      2988      2990      3040      3042
      2988      2990      3040      3043      2989      2988      2990      2991
      2989      2988      2990      2992      2989      2988      2990      3040
      2990      3040      3043      3044      2990      3040      3043      3045
      2990      3040      3043      3046      2991      2990      3040      3041
      2991      2990      3040      3042      2991      2990      3040      3043
      2992      2990      3040      3041      2992      2990      3040      3042
      2992      2990      3040      3043      2993      2996      2999      3000
      2993      2996      2999      3001      2993      2996      2999      3002
      2994      2993      2996      2997      2994      2993      2996      2998
      2994      2993      2996      2999      2995      2993      2996      2997
      2995      2993      2996      2998      2995      2993      2996      2999
      2996      2999      3002      3003      2996      2999      3002      3004
      2996      2999      3002      3005      2997      2996      2999      3000
      2997      2996      2999      3001      2997      2996      2999      3002
      2998      2996      2999      3000      2998      2996      2999      3001
      2998      2996      2999      3002      2999      3002      3005      3006
      2999      3002      3005      3007      2999      3002      3005      3008
      3000      2999      3002      3003      3000      2999      3002      3004
      3000      2999      3002      3005      3001      2999      3002      3003
      3001      2999      3002      3004      3001      2999      3002      3005
      3002      3005      3008      3009      3002      3005      3008      3010
      3002      3005      3008      3011      3003      3002      3005      3006
      3003      3002      3005      3007      3003      3002      3005      3008
      3004      3002      3005      3006      3004      3002      3005      3007
      3004      3002      3005      3008      3005      3008      3011      3012
      3005      3008      3011      3013      3006      3005      3008      3009
      3006      3005      3008      3010      3006      3005      3008      3011
      3007      3005      3008      3009      3007      3005      3008      3010
      3007      3005      3008      3011      3008      3011      3013      3014
      3008      3011      3013      3015      3009      3008      3011      3012
      3009      3008      3011      3013      3010      3008      3011      3012
      3010      3008      3011      3013      3011      3013      3015      3016
      3011      3013      3015      3017      3011      3013      3015      3018
      3012      3011      3013      3014      3012      3011      3013      3015
      3013      3015      3018      3019      3013      3015      3018      3020
      3013      3015      3018      3021      3014      3013      3015      3016
      3014      3013      3015      3017      3014      3013      3015      3018
      3015      3018      3021      3022      3015      3018      3021      3023
      3015      3018      3021      3024      3016      3015      3018      3019
      3016      3015      3018      3020      3016      3015      3018      3021
      3017      3015      3018      3019      3017      3015      3018      3020
      3017      3015      3018      3021      3018      3021      3024      3025
      3018      3021      3024      3026      3018      3021      3024      3027
      3019      3018      3021      3022      3019      3018      3021      3023
      3019      3018      3021      3024      3020      3018      3021      3022
      3020      3018      3021      3023      3020      3018      3021      3024
      3021      3024      3027      3028      3021      3024      3027      3029
      3021      3024      3027      3030      3022      3021      3024      3025
      3022      3021      3024      3026      3022      3021      3024      3027
      3023      3021      3024      3025      3023      3021      3024      3026
      3023      3021      3024      3027      3024      3027      3030      3031
      3024      3027      3030      3032      3024      3027      3030      3033
      3025      3024      3027      3028      3025      3024      3027      3029
      3025      3024      3027      3030      3026      3024      3027      3028
      3026      3024      3027      3029      3026      3024      3027      3030
      3027      3030      3033      3034      3027      3030      3033      3035
      3027      3030      3033      3036      3028      3027      3030      3031
      3028      3027      3030      3032      3028      3027      3030      3033
      3029      3027      3030      3031      3029      3027      3030      3032
      3029      3027      3030      3033      3030      3033      3036      3037
      3030      3033      3036      3038      3030      3033      3036      3039
      3031      3030      3033      3034      3031      3030      3033      3035
      3031      3030      3033      3036      3032      3030      3033      3034
      3032      3030      3033      3035      3032      3030      3033      3036
      3034      3033      3036      3037      3034      3033      3036      3038
      3034      3033      3036      3039      3035      3033      3036      3037
      3035      3033      3036      3038      3035      3033      3036      3039
      3040      3043      3046      3047      3040      3043      3046      3048
      3040      3043      3046      3049      3041      3040      3043      3044
      3041      3040      3043      3045      3041      3040      3043      3046
      3042      3040      3043      3044      3042      3040      3043      3045
      3042      3040      3043      3046      3043      3046      3049      3050
      3043      3046      3049      3051      3043      3046      3049      3052
      3044      3043      3046      3047      3044      3043      3046      3048
      3044      3043      3046      3049      3045      3043      3046      3047
      3045      3043      3046      3048      3045      3043      3046      3049
      3046      3049      3052      3053      3046      3049      3052      3054
      3046      3049      3052      3055      3047      3046      3049      3050
      3047      3046      3049      3051      3047      3046      3049      3052
      3048      3046      3049      3050      3048      3046      3049      3051
      3048      3046      3049      3052      3049      3052      3055      3056
      3049      3052      3055      3057      3049      3052      3055      3058
      3050      3049      3052      3053      3050      3049      3052      3054
      3050      3049      3052      3055      3051      3049      3052      3053
      3051      3049      3052      3054      3051      3049      3052      3055
      3052      3055      3058      3059      3052      3055      3058      3060
      3052      3055      3058      3061      3053      3052      3055      3056
      3053      3052      3055      3057      3053      3052      3055      3058
      3054      3052      3055      3056      3054      3052      3055      3057
      3054      3052      3055      3058      3055      3058      3061      3062
      3055      3058      3061      3063      3055      3058      3061      3064
      3056      3055      3058      3059      3056      3055      3058      3060
      3056      3055      3058      3061      3057      3055      3058      3059
      3057      3055      3058      3060      3057      3055      3058      3061
      3058      3061      3064      3065      3058      3061      3064      3066
      3058      3061      3064      3067      3059      3058      3061      3062
      3059      3058      3061      3063      3059      3058      3061      3064
      3060      3058      3061      3062      3060      3058      3061      3063
      3060      3058      3061      3064      3061      3064      3067      3068
      3061      3064      3067      3069      3061      3064      3067      3070
      3062      3061      3064      3065      3062      3061      3064      3066
      3062      3061      3064      3067      3063      3061      3064      3065
      3063      3061      3064      3066      3063      3061      3064      3067
      3064      3067      3070      3071      3064      3067      3070      3072
      3064      3067      3070      3073      3065      3064      3067      3068
      3065      3064      3067      3069      3065      3064      3067      3070
      3066      3064      3067      3068      3066      3064      3067      3069
      3066      3064      3067      3070      3067      3070      3073      3074
      3067      3070      3073      3075      3067      3070      3073      3076
      3068      3067      3070      3071      3068      3067      3070      3072
      3068      3067      3070      3073      3069      3067      3070      3071
      3069      3067      3070      3072      3069      3067      3070      3073
      3070      3073      3076      3077      3070      3073      3076      3078
      3070      3073      3076      3079      3071      3070      3073      3074
      3071      3070      3073      3075      3071      3070      3073      3076
      3072      3070      3073      3074      3072      3070      3073      3075
      3072      3070      3073      3076      3073      3076      3079      3080
      3073      3076      3079      3081      3073      3076      3079      3082
      3074      3073      3076      3077      3074      3073      3076      3078
      3074      3073      3076      3079      3075      3073      3076      3077
      3075      3073      3076      3078      3075      3073      3076      3079
      3077      3076      3079      3080      3077      3076      3079      3081
      3077      3076      3079      3082      3078      3076      3079      3080
      3078      3076      3079      3081      3078      3076      3079      3082
      3083      3084      3099      3100      3083      3084      3099      3101
      3083      3084      3099      3105      3084      3083      3087      3088
      3084      3083      3087      3089      3084      3083      3087      3090
      3084      3083      3091      3092      3084      3083      3091      3093
      3084      3083      3091      3094      3084      3083      3095      3096
      3084      3083      3095      3097      3084      3083      3095      3098
      3084      3099      3105      3102      3085      3084      3083      3087
      3085      3084      3083      3091      3085      3084      3083      3095
      3085      3084      3099      3100      3085      3084      3099      3101
      3085      3084      3099      3105      3086      3084      3083      3087
      3086      3084      3083      3091      3086      3084      3083      3095
      3086      3084      3099      3100      3086      3084      3099      3101
      3086      3084      3099      3105      3087      3083      3084      3099
      3087      3083      3091      3092      3087      3083      3091      3093
      3087      3083      3091      3094      3087      3083      3095      3096
      3087      3083      3095      3097      3087      3083      3095      3098
      3088      3087      3083      3091      3088      3087      3083      3095
      3089      3087      3083      3091      3089      3087      3083      3095
      3090      3087      3083      3091      3090      3087      3083      3095
      3091      3083      3084      3099      3091      3083      3095      3096
      3091      3083      3095      3097      3091      3083      3095      3098
      3092      3091      3083      3095      3093      3091      3083      3095
      3094      3091      3083      3095      3095      3083      3084      3099
      3099      3105      3102      3103      3099      3105      3102      3104
      3099      3105      3102      3106      3100      3099      3105      3102
      3101      3099      3105      3102      3102      3106      3107      3108
      3102      3106      3107      3109      3102      3106      3107      3110
      3103      3102      3106      3107      3104      3102      3106      3107
      3105      3102      3106      3107      3106      3107      3110      3111
      3106      3107      3110      3112      3106      3107      3110      3118
      3107      3110      3112      3113      3107      3110      3118      3119
      3107      3110      3118      3120      3107      3110      3118      3121
      3108      3107      3110      3111      3108      3107      3110      3112
      3108      3107      3110      3118      3109      3107      3110      3111
      3109      3107      3110      3112      3109      3107      3110      3118
      3110      3112      3113      3114      3110      3112      3113      3115
      3110      3118      3121      3122      3111      3110      3112      3113
      3111      3110      3118      3119      3111      3110      3118      3120
      3111      3110      3118      3121      3112      3110      3118      3119
      3112      3110      3118      3120      3112      3110      3118      3121
      3112      3113      3115      3116      3112      3113      3115      3117
      3112      3113      3115      3127      3113      3112      3110      3118
      3113      3115      3127      3128      3113      3115      3127      3129
      3113      3115      3127      3130      3114      3113      3115      3116
      3114      3113      3115      3117      3114      3113      3115      3127
      3115      3127      3130      3131      3115      3127      3130      3132
      3115      3127      3130      3133      3116      3115      3127      3128
      3116      3115      3127      3129      3116      3115      3127      3130
      3117      3115      3127      3128      3117      3115      3127      3129
      3117      3115      3127      3130      3118      3121      3122      3123
      3118      3121      3122      3124      3119      3118      3121      3122
      3120      3118      3121      3122      3121      3122      3124      3125
      3121      3122      3124      3126      3121      3122      3124      3174
      3122      3124      3174      3175      3122      3124      3174      3176
      3122      3124      3174      3177      3123      3122      3124      3125
      3123      3122      3124      3126      3123      3122      3124      3174
      3124      3174      3177      3178      3124      3174      3177      3179
      3124      3174      3177      3180      3125      3124      3174      3175
      3125      3124      3174      3176      3125      3124      3174      3177
      3126      3124      3174      3175      3126      3124      3174      3176
      3126      3124      3174      3177      3127      3130      3133      3134
      3127      3130      3133      3135      3127      3130      3133      3136
      3128      3127      3130      3131      3128      3127      3130      3132
      3128      3127      3130      3133      3129      3127      3130      3131
      3129      3127      3130      3132      3129      3127      3130      3133
      3130      3133      3136      3137      3130      3133      3136      3138
      3130      3133      3136      3139      3131      3130      3133      3134
      3131      3130      3133      3135      3131      3130      3133      3136
      3132      3130      3133      3134      3132      3130      3133      3135
      3132      3130      3133      3136      3133      3136      3139      3140
      3133      3136      3139      3141      3133      3136      3139      3142
      3134      3133      3136      3137      3134      3133      3136      3138
      3134      3133      3136      3139      3135      3133      3136      3137
      3135      3133      3136      3138      3135      3133      3136      3139
      3136      3139      3142      3143      3136      3139      3142      3144
      3136      3139      3142      3145      3137      3136      3139      3140
      3137      3136      3139      3141      3137      3136      3139      3142
      3138      3136      3139      3140      3138      3136      3139      3141
      3138      3136      3139      3142      3139      3142      3145      3146
      3139      3142      3145      3147      3140      3139      3142      3143
      3140      3139      3142      3144      3140      3139      3142      3145
      3141      3139      3142      3143      3141      3139      3142      3144
      3141      3139      3142      3145      3142      3145      3147      3148
      3142      3145      3147      3149      3143      3142      3145      3146
      3143      3142      3145      3147      3144      3142      3145      3146
      3144      3142      3145      3147      3145      3147      3149      3150
      3145      3147      3149      3151      3145      3147      3149      3152
      3146      3145      3147      3148      3146      3145      3147      3149
      3147      3149      3152      3153      3147      3149      3152      3154
      3147      3149      3152      3155      3148      3147      3149      3150
      3148      3147      3149      3151      3148      3147      3149      3152
      3149      3152      3155      3156      3149      3152      3155      3157
      3149      3152      3155      3158      3150      3149      3152      3153
      3150      3149      3152      3154      3150      3149      3152      3155
      3151      3149      3152      3153      3151      3149      3152      3154
      3151      3149      3152      3155      3152      3155      3158      3159
      3152      3155      3158      3160      3152      3155      3158      3161
      3153      3152      3155      3156      3153      3152      3155      3157
      3153      3152      3155      3158      3154      3152      3155      3156
      3154      3152      3155      3157      3154      3152      3155      3158
      3155      3158      3161      3162      3155      3158      3161      3163
      3155      3158      3161      3164      3156      3155      3158      3159
      3156      3155      3158      3160      3156      3155      3158      3161
      3157      3155      3158      3159      3157      3155      3158      3160
      3157      3155      3158      3161      3158      3161      3164      3165
      3158      3161      3164      3166      3158      3161      3164      3167
      3159      3158      3161      3162      3159      3158      3161      3163
      3159      3158      3161      3164      3160      3158      3161      3162
      3160      3158      3161      3163      3160      3158      3161      3164
      3161      3164      3167      3168      3161      3164      3167      3169
      3161      3164      3167      3170      3162      3161      3164      3165
      3162      3161      3164      3166      3162      3161      3164      3167
      3163      3161      3164      3165      3163      3161      3164      3166
      3163      3161      3164      3167      3164      3167      3170      3171
      3164      3167      3170      3172      3164      3167      3170      3173
      3165      3164      3167      3168      3165      3164      3167      3169
      3165      3164      3167      3170      3166      3164      3167      3168
      3166      3164      3167      3169      3166      3164      3167      3170
      3168      3167      3170      3171      3168      3167      3170      3172
      3168      3167      3170      3173      3169      3167      3170      3171
      3169      3167      3170      3172      3169      3167      3170      3173
      3174      3177      3180      3181      3174      3177      3180      3182
      3174      3177      3180      3183      3175      3174      3177      3178
      3175      3174      3177      3179      3175      3174      3177      3180
      3176      3174      3177      3178      3176      3174      3177      3179
      3176      3174      3177      3180      3177      3180      3183      3184
      3177      3180      3183      3185      3177      3180      3183      3186
      3178      3177      3180      3181      3178      3177      3180      3182
      3178      3177      3180      3183      3179      3177      3180      3181
      3179      3177      3180      3182      3179      3177      3180      3183
      3180      3183      3186      3187      3180      3183      3186      3188
      3180      3183      3186      3189      3181      3180      3183      3184
      3181      3180      3183      3185      3181      3180      3183      3186
      3182      3180      3183      3184      3182      3180      3183      3185
      3182      3180      3183      3186      3183      3186      3189      3190
      3183      3186      3189      3191      3183      3186      3189      3192
      3184      3183      3186      3187      3184      3183      3186      3188
      3184      3183      3186      3189      3185      3183      3186      3187
      3185      3183      3186      3188      3185      3183      3186      3189
      3186      3189      3192      3193      3186      3189      3192      3194
      3186      3189      3192      3195      3187      3186      3189      3190
      3187      3186      3189      3191      3187      3186      3189      3192
      3188      3186      3189      3190      3188      3186      3189      3191
      3188      3186      3189      3192      3189      3192      3195      3196
      3189      3192      3195      3197      3189      3192      3195      3198
      3190      3189      3192      3193      3190      3189      3192      3194
      3190      3189      3192      3195      3191      3189      3192      3193
      3191      3189      3192      3194      3191      3189      3192      3195
      3192      3195      3198      3199      3192      3195      3198      3200
      3192      3195      3198      3201      3193      3192      3195      3196
      3193      3192      3195      3197      3193      3192      3195      3198
      3194      3192      3195      3196      3194      3192      3195      3197
      3194      3192      3195      3198      3195      3198      3201      3202
      3195      3198      3201      3203      3195      3198      3201      3204
      3196      3195      3198      3199      3196      3195      3198      3200
      3196      3195      3198      3201      3197      3195      3198      3199
      3197      3195      3198      3200      3197      3195      3198      3201
      3198      3201      3204      3205      3198      3201      3204      3206
      3198      3201      3204      3207      3199      3198      3201      3202
      3199      3198      3201      3203      3199      3198      3201      3204
      3200      3198      3201      3202      3200      3198      3201      3203
      3200      3198      3201      3204      3201      3204      3207      3208
      3201      3204      3207      3209      3201      3204      3207      3210
      3202      3201      3204      3205      3202      3201      3204      3206
      3202      3201      3204      3207      3203      3201      3204      3205
      3203      3201      3204      3206      3203      3201      3204      3207
      3204      3207      3210      3211      3204      3207      3210      3212
      3204      3207      3210      3213      3205      3204      3207      3208
      3205      3204      3207      3209      3205      3204      3207      3210
      3206      3204      3207      3208      3206      3204      3207      3209
      3206      3204      3207      3210      3207      3210      3213      3214
      3207      3210      3213      3215      3207      3210      3213      3216
      3208      3207      3210      3211      3208      3207      3210      3212
      3208      3207      3210      3213      3209      3207      3210      3211
      3209      3207      3210      3212      3209      3207      3210      3213
      3211      3210      3213      3214      3211      3210      3213      3215
      3211      3210      3213      3216      3212      3210      3213      3214
      3212      3210      3213      3215      3212      3210      3213      3216
      3217      3218      3233      3234      3217      3218      3233      3235
      3217      3218      3233      3239      3218      3217      3221      3222
      3218      3217      3221      3223      3218      3217      3221      3224
      3218      3217      3225      3226      3218      3217      3225      3227
      3218      3217      3225      3228      3218      3217      3229      3230
      3218      3217      3229      3231      3218      3217      3229      3232
      3218      3233      3239      3236      3219      3218      3217      3221
      3219      3218      3217      3225      3219      3218      3217      3229
      3219      3218      3233      3234      3219      3218      3233      3235
      3219      3218      3233      3239      3220      3218      3217      3221
      3220      3218      3217      3225      3220      3218      3217      3229
      3220      3218      3233      3234      3220      3218      3233      3235
      3220      3218      3233      3239      3221      3217      3218      3233
      3221      3217      3225      3226      3221      3217      3225      3227
      3221      3217      3225      3228      3221      3217      3229      3230
      3221      3217      3229      3231      3221      3217      3229      3232
      3222      3221      3217      3225      3222      3221      3217      3229
      3223      3221      3217      3225      3223      3221      3217      3229
      3224      3221      3217      3225      3224      3221      3217      3229
      3225      3217      3218      3233      3225      3217      3229      3230
      3225      3217      3229      3231      3225      3217      3229      3232
      3226      3225      3217      3229      3227      3225      3217      3229
      3228      3225      3217      3229      3229      3217      3218      3233
      3233      3239      3236      3237      3233      3239      3236      3238
      3233      3239      3236      3240      3234      3233      3239      3236
      3235      3233      3239      3236      3236      3240      3241      3242
      3236      3240      3241      3243      3236      3240      3241      3244
      3237      3236      3240      3241      3238      3236      3240      3241
      3239      3236      3240      3241      3240      3241      3244      3245
      3240      3241      3244      3246      3240      3241      3244      3252
      3241      3244      3246      3247      3241      3244      3252      3253
      3241      3244      3252      3254      3241      3244      3252      3255
      3242      3241      3244      3245      3242      3241      3244      3246
      3242      3241      3244      3252      3243      3241      3244      3245
      3243      3241      3244      3246      3243      3241      3244      3252
      3244      3246      3247      3248      3244      3246      3247      3249
      3244      3252      3255      3256      3245      3244      3246      3247
      3245      3244      3252      3253      3245      3244      3252      3254
      3245      3244      3252      3255      3246      3244      3252      3253
      3246      3244      3252      3254      3246      3244      3252      3255
      3246      3247      3249      3250      3246      3247      3249      3251
      3246      3247      3249      3261      3247      3246      3244      3252
      3247      3249      3261      3262      3247      3249      3261      3263
      3247      3249      3261      3264      3248      3247      3249      3250
      3248      3247      3249      3251      3248      3247      3249      3261
      3249      3261      3264      3265      3249      3261      3264      3266
      3249      3261      3264      3267      3250      3249      3261      3262
      3250      3249      3261      3263      3250      3249      3261      3264
      3251      3249      3261      3262      3251      3249      3261      3263
      3251      3249      3261      3264      3252      3255      3256      3257
      3252      3255      3256      3258      3253      3252      3255      3256
      3254      3252      3255      3256      3255      3256      3258      3259
      3255      3256      3258      3260      3255      3256      3258      3308
      3256      3258      3308      3309      3256      3258      3308      3310
      3256      3258      3308      3311      3257      3256      3258      3259
      3257      3256      3258      3260      3257      3256      3258      3308
      3258      3308      3311      3312      3258      3308      3311      3313
      3258      3308      3311      3314      3259      3258      3308      3309
      3259      3258      3308      3310      3259      3258      3308      3311
      3260      3258      3308      3309      3260      3258      3308      3310
      3260      3258      3308      3311      3261      3264      3267      3268
      3261      3264      3267      3269      3261      3264      3267      3270
      3262      3261      3264      3265      3262      3261      3264      3266
      3262      3261      3264      3267      3263      3261      3264      3265
      3263      3261      3264      3266      3263      3261      3264      3267
      3264      3267      3270      3271      3264      3267      3270      3272
      3264      3267      3270      3273      3265      3264      3267      3268
      3265      3264      3267      3269      3265      3264      3267      3270
      3266      3264      3267      3268      3266      3264      3267      3269
      3266      3264      3267      3270      3267      3270      3273      3274
      3267      3270      3273      3275      3267      3270      3273      3276
      3268      3267      3270      3271      3268      3267      3270      3272
      3268      3267      3270      3273      3269      3267      3270      3271
      3269      3267      3270      3272      3269      3267      3270      3273
      3270      3273      3276      3277      3270      3273      3276      3278
      3270      3273      3276      3279      3271      3270      3273      3274
      3271      3270      3273      3275      3271      3270      3273      3276
      3272      3270      3273      3274      3272      3270      3273      3275
      3272      3270      3273      3276      3273      3276      3279      3280
      3273      3276      3279      3281      3274      3273      3276      3277
      3274      3273      3276      3278      3274      3273      3276      3279
      3275      3273      3276      3277      3275      3273      3276      3278
      3275      3273      3276      3279      3276      3279      3281      3282
      3276      3279      3281      3283      3277      3276      3279      3280
      3277      3276      3279      3281      3278      3276      3279      3280
      3278      3276      3279      3281      3279      3281      3283      3284
      3279      3281      3283      3285      3279      3281      3283      3286
      3280      3279      3281      3282      3280      3279      3281      3283
      3281      3283      3286      3287      3281      3283      3286      3288
      3281      3283      3286      3289      3282      3281      3283      3284
      3282      3281      3283      3285      3282      3281      3283      3286
      3283      3286      3289      3290      3283      3286      3289      3291
      3283      3286      3289      3292      3284      3283      3286      3287
      3284      3283      3286      3288      3284      3283      3286      3289
      3285      3283      3286      3287      3285      3283      3286      3288
      3285      3283      3286      3289      3286      3289      3292      3293
      3286      3289      3292      3294      3286      3289      3292      3295
      3287      3286      3289      3290      3287      3286      3289      3291
      3287      3286      3289      3292      3288      3286      3289      3290
      3288      3286      3289      3291      3288      3286      3289      3292
      3289      3292      3295      3296      3289      3292      3295      3297
      3289      3292      3295      3298      3290      3289      3292      3293
      3290      3289      3292      3294      3290      3289      3292      3295
      3291      3289      3292      3293      3291      3289      3292      3294
      3291      3289      3292      3295      3292      3295      3298      3299
      3292      3295      3298      3300      3292      3295      3298      3301
      3293      3292      3295      3296      3293      3292      3295      3297
      3293      3292      3295      3298      3294      3292      3295      3296
      3294      3292      3295      3297      3294      3292      3295      3298
      3295      3298      3301      3302      3295      3298      3301      3303
      3295      3298      3301      3304      3296      3295      3298      3299
      3296      3295      3298      3300      3296      3295      3298      3301
      3297      3295      3298      3299      3297      3295      3298      3300
      3297      3295      3298      3301      3298      3301      3304      3305
      3298      3301      3304      3306      3298      3301      3304      3307
      3299      3298      3301      3302      3299      3298      3301      3303
      3299      3298      3301      3304      3300      3298      3301      3302
      3300      3298      3301      3303      3300      3298      3301      3304
      3302      3301      3304      3305      3302      3301      3304      3306
      3302      3301      3304      3307      3303      3301      3304      3305
      3303      3301      3304      3306      3303      3301      3304      3307
      3308      3311      3314      3315      3308      3311      3314      3316
      3308      3311      3314      3317      3309      3308      3311      3312
      3309      3308      3311      3313      3309      3308      3311      3314
      3310      3308      3311      3312      3310      3308      3311      3313
      3310      3308      3311      3314      3311      3314      3317      3318
      3311      3314      3317      3319      3311      3314      3317      3320
      3312      3311      3314      3315      3312      3311      3314      3316
      3312      3311      3314      3317      3313      3311      3314      3315
      3313      3311      3314      3316      3313      3311      3314      3317
      3314      3317      3320      3321      3314      3317      3320      3322
      3314      3317      3320      3323      3315      3314      3317      3318
      3315      3314      3317      3319      3315      3314      3317      3320
      3316      3314      3317      3318      3316      3314      3317      3319
      3316      3314      3317      3320      3317      3320      3323      3324
      3317      3320      3323      3325      3317      3320      3323      3326
      3318      3317      3320      3321      3318      3317      3320      3322
      3318      3317      3320      3323      3319      3317      3320      3321
      3319      3317      3320      3322      3319      3317      3320      3323
      3320      3323      3326      3327      3320      3323      3326      3328
      3320      3323      3326      3329      3321      3320      3323      3324
      3321      3320      3323      3325      3321      3320      3323      3326
      3322      3320      3323      3324      3322      3320      3323      3325
      3322      3320      3323      3326      3323      3326      3329      3330
      3323      3326      3329      3331      3323      3326      3329      3332
      3324      3323      3326      3327      3324      3323      3326      3328
      3324      3323      3326      3329      3325      3323      3326      3327
      3325      3323      3326      3328      3325      3323      3326      3329
      3326      3329      3332      3333      3326      3329      3332      3334
      3326      3329      3332      3335      3327      3326      3329      3330
      3327      3326      3329      3331      3327      3326      3329      3332
      3328      3326      3329      3330      3328      3326      3329      3331
      3328      3326      3329      3332      3329      3332      3335      3336
      3329      3332      3335      3337      3329      3332      3335      3338
      3330      3329      3332      3333      3330      3329      3332      3334
      3330      3329      3332      3335      3331      3329      3332      3333
      3331      3329      3332      3334      3331      3329      3332      3335
      3332      3335      3338      3339      3332      3335      3338      3340
      3332      3335      3338      3341      3333      3332      3335      3336
      3333      3332      3335      3337      3333      3332      3335      3338
      3334      3332      3335      3336      3334      3332      3335      3337
      3334      3332      3335      3338      3335      3338      3341      3342
      3335      3338      3341      3343      3335      3338      3341      3344
      3336      3335      3338      3339      3336      3335      3338      3340
      3336      3335      3338      3341      3337      3335      3338      3339
      3337      3335      3338      3340      3337      3335      3338      3341
      3338      3341      3344      3345      3338      3341      3344      3346
      3338      3341      3344      3347      3339      3338      3341      3342
      3339      3338      3341      3343      3339      3338      3341      3344
      3340      3338      3341      3342      3340      3338      3341      3343
      3340      3338      3341      3344      3341      3344      3347      3348
      3341      3344      3347      3349      3341      3344      3347      3350
      3342      3341      3344      3345      3342      3341      3344      3346
      3342      3341      3344      3347      3343      3341      3344      3345
      3343      3341      3344      3346      3343      3341      3344      3347
      3345      3344      3347      3348      3345      3344      3347      3349
      3345      3344      3347      3350      3346      3344      3347      3348
      3346      3344      3347      3349      3346      3344      3347      3350
      3351      3352      3367      3368      3351      3352      3367      3369
      3351      3352      3367      3373      3352      3351      3355      3356
      3352      3351      3355      3357      3352      3351      3355      3358
      3352      3351      3359      3360      3352      3351      3359      3361
      3352      3351      3359      3362      3352      3351      3363      3364
      3352      3351      3363      3365      3352      3351      3363      3366
      3352      3367      3373      3370      3353      3352      3351      3355
      3353      3352      3351      3359      3353      3352      3351      3363
      3353      3352      3367      3368      3353      3352      3367      3369
      3353      3352      3367      3373      3354      3352      3351      3355
      3354      3352      3351      3359      3354      3352      3351      3363
      3354      3352      3367      3368      3354      3352      3367      3369
      3354      3352      3367      3373      3355      3351      3352      3367
      3355      3351      3359      3360      3355      3351      3359      3361
      3355      3351      3359      3362      3355      3351      3363      3364
      3355      3351      3363      3365      3355      3351      3363      3366
      3356      3355      3351      3359      3356      3355      3351      3363
      3357      3355      3351      3359      3357      3355      3351      3363
      3358      3355      3351      3359      3358      3355      3351      3363
      3359      3351      3352      3367      3359      3351      3363      3364
      3359      3351      3363      3365      3359      3351      3363      3366
      3360      3359      3351      3363      3361      3359      3351      3363
      3362      3359      3351      3363      3363      3351      3352      3367
      3367      3373      3370      3371      3367      3373      3370      3372
      3367      3373      3370      3374      3368      3367      3373      3370
      3369      3367      3373      3370      3370      3374      3375      3376
      3370      3374      3375      3377      3370      3374      3375      3378
      3371      3370      3374      3375      3372      3370      3374      3375
      3373      3370      3374      3375      3374      3375      3378      3379
      3374      3375      3378      3380      3374      3375      3378      3386
      3375      3378      3380      3381      3375      3378      3386      3387
      3375      3378      3386      3388      3375      3378      3386      3389
      3376      3375      3378      3379      3376      3375      3378      3380
      3376      3375      3378      3386      3377      3375      3378      3379
      3377      3375      3378      3380      3377      3375      3378      3386
      3378      3380      3381      3382      3378      3380      3381      3383
      3378      3386      3389      3390      3379      3378      3380      3381
      3379      3378      3386      3387      3379      3378      3386      3388
      3379      3378      3386      3389      3380      3378      3386      3387
      3380      3378      3386      3388      3380      3378      3386      3389
      3380      3381      3383      3384      3380      3381      3383      3385
      3380      3381      3383      3395      3381      3380      3378      3386
      3381      3383      3395      3396      3381      3383      3395      3397
      3381      3383      3395      3398      3382      3381      3383      3384
      3382      3381      3383      3385      3382      3381      3383      3395
      3383      3395      3398      3399      3383      3395      3398      3400
      3383      3395      3398      3401      3384      3383      3395      3396
      3384      3383      3395      3397      3384      3383      3395      3398
      3385      3383      3395      3396      3385      3383      3395      3397
      3385      3383      3395      3398      3386      3389      3390      3391
      3386      3389      3390      3392      3387      3386      3389      3390
      3388      3386      3389      3390      3389      3390      3392      3393
      3389      3390      3392      3394      3389      3390      3392      3442
      3390      3392      3442      3443      3390      3392      3442      3444
      3390      3392      3442      3445      3391      3390      3392      3393
      3391      3390      3392      3394      3391      3390      3392      3442
      3392      3442      3445      3446      3392      3442      3445      3447
      3392      3442      3445      3448      3393      3392      3442      3443
      3393      3392      3442      3444      3393      3392      3442      3445
      3394      3392      3442      3443      3394      3392      3442      3444
      3394      3392      3442      3445      3395      3398      3401      3402
      3395      3398      3401      3403      3395      3398      3401      3404
      3396      3395      3398      3399      3396      3395      3398      3400
      3396      3395      3398      3401      3397      3395      3398      3399
      3397      3395      3398      3400      3397      3395      3398      3401
      3398      3401      3404      3405      3398      3401      3404      3406
      3398      3401      3404      3407      3399      3398      3401      3402
      3399      3398      3401      3403      3399      3398      3401      3404
      3400      3398      3401      3402      3400      3398      3401      3403
      3400      3398      3401      3404      3401      3404      3407      3408
      3401      3404      3407      3409      3401      3404      3407      3410
      3402      3401      3404      3405      3402      3401      3404      3406
      3402      3401      3404      3407      3403      3401      3404      3405
      3403      3401      3404      3406      3403      3401      3404      3407
      3404      3407      3410      3411      3404      3407      3410      3412
      3404      3407      3410      3413      3405      3404      3407      3408
      3405      3404      3407      3409      3405      3404      3407      3410
      3406      3404      3407      3408      3406      3404      3407      3409
      3406      3404      3407      3410      3407      3410      3413      3414
      3407      3410      3413      3415      3408      3407      3410      3411
      3408      3407      3410      3412      3408      3407      3410      3413
      3409      3407      3410      3411      3409      3407      3410      3412
      3409      3407      3410      3413      3410      3413      3415      3416
      3410      3413      3415      3417      3411      3410      3413      3414
      3411      3410      3413      3415      3412      3410      3413      3414
      3412      3410      3413      3415      3413      3415      3417      3418
      3413      3415      3417      3419      3413      3415      3417      3420
      3414      3413      3415      3416      3414      3413      3415      3417
      3415      3417      3420      3421      3415      3417      3420      3422
      3415      3417      3420      3423      3416      3415      3417      3418
      3416      3415      3417      3419      3416      3415      3417      3420
      3417      3420      3423      3424      3417      3420      3423      3425
      3417      3420      3423      3426      3418      3417      3420      3421
      3418      3417      3420      3422      3418      3417      3420      3423
      3419      3417      3420      3421      3419      3417      3420      3422
      3419      3417      3420      3423      3420      3423      3426      3427
      3420      3423      3426      3428      3420      3423      3426      3429
      3421      3420      3423      3424      3421      3420      3423      3425
      3421      3420      3423      3426      3422      3420      3423      3424
      3422      3420      3423      3425      3422      3420      3423      3426
      3423      3426      3429      3430      3423      3426      3429      3431
      3423      3426      3429      3432      3424      3423      3426      3427
      3424      3423      3426      3428      3424      3423      3426      3429
      3425      3423      3426      3427      3425      3423      3426      3428
      3425      3423      3426      3429      3426      3429      3432      3433
      3426      3429      3432      3434      3426      3429      3432      3435
      3427      3426      3429      3430      3427      3426      3429      3431
      3427      3426      3429      3432      3428      3426      3429      3430
      3428      3426      3429      3431      3428      3426      3429      3432
      3429      3432      3435      3436      3429      3432      3435      3437
      3429      3432      3435      3438      3430      3429      3432      3433
      3430      3429      3432      3434      3430      3429      3432      3435
      3431      3429      3432      3433      3431      3429      3432      3434
      3431      3429      3432      3435      3432      3435      3438      3439
      3432      3435      3438      3440      3432      3435      3438      3441
      3433      3432      3435      3436      3433      3432      3435      3437
      3433      3432      3435      3438      3434      3432      3435      3436
      3434      3432      3435      3437      3434      3432      3435      3438
      3436      3435      3438      3439      3436      3435      3438      3440
      3436      3435      3438      3441      3437      3435      3438      3439
      3437      3435      3438      3440      3437      3435      3438      3441
      3442      3445      3448      3449      3442      3445      3448      3450
      3442      3445      3448      3451      3443      3442      3445      3446
      3443      3442      3445      3447      3443      3442      3445      3448
      3444      3442      3445      3446      3444      3442      3445      3447
      3444      3442      3445      3448      3445      3448      3451      3452
      3445      3448      3451      3453      3445      3448      3451      3454
      3446      3445      3448      3449      3446      3445      3448      3450
      3446      3445      3448      3451      3447      3445      3448      3449
      3447      3445      3448      3450      3447      3445      3448      3451
      3448      3451      3454      3455      3448      3451      3454      3456
      3448      3451      3454      3457      3449      3448      3451      3452
      3449      3448      3451      3453      3449      3448      3451      3454
      3450      3448      3451      3452      3450      3448      3451      3453
      3450      3448      3451      3454      3451      3454      3457      3458
      3451      3454      3457      3459      3451      3454      3457      3460
      3452      3451      3454      3455      3452      3451      3454      3456
      3452      3451      3454      3457      3453      3451      3454      3455
      3453      3451      3454      3456      3453      3451      3454      3457
      3454      3457      3460      3461      3454      3457      3460      3462
      3454      3457      3460      3463      3455      3454      3457      3458
      3455      3454      3457      3459      3455      3454      3457      3460
      3456      3454      3457      3458      3456      3454      3457      3459
      3456      3454      3457      3460      3457      3460      3463      3464
      3457      3460      3463      3465      3457      3460      3463      3466
      3458      3457      3460      3461      3458      3457      3460      3462
      3458      3457      3460      3463      3459      3457      3460      3461
      3459      3457      3460      3462      3459      3457      3460      3463
      3460      3463      3466      3467      3460      3463      3466      3468
      3460      3463      3466      3469      3461      3460      3463      3464
      3461      3460      3463      3465      3461      3460      3463      3466
      3462      3460      3463      3464      3462      3460      3463      3465
      3462      3460      3463      3466      3463      3466      3469      3470
      3463      3466      3469      3471      3463      3466      3469      3472
      3464      3463      3466      3467      3464      3463      3466      3468
      3464      3463      3466      3469      3465      3463      3466      3467
      3465      3463      3466      3468      3465      3463      3466      3469
      3466      3469      3472      3473      3466      3469      3472      3474
      3466      3469      3472      3475      3467      3466      3469      3470
      3467      3466      3469      3471      3467      3466      3469      3472
      3468      3466      3469      3470      3468      3466      3469      3471
      3468      3466      3469      3472      3469      3472      3475      3476
      3469      3472      3475      3477      3469      3472      3475      3478
      3470      3469      3472      3473      3470      3469      3472      3474
      3470      3469      3472      3475      3471      3469      3472      3473
      3471      3469      3472      3474      3471      3469      3472      3475
      3472      3475      3478      3479      3472      3475      3478      3480
      3472      3475      3478      3481      3473      3472      3475      3476
      3473      3472      3475      3477      3473      3472      3475      3478
      3474      3472      3475      3476      3474      3472      3475      3477
      3474      3472      3475      3478      3475      3478      3481      3482
      3475      3478      3481      3483      3475      3478      3481      3484
      3476      3475      3478      3479      3476      3475      3478      3480
      3476      3475      3478      3481      3477      3475      3478      3479
      3477      3475      3478      3480      3477      3475      3478      3481
      3479      3478      3481      3482      3479      3478      3481      3483
      3479      3478      3481      3484      3480      3478      3481      3482
      3480      3478      3481      3483      3480      3478      3481      3484
      3485      3486      3501      3502      3485      3486      3501      3503
      3485      3486      3501      3507      3486      3485      3489      3490
      3486      3485      3489      3491      3486      3485      3489      3492
      3486      3485      3493      3494      3486      3485      3493      3495
      3486      3485      3493      3496      3486      3485      3497      3498
      3486      3485      3497      3499      3486      3485      3497      3500
      3486      3501      3507      3504      3487      3486      3485      3489
      3487      3486      3485      3493      3487      3486      3485      3497
      3487      3486      3501      3502      3487      3486      3501      3503
      3487      3486      3501      3507      3488      3486      3485      3489
      3488      3486      3485      3493      3488      3486      3485      3497
      3488      3486      3501      3502      3488      3486      3501      3503
      3488      3486      3501      3507      3489      3485      3486      3501
      3489      3485      3493      3494      3489      3485      3493      3495
      3489      3485      3493      3496      3489      3485      3497      3498
      3489      3485      3497      3499      3489      3485      3497      3500
      3490      3489      3485      3493      3490      3489      3485      3497
      3491      3489      3485      3493      3491      3489      3485      3497
      3492      3489      3485      3493      3492      3489      3485      3497
      3493      3485      3486      3501      3493      3485      3497      3498
      3493      3485      3497      3499      3493      3485      3497      3500
      3494      3493      3485      3497      3495      3493      3485      3497
      3496      3493      3485      3497      3497      3485      3486      3501
      3501      3507      3504      3505      3501      3507      3504      3506
      3501      3507      3504      3508      3502      3501      3507      3504
      3503      3501      3507      3504      3504      3508      3509      3510
      3504      3508      3509      3511      3504      3508      3509      3512
      3505      3504      3508      3509      3506      3504      3508      3509
      3507      3504      3508      3509      3508      3509      3512      3513
      3508      3509      3512      3514      3508      3509      3512      3520
      3509      3512      3514      3515      3509      3512      3520      3521
      3509      3512      3520      3522      3509      3512      3520      3523
      3510      3509      3512      3513      3510      3509      3512      3514
      3510      3509      3512      3520      3511      3509      3512      3513
      3511      3509      3512      3514      3511      3509      3512      3520
      3512      3514      3515      3516      3512      3514      3515      3517
      3512      3520      3523      3524      3513      3512      3514      3515
      3513      3512      3520      3521      3513      3512      3520      3522
      3513      3512      3520      3523      3514      3512      3520      3521
      3514      3512      3520      3522      3514      3512      3520      3523
      3514      3515      3517      3518      3514      3515      3517      3519
      3514      3515      3517      3529      3515      3514      3512      3520
      3515      3517      3529      3530      3515      3517      3529      3531
      3515      3517      3529      3532      3516      3515      3517      3518
      3516      3515      3517      3519      3516      3515      3517      3529
      3517      3529      3532      3533      3517      3529      3532      3534
      3517      3529      3532      3535      3518      3517      3529      3530
      3518      3517      3529      3531      3518      3517      3529      3532
      3519      3517      3529      3530      3519      3517      3529      3531
      3519      3517      3529      3532      3520      3523      3524      3525
      3520      3523      3524      3526      3521      3520      3523      3524
      3522      3520      3523      3524      3523      3524      3526      3527
      3523      3524      3526      3528      3523      3524      3526      3576
      3524      3526      3576      3577      3524      3526      3576      3578
      3524      3526      3576      3579      3525      3524      3526      3527
      3525      3524      3526      3528      3525      3524      3526      3576
      3526      3576      3579      3580      3526      3576      3579      3581
      3526      3576      3579      3582      3527      3526      3576      3577
      3527      3526      3576      3578      3527      3526      3576      3579
      3528      3526      3576      3577      3528      3526      3576      3578
      3528      3526      3576      3579      3529      3532      3535      3536
      3529      3532      3535      3537      3529      3532      3535      3538
      3530      3529      3532      3533      3530      3529      3532      3534
      3530      3529      3532      3535      3531      3529      3532      3533
      3531      3529      3532      3534      3531      3529      3532      3535
      3532      3535      3538      3539      3532      3535      3538      3540
      3532      3535      3538      3541      3533      3532      3535      3536
      3533      3532      3535      3537      3533      3532      3535      3538
      3534      3532      3535      3536      3534      3532      3535      3537
      3534      3532      3535      3538      3535      3538      3541      3542
      3535      3538      3541      3543      3535      3538      3541      3544
      3536      3535      3538      3539      3536      3535      3538      3540
      3536      3535      3538      3541      3537      3535      3538      3539
      3537      3535      3538      3540      3537      3535      3538      3541
      3538      3541      3544      3545      3538      3541      3544      3546
      3538      3541      3544      3547      3539      3538      3541      3542
      3539      3538      3541      3543      3539      3538      3541      3544
      3540      3538      3541      3542      3540      3538      3541      3543
      3540      3538      3541      3544      3541      3544      3547      3548
      3541      3544      3547      3549      3542      3541      3544      3545
      3542      3541      3544      3546      3542      3541      3544      3547
      3543      3541      3544      3545      3543      3541      3544      3546
      3543      3541      3544      3547      3544      3547      3549      3550
      3544      3547      3549      3551      3545      3544      3547      3548
      3545      3544      3547      3549      3546      3544      3547      3548
      3546      3544      3547      3549      3547      3549      3551      3552
      3547      3549      3551      3553      3547      3549      3551      3554
      3548      3547      3549      3550      3548      3547      3549      3551
      3549      3551      3554      3555      3549      3551      3554      3556
      3549      3551      3554      3557      3550      3549      3551      3552
      3550      3549      3551      3553      3550      3549      3551      3554
      3551      3554      3557      3558      3551      3554      3557      3559
      3551      3554      3557      3560      3552      3551      3554      3555
      3552      3551      3554      3556      3552      3551      3554      3557
      3553      3551      3554      3555      3553      3551      3554      3556
      3553      3551      3554      3557      3554      3557      3560      3561
      3554      3557      3560      3562      3554      3557      3560      3563
      3555      3554      3557      3558      3555      3554      3557      3559
      3555      3554      3557      3560      3556      3554      3557      3558
      3556      3554      3557      3559      3556      3554      3557      3560
      3557      3560      3563      3564      3557      3560      3563      3565
      3557      3560      3563      3566      3558      3557      3560      3561
      3558      3557      3560      3562      3558      3557      3560      3563
      3559      3557      3560      3561      3559      3557      3560      3562
      3559      3557      3560      3563      3560      3563      3566      3567
      3560      3563      3566      3568      3560      3563      3566      3569
      3561      3560      3563      3564      3561      3560      3563      3565
      3561      3560      3563      3566      3562      3560      3563      3564
      3562      3560      3563      3565      3562      3560      3563      3566
      3563      3566      3569      3570      3563      3566      3569      3571
      3563      3566      3569      3572      3564      3563      3566      3567
      3564      3563      3566      3568      3564      3563      3566      3569
      3565      3563      3566      3567      3565      3563      3566      3568
      3565      3563      3566      3569      3566      3569      3572      3573
      3566      3569      3572      3574      3566      3569      3572      3575
      3567      3566      3569      3570      3567      3566      3569      3571
      3567      3566      3569      3572      3568      3566      3569      3570
      3568      3566      3569      3571      3568      3566      3569      3572
      3570      3569      3572      3573      3570      3569      3572      3574
      3570      3569      3572      3575      3571      3569      3572      3573
      3571      3569      3572      3574      3571      3569      3572      3575
      3576      3579      3582      3583      3576      3579      3582      3584
      3576      3579      3582      3585      3577      3576      3579      3580
      3577      3576      3579      3581      3577      3576      3579      3582
      3578      3576      3579      3580      3578      3576      3579      3581
      3578      3576      3579      3582      3579      3582      3585      3586
      3579      3582      3585      3587      3579      3582      3585      3588
      3580      3579      3582      3583      3580      3579      3582      3584
      3580      3579      3582      3585      3581      3579      3582      3583
      3581      3579      3582      3584      3581      3579      3582      3585
      3582      3585      3588      3589      3582      3585      3588      3590
      3582      3585      3588      3591      3583      3582      3585      3586
      3583      3582      3585      3587      3583      3582      3585      3588
      3584      3582      3585      3586      3584      3582      3585      3587
      3584      3582      3585      3588      3585      3588      3591      3592
      3585      3588      3591      3593      3585      3588      3591      3594
      3586      3585      3588      3589      3586      3585      3588      3590
      3586      3585      3588      3591      3587      3585      3588      3589
      3587      3585      3588      3590      3587      3585      3588      3591
      3588      3591      3594      3595      3588      3591      3594      3596
      3588      3591      3594      3597      3589      3588      3591      3592
      3589      3588      3591      3593      3589      3588      3591      3594
      3590      3588      3591      3592      3590      3588      3591      3593
      3590      3588      3591      3594      3591      3594      3597      3598
      3591      3594      3597      3599      3591      3594      3597      3600
      3592      3591      3594      3595      3592      3591      3594      3596
      3592      3591      3594      3597      3593      3591      3594      3595
      3593      3591      3594      3596      3593      3591      3594      3597
      3594      3597      3600      3601      3594      3597      3600      3602
      3594      3597      3600      3603      3595      3594      3597      3598
      3595      3594      3597      3599      3595      3594      3597      3600
      3596      3594      3597      3598      3596      3594      3597      3599
      3596      3594      3597      3600      3597      3600      3603      3604
      3597      3600      3603      3605      3597      3600      3603      3606
      3598      3597      3600      3601      3598      3597      3600      3602
      3598      3597      3600      3603      3599      3597      3600      3601
      3599      3597      3600      3602      3599      3597      3600      3603
      3600      3603      3606      3607      3600      3603      3606      3608
      3600      3603      3606      3609      3601      3600      3603      3604
      3601      3600      3603      3605      3601      3600      3603      3606
      3602      3600      3603      3604      3602      3600      3603      3605
      3602      3600      3603      3606      3603      3606      3609      3610
      3603      3606      3609      3611      3603      3606      3609      3612
      3604      3603      3606      3607      3604      3603      3606      3608
      3604      3603      3606      3609      3605      3603      3606      3607
      3605      3603      3606      3608      3605      3603      3606      3609
      3606      3609      3612      3613      3606      3609      3612      3614
      3606      3609      3612      3615      3607      3606      3609      3610
      3607      3606      3609      3611      3607      3606      3609      3612
      3608      3606      3609      3610      3608      3606      3609      3611
      3608      3606      3609      3612      3609      3612      3615      3616
      3609      3612      3615      3617      3609      3612      3615      3618
      3610      3609      3612      3613      3610      3609      3612      3614
      3610      3609      3612      3615      3611      3609      3612      3613
      3611      3609      3612      3614      3611      3609      3612      3615
      3613      3612      3615      3616      3613      3612      3615      3617
      3613      3612      3615      3618      3614      3612      3615      3616
      3614      3612      3615      3617      3614      3612      3615      3618
      3619      3620      3635      3636      3619      3620      3635      3637
      3619      3620      3635      3641      3620      3619      3623      3624
      3620      3619      3623      3625      3620      3619      3623      3626
      3620      3619      3627      3628      3620      3619      3627      3629
      3620      3619      3627      3630      3620      3619      3631      3632
      3620      3619      3631      3633      3620      3619      3631      3634
      3620      3635      3641      3638      3621      3620      3619      3623
      3621      3620      3619      3627      3621      3620      3619      3631
      3621      3620      3635      3636      3621      3620      3635      3637
      3621      3620      3635      3641      3622      3620      3619      3623
      3622      3620      3619      3627      3622      3620      3619      3631
      3622      3620      3635      3636      3622      3620      3635      3637
      3622      3620      3635      3641      3623      3619      3620      3635
      3623      3619      3627      3628      3623      3619      3627      3629
      3623      3619      3627      3630      3623      3619      3631      3632
      3623      3619      3631      3633      3623      3619      3631      3634
      3624      3623      3619      3627      3624      3623      3619      3631
      3625      3623      3619      3627      3625      3623      3619      3631
      3626      3623      3619      3627      3626      3623      3619      3631
      3627      3619      3620      3635      3627      3619      3631      3632
      3627      3619      3631      3633      3627      3619      3631      3634
      3628      3627      3619      3631      3629      3627      3619      3631
      3630      3627      3619      3631      3631      3619      3620      3635
      3635      3641      3638      3639      3635      3641      3638      3640
      3635      3641      3638      3642      3636      3635      3641      3638
      3637      3635      3641      3638      3638      3642      3643      3644
      3638      3642      3643      3645      3638      3642      3643      3646
      3639      3638      3642      3643      3640      3638      3642      3643
      3641      3638      3642      3643      3642      3643      3646      3647
      3642      3643      3646      3648      3642      3643      3646      3654
      3643      3646      3648      3649      3643      3646      3654      3655
      3643      3646      3654      3656      3643      3646      3654      3657
      3644      3643      3646      3647      3644      3643      3646      3648
      3644      3643      3646      3654      3645      3643      3646      3647
      3645      3643      3646      3648      3645      3643      3646      3654
      3646      3648      3649      3650      3646      3648      3649      3651
      3646      3654      3657      3658      3647      3646      3648      3649
      3647      3646      3654      3655      3647      3646      3654      3656
      3647      3646      3654      3657      3648      3646      3654      3655
      3648      3646      3654      3656      3648      3646      3654      3657
      3648      3649      3651      3652      3648      3649      3651      3653
      3648      3649      3651      3663      3649      3648      3646      3654
      3649      3651      3663      3664      3649      3651      3663      3665
      3649      3651      3663      3666      3650      3649      3651      3652
      3650      3649      3651      3653      3650      3649      3651      3663
      3651      3663      3666      3667      3651      3663      3666      3668
      3651      3663      3666      3669      3652      3651      3663      3664
      3652      3651      3663      3665      3652      3651      3663      3666
      3653      3651      3663      3664      3653      3651      3663      3665
      3653      3651      3663      3666      3654      3657      3658      3659
      3654      3657      3658      3660      3655      3654      3657      3658
      3656      3654      3657      3658      3657      3658      3660      3661
      3657      3658      3660      3662      3657      3658      3660      3710
      3658      3660      3710      3711      3658      3660      3710      3712
      3658      3660      3710      3713      3659      3658      3660      3661
      3659      3658      3660      3662      3659      3658      3660      3710
      3660      3710      3713      3714      3660      3710      3713      3715
      3660      3710      3713      3716      3661      3660      3710      3711
      3661      3660      3710      3712      3661      3660      3710      3713
      3662      3660      3710      3711      3662      3660      3710      3712
      3662      3660      3710      3713      3663      3666      3669      3670
      3663      3666      3669      3671      3663      3666      3669      3672
      3664      3663      3666      3667      3664      3663      3666      3668
      3664      3663      3666      3669      3665      3663      3666      3667
      3665      3663      3666      3668      3665      3663      3666      3669
      3666      3669      3672      3673      3666      3669      3672      3674
      3666      3669      3672      3675      3667      3666      3669      3670
      3667      3666      3669      3671      3667      3666      3669      3672
      3668      3666      3669      3670      3668      3666      3669      3671
      3668      3666      3669      3672      3669      3672      3675      3676
      3669      3672      3675      3677      3669      3672      3675      3678
      3670      3669      3672      3673      3670      3669      3672      3674
      3670      3669      3672      3675      3671      3669      3672      3673
      3671      3669      3672      3674      3671      3669      3672      3675
      3672      3675      3678      3679      3672      3675      3678      3680
      3672      3675      3678      3681      3673      3672      3675      3676
      3673      3672      3675      3677      3673      3672      3675      3678
      3674      3672      3675      3676      3674      3672      3675      3677
      3674      3672      3675      3678      3675      3678      3681      3682
      3675      3678      3681      3683      3676      3675      3678      3679
      3676      3675      3678      3680      3676      3675      3678      3681
      3677      3675      3678      3679      3677      3675      3678      3680
      3677      3675      3678      3681      3678      3681      3683      3684
      3678      3681      3683      3685      3679      3678      3681      3682
      3679      3678      3681      3683      3680      3678      3681      3682
      3680      3678      3681      3683      3681      3683      3685      3686
      3681      3683      3685      3687      3681      3683      3685      3688
      3682      3681      3683      3684      3682      3681      3683      3685
      3683      3685      3688      3689      3683      3685      3688      3690
      3683      3685      3688      3691      3684      3683      3685      3686
      3684      3683      3685      3687      3684      3683      3685      3688
      3685      3688      3691      3692      3685      3688      3691      3693
      3685      3688      3691      3694      3686      3685      3688      3689
      3686      3685      3688      3690      3686      3685      3688      3691
      3687      3685      3688      3689      3687      3685      3688      3690
      3687      3685      3688      3691      3688      3691      3694      3695
      3688      3691      3694      3696      3688      3691      3694      3697
      3689      3688      3691      3692      3689      3688      3691      3693
      3689      3688      3691      3694      3690      3688      3691      3692
      3690      3688      3691      3693      3690      3688      3691      3694
      3691      3694      3697      3698      3691      3694      3697      3699
      3691      3694      3697      3700      3692      3691      3694      3695
      3692      3691      3694      3696      3692      3691      3694      3697
      3693      3691      3694      3695      3693      3691      3694      3696
      3693      3691      3694      3697      3694      3697      3700      3701
      3694      3697      3700      3702      3694      3697      3700      3703
      3695      3694      3697      3698      3695      3694      3697      3699
      3695      3694      3697      3700      3696      3694      3697      3698
      3696      3694      3697      3699      3696      3694      3697      3700
      3697      3700      3703      3704      3697      3700      3703      3705
      3697      3700      3703      3706      3698      3697      3700      3701
      3698      3697      3700      3702      3698      3697      3700      3703
      3699      3697      3700      3701      3699      3697      3700      3702
      3699      3697      3700      3703      3700      3703      3706      3707
      3700      3703      3706      3708      3700      3703      3706      3709
      3701      3700      3703      3704      3701      3700      3703      3705
      3701      3700      3703      3706      3702      3700      3703      3704
      3702      3700      3703      3705      3702      3700      3703      3706
      3704      3703      3706      3707      3704      3703      3706      3708
      3704      3703      3706      3709      3705      3703      3706      3707
      3705      3703      3706      3708      3705      3703      3706      3709
      3710      3713      3716      3717      3710      3713      3716      3718
      3710      3713      3716      3719      3711      3710      3713      3714
      3711      3710      3713      3715      3711      3710      3713      3716
      3712      3710      3713      3714      3712      3710      3713      3715
      3712      3710      3713      3716      3713      3716      3719      3720
      3713      3716      3719      3721      3713      3716      3719      3722
      3714      3713      3716      3717      3714      3713      3716      3718
      3714      3713      3716      3719      3715      3713      3716      3717
      3715      3713      3716      3718      3715      3713      3716      3719
      3716      3719      3722      3723      3716      3719      3722      3724
      3716      3719      3722      3725      3717      3716      3719      3720
      3717      3716      3719      3721      3717      3716      3719      3722
      3718      3716      3719      3720      3718      3716      3719      3721
      3718      3716      3719      3722      3719      3722      3725      3726
      3719      3722      3725      3727      3719      3722      3725      3728
      3720      3719      3722      3723      3720      3719      3722      3724
      3720      3719      3722      3725      3721      3719      3722      3723
      3721      3719      3722      3724      3721      3719      3722      3725
      3722      3725      3728      3729      3722      3725      3728      3730
      3722      3725      3728      3731      3723      3722      3725      3726
      3723      3722      3725      3727      3723      3722      3725      3728
      3724      3722      3725      3726      3724      3722      3725      3727
      3724      3722      3725      3728      3725      3728      3731      3732
      3725      3728      3731      3733      3725      3728      3731      3734
      3726      3725      3728      3729      3726      3725      3728      3730
      3726      3725      3728      3731      3727      3725      3728      3729
      3727      3725      3728      3730      3727      3725      3728      3731
      3728      3731      3734      3735      3728      3731      3734      3736
      3728      3731      3734      3737      3729      3728      3731      3732
      3729      3728      3731      3733      3729      3728      3731      3734
      3730      3728      3731      3732      3730      3728      3731      3733
      3730      3728      3731      3734      3731      3734      3737      3738
      3731      3734      3737      3739      3731      3734      3737      3740
      3732      3731      3734      3735      3732      3731      3734      3736
      3732      3731      3734      3737      3733      3731      3734      3735
      3733      3731      3734      3736      3733      3731      3734      3737
      3734      3737      3740      3741      3734      3737      3740      3742
      3734      3737      3740      3743      3735      3734      3737      3738
      3735      3734      3737      3739      3735      3734      3737      3740
      3736      3734      3737      3738      3736      3734      3737      3739
      3736      3734      3737      3740      3737      3740      3743      3744
      3737      3740      3743      3745      3737      3740      3743      3746
      3738      3737      3740      3741      3738      3737      3740      3742
      3738      3737      3740      3743      3739      3737      3740      3741
      3739      3737      3740      3742      3739      3737      3740      3743
      3740      3743      3746      3747      3740      3743      3746      3748
      3740      3743      3746      3749      3741      3740      3743      3744
      3741      3740      3743      3745      3741      3740      3743      3746
      3742      3740      3743      3744      3742      3740      3743      3745
      3742      3740      3743      3746      3743      3746      3749      3750
      3743      3746      3749      3751      3743      3746      3749      3752
      3744      3743      3746      3747      3744      3743      3746      3748
      3744      3743      3746      3749      3745      3743      3746      3747
      3745      3743      3746      3748      3745      3743      3746      3749
      3747      3746      3749      3750      3747      3746      3749      3751
      3747      3746      3749      3752      3748      3746      3749      3750
      3748      3746      3749      3751      3748      3746      3749      3752
      3753      3754      3769      3770      3753      3754      3769      3771
      3753      3754      3769      3775      3754      3753      3757      3758
      3754      3753      3757      3759      3754      3753      3757      3760
      3754      3753      3761      3762      3754      3753      3761      3763
      3754      3753      3761      3764      3754      3753      3765      3766
      3754      3753      3765      3767      3754      3753      3765      3768
      3754      3769      3775      3772      3755      3754      3753      3757
      3755      3754      3753      3761      3755      3754      3753      3765
      3755      3754      3769      3770      3755      3754      3769      3771
      3755      3754      3769      3775      3756      3754      3753      3757
      3756      3754      3753      3761      3756      3754      3753      3765
      3756      3754      3769      3770      3756      3754      3769      3771
      3756      3754      3769      3775      3757      3753      3754      3769
      3757      3753      3761      3762      3757      3753      3761      3763
      3757      3753      3761      3764      3757      3753      3765      3766
      3757      3753      3765      3767      3757      3753      3765      3768
      3758      3757      3753      3761      3758      3757      3753      3765
      3759      3757      3753      3761      3759      3757      3753      3765
      3760      3757      3753      3761      3760      3757      3753      3765
      3761      3753      3754      3769      3761      3753      3765      3766
      3761      3753      3765      3767      3761      3753      3765      3768
      3762      3761      3753      3765      3763      3761      3753      3765
      3764      3761      3753      3765      3765      3753      3754      3769
      3769      3775      3772      3773      3769      3775      3772      3774
      3769      3775      3772      3776      3770      3769      3775      3772
      3771      3769      3775      3772      3772      3776      3777      3778
      3772      3776      3777      3779      3772      3776      3777      3780
      3773      3772      3776      3777      3774      3772      3776      3777
      3775      3772      3776      3777      3776      3777      3780      3781
      3776      3777      3780      3782      3776      3777      3780      3788
      3777      3780      3782      3783      3777      3780      3788      3789
      3777      3780      3788      3790      3777      3780      3788      3791
      3778      3777      3780      3781      3778      3777      3780      3782
      3778      3777      3780      3788      3779      3777      3780      3781
      3779      3777      3780      3782      3779      3777      3780      3788
      3780      3782      3783      3784      3780      3782      3783      3785
      3780      3788      3791      3792      3781      3780      3782      3783
      3781      3780      3788      3789      3781      3780      3788      3790
      3781      3780      3788      3791      3782      3780      3788      3789
      3782      3780      3788      3790      3782      3780      3788      3791
      3782      3783      3785      3786      3782      3783      3785      3787
      3782      3783      3785      3797      3783      3782      3780      3788
      3783      3785      3797      3798      3783      3785      3797      3799
      3783      3785      3797      3800      3784      3783      3785      3786
      3784      3783      3785      3787      3784      3783      3785      3797
      3785      3797      3800      3801      3785      3797      3800      3802
      3785      3797      3800      3803      3786      3785      3797      3798
      3786      3785      3797      3799      3786      3785      3797      3800
      3787      3785      3797      3798      3787      3785      3797      3799
      3787      3785      3797      3800      3788      3791      3792      3793
      3788      3791      3792      3794      3789      3788      3791      3792
      3790      3788      3791      3792      3791      3792      3794      3795
      3791      3792      3794      3796      3791      3792      3794      3844
      3792      3794      3844      3845      3792      3794      3844      3846
      3792      3794      3844      3847      3793      3792      3794      3795
      3793      3792      3794      3796      3793      3792      3794      3844
      3794      3844      3847      3848      3794      3844      3847      3849
      3794      3844      3847      3850      3795      3794      3844      3845
      3795      3794      3844      3846      3795      3794      3844      3847
      3796      3794      3844      3845      3796      3794      3844      3846
      3796      3794      3844      3847      3797      3800      3803      3804
      3797      3800      3803      3805      3797      3800      3803      3806
      3798      3797      3800      3801      3798      3797      3800      3802
      3798      3797      3800      3803      3799      3797      3800      3801
      3799      3797      3800      3802      3799      3797      3800      3803
      3800      3803      3806      3807      3800      3803      3806      3808
      3800      3803      3806      3809      3801      3800      3803      3804
      3801      3800      3803      3805      3801      3800      3803      3806
      3802      3800      3803      3804      3802      3800      3803      3805
      3802      3800      3803      3806      3803      3806      3809      3810
      3803      3806      3809      3811      3803      3806      3809      3812
      3804      3803      3806      3807      3804      3803      3806      3808
      3804      3803      3806      3809      3805      3803      3806      3807
      3805      3803      3806      3808      3805      3803      3806      3809
      3806      3809      3812      3813      3806      3809      3812      3814
      3806      3809      3812      3815      3807      3806      3809      3810
      3807      3806      3809      3811      3807      3806      3809      3812
      3808      3806      3809      3810      3808      3806      3809      3811
      3808      3806      3809      3812      3809      3812      3815      3816
      3809      3812      3815      3817      3810      3809      3812      3813
      3810      3809      3812      3814      3810      3809      3812      3815
      3811      3809      3812      3813      3811      3809      3812      3814
      3811      3809      3812      3815      3812      3815      3817      3818
      3812      3815      3817      3819      3813      3812      3815      3816
      3813      3812      3815      3817      3814      3812      3815      3816
      3814      3812      3815      3817      3815      3817      3819      3820
      3815      3817      3819      3821      3815      3817      3819      3822
      3816      3815      3817      3818      3816      3815      3817      3819
      3817      3819      3822      3823      3817      3819      3822      3824
      3817      3819      3822      3825      3818      3817      3819      3820
      3818      3817      3819      3821      3818      3817      3819      3822
      3819      3822      3825      3826      3819      3822      3825      3827
      3819      3822      3825      3828      3820      3819      3822      3823
      3820      3819      3822      3824      3820      3819      3822      3825
      3821      3819      3822      3823      3821      3819      3822      3824
      3821      3819      3822      3825      3822      3825      3828      3829
      3822      3825      3828      3830      3822      3825      3828      3831
      3823      3822      3825      3826      3823      3822      3825      3827
      3823      3822      3825      3828      3824      3822      3825      3826
      3824      3822      3825      3827      3824      3822      3825      3828
      3825      3828      3831      3832      3825      3828      3831      3833
      3825      3828      3831      3834      3826      3825      3828      3829
      3826      3825      3828      3830      3826      3825      3828      3831
      3827      3825      3828      3829      3827      3825      3828      3830
      3827      3825      3828      3831      3828      3831      3834      3835
      3828      3831      3834      3836      3828      3831      3834      3837
      3829      3828      3831      3832      3829      3828      3831      3833
      3829      3828      3831      3834      3830      3828      3831      3832
      3830      3828      3831      3833      3830      3828      3831      3834
      3831      3834      3837      3838      3831      3834      3837      3839
      3831      3834      3837      3840      3832      3831      3834      3835
      3832      3831      3834      3836      3832      3831      3834      3837
      3833      3831      3834      3835      3833      3831      3834      3836
      3833      3831      3834      3837      3834      3837      3840      3841
      3834      3837      3840      3842      3834      3837      3840      3843
      3835      3834      3837      3838      3835      3834      3837      3839
      3835      3834      3837      3840      3836      3834      3837      3838
      3836      3834      3837      3839      3836      3834      3837      3840
      3838      3837      3840      3841      3838      3837      3840      3842
      3838      3837      3840      3843      3839      3837      3840      3841
      3839      3837      3840      3842      3839      3837      3840      3843
      3844      3847      3850      3851      3844      3847      3850      3852
      3844      3847      3850      3853      3845      3844      3847      3848
      3845      3844      3847      3849      3845      3844      3847      3850
      3846      3844      3847      3848      3846      3844      3847      3849
      3846      3844      3847      3850      3847      3850      3853      3854
      3847      3850      3853      3855      3847      3850      3853      3856
      3848      3847      3850      3851      3848      3847      3850      3852
      3848      3847      3850      3853      3849      3847      3850      3851
      3849      3847      3850      3852      3849      3847      3850      3853
      3850      3853      3856      3857      3850      3853      3856      3858
      3850      3853      3856      3859      3851      3850      3853      3854
      3851      3850      3853      3855      3851      3850      3853      3856
      3852      3850      3853      3854      3852      3850      3853      3855
      3852      3850      3853      3856      3853      3856      3859      3860
      3853      3856      3859      3861      3853      3856      3859      3862
      3854      3853      3856      3857      3854      3853      3856      3858
      3854      3853      3856      3859      3855      3853      3856      3857
      3855      3853      3856      3858      3855      3853      3856      3859
      3856      3859      3862      3863      3856      3859      3862      3864
      3856      3859      3862      3865      3857      3856      3859      3860
      3857      3856      3859      3861      3857      3856      3859      3862
      3858      3856      3859      3860      3858      3856      3859      3861
      3858      3856      3859      3862      3859      3862      3865      3866
      3859      3862      3865      3867      3859      3862      3865      3868
      3860      3859      3862      3863      3860      3859      3862      3864
      3860      3859      3862      3865      3861      3859      3862      3863
      3861      3859      3862      3864      3861      3859      3862      3865
      3862      3865      3868      3869      3862      3865      3868      3870
      3862      3865      3868      3871      3863      3862      3865      3866
      3863      3862      3865      3867      3863      3862      3865      3868
      3864      3862      3865      3866      3864      3862      3865      3867
      3864      3862      3865      3868      3865      3868      3871      3872
      3865      3868      3871      3873      3865      3868      3871      3874
      3866      3865      3868      3869      3866      3865      3868      3870
      3866      3865      3868      3871      3867      3865      3868      3869
      3867      3865      3868      3870      3867      3865      3868      3871
      3868      3871      3874      3875      3868      3871      3874      3876
      3868      3871      3874      3877      3869      3868      3871      3872
      3869      3868      3871      3873      3869      3868      3871      3874
      3870      3868      3871      3872      3870      3868      3871      3873
      3870      3868      3871      3874      3871      3874      3877      3878
      3871      3874      3877      3879      3871      3874      3877      3880
      3872      3871      3874      3875      3872      3871      3874      3876
      3872      3871      3874      3877      3873      3871      3874      3875
      3873      3871      3874      3876      3873      3871      3874      3877
      3874      3877      3880      3881      3874      3877      3880      3882
      3874      3877      3880      3883      3875      3874      3877      3878
      3875      3874      3877      3879      3875      3874      3877      3880
      3876      3874      3877      3878      3876      3874      3877      3879
      3876      3874      3877      3880      3877      3880      3883      3884
      3877      3880      3883      3885      3877      3880      3883      3886
      3878      3877      3880      3881      3878      3877      3880      3882
      3878      3877      3880      3883      3879      3877      3880      3881
      3879      3877      3880      3882      3879      3877      3880      3883
      3881      3880      3883      3884      3881      3880      3883      3885
      3881      3880      3883      3886      3882      3880      3883      3884
      3882      3880      3883      3885      3882      3880      3883      3886
      3887      3888      3903      3904      3887      3888      3903      3905
      3887      3888      3903      3909      3888      3887      3891      3892
      3888      3887      3891      3893      3888      3887      3891      3894
      3888      3887      3895      3896      3888      3887      3895      3897
      3888      3887      3895      3898      3888      3887      3899      3900
      3888      3887      3899      3901      3888      3887      3899      3902
      3888      3903      3909      3906      3889      3888      3887      3891
      3889      3888      3887      3895      3889      3888      3887      3899
      3889      3888      3903      3904      3889      3888      3903      3905
      3889      3888      3903      3909      3890      3888      3887      3891
      3890      3888      3887      3895      3890      3888      3887      3899
      3890      3888      3903      3904      3890      3888      3903      3905
      3890      3888      3903      3909      3891      3887      3888      3903
      3891      3887      3895      3896      3891      3887      3895      3897
      3891      3887      3895      3898      3891      3887      3899      3900
      3891      3887      3899      3901      3891      3887      3899      3902
      3892      3891      3887      3895      3892      3891      3887      3899
      3893      3891      3887      3895      3893      3891      3887      3899
      3894      3891      3887      3895      3894      3891      3887      3899
      3895      3887      3888      3903      3895      3887      3899      3900
      3895      3887      3899      3901      3895      3887      3899      3902
      3896      3895      3887      3899      3897      3895      3887      3899
      3898      3895      3887      3899      3899      3887      3888      3903
      3903      3909      3906      3907      3903      3909      3906      3908
      3903      3909      3906      3910      3904      3903      3909      3906
      3905      3903      3909      3906      3906      3910      3911      3912
      3906      3910      3911      3913      3906      3910      3911      3914
      3907      3906      3910      3911      3908      3906      3910      3911
      3909      3906      3910      3911      3910      3911      3914      3915
      3910      3911      3914      3916      3910      3911      3914      3922
      3911      3914      3916      3917      3911      3914      3922      3923
      3911      3914      3922      3924      3911      3914      3922      3925
      3912      3911      3914      3915      3912      3911      3914      3916
      3912      3911      3914      3922      3913      3911      3914      3915
      3913      3911      3914      3916      3913      3911      3914      3922
      3914      3916      3917      3918      3914      3916      3917      3919
      3914      3922      3925      3926      3915      3914      3916      3917
      3915      3914      3922      3923      3915      3914      3922      3924
      3915      3914      3922      3925      3916      3914      3922      3923
      3916      3914      3922      3924      3916      3914      3922      3925
      3916      3917      3919      3920      3916      3917      3919      3921
      3916      3917      3919      3931      3917      3916      3914      3922
      3917      3919      3931      3932      3917      3919      3931      3933
      3917      3919      3931      3934      3918      3917      3919      3920
      3918      3917      3919      3921      3918      3917      3919      3931
      3919      3931      3934      3935      3919      3931      3934      3936
      3919      3931      3934      3937      3920      3919      3931      3932
      3920      3919      3931      3933      3920      3919      3931      3934
      3921      3919      3931      3932      3921      3919      3931      3933
      3921      3919      3931      3934      3922      3925      3926      3927
      3922      3925      3926      3928      3923      3922      3925      3926
      3924      3922      3925      3926      3925      3926      3928      3929
      3925      3926      3928      3930      3925      3926      3928      3978
      3926      3928      3978      3979      3926      3928      3978      3980
      3926      3928      3978      3981      3927      3926      3928      3929
      3927      3926      3928      3930      3927      3926      3928      3978
      3928      3978      3981      3982      3928      3978      3981      3983
      3928      3978      3981      3984      3929      3928      3978      3979
      3929      3928      3978      3980      3929      3928      3978      3981
      3930      3928      3978      3979      3930      3928      3978      3980
      3930      3928      3978      3981      3931      3934      3937      3938
      3931      3934      3937      3939      3931      3934      3937      3940
      3932      3931      3934      3935      3932      3931      3934      3936
      3932      3931      3934      3937      3933      3931      3934      3935
      3933      3931      3934      3936      3933      3931      3934      3937
      3934      3937      3940      3941      3934      3937      3940      3942
      3934      3937      3940      3943      3935      3934      3937      3938
      3935      3934      3937      3939      3935      3934      3937      3940
      3936      3934      3937      3938      3936      3934      3937      3939
      3936      3934      3937      3940      3937      3940      3943      3944
      3937      3940      3943      3945      3937      3940      3943      3946
      3938      3937      3940      3941      3938      3937      3940      3942
      3938      3937      3940      3943      3939      3937      3940      3941
      3939      3937      3940      3942      3939      3937      3940      3943
      3940      3943      3946      3947      3940      3943      3946      3948
      3940      3943      3946      3949      3941      3940      3943      3944
      3941      3940      3943      3945      3941      3940      3943      3946
      3942      3940      3943      3944      3942      3940      3943      3945
      3942      3940      3943      3946      3943      3946      3949      3950
      3943      3946      3949      3951      3944      3943      3946      3947
      3944      3943      3946      3948      3944      3943      3946      3949
      3945      3943      3946      3947      3945      3943      3946      3948
      3945      3943      3946      3949      3946      3949      3951      3952
      3946      3949      3951      3953      3947      3946      3949      3950
      3947      3946      3949      3951      3948      3946      3949      3950
      3948      3946      3949      3951      3949      3951      3953      3954
      3949      3951      3953      3955      3949      3951      3953      3956
      3950      3949      3951      3952      3950      3949      3951      3953
      3951      3953      3956      3957      3951      3953      3956      3958
      3951      3953      3956      3959      3952      3951      3953      3954
      3952      3951      3953      3955      3952      3951      3953      3956
      3953      3956      3959      3960      3953      3956      3959      3961
      3953      3956      3959      3962      3954      3953      3956      3957
      3954      3953      3956      3958      3954      3953      3956      3959
      3955      3953      3956      3957      3955      3953      3956      3958
      3955      3953      3956      3959      3956      3959      3962      3963
      3956      3959      3962      3964      3956      3959      3962      3965
      3957      3956      3959      3960      3957      3956      3959      3961
      3957      3956      3959      3962      3958      3956      3959      3960
      3958      3956      3959      3961      3958      3956      3959      3962
      3959      3962      3965      3966      3959      3962      3965      3967
      3959      3962      3965      3968      3960      3959      3962      3963
      3960      3959      3962      3964      3960      3959      3962      3965
      3961      3959      3962      3963      3961      3959      3962      3964
      3961      3959      3962      3965      3962      3965      3968      3969
      3962      3965      3968      3970      3962      3965      3968      3971
      3963      3962      3965      3966      3963      3962      3965      3967
      3963      3962      3965      3968      3964      3962      3965      3966
      3964      3962      3965      3967      3964      3962      3965      3968
      3965      3968      3971      3972      3965      3968      3971      3973
      3965      3968      3971      3974      3966      3965      3968      3969
      3966      3965      3968      3970      3966      3965      3968      3971
      3967      3965      3968      3969      3967      3965      3968      3970
      3967      3965      3968      3971      3968      3971      3974      3975
      3968      3971      3974      3976      3968      3971      3974      3977
      3969      3968      3971      3972      3969      3968      3971      3973
      3969      3968      3971      3974      3970      3968      3971      3972
      3970      3968      3971      3973      3970      3968      3971      3974
      3972      3971      3974      3975      3972      3971      3974      3976
      3972      3971      3974      3977      3973      3971      3974      3975
      3973      3971      3974      3976      3973      3971      3974      3977
      3978      3981      3984      3985      3978      3981      3984      3986
      3978      3981      3984      3987      3979      3978      3981      3982
      3979      3978      3981      3983      3979      3978      3981      3984
      3980      3978      3981      3982      3980      3978      3981      3983
      3980      3978      3981      3984      3981      3984      3987      3988
      3981      3984      3987      3989      3981      3984      3987      3990
      3982      3981      3984      3985      3982      3981      3984      3986
      3982      3981      3984      3987      3983      3981      3984      3985
      3983      3981      3984      3986      3983      3981      3984      3987
      3984      3987      3990      3991      3984      3987      3990      3992
      3984      3987      3990      3993      3985      3984      3987      3988
      3985      3984      3987      3989      3985      3984      3987      3990
      3986      3984      3987      3988      3986      3984      3987      3989
      3986      3984      3987      3990      3987      3990      3993      3994
      3987      3990      3993      3995      3987      3990      3993      3996
      3988      3987      3990      3991      3988      3987      3990      3992
      3988      3987      3990      3993      3989      3987      3990      3991
      3989      3987      3990      3992      3989      3987      3990      3993
      3990      3993      3996      3997      3990      3993      3996      3998
      3990      3993      3996      3999      3991      3990      3993      3994
      3991      3990      3993      3995      3991      3990      3993      3996
      3992      3990      3993      3994      3992      3990      3993      3995
      3992      3990      3993      3996      3993      3996      3999      4000
      3993      3996      3999      4001      3993      3996      3999      4002
      3994      3993      3996      3997      3994      3993      3996      3998
      3994      3993      3996      3999      3995      3993      3996      3997
      3995      3993      3996      3998      3995      3993      3996      3999
      3996      3999      4002      4003      3996      3999      4002      4004
      3996      3999      4002      4005      3997      3996      3999      4000
      3997      3996      3999      4001      3997      3996      3999      4002
      3998      3996      3999      4000      3998      3996      3999      4001
      3998      3996      3999      4002      3999      4002      4005      4006
      3999      4002      4005      4007      3999      4002      4005      4008
      4000      3999      4002      4003      4000      3999      4002      4004
      4000      3999      4002      4005      4001      3999      4002      4003
      4001      3999      4002      4004      4001      3999      4002      4005
      4002      4005      4008      4009      4002      4005      4008      4010
      4002      4005      4008      4011      4003      4002      4005      4006
      4003      4002      4005      4007      4003      4002      4005      4008
      4004      4002      4005      4006      4004      4002      4005      4007
      4004      4002      4005      4008      4005      4008      4011      4012
      4005      4008      4011      4013      4005      4008      4011      4014
      4006      4005      4008      4009      4006      4005      4008      4010
      4006      4005      4008      4011      4007      4005      4008      4009
      4007      4005      4008      4010      4007      4005      4008      4011
      4008      4011      4014      4015      4008      4011      4014      4016
      4008      4011      4014      4017      4009      4008      4011      4012
      4009      4008      4011      4013      4009      4008      4011      4014
      4010      4008      4011      4012      4010      4008      4011      4013
      4010      4008      4011      4014      4011      4014      4017      4018
      4011      4014      4017      4019      4011      4014      4017      4020
      4012      4011      4014      4015      4012      4011      4014      4016
      4012      4011      4014      4017      4013      4011      4014      4015
      4013      4011      4014      4016      4013      4011      4014      4017
      4015      4014      4017      4018      4015      4014      4017      4019
      4015      4014      4017      4020      4016      4014      4017      4018
      4016      4014      4017      4019      4016      4014      4017      4020
      4021      4022      4037      4038      4021      4022      4037      4039
      4021      4022      4037      4043      4022      4021      4025      4026
      4022      4021      4025      4027      4022      4021      4025      4028
      4022      4021      4029      4030      4022      4021      4029      4031
      4022      4021      4029      4032      4022      4021      4033      4034
      4022      4021      4033      4035      4022      4021      4033      4036
      4022      4037      4043      4040      4023      4022      4021      4025
      4023      4022      4021      4029      4023      4022      4021      4033
      4023      4022      4037      4038      4023      4022      4037      4039
      4023      4022      4037      4043      4024      4022      4021      4025
      4024      4022      4021      4029      4024      4022      4021      4033
      4024      4022      4037      4038      4024      4022      4037      4039
      4024      4022      4037      4043      4025      4021      4022      4037
      4025      4021      4029      4030      4025      4021      4029      4031
      4025      4021      4029      4032      4025      4021      4033      4034
      4025      4021      4033      4035      4025      4021      4033      4036
      4026      4025      4021      4029      4026      4025      4021      4033
      4027      4025      4021      4029      4027      4025      4021      4033
      4028      4025      4021      4029      4028      4025      4021      4033
      4029      4021      4022      4037      4029      4021      4033      4034
      4029      4021      4033      4035      4029      4021      4033      4036
      4030      4029      4021      4033      4031      4029      4021      4033
      4032      4029      4021      4033      4033      4021      4022      4037
      4037      4043      4040      4041      4037      4043      4040      4042
      4037      4043      4040      4044      4038      4037      4043      4040
      4039      4037      4043      4040      4040      4044      4045      4046
      4040      4044      4045      4047      4040      4044      4045      4048
      4041      4040      4044      4045      4042      4040      4044      4045
      4043      4040      4044      4045      4044      4045      4048      4049
      4044      4045      4048      4050      4044      4045      4048      4056
      4045      4048      4050      4051      4045      4048      4056      4057
      4045      4048      4056      4058      4045      4048      4056      4059
      4046      4045      4048      4049      4046      4045      4048      4050
      4046      4045      4048      4056      4047      4045      4048      4049
      4047      4045      4048      4050      4047      4045      4048      4056
      4048      4050      4051      4052      4048      4050      4051      4053
      4048      4056      4059      4060      4049      4048      4050      4051
      4049      4048      4056      4057      4049      4048      4056      4058
      4049      4048      4056      4059      4050      4048      4056      4057
      4050      4048      4056      4058      4050      4048      4056      4059
      4050      4051      4053      4054      4050      4051      4053      4055
      4050      4051      4053      4065      4051      4050      4048      4056
      4051      4053      4065      4066      4051      4053      4065      4067
      4051      4053      4065      4068      4052      4051      4053      4054
      4052      4051      4053      4055      4052      4051      4053      4065
      4053      4065      4068      4069      4053      4065      4068      4070
      4053      4065      4068      4071      4054      4053      4065      4066
      4054      4053      4065      4067      4054      4053      4065      4068
      4055      4053      4065      4066      4055      4053      4065      4067
      4055      4053      4065      4068      4056      4059      4060      4061
      4056      4059      4060      4062      4057      4056      4059      4060
      4058      4056      4059      4060      4059      4060      4062      4063
      4059      4060      4062      4064      4059      4060      4062      4112
      4060      4062      4112      4113      4060      4062      4112      4114
      4060      4062      4112      4115      4061      4060      4062      4063
      4061      4060      4062      4064      4061      4060      4062      4112
      4062      4112      4115      4116      4062      4112      4115      4117
      4062      4112      4115      4118      4063      4062      4112      4113
      4063      4062      4112      4114      4063      4062      4112      4115
      4064      4062      4112      4113      4064      4062      4112      4114
      4064      4062      4112      4115      4065      4068      4071      4072
      4065      4068      4071      4073      4065      4068      4071      4074
      4066      4065      4068      4069      4066      4065      4068      4070
      4066      4065      4068      4071      4067      4065      4068      4069
      4067      4065      4068      4070      4067      4065      4068      4071
      4068      4071      4074      4075      4068      4071      4074      4076
      4068      4071      4074      4077      4069      4068      4071      4072
      4069      4068      4071      4073      4069      4068      4071      4074
      4070      4068      4071      4072      4070      4068      4071      4073
      4070      4068      4071      4074      4071      4074      4077      4078
      4071      4074      4077      4079      4071      4074      4077      4080
      4072      4071      4074      4075      4072      4071      4074      4076
      4072      4071      4074      4077      4073      4071      4074      4075
      4073      4071      4074      4076      4073      4071      4074      4077
      4074      4077      4080      4081      4074      4077      4080      4082
      4074      4077      4080      4083      4075      4074      4077      4078
      4075      4074      4077      4079      4075      4074      4077      4080
      4076      4074      4077      4078      4076      4074      4077      4079
      4076      4074      4077      4080      4077      4080      4083      4084
      4077      4080      4083      4085      4078      4077      4080      4081
      4078      4077      4080      4082      4078      4077      4080      4083
      4079      4077      4080      4081      4079      4077      4080      4082
      4079      4077      4080      4083      4080      4083      4085      4086
      4080      4083      4085      4087      4081      4080      4083      4084
      4081      4080      4083      4085      4082      4080      4083      4084
      4082      4080      4083      4085      4083      4085      4087      4088
      4083      4085      4087      4089      4083      4085      4087      4090
      4084      4083      4085      4086      4084      4083      4085      4087
      4085      4087      4090      4091      4085      4087      4090      4092
      4085      4087      4090      4093      4086      4085      4087      4088
      4086      4085      4087      4089      4086      4085      4087      4090
      4087      4090      4093      4094      4087      4090      4093      4095
      4087      4090      4093      4096      4088      4087      4090      4091
      4088      4087      4090      4092      4088      4087      4090      4093
      4089      4087      4090      4091      4089      4087      4090      4092
      4089      4087      4090      4093      4090      4093      4096      4097
      4090      4093      4096      4098      4090      4093      4096      4099
      4091      4090      4093      4094      4091      4090      4093      4095
      4091      4090      4093      4096      4092      4090      4093      4094
      4092      4090      4093      4095      4092      4090      4093      4096
      4093      4096      4099      4100      4093      4096      4099      4101
      4093      4096      4099      4102      4094      4093      4096      4097
      4094      4093      4096      4098      4094      4093      4096      4099
      4095      4093      4096      4097      4095      4093      4096      4098
      4095      4093      4096      4099      4096      4099      4102      4103
      4096      4099      4102      4104      4096      4099      4102      4105
      4097      4096      4099      4100      4097      4096      4099      4101
      4097      4096      4099      4102      4098      4096      4099      4100
      4098      4096      4099      4101      4098      4096      4099      4102
      4099      4102      4105      4106      4099      4102      4105      4107
      4099      4102      4105      4108      4100      4099      4102      4103
      4100      4099      4102      4104      4100      4099      4102      4105
      4101      4099      4102      4103      4101      4099      4102      4104
      4101      4099      4102      4105      4102      4105      4108      4109
      4102      4105      4108      4110      4102      4105      4108      4111
      4103      4102      4105      4106      4103      4102      4105      4107
      4103      4102      4105      4108      4104      4102      4105      4106
      4104      4102      4105      4107      4104      4102      4105      4108
      4106      4105      4108      4109      4106      4105      4108      4110
      4106      4105      4108      4111      4107      4105      4108      4109
      4107      4105      4108      4110      4107      4105      4108      4111
      4112      4115      4118      4119      4112      4115      4118      4120
      4112      4115      4118      4121      4113      4112      4115      4116
      4113      4112      4115      4117      4113      4112      4115      4118
      4114      4112      4115      4116      4114      4112      4115      4117
      4114      4112      4115      4118      4115      4118      4121      4122
      4115      4118      4121      4123      4115      4118      4121      4124
      4116      4115      4118      4119      4116      4115      4118      4120
      4116      4115      4118      4121      4117      4115      4118      4119
      4117      4115      4118      4120      4117      4115      4118      4121
      4118      4121      4124      4125      4118      4121      4124      4126
      4118      4121      4124      4127      4119      4118      4121      4122
      4119      4118      4121      4123      4119      4118      4121      4124
      4120      4118      4121      4122      4120      4118      4121      4123
      4120      4118      4121      4124      4121      4124      4127      4128
      4121      4124      4127      4129      4121      4124      4127      4130
      4122      4121      4124      4125      4122      4121      4124      4126
      4122      4121      4124      4127      4123      4121      4124      4125
      4123      4121      4124      4126      4123      4121      4124      4127
      4124      4127      4130      4131      4124      4127      4130      4132
      4124      4127      4130      4133      4125      4124      4127      4128
      4125      4124      4127      4129      4125      4124      4127      4130
      4126      4124      4127      4128      4126      4124      4127      4129
      4126      4124      4127      4130      4127      4130      4133      4134
      4127      4130      4133      4135      4127      4130      4133      4136
      4128      4127      4130      4131      4128      4127      4130      4132
      4128      4127      4130      4133      4129      4127      4130      4131
      4129      4127      4130      4132      4129      4127      4130      4133
      4130      4133      4136      4137      4130      4133      4136      4138
      4130      4133      4136      4139      4131      4130      4133      4134
      4131      4130      4133      4135      4131      4130      4133      4136
      4132      4130      4133      4134      4132      4130      4133      4135
      4132      4130      4133      4136      4133      4136      4139      4140
      4133      4136      4139      4141      4133      4136      4139      4142
      4134      4133      4136      4137      4134      4133      4136      4138
      4134      4133      4136      4139      4135      4133      4136      4137
      4135      4133      4136      4138      4135      4133      4136      4139
      4136      4139      4142      4143      4136      4139      4142      4144
      4136      4139      4142      4145      4137      4136      4139      4140
      4137      4136      4139      4141      4137      4136      4139      4142
      4138      4136      4139      4140      4138      4136      4139      4141
      4138      4136      4139      4142      4139      4142      4145      4146
      4139      4142      4145      4147      4139      4142      4145      4148
      4140      4139      4142      4143      4140      4139      4142      4144
      4140      4139      4142      4145      4141      4139      4142      4143
      4141      4139      4142      4144      4141      4139      4142      4145
      4142      4145      4148      4149      4142      4145      4148      4150
      4142      4145      4148      4151      4143      4142      4145      4146
      4143      4142      4145      4147      4143      4142      4145      4148
      4144      4142      4145      4146      4144      4142      4145      4147
      4144      4142      4145      4148      4145      4148      4151      4152
      4145      4148      4151      4153      4145      4148      4151      4154
      4146      4145      4148      4149      4146      4145      4148      4150
      4146      4145      4148      4151      4147      4145      4148      4149
      4147      4145      4148      4150      4147      4145      4148      4151
      4149      4148      4151      4152      4149      4148      4151      4153
      4149      4148      4151      4154      4150      4148      4151      4152
      4150      4148      4151      4153      4150      4148      4151      4154
      4155      4156      4171      4172      4155      4156      4171      4173
      4155      4156      4171      4177      4156      4155      4159      4160
      4156      4155      4159      4161      4156      4155      4159      4162
      4156      4155      4163      4164      4156      4155      4163      4165
      4156      4155      4163      4166      4156      4155      4167      4168
      4156      4155      4167      4169      4156      4155      4167      4170
      4156      4171      4177      4174      4157      4156      4155      4159
      4157      4156      4155      4163      4157      4156      4155      4167
      4157      4156      4171      4172      4157      4156      4171      4173
      4157      4156      4171      4177      4158      4156      4155      4159
      4158      4156      4155      4163      4158      4156      4155      4167
      4158      4156      4171      4172      4158      4156      4171      4173
      4158      4156      4171      4177      4159      4155      4156      4171
      4159      4155      4163      4164      4159      4155      4163      4165
      4159      4155      4163      4166      4159      4155      4167      4168
      4159      4155      4167      4169      4159      4155      4167      4170
      4160      4159      4155      4163      4160      4159      4155      4167
      4161      4159      4155      4163      4161      4159      4155      4167
      4162      4159      4155      4163      4162      4159      4155      4167
      4163      4155      4156      4171      4163      4155      4167      4168
      4163      4155      4167      4169      4163      4155      4167      4170
      4164      4163      4155      4167      4165      4163      4155      4167
      4166      4163      4155      4167      4167      4155      4156      4171
      4171      4177      4174      4175      4171      4177      4174      4176
      4171      4177      4174      4178      4172      4171      4177      4174
      4173      4171      4177      4174      4174      4178      4179      4180
      4174      4178      4179      4181      4174      4178      4179      4182
      4175      4174      4178      4179      4176      4174      4178      4179
      4177      4174      4178      4179      4178      4179      4182      4183
      4178      4179      4182      4184      4178      4179      4182      4190
      4179      4182      4184      4185      4179      4182      4190      4191
      4179      4182      4190      4192      4179      4182      4190      4193
      4180      4179      4182      4183      4180      4179      4182      4184
      4180      4179      4182      4190      4181      4179      4182      4183
      4181      4179      4182      4184      4181      4179      4182      4190
      4182      4184      4185      4186      4182      4184      4185      4187
      4182      4190      4193      4194      4183      4182      4184      4185
      4183      4182      4190      4191      4183      4182      4190      4192
      4183      4182      4190      4193      4184      4182      4190      4191
      4184      4182      4190      4192      4184      4182      4190      4193
      4184      4185      4187      4188      4184      4185      4187      4189
      4184      4185      4187      4199      4185      4184      4182      4190
      4185      4187      4199      4200      4185      4187      4199      4201
      4185      4187      4199      4202      4186      4185      4187      4188
      4186      4185      4187      4189      4186      4185      4187      4199
      4187      4199      4202      4203      4187      4199      4202      4204
      4187      4199      4202      4205      4188      4187      4199      4200
      4188      4187      4199      4201      4188      4187      4199      4202
      4189      4187      4199      4200      4189      4187      4199      4201
      4189      4187      4199      4202      4190      4193      4194      4195
      4190      4193      4194      4196      4191      4190      4193      4194
      4192      4190      4193      4194      4193      4194      4196      4197
      4193      4194      4196      4198      4193      4194      4196      4246
      4194      4196      4246      4247      4194      4196      4246      4248
      4194      4196      4246      4249      4195      4194      4196      4197
      4195      4194      4196      4198      4195      4194      4196      4246
      4196      4246      4249      4250      4196      4246      4249      4251
      4196      4246      4249      4252      4197      4196      4246      4247
      4197      4196      4246      4248      4197      4196      4246      4249
      4198      4196      4246      4247      4198      4196      4246      4248
      4198      4196      4246      4249      4199      4202      4205      4206
      4199      4202      4205      4207      4199      4202      4205      4208
      4200      4199      4202      4203      4200      4199      4202      4204
      4200      4199      4202      4205      4201      4199      4202      4203
      4201      4199      4202      4204      4201      4199      4202      4205
      4202      4205      4208      4209      4202      4205      4208      4210
      4202      4205      4208      4211      4203      4202      4205      4206
      4203      4202      4205      4207      4203      4202      4205      4208
      4204      4202      4205      4206      4204      4202      4205      4207
      4204      4202      4205      4208      4205      4208      4211      4212
      4205      4208      4211      4213      4205      4208      4211      4214
      4206      4205      4208      4209      4206      4205      4208      4210
      4206      4205      4208      4211      4207      4205      4208      4209
      4207      4205      4208      4210      4207      4205      4208      4211
      4208      4211      4214      4215      4208      4211      4214      4216
      4208      4211      4214      4217      4209      4208      4211      4212
      4209      4208      4211      4213      4209      4208      4211      4214
      4210      4208      4211      4212      4210      4208      4211      4213
      4210      4208      4211      4214      4211      4214      4217      4218
      4211      4214      4217      4219      4212      4211      4214      4215
      4212      4211      4214      4216      4212      4211      4214      4217
      4213      4211      4214      4215      4213      4211      4214      4216
      4213      4211      4214      4217      4214      4217      4219      4220
      4214      4217      4219      4221      4215      4214      4217      4218
      4215      4214      4217      4219      4216      4214      4217      4218
      4216      4214      4217      4219      4217      4219      4221      4222
      4217      4219      4221      4223      4217      4219      4221      4224
      4218      4217      4219      4220      4218      4217      4219      4221
      4219      4221      4224      4225      4219      4221      4224      4226
      4219      4221      4224      4227      4220      4219      4221      4222
      4220      4219      4221      4223      4220      4219      4221      4224
      4221      4224      4227      4228      4221      4224      4227      4229
      4221      4224      4227      4230      4222      4221      4224      4225
      4222      4221      4224      4226      4222      4221      4224      4227
      4223      4221      4224      4225      4223      4221      4224      4226
      4223      4221      4224      4227      4224      4227      4230      4231
      4224      4227      4230      4232      4224      4227      4230      4233
      4225      4224      4227      4228      4225      4224      4227      4229
      4225      4224      4227      4230      4226      4224      4227      4228
      4226      4224      4227      4229      4226      4224      4227      4230
      4227      4230      4233      4234      4227      4230      4233      4235
      4227      4230      4233      4236      4228      4227      4230      4231
      4228      4227      4230      4232      4228      4227      4230      4233
      4229      4227      4230      4231      4229      4227      4230      4232
      4229      4227      4230      4233      4230      4233      4236      4237
      4230      4233      4236      4238      4230      4233      4236      4239
      4231      4230      4233      4234      4231      4230      4233      4235
      4231      4230      4233      4236      4232      4230      4233      4234
      4232      4230      4233      4235      4232      4230      4233      4236
      4233      4236      4239      4240      4233      4236      4239      4241
      4233      4236      4239      4242      4234      4233      4236      4237
      4234      4233      4236      4238      4234      4233      4236      4239
      4235      4233      4236      4237      4235      4233      4236      4238
      4235      4233      4236      4239      4236      4239      4242      4243
      4236      4239      4242      4244      4236      4239      4242      4245
      4237      4236      4239      4240      4237      4236      4239      4241
      4237      4236      4239      4242      4238      4236      4239      4240
      4238      4236      4239      4241      4238      4236      4239      4242
      4240      4239      4242      4243      4240      4239      4242      4244
      4240      4239      4242      4245      4241      4239      4242      4243
      4241      4239      4242      4244      4241      4239      4242      4245
      4246      4249      4252      4253      4246      4249      4252      4254
      4246      4249      4252      4255      4247      4246      4249      4250
      4247      4246      4249      4251      4247      4246      4249      4252
      4248      4246      4249      4250      4248      4246      4249      4251
      4248      4246      4249      4252      4249      4252      4255      4256
      4249      4252      4255      4257      4249      4252      4255      4258
      4250      4249      4252      4253      4250      4249      4252      4254
      4250      4249      4252      4255      4251      4249      4252      4253
      4251      4249      4252      4254      4251      4249      4252      4255
      4252      4255      4258      4259      4252      4255      4258      4260
      4252      4255      4258      4261      4253      4252      4255      4256
      4253      4252      4255      4257      4253      4252      4255      4258
      4254      4252      4255      4256      4254      4252      4255      4257
      4254      4252      4255      4258      4255      4258      4261      4262
      4255      4258      4261      4263      4255      4258      4261      4264
      4256      4255      4258      4259      4256      4255      4258      4260
      4256      4255      4258      4261      4257      4255      4258      4259
      4257      4255      4258      4260      4257      4255      4258      4261
      4258      4261      4264      4265      4258      4261      4264      4266
      4258      4261      4264      4267      4259      4258      4261      4262
      4259      4258      4261      4263      4259      4258      4261      4264
      4260      4258      4261      4262      4260      4258      4261      4263
      4260      4258      4261      4264      4261      4264      4267      4268
      4261      4264      4267      4269      4261      4264      4267      4270
      4262      4261      4264      4265      4262      4261      4264      4266
      4262      4261      4264      4267      4263      4261      4264      4265
      4263      4261      4264      4266      4263      4261      4264      4267
      4264      4267      4270      4271      4264      4267      4270      4272
      4264      4267      4270      4273      4265      4264      4267      4268
      4265      4264      4267      4269      4265      4264      4267      4270
      4266      4264      4267      4268      4266      4264      4267      4269
      4266      4264      4267      4270      4267      4270      4273      4274
      4267      4270      4273      4275      4267      4270      4273      4276
      4268      4267      4270      4271      4268      4267      4270      4272
      4268      4267      4270      4273      4269      4267      4270      4271
      4269      4267      4270      4272      4269      4267      4270      4273
      4270      4273      4276      4277      4270      4273      4276      4278
      4270      4273      4276      4279      4271      4270      4273      4274
      4271      4270      4273      4275      4271      4270      4273      4276
      4272      4270      4273      4274      4272      4270      4273      4275
      4272      4270      4273      4276      4273      4276      4279      4280
      4273      4276      4279      4281      4273      4276      4279      4282
      4274      4273      4276      4277      4274      4273      4276      4278
      4274      4273      4276      4279      4275      4273      4276      4277
      4275      4273      4276      4278      4275      4273      4276      4279
      4276      4279      4282      4283      4276      4279      4282      4284
      4276      4279      4282      4285      4277      4276      4279      4280
      4277      4276      4279      4281      4277      4276      4279      4282
      4278      4276      4279      4280      4278      4276      4279      4281
      4278      4276      4279      4282      4279      4282      4285      4286
      4279      4282      4285      4287      4279      4282      4285      4288
      4280      4279      4282      4283      4280      4279      4282      4284
      4280      4279      4282      4285      4281      4279      4282      4283
      4281      4279      4282      4284      4281      4279      4282      4285
      4283      4282      4285      4286      4283      4282      4285      4287
      4283      4282      4285      4288      4284      4282      4285      4286
      4284      4282      4285      4287      4284      4282      4285      4288
      4289      4290      4305      4306      4289      4290      4305      4307
      4289      4290      4305      4311      4290      4289      4293      4294
      4290      4289      4293      4295      4290      4289      4293      4296
      4290      4289      4297      4298      4290      4289      4297      4299
      4290      4289      4297      4300      4290      4289      4301      4302
      4290      4289      4301      4303      4290      4289      4301      4304
      4290      4305      4311      4308      4291      4290      4289      4293
      4291      4290      4289      4297      4291      4290      4289      4301
      4291      4290      4305      4306      4291      4290      4305      4307
      4291      4290      4305      4311      4292      4290      4289      4293
      4292      4290      4289      4297      4292      4290      4289      4301
      4292      4290      4305      4306      4292      4290      4305      4307
      4292      4290      4305      4311      4293      4289      4290      4305
      4293      4289      4297      4298      4293      4289      4297      4299
      4293      4289      4297      4300      4293      4289      4301      4302
      4293      4289      4301      4303      4293      4289      4301      4304
      4294      4293      4289      4297      4294      4293      4289      4301
      4295      4293      4289      4297      4295      4293      4289      4301
      4296      4293      4289      4297      4296      4293      4289      4301
      4297      4289      4290      4305      4297      4289      4301      4302
      4297      4289      4301      4303      4297      4289      4301      4304
      4298      4297      4289      4301      4299      4297      4289      4301
      4300      4297      4289      4301      4301      4289      4290      4305
      4305      4311      4308      4309      4305      4311      4308      4310
      4305      4311      4308      4312      4306      4305      4311      4308
      4307      4305      4311      4308      4308      4312      4313      4314
      4308      4312      4313      4315      4308      4312      4313      4316
      4309      4308      4312      4313      4310      4308      4312      4313
      4311      4308      4312      4313      4312      4313      4316      4317
      4312      4313      4316      4318      4312      4313      4316      4324
      4313      4316      4318      4319      4313      4316      4324      4325
      4313      4316      4324      4326      4313      4316      4324      4327
      4314      4313      4316      4317      4314      4313      4316      4318
      4314      4313      4316      4324      4315      4313      4316      4317
      4315      4313      4316      4318      4315      4313      4316      4324
      4316      4318      4319      4320      4316      4318      4319      4321
      4316      4324      4327      4328      4317      4316      4318      4319
      4317      4316      4324      4325      4317      4316      4324      4326
      4317      4316      4324      4327      4318      4316      4324      4325
      4318      4316      4324      4326      4318      4316      4324      4327
      4318      4319      4321      4322      4318      4319      4321      4323
      4318      4319      4321      4333      4319      4318      4316      4324
      4319      4321      4333      4334      4319      4321      4333      4335
      4319      4321      4333      4336      4320      4319      4321      4322
      4320      4319      4321      4323      4320      4319      4321      4333
      4321      4333      4336      4337      4321      4333      4336      4338
      4321      4333      4336      4339      4322      4321      4333      4334
      4322      4321      4333      4335      4322      4321      4333      4336
      4323      4321      4333      4334      4323      4321      4333      4335
      4323      4321      4333      4336      4324      4327      4328      4329
      4324      4327      4328      4330      4325      4324      4327      4328
      4326      4324      4327      4328      4327      4328      4330      4331
      4327      4328      4330      4332      4327      4328      4330      4380
      4328      4330      4380      4381      4328      4330      4380      4382
      4328      4330      4380      4383      4329      4328      4330      4331
      4329      4328      4330      4332      4329      4328      4330      4380
      4330      4380      4383      4384      4330      4380      4383      4385
      4330      4380      4383      4386      4331      4330      4380      4381
      4331      4330      4380      4382      4331      4330      4380      4383
      4332      4330      4380      4381      4332      4330      4380      4382
      4332      4330      4380      4383      4333      4336      4339      4340
      4333      4336      4339      4341      4333      4336      4339      4342
      4334      4333      4336      4337      4334      4333      4336      4338
      4334      4333      4336      4339      4335      4333      4336      4337
      4335      4333      4336      4338      4335      4333      4336      4339
      4336      4339      4342      4343      4336      4339      4342      4344
      4336      4339      4342      4345      4337      4336      4339      4340
      4337      4336      4339      4341      4337      4336      4339      4342
      4338      4336      4339      4340      4338      4336      4339      4341
      4338      4336      4339      4342      4339      4342      4345      4346
      4339      4342      4345      4347      4339      4342      4345      4348
      4340      4339      4342      4343      4340      4339      4342      4344
      4340      4339      4342      4345      4341      4339      4342      4343
      4341      4339      4342      4344      4341      4339      4342      4345
      4342      4345      4348      4349      4342      4345      4348      4350
      4342      4345      4348      4351      4343      4342      4345      4346
      4343      4342      4345      4347      4343      4342      4345      4348
      4344      4342      4345      4346      4344      4342      4345      4347
      4344      4342      4345      4348      4345      4348      4351      4352
      4345      4348      4351      4353      4346      4345      4348      4349
      4346      4345      4348      4350      4346      4345      4348      4351
      4347      4345      4348      4349      4347      4345      4348      4350
      4347      4345      4348      4351      4348      4351      4353      4354
      4348      4351      4353      4355      4349      4348      4351      4352
      4349      4348      4351      4353      4350      4348      4351      4352
      4350      4348      4351      4353      4351      4353      4355      4356
      4351      4353      4355      4357      4351      4353      4355      4358
      4352      4351      4353      4354      4352      4351      4353      4355
      4353      4355      4358      4359      4353      4355      4358      4360
      4353      4355      4358      4361      4354      4353      4355      4356
      4354      4353      4355      4357      4354      4353      4355      4358
      4355      4358      4361      4362      4355      4358      4361      4363
      4355      4358      4361      4364      4356      4355      4358      4359
      4356      4355      4358      4360      4356      4355      4358      4361
      4357      4355      4358      4359      4357      4355      4358      4360
      4357      4355      4358      4361      4358      4361      4364      4365
      4358      4361      4364      4366      4358      4361      4364      4367
      4359      4358      4361      4362      4359      4358      4361      4363
      4359      4358      4361      4364      4360      4358      4361      4362
      4360      4358      4361      4363      4360      4358      4361      4364
      4361      4364      4367      4368      4361      4364      4367      4369
      4361      4364      4367      4370      4362      4361      4364      4365
      4362      4361      4364      4366      4362      4361      4364      4367
      4363      4361      4364      4365      4363      4361      4364      4366
      4363      4361      4364      4367      4364      4367      4370      4371
      4364      4367      4370      4372      4364      4367      4370      4373
      4365      4364      4367      4368      4365      4364      4367      4369
      4365      4364      4367      4370      4366      4364      4367      4368
      4366      4364      4367      4369      4366      4364      4367      4370
      4367      4370      4373      4374      4367      4370      4373      4375
      4367      4370      4373      4376      4368      4367      4370      4371
      4368      4367      4370      4372      4368      4367      4370      4373
      4369      4367      4370      4371      4369      4367      4370      4372
      4369      4367      4370      4373      4370      4373      4376      4377
      4370      4373      4376      4378      4370      4373      4376      4379
      4371      4370      4373      4374      4371      4370      4373      4375
      4371      4370      4373      4376      4372      4370      4373      4374
      4372      4370      4373      4375      4372      4370      4373      4376
      4374      4373      4376      4377      4374      4373      4376      4378
      4374      4373      4376      4379      4375      4373      4376      4377
      4375      4373      4376      4378      4375      4373      4376      4379
      4380      4383      4386      4387      4380      4383      4386      4388
      4380      4383      4386      4389      4381      4380      4383      4384
      4381      4380      4383      4385      4381      4380      4383      4386
      4382      4380      4383      4384      4382      4380      4383      4385
      4382      4380      4383      4386      4383      4386      4389      4390
      4383      4386      4389      4391      4383      4386      4389      4392
      4384      4383      4386      4387      4384      4383      4386      4388
      4384      4383      4386      4389      4385      4383      4386      4387
      4385      4383      4386      4388      4385      4383      4386      4389
      4386      4389      4392      4393      4386      4389      4392      4394
      4386      4389      4392      4395      4387      4386      4389      4390
      4387      4386      4389      4391      4387      4386      4389      4392
      4388      4386      4389      4390      4388      4386      4389      4391
      4388      4386      4389      4392      4389      4392      4395      4396
      4389      4392      4395      4397      4389      4392      4395      4398
      4390      4389      4392      4393      4390      4389      4392      4394
      4390      4389      4392      4395      4391      4389      4392      4393
      4391      4389      4392      4394      4391      4389      4392      4395
      4392      4395      4398      4399      4392      4395      4398      4400
      4392      4395      4398      4401      4393      4392      4395      4396
      4393      4392      4395      4397      4393      4392      4395      4398
      4394      4392      4395      4396      4394      4392      4395      4397
      4394      4392      4395      4398      4395      4398      4401      4402
      4395      4398      4401      4403      4395      4398      4401      4404
      4396      4395      4398      4399      4396      4395      4398      4400
      4396      4395      4398      4401      4397      4395      4398      4399
      4397      4395      4398      4400      4397      4395      4398      4401
      4398      4401      4404      4405      4398      4401      4404      4406
      4398      4401      4404      4407      4399      4398      4401      4402
      4399      4398      4401      4403      4399      4398      4401      4404
      4400      4398      4401      4402      4400      4398      4401      4403
      4400      4398      4401      4404      4401      4404      4407      4408
      4401      4404      4407      4409      4401      4404      4407      4410
      4402      4401      4404      4405      4402      4401      4404      4406
      4402      4401      4404      4407      4403      4401      4404      4405
      4403      4401      4404      4406      4403      4401      4404      4407
      4404      4407      4410      4411      4404      4407      4410      4412
      4404      4407      4410      4413      4405      4404      4407      4408
      4405      4404      4407      4409      4405      4404      4407      4410
      4406      4404      4407      4408      4406      4404      4407      4409
      4406      4404      4407      4410      4407      4410      4413      4414
      4407      4410      4413      4415      4407      4410      4413      4416
      4408      4407      4410      4411      4408      4407      4410      4412
      4408      4407      4410      4413      4409      4407      4410      4411
      4409      4407      4410      4412      4409      4407      4410      4413
      4410      4413      4416      4417      4410      4413      4416      4418
      4410      4413      4416      4419      4411      4410      4413      4414
      4411      4410      4413      4415      4411      4410      4413      4416
      4412      4410      4413      4414      4412      4410      4413      4415
      4412      4410      4413      4416      4413      4416      4419      4420
      4413      4416      4419      4421      4413      4416      4419      4422
      4414      4413      4416      4417      4414      4413      4416      4418
      4414      4413      4416      4419      4415      4413      4416      4417
      4415      4413      4416      4418      4415      4413      4416      4419
      4417      4416      4419      4420      4417      4416      4419      4421
      4417      4416      4419      4422      4418      4416      4419      4420
      4418      4416      4419      4421      4418      4416      4419      4422
      4423      4424      4439      4440      4423      4424      4439      4441
      4423      4424      4439      4445      4424      4423      4427      4428
      4424      4423      4427      4429      4424      4423      4427      4430
      4424      4423      4431      4432      4424      4423      4431      4433
      4424      4423      4431      4434      4424      4423      4435      4436
      4424      4423      4435      4437      4424      4423      4435      4438
      4424      4439      4445      4442      4425      4424      4423      4427
      4425      4424      4423      4431      4425      4424      4423      4435
      4425      4424      4439      4440      4425      4424      4439      4441
      4425      4424      4439      4445      4426      4424      4423      4427
      4426      4424      4423      4431      4426      4424      4423      4435
      4426      4424      4439      4440      4426      4424      4439      4441
      4426      4424      4439      4445      4427      4423      4424      4439
      4427      4423      4431      4432      4427      4423      4431      4433
      4427      4423      4431      4434      4427      4423      4435      4436
      4427      4423      4435      4437      4427      4423      4435      4438
      4428      4427      4423      4431      4428      4427      4423      4435
      4429      4427      4423      4431      4429      4427      4423      4435
      4430      4427      4423      4431      4430      4427      4423      4435
      4431      4423      4424      4439      4431      4423      4435      4436
      4431      4423      4435      4437      4431      4423      4435      4438
      4432      4431      4423      4435      4433      4431      4423      4435
      4434      4431      4423      4435      4435      4423      4424      4439
      4439      4445      4442      4443      4439      4445      4442      4444
      4439      4445      4442      4446      4440      4439      4445      4442
      4441      4439      4445      4442      4442      4446      4447      4448
      4442      4446      4447      4449      4442      4446      4447      4450
      4443      4442      4446      4447      4444      4442      4446      4447
      4445      4442      4446      4447      4446      4447      4450      4451
      4446      4447      4450      4452      4446      4447      4450      4458
      4447      4450      4452      4453      4447      4450      4458      4459
      4447      4450      4458      4460      4447      4450      4458      4461
      4448      4447      4450      4451      4448      4447      4450      4452
      4448      4447      4450      4458      4449      4447      4450      4451
      4449      4447      4450      4452      4449      4447      4450      4458
      4450      4452      4453      4454      4450      4452      4453      4455
      4450      4458      4461      4462      4451      4450      4452      4453
      4451      4450      4458      4459      4451      4450      4458      4460
      4451      4450      4458      4461      4452      4450      4458      4459
      4452      4450      4458      4460      4452      4450      4458      4461
      4452      4453      4455      4456      4452      4453      4455      4457
      4452      4453      4455      4467      4453      4452      4450      4458
      4453      4455      4467      4468      4453      4455      4467      4469
      4453      4455      4467      4470      4454      4453      4455      4456
      4454      4453      4455      4457      4454      4453      4455      4467
      4455      4467      4470      4471      4455      4467      4470      4472
      4455      4467      4470      4473      4456      4455      4467      4468
      4456      4455      4467      4469      4456      4455      4467      4470
      4457      4455      4467      4468      4457      4455      4467      4469
      4457      4455      4467      4470      4458      4461      4462      4463
      4458      4461      4462      4464      4459      4458      4461      4462
      4460      4458      4461      4462      4461      4462      4464      4465
      4461      4462      4464      4466      4461      4462      4464      4514
      4462      4464      4514      4515      4462      4464      4514      4516
      4462      4464      4514      4517      4463      4462      4464      4465
      4463      4462      4464      4466      4463      4462      4464      4514
      4464      4514      4517      4518      4464      4514      4517      4519
      4464      4514      4517      4520      4465      4464      4514      4515
      4465      4464      4514      4516      4465      4464      4514      4517
      4466      4464      4514      4515      4466      4464      4514      4516
      4466      4464      4514      4517      4467      4470      4473      4474
      4467      4470      4473      4475      4467      4470      4473      4476
      4468      4467      4470      4471      4468      4467      4470      4472
      4468      4467      4470      4473      4469      4467      4470      4471
      4469      4467      4470      4472      4469      4467      4470      4473
      4470      4473      4476      4477      4470      4473      4476      4478
      4470      4473      4476      4479      4471      4470      4473      4474
      4471      4470      4473      4475      4471      4470      4473      4476
      4472      4470      4473      4474      4472      4470      4473      4475
      4472      4470      4473      4476      4473      4476      4479      4480
      4473      4476      4479      4481      4473      4476      4479      4482
      4474      4473      4476      4477      4474      4473      4476      4478
      4474      4473      4476      4479      4475      4473      4476      4477
      4475      4473      4476      4478      4475      4473      4476      4479
      4476      4479      4482      4483      4476      4479      4482      4484
      4476      4479      4482      4485      4477      4476      4479      4480
      4477      4476      4479      4481      4477      4476      4479      4482
      4478      4476      4479      4480      4478      4476      4479      4481
      4478      4476      4479      4482      4479      4482      4485      4486
      4479      4482      4485      4487      4480      4479      4482      4483
      4480      4479      4482      4484      4480      4479      4482      4485
      4481      4479      4482      4483      4481      4479      4482      4484
      4481      4479      4482      4485      4482      4485      4487      4488
      4482      4485      4487      4489      4483      4482      4485      4486
      4483      4482      4485      4487      4484      4482      4485      4486
      4484      4482      4485      4487      4485      4487      4489      4490
      4485      4487      4489      4491      4485      4487      4489      4492
      4486      4485      4487      4488      4486      4485      4487      4489
      4487      4489      4492      4493      4487      4489      4492      4494
      4487      4489      4492      4495      4488      4487      4489      4490
      4488      4487      4489      4491      4488      4487      4489      4492
      4489      4492      4495      4496      4489      4492      4495      4497
      4489      4492      4495      4498      4490      4489      4492      4493
      4490      4489      4492      4494      4490      4489      4492      4495
      4491      4489      4492      4493      4491      4489      4492      4494
      4491      4489      4492      4495      4492      4495      4498      4499
      4492      4495      4498      4500      4492      4495      4498      4501
      4493      4492      4495      4496      4493      4492      4495      4497
      4493      4492      4495      4498      4494      4492      4495      4496
      4494      4492      4495      4497      4494      4492      4495      4498
      4495      4498      4501      4502      4495      4498      4501      4503
      4495      4498      4501      4504      4496      4495      4498      4499
      4496      4495      4498      4500      4496      4495      4498      4501
      4497      4495      4498      4499      4497      4495      4498      4500
      4497      4495      4498      4501      4498      4501      4504      4505
      4498      4501      4504      4506      4498      4501      4504      4507
      4499      4498      4501      4502      4499      4498      4501      4503
      4499      4498      4501      4504      4500      4498      4501      4502
      4500      4498      4501      4503      4500      4498      4501      4504
      4501      4504      4507      4508      4501      4504      4507      4509
      4501      4504      4507      4510      4502      4501      4504      4505
      4502      4501      4504      4506      4502      4501      4504      4507
      4503      4501      4504      4505      4503      4501      4504      4506
      4503      4501      4504      4507      4504      4507      4510      4511
      4504      4507      4510      4512      4504      4507      4510      4513
      4505      4504      4507      4508      4505      4504      4507      4509
      4505      4504      4507      4510      4506      4504      4507      4508
      4506      4504      4507      4509      4506      4504      4507      4510
      4508      4507      4510      4511      4508      4507      4510      4512
      4508      4507      4510      4513      4509      4507      4510      4511
      4509      4507      4510      4512      4509      4507      4510      4513
      4514      4517      4520      4521      4514      4517      4520      4522
      4514      4517      4520      4523      4515      4514      4517      4518
      4515      4514      4517      4519      4515      4514      4517      4520
      4516      4514      4517      4518      4516      4514      4517      4519
      4516      4514      4517      4520      4517      4520      4523      4524
      4517      4520      4523      4525      4517      4520      4523      4526
      4518      4517      4520      4521      4518      4517      4520      4522
      4518      4517      4520      4523      4519      4517      4520      4521
      4519      4517      4520      4522      4519      4517      4520      4523
      4520      4523      4526      4527      4520      4523      4526      4528
      4520      4523      4526      4529      4521      4520      4523      4524
      4521      4520      4523      4525      4521      4520      4523      4526
      4522      4520      4523      4524      4522      4520      4523      4525
      4522      4520      4523      4526      4523      4526      4529      4530
      4523      4526      4529      4531      4523      4526      4529      4532
      4524      4523      4526      4527      4524      4523      4526      4528
      4524      4523      4526      4529      4525      4523      4526      4527
      4525      4523      4526      4528      4525      4523      4526      4529
      4526      4529      4532      4533      4526      4529      4532      4534
      4526      4529      4532      4535      4527      4526      4529      4530
      4527      4526      4529      4531      4527      4526      4529      4532
      4528      4526      4529      4530      4528      4526      4529      4531
      4528      4526      4529      4532      4529      4532      4535      4536
      4529      4532      4535      4537      4529      4532      4535      4538
      4530      4529      4532      4533      4530      4529      4532      4534
      4530      4529      4532      4535      4531      4529      4532      4533
      4531      4529      4532      4534      4531      4529      4532      4535
      4532      4535      4538      4539      4532      4535      4538      4540
      4532      4535      4538      4541      4533      4532      4535      4536
      4533      4532      4535      4537      4533      4532      4535      4538
      4534      4532      4535      4536      4534      4532      4535      4537
      4534      4532      4535      4538      4535      4538      4541      4542
      4535      4538      4541      4543      4535      4538      4541      4544
      4536      4535      4538      4539      4536      4535      4538      4540
      4536      4535      4538      4541      4537      4535      4538      4539
      4537      4535      4538      4540      4537      4535      4538      4541
      4538      4541      4544      4545      4538      4541      4544      4546
      4538      4541      4544      4547      4539      4538      4541      4542
      4539      4538      4541      4543      4539      4538      4541      4544
      4540      4538      4541      4542      4540      4538      4541      4543
      4540      4538      4541      4544      4541      4544      4547      4548
      4541      4544      4547      4549      4541      4544      4547      4550
      4542      4541      4544      4545      4542      4541      4544      4546
      4542      4541      4544      4547      4543      4541      4544      4545
      4543      4541      4544      4546      4543      4541      4544      4547
      4544      4547      4550      4551      4544      4547      4550      4552
      4544      4547      4550      4553      4545      4544      4547      4548
      4545      4544      4547      4549      4545      4544      4547      4550
      4546      4544      4547      4548      4546      4544      4547      4549
      4546      4544      4547      4550      4547      4550      4553      4554
      4547      4550      4553      4555      4547      4550      4553      4556
      4548      4547      4550      4551      4548      4547      4550      4552
      4548      4547      4550      4553      4549      4547      4550      4551
      4549      4547      4550      4552      4549      4547      4550      4553
      4551      4550      4553      4554      4551      4550      4553      4555
      4551      4550      4553      4556      4552      4550      4553      4554
      4552      4550      4553      4555      4552      4550      4553      4556
      4557      4558      4573      4574      4557      4558      4573      4575
      4557      4558      4573      4579      4558      4557      4561      4562
      4558      4557      4561      4563      4558      4557      4561      4564
      4558      4557      4565      4566      4558      4557      4565      4567
      4558      4557      4565      4568      4558      4557      4569      4570
      4558      4557      4569      4571      4558      4557      4569      4572
      4558      4573      4579      4576      4559      4558      4557      4561
      4559      4558      4557      4565      4559      4558      4557      4569
      4559      4558      4573      4574      4559      4558      4573      4575
      4559      4558      4573      4579      4560      4558      4557      4561
      4560      4558      4557      4565      4560      4558      4557      4569
      4560      4558      4573      4574      4560      4558      4573      4575
      4560      4558      4573      4579      4561      4557      4558      4573
      4561      4557      4565      4566      4561      4557      4565      4567
      4561      4557      4565      4568      4561      4557      4569      4570
      4561      4557      4569      4571      4561      4557      4569      4572
      4562      4561      4557      4565      4562      4561      4557      4569
      4563      4561      4557      4565      4563      4561      4557      4569
      4564      4561      4557      4565      4564      4561      4557      4569
      4565      4557      4558      4573      4565      4557      4569      4570
      4565      4557      4569      4571      4565      4557      4569      4572
      4566      4565      4557      4569      4567      4565      4557      4569
      4568      4565      4557      4569      4569      4557      4558      4573
      4573      4579      4576      4577      4573      4579      4576      4578
      4573      4579      4576      4580      4574      4573      4579      4576
      4575      4573      4579      4576      4576      4580      4581      4582
      4576      4580      4581      4583      4576      4580      4581      4584
      4577      4576      4580      4581      4578      4576      4580      4581
      4579      4576      4580      4581      4580      4581      4584      4585
      4580      4581      4584      4586      4580      4581      4584      4592
      4581      4584      4586      4587      4581      4584      4592      4593
      4581      4584      4592      4594      4581      4584      4592      4595
      4582      4581      4584      4585      4582      4581      4584      4586
      4582      4581      4584      4592      4583      4581      4584      4585
      4583      4581      4584      4586      4583      4581      4584      4592
      4584      4586      4587      4588      4584      4586      4587      4589
      4584      4592      4595      4596      4585      4584      4586      4587
      4585      4584      4592      4593      4585      4584      4592      4594
      4585      4584      4592      4595      4586      4584      4592      4593
      4586      4584      4592      4594      4586      4584      4592      4595
      4586      4587      4589      4590      4586      4587      4589      4591
      4586      4587      4589      4601      4587      4586      4584      4592
      4587      4589      4601      4602      4587      4589      4601      4603
      4587      4589      4601      4604      4588      4587      4589      4590
      4588      4587      4589      4591      4588      4587      4589      4601
      4589      4601      4604      4605      4589      4601      4604      4606
      4589      4601      4604      4607      4590      4589      4601      4602
      4590      4589      4601      4603      4590      4589      4601      4604
      4591      4589      4601      4602      4591      4589      4601      4603
      4591      4589      4601      4604      4592      4595      4596      4597
      4592      4595      4596      4598      4593      4592      4595      4596
      4594      4592      4595      4596      4595      4596      4598      4599
      4595      4596      4598      4600      4595      4596      4598      4648
      4596      4598      4648      4649      4596      4598      4648      4650
      4596      4598      4648      4651      4597      4596      4598      4599
      4597      4596      4598      4600      4597      4596      4598      4648
      4598      4648      4651      4652      4598      4648      4651      4653
      4598      4648      4651      4654      4599      4598      4648      4649
      4599      4598      4648      4650      4599      4598      4648      4651
      4600      4598      4648      4649      4600      4598      4648      4650
      4600      4598      4648      4651      4601      4604      4607      4608
      4601      4604      4607      4609      4601      4604      4607      4610
      4602      4601      4604      4605      4602      4601      4604      4606
      4602      4601      4604      4607      4603      4601      4604      4605
      4603      4601      4604      4606      4603      4601      4604      4607
      4604      4607      4610      4611      4604      4607      4610      4612
      4604      4607      4610      4613      4605      4604      4607      4608
      4605      4604      4607      4609      4605      4604      4607      4610
      4606      4604      4607      4608      4606      4604      4607      4609
      4606      4604      4607      4610      4607      4610      4613      4614
      4607      4610      4613      4615      4607      4610      4613      4616
      4608      4607      4610      4611      4608      4607      4610      4612
      4608      4607      4610      4613      4609      4607      4610      4611
      4609      4607      4610      4612      4609      4607      4610      4613
      4610      4613      4616      4617      4610      4613      4616      4618
      4610      4613      4616      4619      4611      4610      4613      4614
      4611      4610      4613      4615      4611      4610      4613      4616
      4612      4610      4613      4614      4612      4610      4613      4615
      4612      4610      4613      4616      4613      4616      4619      4620
      4613      4616      4619      4621      4614      4613      4616      4617
      4614      4613      4616      4618      4614      4613      4616      4619
      4615      4613      4616      4617      4615      4613      4616      4618
      4615      4613      4616      4619      4616      4619      4621      4622
      4616      4619      4621      4623      4617      4616      4619      4620
      4617      4616      4619      4621      4618      4616      4619      4620
      4618      4616      4619      4621      4619      4621      4623      4624
      4619      4621      4623      4625      4619      4621      4623      4626
      4620      4619      4621      4622      4620      4619      4621      4623
      4621      4623      4626      4627      4621      4623      4626      4628
      4621      4623      4626      4629      4622      4621      4623      4624
      4622      4621      4623      4625      4622      4621      4623      4626
      4623      4626      4629      4630      4623      4626      4629      4631
      4623      4626      4629      4632      4624      4623      4626      4627
      4624      4623      4626      4628      4624      4623      4626      4629
      4625      4623      4626      4627      4625      4623      4626      4628
      4625      4623      4626      4629      4626      4629      4632      4633
      4626      4629      4632      4634      4626      4629      4632      4635
      4627      4626      4629      4630      4627      4626      4629      4631
      4627      4626      4629      4632      4628      4626      4629      4630
      4628      4626      4629      4631      4628      4626      4629      4632
      4629      4632      4635      4636      4629      4632      4635      4637
      4629      4632      4635      4638      4630      4629      4632      4633
      4630      4629      4632      4634      4630      4629      4632      4635
      4631      4629      4632      4633      4631      4629      4632      4634
      4631      4629      4632      4635      4632      4635      4638      4639
      4632      4635      4638      4640      4632      4635      4638      4641
      4633      4632      4635      4636      4633      4632      4635      4637
      4633      4632      4635      4638      4634      4632      4635      4636
      4634      4632      4635      4637      4634      4632      4635      4638
      4635      4638      4641      4642      4635      4638      4641      4643
      4635      4638      4641      4644      4636      4635      4638      4639
      4636      4635      4638      4640      4636      4635      4638      4641
      4637      4635      4638      4639      4637      4635      4638      4640
      4637      4635      4638      4641      4638      4641      4644      4645
      4638      4641      4644      4646      4638      4641      4644      4647
      4639      4638      4641      4642      4639      4638      4641      4643
      4639      4638      4641      4644      4640      4638      4641      4642
      4640      4638      4641      4643      4640      4638      4641      4644
      4642      4641      4644      4645      4642      4641      4644      4646
      4642      4641      4644      4647      4643      4641      4644      4645
      4643      4641      4644      4646      4643      4641      4644      4647
      4648      4651      4654      4655      4648      4651      4654      4656
      4648      4651      4654      4657      4649      4648      4651      4652
      4649      4648      4651      4653      4649      4648      4651      4654
      4650      4648      4651      4652      4650      4648      4651      4653
      4650      4648      4651      4654      4651      4654      4657      4658
      4651      4654      4657      4659      4651      4654      4657      4660
      4652      4651      4654      4655      4652      4651      4654      4656
      4652      4651      4654      4657      4653      4651      4654      4655
      4653      4651      4654      4656      4653      4651      4654      4657
      4654      4657      4660      4661      4654      4657      4660      4662
      4654      4657      4660      4663      4655      4654      4657      4658
      4655      4654      4657      4659      4655      4654      4657      4660
      4656      4654      4657      4658      4656      4654      4657      4659
      4656      4654      4657      4660      4657      4660      4663      4664
      4657      4660      4663      4665      4657      4660      4663      4666
      4658      4657      4660      4661      4658      4657      4660      4662
      4658      4657      4660      4663      4659      4657      4660      4661
      4659      4657      4660      4662      4659      4657      4660      4663
      4660      4663      4666      4667      4660      4663      4666      4668
      4660      4663      4666      4669      4661      4660      4663      4664
      4661      4660      4663      4665      4661      4660      4663      4666
      4662      4660      4663      4664      4662      4660      4663      4665
      4662      4660      4663      4666      4663      4666      4669      4670
      4663      4666      4669      4671      4663      4666      4669      4672
      4664      4663      4666      4667      4664      4663      4666      4668
      4664      4663      4666      4669      4665      4663      4666      4667
      4665      4663      4666      4668      4665      4663      4666      4669
      4666      4669      4672      4673      4666      4669      4672      4674
      4666      4669      4672      4675      4667      4666      4669      4670
      4667      4666      4669      4671      4667      4666      4669      4672
      4668      4666      4669      4670      4668      4666      4669      4671
      4668      4666      4669      4672      4669      4672      4675      4676
      4669      4672      4675      4677      4669      4672      4675      4678
      4670      4669      4672      4673      4670      4669      4672      4674
      4670      4669      4672      4675      4671      4669      4672      4673
      4671      4669      4672      4674      4671      4669      4672      4675
      4672      4675      4678      4679      4672      4675      4678      4680
      4672      4675      4678      4681      4673      4672      4675      4676
      4673      4672      4675      4677      4673      4672      4675      4678
      4674      4672      4675      4676      4674      4672      4675      4677
      4674      4672      4675      4678      4675      4678      4681      4682
      4675      4678      4681      4683      4675      4678      4681      4684
      4676      4675      4678      4679      4676      4675      4678      4680
      4676      4675      4678      4681      4677      4675      4678      4679
      4677      4675      4678      4680      4677      4675      4678      4681
      4678      4681      4684      4685      4678      4681      4684      4686
      4678      4681      4684      4687      4679      4678      4681      4682
      4679      4678      4681      4683      4679      4678      4681      4684
      4680      4678      4681      4682      4680      4678      4681      4683
      4680      4678      4681      4684      4681      4684      4687      4688
      4681      4684      4687      4689      4681      4684      4687      4690
      4682      4681      4684      4685      4682      4681      4684      4686
      4682      4681      4684      4687      4683      4681      4684      4685
      4683      4681      4684      4686      4683      4681      4684      4687
      4685      4684      4687      4688      4685      4684      4687      4689
      4685      4684      4687      4690      4686      4684      4687      4688
      4686      4684      4687      4689      4686      4684      4687      4690
      4691      4692      4707      4708      4691      4692      4707      4709
      4691      4692      4707      4713      4692      4691      4695      4696
      4692      4691      4695      4697      4692      4691      4695      4698
      4692      4691      4699      4700      4692      4691      4699      4701
      4692      4691      4699      4702      4692      4691      4703      4704
      4692      4691      4703      4705      4692      4691      4703      4706
      4692      4707      4713      4710      4693      4692      4691      4695
      4693      4692      4691      4699      4693      4692      4691      4703
      4693      4692      4707      4708      4693      4692      4707      4709
      4693      4692      4707      4713      4694      4692      4691      4695
      4694      4692      4691      4699      4694      4692      4691      4703
      4694      4692      4707      4708      4694      4692      4707      4709
      4694      4692      4707      4713      4695      4691      4692      4707
      4695      4691      4699      4700      4695      4691      4699      4701
      4695      4691      4699      4702      4695      4691      4703      4704
      4695      4691      4703      4705      4695      4691      4703      4706
      4696      4695      4691      4699      4696      4695      4691      4703
      4697      4695      4691      4699      4697      4695      4691      4703
      4698      4695      4691      4699      4698      4695      4691      4703
      4699      4691      4692      4707      4699      4691      4703      4704
      4699      4691      4703      4705      4699      4691      4703      4706
      4700      4699      4691      4703      4701      4699      4691      4703
      4702      4699      4691      4703      4703      4691      4692      4707
      4707      4713      4710      4711      4707      4713      4710      4712
      4707      4713      4710      4714      4708      4707      4713      4710
      4709      4707      4713      4710      4710      4714      4715      4716
      4710      4714      4715      4717      4710      4714      4715      4718
      4711      4710      4714      4715      4712      4710      4714      4715
      4713      4710      4714      4715      4714      4715      4718      4719
      4714      4715      4718      4720      4714      4715      4718      4726
      4715      4718      4720      4721      4715      4718      4726      4727
      4715      4718      4726      4728      4715      4718      4726      4729
      4716      4715      4718      4719      4716      4715      4718      4720
      4716      4715      4718      4726      4717      4715      4718      4719
      4717      4715      4718      4720      4717      4715      4718      4726
      4718      4720      4721      4722      4718      4720      4721      4723
      4718      4726      4729      4730      4719      4718      4720      4721
      4719      4718      4726      4727      4719      4718      4726      4728
      4719      4718      4726      4729      4720      4718      4726      4727
      4720      4718      4726      4728      4720      4718      4726      4729
      4720      4721      4723      4724      4720      4721      4723      4725
      4720      4721      4723      4735      4721      4720      4718      4726
      4721      4723      4735      4736      4721      4723      4735      4737
      4721      4723      4735      4738      4722      4721      4723      4724
      4722      4721      4723      4725      4722      4721      4723      4735
      4723      4735      4738      4739      4723      4735      4738      4740
      4723      4735      4738      4741      4724      4723      4735      4736
      4724      4723      4735      4737      4724      4723      4735      4738
      4725      4723      4735      4736      4725      4723      4735      4737
      4725      4723      4735      4738      4726      4729      4730      4731
      4726      4729      4730      4732      4727      4726      4729      4730
      4728      4726      4729      4730      4729      4730      4732      4733
      4729      4730      4732      4734      4729      4730      4732      4782
      4730      4732      4782      4783      4730      4732      4782      4784
      4730      4732      4782      4785      4731      4730      4732      4733
      4731      4730      4732      4734      4731      4730      4732      4782
      4732      4782      4785      4786      4732      4782      4785      4787
      4732      4782      4785      4788      4733      4732      4782      4783
      4733      4732      4782      4784      4733      4732      4782      4785
      4734      4732      4782      4783      4734      4732      4782      4784
      4734      4732      4782      4785      4735      4738      4741      4742
      4735      4738      4741      4743      4735      4738      4741      4744
      4736      4735      4738      4739      4736      4735      4738      4740
      4736      4735      4738      4741      4737      4735      4738      4739
      4737      4735      4738      4740      4737      4735      4738      4741
      4738      4741      4744      4745      4738      4741      4744      4746
      4738      4741      4744      4747      4739      4738      4741      4742
      4739      4738      4741      4743      4739      4738      4741      4744
      4740      4738      4741      4742      4740      4738      4741      4743
      4740      4738      4741      4744      4741      4744      4747      4748
      4741      4744      4747      4749      4741      4744      4747      4750
      4742      4741      4744      4745      4742      4741      4744      4746
      4742      4741      4744      4747      4743      4741      4744      4745
      4743      4741      4744      4746      4743      4741      4744      4747
      4744      4747      4750      4751      4744      4747      4750      4752
      4744      4747      4750      4753      4745      4744      4747      4748
      4745      4744      4747      4749      4745      4744      4747      4750
      4746      4744      4747      4748      4746      4744      4747      4749
      4746      4744      4747      4750      4747      4750      4753      4754
      4747      4750      4753      4755      4748      4747      4750      4751
      4748      4747      4750      4752      4748      4747      4750      4753
      4749      4747      4750      4751      4749      4747      4750      4752
      4749      4747      4750      4753      4750      4753      4755      4756
      4750      4753      4755      4757      4751      4750      4753      4754
      4751      4750      4753      4755      4752      4750      4753      4754
      4752      4750      4753      4755      4753      4755      4757      4758
      4753      4755      4757      4759      4753      4755      4757      4760
      4754      4753      4755      4756      4754      4753      4755      4757
      4755      4757      4760      4761      4755      4757      4760      4762
      4755      4757      4760      4763      4756      4755      4757      4758
      4756      4755      4757      4759      4756      4755      4757      4760
      4757      4760      4763      4764      4757      4760      4763      4765
      4757      4760      4763      4766      4758      4757      4760      4761
      4758      4757      4760      4762      4758      4757      4760      4763
      4759      4757      4760      4761      4759      4757      4760      4762
      4759      4757      4760      4763      4760      4763      4766      4767
      4760      4763      4766      4768      4760      4763      4766      4769
      4761      4760      4763      4764      4761      4760      4763      4765
      4761      4760      4763      4766      4762      4760      4763      4764
      4762      4760      4763      4765      4762      4760      4763      4766
      4763      4766      4769      4770      4763      4766      4769      4771
      4763      4766      4769      4772      4764      4763      4766      4767
      4764      4763      4766      4768      4764      4763      4766      4769
      4765      4763      4766      4767      4765      4763      4766      4768
      4765      4763      4766      4769      4766      4769      4772      4773
      4766      4769      4772      4774      4766      4769      4772      4775
      4767      4766      4769      4770      4767      4766      4769      4771
      4767      4766      4769      4772      4768      4766      4769      4770
      4768      4766      4769      4771      4768      4766      4769      4772
      4769      4772      4775      4776      4769      4772      4775      4777
      4769      4772      4775      4778      4770      4769      4772      4773
      4770      4769      4772      4774      4770      4769      4772      4775
      4771      4769      4772      4773      4771      4769      4772      4774
      4771      4769      4772      4775      4772      4775      4778      4779
      4772      4775      4778      4780      4772      4775      4778      4781
      4773      4772      4775      4776      4773      4772      4775      4777
      4773      4772      4775      4778      4774      4772      4775      4776
      4774      4772      4775      4777      4774      4772      4775      4778
      4776      4775      4778      4779      4776      4775      4778      4780
      4776      4775      4778      4781      4777      4775      4778      4779
      4777      4775      4778      4780      4777      4775      4778      4781
      4782      4785      4788      4789      4782      4785      4788      4790
      4782      4785      4788      4791      4783      4782      4785      4786
      4783      4782      4785      4787      4783      4782      4785      4788
      4784      4782      4785      4786      4784      4782      4785      4787
      4784      4782      4785      4788      4785      4788      4791      4792
      4785      4788      4791      4793      4785      4788      4791      4794
      4786      4785      4788      4789      4786      4785      4788      4790
      4786      4785      4788      4791      4787      4785      4788      4789
      4787      4785      4788      4790      4787      4785      4788      4791
      4788      4791      4794      4795      4788      4791      4794      4796
      4788      4791      4794      4797      4789      4788      4791      4792
      4789      4788      4791      4793      4789      4788      4791      4794
      4790      4788      4791      4792      4790      4788      4791      4793
      4790      4788      4791      4794      4791      4794      4797      4798
      4791      4794      4797      4799      4791      4794      4797      4800
      4792      4791      4794      4795      4792      4791      4794      4796
      4792      4791      4794      4797      4793      4791      4794      4795
      4793      4791      4794      4796      4793      4791      4794      4797
      4794      4797      4800      4801      4794      4797      4800      4802
      4794      4797      4800      4803      4795      4794      4797      4798
      4795      4794      4797      4799      4795      4794      4797      4800
      4796      4794      4797      4798      4796      4794      4797      4799
      4796      4794      4797      4800      4797      4800      4803      4804
      4797      4800      4803      4805      4797      4800      4803      4806
      4798      4797      4800      4801      4798      4797      4800      4802
      4798      4797      4800      4803      4799      4797      4800      4801
      4799      4797      4800      4802      4799      4797      4800      4803
      4800      4803      4806      4807      4800      4803      4806      4808
      4800      4803      4806      4809      4801      4800      4803      4804
      4801      4800      4803      4805      4801      4800      4803      4806
      4802      4800      4803      4804      4802      4800      4803      4805
      4802      4800      4803      4806      4803      4806      4809      4810
      4803      4806      4809      4811      4803      4806      4809      4812
      4804      4803      4806      4807      4804      4803      4806      4808
      4804      4803      4806      4809      4805      4803      4806      4807
      4805      4803      4806      4808      4805      4803      4806      4809
      4806      4809      4812      4813      4806      4809      4812      4814
      4806      4809      4812      4815      4807      4806      4809      4810
      4807      4806      4809      4811      4807      4806      4809      4812
      4808      4806      4809      4810      4808      4806      4809      4811
      4808      4806      4809      4812      4809      4812      4815      4816
      4809      4812      4815      4817      4809      4812      4815      4818
      4810      4809      4812      4813      4810      4809      4812      4814
      4810      4809      4812      4815      4811      4809      4812      4813
      4811      4809      4812      4814      4811      4809      4812      4815
      4812      4815      4818      4819      4812      4815      4818      4820
      4812      4815      4818      4821      4813      4812      4815      4816
      4813      4812      4815      4817      4813      4812      4815      4818
      4814      4812      4815      4816      4814      4812      4815      4817
      4814      4812      4815      4818      4815      4818      4821      4822
      4815      4818      4821      4823      4815      4818      4821      4824
      4816      4815      4818      4819      4816      4815      4818      4820
      4816      4815      4818      4821      4817      4815      4818      4819
      4817      4815      4818      4820      4817      4815      4818      4821
      4819      4818      4821      4822      4819      4818      4821      4823
      4819      4818      4821      4824      4820      4818      4821      4822
      4820      4818      4821      4823      4820      4818      4821      4824
      4825      4826      4841      4842      4825      4826      4841      4843
      4825      4826      4841      4847      4826      4825      4829      4830
      4826      4825      4829      4831      4826      4825      4829      4832
      4826      4825      4833      4834      4826      4825      4833      4835
      4826      4825      4833      4836      4826      4825      4837      4838
      4826      4825      4837      4839      4826      4825      4837      4840
      4826      4841      4847      4844      4827      4826      4825      4829
      4827      4826      4825      4833      4827      4826      4825      4837
      4827      4826      4841      4842      4827      4826      4841      4843
      4827      4826      4841      4847      4828      4826      4825      4829
      4828      4826      4825      4833      4828      4826      4825      4837
      4828      4826      4841      4842      4828      4826      4841      4843
      4828      4826      4841      4847      4829      4825      4826      4841
      4829      4825      4833      4834      4829      4825      4833      4835
      4829      4825      4833      4836      4829      4825      4837      4838
      4829      4825      4837      4839      4829      4825      4837      4840
      4830      4829      4825      4833      4830      4829      4825      4837
      4831      4829      4825      4833      4831      4829      4825      4837
      4832      4829      4825      4833      4832      4829      4825      4837
      4833      4825      4826      4841      4833      4825      4837      4838
      4833      4825      4837      4839      4833      4825      4837      4840
      4834      4833      4825      4837      4835      4833      4825      4837
      4836      4833      4825      4837      4837      4825      4826      4841
      4841      4847      4844      4845      4841      4847      4844      4846
      4841      4847      4844      4848      4842      4841      4847      4844
      4843      4841      4847      4844      4844      4848      4849      4850
      4844      4848      4849      4851      4844      4848      4849      4852
      4845      4844      4848      4849      4846      4844      4848      4849
      4847      4844      4848      4849      4848      4849      4852      4853
      4848      4849      4852      4854      4848      4849      4852      4860
      4849      4852      4854      4855      4849      4852      4860      4861
      4849      4852      4860      4862      4849      4852      4860      4863
      4850      4849      4852      4853      4850      4849      4852      4854
      4850      4849      4852      4860      4851      4849      4852      4853
      4851      4849      4852      4854      4851      4849      4852      4860
      4852      4854      4855      4856      4852      4854      4855      4857
      4852      4860      4863      4864      4853      4852      4854      4855
      4853      4852      4860      4861      4853      4852      4860      4862
      4853      4852      4860      4863      4854      4852      4860      4861
      4854      4852      4860      4862      4854      4852      4860      4863
      4854      4855      4857      4858      4854      4855      4857      4859
      4854      4855      4857      4869      4855      4854      4852      4860
      4855      4857      4869      4870      4855      4857      4869      4871
      4855      4857      4869      4872      4856      4855      4857      4858
      4856      4855      4857      4859      4856      4855      4857      4869
      4857      4869      4872      4873      4857      4869      4872      4874
      4857      4869      4872      4875      4858      4857      4869      4870
      4858      4857      4869      4871      4858      4857      4869      4872
      4859      4857      4869      4870      4859      4857      4869      4871
      4859      4857      4869      4872      4860      4863      4864      4865
      4860      4863      4864      4866      4861      4860      4863      4864
      4862      4860      4863      4864      4863      4864      4866      4867
      4863      4864      4866      4868      4863      4864      4866      4916
      4864      4866      4916      4917      4864      4866      4916      4918
      4864      4866      4916      4919      4865      4864      4866      4867
      4865      4864      4866      4868      4865      4864      4866      4916
      4866      4916      4919      4920      4866      4916      4919      4921
      4866      4916      4919      4922      4867      4866      4916      4917
      4867      4866      4916      4918      4867      4866      4916      4919
      4868      4866      4916      4917      4868      4866      4916      4918
      4868      4866      4916      4919      4869      4872      4875      4876
      4869      4872      4875      4877      4869      4872      4875      4878
      4870      4869      4872      4873      4870      4869      4872      4874
      4870      4869      4872      4875      4871      4869      4872      4873
      4871      4869      4872      4874      4871      4869      4872      4875
      4872      4875      4878      4879      4872      4875      4878      4880
      4872      4875      4878      4881      4873      4872      4875      4876
      4873      4872      4875      4877      4873      4872      4875      4878
      4874      4872      4875      4876      4874      4872      4875      4877
      4874      4872      4875      4878      4875      4878      4881      4882
      4875      4878      4881      4883      4875      4878      4881      4884
      4876      4875      4878      4879      4876      4875      4878      4880
      4876      4875      4878      4881      4877      4875      4878      4879
      4877      4875      4878      4880      4877      4875      4878      4881
      4878      4881      4884      4885      4878      4881      4884      4886
      4878      4881      4884      4887      4879      4878      4881      4882
      4879      4878      4881      4883      4879      4878      4881      4884
      4880      4878      4881      4882      4880      4878      4881      4883
      4880      4878      4881      4884      4881      4884      4887      4888
      4881      4884      4887      4889      4882      4881      4884      4885
      4882      4881      4884      4886      4882      4881      4884      4887
      4883      4881      4884      4885      4883      4881      4884      4886
      4883      4881      4884      4887      4884      4887      4889      4890
      4884      4887      4889      4891      4885      4884      4887      4888
      4885      4884      4887      4889      4886      4884      4887      4888
      4886      4884      4887      4889      4887      4889      4891      4892
      4887      4889      4891      4893      4887      4889      4891      4894
      4888      4887      4889      4890      4888      4887      4889      4891
      4889      4891      4894      4895      4889      4891      4894      4896
      4889      4891      4894      4897      4890      4889      4891      4892
      4890      4889      4891      4893      4890      4889      4891      4894
      4891      4894      4897      4898      4891      4894      4897      4899
      4891      4894      4897      4900      4892      4891      4894      4895
      4892      4891      4894      4896      4892      4891      4894      4897
      4893      4891      4894      4895      4893      4891      4894      4896
      4893      4891      4894      4897      4894      4897      4900      4901
      4894      4897      4900      4902      4894      4897      4900      4903
      4895      4894      4897      4898      4895      4894      4897      4899
      4895      4894      4897      4900      4896      4894      4897      4898
      4896      4894      4897      4899      4896      4894      4897      4900
      4897      4900      4903      4904      4897      4900      4903      4905
      4897      4900      4903      4906      4898      4897      4900      4901
      4898      4897      4900      4902      4898      4897      4900      4903
      4899      4897      4900      4901      4899      4897      4900      4902
      4899      4897      4900      4903      4900      4903      4906      4907
      4900      4903      4906      4908      4900      4903      4906      4909
      4901      4900      4903      4904      4901      4900      4903      4905
      4901      4900      4903      4906      4902      4900      4903      4904
      4902      4900      4903      4905      4902      4900      4903      4906
      4903      4906      4909      4910      4903      4906      4909      4911
      4903      4906      4909      4912      4904      4903      4906      4907
      4904      4903      4906      4908      4904      4903      4906      4909
      4905      4903      4906      4907      4905      4903      4906      4908
      4905      4903      4906      4909      4906      4909      4912      4913
      4906      4909      4912      4914      4906      4909      4912      4915
      4907      4906      4909      4910      4907      4906      4909      4911
      4907      4906      4909      4912      4908      4906      4909      4910
      4908      4906      4909      4911      4908      4906      4909      4912
      4910      4909      4912      4913      4910      4909      4912      4914
      4910      4909      4912      4915      4911      4909      4912      4913
      4911      4909      4912      4914      4911      4909      4912      4915
      4916      4919      4922      4923      4916      4919      4922      4924
      4916      4919      4922      4925      4917      4916      4919      4920
      4917      4916      4919      4921      4917      4916      4919      4922
      4918      4916      4919      4920      4918      4916      4919      4921
      4918      4916      4919      4922      4919      4922      4925      4926
      4919      4922      4925      4927      4919      4922      4925      4928
      4920      4919      4922      4923      4920      4919      4922      4924
      4920      4919      4922      4925      4921      4919      4922      4923
      4921      4919      4922      4924      4921      4919      4922      4925
      4922      4925      4928      4929      4922      4925      4928      4930
      4922      4925      4928      4931      4923      4922      4925      4926
      4923      4922      4925      4927      4923      4922      4925      4928
      4924      4922      4925      4926      4924      4922      4925      4927
      4924      4922      4925      4928      4925      4928      4931      4932
      4925      4928      4931      4933      4925      4928      4931      4934
      4926      4925      4928      4929      4926      4925      4928      4930
      4926      4925      4928      4931      4927      4925      4928      4929
      4927      4925      4928      4930      4927      4925      4928      4931
      4928      4931      4934      4935      4928      4931      4934      4936
      4928      4931      4934      4937      4929      4928      4931      4932
      4929      4928      4931      4933      4929      4928      4931      4934
      4930      4928      4931      4932      4930      4928      4931      4933
      4930      4928      4931      4934      4931      4934      4937      4938
      4931      4934      4937      4939      4931      4934      4937      4940
      4932      4931      4934      4935      4932      4931      4934      4936
      4932      4931      4934      4937      4933      4931      4934      4935
      4933      4931      4934      4936      4933      4931      4934      4937
      4934      4937      4940      4941      4934      4937      4940      4942
      4934      4937      4940      4943      4935      4934      4937      4938
      4935      4934      4937      4939      4935      4934      4937      4940
      4936      4934      4937      4938      4936      4934      4937      4939
      4936      4934      4937      4940      4937      4940      4943      4944
      4937      4940      4943      4945      4937      4940      4943      4946
      4938      4937      4940      4941      4938      4937      4940      4942
      4938      4937      4940      4943      4939      4937      4940      4941
      4939      4937      4940      4942      4939      4937      4940      4943
      4940      4943      4946      4947      4940      4943      4946      4948
      4940      4943      4946      4949      4941      4940      4943      4944
      4941      4940      4943      4945      4941      4940      4943      4946
      4942      4940      4943      4944      4942      4940      4943      4945
      4942      4940      4943      4946      4943      4946      4949      4950
      4943      4946      4949      4951      4943      4946      4949      4952
      4944      4943      4946      4947      4944      4943      4946      4948
      4944      4943      4946      4949      4945      4943      4946      4947
      4945      4943      4946      4948      4945      4943      4946      4949
      4946      4949      4952      4953      4946      4949      4952      4954
      4946      4949      4952      4955      4947      4946      4949      4950
      4947      4946      4949      4951      4947      4946      4949      4952
      4948      4946      4949      4950      4948      4946      4949      4951
      4948      4946      4949      4952      4949      4952      4955      4956
      4949      4952      4955      4957      4949      4952      4955      4958
      4950      4949      4952      4953      4950      4949      4952      4954
      4950      4949      4952      4955      4951      4949      4952      4953
      4951      4949      4952      4954      4951      4949      4952      4955
      4953      4952      4955      4956      4953      4952      4955      4957
      4953      4952      4955      4958      4954      4952      4955      4956
      4954      4952      4955      4957      4954      4952      4955      4958
      4959      4960      4975      4976      4959      4960      4975      4977
      4959      4960      4975      4981      4960      4959      4963      4964
      4960      4959      4963      4965      4960      4959      4963      4966
      4960      4959      4967      4968      4960      4959      4967      4969
      4960      4959      4967      4970      4960      4959      4971      4972
      4960      4959      4971      4973      4960      4959      4971      4974
      4960      4975      4981      4978      4961      4960      4959      4963
      4961      4960      4959      4967      4961      4960      4959      4971
      4961      4960      4975      4976      4961      4960      4975      4977
      4961      4960      4975      4981      4962      4960      4959      4963
      4962      4960      4959      4967      4962      4960      4959      4971
      4962      4960      4975      4976      4962      4960      4975      4977
      4962      4960      4975      4981      4963      4959      4960      4975
      4963      4959      4967      4968      4963      4959      4967      4969
      4963      4959      4967      4970      4963      4959      4971      4972
      4963      4959      4971      4973      4963      4959      4971      4974
      4964      4963      4959      4967      4964      4963      4959      4971
      4965      4963      4959      4967      4965      4963      4959      4971
      4966      4963      4959      4967      4966      4963      4959      4971
      4967      4959      4960      4975      4967      4959      4971      4972
      4967      4959      4971      4973      4967      4959      4971      4974
      4968      4967      4959      4971      4969      4967      4959      4971
      4970      4967      4959      4971      4971      4959      4960      4975
      4975      4981      4978      4979      4975      4981      4978      4980
      4975      4981      4978      4982      4976      4975      4981      4978
      4977      4975      4981      4978      4978      4982      4983      4984
      4978      4982      4983      4985      4978      4982      4983      4986
      4979      4978      4982      4983      4980      4978      4982      4983
      4981      4978      4982      4983      4982      4983      4986      4987
      4982      4983      4986      4988      4982      4983      4986      4994
      4983      4986      4988      4989      4983      4986      4994      4995
      4983      4986      4994      4996      4983      4986      4994      4997
      4984      4983      4986      4987      4984      4983      4986      4988
      4984      4983      4986      4994      4985      4983      4986      4987
      4985      4983      4986      4988      4985      4983      4986      4994
      4986      4988      4989      4990      4986      4988      4989      4991
      4986      4994      4997      4998      4987      4986      4988      4989
      4987      4986      4994      4995      4987      4986      4994      4996
      4987      4986      4994      4997      4988      4986      4994      4995
      4988      4986      4994      4996      4988      4986      4994      4997
      4988      4989      4991      4992      4988      4989      4991      4993
      4988      4989      4991      5003      4989      4988      4986      4994
      4989      4991      5003      5004      4989      4991      5003      5005
      4989      4991      5003      5006      4990      4989      4991      4992
      4990      4989      4991      4993      4990      4989      4991      5003
      4991      5003      5006      5007      4991      5003      5006      5008
      4991      5003      5006      5009      4992      4991      5003      5004
      4992      4991      5003      5005      4992      4991      5003      5006
      4993      4991      5003      5004      4993      4991      5003      5005
      4993      4991      5003      5006      4994      4997      4998      4999
      4994      4997      4998      5000      4995      4994      4997      4998
      4996      4994      4997      4998      4997      4998      5000      5001
      4997      4998      5000      5002      4997      4998      5000      5050
      4998      5000      5050      5051      4998      5000      5050      5052
      4998      5000      5050      5053      4999      4998      5000      5001
      4999      4998      5000      5002      4999      4998      5000      5050
      5000      5050      5053      5054      5000      5050      5053      5055
      5000      5050      5053      5056      5001      5000      5050      5051
      5001      5000      5050      5052      5001      5000      5050      5053
      5002      5000      5050      5051      5002      5000      5050      5052
      5002      5000      5050      5053      5003      5006      5009      5010
      5003      5006      5009      5011      5003      5006      5009      5012
      5004      5003      5006      5007      5004      5003      5006      5008
      5004      5003      5006      5009      5005      5003      5006      5007
      5005      5003      5006      5008      5005      5003      5006      5009
      5006      5009      5012      5013      5006      5009      5012      5014
      5006      5009      5012      5015      5007      5006      5009      5010
      5007      5006      5009      5011      5007      5006      5009      5012
      5008      5006      5009      5010      5008      5006      5009      5011
      5008      5006      5009      5012      5009      5012      5015      5016
      5009      5012      5015      5017      5009      5012      5015      5018
      5010      5009      5012      5013      5010      5009      5012      5014
      5010      5009      5012      5015      5011      5009      5012      5013
      5011      5009      5012      5014      5011      5009      5012      5015
      5012      5015      5018      5019      5012      5015      5018      5020
      5012      5015      5018      5021      5013      5012      5015      5016
      5013      5012      5015      5017      5013      5012      5015      5018
      5014      5012      5015      5016      5014      5012      5015      5017
      5014      5012      5015      5018      5015      5018      5021      5022
      5015      5018      5021      5023      5016      5015      5018      5019
      5016      5015      5018      5020      5016      5015      5018      5021
      5017      5015      5018      5019      5017      5015      5018      5020
      5017      5015      5018      5021      5018      5021      5023      5024
      5018      5021      5023      5025      5019      5018      5021      5022
      5019      5018      5021      5023      5020      5018      5021      5022
      5020      5018      5021      5023      5021      5023      5025      5026
      5021      5023      5025      5027      5021      5023      5025      5028
      5022      5021      5023      5024      5022      5021      5023      5025
      5023      5025      5028      5029      5023      5025      5028      5030
      5023      5025      5028      5031      5024      5023      5025      5026
      5024      5023      5025      5027      5024      5023      5025      5028
      5025      5028      5031      5032      5025      5028      5031      5033
      5025      5028      5031      5034      5026      5025      5028      5029
      5026      5025      5028      5030      5026      5025      5028      5031
      5027      5025      5028      5029      5027      5025      5028      5030
      5027      5025      5028      5031      5028      5031      5034      5035
      5028      5031      5034      5036      5028      5031      5034      5037
      5029      5028      5031      5032      5029      5028      5031      5033
      5029      5028      5031      5034      5030      5028      5031      5032
      5030      5028      5031      5033      5030      5028      5031      5034
      5031      5034      5037      5038      5031      5034      5037      5039
      5031      5034      5037      5040      5032      5031      5034      5035
      5032      5031      5034      5036      5032      5031      5034      5037
      5033      5031      5034      5035      5033      5031      5034      5036
      5033      5031      5034      5037      5034      5037      5040      5041
      5034      5037      5040      5042      5034      5037      5040      5043
      5035      5034      5037      5038      5035      5034      5037      5039
      5035      5034      5037      5040      5036      5034      5037      5038
      5036      5034      5037      5039      5036      5034      5037      5040
      5037      5040      5043      5044      5037      5040      5043      5045
      5037      5040      5043      5046      5038      5037      5040      5041
      5038      5037      5040      5042      5038      5037      5040      5043
      5039      5037      5040      5041      5039      5037      5040      5042
      5039      5037      5040      5043      5040      5043      5046      5047
      5040      5043      5046      5048      5040      5043      5046      5049
      5041      5040      5043      5044      5041      5040      5043      5045
      5041      5040      5043      5046      5042      5040      5043      5044
      5042      5040      5043      5045      5042      5040      5043      5046
      5044      5043      5046      5047      5044      5043      5046      5048
      5044      5043      5046      5049      5045      5043      5046      5047
      5045      5043      5046      5048      5045      5043      5046      5049
      5050      5053      5056      5057      5050      5053      5056      5058
      5050      5053      5056      5059      5051      5050      5053      5054
      5051      5050      5053      5055      5051      5050      5053      5056
      5052      5050      5053      5054      5052      5050      5053      5055
      5052      5050      5053      5056      5053      5056      5059      5060
      5053      5056      5059      5061      5053      5056      5059      5062
      5054      5053      5056      5057      5054      5053      5056      5058
      5054      5053      5056      5059      5055      5053      5056      5057
      5055      5053      5056      5058      5055      5053      5056      5059
      5056      5059      5062      5063      5056      5059      5062      5064
      5056      5059      5062      5065      5057      5056      5059      5060
      5057      5056      5059      5061      5057      5056      5059      5062
      5058      5056      5059      5060      5058      5056      5059      5061
      5058      5056      5059      5062      5059      5062      5065      5066
      5059      5062      5065      5067      5059      5062      5065      5068
      5060      5059      5062      5063      5060      5059      5062      5064
      5060      5059      5062      5065      5061      5059      5062      5063
      5061      5059      5062      5064      5061      5059      5062      5065
      5062      5065      5068      5069      5062      5065      5068      5070
      5062      5065      5068      5071      5063      5062      5065      5066
      5063      5062      5065      5067      5063      5062      5065      5068
      5064      5062      5065      5066      5064      5062      5065      5067
      5064      5062      5065      5068      5065      5068      5071      5072
      5065      5068      5071      5073      5065      5068      5071      5074
      5066      5065      5068      5069      5066      5065      5068      5070
      5066      5065      5068      5071      5067      5065      5068      5069
      5067      5065      5068      5070      5067      5065      5068      5071
      5068      5071      5074      5075      5068      5071      5074      5076
      5068      5071      5074      5077      5069      5068      5071      5072
      5069      5068      5071      5073      5069      5068      5071      5074
      5070      5068      5071      5072      5070      5068      5071      5073
      5070      5068      5071      5074      5071      5074      5077      5078
      5071      5074      5077      5079      5071      5074      5077      5080
      5072      5071      5074      5075      5072      5071      5074      5076
      5072      5071      5074      5077      5073      5071      5074      5075
      5073      5071      5074      5076      5073      5071      5074      5077
      5074      5077      5080      5081      5074      5077      5080      5082
      5074      5077      5080      5083      5075      5074      5077      5078
      5075      5074      5077      5079      5075      5074      5077      5080
      5076      5074      5077      5078      5076      5074      5077      5079
      5076      5074      5077      5080      5077      5080      5083      5084
      5077      5080      5083      5085      5077      5080      5083      5086
      5078      5077      5080      5081      5078      5077      5080      5082
      5078      5077      5080      5083      5079      5077      5080      5081
      5079      5077      5080      5082      5079      5077      5080      5083
      5080      5083      5086      5087      5080      5083      5086      5088
      5080      5083      5086      5089      5081      5080      5083      5084
      5081      5080      5083      5085      5081      5080      5083      5086
      5082      5080      5083      5084      5082      5080      5083      5085
      5082      5080      5083      5086      5083      5086      5089      5090
      5083      5086      5089      5091      5083      5086      5089      5092
      5084      5083      5086      5087      5084      5083      5086      5088
      5084      5083      5086      5089      5085      5083      5086      5087
      5085      5083      5086      5088      5085      5083      5086      5089
      5087      5086      5089      5090      5087      5086      5089      5091
      5087      5086      5089      5092      5088      5086      5089      5090
      5088      5086      5089      5091      5088      5086      5089      5092
      5093      5094      5109      5110      5093      5094      5109      5111
      5093      5094      5109      5115      5094      5093      5097      5098
      5094      5093      5097      5099      5094      5093      5097      5100
      5094      5093      5101      5102      5094      5093      5101      5103
      5094      5093      5101      5104      5094      5093      5105      5106
      5094      5093      5105      5107      5094      5093      5105      5108
      5094      5109      5115      5112      5095      5094      5093      5097
      5095      5094      5093      5101      5095      5094      5093      5105
      5095      5094      5109      5110      5095      5094      5109      5111
      5095      5094      5109      5115      5096      5094      5093      5097
      5096      5094      5093      5101      5096      5094      5093      5105
      5096      5094      5109      5110      5096      5094      5109      5111
      5096      5094      5109      5115      5097      5093      5094      5109
      5097      5093      5101      5102      5097      5093      5101      5103
      5097      5093      5101      5104      5097      5093      5105      5106
      5097      5093      5105      5107      5097      5093      5105      5108
      5098      5097      5093      5101      5098      5097      5093      5105
      5099      5097      5093      5101      5099      5097      5093      5105
      5100      5097      5093      5101      5100      5097      5093      5105
      5101      5093      5094      5109      5101      5093      5105      5106
      5101      5093      5105      5107      5101      5093      5105      5108
      5102      5101      5093      5105      5103      5101      5093      5105
      5104      5101      5093      5105      5105      5093      5094      5109
      5109      5115      5112      5113      5109      5115      5112      5114
      5109      5115      5112      5116      5110      5109      5115      5112
      5111      5109      5115      5112      5112      5116      5117      5118
      5112      5116      5117      5119      5112      5116      5117      5120
      5113      5112      5116      5117      5114      5112      5116      5117
      5115      5112      5116      5117      5116      5117      5120      5121
      5116      5117      5120      5122      5116      5117      5120      5128
      5117      5120      5122      5123      5117      5120      5128      5129
      5117      5120      5128      5130      5117      5120      5128      5131
      5118      5117      5120      5121      5118      5117      5120      5122
      5118      5117      5120      5128      5119      5117      5120      5121
      5119      5117      5120      5122      5119      5117      5120      5128
      5120      5122      5123      5124      5120      5122      5123      5125
      5120      5128      5131      5132      5121      5120      5122      5123
      5121      5120      5128      5129      5121      5120      5128      5130
      5121      5120      5128      5131      5122      5120      5128      5129
      5122      5120      5128      5130      5122      5120      5128      5131
      5122      5123      5125      5126      5122      5123      5125      5127
      5122      5123      5125      5137      5123      5122      5120      5128
      5123      5125      5137      5138      5123      5125      5137      5139
      5123      5125      5137      5140      5124      5123      5125      5126
      5124      5123      5125      5127      5124      5123      5125      5137
      5125      5137      5140      5141      5125      5137      5140      5142
      5125      5137      5140      5143      5126      5125      5137      5138
      5126      5125      5137      5139      5126      5125      5137      5140
      5127      5125      5137      5138      5127      5125      5137      5139
      5127      5125      5137      5140      5128      5131      5132      5133
      5128      5131      5132      5134      5129      5128      5131      5132
      5130      5128      5131      5132      5131      5132      5134      5135
      5131      5132      5134      5136      5131      5132      5134      5184
      5132      5134      5184      5185      5132      5134      5184      5186
      5132      5134      5184      5187      5133      5132      5134      5135
      5133      5132      5134      5136      5133      5132      5134      5184
      5134      5184      5187      5188      5134      5184      5187      5189
      5134      5184      5187      5190      5135      5134      5184      5185
      5135      5134      5184      5186      5135      5134      5184      5187
      5136      5134      5184      5185      5136      5134      5184      5186
      5136      5134      5184      5187      5137      5140      5143      5144
      5137      5140      5143      5145      5137      5140      5143      5146
      5138      5137      5140      5141      5138      5137      5140      5142
      5138      5137      5140      5143      5139      5137      5140      5141
      5139      5137      5140      5142      5139      5137      5140      5143
      5140      5143      5146      5147      5140      5143      5146      5148
      5140      5143      5146      5149      5141      5140      5143      5144
      5141      5140      5143      5145      5141      5140      5143      5146
      5142      5140      5143      5144      5142      5140      5143      5145
      5142      5140      5143      5146      5143      5146      5149      5150
      5143      5146      5149      5151      5143      5146      5149      5152
      5144      5143      5146      5147      5144      5143      5146      5148
      5144      5143      5146      5149      5145      5143      5146      5147
      5145      5143      5146      5148      5145      5143      5146      5149
      5146      5149      5152      5153      5146      5149      5152      5154
      5146      5149      5152      5155      5147      5146      5149      5150
      5147      5146      5149      5151      5147      5146      5149      5152
      5148      5146      5149      5150      5148      5146      5149      5151
      5148      5146      5149      5152      5149      5152      5155      5156
      5149      5152      5155      5157      5150      5149      5152      5153
      5150      5149      5152      5154      5150      5149      5152      5155
      5151      5149      5152      5153      5151      5149      5152      5154
      5151      5149      5152      5155      5152      5155      5157      5158
      5152      5155      5157      5159      5153      5152      5155      5156
      5153      5152      5155      5157      5154      5152      5155      5156
      5154      5152      5155      5157      5155      5157      5159      5160
      5155      5157      5159      5161      5155      5157      5159      5162
      5156      5155      5157      5158      5156      5155      5157      5159
      5157      5159      5162      5163      5157      5159      5162      5164
      5157      5159      5162      5165      5158      5157      5159      5160
      5158      5157      5159      5161      5158      5157      5159      5162
      5159      5162      5165      5166      5159      5162      5165      5167
      5159      5162      5165      5168      5160      5159      5162      5163
      5160      5159      5162      5164      5160      5159      5162      5165
      5161      5159      5162      5163      5161      5159      5162      5164
      5161      5159      5162      5165      5162      5165      5168      5169
      5162      5165      5168      5170      5162      5165      5168      5171
      5163      5162      5165      5166      5163      5162      5165      5167
      5163      5162      5165      5168      5164      5162      5165      5166
      5164      5162      5165      5167      5164      5162      5165      5168
      5165      5168      5171      5172      5165      5168      5171      5173
      5165      5168      5171      5174      5166      5165      5168      5169
      5166      5165      5168      5170      5166      5165      5168      5171
      5167      5165      5168      5169      5167      5165      5168      5170
      5167      5165      5168      5171      5168      5171      5174      5175
      5168      5171      5174      5176      5168      5171      5174      5177
      5169      5168      5171      5172      5169      5168      5171      5173
      5169      5168      5171      5174      5170      5168      5171      5172
      5170      5168      5171      5173      5170      5168      5171      5174
      5171      5174      5177      5178      5171      5174      5177      5179
      5171      5174      5177      5180      5172      5171      5174      5175
      5172      5171      5174      5176      5172      5171      5174      5177
      5173      5171      5174      5175      5173      5171      5174      5176
      5173      5171      5174      5177      5174      5177      5180      5181
      5174      5177      5180      5182      5174      5177      5180      5183
      5175      5174      5177      5178      5175      5174      5177      5179
      5175      5174      5177      5180      5176      5174      5177      5178
      5176      5174      5177      5179      5176      5174      5177      5180
      5178      5177      5180      5181      5178      5177      5180      5182
      5178      5177      5180      5183      5179      5177      5180      5181
      5179      5177      5180      5182      5179      5177      5180      5183
      5184      5187      5190      5191      5184      5187      5190      5192
      5184      5187      5190      5193      5185      5184      5187      5188
      5185      5184      5187      5189      5185      5184      5187      5190
      5186      5184      5187      5188      5186      5184      5187      5189
      5186      5184      5187      5190      5187      5190      5193      5194
      5187      5190      5193      5195      5187      5190      5193      5196
      5188      5187      5190      5191      5188      5187      5190      5192
      5188      5187      5190      5193      5189      5187      5190      5191
      5189      5187      5190      5192      5189      5187      5190      5193
      5190      5193      5196      5197      5190      5193      5196      5198
      5190      5193      5196      5199      5191      5190      5193      5194
      5191      5190      5193      5195      5191      5190      5193      5196
      5192      5190      5193      5194      5192      5190      5193      5195
      5192      5190      5193      5196      5193      5196      5199      5200
      5193      5196      5199      5201      5193      5196      5199      5202
      5194      5193      5196      5197      5194      5193      5196      5198
      5194      5193      5196      5199      5195      5193      5196      5197
      5195      5193      5196      5198      5195      5193      5196      5199
      5196      5199      5202      5203      5196      5199      5202      5204
      5196      5199      5202      5205      5197      5196      5199      5200
      5197      5196      5199      5201      5197      5196      5199      5202
      5198      5196      5199      5200      5198      5196      5199      5201
      5198      5196      5199      5202      5199      5202      5205      5206
      5199      5202      5205      5207      5199      5202      5205      5208
      5200      5199      5202      5203      5200      5199      5202      5204
      5200      5199      5202      5205      5201      5199      5202      5203
      5201      5199      5202      5204      5201      5199      5202      5205
      5202      5205      5208      5209      5202      5205      5208      5210
      5202      5205      5208      5211      5203      5202      5205      5206
      5203      5202      5205      5207      5203      5202      5205      5208
      5204      5202      5205      5206      5204      5202      5205      5207
      5204      5202      5205      5208      5205      5208      5211      5212
      5205      5208      5211      5213      5205      5208      5211      5214
      5206      5205      5208      5209      5206      5205      5208      5210
      5206      5205      5208      5211      5207      5205      5208      5209
      5207      5205      5208      5210      5207      5205      5208      5211
      5208      5211      5214      5215      5208      5211      5214      5216
      5208      5211      5214      5217      5209      5208      5211      5212
      5209      5208      5211      5213      5209      5208      5211      5214
      5210      5208      5211      5212      5210      5208      5211      5213
      5210      5208      5211      5214      5211      5214      5217      5218
      5211      5214      5217      5219      5211      5214      5217      5220
      5212      5211      5214      5215      5212      5211      5214      5216
      5212      5211      5214      5217      5213      5211      5214      5215
      5213      5211      5214      5216      5213      5211      5214      5217
      5214      5217      5220      5221      5214      5217      5220      5222
      5214      5217      5220      5223      5215      5214      5217      5218
      5215      5214      5217      5219      5215      5214      5217      5220
      5216      5214      5217      5218      5216      5214      5217      5219
      5216      5214      5217      5220      5217      5220      5223      5224
      5217      5220      5223      5225      5217      5220      5223      5226
      5218      5217      5220      5221      5218      5217      5220      5222
      5218      5217      5220      5223      5219      5217      5220      5221
      5219      5217      5220      5222      5219      5217      5220      5223
      5221      5220      5223      5224      5221      5220      5223      5225
      5221      5220      5223      5226      5222      5220      5223      5224
      5222      5220      5223      5225      5222      5220      5223      5226
      5227      5228      5243      5244      5227      5228      5243      5245
      5227      5228      5243      5249      5228      5227      5231      5232
      5228      5227      5231      5233      5228      5227      5231      5234
      5228      5227      5235      5236      5228      5227      5235      5237
      5228      5227      5235      5238      5228      5227      5239      5240
      5228      5227      5239      5241      5228      5227      5239      5242
      5228      5243      5249      5246      5229      5228      5227      5231
      5229      5228      5227      5235      5229      5228      5227      5239
      5229      5228      5243      5244      5229      5228      5243      5245
      5229      5228      5243      5249      5230      5228      5227      5231
      5230      5228      5227      5235      5230      5228      5227      5239
      5230      5228      5243      5244      5230      5228      5243      5245
      5230      5228      5243      5249      5231      5227      5228      5243
      5231      5227      5235      5236      5231      5227      5235      5237
      5231      5227      5235      5238      5231      5227      5239      5240
      5231      5227      5239      5241      5231      5227      5239      5242
      5232      5231      5227      5235      5232      5231      5227      5239
      5233      5231      5227      5235      5233      5231      5227      5239
      5234      5231      5227      5235      5234      5231      5227      5239
      5235      5227      5228      5243      5235      5227      5239      5240
      5235      5227      5239      5241      5235      5227      5239      5242
      5236      5235      5227      5239      5237      5235      5227      5239
      5238      5235      5227      5239      5239      5227      5228      5243
      5243      5249      5246      5247      5243      5249      5246      5248
      5243      5249      5246      5250      5244      5243      5249      5246
      5245      5243      5249      5246      5246      5250      5251      5252
      5246      5250      5251      5253      5246      5250      5251      5254
      5247      5246      5250      5251      5248      5246      5250      5251
      5249      5246      5250      5251      5250      5251      5254      5255
      5250      5251      5254      5256      5250      5251      5254      5262
      5251      5254      5256      5257      5251      5254      5262      5263
      5251      5254      5262      5264      5251      5254      5262      5265
      5252      5251      5254      5255      5252      5251      5254      5256
      5252      5251      5254      5262      5253      5251      5254      5255
      5253      5251      5254      5256      5253      5251      5254      5262
      5254      5256      5257      5258      5254      5256      5257      5259
      5254      5262      5265      5266      5255      5254      5256      5257
      5255      5254      5262      5263      5255      5254      5262      5264
      5255      5254      5262      5265      5256      5254      5262      5263
      5256      5254      5262      5264      5256      5254      5262      5265
      5256      5257      5259      5260      5256      5257      5259      5261
      5256      5257      5259      5271      5257      5256      5254      5262
      5257      5259      5271      5272      5257      5259      5271      5273
      5257      5259      5271      5274      5258      5257      5259      5260
      5258      5257      5259      5261      5258      5257      5259      5271
      5259      5271      5274      5275      5259      5271      5274      5276
      5259      5271      5274      5277      5260      5259      5271      5272
      5260      5259      5271      5273      5260      5259      5271      5274
      5261      5259      5271      5272      5261      5259      5271      5273
      5261      5259      5271      5274      5262      5265      5266      5267
      5262      5265      5266      5268      5263      5262      5265      5266
      5264      5262      5265      5266      5265      5266      5268      5269
      5265      5266      5268      5270      5265      5266      5268      5318
      5266      5268      5318      5319      5266      5268      5318      5320
      5266      5268      5318      5321      5267      5266      5268      5269
      5267      5266      5268      5270      5267      5266      5268      5318
      5268      5318      5321      5322      5268      5318      5321      5323
      5268      5318      5321      5324      5269      5268      5318      5319
      5269      5268      5318      5320      5269      5268      5318      5321
      5270      5268      5318      5319      5270      5268      5318      5320
      5270      5268      5318      5321      5271      5274      5277      5278
      5271      5274      5277      5279      5271      5274      5277      5280
      5272      5271      5274      5275      5272      5271      5274      5276
      5272      5271      5274      5277      5273      5271      5274      5275
      5273      5271      5274      5276      5273      5271      5274      5277
      5274      5277      5280      5281      5274      5277      5280      5282
      5274      5277      5280      5283      5275      5274      5277      5278
      5275      5274      5277      5279      5275      5274      5277      5280
      5276      5274      5277      5278      5276      5274      5277      5279
      5276      5274      5277      5280      5277      5280      5283      5284
      5277      5280      5283      5285      5277      5280      5283      5286
      5278      5277      5280      5281      5278      5277      5280      5282
      5278      5277      5280      5283      5279      5277      5280      5281
      5279      5277      5280      5282      5279      5277      5280      5283
      5280      5283      5286      5287      5280      5283      5286      5288
      5280      5283      5286      5289      5281      5280      5283      5284
      5281      5280      5283      5285      5281      5280      5283      5286
      5282      5280      5283      5284      5282      5280      5283      5285
      5282      5280      5283      5286      5283      5286      5289      5290
      5283      5286      5289      5291      5284      5283      5286      5287
      5284      5283      5286      5288      5284      5283      5286      5289
      5285      5283      5286      5287      5285      5283      5286      5288
      5285      5283      5286      5289      5286      5289      5291      5292
      5286      5289      5291      5293      5287      5286      5289      5290
      5287      5286      5289      5291      5288      5286      5289      5290
      5288      5286      5289      5291      5289      5291      5293      5294
      5289      5291      5293      5295      5289      5291      5293      5296
      5290      5289      5291      5292      5290      5289      5291      5293
      5291      5293      5296      5297      5291      5293      5296      5298
      5291      5293      5296      5299      5292      5291      5293      5294
      5292      5291      5293      5295      5292      5291      5293      5296
      5293      5296      5299      5300      5293      5296      5299      5301
      5293      5296      5299      5302      5294      5293      5296      5297
      5294      5293      5296      5298      5294      5293      5296      5299
      5295      5293      5296      5297      5295      5293      5296      5298
      5295      5293      5296      5299      5296      5299      5302      5303
      5296      5299      5302      5304      5296      5299      5302      5305
      5297      5296      5299      5300      5297      5296      5299      5301
      5297      5296      5299      5302      5298      5296      5299      5300
      5298      5296      5299      5301      5298      5296      5299      5302
      5299      5302      5305      5306      5299      5302      5305      5307
      5299      5302      5305      5308      5300      5299      5302      5303
      5300      5299      5302      5304      5300      5299      5302      5305
      5301      5299      5302      5303      5301      5299      5302      5304
      5301      5299      5302      5305      5302      5305      5308      5309
      5302      5305      5308      5310      5302      5305      5308      5311
      5303      5302      5305      5306      5303      5302      5305      5307
      5303      5302      5305      5308      5304      5302      5305      5306
      5304      5302      5305      5307      5304      5302      5305      5308
      5305      5308      5311      5312      5305      5308      5311      5313
      5305      5308      5311      5314      5306      5305      5308      5309
      5306      5305      5308      5310      5306      5305      5308      5311
      5307      5305      5308      5309      5307      5305      5308      5310
      5307      5305      5308      5311      5308      5311      5314      5315
      5308      5311      5314      5316      5308      5311      5314      5317
      5309      5308      5311      5312      5309      5308      5311      5313
      5309      5308      5311      5314      5310      5308      5311      5312
      5310      5308      5311      5313      5310      5308      5311      5314
      5312      5311      5314      5315      5312      5311      5314      5316
      5312      5311      5314      5317      5313      5311      5314      5315
      5313      5311      5314      5316      5313      5311      5314      5317
      5318      5321      5324      5325      5318      5321      5324      5326
      5318      5321      5324      5327      5319      5318      5321      5322
      5319      5318      5321      5323      5319      5318      5321      5324
      5320      5318      5321      5322      5320      5318      5321      5323
      5320      5318      5321      5324      5321      5324      5327      5328
      5321      5324      5327      5329      5321      5324      5327      5330
      5322      5321      5324      5325      5322      5321      5324      5326
      5322      5321      5324      5327      5323      5321      5324      5325
      5323      5321      5324      5326      5323      5321      5324      5327
      5324      5327      5330      5331      5324      5327      5330      5332
      5324      5327      5330      5333      5325      5324      5327      5328
      5325      5324      5327      5329      5325      5324      5327      5330
      5326      5324      5327      5328      5326      5324      5327      5329
      5326      5324      5327      5330      5327      5330      5333      5334
      5327      5330      5333      5335      5327      5330      5333      5336
      5328      5327      5330      5331      5328      5327      5330      5332
      5328      5327      5330      5333      5329      5327      5330      5331
      5329      5327      5330      5332      5329      5327      5330      5333
      5330      5333      5336      5337      5330      5333      5336      5338
      5330      5333      5336      5339      5331      5330      5333      5334
      5331      5330      5333      5335      5331      5330      5333      5336
      5332      5330      5333      5334      5332      5330      5333      5335
      5332      5330      5333      5336      5333      5336      5339      5340
      5333      5336      5339      5341      5333      5336      5339      5342
      5334      5333      5336      5337      5334      5333      5336      5338
      5334      5333      5336      5339      5335      5333      5336      5337
      5335      5333      5336      5338      5335      5333      5336      5339
      5336      5339      5342      5343      5336      5339      5342      5344
      5336      5339      5342      5345      5337      5336      5339      5340
      5337      5336      5339      5341      5337      5336      5339      5342
      5338      5336      5339      5340      5338      5336      5339      5341
      5338      5336      5339      5342      5339      5342      5345      5346
      5339      5342      5345      5347      5339      5342      5345      5348
      5340      5339      5342      5343      5340      5339      5342      5344
      5340      5339      5342      5345      5341      5339      5342      5343
      5341      5339      5342      5344      5341      5339      5342      5345
      5342      5345      5348      5349      5342      5345      5348      5350
      5342      5345      5348      5351      5343      5342      5345      5346
      5343      5342      5345      5347      5343      5342      5345      5348
      5344      5342      5345      5346      5344      5342      5345      5347
      5344      5342      5345      5348      5345      5348      5351      5352
      5345      5348      5351      5353      5345      5348      5351      5354
      5346      5345      5348      5349      5346      5345      5348      5350
      5346      5345      5348      5351      5347      5345      5348      5349
      5347      5345      5348      5350      5347      5345      5348      5351
      5348      5351      5354      5355      5348      5351      5354      5356
      5348      5351      5354      5357      5349      5348      5351      5352
      5349      5348      5351      5353      5349      5348      5351      5354
      5350      5348      5351      5352      5350      5348      5351      5353
      5350      5348      5351      5354      5351      5354      5357      5358
      5351      5354      5357      5359      5351      5354      5357      5360
      5352      5351      5354      5355      5352      5351      5354      5356
      5352      5351      5354      5357      5353      5351      5354      5355
      5353      5351      5354      5356      5353      5351      5354      5357
      5355      5354      5357      5358      5355      5354      5357      5359
      5355      5354      5357      5360      5356      5354      5357      5358
      5356      5354      5357      5359      5356      5354      5357      5360
      5361      5362      5377      5378      5361      5362      5377      5379
      5361      5362      5377      5383      5362      5361      5365      5366
      5362      5361      5365      5367      5362      5361      5365      5368
      5362      5361      5369      5370      5362      5361      5369      5371
      5362      5361      5369      5372      5362      5361      5373      5374
      5362      5361      5373      5375      5362      5361      5373      5376
      5362      5377      5383      5380      5363      5362      5361      5365
      5363      5362      5361      5369      5363      5362      5361      5373
      5363      5362      5377      5378      5363      5362      5377      5379
      5363      5362      5377      5383      5364      5362      5361      5365
      5364      5362      5361      5369      5364      5362      5361      5373
      5364      5362      5377      5378      5364      5362      5377      5379
      5364      5362      5377      5383      5365      5361      5362      5377
      5365      5361      5369      5370      5365      5361      5369      5371
      5365      5361      5369      5372      5365      5361      5373      5374
      5365      5361      5373      5375      5365      5361      5373      5376
      5366      5365      5361      5369      5366      5365      5361      5373
      5367      5365      5361      5369      5367      5365      5361      5373
      5368      5365      5361      5369      5368      5365      5361      5373
      5369      5361      5362      5377      5369      5361      5373      5374
      5369      5361      5373      5375      5369      5361      5373      5376
      5370      5369      5361      5373      5371      5369      5361      5373
      5372      5369      5361      5373      5373      5361      5362      5377
      5377      5383      5380      5381      5377      5383      5380      5382
      5377      5383      5380      5384      5378      5377      5383      5380
      5379      5377      5383      5380      5380      5384      5385      5386
      5380      5384      5385      5387      5380      5384      5385      5388
      5381      5380      5384      5385      5382      5380      5384      5385
      5383      5380      5384      5385      5384      5385      5388      5389
      5384      5385      5388      5390      5384      5385      5388      5396
      5385      5388      5390      5391      5385      5388      5396      5397
      5385      5388      5396      5398      5385      5388      5396      5399
      5386      5385      5388      5389      5386      5385      5388      5390
      5386      5385      5388      5396      5387      5385      5388      5389
      5387      5385      5388      5390      5387      5385      5388      5396
      5388      5390      5391      5392      5388      5390      5391      5393
      5388      5396      5399      5400      5389      5388      5390      5391
      5389      5388      5396      5397      5389      5388      5396      5398
      5389      5388      5396      5399      5390      5388      5396      5397
      5390      5388      5396      5398      5390      5388      5396      5399
      5390      5391      5393      5394      5390      5391      5393      5395
      5390      5391      5393      5405      5391      5390      5388      5396
      5391      5393      5405      5406      5391      5393      5405      5407
      5391      5393      5405      5408      5392      5391      5393      5394
      5392      5391      5393      5395      5392      5391      5393      5405
      5393      5405      5408      5409      5393      5405      5408      5410
      5393      5405      5408      5411      5394      5393      5405      5406
      5394      5393      5405      5407      5394      5393      5405      5408
      5395      5393      5405      5406      5395      5393      5405      5407
      5395      5393      5405      5408      5396      5399      5400      5401
      5396      5399      5400      5402      5397      5396      5399      5400
      5398      5396      5399      5400      5399      5400      5402      5403
      5399      5400      5402      5404      5399      5400      5402      5452
      5400      5402      5452      5453      5400      5402      5452      5454
      5400      5402      5452      5455      5401      5400      5402      5403
      5401      5400      5402      5404      5401      5400      5402      5452
      5402      5452      5455      5456      5402      5452      5455      5457
      5402      5452      5455      5458      5403      5402      5452      5453
      5403      5402      5452      5454      5403      5402      5452      5455
      5404      5402      5452      5453      5404      5402      5452      5454
      5404      5402      5452      5455      5405      5408      5411      5412
      5405      5408      5411      5413      5405      5408      5411      5414
      5406      5405      5408      5409      5406      5405      5408      5410
      5406      5405      5408      5411      5407      5405      5408      5409
      5407      5405      5408      5410      5407      5405      5408      5411
      5408      5411      5414      5415      5408      5411      5414      5416
      5408      5411      5414      5417      5409      5408      5411      5412
      5409      5408      5411      5413      5409      5408      5411      5414
      5410      5408      5411      5412      5410      5408      5411      5413
      5410      5408      5411      5414      5411      5414      5417      5418
      5411      5414      5417      5419      5411      5414      5417      5420
      5412      5411      5414      5415      5412      5411      5414      5416
      5412      5411      5414      5417      5413      5411      5414      5415
      5413      5411      5414      5416      5413      5411      5414      5417
      5414      5417      5420      5421      5414      5417      5420      5422
      5414      5417      5420      5423      5415      5414      5417      5418
      5415      5414      5417      5419      5415      5414      5417      5420
      5416      5414      5417      5418      5416      5414      5417      5419
      5416      5414      5417      5420      5417      5420      5423      5424
      5417      5420      5423      5425      5418      5417      5420      5421
      5418      5417      5420      5422      5418      5417      5420      5423
      5419      5417      5420      5421      5419      5417      5420      5422
      5419      5417      5420      5423      5420      5423      5425      5426
      5420      5423      5425      5427      5421      5420      5423      5424
      5421      5420      5423      5425      5422      5420      5423      5424
      5422      5420      5423      5425      5423      5425      5427      5428
      5423      5425      5427      5429      5423      5425      5427      5430
      5424      5423      5425      5426      5424      5423      5425      5427
      5425      5427      5430      5431      5425      5427      5430      5432
      5425      5427      5430      5433      5426      5425      5427      5428
      5426      5425      5427      5429      5426      5425      5427      5430
      5427      5430      5433      5434      5427      5430      5433      5435
      5427      5430      5433      5436      5428      5427      5430      5431
      5428      5427      5430      5432      5428      5427      5430      5433
      5429      5427      5430      5431      5429      5427      5430      5432
      5429      5427      5430      5433      5430      5433      5436      5437
      5430      5433      5436      5438      5430      5433      5436      5439
      5431      5430      5433      5434      5431      5430      5433      5435
      5431      5430      5433      5436      5432      5430      5433      5434
      5432      5430      5433      5435      5432      5430      5433      5436
      5433      5436      5439      5440      5433      5436      5439      5441
      5433      5436      5439      5442      5434      5433      5436      5437
      5434      5433      5436      5438      5434      5433      5436      5439
      5435      5433      5436      5437      5435      5433      5436      5438
      5435      5433      5436      5439      5436      5439      5442      5443
      5436      5439      5442      5444      5436      5439      5442      5445
      5437      5436      5439      5440      5437      5436      5439      5441
      5437      5436      5439      5442      5438      5436      5439      5440
      5438      5436      5439      5441      5438      5436      5439      5442
      5439      5442      5445      5446      5439      5442      5445      5447
      5439      5442      5445      5448      5440      5439      5442      5443
      5440      5439      5442      5444      5440      5439      5442      5445
      5441      5439      5442      5443      5441      5439      5442      5444
      5441      5439      5442      5445      5442      5445      5448      5449
      5442      5445      5448      5450      5442      5445      5448      5451
      5443      5442      5445      5446      5443      5442      5445      5447
      5443      5442      5445      5448      5444      5442      5445      5446
      5444      5442      5445      5447      5444      5442      5445      5448
      5446      5445      5448      5449      5446      5445      5448      5450
      5446      5445      5448      5451      5447      5445      5448      5449
      5447      5445      5448      5450      5447      5445      5448      5451
      5452      5455      5458      5459      5452      5455      5458      5460
      5452      5455      5458      5461      5453      5452      5455      5456
      5453      5452      5455      5457      5453      5452      5455      5458
      5454      5452      5455      5456      5454      5452      5455      5457
      5454      5452      5455      5458      5455      5458      5461      5462
      5455      5458      5461      5463      5455      5458      5461      5464
      5456      5455      5458      5459      5456      5455      5458      5460
      5456      5455      5458      5461      5457      5455      5458      5459
      5457      5455      5458      5460      5457      5455      5458      5461
      5458      5461      5464      5465      5458      5461      5464      5466
      5458      5461      5464      5467      5459      5458      5461      5462
      5459      5458      5461      5463      5459      5458      5461      5464
      5460      5458      5461      5462      5460      5458      5461      5463
      5460      5458      5461      5464      5461      5464      5467      5468
      5461      5464      5467      5469      5461      5464      5467      5470
      5462      5461      5464      5465      5462      5461      5464      5466
      5462      5461      5464      5467      5463      5461      5464      5465
      5463      5461      5464      5466      5463      5461      5464      5467
      5464      5467      5470      5471      5464      5467      5470      5472
      5464      5467      5470      5473      5465      5464      5467      5468
      5465      5464      5467      5469      5465      5464      5467      5470
      5466      5464      5467      5468      5466      5464      5467      5469
      5466      5464      5467      5470      5467      5470      5473      5474
      5467      5470      5473      5475      5467      5470      5473      5476
      5468      5467      5470      5471      5468      5467      5470      5472
      5468      5467      5470      5473      5469      5467      5470      5471
      5469      5467      5470      5472      5469      5467      5470      5473
      5470      5473      5476      5477      5470      5473      5476      5478
      5470      5473      5476      5479      5471      5470      5473      5474
      5471      5470      5473      5475      5471      5470      5473      5476
      5472      5470      5473      5474      5472      5470      5473      5475
      5472      5470      5473      5476      5473      5476      5479      5480
      5473      5476      5479      5481      5473      5476      5479      5482
      5474      5473      5476      5477      5474      5473      5476      5478
      5474      5473      5476      5479      5475      5473      5476      5477
      5475      5473      5476      5478      5475      5473      5476      5479
      5476      5479      5482      5483      5476      5479      5482      5484
      5476      5479      5482      5485      5477      5476      5479      5480
      5477      5476      5479      5481      5477      5476      5479      5482
      5478      5476      5479      5480      5478      5476      5479      5481
      5478      5476      5479      5482      5479      5482      5485      5486
      5479      5482      5485      5487      5479      5482      5485      5488
      5480      5479      5482      5483      5480      5479      5482      5484
      5480      5479      5482      5485      5481      5479      5482      5483
      5481      5479      5482      5484      5481      5479      5482      5485
      5482      5485      5488      5489      5482      5485      5488      5490
      5482      5485      5488      5491      5483      5482      5485      5486
      5483      5482      5485      5487      5483      5482      5485      5488
      5484      5482      5485      5486      5484      5482      5485      5487
      5484      5482      5485      5488      5485      5488      5491      5492
      5485      5488      5491      5493      5485      5488      5491      5494
      5486      5485      5488      5489      5486      5485      5488      5490
      5486      5485      5488      5491      5487      5485      5488      5489
      5487      5485      5488      5490      5487      5485      5488      5491
      5489      5488      5491      5492      5489      5488      5491      5493
      5489      5488      5491      5494      5490      5488      5491      5492
      5490      5488      5491      5493      5490      5488      5491      5494
      5495      5496      5511      5512      5495      5496      5511      5513
      5495      5496      5511      5517      5496      5495      5499      5500
      5496      5495      5499      5501      5496      5495      5499      5502
      5496      5495      5503      5504      5496      5495      5503      5505
      5496      5495      5503      5506      5496      5495      5507      5508
      5496      5495      5507      5509      5496      5495      5507      5510
      5496      5511      5517      5514      5497      5496      5495      5499
      5497      5496      5495      5503      5497      5496      5495      5507
      5497      5496      5511      5512      5497      5496      5511      5513
      5497      5496      5511      5517      5498      5496      5495      5499
      5498      5496      5495      5503      5498      5496      5495      5507
      5498      5496      5511      5512      5498      5496      5511      5513
      5498      5496      5511      5517      5499      5495      5496      5511
      5499      5495      5503      5504      5499      5495      5503      5505
      5499      5495      5503      5506      5499      5495      5507      5508
      5499      5495      5507      5509      5499      5495      5507      5510
      5500      5499      5495      5503      5500      5499      5495      5507
      5501      5499      5495      5503      5501      5499      5495      5507
      5502      5499      5495      5503      5502      5499      5495      5507
      5503      5495      5496      5511      5503      5495      5507      5508
      5503      5495      5507      5509      5503      5495      5507      5510
      5504      5503      5495      5507      5505      5503      5495      5507
      5506      5503      5495      5507      5507      5495      5496      5511
      5511      5517      5514      5515      5511      5517      5514      5516
      5511      5517      5514      5518      5512      5511      5517      5514
      5513      5511      5517      5514      5514      5518      5519      5520
      5514      5518      5519      5521      5514      5518      5519      5522
      5515      5514      5518      5519      5516      5514      5518      5519
      5517      5514      5518      5519      5518      5519      5522      5523
      5518      5519      5522      5524      5518      5519      5522      5530
      5519      5522      5524      5525      5519      5522      5530      5531
      5519      5522      5530      5532      5519      5522      5530      5533
      5520      5519      5522      5523      5520      5519      5522      5524
      5520      5519      5522      5530      5521      5519      5522      5523
      5521      5519      5522      5524      5521      5519      5522      5530
      5522      5524      5525      5526      5522      5524      5525      5527
      5522      5530      5533      5534      5523      5522      5524      5525
      5523      5522      5530      5531      5523      5522      5530      5532
      5523      5522      5530      5533      5524      5522      5530      5531
      5524      5522      5530      5532      5524      5522      5530      5533
      5524      5525      5527      5528      5524      5525      5527      5529
      5524      5525      5527      5539      5525      5524      5522      5530
      5525      5527      5539      5540      5525      5527      5539      5541
      5525      5527      5539      5542      5526      5525      5527      5528
      5526      5525      5527      5529      5526      5525      5527      5539
      5527      5539      5542      5543      5527      5539      5542      5544
      5527      5539      5542      5545      5528      5527      5539      5540
      5528      5527      5539      5541      5528      5527      5539      5542
      5529      5527      5539      5540      5529      5527      5539      5541
      5529      5527      5539      5542      5530      5533      5534      5535
      5530      5533      5534      5536      5531      5530      5533      5534
      5532      5530      5533      5534      5533      5534      5536      5537
      5533      5534      5536      5538      5533      5534      5536      5586
      5534      5536      5586      5587      5534      5536      5586      5588
      5534      5536      5586      5589      5535      5534      5536      5537
      5535      5534      5536      5538      5535      5534      5536      5586
      5536      5586      5589      5590      5536      5586      5589      5591
      5536      5586      5589      5592      5537      5536      5586      5587
      5537      5536      5586      5588      5537      5536      5586      5589
      5538      5536      5586      5587      5538      5536      5586      5588
      5538      5536      5586      5589      5539      5542      5545      5546
      5539      5542      5545      5547      5539      5542      5545      5548
      5540      5539      5542      5543      5540      5539      5542      5544
      5540      5539      5542      5545      5541      5539      5542      5543
      5541      5539      5542      5544      5541      5539      5542      5545
      5542      5545      5548      5549      5542      5545      5548      5550
      5542      5545      5548      5551      5543      5542      5545      5546
      5543      5542      5545      5547      5543      5542      5545      5548
      5544      5542      5545      5546      5544      5542      5545      5547
      5544      5542      5545      5548      5545      5548      5551      5552
      5545      5548      5551      5553      5545      5548      5551      5554
      5546      5545      5548      5549      5546      5545      5548      5550
      5546      5545      5548      5551      5547      5545      5548      5549
      5547      5545      5548      5550      5547      5545      5548      5551
      5548      5551      5554      5555      5548      5551      5554      5556
      5548      5551      5554      5557      5549      5548      5551      5552
      5549      5548      5551      5553      5549      5548      5551      5554
      5550      5548      5551      5552      5550      5548      5551      5553
      5550      5548      5551      5554      5551      5554      5557      5558
      5551      5554      5557      5559      5552      5551      5554      5555
      5552      5551      5554      5556      5552      5551      5554      5557
      5553      5551      5554      5555      5553      5551      5554      5556
      5553      5551      5554      5557      5554      5557      5559      5560
      5554      5557      5559      5561      5555      5554      5557      5558
      5555      5554      5557      5559      5556      5554      5557      5558
      5556      5554      5557      5559      5557      5559      5561      5562
      5557      5559      5561      5563      5557      5559      5561      5564
      5558      5557      5559      5560      5558      5557      5559      5561
      5559      5561      5564      5565      5559      5561      5564      5566
      5559      5561      5564      5567      5560      5559      5561      5562
      5560      5559      5561      5563      5560      5559      5561      5564
      5561      5564      5567      5568      5561      5564      5567      5569
      5561      5564      5567      5570      5562      5561      5564      5565
      5562      5561      5564      5566      5562      5561      5564      5567
      5563      5561      5564      5565      5563      5561      5564      5566
      5563      5561      5564      5567      5564      5567      5570      5571
      5564      5567      5570      5572      5564      5567      5570      5573
      5565      5564      5567      5568      5565      5564      5567      5569
      5565      5564      5567      5570      5566      5564      5567      5568
      5566      5564      5567      5569      5566      5564      5567      5570
      5567      5570      5573      5574      5567      5570      5573      5575
      5567      5570      5573      5576      5568      5567      5570      5571
      5568      5567      5570      5572      5568      5567      5570      5573
      5569      5567      5570      5571      5569      5567      5570      5572
      5569      5567      5570      5573      5570      5573      5576      5577
      5570      5573      5576      5578      5570      5573      5576      5579
      5571      5570      5573      5574      5571      5570      5573      5575
      5571      5570      5573      5576      5572      5570      5573      5574
      5572      5570      5573      5575      5572      5570      5573      5576
      5573      5576      5579      5580      5573      5576      5579      5581
      5573      5576      5579      5582      5574      5573      5576      5577
      5574      5573      5576      5578      5574      5573      5576      5579
      5575      5573      5576      5577      5575      5573      5576      5578
      5575      5573      5576      5579      5576      5579      5582      5583
      5576      5579      5582      5584      5576      5579      5582      5585
      5577      5576      5579      5580      5577      5576      5579      5581
      5577      5576      5579      5582      5578      5576      5579      5580
      5578      5576      5579      5581      5578      5576      5579      5582
      5580      5579      5582      5583      5580      5579      5582      5584
      5580      5579      5582      5585      5581      5579      5582      5583
      5581      5579      5582      5584      5581      5579      5582      5585
      5586      5589      5592      5593      5586      5589      5592      5594
      5586      5589      5592      5595      5587      5586      5589      5590
      5587      5586      5589      5591      5587      5586      5589      5592
      5588      5586      5589      5590      5588      5586      5589      5591
      5588      5586      5589      5592      5589      5592      5595      5596
      5589      5592      5595      5597      5589      5592      5595      5598
      5590      5589      5592      5593      5590      5589      5592      5594
      5590      5589      5592      5595      5591      5589      5592      5593
      5591      5589      5592      5594      5591      5589      5592      5595
      5592      5595      5598      5599      5592      5595      5598      5600
      5592      5595      5598      5601      5593      5592      5595      5596
      5593      5592      5595      5597      5593      5592      5595      5598
      5594      5592      5595      5596      5594      5592      5595      5597
      5594      5592      5595      5598      5595      5598      5601      5602
      5595      5598      5601      5603      5595      5598      5601      5604
      5596      5595      5598      5599      5596      5595      5598      5600
      5596      5595      5598      5601      5597      5595      5598      5599
      5597      5595      5598      5600      5597      5595      5598      5601
      5598      5601      5604      5605      5598      5601      5604      5606
      5598      5601      5604      5607      5599      5598      5601      5602
      5599      5598      5601      5603      5599      5598      5601      5604
      5600      5598      5601      5602      5600      5598      5601      5603
      5600      5598      5601      5604      5601      5604      5607      5608
      5601      5604      5607      5609      5601      5604      5607      5610
      5602      5601      5604      5605      5602      5601      5604      5606
      5602      5601      5604      5607      5603      5601      5604      5605
      5603      5601      5604      5606      5603      5601      5604      5607
      5604      5607      5610      5611      5604      5607      5610      5612
      5604      5607      5610      5613      5605      5604      5607      5608
      5605      5604      5607      5609      5605      5604      5607      5610
      5606      5604      5607      5608      5606      5604      5607      5609
      5606      5604      5607      5610      5607      5610      5613      5614
      5607      5610      5613      5615      5607      5610      5613      5616
      5608      5607      5610      5611      5608      5607      5610      5612
      5608      5607      5610      5613      5609      5607      5610      5611
      5609      5607      5610      5612      5609      5607      5610      5613
      5610      5613      5616      5617      5610      5613      5616      5618
      5610      5613      5616      5619      5611      5610      5613      5614
      5611      5610      5613      5615      5611      5610      5613      5616
      5612      5610      5613      5614      5612      5610      5613      5615
      5612      5610      5613      5616      5613      5616      5619      5620
      5613      5616      5619      5621      5613      5616      5619      5622
      5614      5613      5616      5617      5614      5613      5616      5618
      5614      5613      5616      5619      5615      5613      5616      5617
      5615      5613      5616      5618      5615      5613      5616      5619
      5616      5619      5622      5623      5616      5619      5622      5624
      5616      5619      5622      5625      5617      5616      5619      5620
      5617      5616      5619      5621      5617      5616      5619      5622
      5618      5616      5619      5620      5618      5616      5619      5621
      5618      5616      5619      5622      5619      5622      5625      5626
      5619      5622      5625      5627      5619      5622      5625      5628
      5620      5619      5622      5623      5620      5619      5622      5624
      5620      5619      5622      5625      5621      5619      5622      5623
      5621      5619      5622      5624      5621      5619      5622      5625
      5623      5622      5625      5626      5623      5622      5625      5627
      5623      5622      5625      5628      5624      5622      5625      5626
      5624      5622      5625      5627      5624      5622      5625      5628
      5629      5630      5645      5646      5629      5630      5645      5647
      5629      5630      5645      5651      5630      5629      5633      5634
      5630      5629      5633      5635      5630      5629      5633      5636
      5630      5629      5637      5638      5630      5629      5637      5639
      5630      5629      5637      5640      5630      5629      5641      5642
      5630      5629      5641      5643      5630      5629      5641      5644
      5630      5645      5651      5648      5631      5630      5629      5633
      5631      5630      5629      5637      5631      5630      5629      5641
      5631      5630      5645      5646      5631      5630      5645      5647
      5631      5630      5645      5651      5632      5630      5629      5633
      5632      5630      5629      5637      5632      5630      5629      5641
      5632      5630      5645      5646      5632      5630      5645      5647
      5632      5630      5645      5651      5633      5629      5630      5645
      5633      5629      5637      5638      5633      5629      5637      5639
      5633      5629      5637      5640      5633      5629      5641      5642
      5633      5629      5641      5643      5633      5629      5641      5644
      5634      5633      5629      5637      5634      5633      5629      5641
      5635      5633      5629      5637      5635      5633      5629      5641
      5636      5633      5629      5637      5636      5633      5629      5641
      5637      5629      5630      5645      5637      5629      5641      5642
      5637      5629      5641      5643      5637      5629      5641      5644
      5638      5637      5629      5641      5639      5637      5629      5641
      5640      5637      5629      5641      5641      5629      5630      5645
      5645      5651      5648      5649      5645      5651      5648      5650
      5645      5651      5648      5652      5646      5645      5651      5648
      5647      5645      5651      5648      5648      5652      5653      5654
      5648      5652      5653      5655      5648      5652      5653      5656
      5649      5648      5652      5653      5650      5648      5652      5653
      5651      5648      5652      5653      5652      5653      5656      5657
      5652      5653      5656      5658      5652      5653      5656      5664
      5653      5656      5658      5659      5653      5656      5664      5665
      5653      5656      5664      5666      5653      5656      5664      5667
      5654      5653      5656      5657      5654      5653      5656      5658
      5654      5653      5656      5664      5655      5653      5656      5657
      5655      5653      5656      5658      5655      5653      5656      5664
      5656      5658      5659      5660      5656      5658      5659      5661
      5656      5664      5667      5668      5657      5656      5658      5659
      5657      5656      5664      5665      5657      5656      5664      5666
      5657      5656      5664      5667      5658      5656      5664      5665
      5658      5656      5664      5666      5658      5656      5664      5667
      5658      5659      5661      5662      5658      5659      5661      5663
      5658      5659      5661      5673      5659      5658      5656      5664
      5659      5661      5673      5674      5659      5661      5673      5675
      5659      5661      5673      5676      5660      5659      5661      5662
      5660      5659      5661      5663      5660      5659      5661      5673
      5661      5673      5676      5677      5661      5673      5676      5678
      5661      5673      5676      5679      5662      5661      5673      5674
      5662      5661      5673      5675      5662      5661      5673      5676
      5663      5661      5673      5674      5663      5661      5673      5675
      5663      5661      5673      5676      5664      5667      5668      5669
      5664      5667      5668      5670      5665      5664      5667      5668
      5666      5664      5667      5668      5667      5668      5670      5671
      5667      5668      5670      5672      5667      5668      5670      5720
      5668      5670      5720      5721      5668      5670      5720      5722
      5668      5670      5720      5723      5669      5668      5670      5671
      5669      5668      5670      5672      5669      5668      5670      5720
      5670      5720      5723      5724      5670      5720      5723      5725
      5670      5720      5723      5726      5671      5670      5720      5721
      5671      5670      5720      5722      5671      5670      5720      5723
      5672      5670      5720      5721      5672      5670      5720      5722
      5672      5670      5720      5723      5673      5676      5679      5680
      5673      5676      5679      5681      5673      5676      5679      5682
      5674      5673      5676      5677      5674      5673      5676      5678
      5674      5673      5676      5679      5675      5673      5676      5677
      5675      5673      5676      5678      5675      5673      5676      5679
      5676      5679      5682      5683      5676      5679      5682      5684
      5676      5679      5682      5685      5677      5676      5679      5680
      5677      5676      5679      5681      5677      5676      5679      5682
      5678      5676      5679      5680      5678      5676      5679      5681
      5678      5676      5679      5682      5679      5682      5685      5686
      5679      5682      5685      5687      5679      5682      5685      5688
      5680      5679      5682      5683      5680      5679      5682      5684
      5680      5679      5682      5685      5681      5679      5682      5683
      5681      5679      5682      5684      5681      5679      5682      5685
      5682      5685      5688      5689      5682      5685      5688      5690
      5682      5685      5688      5691      5683      5682      5685      5686
      5683      5682      5685      5687      5683      5682      5685      5688
      5684      5682      5685      5686      5684      5682      5685      5687
      5684      5682      5685      5688      5685      5688      5691      5692
      5685      5688      5691      5693      5686      5685      5688      5689
      5686      5685      5688      5690      5686      5685      5688      5691
      5687      5685      5688      5689      5687      5685      5688      5690
      5687      5685      5688      5691      5688      5691      5693      5694
      5688      5691      5693      5695      5689      5688      5691      5692
      5689      5688      5691      5693      5690      5688      5691      5692
      5690      5688      5691      5693      5691      5693      5695      5696
      5691      5693      5695      5697      5691      5693      5695      5698
      5692      5691      5693      5694      5692      5691      5693      5695
      5693      5695      5698      5699      5693      5695      5698      5700
      5693      5695      5698      5701      5694      5693      5695      5696
      5694      5693      5695      5697      5694      5693      5695      5698
      5695      5698      5701      5702      5695      5698      5701      5703
      5695      5698      5701      5704      5696      5695      5698      5699
      5696      5695      5698      5700      5696      5695      5698      5701
      5697      5695      5698      5699      5697      5695      5698      5700
      5697      5695      5698      5701      5698      5701      5704      5705
      5698      5701      5704      5706      5698      5701      5704      5707
      5699      5698      5701      5702      5699      5698      5701      5703
      5699      5698      5701      5704      5700      5698      5701      5702
      5700      5698      5701      5703      5700      5698      5701      5704
      5701      5704      5707      5708      5701      5704      5707      5709
      5701      5704      5707      5710      5702      5701      5704      5705
      5702      5701      5704      5706      5702      5701      5704      5707
      5703      5701      5704      5705      5703      5701      5704      5706
      5703      5701      5704      5707      5704      5707      5710      5711
      5704      5707      5710      5712      5704      5707      5710      5713
      5705      5704      5707      5708      5705      5704      5707      5709
      5705      5704      5707      5710      5706      5704      5707      5708
      5706      5704      5707      5709      5706      5704      5707      5710
      5707      5710      5713      5714      5707      5710      5713      5715
      5707      5710      5713      5716      5708      5707      5710      5711
      5708      5707      5710      5712      5708      5707      5710      5713
      5709      5707      5710      5711      5709      5707      5710      5712
      5709      5707      5710      5713      5710      5713      5716      5717
      5710      5713      5716      5718      5710      5713      5716      5719
      5711      5710      5713      5714      5711      5710      5713      5715
      5711      5710      5713      5716      5712      5710      5713      5714
      5712      5710      5713      5715      5712      5710      5713      5716
      5714      5713      5716      5717      5714      5713      5716      5718
      5714      5713      5716      5719      5715      5713      5716      5717
      5715      5713      5716      5718      5715      5713      5716      5719
      5720      5723      5726      5727      5720      5723      5726      5728
      5720      5723      5726      5729      5721      5720      5723      5724
      5721      5720      5723      5725      5721      5720      5723      5726
      5722      5720      5723      5724      5722      5720      5723      5725
      5722      5720      5723      5726      5723      5726      5729      5730
      5723      5726      5729      5731      5723      5726      5729      5732
      5724      5723      5726      5727      5724      5723      5726      5728
      5724      5723      5726      5729      5725      5723      5726      5727
      5725      5723      5726      5728      5725      5723      5726      5729
      5726      5729      5732      5733      5726      5729      5732      5734
      5726      5729      5732      5735      5727      5726      5729      5730
      5727      5726      5729      5731      5727      5726      5729      5732
      5728      5726      5729      5730      5728      5726      5729      5731
      5728      5726      5729      5732      5729      5732      5735      5736
      5729      5732      5735      5737      5729      5732      5735      5738
      5730      5729      5732      5733      5730      5729      5732      5734
      5730      5729      5732      5735      5731      5729      5732      5733
      5731      5729      5732      5734      5731      5729      5732      5735
      5732      5735      5738      5739      5732      5735      5738      5740
      5732      5735      5738      5741      5733      5732      5735      5736
      5733      5732      5735      5737      5733      5732      5735      5738
      5734      5732      5735      5736      5734      5732      5735      5737
      5734      5732      5735      5738      5735      5738      5741      5742
      5735      5738      5741      5743      5735      5738      5741      5744
      5736      5735      5738      5739      5736      5735      5738      5740
      5736      5735      5738      5741      5737      5735      5738      5739
      5737      5735      5738      5740      5737      5735      5738      5741
      5738      5741      5744      5745      5738      5741      5744      5746
      5738      5741      5744      5747      5739      5738      5741      5742
      5739      5738      5741      5743      5739      5738      5741      5744
      5740      5738      5741      5742      5740      5738      5741      5743
      5740      5738      5741      5744      5741      5744      5747      5748
      5741      5744      5747      5749      5741      5744      5747      5750
      5742      5741      5744      5745      5742      5741      5744      5746
      5742      5741      5744      5747      5743      5741      5744      5745
      5743      5741      5744      5746      5743      5741      5744      5747
      5744      5747      5750      5751      5744      5747      5750      5752
      5744      5747      5750      5753      5745      5744      5747      5748
      5745      5744      5747      5749      5745      5744      5747      5750
      5746      5744      5747      5748      5746      5744      5747      5749
      5746      5744      5747      5750      5747      5750      5753      5754
      5747      5750      5753      5755      5747      5750      5753      5756
      5748      5747      5750      5751      5748      5747      5750      5752
      5748      5747      5750      5753      5749      5747      5750      5751
      5749      5747      5750      5752      5749      5747      5750      5753
      5750      5753      5756      5757      5750      5753      5756      5758
      5750      5753      5756      5759      5751      5750      5753      5754
      5751      5750      5753      5755      5751      5750      5753      5756
      5752      5750      5753      5754      5752      5750      5753      5755
      5752      5750      5753      5756      5753      5756      5759      5760
      5753      5756      5759      5761      5753      5756      5759      5762
      5754      5753      5756      5757      5754      5753      5756      5758
      5754      5753      5756      5759      5755      5753      5756      5757
      5755      5753      5756      5758      5755      5753      5756      5759
      5757      5756      5759      5760      5757      5756      5759      5761
      5757      5756      5759      5762      5758      5756      5759      5760
      5758      5756      5759      5761      5758      5756      5759      5762
      5763      5764      5779      5780      5763      5764      5779      5781
      5763      5764      5779      5785      5764      5763      5767      5768
      5764      5763      5767      5769      5764      5763      5767      5770
      5764      5763      5771      5772      5764      5763      5771      5773
      5764      5763      5771      5774      5764      5763      5775      5776
      5764      5763      5775      5777      5764      5763      5775      5778
      5764      5779      5785      5782      5765      5764      5763      5767
      5765      5764      5763      5771      5765      5764      5763      5775
      5765      5764      5779      5780      5765      5764      5779      5781
      5765      5764      5779      5785      5766      5764      5763      5767
      5766      5764      5763      5771      5766      5764      5763      5775
      5766      5764      5779      5780      5766      5764      5779      5781
      5766      5764      5779      5785      5767      5763      5764      5779
      5767      5763      5771      5772      5767      5763      5771      5773
      5767      5763      5771      5774      5767      5763      5775      5776
      5767      5763      5775      5777      5767      5763      5775      5778
      5768      5767      5763      5771      5768      5767      5763      5775
      5769      5767      5763      5771      5769      5767      5763      5775
      5770      5767      5763      5771      5770      5767      5763      5775
      5771      5763      5764      5779      5771      5763      5775      5776
      5771      5763      5775      5777      5771      5763      5775      5778
      5772      5771      5763      5775      5773      5771      5763      5775
      5774      5771      5763      5775      5775      5763      5764      5779
      5779      5785      5782      5783      5779      5785      5782      5784
      5779      5785      5782      5786      5780      5779      5785      5782
      5781      5779      5785      5782      5782      5786      5787      5788
      5782      5786      5787      5789      5782      5786      5787      5790
      5783      5782      5786      5787      5784      5782      5786      5787
      5785      5782      5786      5787      5786      5787      5790      5791
      5786      5787      5790      5792      5786      5787      5790      5798
      5787      5790      5792      5793      5787      5790      5798      5799
      5787      5790      5798      5800      5787      5790      5798      5801
      5788      5787      5790      5791      5788      5787      5790      5792
      5788      5787      5790      5798      5789      5787      5790      5791
      5789      5787      5790      5792      5789      5787      5790      5798
      5790      5792      5793      5794      5790      5792      5793      5795
      5790      5798      5801      5802      5791      5790      5792      5793
      5791      5790      5798      5799      5791      5790      5798      5800
      5791      5790      5798      5801      5792      5790      5798      5799
      5792      5790      5798      5800      5792      5790      5798      5801
      5792      5793      5795      5796      5792      5793      5795      5797
      5792      5793      5795      5807      5793      5792      5790      5798
      5793      5795      5807      5808      5793      5795      5807      5809
      5793      5795      5807      5810      5794      5793      5795      5796
      5794      5793      5795      5797      5794      5793      5795      5807
      5795      5807      5810      5811      5795      5807      5810      5812
      5795      5807      5810      5813      5796      5795      5807      5808
      5796      5795      5807      5809      5796      5795      5807      5810
      5797      5795      5807      5808      5797      5795      5807      5809
      5797      5795      5807      5810      5798      5801      5802      5803
      5798      5801      5802      5804      5799      5798      5801      5802
      5800      5798      5801      5802      5801      5802      5804      5805
      5801      5802      5804      5806      5801      5802      5804      5854
      5802      5804      5854      5855      5802      5804      5854      5856
      5802      5804      5854      5857      5803      5802      5804      5805
      5803      5802      5804      5806      5803      5802      5804      5854
      5804      5854      5857      5858      5804      5854      5857      5859
      5804      5854      5857      5860      5805      5804      5854      5855
      5805      5804      5854      5856      5805      5804      5854      5857
      5806      5804      5854      5855      5806      5804      5854      5856
      5806      5804      5854      5857      5807      5810      5813      5814
      5807      5810      5813      5815      5807      5810      5813      5816
      5808      5807      5810      5811      5808      5807      5810      5812
      5808      5807      5810      5813      5809      5807      5810      5811
      5809      5807      5810      5812      5809      5807      5810      5813
      5810      5813      5816      5817      5810      5813      5816      5818
      5810      5813      5816      5819      5811      5810      5813      5814
      5811      5810      5813      5815      5811      5810      5813      5816
      5812      5810      5813      5814      5812      5810      5813      5815
      5812      5810      5813      5816      5813      5816      5819      5820
      5813      5816      5819      5821      5813      5816      5819      5822
      5814      5813      5816      5817      5814      5813      5816      5818
      5814      5813      5816      5819      5815      5813      5816      5817
      5815      5813      5816      5818      5815      5813      5816      5819
      5816      5819      5822      5823      5816      5819      5822      5824
      5816      5819      5822      5825      5817      5816      5819      5820
      5817      5816      5819      5821      5817      5816      5819      5822
      5818      5816      5819      5820      5818      5816      5819      5821
      5818      5816      5819      5822      5819      5822      5825      5826
      5819      5822      5825      5827      5820      5819      5822      5823
      5820      5819      5822      5824      5820      5819      5822      5825
      5821      5819      5822      5823      5821      5819      5822      5824
      5821      5819      5822      5825      5822      5825      5827      5828
      5822      5825      5827      5829      5823      5822      5825      5826
      5823      5822      5825      5827      5824      5822      5825      5826
      5824      5822      5825      5827      5825      5827      5829      5830
      5825      5827      5829      5831      5825      5827      5829      5832
      5826      5825      5827      5828      5826      5825      5827      5829
      5827      5829      5832      5833      5827      5829      5832      5834
      5827      5829      5832      5835      5828      5827      5829      5830
      5828      5827      5829      5831      5828      5827      5829      5832
      5829      5832      5835      5836      5829      5832      5835      5837
      5829      5832      5835      5838      5830      5829      5832      5833
      5830      5829      5832      5834      5830      5829      5832      5835
      5831      5829      5832      5833      5831      5829      5832      5834
      5831      5829      5832      5835      5832      5835      5838      5839
      5832      5835      5838      5840      5832      5835      5838      5841
      5833      5832      5835      5836      5833      5832      5835      5837
      5833      5832      5835      5838      5834      5832      5835      5836
      5834      5832      5835      5837      5834      5832      5835      5838
      5835      5838      5841      5842      5835      5838      5841      5843
      5835      5838      5841      5844      5836      5835      5838      5839
      5836      5835      5838      5840      5836      5835      5838      5841
      5837      5835      5838      5839      5837      5835      5838      5840
      5837      5835      5838      5841      5838      5841      5844      5845
      5838      5841      5844      5846      5838      5841      5844      5847
      5839      5838      5841      5842      5839      5838      5841      5843
      5839      5838      5841      5844      5840      5838      5841      5842
      5840      5838      5841      5843      5840      5838      5841      5844
      5841      5844      5847      5848      5841      5844      5847      5849
      5841      5844      5847      5850      5842      5841      5844      5845
      5842      5841      5844      5846      5842      5841      5844      5847
      5843      5841      5844      5845      5843      5841      5844      5846
      5843      5841      5844      5847      5844      5847      5850      5851
      5844      5847      5850      5852      5844      5847      5850      5853
      5845      5844      5847      5848      5845      5844      5847      5849
      5845      5844      5847      5850      5846      5844      5847      5848
      5846      5844      5847      5849      5846      5844      5847      5850
      5848      5847      5850      5851      5848      5847      5850      5852
      5848      5847      5850      5853      5849      5847      5850      5851
      5849      5847      5850      5852      5849      5847      5850      5853
      5854      5857      5860      5861      5854      5857      5860      5862
      5854      5857      5860      5863      5855      5854      5857      5858
      5855      5854      5857      5859      5855      5854      5857      5860
      5856      5854      5857      5858      5856      5854      5857      5859
      5856      5854      5857      5860      5857      5860      5863      5864
      5857      5860      5863      5865      5857      5860      5863      5866
      5858      5857      5860      5861      5858      5857      5860      5862
      5858      5857      5860      5863      5859      5857      5860      5861
      5859      5857      5860      5862      5859      5857      5860      5863
      5860      5863      5866      5867      5860      5863      5866      5868
      5860      5863      5866      5869      5861      5860      5863      5864
      5861      5860      5863      5865      5861      5860      5863      5866
      5862      5860      5863      5864      5862      5860      5863      5865
      5862      5860      5863      5866      5863      5866      5869      5870
      5863      5866      5869      5871      5863      5866      5869      5872
      5864      5863      5866      5867      5864      5863      5866      5868
      5864      5863      5866      5869      5865      5863      5866      5867
      5865      5863      5866      5868      5865      5863      5866      5869
      5866      5869      5872      5873      5866      5869      5872      5874
      5866      5869      5872      5875      5867      5866      5869      5870
      5867      5866      5869      5871      5867      5866      5869      5872
      5868      5866      5869      5870      5868      5866      5869      5871
      5868      5866      5869      5872      5869      5872      5875      5876
      5869      5872      5875      5877      5869      5872      5875      5878
      5870      5869      5872      5873      5870      5869      5872      5874
      5870      5869      5872      5875      5871      5869      5872      5873
      5871      5869      5872      5874      5871      5869      5872      5875
      5872      5875      5878      5879      5872      5875      5878      5880
      5872      5875      5878      5881      5873      5872      5875      5876
      5873      5872      5875      5877      5873      5872      5875      5878
      5874      5872      5875      5876      5874      5872      5875      5877
      5874      5872      5875      5878      5875      5878      5881      5882
      5875      5878      5881      5883      5875      5878      5881      5884
      5876      5875      5878      5879      5876      5875      5878      5880
      5876      5875      5878      5881      5877      5875      5878      5879
      5877      5875      5878      5880      5877      5875      5878      5881
      5878      5881      5884      5885      5878      5881      5884      5886
      5878      5881      5884      5887      5879      5878      5881      5882
      5879      5878      5881      5883      5879      5878      5881      5884
      5880      5878      5881      5882      5880      5878      5881      5883
      5880      5878      5881      5884      5881      5884      5887      5888
      5881      5884      5887      5889      5881      5884      5887      5890
      5882      5881      5884      5885      5882      5881      5884      5886
      5882      5881      5884      5887      5883      5881      5884      5885
      5883      5881      5884      5886      5883      5881      5884      5887
      5884      5887      5890      5891      5884      5887      5890      5892
      5884      5887      5890      5893      5885      5884      5887      5888
      5885      5884      5887      5889      5885      5884      5887      5890
      5886      5884      5887      5888      5886      5884      5887      5889
      5886      5884      5887      5890      5887      5890      5893      5894
      5887      5890      5893      5895      5887      5890      5893      5896
      5888      5887      5890      5891      5888      5887      5890      5892
      5888      5887      5890      5893      5889      5887      5890      5891
      5889      5887      5890      5892      5889      5887      5890      5893
      5891      5890      5893      5894      5891      5890      5893      5895
      5891      5890      5893      5896      5892      5890      5893      5894
      5892      5890      5893      5895      5892      5890      5893      5896
      5897      5898      5913      5914      5897      5898      5913      5915
      5897      5898      5913      5919      5898      5897      5901      5902
      5898      5897      5901      5903      5898      5897      5901      5904
      5898      5897      5905      5906      5898      5897      5905      5907
      5898      5897      5905      5908      5898      5897      5909      5910
      5898      5897      5909      5911      5898      5897      5909      5912
      5898      5913      5919      5916      5899      5898      5897      5901
      5899      5898      5897      5905      5899      5898      5897      5909
      5899      5898      5913      5914      5899      5898      5913      5915
      5899      5898      5913      5919      5900      5898      5897      5901
      5900      5898      5897      5905      5900      5898      5897      5909
      5900      5898      5913      5914      5900      5898      5913      5915
      5900      5898      5913      5919      5901      5897      5898      5913
      5901      5897      5905      5906      5901      5897      5905      5907
      5901      5897      5905      5908      5901      5897      5909      5910
      5901      5897      5909      5911      5901      5897      5909      5912
      5902      5901      5897      5905      5902      5901      5897      5909
      5903      5901      5897      5905      5903      5901      5897      5909
      5904      5901      5897      5905      5904      5901      5897      5909
      5905      5897      5898      5913      5905      5897      5909      5910
      5905      5897      5909      5911      5905      5897      5909      5912
      5906      5905      5897      5909      5907      5905      5897      5909
      5908      5905      5897      5909      5909      5897      5898      5913
      5913      5919      5916      5917      5913      5919      5916      5918
      5913      5919      5916      5920      5914      5913      5919      5916
      5915      5913      5919      5916      5916      5920      5921      5922
      5916      5920      5921      5923      5916      5920      5921      5924
      5917      5916      5920      5921      5918      5916      5920      5921
      5919      5916      5920      5921      5920      5921      5924      5925
      5920      5921      5924      5926      5920      5921      5924      5932
      5921      5924      5926      5927      5921      5924      5932      5933
      5921      5924      5932      5934      5921      5924      5932      5935
      5922      5921      5924      5925      5922      5921      5924      5926
      5922      5921      5924      5932      5923      5921      5924      5925
      5923      5921      5924      5926      5923      5921      5924      5932
      5924      5926      5927      5928      5924      5926      5927      5929
      5924      5932      5935      5936      5925      5924      5926      5927
      5925      5924      5932      5933      5925      5924      5932      5934
      5925      5924      5932      5935      5926      5924      5932      5933
      5926      5924      5932      5934      5926      5924      5932      5935
      5926      5927      5929      5930      5926      5927      5929      5931
      5926      5927      5929      5941      5927      5926      5924      5932
      5927      5929      5941      5942      5927      5929      5941      5943
      5927      5929      5941      5944      5928      5927      5929      5930
      5928      5927      5929      5931      5928      5927      5929      5941
      5929      5941      5944      5945      5929      5941      5944      5946
      5929      5941      5944      5947      5930      5929      5941      5942
      5930      5929      5941      5943      5930      5929      5941      5944
      5931      5929      5941      5942      5931      5929      5941      5943
      5931      5929      5941      5944      5932      5935      5936      5937
      5932      5935      5936      5938      5933      5932      5935      5936
      5934      5932      5935      5936      5935      5936      5938      5939
      5935      5936      5938      5940      5935      5936      5938      5988
      5936      5938      5988      5989      5936      5938      5988      5990
      5936      5938      5988      5991      5937      5936      5938      5939
      5937      5936      5938      5940      5937      5936      5938      5988
      5938      5988      5991      5992      5938      5988      5991      5993
      5938      5988      5991      5994      5939      5938      5988      5989
      5939      5938      5988      5990      5939      5938      5988      5991
      5940      5938      5988      5989      5940      5938      5988      5990
      5940      5938      5988      5991      5941      5944      5947      5948
      5941      5944      5947      5949      5941      5944      5947      5950
      5942      5941      5944      5945      5942      5941      5944      5946
      5942      5941      5944      5947      5943      5941      5944      5945
      5943      5941      5944      5946      5943      5941      5944      5947
      5944      5947      5950      5951      5944      5947      5950      5952
      5944      5947      5950      5953      5945      5944      5947      5948
      5945      5944      5947      5949      5945      5944      5947      5950
      5946      5944      5947      5948      5946      5944      5947      5949
      5946      5944      5947      5950      5947      5950      5953      5954
      5947      5950      5953      5955      5947      5950      5953      5956
      5948      5947      5950      5951      5948      5947      5950      5952
      5948      5947      5950      5953      5949      5947      5950      5951
      5949      5947      5950      5952      5949      5947      5950      5953
      5950      5953      5956      5957      5950      5953      5956      5958
      5950      5953      5956      5959      5951      5950      5953      5954
      5951      5950      5953      5955      5951      5950      5953      5956
      5952      5950      5953      5954      5952      5950      5953      5955
      5952      5950      5953      5956      5953      5956      5959      5960
      5953      5956      5959      5961      5954      5953      5956      5957
      5954      5953      5956      5958      5954      5953      5956      5959
      5955      5953      5956      5957      5955      5953      5956      5958
      5955      5953      5956      5959      5956      5959      5961      5962
      5956      5959      5961      5963      5957      5956      5959      5960
      5957      5956      5959      5961      5958      5956      5959      5960
      5958      5956      5959      5961      5959      5961      5963      5964
      5959      5961      5963      5965      5959      5961      5963      5966
      5960      5959      5961      5962      5960      5959      5961      5963
      5961      5963      5966      5967      5961      5963      5966      5968
      5961      5963      5966      5969      5962      5961      5963      5964
      5962      5961      5963      5965      5962      5961      5963      5966
      5963      5966      5969      5970      5963      5966      5969      5971
      5963      5966      5969      5972      5964      5963      5966      5967
      5964      5963      5966      5968      5964      5963      5966      5969
      5965      5963      5966      5967      5965      5963      5966      5968
      5965      5963      5966      5969      5966      5969      5972      5973
      5966      5969      5972      5974      5966      5969      5972      5975
      5967      5966      5969      5970      5967      5966      5969      5971
      5967      5966      5969      5972      5968      5966      5969      5970
      5968      5966      5969      5971      5968      5966      5969      5972
      5969      5972      5975      5976      5969      5972      5975      5977
      5969      5972      5975      5978      5970      5969      5972      5973
      5970      5969      5972      5974      5970      5969      5972      5975
      5971      5969      5972      5973      5971      5969      5972      5974
      5971      5969      5972      5975      5972      5975      5978      5979
      5972      5975      5978      5980      5972      5975      5978      5981
      5973      5972      5975      5976      5973      5972      5975      5977
      5973      5972      5975      5978      5974      5972      5975      5976
      5974      5972      5975      5977      5974      5972      5975      5978
      5975      5978      5981      5982      5975      5978      5981      5983
      5975      5978      5981      5984      5976      5975      5978      5979
      5976      5975      5978      5980      5976      5975      5978      5981
      5977      5975      5978      5979      5977      5975      5978      5980
      5977      5975      5978      5981      5978      5981      5984      5985
      5978      5981      5984      5986      5978      5981      5984      5987
      5979      5978      5981      5982      5979      5978      5981      5983
      5979      5978      5981      5984      5980      5978      5981      5982
      5980      5978      5981      5983      5980      5978      5981      5984
      5982      5981      5984      5985      5982      5981      5984      5986
      5982      5981      5984      5987      5983      5981      5984      5985
      5983      5981      5984      5986      5983      5981      5984      5987
      5988      5991      5994      5995      5988      5991      5994      5996
      5988      5991      5994      5997      5989      5988      5991      5992
      5989      5988      5991      5993      5989      5988      5991      5994
      5990      5988      5991      5992      5990      5988      5991      5993
      5990      5988      5991      5994      5991      5994      5997      5998
      5991      5994      5997      5999      5991      5994      5997      6000
      5992      5991      5994      5995      5992      5991      5994      5996
      5992      5991      5994      5997      5993      5991      5994      5995
      5993      5991      5994      5996      5993      5991      5994      5997
      5994      5997      6000      6001      5994      5997      6000      6002
      5994      5997      6000      6003      5995      5994      5997      5998
      5995      5994      5997      5999      5995      5994      5997      6000
      5996      5994      5997      5998      5996      5994      5997      5999
      5996      5994      5997      6000      5997      6000      6003      6004
      5997      6000      6003      6005      5997      6000      6003      6006
      5998      5997      6000      6001      5998      5997      6000      6002
      5998      5997      6000      6003      5999      5997      6000      6001
      5999      5997      6000      6002      5999      5997      6000      6003
      6000      6003      6006      6007      6000      6003      6006      6008
      6000      6003      6006      6009      6001      6000      6003      6004
      6001      6000      6003      6005      6001      6000      6003      6006
      6002      6000      6003      6004      6002      6000      6003      6005
      6002      6000      6003      6006      6003      6006      6009      6010
      6003      6006      6009      6011      6003      6006      6009      6012
      6004      6003      6006      6007      6004      6003      6006      6008
      6004      6003      6006      6009      6005      6003      6006      6007
      6005      6003      6006      6008      6005      6003      6006      6009
      6006      6009      6012      6013      6006      6009      6012      6014
      6006      6009      6012      6015      6007      6006      6009      6010
      6007      6006      6009      6011      6007      6006      6009      6012
      6008      6006      6009      6010      6008      6006      6009      6011
      6008      6006      6009      6012      6009      6012      6015      6016
      6009      6012      6015      6017      6009      6012      6015      6018
      6010      6009      6012      6013      6010      6009      6012      6014
      6010      6009      6012      6015      6011      6009      6012      6013
      6011      6009      6012      6014      6011      6009      6012      6015
      6012      6015      6018      6019      6012      6015      6018      6020
      6012      6015      6018      6021      6013      6012      6015      6016
      6013      6012      6015      6017      6013      6012      6015      6018
      6014      6012      6015      6016      6014      6012      6015      6017
      6014      6012      6015      6018      6015      6018      6021      6022
      6015      6018      6021      6023      6015      6018      6021      6024
      6016      6015      6018      6019      6016      6015      6018      6020
      6016      6015      6018      6021      6017      6015      6018      6019
      6017      6015      6018      6020      6017      6015      6018      6021
      6018      6021      6024      6025      6018      6021      6024      6026
      6018      6021      6024      6027      6019      6018      6021      6022
      6019      6018      6021      6023      6019      6018      6021      6024
      6020      6018      6021      6022      6020      6018      6021      6023
      6020      6018      6021      6024      6021      6024      6027      6028
      6021      6024      6027      6029      6021      6024      6027      6030
      6022      6021      6024      6025      6022      6021      6024      6026
      6022      6021      6024      6027      6023      6021      6024      6025
      6023      6021      6024      6026      6023      6021      6024      6027
      6025      6024      6027      6028      6025      6024      6027      6029
      6025      6024      6027      6030      6026      6024      6027      6028
      6026      6024      6027      6029      6026      6024      6027      6030
      6031      6032      6047      6048      6031      6032      6047      6049
      6031      6032      6047      6053      6032      6031      6035      6036
      6032      6031      6035      6037      6032      6031      6035      6038
      6032      6031      6039      6040      6032      6031      6039      6041
      6032      6031      6039      6042      6032      6031      6043      6044
      6032      6031      6043      6045      6032      6031      6043      6046
      6032      6047      6053      6050      6033      6032      6031      6035
      6033      6032      6031      6039      6033      6032      6031      6043
      6033      6032      6047      6048      6033      6032      6047      6049
      6033      6032      6047      6053      6034      6032      6031      6035
      6034      6032      6031      6039      6034      6032      6031      6043
      6034      6032      6047      6048      6034      6032      6047      6049
      6034      6032      6047      6053      6035      6031      6032      6047
      6035      6031      6039      6040      6035      6031      6039      6041
      6035      6031      6039      6042      6035      6031      6043      6044
      6035      6031      6043      6045      6035      6031      6043      6046
      6036      6035      6031      6039      6036      6035      6031      6043
      6037      6035      6031      6039      6037      6035      6031      6043
      6038      6035      6031      6039      6038      6035      6031      6043
      6039      6031      6032      6047      6039      6031      6043      6044
      6039      6031      6043      6045      6039      6031      6043      6046
      6040      6039      6031      6043      6041      6039      6031      6043
      6042      6039      6031      6043      6043      6031      6032      6047
      6047      6053      6050      6051      6047      6053      6050      6052
      6047      6053      6050      6054      6048      6047      6053      6050
      6049      6047      6053      6050      6050      6054      6055      6056
      6050      6054      6055      6057      6050      6054      6055      6058
      6051      6050      6054      6055      6052      6050      6054      6055
      6053      6050      6054      6055      6054      6055      6058      6059
      6054      6055      6058      6060      6054      6055      6058      6066
      6055      6058      6060      6061      6055      6058      6066      6067
      6055      6058      6066      6068      6055      6058      6066      6069
      6056      6055      6058      6059      6056      6055      6058      6060
      6056      6055      6058      6066      6057      6055      6058      6059
      6057      6055      6058      6060      6057      6055      6058      6066
      6058      6060      6061      6062      6058      6060      6061      6063
      6058      6066      6069      6070      6059      6058      6060      6061
      6059      6058      6066      6067      6059      6058      6066      6068
      6059      6058      6066      6069      6060      6058      6066      6067
      6060      6058      6066      6068      6060      6058      6066      6069
      6060      6061      6063      6064      6060      6061      6063      6065
      6060      6061      6063      6075      6061      6060      6058      6066
      6061      6063      6075      6076      6061      6063      6075      6077
      6061      6063      6075      6078      6062      6061      6063      6064
      6062      6061      6063      6065      6062      6061      6063      6075
      6063      6075      6078      6079      6063      6075      6078      6080
      6063      6075      6078      6081      6064      6063      6075      6076
      6064      6063      6075      6077      6064      6063      6075      6078
      6065      6063      6075      6076      6065      6063      6075      6077
      6065      6063      6075      6078      6066      6069      6070      6071
      6066      6069      6070      6072      6067      6066      6069      6070
      6068      6066      6069      6070      6069      6070      6072      6073
      6069      6070      6072      6074      6069      6070      6072      6122
      6070      6072      6122      6123      6070      6072      6122      6124
      6070      6072      6122      6125      6071      6070      6072      6073
      6071      6070      6072      6074      6071      6070      6072      6122
      6072      6122      6125      6126      6072      6122      6125      6127
      6072      6122      6125      6128      6073      6072      6122      6123
      6073      6072      6122      6124      6073      6072      6122      6125
      6074      6072      6122      6123      6074      6072      6122      6124
      6074      6072      6122      6125      6075      6078      6081      6082
      6075      6078      6081      6083      6075      6078      6081      6084
      6076      6075      6078      6079      6076      6075      6078      6080
      6076      6075      6078      6081      6077      6075      6078      6079
      6077      6075      6078      6080      6077      6075      6078      6081
      6078      6081      6084      6085      6078      6081      6084      6086
      6078      6081      6084      6087      6079      6078      6081      6082
      6079      6078      6081      6083      6079      6078      6081      6084
      6080      6078      6081      6082      6080      6078      6081      6083
      6080      6078      6081      6084      6081      6084      6087      6088
      6081      6084      6087      6089      6081      6084      6087      6090
      6082      6081      6084      6085      6082      6081      6084      6086
      6082      6081      6084      6087      6083      6081      6084      6085
      6083      6081      6084      6086      6083      6081      6084      6087
      6084      6087      6090      6091      6084      6087      6090      6092
      6084      6087      6090      6093      6085      6084      6087      6088
      6085      6084      6087      6089      6085      6084      6087      6090
      6086      6084      6087      6088      6086      6084      6087      6089
      6086      6084      6087      6090      6087      6090      6093      6094
      6087      6090      6093      6095      6088      6087      6090      6091
      6088      6087      6090      6092      6088      6087      6090      6093
      6089      6087      6090      6091      6089      6087      6090      6092
      6089      6087      6090      6093      6090      6093      6095      6096
      6090      6093      6095      6097      6091      6090      6093      6094
      6091      6090      6093      6095      6092      6090      6093      6094
      6092      6090      6093      6095      6093      6095      6097      6098
      6093      6095      6097      6099      6093      6095      6097      6100
      6094      6093      6095      6096      6094      6093      6095      6097
      6095      6097      6100      6101      6095      6097      6100      6102
      6095      6097      6100      6103      6096      6095      6097      6098
      6096      6095      6097      6099      6096      6095      6097      6100
      6097      6100      6103      6104      6097      6100      6103      6105
      6097      6100      6103      6106      6098      6097      6100      6101
      6098      6097      6100      6102      6098      6097      6100      6103
      6099      6097      6100      6101      6099      6097      6100      6102
      6099      6097      6100      6103      6100      6103      6106      6107
      6100      6103      6106      6108      6100      6103      6106      6109
      6101      6100      6103      6104      6101      6100      6103      6105
      6101      6100      6103      6106      6102      6100      6103      6104
      6102      6100      6103      6105      6102      6100      6103      6106
      6103      6106      6109      6110      6103      6106      6109      6111
      6103      6106      6109      6112      6104      6103      6106      6107
      6104      6103      6106      6108      6104      6103      6106      6109
      6105      6103      6106      6107      6105      6103      6106      6108
      6105      6103      6106      6109      6106      6109      6112      6113
      6106      6109      6112      6114      6106      6109      6112      6115
      6107      6106      6109      6110      6107      6106      6109      6111
      6107      6106      6109      6112      6108      6106      6109      6110
      6108      6106      6109      6111      6108      6106      6109      6112
      6109      6112      6115      6116      6109      6112      6115      6117
      6109      6112      6115      6118      6110      6109      6112      6113
      6110      6109      6112      6114      6110      6109      6112      6115
      6111      6109      6112      6113      6111      6109      6112      6114
      6111      6109      6112      6115      6112      6115      6118      6119
      6112      6115      6118      6120      6112      6115      6118      6121
      6113      6112      6115      6116      6113      6112      6115      6117
      6113      6112      6115      6118      6114      6112      6115      6116
      6114      6112      6115      6117      6114      6112      6115      6118
      6116      6115      6118      6119      6116      6115      6118      6120
      6116      6115      6118      6121      6117      6115      6118      6119
      6117      6115      6118      6120      6117      6115      6118      6121
      6122      6125      6128      6129      6122      6125      6128      6130
      6122      6125      6128      6131      6123      6122      6125      6126
      6123      6122      6125      6127      6123      6122      6125      6128
      6124      6122      6125      6126      6124      6122      6125      6127
      6124      6122      6125      6128      6125      6128      6131      6132
      6125      6128      6131      6133      6125      6128      6131      6134
      6126      6125      6128      6129      6126      6125      6128      6130
      6126      6125      6128      6131      6127      6125      6128      6129
      6127      6125      6128      6130      6127      6125      6128      6131
      6128      6131      6134      6135      6128      6131      6134      6136
      6128      6131      6134      6137      6129      6128      6131      6132
      6129      6128      6131      6133      6129      6128      6131      6134
      6130      6128      6131      6132      6130      6128      6131      6133
      6130      6128      6131      6134      6131      6134      6137      6138
      6131      6134      6137      6139      6131      6134      6137      6140
      6132      6131      6134      6135      6132      6131      6134      6136
      6132      6131      6134      6137      6133      6131      6134      6135
      6133      6131      6134      6136      6133      6131      6134      6137
      6134      6137      6140      6141      6134      6137      6140      6142
      6134      6137      6140      6143      6135      6134      6137      6138
      6135      6134      6137      6139      6135      6134      6137      6140
      6136      6134      6137      6138      6136      6134      6137      6139
      6136      6134      6137      6140      6137      6140      6143      6144
      6137      6140      6143      6145      6137      6140      6143      6146
      6138      6137      6140      6141      6138      6137      6140      6142
      6138      6137      6140      6143      6139      6137      6140      6141
      6139      6137      6140      6142      6139      6137      6140      6143
      6140      6143      6146      6147      6140      6143      6146      6148
      6140      6143      6146      6149      6141      6140      6143      6144
      6141      6140      6143      6145      6141      6140      6143      6146
      6142      6140      6143      6144      6142      6140      6143      6145
      6142      6140      6143      6146      6143      6146      6149      6150
      6143      6146      6149      6151      6143      6146      6149      6152
      6144      6143      6146      6147      6144      6143      6146      6148
      6144      6143      6146      6149      6145      6143      6146      6147
      6145      6143      6146      6148      6145      6143      6146      6149
      6146      6149      6152      6153      6146      6149      6152      6154
      6146      6149      6152      6155      6147      6146      6149      6150
      6147      6146      6149      6151      6147      6146      6149      6152
      6148      6146      6149      6150      6148      6146      6149      6151
      6148      6146      6149      6152      6149      6152      6155      6156
      6149      6152      6155      6157      6149      6152      6155      6158
      6150      6149      6152      6153      6150      6149      6152      6154
      6150      6149      6152      6155      6151      6149      6152      6153
      6151      6149      6152      6154      6151      6149      6152      6155
      6152      6155      6158      6159      6152      6155      6158      6160
      6152      6155      6158      6161      6153      6152      6155      6156
      6153      6152      6155      6157      6153      6152      6155      6158
      6154      6152      6155      6156      6154      6152      6155      6157
      6154      6152      6155      6158      6155      6158      6161      6162
      6155      6158      6161      6163      6155      6158      6161      6164
      6156      6155      6158      6159      6156      6155      6158      6160
      6156      6155      6158      6161      6157      6155      6158      6159
      6157      6155      6158      6160      6157      6155      6158      6161
      6159      6158      6161      6162      6159      6158      6161      6163
      6159      6158      6161      6164      6160      6158      6161      6162
      6160      6158      6161      6163      6160      6158      6161      6164
      6165      6166      6181      6182      6165      6166      6181      6183
      6165      6166      6181      6187      6166      6165      6169      6170
      6166      6165      6169      6171      6166      6165      6169      6172
      6166      6165      6173      6174      6166      6165      6173      6175
      6166      6165      6173      6176      6166      6165      6177      6178
      6166      6165      6177      6179      6166      6165      6177      6180
      6166      6181      6187      6184      6167      6166      6165      6169
      6167      6166      6165      6173      6167      6166      6165      6177
      6167      6166      6181      6182      6167      6166      6181      6183
      6167      6166      6181      6187      6168      6166      6165      6169
      6168      6166      6165      6173      6168      6166      6165      6177
      6168      6166      6181      6182      6168      6166      6181      6183
      6168      6166      6181      6187      6169      6165      6166      6181
      6169      6165      6173      6174      6169      6165      6173      6175
      6169      6165      6173      6176      6169      6165      6177      6178
      6169      6165      6177      6179      6169      6165      6177      6180
      6170      6169      6165      6173      6170      6169      6165      6177
      6171      6169      6165      6173      6171      6169      6165      6177
      6172      6169      6165      6173      6172      6169      6165      6177
      6173      6165      6166      6181      6173      6165      6177      6178
      6173      6165      6177      6179      6173      6165      6177      6180
      6174      6173      6165      6177      6175      6173      6165      6177
      6176      6173      6165      6177      6177      6165      6166      6181
      6181      6187      6184      6185      6181      6187      6184      6186
      6181      6187      6184      6188      6182      6181      6187      6184
      6183      6181      6187      6184      6184      6188      6189      6190
      6184      6188      6189      6191      6184      6188      6189      6192
      6185      6184      6188      6189      6186      6184      6188      6189
      6187      6184      6188      6189      6188      6189      6192      6193
      6188      6189      6192      6194      6188      6189      6192      6200
      6189      6192      6194      6195      6189      6192      6200      6201
      6189      6192      6200      6202      6189      6192      6200      6203
      6190      6189      6192      6193      6190      6189      6192      6194
      6190      6189      6192      6200      6191      6189      6192      6193
      6191      6189      6192      6194      6191      6189      6192      6200
      6192      6194      6195      6196      6192      6194      6195      6197
      6192      6200      6203      6204      6193      6192      6194      6195
      6193      6192      6200      6201      6193      6192      6200      6202
      6193      6192      6200      6203      6194      6192      6200      6201
      6194      6192      6200      6202      6194      6192      6200      6203
      6194      6195      6197      6198      6194      6195      6197      6199
      6194      6195      6197      6209      6195      6194      6192      6200
      6195      6197      6209      6210      6195      6197      6209      6211
      6195      6197      6209      6212      6196      6195      6197      6198
      6196      6195      6197      6199      6196      6195      6197      6209
      6197      6209      6212      6213      6197      6209      6212      6214
      6197      6209      6212      6215      6198      6197      6209      6210
      6198      6197      6209      6211      6198      6197      6209      6212
      6199      6197      6209      6210      6199      6197      6209      6211
      6199      6197      6209      6212      6200      6203      6204      6205
      6200      6203      6204      6206      6201      6200      6203      6204
      6202      6200      6203      6204      6203      6204      6206      6207
      6203      6204      6206      6208      6203      6204      6206      6256
      6204      6206      6256      6257      6204      6206      6256      6258
      6204      6206      6256      6259      6205      6204      6206      6207
      6205      6204      6206      6208      6205      6204      6206      6256
      6206      6256      6259      6260      6206      6256      6259      6261
      6206      6256      6259      6262      6207      6206      6256      6257
      6207      6206      6256      6258      6207      6206      6256      6259
      6208      6206      6256      6257      6208      6206      6256      6258
      6208      6206      6256      6259      6209      6212      6215      6216
      6209      6212      6215      6217      6209      6212      6215      6218
      6210      6209      6212      6213      6210      6209      6212      6214
      6210      6209      6212      6215      6211      6209      6212      6213
      6211      6209      6212      6214      6211      6209      6212      6215
      6212      6215      6218      6219      6212      6215      6218      6220
      6212      6215      6218      6221      6213      6212      6215      6216
      6213      6212      6215      6217      6213      6212      6215      6218
      6214      6212      6215      6216      6214      6212      6215      6217
      6214      6212      6215      6218      6215      6218      6221      6222
      6215      6218      6221      6223      6215      6218      6221      6224
      6216      6215      6218      6219      6216      6215      6218      6220
      6216      6215      6218      6221      6217      6215      6218      6219
      6217      6215      6218      6220      6217      6215      6218      6221
      6218      6221      6224      6225      6218      6221      6224      6226
      6218      6221      6224      6227      6219      6218      6221      6222
      6219      6218      6221      6223      6219      6218      6221      6224
      6220      6218      6221      6222      6220      6218      6221      6223
      6220      6218      6221      6224      6221      6224      6227      6228
      6221      6224      6227      6229      6222      6221      6224      6225
      6222      6221      6224      6226      6222      6221      6224      6227
      6223      6221      6224      6225      6223      6221      6224      6226
      6223      6221      6224      6227      6224      6227      6229      6230
      6224      6227      6229      6231      6225      6224      6227      6228
      6225      6224      6227      6229      6226      6224      6227      6228
      6226      6224      6227      6229      6227      6229      6231      6232
      6227      6229      6231      6233      6227      6229      6231      6234
      6228      6227      6229      6230      6228      6227      6229      6231
      6229      6231      6234      6235      6229      6231      6234      6236
      6229      6231      6234      6237      6230      6229      6231      6232
      6230      6229      6231      6233      6230      6229      6231      6234
      6231      6234      6237      6238      6231      6234      6237      6239
      6231      6234      6237      6240      6232      6231      6234      6235
      6232      6231      6234      6236      6232      6231      6234      6237
      6233      6231      6234      6235      6233      6231      6234      6236
      6233      6231      6234      6237      6234      6237      6240      6241
      6234      6237      6240      6242      6234      6237      6240      6243
      6235      6234      6237      6238      6235      6234      6237      6239
      6235      6234      6237      6240      6236      6234      6237      6238
      6236      6234      6237      6239      6236      6234      6237      6240
      6237      6240      6243      6244      6237      6240      6243      6245
      6237      6240      6243      6246      6238      6237      6240      6241
      6238      6237      6240      6242      6238      6237      6240      6243
      6239      6237      6240      6241      6239      6237      6240      6242
      6239      6237      6240      6243      6240      6243      6246      6247
      6240      6243      6246      6248      6240      6243      6246      6249
      6241      6240      6243      6244      6241      6240      6243      6245
      6241      6240      6243      6246      6242      6240      6243      6244
      6242      6240      6243      6245      6242      6240      6243      6246
      6243      6246      6249      6250      6243      6246      6249      6251
      6243      6246      6249      6252      6244      6243      6246      6247
      6244      6243      6246      6248      6244      6243      6246      6249
      6245      6243      6246      6247      6245      6243      6246      6248
      6245      6243      6246      6249      6246      6249      6252      6253
      6246      6249      6252      6254      6246      6249      6252      6255
      6247      6246      6249      6250      6247      6246      6249      6251
      6247      6246      6249      6252      6248      6246      6249      6250
      6248      6246      6249      6251      6248      6246      6249      6252
      6250      6249      6252      6253      6250      6249      6252      6254
      6250      6249      6252      6255      6251      6249      6252      6253
      6251      6249      6252      6254      6251      6249      6252      6255
      6256      6259      6262      6263      6256      6259      6262      6264
      6256      6259      6262      6265      6257      6256      6259      6260
      6257      6256      6259      6261      6257      6256      6259      6262
      6258      6256      6259      6260      6258      6256      6259      6261
      6258      6256      6259      6262      6259      6262      6265      6266
      6259      6262      6265      6267      6259      6262      6265      6268
      6260      6259      6262      6263      6260      6259      6262      6264
      6260      6259      6262      6265      6261      6259      6262      6263
      6261      6259      6262      6264      6261      6259      6262      6265
      6262      6265      6268      6269      6262      6265      6268      6270
      6262      6265      6268      6271      6263      6262      6265      6266
      6263      6262      6265      6267      6263      6262      6265      6268
      6264      6262      6265      6266      6264      6262      6265      6267
      6264      6262      6265      6268      6265      6268      6271      6272
      6265      6268      6271      6273      6265      6268      6271      6274
      6266      6265      6268      6269      6266      6265      6268      6270
      6266      6265      6268      6271      6267      6265      6268      6269
      6267      6265      6268      6270      6267      6265      6268      6271
      6268      6271      6274      6275      6268      6271      6274      6276
      6268      6271      6274      6277      6269      6268      6271      6272
      6269      6268      6271      6273      6269      6268      6271      6274
      6270      6268      6271      6272      6270      6268      6271      6273
      6270      6268      6271      6274      6271      6274      6277      6278
      6271      6274      6277      6279      6271      6274      6277      6280
      6272      6271      6274      6275      6272      6271      6274      6276
      6272      6271      6274      6277      6273      6271      6274      6275
      6273      6271      6274      6276      6273      6271      6274      6277
      6274      6277      6280      6281      6274      6277      6280      6282
      6274      6277      6280      6283      6275      6274      6277      6278
      6275      6274      6277      6279      6275      6274      6277      6280
      6276      6274      6277      6278      6276      6274      6277      6279
      6276      6274      6277      6280      6277      6280      6283      6284
      6277      6280      6283      6285      6277      6280      6283      6286
      6278      6277      6280      6281      6278      6277      6280      6282
      6278      6277      6280      6283      6279      6277      6280      6281
      6279      6277      6280      6282      6279      6277      6280      6283
      6280      6283      6286      6287      6280      6283      6286      6288
      6280      6283      6286      6289      6281      6280      6283      6284
      6281      6280      6283      6285      6281      6280      6283      6286
      6282      6280      6283      6284      6282      6280      6283      6285
      6282      6280      6283      6286      6283      6286      6289      6290
      6283      6286      6289      6291      6283      6286      6289      6292
      6284      6283      6286      6287      6284      6283      6286      6288
      6284      6283      6286      6289      6285      6283      6286      6287
      6285      6283      6286      6288      6285      6283      6286      6289
      6286      6289      6292      6293      6286      6289      6292      6294
      6286      6289      6292      6295      6287      6286      6289      6290
      6287      6286      6289      6291      6287      6286      6289      6292
      6288      6286      6289      6290      6288      6286      6289      6291
      6288      6286      6289      6292      6289      6292      6295      6296
      6289      6292      6295      6297      6289      6292      6295      6298
      6290      6289      6292      6293      6290      6289      6292      6294
      6290      6289      6292      6295      6291      6289      6292      6293
      6291      6289      6292      6294      6291      6289      6292      6295
      6293      6292      6295      6296      6293      6292      6295      6297
      6293      6292      6295      6298      6294      6292      6295      6296
      6294      6292      6295      6297      6294      6292      6295      6298
      6299      6300      6315      6316      6299      6300      6315      6317
      6299      6300      6315      6321      6300      6299      6303      6304
      6300      6299      6303      6305      6300      6299      6303      6306
      6300      6299      6307      6308      6300      6299      6307      6309
      6300      6299      6307      6310      6300      6299      6311      6312
      6300      6299      6311      6313      6300      6299      6311      6314
      6300      6315      6321      6318      6301      6300      6299      6303
      6301      6300      6299      6307      6301      6300      6299      6311
      6301      6300      6315      6316      6301      6300      6315      6317
      6301      6300      6315      6321      6302      6300      6299      6303
      6302      6300      6299      6307      6302      6300      6299      6311
      6302      6300      6315      6316      6302      6300      6315      6317
      6302      6300      6315      6321      6303      6299      6300      6315
      6303      6299      6307      6308      6303      6299      6307      6309
      6303      6299      6307      6310      6303      6299      6311      6312
      6303      6299      6311      6313      6303      6299      6311      6314
      6304      6303      6299      6307      6304      6303      6299      6311
      6305      6303      6299      6307      6305      6303      6299      6311
      6306      6303      6299      6307      6306      6303      6299      6311
      6307      6299      6300      6315      6307      6299      6311      6312
      6307      6299      6311      6313      6307      6299      6311      6314
      6308      6307      6299      6311      6309      6307      6299      6311
      6310      6307      6299      6311      6311      6299      6300      6315
      6315      6321      6318      6319      6315      6321      6318      6320
      6315      6321      6318      6322      6316      6315      6321      6318
      6317      6315      6321      6318      6318      6322      6323      6324
      6318      6322      6323      6325      6318      6322      6323      6326
      6319      6318      6322      6323      6320      6318      6322      6323
      6321      6318      6322      6323      6322      6323      6326      6327
      6322      6323      6326      6328      6322      6323      6326      6334
      6323      6326      6328      6329      6323      6326      6334      6335
      6323      6326      6334      6336      6323      6326      6334      6337
      6324      6323      6326      6327      6324      6323      6326      6328
      6324      6323      6326      6334      6325      6323      6326      6327
      6325      6323      6326      6328      6325      6323      6326      6334
      6326      6328      6329      6330      6326      6328      6329      6331
      6326      6334      6337      6338      6327      6326      6328      6329
      6327      6326      6334      6335      6327      6326      6334      6336
      6327      6326      6334      6337      6328      6326      6334      6335
      6328      6326      6334      6336      6328      6326      6334      6337
      6328      6329      6331      6332      6328      6329      6331      6333
      6328      6329      6331      6343      6329      6328      6326      6334
      6329      6331      6343      6344      6329      6331      6343      6345
      6329      6331      6343      6346      6330      6329      6331      6332
      6330      6329      6331      6333      6330      6329      6331      6343
      6331      6343      6346      6347      6331      6343      6346      6348
      6331      6343      6346      6349      6332      6331      6343      6344
      6332      6331      6343      6345      6332      6331      6343      6346
      6333      6331      6343      6344      6333      6331      6343      6345
      6333      6331      6343      6346      6334      6337      6338      6339
      6334      6337      6338      6340      6335      6334      6337      6338
      6336      6334      6337      6338      6337      6338      6340      6341
      6337      6338      6340      6342      6337      6338      6340      6390
      6338      6340      6390      6391      6338      6340      6390      6392
      6338      6340      6390      6393      6339      6338      6340      6341
      6339      6338      6340      6342      6339      6338      6340      6390
      6340      6390      6393      6394      6340      6390      6393      6395
      6340      6390      6393      6396      6341      6340      6390      6391
      6341      6340      6390      6392      6341      6340      6390      6393
      6342      6340      6390      6391      6342      6340      6390      6392
      6342      6340      6390      6393      6343      6346      6349      6350
      6343      6346      6349      6351      6343      6346      6349      6352
      6344      6343      6346      6347      6344      6343      6346      6348
      6344      6343      6346      6349      6345      6343      6346      6347
      6345      6343      6346      6348      6345      6343      6346      6349
      6346      6349      6352      6353      6346      6349      6352      6354
      6346      6349      6352      6355      6347      6346      6349      6350
      6347      6346      6349      6351      6347      6346      6349      6352
      6348      6346      6349      6350      6348      6346      6349      6351
      6348      6346      6349      6352      6349      6352      6355      6356
      6349      6352      6355      6357      6349      6352      6355      6358
      6350      6349      6352      6353      6350      6349      6352      6354
      6350      6349      6352      6355      6351      6349      6352      6353
      6351      6349      6352      6354      6351      6349      6352      6355
      6352      6355      6358      6359      6352      6355      6358      6360
      6352      6355      6358      6361      6353      6352      6355      6356
      6353      6352      6355      6357      6353      6352      6355      6358
      6354      6352      6355      6356      6354      6352      6355      6357
      6354      6352      6355      6358      6355      6358      6361      6362
      6355      6358      6361      6363      6356      6355      6358      6359
      6356      6355      6358      6360      6356      6355      6358      6361
      6357      6355      6358      6359      6357      6355      6358      6360
      6357      6355      6358      6361      6358      6361      6363      6364
      6358      6361      6363      6365      6359      6358      6361      6362
      6359      6358      6361      6363      6360      6358      6361      6362
      6360      6358      6361      6363      6361      6363      6365      6366
      6361      6363      6365      6367      6361      6363      6365      6368
      6362      6361      6363      6364      6362      6361      6363      6365
      6363      6365      6368      6369      6363      6365      6368      6370
      6363      6365      6368      6371      6364      6363      6365      6366
      6364      6363      6365      6367      6364      6363      6365      6368
      6365      6368      6371      6372      6365      6368      6371      6373
      6365      6368      6371      6374      6366      6365      6368      6369
      6366      6365      6368      6370      6366      6365      6368      6371
      6367      6365      6368      6369      6367      6365      6368      6370
      6367      6365      6368      6371      6368      6371      6374      6375
      6368      6371      6374      6376      6368      6371      6374      6377
      6369      6368      6371      6372      6369      6368      6371      6373
      6369      6368      6371      6374      6370      6368      6371      6372
      6370      6368      6371      6373      6370      6368      6371      6374
      6371      6374      6377      6378      6371      6374      6377      6379
      6371      6374      6377      6380      6372      6371      6374      6375
      6372      6371      6374      6376      6372      6371      6374      6377
      6373      6371      6374      6375      6373      6371      6374      6376
      6373      6371      6374      6377      6374      6377      6380      6381
      6374      6377      6380      6382      6374      6377      6380      6383
      6375      6374      6377      6378      6375      6374      6377      6379
      6375      6374      6377      6380      6376      6374      6377      6378
      6376      6374      6377      6379      6376      6374      6377      6380
      6377      6380      6383      6384      6377      6380      6383      6385
      6377      6380      6383      6386      6378      6377      6380      6381
      6378      6377      6380      6382      6378      6377      6380      6383
      6379      6377      6380      6381      6379      6377      6380      6382
      6379      6377      6380      6383      6380      6383      6386      6387
      6380      6383      6386      6388      6380      6383      6386      6389
      6381      6380      6383      6384      6381      6380      6383      6385
      6381      6380      6383      6386      6382      6380      6383      6384
      6382      6380      6383      6385      6382      6380      6383      6386
      6384      6383      6386      6387      6384      6383      6386      6388
      6384      6383      6386      6389      6385      6383      6386      6387
      6385      6383      6386      6388      6385      6383      6386      6389
      6390      6393      6396      6397      6390      6393      6396      6398
      6390      6393      6396      6399      6391      6390      6393      6394
      6391      6390      6393      6395      6391      6390      6393      6396
      6392      6390      6393      6394      6392      6390      6393      6395
      6392      6390      6393      6396      6393      6396      6399      6400
      6393      6396      6399      6401      6393      6396      6399      6402
      6394      6393      6396      6397      6394      6393      6396      6398
      6394      6393      6396      6399      6395      6393      6396      6397
      6395      6393      6396      6398      6395      6393      6396      6399
      6396      6399      6402      6403      6396      6399      6402      6404
      6396      6399      6402      6405      6397      6396      6399      6400
      6397      6396      6399      6401      6397      6396      6399      6402
      6398      6396      6399      6400      6398      6396      6399      6401
      6398      6396      6399      6402      6399      6402      6405      6406
      6399      6402      6405      6407      6399      6402      6405      6408
      6400      6399      6402      6403      6400      6399      6402      6404
      6400      6399      6402      6405      6401      6399      6402      6403
      6401      6399      6402      6404      6401      6399      6402      6405
      6402      6405      6408      6409      6402      6405      6408      6410
      6402      6405      6408      6411      6403      6402      6405      6406
      6403      6402      6405      6407      6403      6402      6405      6408
      6404      6402      6405      6406      6404      6402      6405      6407
      6404      6402      6405      6408      6405      6408      6411      6412
      6405      6408      6411      6413      6405      6408      6411      6414
      6406      6405      6408      6409      6406      6405      6408      6410
      6406      6405      6408      6411      6407      6405      6408      6409
      6407      6405      6408      6410      6407      6405      6408      6411
      6408      6411      6414      6415      6408      6411      6414      6416
      6408      6411      6414      6417      6409      6408      6411      6412
      6409      6408      6411      6413      6409      6408      6411      6414
      6410      6408      6411      6412      6410      6408      6411      6413
      6410      6408      6411      6414      6411      6414      6417      6418
      6411      6414      6417      6419      6411      6414      6417      6420
      6412      6411      6414      6415      6412      6411      6414      6416
      6412      6411      6414      6417      6413      6411      6414      6415
      6413      6411      6414      6416      6413      6411      6414      6417
      6414      6417      6420      6421      6414      6417      6420      6422
      6414      6417      6420      6423      6415      6414      6417      6418
      6415      6414      6417      6419      6415      6414      6417      6420
      6416      6414      6417      6418      6416      6414      6417      6419
      6416      6414      6417      6420      6417      6420      6423      6424
      6417      6420      6423      6425      6417      6420      6423      6426
      6418      6417      6420      6421      6418      6417      6420      6422
      6418      6417      6420      6423      6419      6417      6420      6421
      6419      6417      6420      6422      6419      6417      6420      6423
      6420      6423      6426      6427      6420      6423      6426      6428
      6420      6423      6426      6429      6421      6420      6423      6424
      6421      6420      6423      6425      6421      6420      6423      6426
      6422      6420      6423      6424      6422      6420      6423      6425
      6422      6420      6423      6426      6423      6426      6429      6430
      6423      6426      6429      6431      6423      6426      6429      6432
      6424      6423      6426      6427      6424      6423      6426      6428
      6424      6423      6426      6429      6425      6423      6426      6427
      6425      6423      6426      6428      6425      6423      6426      6429
      6427      6426      6429      6430      6427      6426      6429      6431
      6427      6426      6429      6432      6428      6426      6429      6430
      6428      6426      6429      6431      6428      6426      6429      6432
      6433      6434      6449      6450      6433      6434      6449      6451
      6433      6434      6449      6455      6434      6433      6437      6438
      6434      6433      6437      6439      6434      6433      6437      6440
      6434      6433      6441      6442      6434      6433      6441      6443
      6434      6433      6441      6444      6434      6433      6445      6446
      6434      6433      6445      6447      6434      6433      6445      6448
      6434      6449      6455      6452      6435      6434      6433      6437
      6435      6434      6433      6441      6435      6434      6433      6445
      6435      6434      6449      6450      6435      6434      6449      6451
      6435      6434      6449      6455      6436      6434      6433      6437
      6436      6434      6433      6441      6436      6434      6433      6445
      6436      6434      6449      6450      6436      6434      6449      6451
      6436      6434      6449      6455      6437      6433      6434      6449
      6437      6433      6441      6442      6437      6433      6441      6443
      6437      6433      6441      6444      6437      6433      6445      6446
      6437      6433      6445      6447      6437      6433      6445      6448
      6438      6437      6433      6441      6438      6437      6433      6445
      6439      6437      6433      6441      6439      6437      6433      6445
      6440      6437      6433      6441      6440      6437      6433      6445
      6441      6433      6434      6449      6441      6433      6445      6446
      6441      6433      6445      6447      6441      6433      6445      6448
      6442      6441      6433      6445      6443      6441      6433      6445
      6444      6441      6433      6445      6445      6433      6434      6449
      6449      6455      6452      6453      6449      6455      6452      6454
      6449      6455      6452      6456      6450      6449      6455      6452
      6451      6449      6455      6452      6452      6456      6457      6458
      6452      6456      6457      6459      6452      6456      6457      6460
      6453      6452      6456      6457      6454      6452      6456      6457
      6455      6452      6456      6457      6456      6457      6460      6461
      6456      6457      6460      6462      6456      6457      6460      6468
      6457      6460      6462      6463      6457      6460      6468      6469
      6457      6460      6468      6470      6457      6460      6468      6471
      6458      6457      6460      6461      6458      6457      6460      6462
      6458      6457      6460      6468      6459      6457      6460      6461
      6459      6457      6460      6462      6459      6457      6460      6468
      6460      6462      6463      6464      6460      6462      6463      6465
      6460      6468      6471      6472      6461      6460      6462      6463
      6461      6460      6468      6469      6461      6460      6468      6470
      6461      6460      6468      6471      6462      6460      6468      6469
      6462      6460      6468      6470      6462      6460      6468      6471
      6462      6463      6465      6466      6462      6463      6465      6467
      6462      6463      6465      6477      6463      6462      6460      6468
      6463      6465      6477      6478      6463      6465      6477      6479
      6463      6465      6477      6480      6464      6463      6465      6466
      6464      6463      6465      6467      6464      6463      6465      6477
      6465      6477      6480      6481      6465      6477      6480      6482
      6465      6477      6480      6483      6466      6465      6477      6478
      6466      6465      6477      6479      6466      6465      6477      6480
      6467      6465      6477      6478      6467      6465      6477      6479
      6467      6465      6477      6480      6468      6471      6472      6473
      6468      6471      6472      6474      6469      6468      6471      6472
      6470      6468      6471      6472      6471      6472      6474      6475
      6471      6472      6474      6476      6471      6472      6474      6524
      6472      6474      6524      6525      6472      6474      6524      6526
      6472      6474      6524      6527      6473      6472      6474      6475
      6473      6472      6474      6476      6473      6472      6474      6524
      6474      6524      6527      6528      6474      6524      6527      6529
      6474      6524      6527      6530      6475      6474      6524      6525
      6475      6474      6524      6526      6475      6474      6524      6527
      6476      6474      6524      6525      6476      6474      6524      6526
      6476      6474      6524      6527      6477      6480      6483      6484
      6477      6480      6483      6485      6477      6480      6483      6486
      6478      6477      6480      6481      6478      6477      6480      6482
      6478      6477      6480      6483      6479      6477      6480      6481
      6479      6477      6480      6482      6479      6477      6480      6483
      6480      6483      6486      6487      6480      6483      6486      6488
      6480      6483      6486      6489      6481      6480      6483      6484
      6481      6480      6483      6485      6481      6480      6483      6486
      6482      6480      6483      6484      6482      6480      6483      6485
      6482      6480      6483      6486      6483      6486      6489      6490
      6483      6486      6489      6491      6483      6486      6489      6492
      6484      6483      6486      6487      6484      6483      6486      6488
      6484      6483      6486      6489      6485      6483      6486      6487
      6485      6483      6486      6488      6485      6483      6486      6489
      6486      6489      6492      6493      6486      6489      6492      6494
      6486      6489      6492      6495      6487      6486      6489      6490
      6487      6486      6489      6491      6487      6486      6489      6492
      6488      6486      6489      6490      6488      6486      6489      6491
      6488      6486      6489      6492      6489      6492      6495      6496
      6489      6492      6495      6497      6490      6489      6492      6493
      6490      6489      6492      6494      6490      6489      6492      6495
      6491      6489      6492      6493      6491      6489      6492      6494
      6491      6489      6492      6495      6492      6495      6497      6498
      6492      6495      6497      6499      6493      6492      6495      6496
      6493      6492      6495      6497      6494      6492      6495      6496
      6494      6492      6495      6497      6495      6497      6499      6500
      6495      6497      6499      6501      6495      6497      6499      6502
      6496      6495      6497      6498      6496      6495      6497      6499
      6497      6499      6502      6503      6497      6499      6502      6504
      6497      6499      6502      6505      6498      6497      6499      6500
      6498      6497      6499      6501      6498      6497      6499      6502
      6499      6502      6505      6506      6499      6502      6505      6507
      6499      6502      6505      6508      6500      6499      6502      6503
      6500      6499      6502      6504      6500      6499      6502      6505
      6501      6499      6502      6503      6501      6499      6502      6504
      6501      6499      6502      6505      6502      6505      6508      6509
      6502      6505      6508      6510      6502      6505      6508      6511
      6503      6502      6505      6506      6503      6502      6505      6507
      6503      6502      6505      6508      6504      6502      6505      6506
      6504      6502      6505      6507      6504      6502      6505      6508
      6505      6508      6511      6512      6505      6508      6511      6513
      6505      6508      6511      6514      6506      6505      6508      6509
      6506      6505      6508      6510      6506      6505      6508      6511
      6507      6505      6508      6509      6507      6505      6508      6510
      6507      6505      6508      6511      6508      6511      6514      6515
      6508      6511      6514      6516      6508      6511      6514      6517
      6509      6508      6511      6512      6509      6508      6511      6513
      6509      6508      6511      6514      6510      6508      6511      6512
      6510      6508      6511      6513      6510      6508      6511      6514
      6511      6514      6517      6518      6511      6514      6517      6519
      6511      6514      6517      6520      6512      6511      6514      6515
      6512      6511      6514      6516      6512      6511      6514      6517
      6513      6511      6514      6515      6513      6511      6514      6516
      6513      6511      6514      6517      6514      6517      6520      6521
      6514      6517      6520      6522      6514      6517      6520      6523
      6515      6514      6517      6518      6515      6514      6517      6519
      6515      6514      6517      6520      6516      6514      6517      6518
      6516      6514      6517      6519      6516      6514      6517      6520
      6518      6517      6520      6521      6518      6517      6520      6522
      6518      6517      6520      6523      6519      6517      6520      6521
      6519      6517      6520      6522      6519      6517      6520      6523
      6524      6527      6530      6531      6524      6527      6530      6532
      6524      6527      6530      6533      6525      6524      6527      6528
      6525      6524      6527      6529      6525      6524      6527      6530
      6526      6524      6527      6528      6526      6524      6527      6529
      6526      6524      6527      6530      6527      6530      6533      6534
      6527      6530      6533      6535      6527      6530      6533      6536
      6528      6527      6530      6531      6528      6527      6530      6532
      6528      6527      6530      6533      6529      6527      6530      6531
      6529      6527      6530      6532      6529      6527      6530      6533
      6530      6533      6536      6537      6530      6533      6536      6538
      6530      6533      6536      6539      6531      6530      6533      6534
      6531      6530      6533      6535      6531      6530      6533      6536
      6532      6530      6533      6534      6532      6530      6533      6535
      6532      6530      6533      6536      6533      6536      6539      6540
      6533      6536      6539      6541      6533      6536      6539      6542
      6534      6533      6536      6537      6534      6533      6536      6538
      6534      6533      6536      6539      6535      6533      6536      6537
      6535      6533      6536      6538      6535      6533      6536      6539
      6536      6539      6542      6543      6536      6539      6542      6544
      6536      6539      6542      6545      6537      6536      6539      6540
      6537      6536      6539      6541      6537      6536      6539      6542
      6538      6536      6539      6540      6538      6536      6539      6541
      6538      6536      6539      6542      6539      6542      6545      6546
      6539      6542      6545      6547      6539      6542      6545      6548
      6540      6539      6542      6543      6540      6539      6542      6544
      6540      6539      6542      6545      6541      6539      6542      6543
      6541      6539      6542      6544      6541      6539      6542      6545
      6542      6545      6548      6549      6542      6545      6548      6550
      6542      6545      6548      6551      6543      6542      6545      6546
      6543      6542      6545      6547      6543      6542      6545      6548
      6544      6542      6545      6546      6544      6542      6545      6547
      6544      6542      6545      6548      6545      6548      6551      6552
      6545      6548      6551      6553      6545      6548      6551      6554
      6546      6545      6548      6549      6546      6545      6548      6550
      6546      6545      6548      6551      6547      6545      6548      6549
      6547      6545      6548      6550      6547      6545      6548      6551
      6548      6551      6554      6555      6548      6551      6554      6556
      6548      6551      6554      6557      6549      6548      6551      6552
      6549      6548      6551      6553      6549      6548      6551      6554
      6550      6548      6551      6552      6550      6548      6551      6553
      6550      6548      6551      6554      6551      6554      6557      6558
      6551      6554      6557      6559      6551      6554      6557      6560
      6552      6551      6554      6555      6552      6551      6554      6556
      6552      6551      6554      6557      6553      6551      6554      6555
      6553      6551      6554      6556      6553      6551      6554      6557
      6554      6557      6560      6561      6554      6557      6560      6562
      6554      6557      6560      6563      6555      6554      6557      6558
      6555      6554      6557      6559      6555      6554      6557      6560
      6556      6554      6557      6558      6556      6554      6557      6559
      6556      6554      6557      6560      6557      6560      6563      6564
      6557      6560      6563      6565      6557      6560      6563      6566
      6558      6557      6560      6561      6558      6557      6560      6562
      6558      6557      6560      6563      6559      6557      6560      6561
      6559      6557      6560      6562      6559      6557      6560      6563
      6561      6560      6563      6564      6561      6560      6563      6565
      6561      6560      6563      6566      6562      6560      6563      6564
      6562      6560      6563      6565      6562      6560      6563      6566
      6567      6568      6583      6584      6567      6568      6583      6585
      6567      6568      6583      6589      6568      6567      6571      6572
      6568      6567      6571      6573      6568      6567      6571      6574
      6568      6567      6575      6576      6568      6567      6575      6577
      6568      6567      6575      6578      6568      6567      6579      6580
      6568      6567      6579      6581      6568      6567      6579      6582
      6568      6583      6589      6586      6569      6568      6567      6571
      6569      6568      6567      6575      6569      6568      6567      6579
      6569      6568      6583      6584      6569      6568      6583      6585
      6569      6568      6583      6589      6570      6568      6567      6571
      6570      6568      6567      6575      6570      6568      6567      6579
      6570      6568      6583      6584      6570      6568      6583      6585
      6570      6568      6583      6589      6571      6567      6568      6583
      6571      6567      6575      6576      6571      6567      6575      6577
      6571      6567      6575      6578      6571      6567      6579      6580
      6571      6567      6579      6581      6571      6567      6579      6582
      6572      6571      6567      6575      6572      6571      6567      6579
      6573      6571      6567      6575      6573      6571      6567      6579
      6574      6571      6567      6575      6574      6571      6567      6579
      6575      6567      6568      6583      6575      6567      6579      6580
      6575      6567      6579      6581      6575      6567      6579      6582
      6576      6575      6567      6579      6577      6575      6567      6579
      6578      6575      6567      6579      6579      6567      6568      6583
      6583      6589      6586      6587      6583      6589      6586      6588
      6583      6589      6586      6590      6584      6583      6589      6586
      6585      6583      6589      6586      6586      6590      6591      6592
      6586      6590      6591      6593      6586      6590      6591      6594
      6587      6586      6590      6591      6588      6586      6590      6591
      6589      6586      6590      6591      6590      6591      6594      6595
      6590      6591      6594      6596      6590      6591      6594      6602
      6591      6594      6596      6597      6591      6594      6602      6603
      6591      6594      6602      6604      6591      6594      6602      6605
      6592      6591      6594      6595      6592      6591      6594      6596
      6592      6591      6594      6602      6593      6591      6594      6595
      6593      6591      6594      6596      6593      6591      6594      6602
      6594      6596      6597      6598      6594      6596      6597      6599
      6594      6602      6605      6606      6595      6594      6596      6597
      6595      6594      6602      6603      6595      6594      6602      6604
      6595      6594      6602      6605      6596      6594      6602      6603
      6596      6594      6602      6604      6596      6594      6602      6605
      6596      6597      6599      6600      6596      6597      6599      6601
      6596      6597      6599      6611      6597      6596      6594      6602
      6597      6599      6611      6612      6597      6599      6611      6613
      6597      6599      6611      6614      6598      6597      6599      6600
      6598      6597      6599      6601      6598      6597      6599      6611
      6599      6611      6614      6615      6599      6611      6614      6616
      6599      6611      6614      6617      6600      6599      6611      6612
      6600      6599      6611      6613      6600      6599      6611      6614
      6601      6599      6611      6612      6601      6599      6611      6613
      6601      6599      6611      6614      6602      6605      6606      6607
      6602      6605      6606      6608      6603      6602      6605      6606
      6604      6602      6605      6606      6605      6606      6608      6609
      6605      6606      6608      6610      6605      6606      6608      6658
      6606      6608      6658      6659      6606      6608      6658      6660
      6606      6608      6658      6661      6607      6606      6608      6609
      6607      6606      6608      6610      6607      6606      6608      6658
      6608      6658      6661      6662      6608      6658      6661      6663
      6608      6658      6661      6664      6609      6608      6658      6659
      6609      6608      6658      6660      6609      6608      6658      6661
      6610      6608      6658      6659      6610      6608      6658      6660
      6610      6608      6658      6661      6611      6614      6617      6618
      6611      6614      6617      6619      6611      6614      6617      6620
      6612      6611      6614      6615      6612      6611      6614      6616
      6612      6611      6614      6617      6613      6611      6614      6615
      6613      6611      6614      6616      6613      6611      6614      6617
      6614      6617      6620      6621      6614      6617      6620      6622
      6614      6617      6620      6623      6615      6614      6617      6618
      6615      6614      6617      6619      6615      6614      6617      6620
      6616      6614      6617      6618      6616      6614      6617      6619
      6616      6614      6617      6620      6617      6620      6623      6624
      6617      6620      6623      6625      6617      6620      6623      6626
      6618      6617      6620      6621      6618      6617      6620      6622
      6618      6617      6620      6623      6619      6617      6620      6621
      6619      6617      6620      6622      6619      6617      6620      6623
      6620      6623      6626      6627      6620      6623      6626      6628
      6620      6623      6626      6629      6621      6620      6623      6624
      6621      6620      6623      6625      6621      6620      6623      6626
      6622      6620      6623      6624      6622      6620      6623      6625
      6622      6620      6623      6626      6623      6626      6629      6630
      6623      6626      6629      6631      6624      6623      6626      6627
      6624      6623      6626      6628      6624      6623      6626      6629
      6625      6623      6626      6627      6625      6623      6626      6628
      6625      6623      6626      6629      6626      6629      6631      6632
      6626      6629      6631      6633      6627      6626      6629      6630
      6627      6626      6629      6631      6628      6626      6629      6630
      6628      6626      6629      6631      6629      6631      6633      6634
      6629      6631      6633      6635      6629      6631      6633      6636
      6630      6629      6631      6632      6630      6629      6631      6633
      6631      6633      6636      6637      6631      6633      6636      6638
      6631      6633      6636      6639      6632      6631      6633      6634
      6632      6631      6633      6635      6632      6631      6633      6636
      6633      6636      6639      6640      6633      6636      6639      6641
      6633      6636      6639      6642      6634      6633      6636      6637
      6634      6633      6636      6638      6634      6633      6636      6639
      6635      6633      6636      6637      6635      6633      6636      6638
      6635      6633      6636      6639      6636      6639      6642      6643
      6636      6639      6642      6644      6636      6639      6642      6645
      6637      6636      6639      6640      6637      6636      6639      6641
      6637      6636      6639      6642      6638      6636      6639      6640
      6638      6636      6639      6641      6638      6636      6639      6642
      6639      6642      6645      6646      6639      6642      6645      6647
      6639      6642      6645      6648      6640      6639      6642      6643
      6640      6639      6642      6644      6640      6639      6642      6645
      6641      6639      6642      6643      6641      6639      6642      6644
      6641      6639      6642      6645      6642      6645      6648      6649
      6642      6645      6648      6650      6642      6645      6648      6651
      6643      6642      6645      6646      6643      6642      6645      6647
      6643      6642      6645      6648      6644      6642      6645      6646
      6644      6642      6645      6647      6644      6642      6645      6648
      6645      6648      6651      6652      6645      6648      6651      6653
      6645      6648      6651      6654      6646      6645      6648      6649
      6646      6645      6648      6650      6646      6645      6648      6651
      6647      6645      6648      6649      6647      6645      6648      6650
      6647      6645      6648      6651      6648      6651      6654      6655
      6648      6651      6654      6656      6648      6651      6654      6657
      6649      6648      6651      6652      6649      6648      6651      6653
      6649      6648      6651      6654      6650      6648      6651      6652
      6650      6648      6651      6653      6650      6648      6651      6654
      6652      6651      6654      6655      6652      6651      6654      6656
      6652      6651      6654      6657      6653      6651      6654      6655
      6653      6651      6654      6656      6653      6651      6654      6657
      6658      6661      6664      6665      6658      6661      6664      6666
      6658      6661      6664      6667      6659      6658      6661      6662
      6659      6658      6661      6663      6659      6658      6661      6664
      6660      6658      6661      6662      6660      6658      6661      6663
      6660      6658      6661      6664      6661      6664      6667      6668
      6661      6664      6667      6669      6661      6664      6667      6670
      6662      6661      6664      6665      6662      6661      6664      6666
      6662      6661      6664      6667      6663      6661      6664      6665
      6663      6661      6664      6666      6663      6661      6664      6667
      6664      6667      6670      6671      6664      6667      6670      6672
      6664      6667      6670      6673      6665      6664      6667      6668
      6665      6664      6667      6669      6665      6664      6667      6670
      6666      6664      6667      6668      6666      6664      6667      6669
      6666      6664      6667      6670      6667      6670      6673      6674
      6667      6670      6673      6675      6667      6670      6673      6676
      6668      6667      6670      6671      6668      6667      6670      6672
      6668      6667      6670      6673      6669      6667      6670      6671
      6669      6667      6670      6672      6669      6667      6670      6673
      6670      6673      6676      6677      6670      6673      6676      6678
      6670      6673      6676      6679      6671      6670      6673      6674
      6671      6670      6673      6675      6671      6670      6673      6676
      6672      6670      6673      6674      6672      6670      6673      6675
      6672      6670      6673      6676      6673      6676      6679      6680
      6673      6676      6679      6681      6673      6676      6679      6682
      6674      6673      6676      6677      6674      6673      6676      6678
      6674      6673      6676      6679      6675      6673      6676      6677
      6675      6673      6676      6678      6675      6673      6676      6679
      6676      6679      6682      6683      6676      6679      6682      6684
      6676      6679      6682      6685      6677      6676      6679      6680
      6677      6676      6679      6681      6677      6676      6679      6682
      6678      6676      6679      6680      6678      6676      6679      6681
      6678      6676      6679      6682      6679      6682      6685      6686
      6679      6682      6685      6687      6679      6682      6685      6688
      6680      6679      6682      6683      6680      6679      6682      6684
      6680      6679      6682      6685      6681      6679      6682      6683
      6681      6679      6682      6684      6681      6679      6682      6685
      6682      6685      6688      6689      6682      6685      6688      6690
      6682      6685      6688      6691      6683      6682      6685      6686
      6683      6682      6685      6687      6683      6682      6685      6688
      6684      6682      6685      6686      6684      6682      6685      6687
      6684      6682      6685      6688      6685      6688      6691      6692
      6685      6688      6691      6693      6685      6688      6691      6694
      6686      6685      6688      6689      6686      6685      6688      6690
      6686      6685      6688      6691      6687      6685      6688      6689
      6687      6685      6688      6690      6687      6685      6688      6691
      6688      6691      6694      6695      6688      6691      6694      6696
      6688      6691      6694      6697      6689      6688      6691      6692
      6689      6688      6691      6693      6689      6688      6691      6694
      6690      6688      6691      6692      6690      6688      6691      6693
      6690      6688      6691      6694      6691      6694      6697      6698
      6691      6694      6697      6699      6691      6694      6697      6700
      6692      6691      6694      6695      6692      6691      6694      6696
      6692      6691      6694      6697      6693      6691      6694      6695
      6693      6691      6694      6696      6693      6691      6694      6697
      6695      6694      6697      6698      6695      6694      6697      6699
      6695      6694      6697      6700      6696      6694      6697      6698
      6696      6694      6697      6699      6696      6694      6697      6700
      6701      6702      6717      6718      6701      6702      6717      6719
      6701      6702      6717      6723      6702      6701      6705      6706
      6702      6701      6705      6707      6702      6701      6705      6708
      6702      6701      6709      6710      6702      6701      6709      6711
      6702      6701      6709      6712      6702      6701      6713      6714
      6702      6701      6713      6715      6702      6701      6713      6716
      6702      6717      6723      6720      6703      6702      6701      6705
      6703      6702      6701      6709      6703      6702      6701      6713
      6703      6702      6717      6718      6703      6702      6717      6719
      6703      6702      6717      6723      6704      6702      6701      6705
      6704      6702      6701      6709      6704      6702      6701      6713
      6704      6702      6717      6718      6704      6702      6717      6719
      6704      6702      6717      6723      6705      6701      6702      6717
      6705      6701      6709      6710      6705      6701      6709      6711
      6705      6701      6709      6712      6705      6701      6713      6714
      6705      6701      6713      6715      6705      6701      6713      6716
      6706      6705      6701      6709      6706      6705      6701      6713
      6707      6705      6701      6709      6707      6705      6701      6713
      6708      6705      6701      6709      6708      6705      6701      6713
      6709      6701      6702      6717      6709      6701      6713      6714
      6709      6701      6713      6715      6709      6701      6713      6716
      6710      6709      6701      6713      6711      6709      6701      6713
      6712      6709      6701      6713      6713      6701      6702      6717
      6717      6723      6720      6721      6717      6723      6720      6722
      6717      6723      6720      6724      6718      6717      6723      6720
      6719      6717      6723      6720      6720      6724      6725      6726
      6720      6724      6725      6727      6720      6724      6725      6728
      6721      6720      6724      6725      6722      6720      6724      6725
      6723      6720      6724      6725      6724      6725      6728      6729
      6724      6725      6728      6730      6724      6725      6728      6736
      6725      6728      6730      6731      6725      6728      6736      6737
      6725      6728      6736      6738      6725      6728      6736      6739
      6726      6725      6728      6729      6726      6725      6728      6730
      6726      6725      6728      6736      6727      6725      6728      6729
      6727      6725      6728      6730      6727      6725      6728      6736
      6728      6730      6731      6732      6728      6730      6731      6733
      6728      6736      6739      6740      6729      6728      6730      6731
      6729      6728      6736      6737      6729      6728      6736      6738
      6729      6728      6736      6739      6730      6728      6736      6737
      6730      6728      6736      6738      6730      6728      6736      6739
      6730      6731      6733      6734      6730      6731      6733      6735
      6730      6731      6733      6745      6731      6730      6728      6736
      6731      6733      6745      6746      6731      6733      6745      6747
      6731      6733      6745      6748      6732      6731      6733      6734
      6732      6731      6733      6735      6732      6731      6733      6745
      6733      6745      6748      6749      6733      6745      6748      6750
      6733      6745      6748      6751      6734      6733      6745      6746
      6734      6733      6745      6747      6734      6733      6745      6748
      6735      6733      6745      6746      6735      6733      6745      6747
      6735      6733      6745      6748      6736      6739      6740      6741
      6736      6739      6740      6742      6737      6736      6739      6740
      6738      6736      6739      6740      6739      6740      6742      6743
      6739      6740      6742      6744      6739      6740      6742      6792
      6740      6742      6792      6793      6740      6742      6792      6794
      6740      6742      6792      6795      6741      6740      6742      6743
      6741      6740      6742      6744      6741      6740      6742      6792
      6742      6792      6795      6796      6742      6792      6795      6797
      6742      6792      6795      6798      6743      6742      6792      6793
      6743      6742      6792      6794      6743      6742      6792      6795
      6744      6742      6792      6793      6744      6742      6792      6794
      6744      6742      6792      6795      6745      6748      6751      6752
      6745      6748      6751      6753      6745      6748      6751      6754
      6746      6745      6748      6749      6746      6745      6748      6750
      6746      6745      6748      6751      6747      6745      6748      6749
      6747      6745      6748      6750      6747      6745      6748      6751
      6748      6751      6754      6755      6748      6751      6754      6756
      6748      6751      6754      6757      6749      6748      6751      6752
      6749      6748      6751      6753      6749      6748      6751      6754
      6750      6748      6751      6752      6750      6748      6751      6753
      6750      6748      6751      6754      6751      6754      6757      6758
      6751      6754      6757      6759      6751      6754      6757      6760
      6752      6751      6754      6755      6752      6751      6754      6756
      6752      6751      6754      6757      6753      6751      6754      6755
      6753      6751      6754      6756      6753      6751      6754      6757
      6754      6757      6760      6761      6754      6757      6760      6762
      6754      6757      6760      6763      6755      6754      6757      6758
      6755      6754      6757      6759      6755      6754      6757      6760
      6756      6754      6757      6758      6756      6754      6757      6759
      6756      6754      6757      6760      6757      6760      6763      6764
      6757      6760      6763      6765      6758      6757      6760      6761
      6758      6757      6760      6762      6758      6757      6760      6763
      6759      6757      6760      6761      6759      6757      6760      6762
      6759      6757      6760      6763      6760      6763      6765      6766
      6760      6763      6765      6767      6761      6760      6763      6764
      6761      6760      6763      6765      6762      6760      6763      6764
      6762      6760      6763      6765      6763      6765      6767      6768
      6763      6765      6767      6769      6763      6765      6767      6770
      6764      6763      6765      6766      6764      6763      6765      6767
      6765      6767      6770      6771      6765      6767      6770      6772
      6765      6767      6770      6773      6766      6765      6767      6768
      6766      6765      6767      6769      6766      6765      6767      6770
      6767      6770      6773      6774      6767      6770      6773      6775
      6767      6770      6773      6776      6768      6767      6770      6771
      6768      6767      6770      6772      6768      6767      6770      6773
      6769      6767      6770      6771      6769      6767      6770      6772
      6769      6767      6770      6773      6770      6773      6776      6777
      6770      6773      6776      6778      6770      6773      6776      6779
      6771      6770      6773      6774      6771      6770      6773      6775
      6771      6770      6773      6776      6772      6770      6773      6774
      6772      6770      6773      6775      6772      6770      6773      6776
      6773      6776      6779      6780      6773      6776      6779      6781
      6773      6776      6779      6782      6774      6773      6776      6777
      6774      6773      6776      6778      6774      6773      6776      6779
      6775      6773      6776      6777      6775      6773      6776      6778
      6775      6773      6776      6779      6776      6779      6782      6783
      6776      6779      6782      6784      6776      6779      6782      6785
      6777      6776      6779      6780      6777      6776      6779      6781
      6777      6776      6779      6782      6778      6776      6779      6780
      6778      6776      6779      6781      6778      6776      6779      6782
      6779      6782      6785      6786      6779      6782      6785      6787
      6779      6782      6785      6788      6780      6779      6782      6783
      6780      6779      6782      6784      6780      6779      6782      6785
      6781      6779      6782      6783      6781      6779      6782      6784
      6781      6779      6782      6785      6782      6785      6788      6789
      6782      6785      6788      6790      6782      6785      6788      6791
      6783      6782      6785      6786      6783      6782      6785      6787
      6783      6782      6785      6788      6784      6782      6785      6786
      6784      6782      6785      6787      6784      6782      6785      6788
      6786      6785      6788      6789      6786      6785      6788      6790
      6786      6785      6788      6791      6787      6785      6788      6789
      6787      6785      6788      6790      6787      6785      6788      6791
      6792      6795      6798      6799      6792      6795      6798      6800
      6792      6795      6798      6801      6793      6792      6795      6796
      6793      6792      6795      6797      6793      6792      6795      6798
      6794      6792      6795      6796      6794      6792      6795      6797
      6794      6792      6795      6798      6795      6798      6801      6802
      6795      6798      6801      6803      6795      6798      6801      6804
      6796      6795      6798      6799      6796      6795      6798      6800
      6796      6795      6798      6801      6797      6795      6798      6799
      6797      6795      6798      6800      6797      6795      6798      6801
      6798      6801      6804      6805      6798      6801      6804      6806
      6798      6801      6804      6807      6799      6798      6801      6802
      6799      6798      6801      6803      6799      6798      6801      6804
      6800      6798      6801      6802      6800      6798      6801      6803
      6800      6798      6801      6804      6801      6804      6807      6808
      6801      6804      6807      6809      6801      6804      6807      6810
      6802      6801      6804      6805      6802      6801      6804      6806
      6802      6801      6804      6807      6803      6801      6804      6805
      6803      6801      6804      6806      6803      6801      6804      6807
      6804      6807      6810      6811      6804      6807      6810      6812
      6804      6807      6810      6813      6805      6804      6807      6808
      6805      6804      6807      6809      6805      6804      6807      6810
      6806      6804      6807      6808      6806      6804      6807      6809
      6806      6804      6807      6810      6807      6810      6813      6814
      6807      6810      6813      6815      6807      6810      6813      6816
      6808      6807      6810      6811      6808      6807      6810      6812
      6808      6807      6810      6813      6809      6807      6810      6811
      6809      6807      6810      6812      6809      6807      6810      6813
      6810      6813      6816      6817      6810      6813      6816      6818
      6810      6813      6816      6819      6811      6810      6813      6814
      6811      6810      6813      6815      6811      6810      6813      6816
      6812      6810      6813      6814      6812      6810      6813      6815
      6812      6810      6813      6816      6813      6816      6819      6820
      6813      6816      6819      6821      6813      6816      6819      6822
      6814      6813      6816      6817      6814      6813      6816      6818
      6814      6813      6816      6819      6815      6813      6816      6817
      6815      6813      6816      6818      6815      6813      6816      6819
      6816      6819      6822      6823      6816      6819      6822      6824
      6816      6819      6822      6825      6817      6816      6819      6820
      6817      6816      6819      6821      6817      6816      6819      6822
      6818      6816      6819      6820      6818      6816      6819      6821
      6818      6816      6819      6822      6819      6822      6825      6826
      6819      6822      6825      6827      6819      6822      6825      6828
      6820      6819      6822      6823      6820      6819      6822      6824
      6820      6819      6822      6825      6821      6819      6822      6823
      6821      6819      6822      6824      6821      6819      6822      6825
      6822      6825      6828      6829      6822      6825      6828      6830
      6822      6825      6828      6831      6823      6822      6825      6826
      6823      6822      6825      6827      6823      6822      6825      6828
      6824      6822      6825      6826      6824      6822      6825      6827
      6824      6822      6825      6828      6825      6828      6831      6832
      6825      6828      6831      6833      6825      6828      6831      6834
      6826      6825      6828      6829      6826      6825      6828      6830
      6826      6825      6828      6831      6827      6825      6828      6829
      6827      6825      6828      6830      6827      6825      6828      6831
      6829      6828      6831      6832      6829      6828      6831      6833
      6829      6828      6831      6834      6830      6828      6831      6832
      6830      6828      6831      6833      6830      6828      6831      6834
      6835      6836      6851      6852      6835      6836      6851      6853
      6835      6836      6851      6857      6836      6835      6839      6840
      6836      6835      6839      6841      6836      6835      6839      6842
      6836      6835      6843      6844      6836      6835      6843      6845
      6836      6835      6843      6846      6836      6835      6847      6848
      6836      6835      6847      6849      6836      6835      6847      6850
      6836      6851      6857      6854      6837      6836      6835      6839
      6837      6836      6835      6843      6837      6836      6835      6847
      6837      6836      6851      6852      6837      6836      6851      6853
      6837      6836      6851      6857      6838      6836      6835      6839
      6838      6836      6835      6843      6838      6836      6835      6847
      6838      6836      6851      6852      6838      6836      6851      6853
      6838      6836      6851      6857      6839      6835      6836      6851
      6839      6835      6843      6844      6839      6835      6843      6845
      6839      6835      6843      6846      6839      6835      6847      6848
      6839      6835      6847      6849      6839      6835      6847      6850
      6840      6839      6835      6843      6840      6839      6835      6847
      6841      6839      6835      6843      6841      6839      6835      6847
      6842      6839      6835      6843      6842      6839      6835      6847
      6843      6835      6836      6851      6843      6835      6847      6848
      6843      6835      6847      6849      6843      6835      6847      6850
      6844      6843      6835      6847      6845      6843      6835      6847
      6846      6843      6835      6847      6847      6835      6836      6851
      6851      6857      6854      6855      6851      6857      6854      6856
      6851      6857      6854      6858      6852      6851      6857      6854
      6853      6851      6857      6854      6854      6858      6859      6860
      6854      6858      6859      6861      6854      6858      6859      6862
      6855      6854      6858      6859      6856      6854      6858      6859
      6857      6854      6858      6859      6858      6859      6862      6863
      6858      6859      6862      6864      6858      6859      6862      6870
      6859      6862      6864      6865      6859      6862      6870      6871
      6859      6862      6870      6872      6859      6862      6870      6873
      6860      6859      6862      6863      6860      6859      6862      6864
      6860      6859      6862      6870      6861      6859      6862      6863
      6861      6859      6862      6864      6861      6859      6862      6870
      6862      6864      6865      6866      6862      6864      6865      6867
      6862      6870      6873      6874      6863      6862      6864      6865
      6863      6862      6870      6871      6863      6862      6870      6872
      6863      6862      6870      6873      6864      6862      6870      6871
      6864      6862      6870      6872      6864      6862      6870      6873
      6864      6865      6867      6868      6864      6865      6867      6869
      6864      6865      6867      6879      6865      6864      6862      6870
      6865      6867      6879      6880      6865      6867      6879      6881
      6865      6867      6879      6882      6866      6865      6867      6868
      6866      6865      6867      6869      6866      6865      6867      6879
      6867      6879      6882      6883      6867      6879      6882      6884
      6867      6879      6882      6885      6868      6867      6879      6880
      6868      6867      6879      6881      6868      6867      6879      6882
      6869      6867      6879      6880      6869      6867      6879      6881
      6869      6867      6879      6882      6870      6873      6874      6875
      6870      6873      6874      6876      6871      6870      6873      6874
      6872      6870      6873      6874      6873      6874      6876      6877
      6873      6874      6876      6878      6873      6874      6876      6926
      6874      6876      6926      6927      6874      6876      6926      6928
      6874      6876      6926      6929      6875      6874      6876      6877
      6875      6874      6876      6878      6875      6874      6876      6926
      6876      6926      6929      6930      6876      6926      6929      6931
      6876      6926      6929      6932      6877      6876      6926      6927
      6877      6876      6926      6928      6877      6876      6926      6929
      6878      6876      6926      6927      6878      6876      6926      6928
      6878      6876      6926      6929      6879      6882      6885      6886
      6879      6882      6885      6887      6879      6882      6885      6888
      6880      6879      6882      6883      6880      6879      6882      6884
      6880      6879      6882      6885      6881      6879      6882      6883
      6881      6879      6882      6884      6881      6879      6882      6885
      6882      6885      6888      6889      6882      6885      6888      6890
      6882      6885      6888      6891      6883      6882      6885      6886
      6883      6882      6885      6887      6883      6882      6885      6888
      6884      6882      6885      6886      6884      6882      6885      6887
      6884      6882      6885      6888      6885      6888      6891      6892
      6885      6888      6891      6893      6885      6888      6891      6894
      6886      6885      6888      6889      6886      6885      6888      6890
      6886      6885      6888      6891      6887      6885      6888      6889
      6887      6885      6888      6890      6887      6885      6888      6891
      6888      6891      6894      6895      6888      6891      6894      6896
      6888      6891      6894      6897      6889      6888      6891      6892
      6889      6888      6891      6893      6889      6888      6891      6894
      6890      6888      6891      6892      6890      6888      6891      6893
      6890      6888      6891      6894      6891      6894      6897      6898
      6891      6894      6897      6899      6892      6891      6894      6895
      6892      6891      6894      6896      6892      6891      6894      6897
      6893      6891      6894      6895      6893      6891      6894      6896
      6893      6891      6894      6897      6894      6897      6899      6900
      6894      6897      6899      6901      6895      6894      6897      6898
      6895      6894      6897      6899      6896      6894      6897      6898
      6896      6894      6897      6899      6897      6899      6901      6902
      6897      6899      6901      6903      6897      6899      6901      6904
      6898      6897      6899      6900      6898      6897      6899      6901
      6899      6901      6904      6905      6899      6901      6904      6906
      6899      6901      6904      6907      6900      6899      6901      6902
      6900      6899      6901      6903      6900      6899      6901      6904
      6901      6904      6907      6908      6901      6904      6907      6909
      6901      6904      6907      6910      6902      6901      6904      6905
      6902      6901      6904      6906      6902      6901      6904      6907
      6903      6901      6904      6905      6903      6901      6904      6906
      6903      6901      6904      6907      6904      6907      6910      6911
      6904      6907      6910      6912      6904      6907      6910      6913
      6905      6904      6907      6908      6905      6904      6907      6909
      6905      6904      6907      6910      6906      6904      6907      6908
      6906      6904      6907      6909      6906      6904      6907      6910
      6907      6910      6913      6914      6907      6910      6913      6915
      6907      6910      6913      6916      6908      6907      6910      6911
      6908      6907      6910      6912      6908      6907      6910      6913
      6909      6907      6910      6911      6909      6907      6910      6912
      6909      6907      6910      6913      6910      6913      6916      6917
      6910      6913      6916      6918      6910      6913      6916      6919
      6911      6910      6913      6914      6911      6910      6913      6915
      6911      6910      6913      6916      6912      6910      6913      6914
      6912      6910      6913      6915      6912      6910      6913      6916
      6913      6916      6919      6920      6913      6916      6919      6921
      6913      6916      6919      6922      6914      6913      6916      6917
      6914      6913      6916      6918      6914      6913      6916      6919
      6915      6913      6916      6917      6915      6913      6916      6918
      6915      6913      6916      6919      6916      6919      6922      6923
      6916      6919      6922      6924      6916      6919      6922      6925
      6917      6916      6919      6920      6917      6916      6919      6921
      6917      6916      6919      6922      6918      6916      6919      6920
      6918      6916      6919      6921      6918      6916      6919      6922
      6920      6919      6922      6923      6920      6919      6922      6924
      6920      6919      6922      6925      6921      6919      6922      6923
      6921      6919      6922      6924      6921      6919      6922      6925
      6926      6929      6932      6933      6926      6929      6932      6934
      6926      6929      6932      6935      6927      6926      6929      6930
      6927      6926      6929      6931      6927      6926      6929      6932
      6928      6926      6929      6930      6928      6926      6929      6931
      6928      6926      6929      6932      6929      6932      6935      6936
      6929      6932      6935      6937      6929      6932      6935      6938
      6930      6929      6932      6933      6930      6929      6932      6934
      6930      6929      6932      6935      6931      6929      6932      6933
      6931      6929      6932      6934      6931      6929      6932      6935
      6932      6935      6938      6939      6932      6935      6938      6940
      6932      6935      6938      6941      6933      6932      6935      6936
      6933      6932      6935      6937      6933      6932      6935      6938
      6934      6932      6935      6936      6934      6932      6935      6937
      6934      6932      6935      6938      6935      6938      6941      6942
      6935      6938      6941      6943      6935      6938      6941      6944
      6936      6935      6938      6939      6936      6935      6938      6940
      6936      6935      6938      6941      6937      6935      6938      6939
      6937      6935      6938      6940      6937      6935      6938      6941
      6938      6941      6944      6945      6938      6941      6944      6946
      6938      6941      6944      6947      6939      6938      6941      6942
      6939      6938      6941      6943      6939      6938      6941      6944
      6940      6938      6941      6942      6940      6938      6941      6943
      6940      6938      6941      6944      6941      6944      6947      6948
      6941      6944      6947      6949      6941      6944      6947      6950
      6942      6941      6944      6945      6942      6941      6944      6946
      6942      6941      6944      6947      6943      6941      6944      6945
      6943      6941      6944      6946      6943      6941      6944      6947
      6944      6947      6950      6951      6944      6947      6950      6952
      6944      6947      6950      6953      6945      6944      6947      6948
      6945      6944      6947      6949      6945      6944      6947      6950
      6946      6944      6947      6948      6946      6944      6947      6949
      6946      6944      6947      6950      6947      6950      6953      6954
      6947      6950      6953      6955      6947      6950      6953      6956
      6948      6947      6950      6951      6948      6947      6950      6952
      6948      6947      6950      6953      6949      6947      6950      6951
      6949      6947      6950      6952      6949      6947      6950      6953
      6950      6953      6956      6957      6950      6953      6956      6958
      6950      6953      6956      6959      6951      6950      6953      6954
      6951      6950      6953      6955      6951      6950      6953      6956
      6952      6950      6953      6954      6952      6950      6953      6955
      6952      6950      6953      6956      6953      6956      6959      6960
      6953      6956      6959      6961      6953      6956      6959      6962
      6954      6953      6956      6957      6954      6953      6956      6958
      6954      6953      6956      6959      6955      6953      6956      6957
      6955      6953      6956      6958      6955      6953      6956      6959
      6956      6959      6962      6963      6956      6959      6962      6964
      6956      6959      6962      6965      6957      6956      6959      6960
      6957      6956      6959      6961      6957      6956      6959      6962
      6958      6956      6959      6960      6958      6956      6959      6961
      6958      6956      6959      6962      6959      6962      6965      6966
      6959      6962      6965      6967      6959      6962      6965      6968
      6960      6959      6962      6963      6960      6959      6962      6964
      6960      6959      6962      6965      6961      6959      6962      6963
      6961      6959      6962      6964      6961      6959      6962      6965
      6963      6962      6965      6966      6963      6962      6965      6967
      6963      6962      6965      6968      6964      6962      6965      6966
      6964      6962      6965      6967      6964      6962      6965      6968
      6969      6970      6985      6986      6969      6970      6985      6987
      6969      6970      6985      6991      6970      6969      6973      6974
      6970      6969      6973      6975      6970      6969      6973      6976
      6970      6969      6977      6978      6970      6969      6977      6979
      6970      6969      6977      6980      6970      6969      6981      6982
      6970      6969      6981      6983      6970      6969      6981      6984
      6970      6985      6991      6988      6971      6970      6969      6973
      6971      6970      6969      6977      6971      6970      6969      6981
      6971      6970      6985      6986      6971      6970      6985      6987
      6971      6970      6985      6991      6972      6970      6969      6973
      6972      6970      6969      6977      6972      6970      6969      6981
      6972      6970      6985      6986      6972      6970      6985      6987
      6972      6970      6985      6991      6973      6969      6970      6985
      6973      6969      6977      6978      6973      6969      6977      6979
      6973      6969      6977      6980      6973      6969      6981      6982
      6973      6969      6981      6983      6973      6969      6981      6984
      6974      6973      6969      6977      6974      6973      6969      6981
      6975      6973      6969      6977      6975      6973      6969      6981
      6976      6973      6969      6977      6976      6973      6969      6981
      6977      6969      6970      6985      6977      6969      6981      6982
      6977      6969      6981      6983      6977      6969      6981      6984
      6978      6977      6969      6981      6979      6977      6969      6981
      6980      6977      6969      6981      6981      6969      6970      6985
      6985      6991      6988      6989      6985      6991      6988      6990
      6985      6991      6988      6992      6986      6985      6991      6988
      6987      6985      6991      6988      6988      6992      6993      6994
      6988      6992      6993      6995      6988      6992      6993      6996
      6989      6988      6992      6993      6990      6988      6992      6993
      6991      6988      6992      6993      6992      6993      6996      6997
      6992      6993      6996      6998      6992      6993      6996      7004
      6993      6996      6998      6999      6993      6996      7004      7005
      6993      6996      7004      7006      6993      6996      7004      7007
      6994      6993      6996      6997      6994      6993      6996      6998
      6994      6993      6996      7004      6995      6993      6996      6997
      6995      6993      6996      6998      6995      6993      6996      7004
      6996      6998      6999      7000      6996      6998      6999      7001
      6996      7004      7007      7008      6997      6996      6998      6999
      6997      6996      7004      7005      6997      6996      7004      7006
      6997      6996      7004      7007      6998      6996      7004      7005
      6998      6996      7004      7006      6998      6996      7004      7007
      6998      6999      7001      7002      6998      6999      7001      7003
      6998      6999      7001      7013      6999      6998      6996      7004
      6999      7001      7013      7014      6999      7001      7013      7015
      6999      7001      7013      7016      7000      6999      7001      7002
      7000      6999      7001      7003      7000      6999      7001      7013
      7001      7013      7016      7017      7001      7013      7016      7018
      7001      7013      7016      7019      7002      7001      7013      7014
      7002      7001      7013      7015      7002      7001      7013      7016
      7003      7001      7013      7014      7003      7001      7013      7015
      7003      7001      7013      7016      7004      7007      7008      7009
      7004      7007      7008      7010      7005      7004      7007      7008
      7006      7004      7007      7008      7007      7008      7010      7011
      7007      7008      7010      7012      7007      7008      7010      7060
      7008      7010      7060      7061      7008      7010      7060      7062
      7008      7010      7060      7063      7009      7008      7010      7011
      7009      7008      7010      7012      7009      7008      7010      7060
      7010      7060      7063      7064      7010      7060      7063      7065
      7010      7060      7063      7066      7011      7010      7060      7061
      7011      7010      7060      7062      7011      7010      7060      7063
      7012      7010      7060      7061      7012      7010      7060      7062
      7012      7010      7060      7063      7013      7016      7019      7020
      7013      7016      7019      7021      7013      7016      7019      7022
      7014      7013      7016      7017      7014      7013      7016      7018
      7014      7013      7016      7019      7015      7013      7016      7017
      7015      7013      7016      7018      7015      7013      7016      7019
      7016      7019      7022      7023      7016      7019      7022      7024
      7016      7019      7022      7025      7017      7016      7019      7020
      7017      7016      7019      7021      7017      7016      7019      7022
      7018      7016      7019      7020      7018      7016      7019      7021
      7018      7016      7019      7022      7019      7022      7025      7026
      7019      7022      7025      7027      7019      7022      7025      7028
      7020      7019      7022      7023      7020      7019      7022      7024
      7020      7019      7022      7025      7021      7019      7022      7023
      7021      7019      7022      7024      7021      7019      7022      7025
      7022      7025      7028      7029      7022      7025      7028      7030
      7022      7025      7028      7031      7023      7022      7025      7026
      7023      7022      7025      7027      7023      7022      7025      7028
      7024      7022      7025      7026      7024      7022      7025      7027
      7024      7022      7025      7028      7025      7028      7031      7032
      7025      7028      7031      7033      7026      7025      7028      7029
      7026      7025      7028      7030      7026      7025      7028      7031
      7027      7025      7028      7029      7027      7025      7028      7030
      7027      7025      7028      7031      7028      7031      7033      7034
      7028      7031      7033      7035      7029      7028      7031      7032
      7029      7028      7031      7033      7030      7028      7031      7032
      7030      7028      7031      7033      7031      7033      7035      7036
      7031      7033      7035      7037      7031      7033      7035      7038
      7032      7031      7033      7034      7032      7031      7033      7035
      7033      7035      7038      7039      7033      7035      7038      7040
      7033      7035      7038      7041      7034      7033      7035      7036
      7034      7033      7035      7037      7034      7033      7035      7038
      7035      7038      7041      7042      7035      7038      7041      7043
      7035      7038      7041      7044      7036      7035      7038      7039
      7036      7035      7038      7040      7036      7035      7038      7041
      7037      7035      7038      7039      7037      7035      7038      7040
      7037      7035      7038      7041      7038      7041      7044      7045
      7038      7041      7044      7046      7038      7041      7044      7047
      7039      7038      7041      7042      7039      7038      7041      7043
      7039      7038      7041      7044      7040      7038      7041      7042
      7040      7038      7041      7043      7040      7038      7041      7044
      7041      7044      7047      7048      7041      7044      7047      7049
      7041      7044      7047      7050      7042      7041      7044      7045
      7042      7041      7044      7046      7042      7041      7044      7047
      7043      7041      7044      7045      7043      7041      7044      7046
      7043      7041      7044      7047      7044      7047      7050      7051
      7044      7047      7050      7052      7044      7047      7050      7053
      7045      7044      7047      7048      7045      7044      7047      7049
      7045      7044      7047      7050      7046      7044      7047      7048
      7046      7044      7047      7049      7046      7044      7047      7050
      7047      7050      7053      7054      7047      7050      7053      7055
      7047      7050      7053      7056      7048      7047      7050      7051
      7048      7047      7050      7052      7048      7047      7050      7053
      7049      7047      7050      7051      7049      7047      7050      7052
      7049      7047      7050      7053      7050      7053      7056      7057
      7050      7053      7056      7058      7050      7053      7056      7059
      7051      7050      7053      7054      7051      7050      7053      7055
      7051      7050      7053      7056      7052      7050      7053      7054
      7052      7050      7053      7055      7052      7050      7053      7056
      7054      7053      7056      7057      7054      7053      7056      7058
      7054      7053      7056      7059      7055      7053      7056      7057
      7055      7053      7056      7058      7055      7053      7056      7059
      7060      7063      7066      7067      7060      7063      7066      7068
      7060      7063      7066      7069      7061      7060      7063      7064
      7061      7060      7063      7065      7061      7060      7063      7066
      7062      7060      7063      7064      7062      7060      7063      7065
      7062      7060      7063      7066      7063      7066      7069      7070
      7063      7066      7069      7071      7063      7066      7069      7072
      7064      7063      7066      7067      7064      7063      7066      7068
      7064      7063      7066      7069      7065      7063      7066      7067
      7065      7063      7066      7068      7065      7063      7066      7069
      7066      7069      7072      7073      7066      7069      7072      7074
      7066      7069      7072      7075      7067      7066      7069      7070
      7067      7066      7069      7071      7067      7066      7069      7072
      7068      7066      7069      7070      7068      7066      7069      7071
      7068      7066      7069      7072      7069      7072      7075      7076
      7069      7072      7075      7077      7069      7072      7075      7078
      7070      7069      7072      7073      7070      7069      7072      7074
      7070      7069      7072      7075      7071      7069      7072      7073
      7071      7069      7072      7074      7071      7069      7072      7075
      7072      7075      7078      7079      7072      7075      7078      7080
      7072      7075      7078      7081      7073      7072      7075      7076
      7073      7072      7075      7077      7073      7072      7075      7078
      7074      7072      7075      7076      7074      7072      7075      7077
      7074      7072      7075      7078      7075      7078      7081      7082
      7075      7078      7081      7083      7075      7078      7081      7084
      7076      7075      7078      7079      7076      7075      7078      7080
      7076      7075      7078      7081      7077      7075      7078      7079
      7077      7075      7078      7080      7077      7075      7078      7081
      7078      7081      7084      7085      7078      7081      7084      7086
      7078      7081      7084      7087      7079      7078      7081      7082
      7079      7078      7081      7083      7079      7078      7081      7084
      7080      7078      7081      7082      7080      7078      7081      7083
      7080      7078      7081      7084      7081      7084      7087      7088
      7081      7084      7087      7089      7081      7084      7087      7090
      7082      7081      7084      7085      7082      7081      7084      7086
      7082      7081      7084      7087      7083      7081      7084      7085
      7083      7081      7084      7086      7083      7081      7084      7087
      7084      7087      7090      7091      7084      7087      7090      7092
      7084      7087      7090      7093      7085      7084      7087      7088
      7085      7084      7087      7089      7085      7084      7087      7090
      7086      7084      7087      7088      7086      7084      7087      7089
      7086      7084      7087      7090      7087      7090      7093      7094
      7087      7090      7093      7095      7087      7090      7093      7096
      7088      7087      7090      7091      7088      7087      7090      7092
      7088      7087      7090      7093      7089      7087      7090      7091
      7089      7087      7090      7092      7089      7087      7090      7093
      7090      7093      7096      7097      7090      7093      7096      7098
      7090      7093      7096      7099      7091      7090      7093      7094
      7091      7090      7093      7095      7091      7090      7093      7096
      7092      7090      7093      7094      7092      7090      7093      7095
      7092      7090      7093      7096      7093      7096      7099      7100
      7093      7096      7099      7101      7093      7096      7099      7102
      7094      7093      7096      7097      7094      7093      7096      7098
      7094      7093      7096      7099      7095      7093      7096      7097
      7095      7093      7096      7098      7095      7093      7096      7099
      7097      7096      7099      7100      7097      7096      7099      7101
      7097      7096      7099      7102      7098      7096      7099      7100
      7098      7096      7099      7101      7098      7096      7099      7102
      7103      7104      7119      7120      7103      7104      7119      7121
      7103      7104      7119      7125      7104      7103      7107      7108
      7104      7103      7107      7109      7104      7103      7107      7110
      7104      7103      7111      7112      7104      7103      7111      7113
      7104      7103      7111      7114      7104      7103      7115      7116
      7104      7103      7115      7117      7104      7103      7115      7118
      7104      7119      7125      7122      7105      7104      7103      7107
      7105      7104      7103      7111      7105      7104      7103      7115
      7105      7104      7119      7120      7105      7104      7119      7121
      7105      7104      7119      7125      7106      7104      7103      7107
      7106      7104      7103      7111      7106      7104      7103      7115
      7106      7104      7119      7120      7106      7104      7119      7121
      7106      7104      7119      7125      7107      7103      7104      7119
      7107      7103      7111      7112      7107      7103      7111      7113
      7107      7103      7111      7114      7107      7103      7115      7116
      7107      7103      7115      7117      7107      7103      7115      7118
      7108      7107      7103      7111      7108      7107      7103      7115
      7109      7107      7103      7111      7109      7107      7103      7115
      7110      7107      7103      7111      7110      7107      7103      7115
      7111      7103      7104      7119      7111      7103      7115      7116
      7111      7103      7115      7117      7111      7103      7115      7118
      7112      7111      7103      7115      7113      7111      7103      7115
      7114      7111      7103      7115      7115      7103      7104      7119
      7119      7125      7122      7123      7119      7125      7122      7124
      7119      7125      7122      7126      7120      7119      7125      7122
      7121      7119      7125      7122      7122      7126      7127      7128
      7122      7126      7127      7129      7122      7126      7127      7130
      7123      7122      7126      7127      7124      7122      7126      7127
      7125      7122      7126      7127      7126      7127      7130      7131
      7126      7127      7130      7132      7126      7127      7130      7138
      7127      7130      7132      7133      7127      7130      7138      7139
      7127      7130      7138      7140      7127      7130      7138      7141
      7128      7127      7130      7131      7128      7127      7130      7132
      7128      7127      7130      7138      7129      7127      7130      7131
      7129      7127      7130      7132      7129      7127      7130      7138
      7130      7132      7133      7134      7130      7132      7133      7135
      7130      7138      7141      7142      7131      7130      7132      7133
      7131      7130      7138      7139      7131      7130      7138      7140
      7131      7130      7138      7141      7132      7130      7138      7139
      7132      7130      7138      7140      7132      7130      7138      7141
      7132      7133      7135      7136      7132      7133      7135      7137
      7132      7133      7135      7147      7133      7132      7130      7138
      7133      7135      7147      7148      7133      7135      7147      7149
      7133      7135      7147      7150      7134      7133      7135      7136
      7134      7133      7135      7137      7134      7133      7135      7147
      7135      7147      7150      7151      7135      7147      7150      7152
      7135      7147      7150      7153      7136      7135      7147      7148
      7136      7135      7147      7149      7136      7135      7147      7150
      7137      7135      7147      7148      7137      7135      7147      7149
      7137      7135      7147      7150      7138      7141      7142      7143
      7138      7141      7142      7144      7139      7138      7141      7142
      7140      7138      7141      7142      7141      7142      7144      7145
      7141      7142      7144      7146      7141      7142      7144      7194
      7142      7144      7194      7195      7142      7144      7194      7196
      7142      7144      7194      7197      7143      7142      7144      7145
      7143      7142      7144      7146      7143      7142      7144      7194
      7144      7194      7197      7198      7144      7194      7197      7199
      7144      7194      7197      7200      7145      7144      7194      7195
      7145      7144      7194      7196      7145      7144      7194      7197
      7146      7144      7194      7195      7146      7144      7194      7196
      7146      7144      7194      7197      7147      7150      7153      7154
      7147      7150      7153      7155      7147      7150      7153      7156
      7148      7147      7150      7151      7148      7147      7150      7152
      7148      7147      7150      7153      7149      7147      7150      7151
      7149      7147      7150      7152      7149      7147      7150      7153
      7150      7153      7156      7157      7150      7153      7156      7158
      7150      7153      7156      7159      7151      7150      7153      7154
      7151      7150      7153      7155      7151      7150      7153      7156
      7152      7150      7153      7154      7152      7150      7153      7155
      7152      7150      7153      7156      7153      7156      7159      7160
      7153      7156      7159      7161      7153      7156      7159      7162
      7154      7153      7156      7157      7154      7153      7156      7158
      7154      7153      7156      7159      7155      7153      7156      7157
      7155      7153      7156      7158      7155      7153      7156      7159
      7156      7159      7162      7163      7156      7159      7162      7164
      7156      7159      7162      7165      7157      7156      7159      7160
      7157      7156      7159      7161      7157      7156      7159      7162
      7158      7156      7159      7160      7158      7156      7159      7161
      7158      7156      7159      7162      7159      7162      7165      7166
      7159      7162      7165      7167      7160      7159      7162      7163
      7160      7159      7162      7164      7160      7159      7162      7165
      7161      7159      7162      7163      7161      7159      7162      7164
      7161      7159      7162      7165      7162      7165      7167      7168
      7162      7165      7167      7169      7163      7162      7165      7166
      7163      7162      7165      7167      7164      7162      7165      7166
      7164      7162      7165      7167      7165      7167      7169      7170
      7165      7167      7169      7171      7165      7167      7169      7172
      7166      7165      7167      7168      7166      7165      7167      7169
      7167      7169      7172      7173      7167      7169      7172      7174
      7167      7169      7172      7175      7168      7167      7169      7170
      7168      7167      7169      7171      7168      7167      7169      7172
      7169      7172      7175      7176      7169      7172      7175      7177
      7169      7172      7175      7178      7170      7169      7172      7173
      7170      7169      7172      7174      7170      7169      7172      7175
      7171      7169      7172      7173      7171      7169      7172      7174
      7171      7169      7172      7175      7172      7175      7178      7179
      7172      7175      7178      7180      7172      7175      7178      7181
      7173      7172      7175      7176      7173      7172      7175      7177
      7173      7172      7175      7178      7174      7172      7175      7176
      7174      7172      7175      7177      7174      7172      7175      7178
      7175      7178      7181      7182      7175      7178      7181      7183
      7175      7178      7181      7184      7176      7175      7178      7179
      7176      7175      7178      7180      7176      7175      7178      7181
      7177      7175      7178      7179      7177      7175      7178      7180
      7177      7175      7178      7181      7178      7181      7184      7185
      7178      7181      7184      7186      7178      7181      7184      7187
      7179      7178      7181      7182      7179      7178      7181      7183
      7179      7178      7181      7184      7180      7178      7181      7182
      7180      7178      7181      7183      7180      7178      7181      7184
      7181      7184      7187      7188      7181      7184      7187      7189
      7181      7184      7187      7190      7182      7181      7184      7185
      7182      7181      7184      7186      7182      7181      7184      7187
      7183      7181      7184      7185      7183      7181      7184      7186
      7183      7181      7184      7187      7184      7187      7190      7191
      7184      7187      7190      7192      7184      7187      7190      7193
      7185      7184      7187      7188      7185      7184      7187      7189
      7185      7184      7187      7190      7186      7184      7187      7188
      7186      7184      7187      7189      7186      7184      7187      7190
      7188      7187      7190      7191      7188      7187      7190      7192
      7188      7187      7190      7193      7189      7187      7190      7191
      7189      7187      7190      7192      7189      7187      7190      7193
      7194      7197      7200      7201      7194      7197      7200      7202
      7194      7197      7200      7203      7195      7194      7197      7198
      7195      7194      7197      7199      7195      7194      7197      7200
      7196      7194      7197      7198      7196      7194      7197      7199
      7196      7194      7197      7200      7197      7200      7203      7204
      7197      7200      7203      7205      7197      7200      7203      7206
      7198      7197      7200      7201      7198      7197      7200      7202
      7198      7197      7200      7203      7199      7197      7200      7201
      7199      7197      7200      7202      7199      7197      7200      7203
      7200      7203      7206      7207      7200      7203      7206      7208
      7200      7203      7206      7209      7201      7200      7203      7204
      7201      7200      7203      7205      7201      7200      7203      7206
      7202      7200      7203      7204      7202      7200      7203      7205
      7202      7200      7203      7206      7203      7206      7209      7210
      7203      7206      7209      7211      7203      7206      7209      7212
      7204      7203      7206      7207      7204      7203      7206      7208
      7204      7203      7206      7209      7205      7203      7206      7207
      7205      7203      7206      7208      7205      7203      7206      7209
      7206      7209      7212      7213      7206      7209      7212      7214
      7206      7209      7212      7215      7207      7206      7209      7210
      7207      7206      7209      7211      7207      7206      7209      7212
      7208      7206      7209      7210      7208      7206      7209      7211
      7208      7206      7209      7212      7209      7212      7215      7216
      7209      7212      7215      7217      7209      7212      7215      7218
      7210      7209      7212      7213      7210      7209      7212      7214
      7210      7209      7212      7215      7211      7209      7212      7213
      7211      7209      7212      7214      7211      7209      7212      7215
      7212      7215      7218      7219      7212      7215      7218      7220
      7212      7215      7218      7221      7213      7212      7215      7216
      7213      7212      7215      7217      7213      7212      7215      7218
      7214      7212      7215      7216      7214      7212      7215      7217
      7214      7212      7215      7218      7215      7218      7221      7222
      7215      7218      7221      7223      7215      7218      7221      7224
      7216      7215      7218      7219      7216      7215      7218      7220
      7216      7215      7218      7221      7217      7215      7218      7219
      7217      7215      7218      7220      7217      7215      7218      7221
      7218      7221      7224      7225      7218      7221      7224      7226
      7218      7221      7224      7227      7219      7218      7221      7222
      7219      7218      7221      7223      7219      7218      7221      7224
      7220      7218      7221      7222      7220      7218      7221      7223
      7220      7218      7221      7224      7221      7224      7227      7228
      7221      7224      7227      7229      7221      7224      7227      7230
      7222      7221      7224      7225      7222      7221      7224      7226
      7222      7221      7224      7227      7223      7221      7224      7225
      7223      7221      7224      7226      7223      7221      7224      7227
      7224      7227      7230      7231      7224      7227      7230      7232
      7224      7227      7230      7233      7225      7224      7227      7228
      7225      7224      7227      7229      7225      7224      7227      7230
      7226      7224      7227      7228      7226      7224      7227      7229
      7226      7224      7227      7230      7227      7230      7233      7234
      7227      7230      7233      7235      7227      7230      7233      7236
      7228      7227      7230      7231      7228      7227      7230      7232
      7228      7227      7230      7233      7229      7227      7230      7231
      7229      7227      7230      7232      7229      7227      7230      7233
      7231      7230      7233      7234      7231      7230      7233      7235
      7231      7230      7233      7236      7232      7230      7233      7234
      7232      7230      7233      7235      7232      7230      7233      7236
      7237      7238      7253      7254      7237      7238      7253      7255
      7237      7238      7253      7259      7238      7237      7241      7242
      7238      7237      7241      7243      7238      7237      7241      7244
      7238      7237      7245      7246      7238      7237      7245      7247
      7238      7237      7245      7248      7238      7237      7249      7250
      7238      7237      7249      7251      7238      7237      7249      7252
      7238      7253      7259      7256      7239      7238      7237      7241
      7239      7238      7237      7245      7239      7238      7237      7249
      7239      7238      7253      7254      7239      7238      7253      7255
      7239      7238      7253      7259      7240      7238      7237      7241
      7240      7238      7237      7245      7240      7238      7237      7249
      7240      7238      7253      7254      7240      7238      7253      7255
      7240      7238      7253      7259      7241      7237      7238      7253
      7241      7237      7245      7246      7241      7237      7245      7247
      7241      7237      7245      7248      7241      7237      7249      7250
      7241      7237      7249      7251      7241      7237      7249      7252
      7242      7241      7237      7245      7242      7241      7237      7249
      7243      7241      7237      7245      7243      7241      7237      7249
      7244      7241      7237      7245      7244      7241      7237      7249
      7245      7237      7238      7253      7245      7237      7249      7250
      7245      7237      7249      7251      7245      7237      7249      7252
      7246      7245      7237      7249      7247      7245      7237      7249
      7248      7245      7237      7249      7249      7237      7238      7253
      7253      7259      7256      7257      7253      7259      7256      7258
      7253      7259      7256      7260      7254      7253      7259      7256
      7255      7253      7259      7256      7256      7260      7261      7262
      7256      7260      7261      7263      7256      7260      7261      7264
      7257      7256      7260      7261      7258      7256      7260      7261
      7259      7256      7260      7261      7260      7261      7264      7265
      7260      7261      7264      7266      7260      7261      7264      7272
      7261      7264      7266      7267      7261      7264      7272      7273
      7261      7264      7272      7274      7261      7264      7272      7275
      7262      7261      7264      7265      7262      7261      7264      7266
      7262      7261      7264      7272      7263      7261      7264      7265
      7263      7261      7264      7266      7263      7261      7264      7272
      7264      7266      7267      7268      7264      7266      7267      7269
      7264      7272      7275      7276      7265      7264      7266      7267
      7265      7264      7272      7273      7265      7264      7272      7274
      7265      7264      7272      7275      7266      7264      7272      7273
      7266      7264      7272      7274      7266      7264      7272      7275
      7266      7267      7269      7270      7266      7267      7269      7271
      7266      7267      7269      7281      7267      7266      7264      7272
      7267      7269      7281      7282      7267      7269      7281      7283
      7267      7269      7281      7284      7268      7267      7269      7270
      7268      7267      7269      7271      7268      7267      7269      7281
      7269      7281      7284      7285      7269      7281      7284      7286
      7269      7281      7284      7287      7270      7269      7281      7282
      7270      7269      7281      7283      7270      7269      7281      7284
      7271      7269      7281      7282      7271      7269      7281      7283
      7271      7269      7281      7284      7272      7275      7276      7277
      7272      7275      7276      7278      7273      7272      7275      7276
      7274      7272      7275      7276      7275      7276      7278      7279
      7275      7276      7278      7280      7275      7276      7278      7328
      7276      7278      7328      7329      7276      7278      7328      7330
      7276      7278      7328      7331      7277      7276      7278      7279
      7277      7276      7278      7280      7277      7276      7278      7328
      7278      7328      7331      7332      7278      7328      7331      7333
      7278      7328      7331      7334      7279      7278      7328      7329
      7279      7278      7328      7330      7279      7278      7328      7331
      7280      7278      7328      7329      7280      7278      7328      7330
      7280      7278      7328      7331      7281      7284      7287      7288
      7281      7284      7287      7289      7281      7284      7287      7290
      7282      7281      7284      7285      7282      7281      7284      7286
      7282      7281      7284      7287      7283      7281      7284      7285
      7283      7281      7284      7286      7283      7281      7284      7287
      7284      7287      7290      7291      7284      7287      7290      7292
      7284      7287      7290      7293      7285      7284      7287      7288
      7285      7284      7287      7289      7285      7284      7287      7290
      7286      7284      7287      7288      7286      7284      7287      7289
      7286      7284      7287      7290      7287      7290      7293      7294
      7287      7290      7293      7295      7287      7290      7293      7296
      7288      7287      7290      7291      7288      7287      7290      7292
      7288      7287      7290      7293      7289      7287      7290      7291
      7289      7287      7290      7292      7289      7287      7290      7293
      7290      7293      7296      7297      7290      7293      7296      7298
      7290      7293      7296      7299      7291      7290      7293      7294
      7291      7290      7293      7295      7291      7290      7293      7296
      7292      7290      7293      7294      7292      7290      7293      7295
      7292      7290      7293      7296      7293      7296      7299      7300
      7293      7296      7299      7301      7294      7293      7296      7297
      7294      7293      7296      7298      7294      7293      7296      7299
      7295      7293      7296      7297      7295      7293      7296      7298
      7295      7293      7296      7299      7296      7299      7301      7302
      7296      7299      7301      7303      7297      7296      7299      7300
      7297      7296      7299      7301      7298      7296      7299      7300
      7298      7296      7299      7301      7299      7301      7303      7304
      7299      7301      7303      7305      7299      7301      7303      7306
      7300      7299      7301      7302      7300      7299      7301      7303
      7301      7303      7306      7307      7301      7303      7306      7308
      7301      7303      7306      7309      7302      7301      7303      7304
      7302      7301      7303      7305      7302      7301      7303      7306
      7303      7306      7309      7310      7303      7306      7309      7311
      7303      7306      7309      7312      7304      7303      7306      7307
      7304      7303      7306      7308      7304      7303      7306      7309
      7305      7303      7306      7307      7305      7303      7306      7308
      7305      7303      7306      7309      7306      7309      7312      7313
      7306      7309      7312      7314      7306      7309      7312      7315
      7307      7306      7309      7310      7307      7306      7309      7311
      7307      7306      7309      7312      7308      7306      7309      7310
      7308      7306      7309      7311      7308      7306      7309      7312
      7309      7312      7315      7316      7309      7312      7315      7317
      7309      7312      7315      7318      7310      7309      7312      7313
      7310      7309      7312      7314      7310      7309      7312      7315
      7311      7309      7312      7313      7311      7309      7312      7314
      7311      7309      7312      7315      7312      7315      7318      7319
      7312      7315      7318      7320      7312      7315      7318      7321
      7313      7312      7315      7316      7313      7312      7315      7317
      7313      7312      7315      7318      7314      7312      7315      7316
      7314      7312      7315      7317      7314      7312      7315      7318
      7315      7318      7321      7322      7315      7318      7321      7323
      7315      7318      7321      7324      7316      7315      7318      7319
      7316      7315      7318      7320      7316      7315      7318      7321
      7317      7315      7318      7319      7317      7315      7318      7320
      7317      7315      7318      7321      7318      7321      7324      7325
      7318      7321      7324      7326      7318      7321      7324      7327
      7319      7318      7321      7322      7319      7318      7321      7323
      7319      7318      7321      7324      7320      7318      7321      7322
      7320      7318      7321      7323      7320      7318      7321      7324
      7322      7321      7324      7325      7322      7321      7324      7326
      7322      7321      7324      7327      7323      7321      7324      7325
      7323      7321      7324      7326      7323      7321      7324      7327
      7328      7331      7334      7335      7328      7331      7334      7336
      7328      7331      7334      7337      7329      7328      7331      7332
      7329      7328      7331      7333      7329      7328      7331      7334
      7330      7328      7331      7332      7330      7328      7331      7333
      7330      7328      7331      7334      7331      7334      7337      7338
      7331      7334      7337      7339      7331      7334      7337      7340
      7332      7331      7334      7335      7332      7331      7334      7336
      7332      7331      7334      7337      7333      7331      7334      7335
      7333      7331      7334      7336      7333      7331      7334      7337
      7334      7337      7340      7341      7334      7337      7340      7342
      7334      7337      7340      7343      7335      7334      7337      7338
      7335      7334      7337      7339      7335      7334      7337      7340
      7336      7334      7337      7338      7336      7334      7337      7339
      7336      7334      7337      7340      7337      7340      7343      7344
      7337      7340      7343      7345      7337      7340      7343      7346
      7338      7337      7340      7341      7338      7337      7340      7342
      7338      7337      7340      7343      7339      7337      7340      7341
      7339      7337      7340      7342      7339      7337      7340      7343
      7340      7343      7346      7347      7340      7343      7346      7348
      7340      7343      7346      7349      7341      7340      7343      7344
      7341      7340      7343      7345      7341      7340      7343      7346
      7342      7340      7343      7344      7342      7340      7343      7345
      7342      7340      7343      7346      7343      7346      7349      7350
      7343      7346      7349      7351      7343      7346      7349      7352
      7344      7343      7346      7347      7344      7343      7346      7348
      7344      7343      7346      7349      7345      7343      7346      7347
      7345      7343      7346      7348      7345      7343      7346      7349
      7346      7349      7352      7353      7346      7349      7352      7354
      7346      7349      7352      7355      7347      7346      7349      7350
      7347      7346      7349      7351      7347      7346      7349      7352
      7348      7346      7349      7350      7348      7346      7349      7351
      7348      7346      7349      7352      7349      7352      7355      7356
      7349      7352      7355      7357      7349      7352      7355      7358
      7350      7349      7352      7353      7350      7349      7352      7354
      7350      7349      7352      7355      7351      7349      7352      7353
      7351      7349      7352      7354      7351      7349      7352      7355
      7352      7355      7358      7359      7352      7355      7358      7360
      7352      7355      7358      7361      7353      7352      7355      7356
      7353      7352      7355      7357      7353      7352      7355      7358
      7354      7352      7355      7356      7354      7352      7355      7357
      7354      7352      7355      7358      7355      7358      7361      7362
      7355      7358      7361      7363      7355      7358      7361      7364
      7356      7355      7358      7359      7356      7355      7358      7360
      7356      7355      7358      7361      7357      7355      7358      7359
      7357      7355      7358      7360      7357      7355      7358      7361
      7358      7361      7364      7365      7358      7361      7364      7366
      7358      7361      7364      7367      7359      7358      7361      7362
      7359      7358      7361      7363      7359      7358      7361      7364
      7360      7358      7361      7362      7360      7358      7361      7363
      7360      7358      7361      7364      7361      7364      7367      7368
      7361      7364      7367      7369      7361      7364      7367      7370
      7362      7361      7364      7365      7362      7361      7364      7366
      7362      7361      7364      7367      7363      7361      7364      7365
      7363      7361      7364      7366      7363      7361      7364      7367
      7365      7364      7367      7368      7365      7364      7367      7369
      7365      7364      7367      7370      7366      7364      7367      7368
      7366      7364      7367      7369      7366      7364      7367      7370
      7371      7372      7387      7388      7371      7372      7387      7389
      7371      7372      7387      7393      7372      7371      7375      7376
      7372      7371      7375      7377      7372      7371      7375      7378
      7372      7371      7379      7380      7372      7371      7379      7381
      7372      7371      7379      7382      7372      7371      7383      7384
      7372      7371      7383      7385      7372      7371      7383      7386
      7372      7387      7393      7390      7373      7372      7371      7375
      7373      7372      7371      7379      7373      7372      7371      7383
      7373      7372      7387      7388      7373      7372      7387      7389
      7373      7372      7387      7393      7374      7372      7371      7375
      7374      7372      7371      7379      7374      7372      7371      7383
      7374      7372      7387      7388      7374      7372      7387      7389
      7374      7372      7387      7393      7375      7371      7372      7387
      7375      7371      7379      7380      7375      7371      7379      7381
      7375      7371      7379      7382      7375      7371      7383      7384
      7375      7371      7383      7385      7375      7371      7383      7386
      7376      7375      7371      7379      7376      7375      7371      7383
      7377      7375      7371      7379      7377      7375      7371      7383
      7378      7375      7371      7379      7378      7375      7371      7383
      7379      7371      7372      7387      7379      7371      7383      7384
      7379      7371      7383      7385      7379      7371      7383      7386
      7380      7379      7371      7383      7381      7379      7371      7383
      7382      7379      7371      7383      7383      7371      7372      7387
      7387      7393      7390      7391      7387      7393      7390      7392
      7387      7393      7390      7394      7388      7387      7393      7390
      7389      7387      7393      7390      7390      7394      7395      7396
      7390      7394      7395      7397      7390      7394      7395      7398
      7391      7390      7394      7395      7392      7390      7394      7395
      7393      7390      7394      7395      7394      7395      7398      7399
      7394      7395      7398      7400      7394      7395      7398      7406
      7395      7398      7400      7401      7395      7398      7406      7407
      7395      7398      7406      7408      7395      7398      7406      7409
      7396      7395      7398      7399      7396      7395      7398      7400
      7396      7395      7398      7406      7397      7395      7398      7399
      7397      7395      7398      7400      7397      7395      7398      7406
      7398      7400      7401      7402      7398      7400      7401      7403
      7398      7406      7409      7410      7399      7398      7400      7401
      7399      7398      7406      7407      7399      7398      7406      7408
      7399      7398      7406      7409      7400      7398      7406      7407
      7400      7398      7406      7408      7400      7398      7406      7409
      7400      7401      7403      7404      7400      7401      7403      7405
      7400      7401      7403      7415      7401      7400      7398      7406
      7401      7403      7415      7416      7401      7403      7415      7417
      7401      7403      7415      7418      7402      7401      7403      7404
      7402      7401      7403      7405      7402      7401      7403      7415
      7403      7415      7418      7419      7403      7415      7418      7420
      7403      7415      7418      7421      7404      7403      7415      7416
      7404      7403      7415      7417      7404      7403      7415      7418
      7405      7403      7415      7416      7405      7403      7415      7417
      7405      7403      7415      7418      7406      7409      7410      7411
      7406      7409      7410      7412      7407      7406      7409      7410
      7408      7406      7409      7410      7409      7410      7412      7413
      7409      7410      7412      7414      7409      7410      7412      7462
      7410      7412      7462      7463      7410      7412      7462      7464
      7410      7412      7462      7465      7411      7410      7412      7413
      7411      7410      7412      7414      7411      7410      7412      7462
      7412      7462      7465      7466      7412      7462      7465      7467
      7412      7462      7465      7468      7413      7412      7462      7463
      7413      7412      7462      7464      7413      7412      7462      7465
      7414      7412      7462      7463      7414      7412      7462      7464
      7414      7412      7462      7465      7415      7418      7421      7422
      7415      7418      7421      7423      7415      7418      7421      7424
      7416      7415      7418      7419      7416      7415      7418      7420
      7416      7415      7418      7421      7417      7415      7418      7419
      7417      7415      7418      7420      7417      7415      7418      7421
      7418      7421      7424      7425      7418      7421      7424      7426
      7418      7421      7424      7427      7419      7418      7421      7422
      7419      7418      7421      7423      7419      7418      7421      7424
      7420      7418      7421      7422      7420      7418      7421      7423
      7420      7418      7421      7424      7421      7424      7427      7428
      7421      7424      7427      7429      7421      7424      7427      7430
      7422      7421      7424      7425      7422      7421      7424      7426
      7422      7421      7424      7427      7423      7421      7424      7425
      7423      7421      7424      7426      7423      7421      7424      7427
      7424      7427      7430      7431      7424      7427      7430      7432
      7424      7427      7430      7433      7425      7424      7427      7428
      7425      7424      7427      7429      7425      7424      7427      7430
      7426      7424      7427      7428      7426      7424      7427      7429
      7426      7424      7427      7430      7427      7430      7433      7434
      7427      7430      7433      7435      7428      7427      7430      7431
      7428      7427      7430      7432      7428      7427      7430      7433
      7429      7427      7430      7431      7429      7427      7430      7432
      7429      7427      7430      7433      7430      7433      7435      7436
      7430      7433      7435      7437      7431      7430      7433      7434
      7431      7430      7433      7435      7432      7430      7433      7434
      7432      7430      7433      7435      7433      7435      7437      7438
      7433      7435      7437      7439      7433      7435      7437      7440
      7434      7433      7435      7436      7434      7433      7435      7437
      7435      7437      7440      7441      7435      7437      7440      7442
      7435      7437      7440      7443      7436      7435      7437      7438
      7436      7435      7437      7439      7436      7435      7437      7440
      7437      7440      7443      7444      7437      7440      7443      7445
      7437      7440      7443      7446      7438      7437      7440      7441
      7438      7437      7440      7442      7438      7437      7440      7443
      7439      7437      7440      7441      7439      7437      7440      7442
      7439      7437      7440      7443      7440      7443      7446      7447
      7440      7443      7446      7448      7440      7443      7446      7449
      7441      7440      7443      7444      7441      7440      7443      7445
      7441      7440      7443      7446      7442      7440      7443      7444
      7442      7440      7443      7445      7442      7440      7443      7446
      7443      7446      7449      7450      7443      7446      7449      7451
      7443      7446      7449      7452      7444      7443      7446      7447
      7444      7443      7446      7448      7444      7443      7446      7449
      7445      7443      7446      7447      7445      7443      7446      7448
      7445      7443      7446      7449      7446      7449      7452      7453
      7446      7449      7452      7454      7446      7449      7452      7455
      7447      7446      7449      7450      7447      7446      7449      7451
      7447      7446      7449      7452      7448      7446      7449      7450
      7448      7446      7449      7451      7448      7446      7449      7452
      7449      7452      7455      7456      7449      7452      7455      7457
      7449      7452      7455      7458      7450      7449      7452      7453
      7450      7449      7452      7454      7450      7449      7452      7455
      7451      7449      7452      7453      7451      7449      7452      7454
      7451      7449      7452      7455      7452      7455      7458      7459
      7452      7455      7458      7460      7452      7455      7458      7461
      7453      7452      7455      7456      7453      7452      7455      7457
      7453      7452      7455      7458      7454      7452      7455      7456
      7454      7452      7455      7457      7454      7452      7455      7458
      7456      7455      7458      7459      7456      7455      7458      7460
      7456      7455      7458      7461      7457      7455      7458      7459
      7457      7455      7458      7460      7457      7455      7458      7461
      7462      7465      7468      7469      7462      7465      7468      7470
      7462      7465      7468      7471      7463      7462      7465      7466
      7463      7462      7465      7467      7463      7462      7465      7468
      7464      7462      7465      7466      7464      7462      7465      7467
      7464      7462      7465      7468      7465      7468      7471      7472
      7465      7468      7471      7473      7465      7468      7471      7474
      7466      7465      7468      7469      7466      7465      7468      7470
      7466      7465      7468      7471      7467      7465      7468      7469
      7467      7465      7468      7470      7467      7465      7468      7471
      7468      7471      7474      7475      7468      7471      7474      7476
      7468      7471      7474      7477      7469      7468      7471      7472
      7469      7468      7471      7473      7469      7468      7471      7474
      7470      7468      7471      7472      7470      7468      7471      7473
      7470      7468      7471      7474      7471      7474      7477      7478
      7471      7474      7477      7479      7471      7474      7477      7480
      7472      7471      7474      7475      7472      7471      7474      7476
      7472      7471      7474      7477      7473      7471      7474      7475
      7473      7471      7474      7476      7473      7471      7474      7477
      7474      7477      7480      7481      7474      7477      7480      7482
      7474      7477      7480      7483      7475      7474      7477      7478
      7475      7474      7477      7479      7475      7474      7477      7480
      7476      7474      7477      7478      7476      7474      7477      7479
      7476      7474      7477      7480      7477      7480      7483      7484
      7477      7480      7483      7485      7477      7480      7483      7486
      7478      7477      7480      7481      7478      7477      7480      7482
      7478      7477      7480      7483      7479      7477      7480      7481
      7479      7477      7480      7482      7479      7477      7480      7483
      7480      7483      7486      7487      7480      7483      7486      7488
      7480      7483      7486      7489      7481      7480      7483      7484
      7481      7480      7483      7485      7481      7480      7483      7486
      7482      7480      7483      7484      7482      7480      7483      7485
      7482      7480      7483      7486      7483      7486      7489      7490
      7483      7486      7489      7491      7483      7486      7489      7492
      7484      7483      7486      7487      7484      7483      7486      7488
      7484      7483      7486      7489      7485      7483      7486      7487
      7485      7483      7486      7488      7485      7483      7486      7489
      7486      7489      7492      7493      7486      7489      7492      7494
      7486      7489      7492      7495      7487      7486      7489      7490
      7487      7486      7489      7491      7487      7486      7489      7492
      7488      7486      7489      7490      7488      7486      7489      7491
      7488      7486      7489      7492      7489      7492      7495      7496
      7489      7492      7495      7497      7489      7492      7495      7498
      7490      7489      7492      7493      7490      7489      7492      7494
      7490      7489      7492      7495      7491      7489      7492      7493
      7491      7489      7492      7494      7491      7489      7492      7495
      7492      7495      7498      7499      7492      7495      7498      7500
      7492      7495      7498      7501      7493      7492      7495      7496
      7493      7492      7495      7497      7493      7492      7495      7498
      7494      7492      7495      7496      7494      7492      7495      7497
      7494      7492      7495      7498      7495      7498      7501      7502
      7495      7498      7501      7503      7495      7498      7501      7504
      7496      7495      7498      7499      7496      7495      7498      7500
      7496      7495      7498      7501      7497      7495      7498      7499
      7497      7495      7498      7500      7497      7495      7498      7501
      7499      7498      7501      7502      7499      7498      7501      7503
      7499      7498      7501      7504      7500      7498      7501      7502
      7500      7498      7501      7503      7500      7498      7501      7504
      7505      7506      7521      7522      7505      7506      7521      7523
      7505      7506      7521      7527      7506      7505      7509      7510
      7506      7505      7509      7511      7506      7505      7509      7512
      7506      7505      7513      7514      7506      7505      7513      7515
      7506      7505      7513      7516      7506      7505      7517      7518
      7506      7505      7517      7519      7506      7505      7517      7520
      7506      7521      7527      7524      7507      7506      7505      7509
      7507      7506      7505      7513      7507      7506      7505      7517
      7507      7506      7521      7522      7507      7506      7521      7523
      7507      7506      7521      7527      7508      7506      7505      7509
      7508      7506      7505      7513      7508      7506      7505      7517
      7508      7506      7521      7522      7508      7506      7521      7523
      7508      7506      7521      7527      7509      7505      7506      7521
      7509      7505      7513      7514      7509      7505      7513      7515
      7509      7505      7513      7516      7509      7505      7517      7518
      7509      7505      7517      7519      7509      7505      7517      7520
      7510      7509      7505      7513      7510      7509      7505      7517
      7511      7509      7505      7513      7511      7509      7505      7517
      7512      7509      7505      7513      7512      7509      7505      7517
      7513      7505      7506      7521      7513      7505      7517      7518
      7513      7505      7517      7519      7513      7505      7517      7520
      7514      7513      7505      7517      7515      7513      7505      7517
      7516      7513      7505      7517      7517      7505      7506      7521
      7521      7527      7524      7525      7521      7527      7524      7526
      7521      7527      7524      7528      7522      7521      7527      7524
      7523      7521      7527      7524      7524      7528      7529      7530
      7524      7528      7529      7531      7524      7528      7529      7532
      7525      7524      7528      7529      7526      7524      7528      7529
      7527      7524      7528      7529      7528      7529      7532      7533
      7528      7529      7532      7534      7528      7529      7532      7540
      7529      7532      7534      7535      7529      7532      7540      7541
      7529      7532      7540      7542      7529      7532      7540      7543
      7530      7529      7532      7533      7530      7529      7532      7534
      7530      7529      7532      7540      7531      7529      7532      7533
      7531      7529      7532      7534      7531      7529      7532      7540
      7532      7534      7535      7536      7532      7534      7535      7537
      7532      7540      7543      7544      7533      7532      7534      7535
      7533      7532      7540      7541      7533      7532      7540      7542
      7533      7532      7540      7543      7534      7532      7540      7541
      7534      7532      7540      7542      7534      7532      7540      7543
      7534      7535      7537      7538      7534      7535      7537      7539
      7534      7535      7537      7549      7535      7534      7532      7540
      7535      7537      7549      7550      7535      7537      7549      7551
      7535      7537      7549      7552      7536      7535      7537      7538
      7536      7535      7537      7539      7536      7535      7537      7549
      7537      7549      7552      7553      7537      7549      7552      7554
      7537      7549      7552      7555      7538      7537      7549      7550
      7538      7537      7549      7551      7538      7537      7549      7552
      7539      7537      7549      7550      7539      7537      7549      7551
      7539      7537      7549      7552      7540      7543      7544      7545
      7540      7543      7544      7546      7541      7540      7543      7544
      7542      7540      7543      7544      7543      7544      7546      7547
      7543      7544      7546      7548      7543      7544      7546      7596
      7544      7546      7596      7597      7544      7546      7596      7598
      7544      7546      7596      7599      7545      7544      7546      7547
      7545      7544      7546      7548      7545      7544      7546      7596
      7546      7596      7599      7600      7546      7596      7599      7601
      7546      7596      7599      7602      7547      7546      7596      7597
      7547      7546      7596      7598      7547      7546      7596      7599
      7548      7546      7596      7597      7548      7546      7596      7598
      7548      7546      7596      7599      7549      7552      7555      7556
      7549      7552      7555      7557      7549      7552      7555      7558
      7550      7549      7552      7553      7550      7549      7552      7554
      7550      7549      7552      7555      7551      7549      7552      7553
      7551      7549      7552      7554      7551      7549      7552      7555
      7552      7555      7558      7559      7552      7555      7558      7560
      7552      7555      7558      7561      7553      7552      7555      7556
      7553      7552      7555      7557      7553      7552      7555      7558
      7554      7552      7555      7556      7554      7552      7555      7557
      7554      7552      7555      7558      7555      7558      7561      7562
      7555      7558      7561      7563      7555      7558      7561      7564
      7556      7555      7558      7559      7556      7555      7558      7560
      7556      7555      7558      7561      7557      7555      7558      7559
      7557      7555      7558      7560      7557      7555      7558      7561
      7558      7561      7564      7565      7558      7561      7564      7566
      7558      7561      7564      7567      7559      7558      7561      7562
      7559      7558      7561      7563      7559      7558      7561      7564
      7560      7558      7561      7562      7560      7558      7561      7563
      7560      7558      7561      7564      7561      7564      7567      7568
      7561      7564      7567      7569      7562      7561      7564      7565
      7562      7561      7564      7566      7562      7561      7564      7567
      7563      7561      7564      7565      7563      7561      7564      7566
      7563      7561      7564      7567      7564      7567      7569      7570
      7564      7567      7569      7571      7565      7564      7567      7568
      7565      7564      7567      7569      7566      7564      7567      7568
      7566      7564      7567      7569      7567      7569      7571      7572
      7567      7569      7571      7573      7567      7569      7571      7574
      7568      7567      7569      7570      7568      7567      7569      7571
      7569      7571      7574      7575      7569      7571      7574      7576
      7569      7571      7574      7577      7570      7569      7571      7572
      7570      7569      7571      7573      7570      7569      7571      7574
      7571      7574      7577      7578      7571      7574      7577      7579
      7571      7574      7577      7580      7572      7571      7574      7575
      7572      7571      7574      7576      7572      7571      7574      7577
      7573      7571      7574      7575      7573      7571      7574      7576
      7573      7571      7574      7577      7574      7577      7580      7581
      7574      7577      7580      7582      7574      7577      7580      7583
      7575      7574      7577      7578      7575      7574      7577      7579
      7575      7574      7577      7580      7576      7574      7577      7578
      7576      7574      7577      7579      7576      7574      7577      7580
      7577      7580      7583      7584      7577      7580      7583      7585
      7577      7580      7583      7586      7578      7577      7580      7581
      7578      7577      7580      7582      7578      7577      7580      7583
      7579      7577      7580      7581      7579      7577      7580      7582
      7579      7577      7580      7583      7580      7583      7586      7587
      7580      7583      7586      7588      7580      7583      7586      7589
      7581      7580      7583      7584      7581      7580      7583      7585
      7581      7580      7583      7586      7582      7580      7583      7584
      7582      7580      7583      7585      7582      7580      7583      7586
      7583      7586      7589      7590      7583      7586      7589      7591
      7583      7586      7589      7592      7584      7583      7586      7587
      7584      7583      7586      7588      7584      7583      7586      7589
      7585      7583      7586      7587      7585      7583      7586      7588
      7585      7583      7586      7589      7586      7589      7592      7593
      7586      7589      7592      7594      7586      7589      7592      7595
      7587      7586      7589      7590      7587      7586      7589      7591
      7587      7586      7589      7592      7588      7586      7589      7590
      7588      7586      7589      7591      7588      7586      7589      7592
      7590      7589      7592      7593      7590      7589      7592      7594
      7590      7589      7592      7595      7591      7589      7592      7593
      7591      7589      7592      7594      7591      7589      7592      7595
      7596      7599      7602      7603      7596      7599      7602      7604
      7596      7599      7602      7605      7597      7596      7599      7600
      7597      7596      7599      7601      7597      7596      7599      7602
      7598      7596      7599      7600      7598      7596      7599      7601
      7598      7596      7599      7602      7599      7602      7605      7606
      7599      7602      7605      7607      7599      7602      7605      7608
      7600      7599      7602      7603      7600      7599      7602      7604
      7600      7599      7602      7605      7601      7599      7602      7603
      7601      7599      7602      7604      7601      7599      7602      7605
      7602      7605      7608      7609      7602      7605      7608      7610
      7602      7605      7608      7611      7603      7602      7605      7606
      7603      7602      7605      7607      7603      7602      7605      7608
      7604      7602      7605      7606      7604      7602      7605      7607
      7604      7602      7605      7608      7605      7608      7611      7612
      7605      7608      7611      7613      7605      7608      7611      7614
      7606      7605      7608      7609      7606      7605      7608      7610
      7606      7605      7608      7611      7607      7605      7608      7609
      7607      7605      7608      7610      7607      7605      7608      7611
      7608      7611      7614      7615      7608      7611      7614      7616
      7608      7611      7614      7617      7609      7608      7611      7612
      7609      7608      7611      7613      7609      7608      7611      7614
      7610      7608      7611      7612      7610      7608      7611      7613
      7610      7608      7611      7614      7611      7614      7617      7618
      7611      7614      7617      7619      7611      7614      7617      7620
      7612      7611      7614      7615      7612      7611      7614      7616
      7612      7611      7614      7617      7613      7611      7614      7615
      7613      7611      7614      7616      7613      7611      7614      7617
      7614      7617      7620      7621      7614      7617      7620      7622
      7614      7617      7620      7623      7615      7614      7617      7618
      7615      7614      7617      7619      7615      7614      7617      7620
      7616      7614      7617      7618      7616      7614      7617      7619
      7616      7614      7617      7620      7617      7620      7623      7624
      7617      7620      7623      7625      7617      7620      7623      7626
      7618      7617      7620      7621      7618      7617      7620      7622
      7618      7617      7620      7623      7619      7617      7620      7621
      7619      7617      7620      7622      7619      7617      7620      7623
      7620      7623      7626      7627      7620      7623      7626      7628
      7620      7623      7626      7629      7621      7620      7623      7624
      7621      7620      7623      7625      7621      7620      7623      7626
      7622      7620      7623      7624      7622      7620      7623      7625
      7622      7620      7623      7626      7623      7626      7629      7630
      7623      7626      7629      7631      7623      7626      7629      7632
      7624      7623      7626      7627      7624      7623      7626      7628
      7624      7623      7626      7629      7625      7623      7626      7627
      7625      7623      7626      7628      7625      7623      7626      7629
      7626      7629      7632      7633      7626      7629      7632      7634
      7626      7629      7632      7635      7627      7626      7629      7630
      7627      7626      7629      7631      7627      7626      7629      7632
      7628      7626      7629      7630      7628      7626      7629      7631
      7628      7626      7629      7632      7629      7632      7635      7636
      7629      7632      7635      7637      7629      7632      7635      7638
      7630      7629      7632      7633      7630      7629      7632      7634
      7630      7629      7632      7635      7631      7629      7632      7633
      7631      7629      7632      7634      7631      7629      7632      7635
      7633      7632      7635      7636      7633      7632      7635      7637
      7633      7632      7635      7638      7634      7632      7635      7636
      7634      7632      7635      7637      7634      7632      7635      7638
      7639      7640      7655      7656      7639      7640      7655      7657
      7639      7640      7655      7661      7640      7639      7643      7644
      7640      7639      7643      7645      7640      7639      7643      7646
      7640      7639      7647      7648      7640      7639      7647      7649
      7640      7639      7647      7650      7640      7639      7651      7652
      7640      7639      7651      7653      7640      7639      7651      7654
      7640      7655      7661      7658      7641      7640      7639      7643
      7641      7640      7639      7647      7641      7640      7639      7651
      7641      7640      7655      7656      7641      7640      7655      7657
      7641      7640      7655      7661      7642      7640      7639      7643
      7642      7640      7639      7647      7642      7640      7639      7651
      7642      7640      7655      7656      7642      7640      7655      7657
      7642      7640      7655      7661      7643      7639      7640      7655
      7643      7639      7647      7648      7643      7639      7647      7649
      7643      7639      7647      7650      7643      7639      7651      7652
      7643      7639      7651      7653      7643      7639      7651      7654
      7644      7643      7639      7647      7644      7643      7639      7651
      7645      7643      7639      7647      7645      7643      7639      7651
      7646      7643      7639      7647      7646      7643      7639      7651
      7647      7639      7640      7655      7647      7639      7651      7652
      7647      7639      7651      7653      7647      7639      7651      7654
      7648      7647      7639      7651      7649      7647      7639      7651
      7650      7647      7639      7651      7651      7639      7640      7655
      7655      7661      7658      7659      7655      7661      7658      7660
      7655      7661      7658      7662      7656      7655      7661      7658
      7657      7655      7661      7658      7658      7662      7663      7664
      7658      7662      7663      7665      7658      7662      7663      7666
      7659      7658      7662      7663      7660      7658      7662      7663
      7661      7658      7662      7663      7662      7663      7666      7667
      7662      7663      7666      7668      7662      7663      7666      7674
      7663      7666      7668      7669      7663      7666      7674      7675
      7663      7666      7674      7676      7663      7666      7674      7677
      7664      7663      7666      7667      7664      7663      7666      7668
      7664      7663      7666      7674      7665      7663      7666      7667
      7665      7663      7666      7668      7665      7663      7666      7674
      7666      7668      7669      7670      7666      7668      7669      7671
      7666      7674      7677      7678      7667      7666      7668      7669
      7667      7666      7674      7675      7667      7666      7674      7676
      7667      7666      7674      7677      7668      7666      7674      7675
      7668      7666      7674      7676      7668      7666      7674      7677
      7668      7669      7671      7672      7668      7669      7671      7673
      7668      7669      7671      7683      7669      7668      7666      7674
      7669      7671      7683      7684      7669      7671      7683      7685
      7669      7671      7683      7686      7670      7669      7671      7672
      7670      7669      7671      7673      7670      7669      7671      7683
      7671      7683      7686      7687      7671      7683      7686      7688
      7671      7683      7686      7689      7672      7671      7683      7684
      7672      7671      7683      7685      7672      7671      7683      7686
      7673      7671      7683      7684      7673      7671      7683      7685
      7673      7671      7683      7686      7674      7677      7678      7679
      7674      7677      7678      7680      7675      7674      7677      7678
      7676      7674      7677      7678      7677      7678      7680      7681
      7677      7678      7680      7682      7677      7678      7680      7730
      7678      7680      7730      7731      7678      7680      7730      7732
      7678      7680      7730      7733      7679      7678      7680      7681
      7679      7678      7680      7682      7679      7678      7680      7730
      7680      7730      7733      7734      7680      7730      7733      7735
      7680      7730      7733      7736      7681      7680      7730      7731
      7681      7680      7730      7732      7681      7680      7730      7733
      7682      7680      7730      7731      7682      7680      7730      7732
      7682      7680      7730      7733      7683      7686      7689      7690
      7683      7686      7689      7691      7683      7686      7689      7692
      7684      7683      7686      7687      7684      7683      7686      7688
      7684      7683      7686      7689      7685      7683      7686      7687
      7685      7683      7686      7688      7685      7683      7686      7689
      7686      7689      7692      7693      7686      7689      7692      7694
      7686      7689      7692      7695      7687      7686      7689      7690
      7687      7686      7689      7691      7687      7686      7689      7692
      7688      7686      7689      7690      7688      7686      7689      7691
      7688      7686      7689      7692      7689      7692      7695      7696
      7689      7692      7695      7697      7689      7692      7695      7698
      7690      7689      7692      7693      7690      7689      7692      7694
      7690      7689      7692      7695      7691      7689      7692      7693
      7691      7689      7692      7694      7691      7689      7692      7695
      7692      7695      7698      7699      7692      7695      7698      7700
      7692      7695      7698      7701      7693      7692      7695      7696
      7693      7692      7695      7697      7693      7692      7695      7698
      7694      7692      7695      7696      7694      7692      7695      7697
      7694      7692      7695      7698      7695      7698      7701      7702
      7695      7698      7701      7703      7696      7695      7698      7699
      7696      7695      7698      7700      7696      7695      7698      7701
      7697      7695      7698      7699      7697      7695      7698      7700
      7697      7695      7698      7701      7698      7701      7703      7704
      7698      7701      7703      7705      7699      7698      7701      7702
      7699      7698      7701      7703      7700      7698      7701      7702
      7700      7698      7701      7703      7701      7703      7705      7706
      7701      7703      7705      7707      7701      7703      7705      7708
      7702      7701      7703      7704      7702      7701      7703      7705
      7703      7705      7708      7709      7703      7705      7708      7710
      7703      7705      7708      7711      7704      7703      7705      7706
      7704      7703      7705      7707      7704      7703      7705      7708
      7705      7708      7711      7712      7705      7708      7711      7713
      7705      7708      7711      7714      7706      7705      7708      7709
      7706      7705      7708      7710      7706      7705      7708      7711
      7707      7705      7708      7709      7707      7705      7708      7710
      7707      7705      7708      7711      7708      7711      7714      7715
      7708      7711      7714      7716      7708      7711      7714      7717
      7709      7708      7711      7712      7709      7708      7711      7713
      7709      7708      7711      7714      7710      7708      7711      7712
      7710      7708      7711      7713      7710      7708      7711      7714
      7711      7714      7717      7718      7711      7714      7717      7719
      7711      7714      7717      7720      7712      7711      7714      7715
      7712      7711      7714      7716      7712      7711      7714      7717
      7713      7711      7714      7715      7713      7711      7714      7716
      7713      7711      7714      7717      7714      7717      7720      7721
      7714      7717      7720      7722      7714      7717      7720      7723
      7715      7714      7717      7718      7715      7714      7717      7719
      7715      7714      7717      7720      7716      7714      7717      7718
      7716      7714      7717      7719      7716      7714      7717      7720
      7717      7720      7723      7724      7717      7720      7723      7725
      7717      7720      7723      7726      7718      7717      7720      7721
      7718      7717      7720      7722      7718      7717      7720      7723
      7719      7717      7720      7721      7719      7717      7720      7722
      7719      7717      7720      7723      7720      7723      7726      7727
      7720      7723      7726      7728      7720      7723      7726      7729
      7721      7720      7723      7724      7721      7720      7723      7725
      7721      7720      7723      7726      7722      7720      7723      7724
      7722      7720      7723      7725      7722      7720      7723      7726
      7724      7723      7726      7727      7724      7723      7726      7728
      7724      7723      7726      7729      7725      7723      7726      7727
      7725      7723      7726      7728      7725      7723      7726      7729
      7730      7733      7736      7737      7730      7733      7736      7738
      7730      7733      7736      7739      7731      7730      7733      7734
      7731      7730      7733      7735      7731      7730      7733      7736
      7732      7730      7733      7734      7732      7730      7733      7735
      7732      7730      7733      7736      7733      7736      7739      7740
      7733      7736      7739      7741      7733      7736      7739      7742
      7734      7733      7736      7737      7734      7733      7736      7738
      7734      7733      7736      7739      7735      7733      7736      7737
      7735      7733      7736      7738      7735      7733      7736      7739
      7736      7739      7742      7743      7736      7739      7742      7744
      7736      7739      7742      7745      7737      7736      7739      7740
      7737      7736      7739      7741      7737      7736      7739      7742
      7738      7736      7739      7740      7738      7736      7739      7741
      7738      7736      7739      7742      7739      7742      7745      7746
      7739      7742      7745      7747      7739      7742      7745      7748
      7740      7739      7742      7743      7740      7739      7742      7744
      7740      7739      7742      7745      7741      7739      7742      7743
      7741      7739      7742      7744      7741      7739      7742      7745
      7742      7745      7748      7749      7742      7745      7748      7750
      7742      7745      7748      7751      7743      7742      7745      7746
      7743      7742      7745      7747      7743      7742      7745      7748
      7744      7742      7745      7746      7744      7742      7745      7747
      7744      7742      7745      7748      7745      7748      7751      7752
      7745      7748      7751      7753      7745      7748      7751      7754
      7746      7745      7748      7749      7746      7745      7748      7750
      7746      7745      7748      7751      7747      7745      7748      7749
      7747      7745      7748      7750      7747      7745      7748      7751
      7748      7751      7754      7755      7748      7751      7754      7756
      7748      7751      7754      7757      7749      7748      7751      7752
      7749      7748      7751      7753      7749      7748      7751      7754
      7750      7748      7751      7752      7750      7748      7751      7753
      7750      7748      7751      7754      7751      7754      7757      7758
      7751      7754      7757      7759      7751      7754      7757      7760
      7752      7751      7754      7755      7752      7751      7754      7756
      7752      7751      7754      7757      7753      7751      7754      7755
      7753      7751      7754      7756      7753      7751      7754      7757
      7754      7757      7760      7761      7754      7757      7760      7762
      7754      7757      7760      7763      7755      7754      7757      7758
      7755      7754      7757      7759      7755      7754      7757      7760
      7756      7754      7757      7758      7756      7754      7757      7759
      7756      7754      7757      7760      7757      7760      7763      7764
      7757      7760      7763      7765      7757      7760      7763      7766
      7758      7757      7760      7761      7758      7757      7760      7762
      7758      7757      7760      7763      7759      7757      7760      7761
      7759      7757      7760      7762      7759      7757      7760      7763
      7760      7763      7766      7767      7760      7763      7766      7768
      7760      7763      7766      7769      7761      7760      7763      7764
      7761      7760      7763      7765      7761      7760      7763      7766
      7762      7760      7763      7764      7762      7760      7763      7765
      7762      7760      7763      7766      7763      7766      7769      7770
      7763      7766      7769      7771      7763      7766      7769      7772
      7764      7763      7766      7767      7764      7763      7766      7768
      7764      7763      7766      7769      7765      7763      7766      7767
      7765      7763      7766      7768      7765      7763      7766      7769
      7767      7766      7769      7770      7767      7766      7769      7771
      7767      7766      7769      7772      7768      7766      7769      7770
      7768      7766      7769      7771      7768      7766      7769      7772
      7773      7774      7789      7790      7773      7774      7789      7791
      7773      7774      7789      7795      7774      7773      7777      7778
      7774      7773      7777      7779      7774      7773      7777      7780
      7774      7773      7781      7782      7774      7773      7781      7783
      7774      7773      7781      7784      7774      7773      7785      7786
      7774      7773      7785      7787      7774      7773      7785      7788
      7774      7789      7795      7792      7775      7774      7773      7777
      7775      7774      7773      7781      7775      7774      7773      7785
      7775      7774      7789      7790      7775      7774      7789      7791
      7775      7774      7789      7795      7776      7774      7773      7777
      7776      7774      7773      7781      7776      7774      7773      7785
      7776      7774      7789      7790      7776      7774      7789      7791
      7776      7774      7789      7795      7777      7773      7774      7789
      7777      7773      7781      7782      7777      7773      7781      7783
      7777      7773      7781      7784      7777      7773      7785      7786
      7777      7773      7785      7787      7777      7773      7785      7788
      7778      7777      7773      7781      7778      7777      7773      7785
      7779      7777      7773      7781      7779      7777      7773      7785
      7780      7777      7773      7781      7780      7777      7773      7785
      7781      7773      7774      7789      7781      7773      7785      7786
      7781      7773      7785      7787      7781      7773      7785      7788
      7782      7781      7773      7785      7783      7781      7773      7785
      7784      7781      7773      7785      7785      7773      7774      7789
      7789      7795      7792      7793      7789      7795      7792      7794
      7789      7795      7792      7796      7790      7789      7795      7792
      7791      7789      7795      7792      7792      7796      7797      7798
      7792      7796      7797      7799      7792      7796      7797      7800
      7793      7792      7796      7797      7794      7792      7796      7797
      7795      7792      7796      7797      7796      7797      7800      7801
      7796      7797      7800      7802      7796      7797      7800      7808
      7797      7800      7802      7803      7797      7800      7808      7809
      7797      7800      7808      7810      7797      7800      7808      7811
      7798      7797      7800      7801      7798      7797      7800      7802
      7798      7797      7800      7808      7799      7797      7800      7801
      7799      7797      7800      7802      7799      7797      7800      7808
      7800      7802      7803      7804      7800      7802      7803      7805
      7800      7808      7811      7812      7801      7800      7802      7803
      7801      7800      7808      7809      7801      7800      7808      7810
      7801      7800      7808      7811      7802      7800      7808      7809
      7802      7800      7808      7810      7802      7800      7808      7811
      7802      7803      7805      7806      7802      7803      7805      7807
      7802      7803      7805      7817      7803      7802      7800      7808
      7803      7805      7817      7818      7803      7805      7817      7819
      7803      7805      7817      7820      7804      7803      7805      7806
      7804      7803      7805      7807      7804      7803      7805      7817
      7805      7817      7820      7821      7805      7817      7820      7822
      7805      7817      7820      7823      7806      7805      7817      7818
      7806      7805      7817      7819      7806      7805      7817      7820
      7807      7805      7817      7818      7807      7805      7817      7819
      7807      7805      7817      7820      7808      7811      7812      7813
      7808      7811      7812      7814      7809      7808      7811      7812
      7810      7808      7811      7812      7811      7812      7814      7815
      7811      7812      7814      7816      7811      7812      7814      7864
      7812      7814      7864      7865      7812      7814      7864      7866
      7812      7814      7864      7867      7813      7812      7814      7815
      7813      7812      7814      7816      7813      7812      7814      7864
      7814      7864      7867      7868      7814      7864      7867      7869
      7814      7864      7867      7870      7815      7814      7864      7865
      7815      7814      7864      7866      7815      7814      7864      7867
      7816      7814      7864      7865      7816      7814      7864      7866
      7816      7814      7864      7867      7817      7820      7823      7824
      7817      7820      7823      7825      7817      7820      7823      7826
      7818      7817      7820      7821      7818      7817      7820      7822
      7818      7817      7820      7823      7819      7817      7820      7821
      7819      7817      7820      7822      7819      7817      7820      7823
      7820      7823      7826      7827      7820      7823      7826      7828
      7820      7823      7826      7829      7821      7820      7823      7824
      7821      7820      7823      7825      7821      7820      7823      7826
      7822      7820      7823      7824      7822      7820      7823      7825
      7822      7820      7823      7826      7823      7826      7829      7830
      7823      7826      7829      7831      7823      7826      7829      7832
      7824      7823      7826      7827      7824      7823      7826      7828
      7824      7823      7826      7829      7825      7823      7826      7827
      7825      7823      7826      7828      7825      7823      7826      7829
      7826      7829      7832      7833      7826      7829      7832      7834
      7826      7829      7832      7835      7827      7826      7829      7830
      7827      7826      7829      7831      7827      7826      7829      7832
      7828      7826      7829      7830      7828      7826      7829      7831
      7828      7826      7829      7832      7829      7832      7835      7836
      7829      7832      7835      7837      7830      7829      7832      7833
      7830      7829      7832      7834      7830      7829      7832      7835
      7831      7829      7832      7833      7831      7829      7832      7834
      7831      7829      7832      7835      7832      7835      7837      7838
      7832      7835      7837      7839      7833      7832      7835      7836
      7833      7832      7835      7837      7834      7832      7835      7836
      7834      7832      7835      7837      7835      7837      7839      7840
      7835      7837      7839      7841      7835      7837      7839      7842
      7836      7835      7837      7838      7836      7835      7837      7839
      7837      7839      7842      7843      7837      7839      7842      7844
      7837      7839      7842      7845      7838      7837      7839      7840
      7838      7837      7839      7841      7838      7837      7839      7842
      7839      7842      7845      7846      7839      7842      7845      7847
      7839      7842      7845      7848      7840      7839      7842      7843
      7840      7839      7842      7844      7840      7839      7842      7845
      7841      7839      7842      7843      7841      7839      7842      7844
      7841      7839      7842      7845      7842      7845      7848      7849
      7842      7845      7848      7850      7842      7845      7848      7851
      7843      7842      7845      7846      7843      7842      7845      7847
      7843      7842      7845      7848      7844      7842      7845      7846
      7844      7842      7845      7847      7844      7842      7845      7848
      7845      7848      7851      7852      7845      7848      7851      7853
      7845      7848      7851      7854      7846      7845      7848      7849
      7846      7845      7848      7850      7846      7845      7848      7851
      7847      7845      7848      7849      7847      7845      7848      7850
      7847      7845      7848      7851      7848      7851      7854      7855
      7848      7851      7854      7856      7848      7851      7854      7857
      7849      7848      7851      7852      7849      7848      7851      7853
      7849      7848      7851      7854      7850      7848      7851      7852
      7850      7848      7851      7853      7850      7848      7851      7854
      7851      7854      7857      7858      7851      7854      7857      7859
      7851      7854      7857      7860      7852      7851      7854      7855
      7852      7851      7854      7856      7852      7851      7854      7857
      7853      7851      7854      7855      7853      7851      7854      7856
      7853      7851      7854      7857      7854      7857      7860      7861
      7854      7857      7860      7862      7854      7857      7860      7863
      7855      7854      7857      7858      7855      7854      7857      7859
      7855      7854      7857      7860      7856      7854      7857      7858
      7856      7854      7857      7859      7856      7854      7857      7860
      7858      7857      7860      7861      7858      7857      7860      7862
      7858      7857      7860      7863      7859      7857      7860      7861
      7859      7857      7860      7862      7859      7857      7860      7863
      7864      7867      7870      7871      7864      7867      7870      7872
      7864      7867      7870      7873      7865      7864      7867      7868
      7865      7864      7867      7869      7865      7864      7867      7870
      7866      7864      7867      7868      7866      7864      7867      7869
      7866      7864      7867      7870      7867      7870      7873      7874
      7867      7870      7873      7875      7867      7870      7873      7876
      7868      7867      7870      7871      7868      7867      7870      7872
      7868      7867      7870      7873      7869      7867      7870      7871
      7869      7867      7870      7872      7869      7867      7870      7873
      7870      7873      7876      7877      7870      7873      7876      7878
      7870      7873      7876      7879      7871      7870      7873      7874
      7871      7870      7873      7875      7871      7870      7873      7876
      7872      7870      7873      7874      7872      7870      7873      7875
      7872      7870      7873      7876      7873      7876      7879      7880
      7873      7876      7879      7881      7873      7876      7879      7882
      7874      7873      7876      7877      7874      7873      7876      7878
      7874      7873      7876      7879      7875      7873      7876      7877
      7875      7873      7876      7878      7875      7873      7876      7879
      7876      7879      7882      7883      7876      7879      7882      7884
      7876      7879      7882      7885      7877      7876      7879      7880
      7877      7876      7879      7881      7877      7876      7879      7882
      7878      7876      7879      7880      7878      7876      7879      7881
      7878      7876      7879      7882      7879      7882      7885      7886
      7879      7882      7885      7887      7879      7882      7885      7888
      7880      7879      7882      7883      7880      7879      7882      7884
      7880      7879      7882      7885      7881      7879      7882      7883
      7881      7879      7882      7884      7881      7879      7882      7885
      7882      7885      7888      7889      7882      7885      7888      7890
      7882      7885      7888      7891      7883      7882      7885      7886
      7883      7882      7885      7887      7883      7882      7885      7888
      7884      7882      7885      7886      7884      7882      7885      7887
      7884      7882      7885      7888      7885      7888      7891      7892
      7885      7888      7891      7893      7885      7888      7891      7894
      7886      7885      7888      7889      7886      7885      7888      7890
      7886      7885      7888      7891      7887      7885      7888      7889
      7887      7885      7888      7890      7887      7885      7888      7891
      7888      7891      7894      7895      7888      7891      7894      7896
      7888      7891      7894      7897      7889      7888      7891      7892
      7889      7888      7891      7893      7889      7888      7891      7894
      7890      7888      7891      7892      7890      7888      7891      7893
      7890      7888      7891      7894      7891      7894      7897      7898
      7891      7894      7897      7899      7891      7894      7897      7900
      7892      7891      7894      7895      7892      7891      7894      7896
      7892      7891      7894      7897      7893      7891      7894      7895
      7893      7891      7894      7896      7893      7891      7894      7897
      7894      7897      7900      7901      7894      7897      7900      7902
      7894      7897      7900      7903      7895      7894      7897      7898
      7895      7894      7897      7899      7895      7894      7897      7900
      7896      7894      7897      7898      7896      7894      7897      7899
      7896      7894      7897      7900      7897      7900      7903      7904
      7897      7900      7903      7905      7897      7900      7903      7906
      7898      7897      7900      7901      7898      7897      7900      7902
      7898      7897      7900      7903      7899      7897      7900      7901
      7899      7897      7900      7902      7899      7897      7900      7903
      7901      7900      7903      7904      7901      7900      7903      7905
      7901      7900      7903      7906      7902      7900      7903      7904
      7902      7900      7903      7905      7902      7900      7903      7906
      7907      7908      7923      7924      7907      7908      7923      7925
      7907      7908      7923      7929      7908      7907      7911      7912
      7908      7907      7911      7913      7908      7907      7911      7914
      7908      7907      7915      7916      7908      7907      7915      7917
      7908      7907      7915      7918      7908      7907      7919      7920
      7908      7907      7919      7921      7908      7907      7919      7922
      7908      7923      7929      7926      7909      7908      7907      7911
      7909      7908      7907      7915      7909      7908      7907      7919
      7909      7908      7923      7924      7909      7908      7923      7925
      7909      7908      7923      7929      7910      7908      7907      7911
      7910      7908      7907      7915      7910      7908      7907      7919
      7910      7908      7923      7924      7910      7908      7923      7925
      7910      7908      7923      7929      7911      7907      7908      7923
      7911      7907      7915      7916      7911      7907      7915      7917
      7911      7907      7915      7918      7911      7907      7919      7920
      7911      7907      7919      7921      7911      7907      7919      7922
      7912      7911      7907      7915      7912      7911      7907      7919
      7913      7911      7907      7915      7913      7911      7907      7919
      7914      7911      7907      7915      7914      7911      7907      7919
      7915      7907      7908      7923      7915      7907      7919      7920
      7915      7907      7919      7921      7915      7907      7919      7922
      7916      7915      7907      7919      7917      7915      7907      7919
      7918      7915      7907      7919      7919      7907      7908      7923
      7923      7929      7926      7927      7923      7929      7926      7928
      7923      7929      7926      7930      7924      7923      7929      7926
      7925      7923      7929      7926      7926      7930      7931      7932
      7926      7930      7931      7933      7926      7930      7931      7934
      7927      7926      7930      7931      7928      7926      7930      7931
      7929      7926      7930      7931      7930      7931      7934      7935
      7930      7931      7934      7936      7930      7931      7934      7942
      7931      7934      7936      7937      7931      7934      7942      7943
      7931      7934      7942      7944      7931      7934      7942      7945
      7932      7931      7934      7935      7932      7931      7934      7936
      7932      7931      7934      7942      7933      7931      7934      7935
      7933      7931      7934      7936      7933      7931      7934      7942
      7934      7936      7937      7938      7934      7936      7937      7939
      7934      7942      7945      7946      7935      7934      7936      7937
      7935      7934      7942      7943      7935      7934      7942      7944
      7935      7934      7942      7945      7936      7934      7942      7943
      7936      7934      7942      7944      7936      7934      7942      7945
      7936      7937      7939      7940      7936      7937      7939      7941
      7936      7937      7939      7951      7937      7936      7934      7942
      7937      7939      7951      7952      7937      7939      7951      7953
      7937      7939      7951      7954      7938      7937      7939      7940
      7938      7937      7939      7941      7938      7937      7939      7951
      7939      7951      7954      7955      7939      7951      7954      7956
      7939      7951      7954      7957      7940      7939      7951      7952
      7940      7939      7951      7953      7940      7939      7951      7954
      7941      7939      7951      7952      7941      7939      7951      7953
      7941      7939      7951      7954      7942      7945      7946      7947
      7942      7945      7946      7948      7943      7942      7945      7946
      7944      7942      7945      7946      7945      7946      7948      7949
      7945      7946      7948      7950      7945      7946      7948      7998
      7946      7948      7998      7999      7946      7948      7998      8000
      7946      7948      7998      8001      7947      7946      7948      7949
      7947      7946      7948      7950      7947      7946      7948      7998
      7948      7998      8001      8002      7948      7998      8001      8003
      7948      7998      8001      8004      7949      7948      7998      7999
      7949      7948      7998      8000      7949      7948      7998      8001
      7950      7948      7998      7999      7950      7948      7998      8000
      7950      7948      7998      8001      7951      7954      7957      7958
      7951      7954      7957      7959      7951      7954      7957      7960
      7952      7951      7954      7955      7952      7951      7954      7956
      7952      7951      7954      7957      7953      7951      7954      7955
      7953      7951      7954      7956      7953      7951      7954      7957
      7954      7957      7960      7961      7954      7957      7960      7962
      7954      7957      7960      7963      7955      7954      7957      7958
      7955      7954      7957      7959      7955      7954      7957      7960
      7956      7954      7957      7958      7956      7954      7957      7959
      7956      7954      7957      7960      7957      7960      7963      7964
      7957      7960      7963      7965      7957      7960      7963      7966
      7958      7957      7960      7961      7958      7957      7960      7962
      7958      7957      7960      7963      7959      7957      7960      7961
      7959      7957      7960      7962      7959      7957      7960      7963
      7960      7963      7966      7967      7960      7963      7966      7968
      7960      7963      7966      7969      7961      7960      7963      7964
      7961      7960      7963      7965      7961      7960      7963      7966
      7962      7960      7963      7964      7962      7960      7963      7965
      7962      7960      7963      7966      7963      7966      7969      7970
      7963      7966      7969      7971      7964      7963      7966      7967
      7964      7963      7966      7968      7964      7963      7966      7969
      7965      7963      7966      7967      7965      7963      7966      7968
      7965      7963      7966      7969      7966      7969      7971      7972
      7966      7969      7971      7973      7967      7966      7969      7970
      7967      7966      7969      7971      7968      7966      7969      7970
      7968      7966      7969      7971      7969      7971      7973      7974
      7969      7971      7973      7975      7969      7971      7973      7976
      7970      7969      7971      7972      7970      7969      7971      7973
      7971      7973      7976      7977      7971      7973      7976      7978
      7971      7973      7976      7979      7972      7971      7973      7974
      7972      7971      7973      7975      7972      7971      7973      7976
      7973      7976      7979      7980      7973      7976      7979      7981
      7973      7976      7979      7982      7974      7973      7976      7977
      7974      7973      7976      7978      7974      7973      7976      7979
      7975      7973      7976      7977      7975      7973      7976      7978
      7975      7973      7976      7979      7976      7979      7982      7983
      7976      7979      7982      7984      7976      7979      7982      7985
      7977      7976      7979      7980      7977      7976      7979      7981
      7977      7976      7979      7982      7978      7976      7979      7980
      7978      7976      7979      7981      7978      7976      7979      7982
      7979      7982      7985      7986      7979      7982      7985      7987
      7979      7982      7985      7988      7980      7979      7982      7983
      7980      7979      7982      7984      7980      7979      7982      7985
      7981      7979      7982      7983      7981      7979      7982      7984
      7981      7979      7982      7985      7982      7985      7988      7989
      7982      7985      7988      7990      7982      7985      7988      7991
      7983      7982      7985      7986      7983      7982      7985      7987
      7983      7982      7985      7988      7984      7982      7985      7986
      7984      7982      7985      7987      7984      7982      7985      7988
      7985      7988      7991      7992      7985      7988      7991      7993
      7985      7988      7991      7994      7986      7985      7988      7989
      7986      7985      7988      7990      7986      7985      7988      7991
      7987      7985      7988      7989      7987      7985      7988      7990
      7987      7985      7988      7991      7988      7991      7994      7995
      7988      7991      7994      7996      7988      7991      7994      7997
      7989      7988      7991      7992      7989      7988      7991      7993
      7989      7988      7991      7994      7990      7988      7991      7992
      7990      7988      7991      7993      7990      7988      7991      7994
      7992      7991      7994      7995      7992      7991      7994      7996
      7992      7991      7994      7997      7993      7991      7994      7995
      7993      7991      7994      7996      7993      7991      7994      7997
      7998      8001      8004      8005      7998      8001      8004      8006
      7998      8001      8004      8007      7999      7998      8001      8002
      7999      7998      8001      8003      7999      7998      8001      8004
      8000      7998      8001      8002      8000      7998      8001      8003
      8000      7998      8001      8004      8001      8004      8007      8008
      8001      8004      8007      8009      8001      8004      8007      8010
      8002      8001      8004      8005      8002      8001      8004      8006
      8002      8001      8004      8007      8003      8001      8004      8005
      8003      8001      8004      8006      8003      8001      8004      8007
      8004      8007      8010      8011      8004      8007      8010      8012
      8004      8007      8010      8013      8005      8004      8007      8008
      8005      8004      8007      8009      8005      8004      8007      8010
      8006      8004      8007      8008      8006      8004      8007      8009
      8006      8004      8007      8010      8007      8010      8013      8014
      8007      8010      8013      8015      8007      8010      8013      8016
      8008      8007      8010      8011      8008      8007      8010      8012
      8008      8007      8010      8013      8009      8007      8010      8011
      8009      8007      8010      8012      8009      8007      8010      8013
      8010      8013      8016      8017      8010      8013      8016      8018
      8010      8013      8016      8019      8011      8010      8013      8014
      8011      8010      8013      8015      8011      8010      8013      8016
      8012      8010      8013      8014      8012      8010      8013      8015
      8012      8010      8013      8016      8013      8016      8019      8020
      8013      8016      8019      8021      8013      8016      8019      8022
      8014      8013      8016      8017      8014      8013      8016      8018
      8014      8013      8016      8019      8015      8013      8016      8017
      8015      8013      8016      8018      8015      8013      8016      8019
      8016      8019      8022      8023      8016      8019      8022      8024
      8016      8019      8022      8025      8017      8016      8019      8020
      8017      8016      8019      8021      8017      8016      8019      8022
      8018      8016      8019      8020      8018      8016      8019      8021
      8018      8016      8019      8022      8019      8022      8025      8026
      8019      8022      8025      8027      8019      8022      8025      8028
      8020      8019      8022      8023      8020      8019      8022      8024
      8020      8019      8022      8025      8021      8019      8022      8023
      8021      8019      8022      8024      8021      8019      8022      8025
      8022      8025      8028      8029      8022      8025      8028      8030
      8022      8025      8028      8031      8023      8022      8025      8026
      8023      8022      8025      8027      8023      8022      8025      8028
      8024      8022      8025      8026      8024      8022      8025      8027
      8024      8022      8025      8028      8025      8028      8031      8032
      8025      8028      8031      8033      8025      8028      8031      8034
      8026      8025      8028      8029      8026      8025      8028      8030
      8026      8025      8028      8031      8027      8025      8028      8029
      8027      8025      8028      8030      8027      8025      8028      8031
      8028      8031      8034      8035      8028      8031      8034      8036
      8028      8031      8034      8037      8029      8028      8031      8032
      8029      8028      8031      8033      8029      8028      8031      8034
      8030      8028      8031      8032      8030      8028      8031      8033
      8030      8028      8031      8034      8031      8034      8037      8038
      8031      8034      8037      8039      8031      8034      8037      8040
      8032      8031      8034      8035      8032      8031      8034      8036
      8032      8031      8034      8037      8033      8031      8034      8035
      8033      8031      8034      8036      8033      8031      8034      8037
      8035      8034      8037      8038      8035      8034      8037      8039
      8035      8034      8037      8040      8036      8034      8037      8038
      8036      8034      8037      8039      8036      8034      8037      8040
      8041      8042      8057      8058      8041      8042      8057      8059
      8041      8042      8057      8063      8042      8041      8045      8046
      8042      8041      8045      8047      8042      8041      8045      8048
      8042      8041      8049      8050      8042      8041      8049      8051
      8042      8041      8049      8052      8042      8041      8053      8054
      8042      8041      8053      8055      8042      8041      8053      8056
      8042      8057      8063      8060      8043      8042      8041      8045
      8043      8042      8041      8049      8043      8042      8041      8053
      8043      8042      8057      8058      8043      8042      8057      8059
      8043      8042      8057      8063      8044      8042      8041      8045
      8044      8042      8041      8049      8044      8042      8041      8053
      8044      8042      8057      8058      8044      8042      8057      8059
      8044      8042      8057      8063      8045      8041      8042      8057
      8045      8041      8049      8050      8045      8041      8049      8051
      8045      8041      8049      8052      8045      8041      8053      8054
      8045      8041      8053      8055      8045      8041      8053      8056
      8046      8045      8041      8049      8046      8045      8041      8053
      8047      8045      8041      8049      8047      8045      8041      8053
      8048      8045      8041      8049      8048      8045      8041      8053
      8049      8041      8042      8057      8049      8041      8053      8054
      8049      8041      8053      8055      8049      8041      8053      8056
      8050      8049      8041      8053      8051      8049      8041      8053
      8052      8049      8041      8053      8053      8041      8042      8057
      8057      8063      8060      8061      8057      8063      8060      8062
      8057      8063      8060      8064      8058      8057      8063      8060
      8059      8057      8063      8060      8060      8064      8065      8066
      8060      8064      8065      8067      8060      8064      8065      8068
      8061      8060      8064      8065      8062      8060      8064      8065
      8063      8060      8064      8065      8064      8065      8068      8069
      8064      8065      8068      8070      8064      8065      8068      8076
      8065      8068      8070      8071      8065      8068      8076      8077
      8065      8068      8076      8078      8065      8068      8076      8079
      8066      8065      8068      8069      8066      8065      8068      8070
      8066      8065      8068      8076      8067      8065      8068      8069
      8067      8065      8068      8070      8067      8065      8068      8076
      8068      8070      8071      8072      8068      8070      8071      8073
      8068      8076      8079      8080      8069      8068      8070      8071
      8069      8068      8076      8077      8069      8068      8076      8078
      8069      8068      8076      8079      8070      8068      8076      8077
      8070      8068      8076      8078      8070      8068      8076      8079
      8070      8071      8073      8074      8070      8071      8073      8075
      8070      8071      8073      8085      8071      8070      8068      8076
      8071      8073      8085      8086      8071      8073      8085      8087
      8071      8073      8085      8088      8072      8071      8073      8074
      8072      8071      8073      8075      8072      8071      8073      8085
      8073      8085      8088      8089      8073      8085      8088      8090
      8073      8085      8088      8091      8074      8073      8085      8086
      8074      8073      8085      8087      8074      8073      8085      8088
      8075      8073      8085      8086      8075      8073      8085      8087
      8075      8073      8085      8088      8076      8079      8080      8081
      8076      8079      8080      8082      8077      8076      8079      8080
      8078      8076      8079      8080      8079      8080      8082      8083
      8079      8080      8082      8084      8079      8080      8082      8132
      8080      8082      8132      8133      8080      8082      8132      8134
      8080      8082      8132      8135      8081      8080      8082      8083
      8081      8080      8082      8084      8081      8080      8082      8132
      8082      8132      8135      8136      8082      8132      8135      8137
      8082      8132      8135      8138      8083      8082      8132      8133
      8083      8082      8132      8134      8083      8082      8132      8135
      8084      8082      8132      8133      8084      8082      8132      8134
      8084      8082      8132      8135      8085      8088      8091      8092
      8085      8088      8091      8093      8085      8088      8091      8094
      8086      8085      8088      8089      8086      8085      8088      8090
      8086      8085      8088      8091      8087      8085      8088      8089
      8087      8085      8088      8090      8087      8085      8088      8091
      8088      8091      8094      8095      8088      8091      8094      8096
      8088      8091      8094      8097      8089      8088      8091      8092
      8089      8088      8091      8093      8089      8088      8091      8094
      8090      8088      8091      8092      8090      8088      8091      8093
      8090      8088      8091      8094      8091      8094      8097      8098
      8091      8094      8097      8099      8091      8094      8097      8100
      8092      8091      8094      8095      8092      8091      8094      8096
      8092      8091      8094      8097      8093      8091      8094      8095
      8093      8091      8094      8096      8093      8091      8094      8097
      8094      8097      8100      8101      8094      8097      8100      8102
      8094      8097      8100      8103      8095      8094      8097      8098
      8095      8094      8097      8099      8095      8094      8097      8100
      8096      8094      8097      8098      8096      8094      8097      8099
      8096      8094      8097      8100      8097      8100      8103      8104
      8097      8100      8103      8105      8098      8097      8100      8101
      8098      8097      8100      8102      8098      8097      8100      8103
      8099      8097      8100      8101      8099      8097      8100      8102
      8099      8097      8100      8103      8100      8103      8105      8106
      8100      8103      8105      8107      8101      8100      8103      8104
      8101      8100      8103      8105      8102      8100      8103      8104
      8102      8100      8103      8105      8103      8105      8107      8108
      8103      8105      8107      8109      8103      8105      8107      8110
      8104      8103      8105      8106      8104      8103      8105      8107
      8105      8107      8110      8111      8105      8107      8110      8112
      8105      8107      8110      8113      8106      8105      8107      8108
      8106      8105      8107      8109      8106      8105      8107      8110
      8107      8110      8113      8114      8107      8110      8113      8115
      8107      8110      8113      8116      8108      8107      8110      8111
      8108      8107      8110      8112      8108      8107      8110      8113
      8109      8107      8110      8111      8109      8107      8110      8112
      8109      8107      8110      8113      8110      8113      8116      8117
      8110      8113      8116      8118      8110      8113      8116      8119
      8111      8110      8113      8114      8111      8110      8113      8115
      8111      8110      8113      8116      8112      8110      8113      8114
      8112      8110      8113      8115      8112      8110      8113      8116
      8113      8116      8119      8120      8113      8116      8119      8121
      8113      8116      8119      8122      8114      8113      8116      8117
      8114      8113      8116      8118      8114      8113      8116      8119
      8115      8113      8116      8117      8115      8113      8116      8118
      8115      8113      8116      8119      8116      8119      8122      8123
      8116      8119      8122      8124      8116      8119      8122      8125
      8117      8116      8119      8120      8117      8116      8119      8121
      8117      8116      8119      8122      8118      8116      8119      8120
      8118      8116      8119      8121      8118      8116      8119      8122
      8119      8122      8125      8126      8119      8122      8125      8127
      8119      8122      8125      8128      8120      8119      8122      8123
      8120      8119      8122      8124      8120      8119      8122      8125
      8121      8119      8122      8123      8121      8119      8122      8124
      8121      8119      8122      8125      8122      8125      8128      8129
      8122      8125      8128      8130      8122      8125      8128      8131
      8123      8122      8125      8126      8123      8122      8125      8127
      8123      8122      8125      8128      8124      8122      8125      8126
      8124      8122      8125      8127      8124      8122      8125      8128
      8126      8125      8128      8129      8126      8125      8128      8130
      8126      8125      8128      8131      8127      8125      8128      8129
      8127      8125      8128      8130      8127      8125      8128      8131
      8132      8135      8138      8139      8132      8135      8138      8140
      8132      8135      8138      8141      8133      8132      8135      8136
      8133      8132      8135      8137      8133      8132      8135      8138
      8134      8132      8135      8136      8134      8132      8135      8137
      8134      8132      8135      8138      8135      8138      8141      8142
      8135      8138      8141      8143      8135      8138      8141      8144
      8136      8135      8138      8139      8136      8135      8138      8140
      8136      8135      8138      8141      8137      8135      8138      8139
      8137      8135      8138      8140      8137      8135      8138      8141
      8138      8141      8144      8145      8138      8141      8144      8146
      8138      8141      8144      8147      8139      8138      8141      8142
      8139      8138      8141      8143      8139      8138      8141      8144
      8140      8138      8141      8142      8140      8138      8141      8143
      8140      8138      8141      8144      8141      8144      8147      8148
      8141      8144      8147      8149      8141      8144      8147      8150
      8142      8141      8144      8145      8142      8141      8144      8146
      8142      8141      8144      8147      8143      8141      8144      8145
      8143      8141      8144      8146      8143      8141      8144      8147
      8144      8147      8150      8151      8144      8147      8150      8152
      8144      8147      8150      8153      8145      8144      8147      8148
      8145      8144      8147      8149      8145      8144      8147      8150
      8146      8144      8147      8148      8146      8144      8147      8149
      8146      8144      8147      8150      8147      8150      8153      8154
      8147      8150      8153      8155      8147      8150      8153      8156
      8148      8147      8150      8151      8148      8147      8150      8152
      8148      8147      8150      8153      8149      8147      8150      8151
      8149      8147      8150      8152      8149      8147      8150      8153
      8150      8153      8156      8157      8150      8153      8156      8158
      8150      8153      8156      8159      8151      8150      8153      8154
      8151      8150      8153      8155      8151      8150      8153      8156
      8152      8150      8153      8154      8152      8150      8153      8155
      8152      8150      8153      8156      8153      8156      8159      8160
      8153      8156      8159      8161      8153      8156      8159      8162
      8154      8153      8156      8157      8154      8153      8156      8158
      8154      8153      8156      8159      8155      8153      8156      8157
      8155      8153      8156      8158      8155      8153      8156      8159
      8156      8159      8162      8163      8156      8159      8162      8164
      8156      8159      8162      8165      8157      8156      8159      8160
      8157      8156      8159      8161      8157      8156      8159      8162
      8158      8156      8159      8160      8158      8156      8159      8161
      8158      8156      8159      8162      8159      8162      8165      8166
      8159      8162      8165      8167      8159      8162      8165      8168
      8160      8159      8162      8163      8160      8159      8162      8164
      8160      8159      8162      8165      8161      8159      8162      8163
      8161      8159      8162      8164      8161      8159      8162      8165
      8162      8165      8168      8169      8162      8165      8168      8170
      8162      8165      8168      8171      8163      8162      8165      8166
      8163      8162      8165      8167      8163      8162      8165      8168
      8164      8162      8165      8166      8164      8162      8165      8167
      8164      8162      8165      8168      8165      8168      8171      8172
      8165      8168      8171      8173      8165      8168      8171      8174
      8166      8165      8168      8169      8166      8165      8168      8170
      8166      8165      8168      8171      8167      8165      8168      8169
      8167      8165      8168      8170      8167      8165      8168      8171
      8169      8168      8171      8172      8169      8168      8171      8173
      8169      8168      8171      8174      8170      8168      8171      8172
      8170      8168      8171      8173      8170      8168      8171      8174
      8175      8176      8191      8192      8175      8176      8191      8193
      8175      8176      8191      8197      8176      8175      8179      8180
      8176      8175      8179      8181      8176      8175      8179      8182
      8176      8175      8183      8184      8176      8175      8183      8185
      8176      8175      8183      8186      8176      8175      8187      8188
      8176      8175      8187      8189      8176      8175      8187      8190
      8176      8191      8197      8194      8177      8176      8175      8179
      8177      8176      8175      8183      8177      8176      8175      8187
      8177      8176      8191      8192      8177      8176      8191      8193
      8177      8176      8191      8197      8178      8176      8175      8179
      8178      8176      8175      8183      8178      8176      8175      8187
      8178      8176      8191      8192      8178      8176      8191      8193
      8178      8176      8191      8197      8179      8175      8176      8191
      8179      8175      8183      8184      8179      8175      8183      8185
      8179      8175      8183      8186      8179      8175      8187      8188
      8179      8175      8187      8189      8179      8175      8187      8190
      8180      8179      8175      8183      8180      8179      8175      8187
      8181      8179      8175      8183      8181      8179      8175      8187
      8182      8179      8175      8183      8182      8179      8175      8187
      8183      8175      8176      8191      8183      8175      8187      8188
      8183      8175      8187      8189      8183      8175      8187      8190
      8184      8183      8175      8187      8185      8183      8175      8187
      8186      8183      8175      8187      8187      8175      8176      8191
      8191      8197      8194      8195      8191      8197      8194      8196
      8191      8197      8194      8198      8192      8191      8197      8194
      8193      8191      8197      8194      8194      8198      8199      8200
      8194      8198      8199      8201      8194      8198      8199      8202
      8195      8194      8198      8199      8196      8194      8198      8199
      8197      8194      8198      8199      8198      8199      8202      8203
      8198      8199      8202      8204      8198      8199      8202      8210
      8199      8202      8204      8205      8199      8202      8210      8211
      8199      8202      8210      8212      8199      8202      8210      8213
      8200      8199      8202      8203      8200      8199      8202      8204
      8200      8199      8202      8210      8201      8199      8202      8203
      8201      8199      8202      8204      8201      8199      8202      8210
      8202      8204      8205      8206      8202      8204      8205      8207
      8202      8210      8213      8214      8203      8202      8204      8205
      8203      8202      8210      8211      8203      8202      8210      8212
      8203      8202      8210      8213      8204      8202      8210      8211
      8204      8202      8210      8212      8204      8202      8210      8213
      8204      8205      8207      8208      8204      8205      8207      8209
      8204      8205      8207      8219      8205      8204      8202      8210
      8205      8207      8219      8220      8205      8207      8219      8221
      8205      8207      8219      8222      8206      8205      8207      8208
      8206      8205      8207      8209      8206      8205      8207      8219
      8207      8219      8222      8223      8207      8219      8222      8224
      8207      8219      8222      8225      8208      8207      8219      8220
      8208      8207      8219      8221      8208      8207      8219      8222
      8209      8207      8219      8220      8209      8207      8219      8221
      8209      8207      8219      8222      8210      8213      8214      8215
      8210      8213      8214      8216      8211      8210      8213      8214
      8212      8210      8213      8214      8213      8214      8216      8217
      8213      8214      8216      8218      8213      8214      8216      8266
      8214      8216      8266      8267      8214      8216      8266      8268
      8214      8216      8266      8269      8215      8214      8216      8217
      8215      8214      8216      8218      8215      8214      8216      8266
      8216      8266      8269      8270      8216      8266      8269      8271
      8216      8266      8269      8272      8217      8216      8266      8267
      8217      8216      8266      8268      8217      8216      8266      8269
      8218      8216      8266      8267      8218      8216      8266      8268
      8218      8216      8266      8269      8219      8222      8225      8226
      8219      8222      8225      8227      8219      8222      8225      8228
      8220      8219      8222      8223      8220      8219      8222      8224
      8220      8219      8222      8225      8221      8219      8222      8223
      8221      8219      8222      8224      8221      8219      8222      8225
      8222      8225      8228      8229      8222      8225      8228      8230
      8222      8225      8228      8231      8223      8222      8225      8226
      8223      8222      8225      8227      8223      8222      8225      8228
      8224      8222      8225      8226      8224      8222      8225      8227
      8224      8222      8225      8228      8225      8228      8231      8232
      8225      8228      8231      8233      8225      8228      8231      8234
      8226      8225      8228      8229      8226      8225      8228      8230
      8226      8225      8228      8231      8227      8225      8228      8229
      8227      8225      8228      8230      8227      8225      8228      8231
      8228      8231      8234      8235      8228      8231      8234      8236
      8228      8231      8234      8237      8229      8228      8231      8232
      8229      8228      8231      8233      8229      8228      8231      8234
      8230      8228      8231      8232      8230      8228      8231      8233
      8230      8228      8231      8234      8231      8234      8237      8238
      8231      8234      8237      8239      8232      8231      8234      8235
      8232      8231      8234      8236      8232      8231      8234      8237
      8233      8231      8234      8235      8233      8231      8234      8236
      8233      8231      8234      8237      8234      8237      8239      8240
      8234      8237      8239      8241      8235      8234      8237      8238
      8235      8234      8237      8239      8236      8234      8237      8238
      8236      8234      8237      8239      8237      8239      8241      8242
      8237      8239      8241      8243      8237      8239      8241      8244
      8238      8237      8239      8240      8238      8237      8239      8241
      8239      8241      8244      8245      8239      8241      8244      8246
      8239      8241      8244      8247      8240      8239      8241      8242
      8240      8239      8241      8243      8240      8239      8241      8244
      8241      8244      8247      8248      8241      8244      8247      8249
      8241      8244      8247      8250      8242      8241      8244      8245
      8242      8241      8244      8246      8242      8241      8244      8247
      8243      8241      8244      8245      8243      8241      8244      8246
      8243      8241      8244      8247      8244      8247      8250      8251
      8244      8247      8250      8252      8244      8247      8250      8253
      8245      8244      8247      8248      8245      8244      8247      8249
      8245      8244      8247      8250      8246      8244      8247      8248
      8246      8244      8247      8249      8246      8244      8247      8250
      8247      8250      8253      8254      8247      8250      8253      8255
      8247      8250      8253      8256      8248      8247      8250      8251
      8248      8247      8250      8252      8248      8247      8250      8253
      8249      8247      8250      8251      8249      8247      8250      8252
      8249      8247      8250      8253      8250      8253      8256      8257
      8250      8253      8256      8258      8250      8253      8256      8259
      8251      8250      8253      8254      8251      8250      8253      8255
      8251      8250      8253      8256      8252      8250      8253      8254
      8252      8250      8253      8255      8252      8250      8253      8256
      8253      8256      8259      8260      8253      8256      8259      8261
      8253      8256      8259      8262      8254      8253      8256      8257
      8254      8253      8256      8258      8254      8253      8256      8259
      8255      8253      8256      8257      8255      8253      8256      8258
      8255      8253      8256      8259      8256      8259      8262      8263
      8256      8259      8262      8264      8256      8259      8262      8265
      8257      8256      8259      8260      8257      8256      8259      8261
      8257      8256      8259      8262      8258      8256      8259      8260
      8258      8256      8259      8261      8258      8256      8259      8262
      8260      8259      8262      8263      8260      8259      8262      8264
      8260      8259      8262      8265      8261      8259      8262      8263
      8261      8259      8262      8264      8261      8259      8262      8265
      8266      8269      8272      8273      8266      8269      8272      8274
      8266      8269      8272      8275      8267      8266      8269      8270
      8267      8266      8269      8271      8267      8266      8269      8272
      8268      8266      8269      8270      8268      8266      8269      8271
      8268      8266      8269      8272      8269      8272      8275      8276
      8269      8272      8275      8277      8269      8272      8275      8278
      8270      8269      8272      8273      8270      8269      8272      8274
      8270      8269      8272      8275      8271      8269      8272      8273
      8271      8269      8272      8274      8271      8269      8272      8275
      8272      8275      8278      8279      8272      8275      8278      8280
      8272      8275      8278      8281      8273      8272      8275      8276
      8273      8272      8275      8277      8273      8272      8275      8278
      8274      8272      8275      8276      8274      8272      8275      8277
      8274      8272      8275      8278      8275      8278      8281      8282
      8275      8278      8281      8283      8275      8278      8281      8284
      8276      8275      8278      8279      8276      8275      8278      8280
      8276      8275      8278      8281      8277      8275      8278      8279
      8277      8275      8278      8280      8277      8275      8278      8281
      8278      8281      8284      8285      8278      8281      8284      8286
      8278      8281      8284      8287      8279      8278      8281      8282
      8279      8278      8281      8283      8279      8278      8281      8284
      8280      8278      8281      8282      8280      8278      8281      8283
      8280      8278      8281      8284      8281      8284      8287      8288
      8281      8284      8287      8289      8281      8284      8287      8290
      8282      8281      8284      8285      8282      8281      8284      8286
      8282      8281      8284      8287      8283      8281      8284      8285
      8283      8281      8284      8286      8283      8281      8284      8287
      8284      8287      8290      8291      8284      8287      8290      8292
      8284      8287      8290      8293      8285      8284      8287      8288
      8285      8284      8287      8289      8285      8284      8287      8290
      8286      8284      8287      8288      8286      8284      8287      8289
      8286      8284      8287      8290      8287      8290      8293      8294
      8287      8290      8293      8295      8287      8290      8293      8296
      8288      8287      8290      8291      8288      8287      8290      8292
      8288      8287      8290      8293      8289      8287      8290      8291
      8289      8287      8290      8292      8289      8287      8290      8293
      8290      8293      8296      8297      8290      8293      8296      8298
      8290      8293      8296      8299      8291      8290      8293      8294
      8291      8290      8293      8295      8291      8290      8293      8296
      8292      8290      8293      8294      8292      8290      8293      8295
      8292      8290      8293      8296      8293      8296      8299      8300
      8293      8296      8299      8301      8293      8296      8299      8302
      8294      8293      8296      8297      8294      8293      8296      8298
      8294      8293      8296      8299      8295      8293      8296      8297
      8295      8293      8296      8298      8295      8293      8296      8299
      8296      8299      8302      8303      8296      8299      8302      8304
      8296      8299      8302      8305      8297      8296      8299      8300
      8297      8296      8299      8301      8297      8296      8299      8302
      8298      8296      8299      8300      8298      8296      8299      8301
      8298      8296      8299      8302      8299      8302      8305      8306
      8299      8302      8305      8307      8299      8302      8305      8308
      8300      8299      8302      8303      8300      8299      8302      8304
      8300      8299      8302      8305      8301      8299      8302      8303
      8301      8299      8302      8304      8301      8299      8302      8305
      8303      8302      8305      8306      8303      8302      8305      8307
      8303      8302      8305      8308      8304      8302      8305      8306
      8304      8302      8305      8307      8304      8302      8305      8308
      8309      8310      8325      8326      8309      8310      8325      8327
      8309      8310      8325      8331      8310      8309      8313      8314
      8310      8309      8313      8315      8310      8309      8313      8316
      8310      8309      8317      8318      8310      8309      8317      8319
      8310      8309      8317      8320      8310      8309      8321      8322
      8310      8309      8321      8323      8310      8309      8321      8324
      8310      8325      8331      8328      8311      8310      8309      8313
      8311      8310      8309      8317      8311      8310      8309      8321
      8311      8310      8325      8326      8311      8310      8325      8327
      8311      8310      8325      8331      8312      8310      8309      8313
      8312      8310      8309      8317      8312      8310      8309      8321
      8312      8310      8325      8326      8312      8310      8325      8327
      8312      8310      8325      8331      8313      8309      8310      8325
      8313      8309      8317      8318      8313      8309      8317      8319
      8313      8309      8317      8320      8313      8309      8321      8322
      8313      8309      8321      8323      8313      8309      8321      8324
      8314      8313      8309      8317      8314      8313      8309      8321
      8315      8313      8309      8317      8315      8313      8309      8321
      8316      8313      8309      8317      8316      8313      8309      8321
      8317      8309      8310      8325      8317      8309      8321      8322
      8317      8309      8321      8323      8317      8309      8321      8324
      8318      8317      8309      8321      8319      8317      8309      8321
      8320      8317      8309      8321      8321      8309      8310      8325
      8325      8331      8328      8329      8325      8331      8328      8330
      8325      8331      8328      8332      8326      8325      8331      8328
      8327      8325      8331      8328      8328      8332      8333      8334
      8328      8332      8333      8335      8328      8332      8333      8336
      8329      8328      8332      8333      8330      8328      8332      8333
      8331      8328      8332      8333      8332      8333      8336      8337
      8332      8333      8336      8338      8332      8333      8336      8344
      8333      8336      8338      8339      8333      8336      8344      8345
      8333      8336      8344      8346      8333      8336      8344      8347
      8334      8333      8336      8337      8334      8333      8336      8338
      8334      8333      8336      8344      8335      8333      8336      8337
      8335      8333      8336      8338      8335      8333      8336      8344
      8336      8338      8339      8340      8336      8338      8339      8341
      8336      8344      8347      8348      8337      8336      8338      8339
      8337      8336      8344      8345      8337      8336      8344      8346
      8337      8336      8344      8347      8338      8336      8344      8345
      8338      8336      8344      8346      8338      8336      8344      8347
      8338      8339      8341      8342      8338      8339      8341      8343
      8338      8339      8341      8353      8339      8338      8336      8344
      8339      8341      8353      8354      8339      8341      8353      8355
      8339      8341      8353      8356      8340      8339      8341      8342
      8340      8339      8341      8343      8340      8339      8341      8353
      8341      8353      8356      8357      8341      8353      8356      8358
      8341      8353      8356      8359      8342      8341      8353      8354
      8342      8341      8353      8355      8342      8341      8353      8356
      8343      8341      8353      8354      8343      8341      8353      8355
      8343      8341      8353      8356      8344      8347      8348      8349
      8344      8347      8348      8350      8345      8344      8347      8348
      8346      8344      8347      8348      8347      8348      8350      8351
      8347      8348      8350      8352      8347      8348      8350      8400
      8348      8350      8400      8401      8348      8350      8400      8402
      8348      8350      8400      8403      8349      8348      8350      8351
      8349      8348      8350      8352      8349      8348      8350      8400
      8350      8400      8403      8404      8350      8400      8403      8405
      8350      8400      8403      8406      8351      8350      8400      8401
      8351      8350      8400      8402      8351      8350      8400      8403
      8352      8350      8400      8401      8352      8350      8400      8402
      8352      8350      8400      8403      8353      8356      8359      8360
      8353      8356      8359      8361      8353      8356      8359      8362
      8354      8353      8356      8357      8354      8353      8356      8358
      8354      8353      8356      8359      8355      8353      8356      8357
      8355      8353      8356      8358      8355      8353      8356      8359
      8356      8359      8362      8363      8356      8359      8362      8364
      8356      8359      8362      8365      8357      8356      8359      8360
      8357      8356      8359      8361      8357      8356      8359      8362
      8358      8356      8359      8360      8358      8356      8359      8361
      8358      8356      8359      8362      8359      8362      8365      8366
      8359      8362      8365      8367      8359      8362      8365      8368
      8360      8359      8362      8363      8360      8359      8362      8364
      8360      8359      8362      8365      8361      8359      8362      8363
      8361      8359      8362      8364      8361      8359      8362      8365
      8362      8365      8368      8369      8362      8365      8368      8370
      8362      8365      8368      8371      8363      8362      8365      8366
      8363      8362      8365      8367      8363      8362      8365      8368
      8364      8362      8365      8366      8364      8362      8365      8367
      8364      8362      8365      8368      8365      8368      8371      8372
      8365      8368      8371      8373      8366      8365      8368      8369
      8366      8365      8368      8370      8366      8365      8368      8371
      8367      8365      8368      8369      8367      8365      8368      8370
      8367      8365      8368      8371      8368      8371      8373      8374
      8368      8371      8373      8375      8369      8368      8371      8372
      8369      8368      8371      8373      8370      8368      8371      8372
      8370      8368      8371      8373      8371      8373      8375      8376
      8371      8373      8375      8377      8371      8373      8375      8378
      8372      8371      8373      8374      8372      8371      8373      8375
      8373      8375      8378      8379      8373      8375      8378      8380
      8373      8375      8378      8381      8374      8373      8375      8376
      8374      8373      8375      8377      8374      8373      8375      8378
      8375      8378      8381      8382      8375      8378      8381      8383
      8375      8378      8381      8384      8376      8375      8378      8379
      8376      8375      8378      8380      8376      8375      8378      8381
      8377      8375      8378      8379      8377      8375      8378      8380
      8377      8375      8378      8381      8378      8381      8384      8385
      8378      8381      8384      8386      8378      8381      8384      8387
      8379      8378      8381      8382      8379      8378      8381      8383
      8379      8378      8381      8384      8380      8378      8381      8382
      8380      8378      8381      8383      8380      8378      8381      8384
      8381      8384      8387      8388      8381      8384      8387      8389
      8381      8384      8387      8390      8382      8381      8384      8385
      8382      8381      8384      8386      8382      8381      8384      8387
      8383      8381      8384      8385      8383      8381      8384      8386
      8383      8381      8384      8387      8384      8387      8390      8391
      8384      8387      8390      8392      8384      8387      8390      8393
      8385      8384      8387      8388      8385      8384      8387      8389
      8385      8384      8387      8390      8386      8384      8387      8388
      8386      8384      8387      8389      8386      8384      8387      8390
      8387      8390      8393      8394      8387      8390      8393      8395
      8387      8390      8393      8396      8388      8387      8390      8391
      8388      8387      8390      8392      8388      8387      8390      8393
      8389      8387      8390      8391      8389      8387      8390      8392
      8389      8387      8390      8393      8390      8393      8396      8397
      8390      8393      8396      8398      8390      8393      8396      8399
      8391      8390      8393      8394      8391      8390      8393      8395
      8391      8390      8393      8396      8392      8390      8393      8394
      8392      8390      8393      8395      8392      8390      8393      8396
      8394      8393      8396      8397      8394      8393      8396      8398
      8394      8393      8396      8399      8395      8393      8396      8397
      8395      8393      8396      8398      8395      8393      8396      8399
      8400      8403      8406      8407      8400      8403      8406      8408
      8400      8403      8406      8409      8401      8400      8403      8404
      8401      8400      8403      8405      8401      8400      8403      8406
      8402      8400      8403      8404      8402      8400      8403      8405
      8402      8400      8403      8406      8403      8406      8409      8410
      8403      8406      8409      8411      8403      8406      8409      8412
      8404      8403      8406      8407      8404      8403      8406      8408
      8404      8403      8406      8409      8405      8403      8406      8407
      8405      8403      8406      8408      8405      8403      8406      8409
      8406      8409      8412      8413      8406      8409      8412      8414
      8406      8409      8412      8415      8407      8406      8409      8410
      8407      8406      8409      8411      8407      8406      8409      8412
      8408      8406      8409      8410      8408      8406      8409      8411
      8408      8406      8409      8412      8409      8412      8415      8416
      8409      8412      8415      8417      8409      8412      8415      8418
      8410      8409      8412      8413      8410      8409      8412      8414
      8410      8409      8412      8415      8411      8409      8412      8413
      8411      8409      8412      8414      8411      8409      8412      8415
      8412      8415      8418      8419      8412      8415      8418      8420
      8412      8415      8418      8421      8413      8412      8415      8416
      8413      8412      8415      8417      8413      8412      8415      8418
      8414      8412      8415      8416      8414      8412      8415      8417
      8414      8412      8415      8418      8415      8418      8421      8422
      8415      8418      8421      8423      8415      8418      8421      8424
      8416      8415      8418      8419      8416      8415      8418      8420
      8416      8415      8418      8421      8417      8415      8418      8419
      8417      8415      8418      8420      8417      8415      8418      8421
      8418      8421      8424      8425      8418      8421      8424      8426
      8418      8421      8424      8427      8419      8418      8421      8422
      8419      8418      8421      8423      8419      8418      8421      8424
      8420      8418      8421      8422      8420      8418      8421      8423
      8420      8418      8421      8424      8421      8424      8427      8428
      8421      8424      8427      8429      8421      8424      8427      8430
      8422      8421      8424      8425      8422      8421      8424      8426
      8422      8421      8424      8427      8423      8421      8424      8425
      8423      8421      8424      8426      8423      8421      8424      8427
      8424      8427      8430      8431      8424      8427      8430      8432
      8424      8427      8430      8433      8425      8424      8427      8428
      8425      8424      8427      8429      8425      8424      8427      8430
      8426      8424      8427      8428      8426      8424      8427      8429
      8426      8424      8427      8430      8427      8430      8433      8434
      8427      8430      8433      8435      8427      8430      8433      8436
      8428      8427      8430      8431      8428      8427      8430      8432
      8428      8427      8430      8433      8429      8427      8430      8431
      8429      8427      8430      8432      8429      8427      8430      8433
      8430      8433      8436      8437      8430      8433      8436      8438
      8430      8433      8436      8439      8431      8430      8433      8434
      8431      8430      8433      8435      8431      8430      8433      8436
      8432      8430      8433      8434      8432      8430      8433      8435
      8432      8430      8433      8436      8433      8436      8439      8440
      8433      8436      8439      8441      8433      8436      8439      8442
      8434      8433      8436      8437      8434      8433      8436      8438
      8434      8433      8436      8439      8435      8433      8436      8437
      8435      8433      8436      8438      8435      8433      8436      8439
      8437      8436      8439      8440      8437      8436      8439      8441
      8437      8436      8439      8442      8438      8436      8439      8440
      8438      8436      8439      8441      8438      8436      8439      8442
      8443      8444      8459      8460      8443      8444      8459      8461
      8443      8444      8459      8465      8444      8443      8447      8448
      8444      8443      8447      8449      8444      8443      8447      8450
      8444      8443      8451      8452      8444      8443      8451      8453
      8444      8443      8451      8454      8444      8443      8455      8456
      8444      8443      8455      8457      8444      8443      8455      8458
      8444      8459      8465      8462      8445      8444      8443      8447
      8445      8444      8443      8451      8445      8444      8443      8455
      8445      8444      8459      8460      8445      8444      8459      8461
      8445      8444      8459      8465      8446      8444      8443      8447
      8446      8444      8443      8451      8446      8444      8443      8455
      8446      8444      8459      8460      8446      8444      8459      8461
      8446      8444      8459      8465      8447      8443      8444      8459
      8447      8443      8451      8452      8447      8443      8451      8453
      8447      8443      8451      8454      8447      8443      8455      8456
      8447      8443      8455      8457      8447      8443      8455      8458
      8448      8447      8443      8451      8448      8447      8443      8455
      8449      8447      8443      8451      8449      8447      8443      8455
      8450      8447      8443      8451      8450      8447      8443      8455
      8451      8443      8444      8459      8451      8443      8455      8456
      8451      8443      8455      8457      8451      8443      8455      8458
      8452      8451      8443      8455      8453      8451      8443      8455
      8454      8451      8443      8455      8455      8443      8444      8459
      8459      8465      8462      8463      8459      8465      8462      8464
      8459      8465      8462      8466      8460      8459      8465      8462
      8461      8459      8465      8462      8462      8466      8467      8468
      8462      8466      8467      8469      8462      8466      8467      8470
      8463      8462      8466      8467      8464      8462      8466      8467
      8465      8462      8466      8467      8466      8467      8470      8471
      8466      8467      8470      8472      8466      8467      8470      8478
      8467      8470      8472      8473      8467      8470      8478      8479
      8467      8470      8478      8480      8467      8470      8478      8481
      8468      8467      8470      8471      8468      8467      8470      8472
      8468      8467      8470      8478      8469      8467      8470      8471
      8469      8467      8470      8472      8469      8467      8470      8478
      8470      8472      8473      8474      8470      8472      8473      8475
      8470      8478      8481      8482      8471      8470      8472      8473
      8471      8470      8478      8479      8471      8470      8478      8480
      8471      8470      8478      8481      8472      8470      8478      8479
      8472      8470      8478      8480      8472      8470      8478      8481
      8472      8473      8475      8476      8472      8473      8475      8477
      8472      8473      8475      8487      8473      8472      8470      8478
      8473      8475      8487      8488      8473      8475      8487      8489
      8473      8475      8487      8490      8474      8473      8475      8476
      8474      8473      8475      8477      8474      8473      8475      8487
      8475      8487      8490      8491      8475      8487      8490      8492
      8475      8487      8490      8493      8476      8475      8487      8488
      8476      8475      8487      8489      8476      8475      8487      8490
      8477      8475      8487      8488      8477      8475      8487      8489
      8477      8475      8487      8490      8478      8481      8482      8483
      8478      8481      8482      8484      8479      8478      8481      8482
      8480      8478      8481      8482      8481      8482      8484      8485
      8481      8482      8484      8486      8481      8482      8484      8534
      8482      8484      8534      8535      8482      8484      8534      8536
      8482      8484      8534      8537      8483      8482      8484      8485
      8483      8482      8484      8486      8483      8482      8484      8534
      8484      8534      8537      8538      8484      8534      8537      8539
      8484      8534      8537      8540      8485      8484      8534      8535
      8485      8484      8534      8536      8485      8484      8534      8537
      8486      8484      8534      8535      8486      8484      8534      8536
      8486      8484      8534      8537      8487      8490      8493      8494
      8487      8490      8493      8495      8487      8490      8493      8496
      8488      8487      8490      8491      8488      8487      8490      8492
      8488      8487      8490      8493      8489      8487      8490      8491
      8489      8487      8490      8492      8489      8487      8490      8493
      8490      8493      8496      8497      8490      8493      8496      8498
      8490      8493      8496      8499      8491      8490      8493      8494
      8491      8490      8493      8495      8491      8490      8493      8496
      8492      8490      8493      8494      8492      8490      8493      8495
      8492      8490      8493      8496      8493      8496      8499      8500
      8493      8496      8499      8501      8493      8496      8499      8502
      8494      8493      8496      8497      8494      8493      8496      8498
      8494      8493      8496      8499      8495      8493      8496      8497
      8495      8493      8496      8498      8495      8493      8496      8499
      8496      8499      8502      8503      8496      8499      8502      8504
      8496      8499      8502      8505      8497      8496      8499      8500
      8497      8496      8499      8501      8497      8496      8499      8502
      8498      8496      8499      8500      8498      8496      8499      8501
      8498      8496      8499      8502      8499      8502      8505      8506
      8499      8502      8505      8507      8500      8499      8502      8503
      8500      8499      8502      8504      8500      8499      8502      8505
      8501      8499      8502      8503      8501      8499      8502      8504
      8501      8499      8502      8505      8502      8505      8507      8508
      8502      8505      8507      8509      8503      8502      8505      8506
      8503      8502      8505      8507      8504      8502      8505      8506
      8504      8502      8505      8507      8505      8507      8509      8510
      8505      8507      8509      8511      8505      8507      8509      8512
      8506      8505      8507      8508      8506      8505      8507      8509
      8507      8509      8512      8513      8507      8509      8512      8514
      8507      8509      8512      8515      8508      8507      8509      8510
      8508      8507      8509      8511      8508      8507      8509      8512
      8509      8512      8515      8516      8509      8512      8515      8517
      8509      8512      8515      8518      8510      8509      8512      8513
      8510      8509      8512      8514      8510      8509      8512      8515
      8511      8509      8512      8513      8511      8509      8512      8514
      8511      8509      8512      8515      8512      8515      8518      8519
      8512      8515      8518      8520      8512      8515      8518      8521
      8513      8512      8515      8516      8513      8512      8515      8517
      8513      8512      8515      8518      8514      8512      8515      8516
      8514      8512      8515      8517      8514      8512      8515      8518
      8515      8518      8521      8522      8515      8518      8521      8523
      8515      8518      8521      8524      8516      8515      8518      8519
      8516      8515      8518      8520      8516      8515      8518      8521
      8517      8515      8518      8519      8517      8515      8518      8520
      8517      8515      8518      8521      8518      8521      8524      8525
      8518      8521      8524      8526      8518      8521      8524      8527
      8519      8518      8521      8522      8519      8518      8521      8523
      8519      8518      8521      8524      8520      8518      8521      8522
      8520      8518      8521      8523      8520      8518      8521      8524
      8521      8524      8527      8528      8521      8524      8527      8529
      8521      8524      8527      8530      8522      8521      8524      8525
      8522      8521      8524      8526      8522      8521      8524      8527
      8523      8521      8524      8525      8523      8521      8524      8526
      8523      8521      8524      8527      8524      8527      8530      8531
      8524      8527      8530      8532      8524      8527      8530      8533
      8525      8524      8527      8528      8525      8524      8527      8529
      8525      8524      8527      8530      8526      8524      8527      8528
      8526      8524      8527      8529      8526      8524      8527      8530
      8528      8527      8530      8531      8528      8527      8530      8532
      8528      8527      8530      8533      8529      8527      8530      8531
      8529      8527      8530      8532      8529      8527      8530      8533
      8534      8537      8540      8541      8534      8537      8540      8542
      8534      8537      8540      8543      8535      8534      8537      8538
      8535      8534      8537      8539      8535      8534      8537      8540
      8536      8534      8537      8538      8536      8534      8537      8539
      8536      8534      8537      8540      8537      8540      8543      8544
      8537      8540      8543      8545      8537      8540      8543      8546
      8538      8537      8540      8541      8538      8537      8540      8542
      8538      8537      8540      8543      8539      8537      8540      8541
      8539      8537      8540      8542      8539      8537      8540      8543
      8540      8543      8546      8547      8540      8543      8546      8548
      8540      8543      8546      8549      8541      8540      8543      8544
      8541      8540      8543      8545      8541      8540      8543      8546
      8542      8540      8543      8544      8542      8540      8543      8545
      8542      8540      8543      8546      8543      8546      8549      8550
      8543      8546      8549      8551      8543      8546      8549      8552
      8544      8543      8546      8547      8544      8543      8546      8548
      8544      8543      8546      8549      8545      8543      8546      8547
      8545      8543      8546      8548      8545      8543      8546      8549
      8546      8549      8552      8553      8546      8549      8552      8554
      8546      8549      8552      8555      8547      8546      8549      8550
      8547      8546      8549      8551      8547      8546      8549      8552
      8548      8546      8549      8550      8548      8546      8549      8551
      8548      8546      8549      8552      8549      8552      8555      8556
      8549      8552      8555      8557      8549      8552      8555      8558
      8550      8549      8552      8553      8550      8549      8552      8554
      8550      8549      8552      8555      8551      8549      8552      8553
      8551      8549      8552      8554      8551      8549      8552      8555
      8552      8555      8558      8559      8552      8555      8558      8560
      8552      8555      8558      8561      8553      8552      8555      8556
      8553      8552      8555      8557      8553      8552      8555      8558
      8554      8552      8555      8556      8554      8552      8555      8557
      8554      8552      8555      8558      8555      8558      8561      8562
      8555      8558      8561      8563      8555      8558      8561      8564
      8556      8555      8558      8559      8556      8555      8558      8560
      8556      8555      8558      8561      8557      8555      8558      8559
      8557      8555      8558      8560      8557      8555      8558      8561
      8558      8561      8564      8565      8558      8561      8564      8566
      8558      8561      8564      8567      8559      8558      8561      8562
      8559      8558      8561      8563      8559      8558      8561      8564
      8560      8558      8561      8562      8560      8558      8561      8563
      8560      8558      8561      8564      8561      8564      8567      8568
      8561      8564      8567      8569      8561      8564      8567      8570
      8562      8561      8564      8565      8562      8561      8564      8566
      8562      8561      8564      8567      8563      8561      8564      8565
      8563      8561      8564      8566      8563      8561      8564      8567
      8564      8567      8570      8571      8564      8567      8570      8572
      8564      8567      8570      8573      8565      8564      8567      8568
      8565      8564      8567      8569      8565      8564      8567      8570
      8566      8564      8567      8568      8566      8564      8567      8569
      8566      8564      8567      8570      8567      8570      8573      8574
      8567      8570      8573      8575      8567      8570      8573      8576
      8568      8567      8570      8571      8568      8567      8570      8572
      8568      8567      8570      8573      8569      8567      8570      8571
      8569      8567      8570      8572      8569      8567      8570      8573
      8571      8570      8573      8574      8571      8570      8573      8575
      8571      8570      8573      8576      8572      8570      8573      8574
      8572      8570      8573      8575      8572      8570      8573      8576
      8577      8578      8593      8594      8577      8578      8593      8595
      8577      8578      8593      8599      8578      8577      8581      8582
      8578      8577      8581      8583      8578      8577      8581      8584
      8578      8577      8585      8586      8578      8577      8585      8587
      8578      8577      8585      8588      8578      8577      8589      8590
      8578      8577      8589      8591      8578      8577      8589      8592
      8578      8593      8599      8596      8579      8578      8577      8581
      8579      8578      8577      8585      8579      8578      8577      8589
      8579      8578      8593      8594      8579      8578      8593      8595
      8579      8578      8593      8599      8580      8578      8577      8581
      8580      8578      8577      8585      8580      8578      8577      8589
      8580      8578      8593      8594      8580      8578      8593      8595
      8580      8578      8593      8599      8581      8577      8578      8593
      8581      8577      8585      8586      8581      8577      8585      8587
      8581      8577      8585      8588      8581      8577      8589      8590
      8581      8577      8589      8591      8581      8577      8589      8592
      8582      8581      8577      8585      8582      8581      8577      8589
      8583      8581      8577      8585      8583      8581      8577      8589
      8584      8581      8577      8585      8584      8581      8577      8589
      8585      8577      8578      8593      8585      8577      8589      8590
      8585      8577      8589      8591      8585      8577      8589      8592
      8586      8585      8577      8589      8587      8585      8577      8589
      8588      8585      8577      8589      8589      8577      8578      8593
      8593      8599      8596      8597      8593      8599      8596      8598
      8593      8599      8596      8600      8594      8593      8599      8596
      8595      8593      8599      8596      8596      8600      8601      8602
      8596      8600      8601      8603      8596      8600      8601      8604
      8597      8596      8600      8601      8598      8596      8600      8601
      8599      8596      8600      8601      8600      8601      8604      8605
      8600      8601      8604      8606      8600      8601      8604      8612
      8601      8604      8606      8607      8601      8604      8612      8613
      8601      8604      8612      8614      8601      8604      8612      8615
      8602      8601      8604      8605      8602      8601      8604      8606
      8602      8601      8604      8612      8603      8601      8604      8605
      8603      8601      8604      8606      8603      8601      8604      8612
      8604      8606      8607      8608      8604      8606      8607      8609
      8604      8612      8615      8616      8605      8604      8606      8607
      8605      8604      8612      8613      8605      8604      8612      8614
      8605      8604      8612      8615      8606      8604      8612      8613
      8606      8604      8612      8614      8606      8604      8612      8615
      8606      8607      8609      8610      8606      8607      8609      8611
      8606      8607      8609      8621      8607      8606      8604      8612
      8607      8609      8621      8622      8607      8609      8621      8623
      8607      8609      8621      8624      8608      8607      8609      8610
      8608      8607      8609      8611      8608      8607      8609      8621
      8609      8621      8624      8625      8609      8621      8624      8626
      8609      8621      8624      8627      8610      8609      8621      8622
      8610      8609      8621      8623      8610      8609      8621      8624
      8611      8609      8621      8622      8611      8609      8621      8623
      8611      8609      8621      8624      8612      8615      8616      8617
      8612      8615      8616      8618      8613      8612      8615      8616
      8614      8612      8615      8616      8615      8616      8618      8619
      8615      8616      8618      8620      8615      8616      8618      8668
      8616      8618      8668      8669      8616      8618      8668      8670
      8616      8618      8668      8671      8617      8616      8618      8619
      8617      8616      8618      8620      8617      8616      8618      8668
      8618      8668      8671      8672      8618      8668      8671      8673
      8618      8668      8671      8674      8619      8618      8668      8669
      8619      8618      8668      8670      8619      8618      8668      8671
      8620      8618      8668      8669      8620      8618      8668      8670
      8620      8618      8668      8671      8621      8624      8627      8628
      8621      8624      8627      8629      8621      8624      8627      8630
      8622      8621      8624      8625      8622      8621      8624      8626
      8622      8621      8624      8627      8623      8621      8624      8625
      8623      8621      8624      8626      8623      8621      8624      8627
      8624      8627      8630      8631      8624      8627      8630      8632
      8624      8627      8630      8633      8625      8624      8627      8628
      8625      8624      8627      8629      8625      8624      8627      8630
      8626      8624      8627      8628      8626      8624      8627      8629
      8626      8624      8627      8630      8627      8630      8633      8634
      8627      8630      8633      8635      8627      8630      8633      8636
      8628      8627      8630      8631      8628      8627      8630      8632
      8628      8627      8630      8633      8629      8627      8630      8631
      8629      8627      8630      8632      8629      8627      8630      8633
      8630      8633      8636      8637      8630      8633      8636      8638
      8630      8633      8636      8639      8631      8630      8633      8634
      8631      8630      8633      8635      8631      8630      8633      8636
      8632      8630      8633      8634      8632      8630      8633      8635
      8632      8630      8633      8636      8633      8636      8639      8640
      8633      8636      8639      8641      8634      8633      8636      8637
      8634      8633      8636      8638      8634      8633      8636      8639
      8635      8633      8636      8637      8635      8633      8636      8638
      8635      8633      8636      8639      8636      8639      8641      8642
      8636      8639      8641      8643      8637      8636      8639      8640
      8637      8636      8639      8641      8638      8636      8639      8640
      8638      8636      8639      8641      8639      8641      8643      8644
      8639      8641      8643      8645      8639      8641      8643      8646
      8640      8639      8641      8642      8640      8639      8641      8643
      8641      8643      8646      8647      8641      8643      8646      8648
      8641      8643      8646      8649      8642      8641      8643      8644
      8642      8641      8643      8645      8642      8641      8643      8646
      8643      8646      8649      8650      8643      8646      8649      8651
      8643      8646      8649      8652      8644      8643      8646      8647
      8644      8643      8646      8648      8644      8643      8646      8649
      8645      8643      8646      8647      8645      8643      8646      8648
      8645      8643      8646      8649      8646      8649      8652      8653
      8646      8649      8652      8654      8646      8649      8652      8655
      8647      8646      8649      8650      8647      8646      8649      8651
      8647      8646      8649      8652      8648      8646      8649      8650
      8648      8646      8649      8651      8648      8646      8649      8652
      8649      8652      8655      8656      8649      8652      8655      8657
      8649      8652      8655      8658      8650      8649      8652      8653
      8650      8649      8652      8654      8650      8649      8652      8655
      8651      8649      8652      8653      8651      8649      8652      8654
      8651      8649      8652      8655      8652      8655      8658      8659
      8652      8655      8658      8660      8652      8655      8658      8661
      8653      8652      8655      8656      8653      8652      8655      8657
      8653      8652      8655      8658      8654      8652      8655      8656
      8654      8652      8655      8657      8654      8652      8655      8658
      8655      8658      8661      8662      8655      8658      8661      8663
      8655      8658      8661      8664      8656      8655      8658      8659
      8656      8655      8658      8660      8656      8655      8658      8661
      8657      8655      8658      8659      8657      8655      8658      8660
      8657      8655      8658      8661      8658      8661      8664      8665
      8658      8661      8664      8666      8658      8661      8664      8667
      8659      8658      8661      8662      8659      8658      8661      8663
      8659      8658      8661      8664      8660      8658      8661      8662
      8660      8658      8661      8663      8660      8658      8661      8664
      8662      8661      8664      8665      8662      8661      8664      8666
      8662      8661      8664      8667      8663      8661      8664      8665
      8663      8661      8664      8666      8663      8661      8664      8667
      8668      8671      8674      8675      8668      8671      8674      8676
      8668      8671      8674      8677      8669      8668      8671      8672
      8669      8668      8671      8673      8669      8668      8671      8674
      8670      8668      8671      8672      8670      8668      8671      8673
      8670      8668      8671      8674      8671      8674      8677      8678
      8671      8674      8677      8679      8671      8674      8677      8680
      8672      8671      8674      8675      8672      8671      8674      8676
      8672      8671      8674      8677      8673      8671      8674      8675
      8673      8671      8674      8676      8673      8671      8674      8677
      8674      8677      8680      8681      8674      8677      8680      8682
      8674      8677      8680      8683      8675      8674      8677      8678
      8675      8674      8677      8679      8675      8674      8677      8680
      8676      8674      8677      8678      8676      8674      8677      8679
      8676      8674      8677      8680      8677      8680      8683      8684
      8677      8680      8683      8685      8677      8680      8683      8686
      8678      8677      8680      8681      8678      8677      8680      8682
      8678      8677      8680      8683      8679      8677      8680      8681
      8679      8677      8680      8682      8679      8677      8680      8683
      8680      8683      8686      8687      8680      8683      8686      8688
      8680      8683      8686      8689      8681      8680      8683      8684
      8681      8680      8683      8685      8681      8680      8683      8686
      8682      8680      8683      8684      8682      8680      8683      8685
      8682      8680      8683      8686      8683      8686      8689      8690
      8683      8686      8689      8691      8683      8686      8689      8692
      8684      8683      8686      8687      8684      8683      8686      8688
      8684      8683      8686      8689      8685      8683      8686      8687
      8685      8683      8686      8688      8685      8683      8686      8689
      8686      8689      8692      8693      8686      8689      8692      8694
      8686      8689      8692      8695      8687      8686      8689      8690
      8687      8686      8689      8691      8687      8686      8689      8692
      8688      8686      8689      8690      8688      8686      8689      8691
      8688      8686      8689      8692      8689      8692      8695      8696
      8689      8692      8695      8697      8689      8692      8695      8698
      8690      8689      8692      8693      8690      8689      8692      8694
      8690      8689      8692      8695      8691      8689      8692      8693
      8691      8689      8692      8694      8691      8689      8692      8695
      8692      8695      8698      8699      8692      8695      8698      8700
      8692      8695      8698      8701      8693      8692      8695      8696
      8693      8692      8695      8697      8693      8692      8695      8698
      8694      8692      8695      8696      8694      8692      8695      8697
      8694      8692      8695      8698      8695      8698      8701      8702
      8695      8698      8701      8703      8695      8698      8701      8704
      8696      8695      8698      8699      8696      8695      8698      8700
      8696      8695      8698      8701      8697      8695      8698      8699
      8697      8695      8698      8700      8697      8695      8698      8701
      8698      8701      8704      8705      8698      8701      8704      8706
      8698      8701      8704      8707      8699      8698      8701      8702
      8699      8698      8701      8703      8699      8698      8701      8704
      8700      8698      8701      8702      8700      8698      8701      8703
      8700      8698      8701      8704      8701      8704      8707      8708
      8701      8704      8707      8709      8701      8704      8707      8710
      8702      8701      8704      8705      8702      8701      8704      8706
      8702      8701      8704      8707      8703      8701      8704      8705
      8703      8701      8704      8706      8703      8701      8704      8707
      8705      8704      8707      8708      8705      8704      8707      8709
      8705      8704      8707      8710      8706      8704      8707      8708
      8706      8704      8707      8709      8706      8704      8707      8710
      8711      8712      8727      8728      8711      8712      8727      8729
      8711      8712      8727      8733      8712      8711      8715      8716
      8712      8711      8715      8717      8712      8711      8715      8718
      8712      8711      8719      8720      8712      8711      8719      8721
      8712      8711      8719      8722      8712      8711      8723      8724
      8712      8711      8723      8725      8712      8711      8723      8726
      8712      8727      8733      8730      8713      8712      8711      8715
      8713      8712      8711      8719      8713      8712      8711      8723
      8713      8712      8727      8728      8713      8712      8727      8729
      8713      8712      8727      8733      8714      8712      8711      8715
      8714      8712      8711      8719      8714      8712      8711      8723
      8714      8712      8727      8728      8714      8712      8727      8729
      8714      8712      8727      8733      8715      8711      8712      8727
      8715      8711      8719      8720      8715      8711      8719      8721
      8715      8711      8719      8722      8715      8711      8723      8724
      8715      8711      8723      8725      8715      8711      8723      8726
      8716      8715      8711      8719      8716      8715      8711      8723
      8717      8715      8711      8719      8717      8715      8711      8723
      8718      8715      8711      8719      8718      8715      8711      8723
      8719      8711      8712      8727      8719      8711      8723      8724
      8719      8711      8723      8725      8719      8711      8723      8726
      8720      8719      8711      8723      8721      8719      8711      8723
      8722      8719      8711      8723      8723      8711      8712      8727
      8727      8733      8730      8731      8727      8733      8730      8732
      8727      8733      8730      8734      8728      8727      8733      8730
      8729      8727      8733      8730      8730      8734      8735      8736
      8730      8734      8735      8737      8730      8734      8735      8738
      8731      8730      8734      8735      8732      8730      8734      8735
      8733      8730      8734      8735      8734      8735      8738      8739
      8734      8735      8738      8740      8734      8735      8738      8746
      8735      8738      8740      8741      8735      8738      8746      8747
      8735      8738      8746      8748      8735      8738      8746      8749
      8736      8735      8738      8739      8736      8735      8738      8740
      8736      8735      8738      8746      8737      8735      8738      8739
      8737      8735      8738      8740      8737      8735      8738      8746
      8738      8740      8741      8742      8738      8740      8741      8743
      8738      8746      8749      8750      8739      8738      8740      8741
      8739      8738      8746      8747      8739      8738      8746      8748
      8739      8738      8746      8749      8740      8738      8746      8747
      8740      8738      8746      8748      8740      8738      8746      8749
      8740      8741      8743      8744      8740      8741      8743      8745
      8740      8741      8743      8755      8741      8740      8738      8746
      8741      8743      8755      8756      8741      8743      8755      8757
      8741      8743      8755      8758      8742      8741      8743      8744
      8742      8741      8743      8745      8742      8741      8743      8755
      8743      8755      8758      8759      8743      8755      8758      8760
      8743      8755      8758      8761      8744      8743      8755      8756
      8744      8743      8755      8757      8744      8743      8755      8758
      8745      8743      8755      8756      8745      8743      8755      8757
      8745      8743      8755      8758      8746      8749      8750      8751
      8746      8749      8750      8752      8747      8746      8749      8750
      8748      8746      8749      8750      8749      8750      8752      8753
      8749      8750      8752      8754      8749      8750      8752      8802
      8750      8752      8802      8803      8750      8752      8802      8804
      8750      8752      8802      8805      8751      8750      8752      8753
      8751      8750      8752      8754      8751      8750      8752      8802
      8752      8802      8805      8806      8752      8802      8805      8807
      8752      8802      8805      8808      8753      8752      8802      8803
      8753      8752      8802      8804      8753      8752      8802      8805
      8754      8752      8802      8803      8754      8752      8802      8804
      8754      8752      8802      8805      8755      8758      8761      8762
      8755      8758      8761      8763      8755      8758      8761      8764
      8756      8755      8758      8759      8756      8755      8758      8760
      8756      8755      8758      8761      8757      8755      8758      8759
      8757      8755      8758      8760      8757      8755      8758      8761
      8758      8761      8764      8765      8758      8761      8764      8766
      8758      8761      8764      8767      8759      8758      8761      8762
      8759      8758      8761      8763      8759      8758      8761      8764
      8760      8758      8761      8762      8760      8758      8761      8763
      8760      8758      8761      8764      8761      8764      8767      8768
      8761      8764      8767      8769      8761      8764      8767      8770
      8762      8761      8764      8765      8762      8761      8764      8766
      8762      8761      8764      8767      8763      8761      8764      8765
      8763      8761      8764      8766      8763      8761      8764      8767
      8764      8767      8770      8771      8764      8767      8770      8772
      8764      8767      8770      8773      8765      8764      8767      8768
      8765      8764      8767      8769      8765      8764      8767      8770
      8766      8764      8767      8768      8766      8764      8767      8769
      8766      8764      8767      8770      8767      8770      8773      8774
      8767      8770      8773      8775      8768      8767      8770      8771
      8768      8767      8770      8772      8768      8767      8770      8773
      8769      8767      8770      8771      8769      8767      8770      8772
      8769      8767      8770      8773      8770      8773      8775      8776
      8770      8773      8775      8777      8771      8770      8773      8774
      8771      8770      8773      8775      8772      8770      8773      8774
      8772      8770      8773      8775      8773      8775      8777      8778
      8773      8775      8777      8779      8773      8775      8777      8780
      8774      8773      8775      8776      8774      8773      8775      8777
      8775      8777      8780      8781      8775      8777      8780      8782
      8775      8777      8780      8783      8776      8775      8777      8778
      8776      8775      8777      8779      8776      8775      8777      8780
      8777      8780      8783      8784      8777      8780      8783      8785
      8777      8780      8783      8786      8778      8777      8780      8781
      8778      8777      8780      8782      8778      8777      8780      8783
      8779      8777      8780      8781      8779      8777      8780      8782
      8779      8777      8780      8783      8780      8783      8786      8787
      8780      8783      8786      8788      8780      8783      8786      8789
      8781      8780      8783      8784      8781      8780      8783      8785
      8781      8780      8783      8786      8782      8780      8783      8784
      8782      8780      8783      8785      8782      8780      8783      8786
      8783      8786      8789      8790      8783      8786      8789      8791
      8783      8786      8789      8792      8784      8783      8786      8787
      8784      8783      8786      8788      8784      8783      8786      8789
      8785      8783      8786      8787      8785      8783      8786      8788
      8785      8783      8786      8789      8786      8789      8792      8793
      8786      8789      8792      8794      8786      8789      8792      8795
      8787      8786      8789      8790      8787      8786      8789      8791
      8787      8786      8789      8792      8788      8786      8789      8790
      8788      8786      8789      8791      8788      8786      8789      8792
      8789      8792      8795      8796      8789      8792      8795      8797
      8789      8792      8795      8798      8790      8789      8792      8793
      8790      8789      8792      8794      8790      8789      8792      8795
      8791      8789      8792      8793      8791      8789      8792      8794
      8791      8789      8792      8795      8792      8795      8798      8799
      8792      8795      8798      8800      8792      8795      8798      8801
      8793      8792      8795      8796      8793      8792      8795      8797
      8793      8792      8795      8798      8794      8792      8795      8796
      8794      8792      8795      8797      8794      8792      8795      8798
      8796      8795      8798      8799      8796      8795      8798      8800
      8796      8795      8798      8801      8797      8795      8798      8799
      8797      8795      8798      8800      8797      8795      8798      8801
      8802      8805      8808      8809      8802      8805      8808      8810
      8802      8805      8808      8811      8803      8802      8805      8806
      8803      8802      8805      8807      8803      8802      8805      8808
      8804      8802      8805      8806      8804      8802      8805      8807
      8804      8802      8805      8808      8805      8808      8811      8812
      8805      8808      8811      8813      8805      8808      8811      8814
      8806      8805      8808      8809      8806      8805      8808      8810
      8806      8805      8808      8811      8807      8805      8808      8809
      8807      8805      8808      8810      8807      8805      8808      8811
      8808      8811      8814      8815      8808      8811      8814      8816
      8808      8811      8814      8817      8809      8808      8811      8812
      8809      8808      8811      8813      8809      8808      8811      8814
      8810      8808      8811      8812      8810      8808      8811      8813
      8810      8808      8811      8814      8811      8814      8817      8818
      8811      8814      8817      8819      8811      8814      8817      8820
      8812      8811      8814      8815      8812      8811      8814      8816
      8812      8811      8814      8817      8813      8811      8814      8815
      8813      8811      8814      8816      8813      8811      8814      8817
      8814      8817      8820      8821      8814      8817      8820      8822
      8814      8817      8820      8823      8815      8814      8817      8818
      8815      8814      8817      8819      8815      8814      8817      8820
      8816      8814      8817      8818      8816      8814      8817      8819
      8816      8814      8817      8820      8817      8820      8823      8824
      8817      8820      8823      8825      8817      8820      8823      8826
      8818      8817      8820      8821      8818      8817      8820      8822
      8818      8817      8820      8823      8819      8817      8820      8821
      8819      8817      8820      8822      8819      8817      8820      8823
      8820      8823      8826      8827      8820      8823      8826      8828
      8820      8823      8826      8829      8821      8820      8823      8824
      8821      8820      8823      8825      8821      8820      8823      8826
      8822      8820      8823      8824      8822      8820      8823      8825
      8822      8820      8823      8826      8823      8826      8829      8830
      8823      8826      8829      8831      8823      8826      8829      8832
      8824      8823      8826      8827      8824      8823      8826      8828
      8824      8823      8826      8829      8825      8823      8826      8827
      8825      8823      8826      8828      8825      8823      8826      8829
      8826      8829      8832      8833      8826      8829      8832      8834
      8826      8829      8832      8835      8827      8826      8829      8830
      8827      8826      8829      8831      8827      8826      8829      8832
      8828      8826      8829      8830      8828      8826      8829      8831
      8828      8826      8829      8832      8829      8832      8835      8836
      8829      8832      8835      8837      8829      8832      8835      8838
      8830      8829      8832      8833      8830      8829      8832      8834
      8830      8829      8832      8835      8831      8829      8832      8833
      8831      8829      8832      8834      8831      8829      8832      8835
      8832      8835      8838      8839      8832      8835      8838      8840
      8832      8835      8838      8841      8833      8832      8835      8836
      8833      8832      8835      8837      8833      8832      8835      8838
      8834      8832      8835      8836      8834      8832      8835      8837
      8834      8832      8835      8838      8835      8838      8841      8842
      8835      8838      8841      8843      8835      8838      8841      8844
      8836      8835      8838      8839      8836      8835      8838      8840
      8836      8835      8838      8841      8837      8835      8838      8839
      8837      8835      8838      8840      8837      8835      8838      8841
      8839      8838      8841      8842      8839      8838      8841      8843
      8839      8838      8841      8844      8840      8838      8841      8842
      8840      8838      8841      8843      8840      8838      8841      8844
      8845      8846      8861      8862      8845      8846      8861      8863
      8845      8846      8861      8867      8846      8845      8849      8850
      8846      8845      8849      8851      8846      8845      8849      8852
      8846      8845      8853      8854      8846      8845      8853      8855
      8846      8845      8853      8856      8846      8845      8857      8858
      8846      8845      8857      8859      8846      8845      8857      8860
      8846      8861      8867      8864      8847      8846      8845      8849
      8847      8846      8845      8853      8847      8846      8845      8857
      8847      8846      8861      8862      8847      8846      8861      8863
      8847      8846      8861      8867      8848      8846      8845      8849
      8848      8846      8845      8853      8848      8846      8845      8857
      8848      8846      8861      8862      8848      8846      8861      8863
      8848      8846      8861      8867      8849      8845      8846      8861
      8849      8845      8853      8854      8849      8845      8853      8855
      8849      8845      8853      8856      8849      8845      8857      8858
      8849      8845      8857      8859      8849      8845      8857      8860
      8850      8849      8845      8853      8850      8849      8845      8857
      8851      8849      8845      8853      8851      8849      8845      8857
      8852      8849      8845      8853      8852      8849      8845      8857
      8853      8845      8846      8861      8853      8845      8857      8858
      8853      8845      8857      8859      8853      8845      8857      8860
      8854      8853      8845      8857      8855      8853      8845      8857
      8856      8853      8845      8857      8857      8845      8846      8861
      8861      8867      8864      8865      8861      8867      8864      8866
      8861      8867      8864      8868      8862      8861      8867      8864
      8863      8861      8867      8864      8864      8868      8869      8870
      8864      8868      8869      8871      8864      8868      8869      8872
      8865      8864      8868      8869      8866      8864      8868      8869
      8867      8864      8868      8869      8868      8869      8872      8873
      8868      8869      8872      8874      8868      8869      8872      8880
      8869      8872      8874      8875      8869      8872      8880      8881
      8869      8872      8880      8882      8869      8872      8880      8883
      8870      8869      8872      8873      8870      8869      8872      8874
      8870      8869      8872      8880      8871      8869      8872      8873
      8871      8869      8872      8874      8871      8869      8872      8880
      8872      8874      8875      8876      8872      8874      8875      8877
      8872      8880      8883      8884      8873      8872      8874      8875
      8873      8872      8880      8881      8873      8872      8880      8882
      8873      8872      8880      8883      8874      8872      8880      8881
      8874      8872      8880      8882      8874      8872      8880      8883
      8874      8875      8877      8878      8874      8875      8877      8879
      8874      8875      8877      8889      8875      8874      8872      8880
      8875      8877      8889      8890      8875      8877      8889      8891
      8875      8877      8889      8892      8876      8875      8877      8878
      8876      8875      8877      8879      8876      8875      8877      8889
      8877      8889      8892      8893      8877      8889      8892      8894
      8877      8889      8892      8895      8878      8877      8889      8890
      8878      8877      8889      8891      8878      8877      8889      8892
      8879      8877      8889      8890      8879      8877      8889      8891
      8879      8877      8889      8892      8880      8883      8884      8885
      8880      8883      8884      8886      8881      8880      8883      8884
      8882      8880      8883      8884      8883      8884      8886      8887
      8883      8884      8886      8888      8883      8884      8886      8936
      8884      8886      8936      8937      8884      8886      8936      8938
      8884      8886      8936      8939      8885      8884      8886      8887
      8885      8884      8886      8888      8885      8884      8886      8936
      8886      8936      8939      8940      8886      8936      8939      8941
      8886      8936      8939      8942      8887      8886      8936      8937
      8887      8886      8936      8938      8887      8886      8936      8939
      8888      8886      8936      8937      8888      8886      8936      8938
      8888      8886      8936      8939      8889      8892      8895      8896
      8889      8892      8895      8897      8889      8892      8895      8898
      8890      8889      8892      8893      8890      8889      8892      8894
      8890      8889      8892      8895      8891      8889      8892      8893
      8891      8889      8892      8894      8891      8889      8892      8895
      8892      8895      8898      8899      8892      8895      8898      8900
      8892      8895      8898      8901      8893      8892      8895      8896
      8893      8892      8895      8897      8893      8892      8895      8898
      8894      8892      8895      8896      8894      8892      8895      8897
      8894      8892      8895      8898      8895      8898      8901      8902
      8895      8898      8901      8903      8895      8898      8901      8904
      8896      8895      8898      8899      8896      8895      8898      8900
      8896      8895      8898      8901      8897      8895      8898      8899
      8897      8895      8898      8900      8897      8895      8898      8901
      8898      8901      8904      8905      8898      8901      8904      8906
      8898      8901      8904      8907      8899      8898      8901      8902
      8899      8898      8901      8903      8899      8898      8901      8904
      8900      8898      8901      8902      8900      8898      8901      8903
      8900      8898      8901      8904      8901      8904      8907      8908
      8901      8904      8907      8909      8902      8901      8904      8905
      8902      8901      8904      8906      8902      8901      8904      8907
      8903      8901      8904      8905      8903      8901      8904      8906
      8903      8901      8904      8907      8904      8907      8909      8910
      8904      8907      8909      8911      8905      8904      8907      8908
      8905      8904      8907      8909      8906      8904      8907      8908
      8906      8904      8907      8909      8907      8909      8911      8912
      8907      8909      8911      8913      8907      8909      8911      8914
      8908      8907      8909      8910      8908      8907      8909      8911
      8909      8911      8914      8915      8909      8911      8914      8916
      8909      8911      8914      8917      8910      8909      8911      8912
      8910      8909      8911      8913      8910      8909      8911      8914
      8911      8914      8917      8918      8911      8914      8917      8919
      8911      8914      8917      8920      8912      8911      8914      8915
      8912      8911      8914      8916      8912      8911      8914      8917
      8913      8911      8914      8915      8913      8911      8914      8916
      8913      8911      8914      8917      8914      8917      8920      8921
      8914      8917      8920      8922      8914      8917      8920      8923
      8915      8914      8917      8918      8915      8914      8917      8919
      8915      8914      8917      8920      8916      8914      8917      8918
      8916      8914      8917      8919      8916      8914      8917      8920
      8917      8920      8923      8924      8917      8920      8923      8925
      8917      8920      8923      8926      8918      8917      8920      8921
      8918      8917      8920      8922      8918      8917      8920      8923
      8919      8917      8920      8921      8919      8917      8920      8922
      8919      8917      8920      8923      8920      8923      8926      8927
      8920      8923      8926      8928      8920      8923      8926      8929
      8921      8920      8923      8924      8921      8920      8923      8925
      8921      8920      8923      8926      8922      8920      8923      8924
      8922      8920      8923      8925      8922      8920      8923      8926
      8923      8926      8929      8930      8923      8926      8929      8931
      8923      8926      8929      8932      8924      8923      8926      8927
      8924      8923      8926      8928      8924      8923      8926      8929
      8925      8923      8926      8927      8925      8923      8926      8928
      8925      8923      8926      8929      8926      8929      8932      8933
      8926      8929      8932      8934      8926      8929      8932      8935
      8927      8926      8929      8930      8927      8926      8929      8931
      8927      8926      8929      8932      8928      8926      8929      8930
      8928      8926      8929      8931      8928      8926      8929      8932
      8930      8929      8932      8933      8930      8929      8932      8934
      8930      8929      8932      8935      8931      8929      8932      8933
      8931      8929      8932      8934      8931      8929      8932      8935
      8936      8939      8942      8943      8936      8939      8942      8944
      8936      8939      8942      8945      8937      8936      8939      8940
      8937      8936      8939      8941      8937      8936      8939      8942
      8938      8936      8939      8940      8938      8936      8939      8941
      8938      8936      8939      8942      8939      8942      8945      8946
      8939      8942      8945      8947      8939      8942      8945      8948
      8940      8939      8942      8943      8940      8939      8942      8944
      8940      8939      8942      8945      8941      8939      8942      8943
      8941      8939      8942      8944      8941      8939      8942      8945
      8942      8945      8948      8949      8942      8945      8948      8950
      8942      8945      8948      8951      8943      8942      8945      8946
      8943      8942      8945      8947      8943      8942      8945      8948
      8944      8942      8945      8946      8944      8942      8945      8947
      8944      8942      8945      8948      8945      8948      8951      8952
      8945      8948      8951      8953      8945      8948      8951      8954
      8946      8945      8948      8949      8946      8945      8948      8950
      8946      8945      8948      8951      8947      8945      8948      8949
      8947      8945      8948      8950      8947      8945      8948      8951
      8948      8951      8954      8955      8948      8951      8954      8956
      8948      8951      8954      8957      8949      8948      8951      8952
      8949      8948      8951      8953      8949      8948      8951      8954
      8950      8948      8951      8952      8950      8948      8951      8953
      8950      8948      8951      8954      8951      8954      8957      8958
      8951      8954      8957      8959      8951      8954      8957      8960
      8952      8951      8954      8955      8952      8951      8954      8956
      8952      8951      8954      8957      8953      8951      8954      8955
      8953      8951      8954      8956      8953      8951      8954      8957
      8954      8957      8960      8961      8954      8957      8960      8962
      8954      8957      8960      8963      8955      8954      8957      8958
      8955      8954      8957      8959      8955      8954      8957      8960
      8956      8954      8957      8958      8956      8954      8957      8959
      8956      8954      8957      8960      8957      8960      8963      8964
      8957      8960      8963      8965      8957      8960      8963      8966
      8958      8957      8960      8961      8958      8957      8960      8962
      8958      8957      8960      8963      8959      8957      8960      8961
      8959      8957      8960      8962      8959      8957      8960      8963
      8960      8963      8966      8967      8960      8963      8966      8968
      8960      8963      8966      8969      8961      8960      8963      8964
      8961      8960      8963      8965      8961      8960      8963      8966
      8962      8960      8963      8964      8962      8960      8963      8965
      8962      8960      8963      8966      8963      8966      8969      8970
      8963      8966      8969      8971      8963      8966      8969      8972
      8964      8963      8966      8967      8964      8963      8966      8968
      8964      8963      8966      8969      8965      8963      8966      8967
      8965      8963      8966      8968      8965      8963      8966      8969
      8966      8969      8972      8973      8966      8969      8972      8974
      8966      8969      8972      8975      8967      8966      8969      8970
      8967      8966      8969      8971      8967      8966      8969      8972
      8968      8966      8969      8970      8968      8966      8969      8971
      8968      8966      8969      8972      8969      8972      8975      8976
      8969      8972      8975      8977      8969      8972      8975      8978
      8970      8969      8972      8973      8970      8969      8972      8974
      8970      8969      8972      8975      8971      8969      8972      8973
      8971      8969      8972      8974      8971      8969      8972      8975
      8973      8972      8975      8976      8973      8972      8975      8977
      8973      8972      8975      8978      8974      8972      8975      8976
      8974      8972      8975      8977      8974      8972      8975      8978
      8979      8980      8995      8996      8979      8980      8995      8997
      8979      8980      8995      9001      8980      8979      8983      8984
      8980      8979      8983      8985      8980      8979      8983      8986
      8980      8979      8987      8988      8980      8979      8987      8989
      8980      8979      8987      8990      8980      8979      8991      8992
      8980      8979      8991      8993      8980      8979      8991      8994
      8980      8995      9001      8998      8981      8980      8979      8983
      8981      8980      8979      8987      8981      8980      8979      8991
      8981      8980      8995      8996      8981      8980      8995      8997
      8981      8980      8995      9001      8982      8980      8979      8983
      8982      8980      8979      8987      8982      8980      8979      8991
      8982      8980      8995      8996      8982      8980      8995      8997
      8982      8980      8995      9001      8983      8979      8980      8995
      8983      8979      8987      8988      8983      8979      8987      8989
      8983      8979      8987      8990      8983      8979      8991      8992
      8983      8979      8991      8993      8983      8979      8991      8994
      8984      8983      8979      8987      8984      8983      8979      8991
      8985      8983      8979      8987      8985      8983      8979      8991
      8986      8983      8979      8987      8986      8983      8979      8991
      8987      8979      8980      8995      8987      8979      8991      8992
      8987      8979      8991      8993      8987      8979      8991      8994
      8988      8987      8979      8991      8989      8987      8979      8991
      8990      8987      8979      8991      8991      8979      8980      8995
      8995      9001      8998      8999      8995      9001      8998      9000
      8995      9001      8998      9002      8996      8995      9001      8998
      8997      8995      9001      8998      8998      9002      9003      9004
      8998      9002      9003      9005      8998      9002      9003      9006
      8999      8998      9002      9003      9000      8998      9002      9003
      9001      8998      9002      9003      9002      9003      9006      9007
      9002      9003      9006      9008      9002      9003      9006      9014
      9003      9006      9008      9009      9003      9006      9014      9015
      9003      9006      9014      9016      9003      9006      9014      9017
      9004      9003      9006      9007      9004      9003      9006      9008
      9004      9003      9006      9014      9005      9003      9006      9007
      9005      9003      9006      9008      9005      9003      9006      9014
      9006      9008      9009      9010      9006      9008      9009      9011
      9006      9014      9017      9018      9007      9006      9008      9009
      9007      9006      9014      9015      9007      9006      9014      9016
      9007      9006      9014      9017      9008      9006      9014      9015
      9008      9006      9014      9016      9008      9006      9014      9017
      9008      9009      9011      9012      9008      9009      9011      9013
      9008      9009      9011      9023      9009      9008      9006      9014
      9009      9011      9023      9024      9009      9011      9023      9025
      9009      9011      9023      9026      9010      9009      9011      9012
      9010      9009      9011      9013      9010      9009      9011      9023
      9011      9023      9026      9027      9011      9023      9026      9028
      9011      9023      9026      9029      9012      9011      9023      9024
      9012      9011      9023      9025      9012      9011      9023      9026
      9013      9011      9023      9024      9013      9011      9023      9025
      9013      9011      9023      9026      9014      9017      9018      9019
      9014      9017      9018      9020      9015      9014      9017      9018
      9016      9014      9017      9018      9017      9018      9020      9021
      9017      9018      9020      9022      9017      9018      9020      9070
      9018      9020      9070      9071      9018      9020      9070      9072
      9018      9020      9070      9073      9019      9018      9020      9021
      9019      9018      9020      9022      9019      9018      9020      9070
      9020      9070      9073      9074      9020      9070      9073      9075
      9020      9070      9073      9076      9021      9020      9070      9071
      9021      9020      9070      9072      9021      9020      9070      9073
      9022      9020      9070      9071      9022      9020      9070      9072
      9022      9020      9070      9073      9023      9026      9029      9030
      9023      9026      9029      9031      9023      9026      9029      9032
      9024      9023      9026      9027      9024      9023      9026      9028
      9024      9023      9026      9029      9025      9023      9026      9027
      9025      9023      9026      9028      9025      9023      9026      9029
      9026      9029      9032      9033      9026      9029      9032      9034
      9026      9029      9032      9035      9027      9026      9029      9030
      9027      9026      9029      9031      9027      9026      9029      9032
      9028      9026      9029      9030      9028      9026      9029      9031
      9028      9026      9029      9032      9029      9032      9035      9036
      9029      9032      9035      9037      9029      9032      9035      9038
      9030      9029      9032      9033      9030      9029      9032      9034
      9030      9029      9032      9035      9031      9029      9032      9033
      9031      9029      9032      9034      9031      9029      9032      9035
      9032      9035      9038      9039      9032      9035      9038      9040
      9032      9035      9038      9041      9033      9032      9035      9036
      9033      9032      9035      9037      9033      9032      9035      9038
      9034      9032      9035      9036      9034      9032      9035      9037
      9034      9032      9035      9038      9035      9038      9041      9042
      9035      9038      9041      9043      9036      9035      9038      9039
      9036      9035      9038      9040      9036      9035      9038      9041
      9037      9035      9038      9039      9037      9035      9038      9040
      9037      9035      9038      9041      9038      9041      9043      9044
      9038      9041      9043      9045      9039      9038      9041      9042
      9039      9038      9041      9043      9040      9038      9041      9042
      9040      9038      9041      9043      9041      9043      9045      9046
      9041      9043      9045      9047      9041      9043      9045      9048
      9042      9041      9043      9044      9042      9041      9043      9045
      9043      9045      9048      9049      9043      9045      9048      9050
      9043      9045      9048      9051      9044      9043      9045      9046
      9044      9043      9045      9047      9044      9043      9045      9048
      9045      9048      9051      9052      9045      9048      9051      9053
      9045      9048      9051      9054      9046      9045      9048      9049
      9046      9045      9048      9050      9046      9045      9048      9051
      9047      9045      9048      9049      9047      9045      9048      9050
      9047      9045      9048      9051      9048      9051      9054      9055
      9048      9051      9054      9056      9048      9051      9054      9057
      9049      9048      9051      9052      9049      9048      9051      9053
      9049      9048      9051      9054      9050      9048      9051      9052
      9050      9048      9051      9053      9050      9048      9051      9054
      9051      9054      9057      9058      9051      9054      9057      9059
      9051      9054      9057      9060      9052      9051      9054      9055
      9052      9051      9054      9056      9052      9051      9054      9057
      9053      9051      9054      9055      9053      9051      9054      9056
      9053      9051      9054      9057      9054      9057      9060      9061
      9054      9057      9060      9062      9054      9057      9060      9063
      9055      9054      9057      9058      9055      9054      9057      9059
      9055      9054      9057      9060      9056      9054      9057      9058
      9056      9054      9057      9059      9056      9054      9057      9060
      9057      9060      9063      9064      9057      9060      9063      9065
      9057      9060      9063      9066      9058      9057      9060      9061
      9058      9057      9060      9062      9058      9057      9060      9063
      9059      9057      9060      9061      9059      9057      9060      9062
      9059      9057      9060      9063      9060      9063      9066      9067
      9060      9063      9066      9068      9060      9063      9066      9069
      9061      9060      9063      9064      9061      9060      9063      9065
      9061      9060      9063      9066      9062      9060      9063      9064
      9062      9060      9063      9065      9062      9060      9063      9066
      9064      9063      9066      9067      9064      9063      9066      9068
      9064      9063      9066      9069      9065      9063      9066      9067
      9065      9063      9066      9068      9065      9063      9066      9069
      9070      9073      9076      9077      9070      9073      9076      9078
      9070      9073      9076      9079      9071      9070      9073      9074
      9071      9070      9073      9075      9071      9070      9073      9076
      9072      9070      9073      9074      9072      9070      9073      9075
      9072      9070      9073      9076      9073      9076      9079      9080
      9073      9076      9079      9081      9073      9076      9079      9082
      9074      9073      9076      9077      9074      9073      9076      9078
      9074      9073      9076      9079      9075      9073      9076      9077
      9075      9073      9076      9078      9075      9073      9076      9079
      9076      9079      9082      9083      9076      9079      9082      9084
      9076      9079      9082      9085      9077      9076      9079      9080
      9077      9076      9079      9081      9077      9076      9079      9082
      9078      9076      9079      9080      9078      9076      9079      9081
      9078      9076      9079      9082      9079      9082      9085      9086
      9079      9082      9085      9087      9079      9082      9085      9088
      9080      9079      9082      9083      9080      9079      9082      9084
      9080      9079      9082      9085      9081      9079      9082      9083
      9081      9079      9082      9084      9081      9079      9082      9085
      9082      9085      9088      9089      9082      9085      9088      9090
      9082      9085      9088      9091      9083      9082      9085      9086
      9083      9082      9085      9087      9083      9082      9085      9088
      9084      9082      9085      9086      9084      9082      9085      9087
      9084      9082      9085      9088      9085      9088      9091      9092
      9085      9088      9091      9093      9085      9088      9091      9094
      9086      9085      9088      9089      9086      9085      9088      9090
      9086      9085      9088      9091      9087      9085      9088      9089
      9087      9085      9088      9090      9087      9085      9088      9091
      9088      9091      9094      9095      9088      9091      9094      9096
      9088      9091      9094      9097      9089      9088      9091      9092
      9089      9088      9091      9093      9089      9088      9091      9094
      9090      9088      9091      9092      9090      9088      9091      9093
      9090      9088      9091      9094      9091      9094      9097      9098
      9091      9094      9097      9099      9091      9094      9097      9100
      9092      9091      9094      9095      9092      9091      9094      9096
      9092      9091      9094      9097      9093      9091      9094      9095
      9093      9091      9094      9096      9093      9091      9094      9097
      9094      9097      9100      9101      9094      9097      9100      9102
      9094      9097      9100      9103      9095      9094      9097      9098
      9095      9094      9097      9099      9095      9094      9097      9100
      9096      9094      9097      9098      9096      9094      9097      9099
      9096      9094      9097      9100      9097      9100      9103      9104
      9097      9100      9103      9105      9097      9100      9103      9106
      9098      9097      9100      9101      9098      9097      9100      9102
      9098      9097      9100      9103      9099      9097      9100      9101
      9099      9097      9100      9102      9099      9097      9100      9103
      9100      9103      9106      9107      9100      9103      9106      9108
      9100      9103      9106      9109      9101      9100      9103      9104
      9101      9100      9103      9105      9101      9100      9103      9106
      9102      9100      9103      9104      9102      9100      9103      9105
      9102      9100      9103      9106      9103      9106      9109      9110
      9103      9106      9109      9111      9103      9106      9109      9112
      9104      9103      9106      9107      9104      9103      9106      9108
      9104      9103      9106      9109      9105      9103      9106      9107
      9105      9103      9106      9108      9105      9103      9106      9109
      9107      9106      9109      9110      9107      9106      9109      9111
      9107      9106      9109      9112      9108      9106      9109      9110
      9108      9106      9109      9111      9108      9106      9109      9112
      9113      9114      9129      9130      9113      9114      9129      9131
      9113      9114      9129      9135      9114      9113      9117      9118
      9114      9113      9117      9119      9114      9113      9117      9120
      9114      9113      9121      9122      9114      9113      9121      9123
      9114      9113      9121      9124      9114      9113      9125      9126
      9114      9113      9125      9127      9114      9113      9125      9128
      9114      9129      9135      9132      9115      9114      9113      9117
      9115      9114      9113      9121      9115      9114      9113      9125
      9115      9114      9129      9130      9115      9114      9129      9131
      9115      9114      9129      9135      9116      9114      9113      9117
      9116      9114      9113      9121      9116      9114      9113      9125
      9116      9114      9129      9130      9116      9114      9129      9131
      9116      9114      9129      9135      9117      9113      9114      9129
      9117      9113      9121      9122      9117      9113      9121      9123
      9117      9113      9121      9124      9117      9113      9125      9126
      9117      9113      9125      9127      9117      9113      9125      9128
      9118      9117      9113      9121      9118      9117      9113      9125
      9119      9117      9113      9121      9119      9117      9113      9125
      9120      9117      9113      9121      9120      9117      9113      9125
      9121      9113      9114      9129      9121      9113      9125      9126
      9121      9113      9125      9127      9121      9113      9125      9128
      9122      9121      9113      9125      9123      9121      9113      9125
      9124      9121      9113      9125      9125      9113      9114      9129
      9129      9135      9132      9133      9129      9135      9132      9134
      9129      9135      9132      9136      9130      9129      9135      9132
      9131      9129      9135      9132      9132      9136      9137      9138
      9132      9136      9137      9139      9132      9136      9137      9140
      9133      9132      9136      9137      9134      9132      9136      9137
      9135      9132      9136      9137      9136      9137      9140      9141
      9136      9137      9140      9142      9136      9137      9140      9148
      9137      9140      9142      9143      9137      9140      9148      9149
      9137      9140      9148      9150      9137      9140      9148      9151
      9138      9137      9140      9141      9138      9137      9140      9142
      9138      9137      9140      9148      9139      9137      9140      9141
      9139      9137      9140      9142      9139      9137      9140      9148
      9140      9142      9143      9144      9140      9142      9143      9145
      9140      9148      9151      9152      9141      9140      9142      9143
      9141      9140      9148      9149      9141      9140      9148      9150
      9141      9140      9148      9151      9142      9140      9148      9149
      9142      9140      9148      9150      9142      9140      9148      9151
      9142      9143      9145      9146      9142      9143      9145      9147
      9142      9143      9145      9157      9143      9142      9140      9148
      9143      9145      9157      9158      9143      9145      9157      9159
      9143      9145      9157      9160      9144      9143      9145      9146
      9144      9143      9145      9147      9144      9143      9145      9157
      9145      9157      9160      9161      9145      9157      9160      9162
      9145      9157      9160      9163      9146      9145      9157      9158
      9146      9145      9157      9159      9146      9145      9157      9160
      9147      9145      9157      9158      9147      9145      9157      9159
      9147      9145      9157      9160      9148      9151      9152      9153
      9148      9151      9152      9154      9149      9148      9151      9152
      9150      9148      9151      9152      9151      9152      9154      9155
      9151      9152      9154      9156      9151      9152      9154      9204
      9152      9154      9204      9205      9152      9154      9204      9206
      9152      9154      9204      9207      9153      9152      9154      9155
      9153      9152      9154      9156      9153      9152      9154      9204
      9154      9204      9207      9208      9154      9204      9207      9209
      9154      9204      9207      9210      9155      9154      9204      9205
      9155      9154      9204      9206      9155      9154      9204      9207
      9156      9154      9204      9205      9156      9154      9204      9206
      9156      9154      9204      9207      9157      9160      9163      9164
      9157      9160      9163      9165      9157      9160      9163      9166
      9158      9157      9160      9161      9158      9157      9160      9162
      9158      9157      9160      9163      9159      9157      9160      9161
      9159      9157      9160      9162      9159      9157      9160      9163
      9160      9163      9166      9167      9160      9163      9166      9168
      9160      9163      9166      9169      9161      9160      9163      9164
      9161      9160      9163      9165      9161      9160      9163      9166
      9162      9160      9163      9164      9162      9160      9163      9165
      9162      9160      9163      9166      9163      9166      9169      9170
      9163      9166      9169      9171      9163      9166      9169      9172
      9164      9163      9166      9167      9164      9163      9166      9168
      9164      9163      9166      9169      9165      9163      9166      9167
      9165      9163      9166      9168      9165      9163      9166      9169
      9166      9169      9172      9173      9166      9169      9172      9174
      9166      9169      9172      9175      9167      9166      9169      9170
      9167      9166      9169      9171      9167      9166      9169      9172
      9168      9166      9169      9170      9168      9166      9169      9171
      9168      9166      9169      9172      9169      9172      9175      9176
      9169      9172      9175      9177      9170      9169      9172      9173
      9170      9169      9172      9174      9170      9169      9172      9175
      9171      9169      9172      9173      9171      9169      9172      9174
      9171      9169      9172      9175      9172      9175      9177      9178
      9172      9175      9177      9179      9173      9172      9175      9176
      9173      9172      9175      9177      9174      9172      9175      9176
      9174      9172      9175      9177      9175      9177      9179      9180
      9175      9177      9179      9181      9175      9177      9179      9182
      9176      9175      9177      9178      9176      9175      9177      9179
      9177      9179      9182      9183      9177      9179      9182      9184
      9177      9179      9182      9185      9178      9177      9179      9180
      9178      9177      9179      9181      9178      9177      9179      9182
      9179      9182      9185      9186      9179      9182      9185      9187
      9179      9182      9185      9188      9180      9179      9182      9183
      9180      9179      9182      9184      9180      9179      9182      9185
      9181      9179      9182      9183      9181      9179      9182      9184
      9181      9179      9182      9185      9182      9185      9188      9189
      9182      9185      9188      9190      9182      9185      9188      9191
      9183      9182      9185      9186      9183      9182      9185      9187
      9183      9182      9185      9188      9184      9182      9185      9186
      9184      9182      9185      9187      9184      9182      9185      9188
      9185      9188      9191      9192      9185      9188      9191      9193
      9185      9188      9191      9194      9186      9185      9188      9189
      9186      9185      9188      9190      9186      9185      9188      9191
      9187      9185      9188      9189      9187      9185      9188      9190
      9187      9185      9188      9191      9188      9191      9194      9195
      9188      9191      9194      9196      9188      9191      9194      9197
      9189      9188      9191      9192      9189      9188      9191      9193
      9189      9188      9191      9194      9190      9188      9191      9192
      9190      9188      9191      9193      9190      9188      9191      9194
      9191      9194      9197      9198      9191      9194      9197      9199
      9191      9194      9197      9200      9192      9191      9194      9195
      9192      9191      9194      9196      9192      9191      9194      9197
      9193      9191      9194      9195      9193      9191      9194      9196
      9193      9191      9194      9197      9194      9197      9200      9201
      9194      9197      9200      9202      9194      9197      9200      9203
      9195      9194      9197      9198      9195      9194      9197      9199
      9195      9194      9197      9200      9196      9194      9197      9198
      9196      9194      9197      9199      9196      9194      9197      9200
      9198      9197      9200      9201      9198      9197      9200      9202
      9198      9197      9200      9203      9199      9197      9200      9201
      9199      9197      9200      9202      9199      9197      9200      9203
      9204      9207      9210      9211      9204      9207      9210      9212
      9204      9207      9210      9213      9205      9204      9207      9208
      9205      9204      9207      9209      9205      9204      9207      9210
      9206      9204      9207      9208      9206      9204      9207      9209
      9206      9204      9207      9210      9207      9210      9213      9214
      9207      9210      9213      9215      9207      9210      9213      9216
      9208      9207      9210      9211      9208      9207      9210      9212
      9208      9207      9210      9213      9209      9207      9210      9211
      9209      9207      9210      9212      9209      9207      9210      9213
      9210      9213      9216      9217      9210      9213      9216      9218
      9210      9213      9216      9219      9211      9210      9213      9214
      9211      9210      9213      9215      9211      9210      9213      9216
      9212      9210      9213      9214      9212      9210      9213      9215
      9212      9210      9213      9216      9213      9216      9219      9220
      9213      9216      9219      9221      9213      9216      9219      9222
      9214      9213      9216      9217      9214      9213      9216      9218
      9214      9213      9216      9219      9215      9213      9216      9217
      9215      9213      9216      9218      9215      9213      9216      9219
      9216      9219      9222      9223      9216      9219      9222      9224
      9216      9219      9222      9225      9217      9216      9219      9220
      9217      9216      9219      9221      9217      9216      9219      9222
      9218      9216      9219      9220      9218      9216      9219      9221
      9218      9216      9219      9222      9219      9222      9225      9226
      9219      9222      9225      9227      9219      9222      9225      9228
      9220      9219      9222      9223      9220      9219      9222      9224
      9220      9219      9222      9225      9221      9219      9222      9223
      9221      9219      9222      9224      9221      9219      9222      9225
      9222      9225      9228      9229      9222      9225      9228      9230
      9222      9225      9228      9231      9223      9222      9225      9226
      9223      9222      9225      9227      9223      9222      9225      9228
      9224      9222      9225      9226      9224      9222      9225      9227
      9224      9222      9225      9228      9225      9228      9231      9232
      9225      9228      9231      9233      9225      9228      9231      9234
      9226      9225      9228      9229      9226      9225      9228      9230
      9226      9225      9228      9231      9227      9225      9228      9229
      9227      9225      9228      9230      9227      9225      9228      9231
      9228      9231      9234      9235      9228      9231      9234      9236
      9228      9231      9234      9237      9229      9228      9231      9232
      9229      9228      9231      9233      9229      9228      9231      9234
      9230      9228      9231      9232      9230      9228      9231      9233
      9230      9228      9231      9234      9231      9234      9237      9238
      9231      9234      9237      9239      9231      9234      9237      9240
      9232      9231      9234      9235      9232      9231      9234      9236
      9232      9231      9234      9237      9233      9231      9234      9235
      9233      9231      9234      9236      9233      9231      9234      9237
      9234      9237      9240      9241      9234      9237      9240      9242
      9234      9237      9240      9243      9235      9234      9237      9238
      9235      9234      9237      9239      9235      9234      9237      9240
      9236      9234      9237      9238      9236      9234      9237      9239
      9236      9234      9237      9240      9237      9240      9243      9244
      9237      9240      9243      9245      9237      9240      9243      9246
      9238      9237      9240      9241      9238      9237      9240      9242
      9238      9237      9240      9243      9239      9237      9240      9241
      9239      9237      9240      9242      9239      9237      9240      9243
      9241      9240      9243      9244      9241      9240      9243      9245
      9241      9240      9243      9246      9242      9240      9243      9244
      9242      9240      9243      9245      9242      9240      9243      9246
      9247      9248      9263      9264      9247      9248      9263      9265
      9247      9248      9263      9269      9248      9247      9251      9252
      9248      9247      9251      9253      9248      9247      9251      9254
      9248      9247      9255      9256      9248      9247      9255      9257
      9248      9247      9255      9258      9248      9247      9259      9260
      9248      9247      9259      9261      9248      9247      9259      9262
      9248      9263      9269      9266      9249      9248      9247      9251
      9249      9248      9247      9255      9249      9248      9247      9259
      9249      9248      9263      9264      9249      9248      9263      9265
      9249      9248      9263      9269      9250      9248      9247      9251
      9250      9248      9247      9255      9250      9248      9247      9259
      9250      9248      9263      9264      9250      9248      9263      9265
      9250      9248      9263      9269      9251      9247      9248      9263
      9251      9247      9255      9256      9251      9247      9255      9257
      9251      9247      9255      9258      9251      9247      9259      9260
      9251      9247      9259      9261      9251      9247      9259      9262
      9252      9251      9247      9255      9252      9251      9247      9259
      9253      9251      9247      9255      9253      9251      9247      9259
      9254      9251      9247      9255      9254      9251      9247      9259
      9255      9247      9248      9263      9255      9247      9259      9260
      9255      9247      9259      9261      9255      9247      9259      9262
      9256      9255      9247      9259      9257      9255      9247      9259
      9258      9255      9247      9259      9259      9247      9248      9263
      9263      9269      9266      9267      9263      9269      9266      9268
      9263      9269      9266      9270      9264      9263      9269      9266
      9265      9263      9269      9266      9266      9270      9271      9272
      9266      9270      9271      9273      9266      9270      9271      9274
      9267      9266      9270      9271      9268      9266      9270      9271
      9269      9266      9270      9271      9270      9271      9274      9275
      9270      9271      9274      9276      9270      9271      9274      9282
      9271      9274      9276      9277      9271      9274      9282      9283
      9271      9274      9282      9284      9271      9274      9282      9285
      9272      9271      9274      9275      9272      9271      9274      9276
      9272      9271      9274      9282      9273      9271      9274      9275
      9273      9271      9274      9276      9273      9271      9274      9282
      9274      9276      9277      9278      9274      9276      9277      9279
      9274      9282      9285      9286      9275      9274      9276      9277
      9275      9274      9282      9283      9275      9274      9282      9284
      9275      9274      9282      9285      9276      9274      9282      9283
      9276      9274      9282      9284      9276      9274      9282      9285
      9276      9277      9279      9280      9276      9277      9279      9281
      9276      9277      9279      9291      9277      9276      9274      9282
      9277      9279      9291      9292      9277      9279      9291      9293
      9277      9279      9291      9294      9278      9277      9279      9280
      9278      9277      9279      9281      9278      9277      9279      9291
      9279      9291      9294      9295      9279      9291      9294      9296
      9279      9291      9294      9297      9280      9279      9291      9292
      9280      9279      9291      9293      9280      9279      9291      9294
      9281      9279      9291      9292      9281      9279      9291      9293
      9281      9279      9291      9294      9282      9285      9286      9287
      9282      9285      9286      9288      9283      9282      9285      9286
      9284      9282      9285      9286      9285      9286      9288      9289
      9285      9286      9288      9290      9285      9286      9288      9338
      9286      9288      9338      9339      9286      9288      9338      9340
      9286      9288      9338      9341      9287      9286      9288      9289
      9287      9286      9288      9290      9287      9286      9288      9338
      9288      9338      9341      9342      9288      9338      9341      9343
      9288      9338      9341      9344      9289      9288      9338      9339
      9289      9288      9338      9340      9289      9288      9338      9341
      9290      9288      9338      9339      9290      9288      9338      9340
      9290      9288      9338      9341      9291      9294      9297      9298
      9291      9294      9297      9299      9291      9294      9297      9300
      9292      9291      9294      9295      9292      9291      9294      9296
      9292      9291      9294      9297      9293      9291      9294      9295
      9293      9291      9294      9296      9293      9291      9294      9297
      9294      9297      9300      9301      9294      9297      9300      9302
      9294      9297      9300      9303      9295      9294      9297      9298
      9295      9294      9297      9299      9295      9294      9297      9300
      9296      9294      9297      9298      9296      9294      9297      9299
      9296      9294      9297      9300      9297      9300      9303      9304
      9297      9300      9303      9305      9297      9300      9303      9306
      9298      9297      9300      9301      9298      9297      9300      9302
      9298      9297      9300      9303      9299      9297      9300      9301
      9299      9297      9300      9302      9299      9297      9300      9303
      9300      9303      9306      9307      9300      9303      9306      9308
      9300      9303      9306      9309      9301      9300      9303      9304
      9301      9300      9303      9305      9301      9300      9303      9306
      9302      9300      9303      9304      9302      9300      9303      9305
      9302      9300      9303      9306      9303      9306      9309      9310
      9303      9306      9309      9311      9304      9303      9306      9307
      9304      9303      9306      9308      9304      9303      9306      9309
      9305      9303      9306      9307      9305      9303      9306      9308
      9305      9303      9306      9309      9306      9309      9311      9312
      9306      9309      9311      9313      9307      9306      9309      9310
      9307      9306      9309      9311      9308      9306      9309      9310
      9308      9306      9309      9311      9309      9311      9313      9314
      9309      9311      9313      9315      9309      9311      9313      9316
      9310      9309      9311      9312      9310      9309      9311      9313
      9311      9313      9316      9317      9311      9313      9316      9318
      9311      9313      9316      9319      9312      9311      9313      9314
      9312      9311      9313      9315      9312      9311      9313      9316
      9313      9316      9319      9320      9313      9316      9319      9321
      9313      9316      9319      9322      9314      9313      9316      9317
      9314      9313      9316      9318      9314      9313      9316      9319
      9315      9313      9316      9317      9315      9313      9316      9318
      9315      9313      9316      9319      9316      9319      9322      9323
      9316      9319      9322      9324      9316      9319      9322      9325
      9317      9316      9319      9320      9317      9316      9319      9321
      9317      9316      9319      9322      9318      9316      9319      9320
      9318      9316      9319      9321      9318      9316      9319      9322
      9319      9322      9325      9326      9319      9322      9325      9327
      9319      9322      9325      9328      9320      9319      9322      9323
      9320      9319      9322      9324      9320      9319      9322      9325
      9321      9319      9322      9323      9321      9319      9322      9324
      9321      9319      9322      9325      9322      9325      9328      9329
      9322      9325      9328      9330      9322      9325      9328      9331
      9323      9322      9325      9326      9323      9322      9325      9327
      9323      9322      9325      9328      9324      9322      9325      9326
      9324      9322      9325      9327      9324      9322      9325      9328
      9325      9328      9331      9332      9325      9328      9331      9333
      9325      9328      9331      9334      9326      9325      9328      9329
      9326      9325      9328      9330      9326      9325      9328      9331
      9327      9325      9328      9329      9327      9325      9328      9330
      9327      9325      9328      9331      9328      9331      9334      9335
      9328      9331      9334      9336      9328      9331      9334      9337
      9329      9328      9331      9332      9329      9328      9331      9333
      9329      9328      9331      9334      9330      9328      9331      9332
      9330      9328      9331      9333      9330      9328      9331      9334
      9332      9331      9334      9335      9332      9331      9334      9336
      9332      9331      9334      9337      9333      9331      9334      9335
      9333      9331      9334      9336      9333      9331      9334      9337
      9338      9341      9344      9345      9338      9341      9344      9346
      9338      9341      9344      9347      9339      9338      9341      9342
      9339      9338      9341      9343      9339      9338      9341      9344
      9340      9338      9341      9342      9340      9338      9341      9343
      9340      9338      9341      9344      9341      9344      9347      9348
      9341      9344      9347      9349      9341      9344      9347      9350
      9342      9341      9344      9345      9342      9341      9344      9346
      9342      9341      9344      9347      9343      9341      9344      9345
      9343      9341      9344      9346      9343      9341      9344      9347
      9344      9347      9350      9351      9344      9347      9350      9352
      9344      9347      9350      9353      9345      9344      9347      9348
      9345      9344      9347      9349      9345      9344      9347      9350
      9346      9344      9347      9348      9346      9344      9347      9349
      9346      9344      9347      9350      9347      9350      9353      9354
      9347      9350      9353      9355      9347      9350      9353      9356
      9348      9347      9350      9351      9348      9347      9350      9352
      9348      9347      9350      9353      9349      9347      9350      9351
      9349      9347      9350      9352      9349      9347      9350      9353
      9350      9353      9356      9357      9350      9353      9356      9358
      9350      9353      9356      9359      9351      9350      9353      9354
      9351      9350      9353      9355      9351      9350      9353      9356
      9352      9350      9353      9354      9352      9350      9353      9355
      9352      9350      9353      9356      9353      9356      9359      9360
      9353      9356      9359      9361      9353      9356      9359      9362
      9354      9353      9356      9357      9354      9353      9356      9358
      9354      9353      9356      9359      9355      9353      9356      9357
      9355      9353      9356      9358      9355      9353      9356      9359
      9356      9359      9362      9363      9356      9359      9362      9364
      9356      9359      9362      9365      9357      9356      9359      9360
      9357      9356      9359      9361      9357      9356      9359      9362
      9358      9356      9359      9360      9358      9356      9359      9361
      9358      9356      9359      9362      9359      9362      9365      9366
      9359      9362      9365      9367      9359      9362      9365      9368
      9360      9359      9362      9363      9360      9359      9362      9364
      9360      9359      9362      9365      9361      9359      9362      9363
      9361      9359      9362      9364      9361      9359      9362      9365
      9362      9365      9368      9369      9362      9365      9368      9370
      9362      9365      9368      9371      9363      9362      9365      9366
      9363      9362      9365      9367      9363      9362      9365      9368
      9364      9362      9365      9366      9364      9362      9365      9367
      9364      9362      9365      9368      9365      9368      9371      9372
      9365      9368      9371      9373      9365      9368      9371      9374
      9366      9365      9368      9369      9366      9365      9368      9370
      9366      9365      9368      9371      9367      9365      9368      9369
      9367      9365      9368      9370      9367      9365      9368      9371
      9368      9371      9374      9375      9368      9371      9374      9376
      9368      9371      9374      9377      9369      9368      9371      9372
      9369      9368      9371      9373      9369      9368      9371      9374
      9370      9368      9371      9372      9370      9368      9371      9373
      9370      9368      9371      9374      9371      9374      9377      9378
      9371      9374      9377      9379      9371      9374      9377      9380
      9372      9371      9374      9375      9372      9371      9374      9376
      9372      9371      9374      9377      9373      9371      9374      9375
      9373      9371      9374      9376      9373      9371      9374      9377
      9375      9374      9377      9378      9375      9374      9377      9379
      9375      9374      9377      9380      9376      9374      9377      9378
      9376      9374      9377      9379      9376      9374      9377      9380
      9381      9382      9397      9398      9381      9382      9397      9399
      9381      9382      9397      9403      9382      9381      9385      9386
      9382      9381      9385      9387      9382      9381      9385      9388
      9382      9381      9389      9390      9382      9381      9389      9391
      9382      9381      9389      9392      9382      9381      9393      9394
      9382      9381      9393      9395      9382      9381      9393      9396
      9382      9397      9403      9400      9383      9382      9381      9385
      9383      9382      9381      9389      9383      9382      9381      9393
      9383      9382      9397      9398      9383      9382      9397      9399
      9383      9382      9397      9403      9384      9382      9381      9385
      9384      9382      9381      9389      9384      9382      9381      9393
      9384      9382      9397      9398      9384      9382      9397      9399
      9384      9382      9397      9403      9385      9381      9382      9397
      9385      9381      9389      9390      9385      9381      9389      9391
      9385      9381      9389      9392      9385      9381      9393      9394
      9385      9381      9393      9395      9385      9381      9393      9396
      9386      9385      9381      9389      9386      9385      9381      9393
      9387      9385      9381      9389      9387      9385      9381      9393
      9388      9385      9381      9389      9388      9385      9381      9393
      9389      9381      9382      9397      9389      9381      9393      9394
      9389      9381      9393      9395      9389      9381      9393      9396
      9390      9389      9381      9393      9391      9389      9381      9393
      9392      9389      9381      9393      9393      9381      9382      9397
      9397      9403      9400      9401      9397      9403      9400      9402
      9397      9403      9400      9404      9398      9397      9403      9400
      9399      9397      9403      9400      9400      9404      9405      9406
      9400      9404      9405      9407      9400      9404      9405      9408
      9401      9400      9404      9405      9402      9400      9404      9405
      9403      9400      9404      9405      9404      9405      9408      9409
      9404      9405      9408      9410      9404      9405      9408      9416
      9405      9408      9410      9411      9405      9408      9416      9417
      9405      9408      9416      9418      9405      9408      9416      9419
      9406      9405      9408      9409      9406      9405      9408      9410
      9406      9405      9408      9416      9407      9405      9408      9409
      9407      9405      9408      9410      9407      9405      9408      9416
      9408      9410      9411      9412      9408      9410      9411      9413
      9408      9416      9419      9420      9409      9408      9410      9411
      9409      9408      9416      9417      9409      9408      9416      9418
      9409      9408      9416      9419      9410      9408      9416      9417
      9410      9408      9416      9418      9410      9408      9416      9419
      9410      9411      9413      9414      9410      9411      9413      9415
      9410      9411      9413      9425      9411      9410      9408      9416
      9411      9413      9425      9426      9411      9413      9425      9427
      9411      9413      9425      9428      9412      9411      9413      9414
      9412      9411      9413      9415      9412      9411      9413      9425
      9413      9425      9428      9429      9413      9425      9428      9430
      9413      9425      9428      9431      9414      9413      9425      9426
      9414      9413      9425      9427      9414      9413      9425      9428
      9415      9413      9425      9426      9415      9413      9425      9427
      9415      9413      9425      9428      9416      9419      9420      9421
      9416      9419      9420      9422      9417      9416      9419      9420
      9418      9416      9419      9420      9419      9420      9422      9423
      9419      9420      9422      9424      9419      9420      9422      9472
      9420      9422      9472      9473      9420      9422      9472      9474
      9420      9422      9472      9475      9421      9420      9422      9423
      9421      9420      9422      9424      9421      9420      9422      9472
      9422      9472      9475      9476      9422      9472      9475      9477
      9422      9472      9475      9478      9423      9422      9472      9473
      9423      9422      9472      9474      9423      9422      9472      9475
      9424      9422      9472      9473      9424      9422      9472      9474
      9424      9422      9472      9475      9425      9428      9431      9432
      9425      9428      9431      9433      9425      9428      9431      9434
      9426      9425      9428      9429      9426      9425      9428      9430
      9426      9425      9428      9431      9427      9425      9428      9429
      9427      9425      9428      9430      9427      9425      9428      9431
      9428      9431      9434      9435      9428      9431      9434      9436
      9428      9431      9434      9437      9429      9428      9431      9432
      9429      9428      9431      9433      9429      9428      9431      9434
      9430      9428      9431      9432      9430      9428      9431      9433
      9430      9428      9431      9434      9431      9434      9437      9438
      9431      9434      9437      9439      9431      9434      9437      9440
      9432      9431      9434      9435      9432      9431      9434      9436
      9432      9431      9434      9437      9433      9431      9434      9435
      9433      9431      9434      9436      9433      9431      9434      9437
      9434      9437      9440      9441      9434      9437      9440      9442
      9434      9437      9440      9443      9435      9434      9437      9438
      9435      9434      9437      9439      9435      9434      9437      9440
      9436      9434      9437      9438      9436      9434      9437      9439
      9436      9434      9437      9440      9437      9440      9443      9444
      9437      9440      9443      9445      9438      9437      9440      9441
      9438      9437      9440      9442      9438      9437      9440      9443
      9439      9437      9440      9441      9439      9437      9440      9442
      9439      9437      9440      9443      9440      9443      9445      9446
      9440      9443      9445      9447      9441      9440      9443      9444
      9441      9440      9443      9445      9442      9440      9443      9444
      9442      9440      9443      9445      9443      9445      9447      9448
      9443      9445      9447      9449      9443      9445      9447      9450
      9444      9443      9445      9446      9444      9443      9445      9447
      9445      9447      9450      9451      9445      9447      9450      9452
      9445      9447      9450      9453      9446      9445      9447      9448
      9446      9445      9447      9449      9446      9445      9447      9450
      9447      9450      9453      9454      9447      9450      9453      9455
      9447      9450      9453      9456      9448      9447      9450      9451
      9448      9447      9450      9452      9448      9447      9450      9453
      9449      9447      9450      9451      9449      9447      9450      9452
      9449      9447      9450      9453      9450      9453      9456      9457
      9450      9453      9456      9458      9450      9453      9456      9459
      9451      9450      9453      9454      9451      9450      9453      9455
      9451      9450      9453      9456      9452      9450      9453      9454
      9452      9450      9453      9455      9452      9450      9453      9456
      9453      9456      9459      9460      9453      9456      9459      9461
      9453      9456      9459      9462      9454      9453      9456      9457
      9454      9453      9456      9458      9454      9453      9456      9459
      9455      9453      9456      9457      9455      9453      9456      9458
      9455      9453      9456      9459      9456      9459      9462      9463
      9456      9459      9462      9464      9456      9459      9462      9465
      9457      9456      9459      9460      9457      9456      9459      9461
      9457      9456      9459      9462      9458      9456      9459      9460
      9458      9456      9459      9461      9458      9456      9459      9462
      9459      9462      9465      9466      9459      9462      9465      9467
      9459      9462      9465      9468      9460      9459      9462      9463
      9460      9459      9462      9464      9460      9459      9462      9465
      9461      9459      9462      9463      9461      9459      9462      9464
      9461      9459      9462      9465      9462      9465      9468      9469
      9462      9465      9468      9470      9462      9465      9468      9471
      9463      9462      9465      9466      9463      9462      9465      9467
      9463      9462      9465      9468      9464      9462      9465      9466
      9464      9462      9465      9467      9464      9462      9465      9468
      9466      9465      9468      9469      9466      9465      9468      9470
      9466      9465      9468      9471      9467      9465      9468      9469
      9467      9465      9468      9470      9467      9465      9468      9471
      9472      9475      9478      9479      9472      9475      9478      9480
      9472      9475      9478      9481      9473      9472      9475      9476
      9473      9472      9475      9477      9473      9472      9475      9478
      9474      9472      9475      9476      9474      9472      9475      9477
      9474      9472      9475      9478      9475      9478      9481      9482
      9475      9478      9481      9483      9475      9478      9481      9484
      9476      9475      9478      9479      9476      9475      9478      9480
      9476      9475      9478      9481      9477      9475      9478      9479
      9477      9475      9478      9480      9477      9475      9478      9481
      9478      9481      9484      9485      9478      9481      9484      9486
      9478      9481      9484      9487      9479      9478      9481      9482
      9479      9478      9481      9483      9479      9478      9481      9484
      9480      9478      9481      9482      9480      9478      9481      9483
      9480      9478      9481      9484      9481      9484      9487      9488
      9481      9484      9487      9489      9481      9484      9487      9490
      9482      9481      9484      9485      9482      9481      9484      9486
      9482      9481      9484      9487      9483      9481      9484      9485
      9483      9481      9484      9486      9483      9481      9484      9487
      9484      9487      9490      9491      9484      9487      9490      9492
      9484      9487      9490      9493      9485      9484      9487      9488
      9485      9484      9487      9489      9485      9484      9487      9490
      9486      9484      9487      9488      9486      9484      9487      9489
      9486      9484      9487      9490      9487      9490      9493      9494
      9487      9490      9493      9495      9487      9490      9493      9496
      9488      9487      9490      9491      9488      9487      9490      9492
      9488      9487      9490      9493      9489      9487      9490      9491
      9489      9487      9490      9492      9489      9487      9490      9493
      9490      9493      9496      9497      9490      9493      9496      9498
      9490      9493      9496      9499      9491      9490      9493      9494
      9491      9490      9493      9495      9491      9490      9493      9496
      9492      9490      9493      9494      9492      9490      9493      9495
      9492      9490      9493      9496      9493      9496      9499      9500
      9493      9496      9499      9501      9493      9496      9499      9502
      9494      9493      9496      9497      9494      9493      9496      9498
      9494      9493      9496      9499      9495      9493      9496      9497
      9495      9493      9496      9498      9495      9493      9496      9499
      9496      9499      9502      9503      9496      9499      9502      9504
      9496      9499      9502      9505      9497      9496      9499      9500
      9497      9496      9499      9501      9497      9496      9499      9502
      9498      9496      9499      9500      9498      9496      9499      9501
      9498      9496      9499      9502      9499      9502      9505      9506
      9499      9502      9505      9507      9499      9502      9505      9508
      9500      9499      9502      9503      9500      9499      9502      9504
      9500      9499      9502      9505      9501      9499      9502      9503
      9501      9499      9502      9504      9501      9499      9502      9505
      9502      9505      9508      9509      9502      9505      9508      9510
      9502      9505      9508      9511      9503      9502      9505      9506
      9503      9502      9505      9507      9503      9502      9505      9508
      9504      9502      9505      9506      9504      9502      9505      9507
      9504      9502      9505      9508      9505      9508      9511      9512
      9505      9508      9511      9513      9505      9508      9511      9514
      9506      9505      9508      9509      9506      9505      9508      9510
      9506      9505      9508      9511      9507      9505      9508      9509
      9507      9505      9508      9510      9507      9505      9508      9511
      9509      9508      9511      9512      9509      9508      9511      9513
      9509      9508      9511      9514      9510      9508      9511      9512
      9510      9508      9511      9513      9510      9508      9511      9514
      9515      9516      9531      9532      9515      9516      9531      9533
      9515      9516      9531      9537      9516      9515      9519      9520
      9516      9515      9519      9521      9516      9515      9519      9522
      9516      9515      9523      9524      9516      9515      9523      9525
      9516      9515      9523      9526      9516      9515      9527      9528
      9516      9515      9527      9529      9516      9515      9527      9530
      9516      9531      9537      9534      9517      9516      9515      9519
      9517      9516      9515      9523      9517      9516      9515      9527
      9517      9516      9531      9532      9517      9516      9531      9533
      9517      9516      9531      9537      9518      9516      9515      9519
      9518      9516      9515      9523      9518      9516      9515      9527
      9518      9516      9531      9532      9518      9516      9531      9533
      9518      9516      9531      9537      9519      9515      9516      9531
      9519      9515      9523      9524      9519      9515      9523      9525
      9519      9515      9523      9526      9519      9515      9527      9528
      9519      9515      9527      9529      9519      9515      9527      9530
      9520      9519      9515      9523      9520      9519      9515      9527
      9521      9519      9515      9523      9521      9519      9515      9527
      9522      9519      9515      9523      9522      9519      9515      9527
      9523      9515      9516      9531      9523      9515      9527      9528
      9523      9515      9527      9529      9523      9515      9527      9530
      9524      9523      9515      9527      9525      9523      9515      9527
      9526      9523      9515      9527      9527      9515      9516      9531
      9531      9537      9534      9535      9531      9537      9534      9536
      9531      9537      9534      9538      9532      9531      9537      9534
      9533      9531      9537      9534      9534      9538      9539      9540
      9534      9538      9539      9541      9534      9538      9539      9542
      9535      9534      9538      9539      9536      9534      9538      9539
      9537      9534      9538      9539      9538      9539      9542      9543
      9538      9539      9542      9544      9538      9539      9542      9550
      9539      9542      9544      9545      9539      9542      9550      9551
      9539      9542      9550      9552      9539      9542      9550      9553
      9540      9539      9542      9543      9540      9539      9542      9544
      9540      9539      9542      9550      9541      9539      9542      9543
      9541      9539      9542      9544      9541      9539      9542      9550
      9542      9544      9545      9546      9542      9544      9545      9547
      9542      9550      9553      9554      9543      9542      9544      9545
      9543      9542      9550      9551      9543      9542      9550      9552
      9543      9542      9550      9553      9544      9542      9550      9551
      9544      9542      9550      9552      9544      9542      9550      9553
      9544      9545      9547      9548      9544      9545      9547      9549
      9544      9545      9547      9559      9545      9544      9542      9550
      9545      9547      9559      9560      9545      9547      9559      9561
      9545      9547      9559      9562      9546      9545      9547      9548
      9546      9545      9547      9549      9546      9545      9547      9559
      9547      9559      9562      9563      9547      9559      9562      9564
      9547      9559      9562      9565      9548      9547      9559      9560
      9548      9547      9559      9561      9548      9547      9559      9562
      9549      9547      9559      9560      9549      9547      9559      9561
      9549      9547      9559      9562      9550      9553      9554      9555
      9550      9553      9554      9556      9551      9550      9553      9554
      9552      9550      9553      9554      9553      9554      9556      9557
      9553      9554      9556      9558      9553      9554      9556      9606
      9554      9556      9606      9607      9554      9556      9606      9608
      9554      9556      9606      9609      9555      9554      9556      9557
      9555      9554      9556      9558      9555      9554      9556      9606
      9556      9606      9609      9610      9556      9606      9609      9611
      9556      9606      9609      9612      9557      9556      9606      9607
      9557      9556      9606      9608      9557      9556      9606      9609
      9558      9556      9606      9607      9558      9556      9606      9608
      9558      9556      9606      9609      9559      9562      9565      9566
      9559      9562      9565      9567      9559      9562      9565      9568
      9560      9559      9562      9563      9560      9559      9562      9564
      9560      9559      9562      9565      9561      9559      9562      9563
      9561      9559      9562      9564      9561      9559      9562      9565
      9562      9565      9568      9569      9562      9565      9568      9570
      9562      9565      9568      9571      9563      9562      9565      9566
      9563      9562      9565      9567      9563      9562      9565      9568
      9564      9562      9565      9566      9564      9562      9565      9567
      9564      9562      9565      9568      9565      9568      9571      9572
      9565      9568      9571      9573      9565      9568      9571      9574
      9566      9565      9568      9569      9566      9565      9568      9570
      9566      9565      9568      9571      9567      9565      9568      9569
      9567      9565      9568      9570      9567      9565      9568      9571
      9568      9571      9574      9575      9568      9571      9574      9576
      9568      9571      9574      9577      9569      9568      9571      9572
      9569      9568      9571      9573      9569      9568      9571      9574
      9570      9568      9571      9572      9570      9568      9571      9573
      9570      9568      9571      9574      9571      9574      9577      9578
      9571      9574      9577      9579      9572      9571      9574      9575
      9572      9571      9574      9576      9572      9571      9574      9577
      9573      9571      9574      9575      9573      9571      9574      9576
      9573      9571      9574      9577      9574      9577      9579      9580
      9574      9577      9579      9581      9575      9574      9577      9578
      9575      9574      9577      9579      9576      9574      9577      9578
      9576      9574      9577      9579      9577      9579      9581      9582
      9577      9579      9581      9583      9577      9579      9581      9584
      9578      9577      9579      9580      9578      9577      9579      9581
      9579      9581      9584      9585      9579      9581      9584      9586
      9579      9581      9584      9587      9580      9579      9581      9582
      9580      9579      9581      9583      9580      9579      9581      9584
      9581      9584      9587      9588      9581      9584      9587      9589
      9581      9584      9587      9590      9582      9581      9584      9585
      9582      9581      9584      9586      9582      9581      9584      9587
      9583      9581      9584      9585      9583      9581      9584      9586
      9583      9581      9584      9587      9584      9587      9590      9591
      9584      9587      9590      9592      9584      9587      9590      9593
      9585      9584      9587      9588      9585      9584      9587      9589
      9585      9584      9587      9590      9586      9584      9587      9588
      9586      9584      9587      9589      9586      9584      9587      9590
      9587      9590      9593      9594      9587      9590      9593      9595
      9587      9590      9593      9596      9588      9587      9590      9591
      9588      9587      9590      9592      9588      9587      9590      9593
      9589      9587      9590      9591      9589      9587      9590      9592
      9589      9587      9590      9593      9590      9593      9596      9597
      9590      9593      9596      9598      9590      9593      9596      9599
      9591      9590      9593      9594      9591      9590      9593      9595
      9591      9590      9593      9596      9592      9590      9593      9594
      9592      9590      9593      9595      9592      9590      9593      9596
      9593      9596      9599      9600      9593      9596      9599      9601
      9593      9596      9599      9602      9594      9593      9596      9597
      9594      9593      9596      9598      9594      9593      9596      9599
      9595      9593      9596      9597      9595      9593      9596      9598
      9595      9593      9596      9599      9596      9599      9602      9603
      9596      9599      9602      9604      9596      9599      9602      9605
      9597      9596      9599      9600      9597      9596      9599      9601
      9597      9596      9599      9602      9598      9596      9599      9600
      9598      9596      9599      9601      9598      9596      9599      9602
      9600      9599      9602      9603      9600      9599      9602      9604
      9600      9599      9602      9605      9601      9599      9602      9603
      9601      9599      9602      9604      9601      9599      9602      9605
      9606      9609      9612      9613      9606      9609      9612      9614
      9606      9609      9612      9615      9607      9606      9609      9610
      9607      9606      9609      9611      9607      9606      9609      9612
      9608      9606      9609      9610      9608      9606      9609      9611
      9608      9606      9609      9612      9609      9612      9615      9616
      9609      9612      9615      9617      9609      9612      9615      9618
      9610      9609      9612      9613      9610      9609      9612      9614
      9610      9609      9612      9615      9611      9609      9612      9613
      9611      9609      9612      9614      9611      9609      9612      9615
      9612      9615      9618      9619      9612      9615      9618      9620
      9612      9615      9618      9621      9613      9612      9615      9616
      9613      9612      9615      9617      9613      9612      9615      9618
      9614      9612      9615      9616      9614      9612      9615      9617
      9614      9612      9615      9618      9615      9618      9621      9622
      9615      9618      9621      9623      9615      9618      9621      9624
      9616      9615      9618      9619      9616      9615      9618      9620
      9616      9615      9618      9621      9617      9615      9618      9619
      9617      9615      9618      9620      9617      9615      9618      9621
      9618      9621      9624      9625      9618      9621      9624      9626
      9618      9621      9624      9627      9619      9618      9621      9622
      9619      9618      9621      9623      9619      9618      9621      9624
      9620      9618      9621      9622      9620      9618      9621      9623
      9620      9618      9621      9624      9621      9624      9627      9628
      9621      9624      9627      9629      9621      9624      9627      9630
      9622      9621      9624      9625      9622      9621      9624      9626
      9622      9621      9624      9627      9623      9621      9624      9625
      9623      9621      9624      9626      9623      9621      9624      9627
      9624      9627      9630      9631      9624      9627      9630      9632
      9624      9627      9630      9633      9625      9624      9627      9628
      9625      9624      9627      9629      9625      9624      9627      9630
      9626      9624      9627      9628      9626      9624      9627      9629
      9626      9624      9627      9630      9627      9630      9633      9634
      9627      9630      9633      9635      9627      9630      9633      9636
      9628      9627      9630      9631      9628      9627      9630      9632
      9628      9627      9630      9633      9629      9627      9630      9631
      9629      9627      9630      9632      9629      9627      9630      9633
      9630      9633      9636      9637      9630      9633      9636      9638
      9630      9633      9636      9639      9631      9630      9633      9634
      9631      9630      9633      9635      9631      9630      9633      9636
      9632      9630      9633      9634      9632      9630      9633      9635
      9632      9630      9633      9636      9633      9636      9639      9640
      9633      9636      9639      9641      9633      9636      9639      9642
      9634      9633      9636      9637      9634      9633      9636      9638
      9634      9633      9636      9639      9635      9633      9636      9637
      9635      9633      9636      9638      9635      9633      9636      9639
      9636      9639      9642      9643      9636      9639      9642      9644
      9636      9639      9642      9645      9637      9636      9639      9640
      9637      9636      9639      9641      9637      9636      9639      9642
      9638      9636      9639      9640      9638      9636      9639      9641
      9638      9636      9639      9642      9639      9642      9645      9646
      9639      9642      9645      9647      9639      9642      9645      9648
      9640      9639      9642      9643      9640      9639      9642      9644
      9640      9639      9642      9645      9641      9639      9642      9643
      9641      9639      9642      9644      9641      9639      9642      9645
      9643      9642      9645      9646      9643      9642      9645      9647
      9643      9642      9645      9648      9644      9642      9645      9646
      9644      9642      9645      9647      9644      9642      9645      9648
      9649      9650      9665      9666      9649      9650      9665      9667
      9649      9650      9665      9671      9650      9649      9653      9654
      9650      9649      9653      9655      9650      9649      9653      9656
      9650      9649      9657      9658      9650      9649      9657      9659
      9650      9649      9657      9660      9650      9649      9661      9662
      9650      9649      9661      9663      9650      9649      9661      9664
      9650      9665      9671      9668      9651      9650      9649      9653
      9651      9650      9649      9657      9651      9650      9649      9661
      9651      9650      9665      9666      9651      9650      9665      9667
      9651      9650      9665      9671      9652      9650      9649      9653
      9652      9650      9649      9657      9652      9650      9649      9661
      9652      9650      9665      9666      9652      9650      9665      9667
      9652      9650      9665      9671      9653      9649      9650      9665
      9653      9649      9657      9658      9653      9649      9657      9659
      9653      9649      9657      9660      9653      9649      9661      9662
      9653      9649      9661      9663      9653      9649      9661      9664
      9654      9653      9649      9657      9654      9653      9649      9661
      9655      9653      9649      9657      9655      9653      9649      9661
      9656      9653      9649      9657      9656      9653      9649      9661
      9657      9649      9650      9665      9657      9649      9661      9662
      9657      9649      9661      9663      9657      9649      9661      9664
      9658      9657      9649      9661      9659      9657      9649      9661
      9660      9657      9649      9661      9661      9649      9650      9665
      9665      9671      9668      9669      9665      9671      9668      9670
      9665      9671      9668      9672      9666      9665      9671      9668
      9667      9665      9671      9668      9668      9672      9673      9674
      9668      9672      9673      9675      9668      9672      9673      9676
      9669      9668      9672      9673      9670      9668      9672      9673
      9671      9668      9672      9673      9672      9673      9676      9677
      9672      9673      9676      9678      9672      9673      9676      9684
      9673      9676      9678      9679      9673      9676      9684      9685
      9673      9676      9684      9686      9673      9676      9684      9687
      9674      9673      9676      9677      9674      9673      9676      9678
      9674      9673      9676      9684      9675      9673      9676      9677
      9675      9673      9676      9678      9675      9673      9676      9684
      9676      9678      9679      9680      9676      9678      9679      9681
      9676      9684      9687      9688      9677      9676      9678      9679
      9677      9676      9684      9685      9677      9676      9684      9686
      9677      9676      9684      9687      9678      9676      9684      9685
      9678      9676      9684      9686      9678      9676      9684      9687
      9678      9679      9681      9682      9678      9679      9681      9683
      9678      9679      9681      9693      9679      9678      9676      9684
      9679      9681      9693      9694      9679      9681      9693      9695
      9679      9681      9693      9696      9680      9679      9681      9682
      9680      9679      9681      9683      9680      9679      9681      9693
      9681      9693      9696      9697      9681      9693      9696      9698
      9681      9693      9696      9699      9682      9681      9693      9694
      9682      9681      9693      9695      9682      9681      9693      9696
      9683      9681      9693      9694      9683      9681      9693      9695
      9683      9681      9693      9696      9684      9687      9688      9689
      9684      9687      9688      9690      9685      9684      9687      9688
      9686      9684      9687      9688      9687      9688      9690      9691
      9687      9688      9690      9692      9687      9688      9690      9740
      9688      9690      9740      9741      9688      9690      9740      9742
      9688      9690      9740      9743      9689      9688      9690      9691
      9689      9688      9690      9692      9689      9688      9690      9740
      9690      9740      9743      9744      9690      9740      9743      9745
      9690      9740      9743      9746      9691      9690      9740      9741
      9691      9690      9740      9742      9691      9690      9740      9743
      9692      9690      9740      9741      9692      9690      9740      9742
      9692      9690      9740      9743      9693      9696      9699      9700
      9693      9696      9699      9701      9693      9696      9699      9702
      9694      9693      9696      9697      9694      9693      9696      9698
      9694      9693      9696      9699      9695      9693      9696      9697
      9695      9693      9696      9698      9695      9693      9696      9699
      9696      9699      9702      9703      9696      9699      9702      9704
      9696      9699      9702      9705      9697      9696      9699      9700
      9697      9696      9699      9701      9697      9696      9699      9702
      9698      9696      9699      9700      9698      9696      9699      9701
      9698      9696      9699      9702      9699      9702      9705      9706
      9699      9702      9705      9707      9699      9702      9705      9708
      9700      9699      9702      9703      9700      9699      9702      9704
      9700      9699      9702      9705      9701      9699      9702      9703
      9701      9699      9702      9704      9701      9699      9702      9705
      9702      9705      9708      9709      9702      9705      9708      9710
      9702      9705      9708      9711      9703      9702      9705      9706
      9703      9702      9705      9707      9703      9702      9705      9708
      9704      9702      9705      9706      9704      9702      9705      9707
      9704      9702      9705      9708      9705      9708      9711      9712
      9705      9708      9711      9713      9706      9705      9708      9709
      9706      9705      9708      9710      9706      9705      9708      9711
      9707      9705      9708      9709      9707      9705      9708      9710
      9707      9705      9708      9711      9708      9711      9713      9714
      9708      9711      9713      9715      9709      9708      9711      9712
      9709      9708      9711      9713      9710      9708      9711      9712
      9710      9708      9711      9713      9711      9713      9715      9716
      9711      9713      9715      9717      9711      9713      9715      9718
      9712      9711      9713      9714      9712      9711      9713      9715
      9713      9715      9718      9719      9713      9715      9718      9720
      9713      9715      9718      9721      9714      9713      9715      9716
      9714      9713      9715      9717      9714      9713      9715      9718
      9715      9718      9721      9722      9715      9718      9721      9723
      9715      9718      9721      9724      9716      9715      9718      9719
      9716      9715      9718      9720      9716      9715      9718      9721
      9717      9715      9718      9719      9717      9715      9718      9720
      9717      9715      9718      9721      9718      9721      9724      9725
      9718      9721      9724      9726      9718      9721      9724      9727
      9719      9718      9721      9722      9719      9718      9721      9723
      9719      9718      9721      9724      9720      9718      9721      9722
      9720      9718      9721      9723      9720      9718      9721      9724
      9721      9724      9727      9728      9721      9724      9727      9729
      9721      9724      9727      9730      9722      9721      9724      9725
      9722      9721      9724      9726      9722      9721      9724      9727
      9723      9721      9724      9725      9723      9721      9724      9726
      9723      9721      9724      9727      9724      9727      9730      9731
      9724      9727      9730      9732      9724      9727      9730      9733
      9725      9724      9727      9728      9725      9724      9727      9729
      9725      9724      9727      9730      9726      9724      9727      9728
      9726      9724      9727      9729      9726      9724      9727      9730
      9727      9730      9733      9734      9727      9730      9733      9735
      9727      9730      9733      9736      9728      9727      9730      9731
      9728      9727      9730      9732      9728      9727      9730      9733
      9729      9727      9730      9731      9729      9727      9730      9732
      9729      9727      9730      9733      9730      9733      9736      9737
      9730      9733      9736      9738      9730      9733      9736      9739
      9731      9730      9733      9734      9731      9730      9733      9735
      9731      9730      9733      9736      9732      9730      9733      9734
      9732      9730      9733      9735      9732      9730      9733      9736
      9734      9733      9736      9737      9734      9733      9736      9738
      9734      9733      9736      9739      9735      9733      9736      9737
      9735      9733      9736      9738      9735      9733      9736      9739
      9740      9743      9746      9747      9740      9743      9746      9748
      9740      9743      9746      9749      9741      9740      9743      9744
      9741      9740      9743      9745      9741      9740      9743      9746
      9742      9740      9743      9744      9742      9740      9743      9745
      9742      9740      9743      9746      9743      9746      9749      9750
      9743      9746      9749      9751      9743      9746      9749      9752
      9744      9743      9746      9747      9744      9743      9746      9748
      9744      9743      9746      9749      9745      9743      9746      9747
      9745      9743      9746      9748      9745      9743      9746      9749
      9746      9749      9752      9753      9746      9749      9752      9754
      9746      9749      9752      9755      9747      9746      9749      9750
      9747      9746      9749      9751      9747      9746      9749      9752
      9748      9746      9749      9750      9748      9746      9749      9751
      9748      9746      9749      9752      9749      9752      9755      9756
      9749      9752      9755      9757      9749      9752      9755      9758
      9750      9749      9752      9753      9750      9749      9752      9754
      9750      9749      9752      9755      9751      9749      9752      9753
      9751      9749      9752      9754      9751      9749      9752      9755
      9752      9755      9758      9759      9752      9755      9758      9760
      9752      9755      9758      9761      9753      9752      9755      9756
      9753      9752      9755      9757      9753      9752      9755      9758
      9754      9752      9755      9756      9754      9752      9755      9757
      9754      9752      9755      9758      9755      9758      9761      9762
      9755      9758      9761      9763      9755      9758      9761      9764
      9756      9755      9758      9759      9756      9755      9758      9760
      9756      9755      9758      9761      9757      9755      9758      9759
      9757      9755      9758      9760      9757      9755      9758      9761
      9758      9761      9764      9765      9758      9761      9764      9766
      9758      9761      9764      9767      9759      9758      9761      9762
      9759      9758      9761      9763      9759      9758      9761      9764
      9760      9758      9761      9762      9760      9758      9761      9763
      9760      9758      9761      9764      9761      9764      9767      9768
      9761      9764      9767      9769      9761      9764      9767      9770
      9762      9761      9764      9765      9762      9761      9764      9766
      9762      9761      9764      9767      9763      9761      9764      9765
      9763      9761      9764      9766      9763      9761      9764      9767
      9764      9767      9770      9771      9764      9767      9770      9772
      9764      9767      9770      9773      9765      9764      9767      9768
      9765      9764      9767      9769      9765      9764      9767      9770
      9766      9764      9767      9768      9766      9764      9767      9769
      9766      9764      9767      9770      9767      9770      9773      9774
      9767      9770      9773      9775      9767      9770      9773      9776
      9768      9767      9770      9771      9768      9767      9770      9772
      9768      9767      9770      9773      9769      9767      9770      9771
      9769      9767      9770      9772      9769      9767      9770      9773
      9770      9773      9776      9777      9770      9773      9776      9778
      9770      9773      9776      9779      9771      9770      9773      9774
      9771      9770      9773      9775      9771      9770      9773      9776
      9772      9770      9773      9774      9772      9770      9773      9775
      9772      9770      9773      9776      9773      9776      9779      9780
      9773      9776      9779      9781      9773      9776      9779      9782
      9774      9773      9776      9777      9774      9773      9776      9778
      9774      9773      9776      9779      9775      9773      9776      9777
      9775      9773      9776      9778      9775      9773      9776      9779
      9777      9776      9779      9780      9777      9776      9779      9781
      9777      9776      9779      9782      9778      9776      9779      9780
      9778      9776      9779      9781      9778      9776      9779      9782
      9783      9784      9799      9800      9783      9784      9799      9801
      9783      9784      9799      9805      9784      9783      9787      9788
      9784      9783      9787      9789      9784      9783      9787      9790
      9784      9783      9791      9792      9784      9783      9791      9793
      9784      9783      9791      9794      9784      9783      9795      9796
      9784      9783      9795      9797      9784      9783      9795      9798
      9784      9799      9805      9802      9785      9784      9783      9787
      9785      9784      9783      9791      9785      9784      9783      9795
      9785      9784      9799      9800      9785      9784      9799      9801
      9785      9784      9799      9805      9786      9784      9783      9787
      9786      9784      9783      9791      9786      9784      9783      9795
      9786      9784      9799      9800      9786      9784      9799      9801
      9786      9784      9799      9805      9787      9783      9784      9799
      9787      9783      9791      9792      9787      9783      9791      9793
      9787      9783      9791      9794      9787      9783      9795      9796
      9787      9783      9795      9797      9787      9783      9795      9798
      9788      9787      9783      9791      9788      9787      9783      9795
      9789      9787      9783      9791      9789      9787      9783      9795
      9790      9787      9783      9791      9790      9787      9783      9795
      9791      9783      9784      9799      9791      9783      9795      9796
      9791      9783      9795      9797      9791      9783      9795      9798
      9792      9791      9783      9795      9793      9791      9783      9795
      9794      9791      9783      9795      9795      9783      9784      9799
      9799      9805      9802      9803      9799      9805      9802      9804
      9799      9805      9802      9806      9800      9799      9805      9802
      9801      9799      9805      9802      9802      9806      9807      9808
      9802      9806      9807      9809      9802      9806      9807      9810
      9803      9802      9806      9807      9804      9802      9806      9807
      9805      9802      9806      9807      9806      9807      9810      9811
      9806      9807      9810      9812      9806      9807      9810      9818
      9807      9810      9812      9813      9807      9810      9818      9819
      9807      9810      9818      9820      9807      9810      9818      9821
      9808      9807      9810      9811      9808      9807      9810      9812
      9808      9807      9810      9818      9809      9807      9810      9811
      9809      9807      9810      9812      9809      9807      9810      9818
      9810      9812      9813      9814      9810      9812      9813      9815
      9810      9818      9821      9822      9811      9810      9812      9813
      9811      9810      9818      9819      9811      9810      9818      9820
      9811      9810      9818      9821      9812      9810      9818      9819
      9812      9810      9818      9820      9812      9810      9818      9821
      9812      9813      9815      9816      9812      9813      9815      9817
      9812      9813      9815      9827      9813      9812      9810      9818
      9813      9815      9827      9828      9813      9815      9827      9829
      9813      9815      9827      9830      9814      9813      9815      9816
      9814      9813      9815      9817      9814      9813      9815      9827
      9815      9827      9830      9831      9815      9827      9830      9832
      9815      9827      9830      9833      9816      9815      9827      9828
      9816      9815      9827      9829      9816      9815      9827      9830
      9817      9815      9827      9828      9817      9815      9827      9829
      9817      9815      9827      9830      9818      9821      9822      9823
      9818      9821      9822      9824      9819      9818      9821      9822
      9820      9818      9821      9822      9821      9822      9824      9825
      9821      9822      9824      9826      9821      9822      9824      9874
      9822      9824      9874      9875      9822      9824      9874      9876
      9822      9824      9874      9877      9823      9822      9824      9825
      9823      9822      9824      9826      9823      9822      9824      9874
      9824      9874      9877      9878      9824      9874      9877      9879
      9824      9874      9877      9880      9825      9824      9874      9875
      9825      9824      9874      9876      9825      9824      9874      9877
      9826      9824      9874      9875      9826      9824      9874      9876
      9826      9824      9874      9877      9827      9830      9833      9834
      9827      9830      9833      9835      9827      9830      9833      9836
      9828      9827      9830      9831      9828      9827      9830      9832
      9828      9827      9830      9833      9829      9827      9830      9831
      9829      9827      9830      9832      9829      9827      9830      9833
      9830      9833      9836      9837      9830      9833      9836      9838
      9830      9833      9836      9839      9831      9830      9833      9834
      9831      9830      9833      9835      9831      9830      9833      9836
      9832      9830      9833      9834      9832      9830      9833      9835
      9832      9830      9833      9836      9833      9836      9839      9840
      9833      9836      9839      9841      9833      9836      9839      9842
      9834      9833      9836      9837      9834      9833      9836      9838
      9834      9833      9836      9839      9835      9833      9836      9837
      9835      9833      9836      9838      9835      9833      9836      9839
      9836      9839      9842      9843      9836      9839      9842      9844
      9836      9839      9842      9845      9837      9836      9839      9840
      9837      9836      9839      9841      9837      9836      9839      9842
      9838      9836      9839      9840      9838      9836      9839      9841
      9838      9836      9839      9842      9839      9842      9845      9846
      9839      9842      9845      9847      9840      9839      9842      9843
      9840      9839      9842      9844      9840      9839      9842      9845
      9841      9839      9842      9843      9841      9839      9842      9844
      9841      9839      9842      9845      9842      9845      9847      9848
      9842      9845      9847      9849      9843      9842      9845      9846
      9843      9842      9845      9847      9844      9842      9845      9846
      9844      9842      9845      9847      9845      9847      9849      9850
      9845      9847      9849      9851      9845      9847      9849      9852
      9846      9845      9847      9848      9846      9845      9847      9849
      9847      9849      9852      9853      9847      9849      9852      9854
      9847      9849      9852      9855      9848      9847      9849      9850
      9848      9847      9849      9851      9848      9847      9849      9852
      9849      9852      9855      9856      9849      9852      9855      9857
      9849      9852      9855      9858      9850      9849      9852      9853
      9850      9849      9852      9854      9850      9849      9852      9855
      9851      9849      9852      9853      9851      9849      9852      9854
      9851      9849      9852      9855      9852      9855      9858      9859
      9852      9855      9858      9860      9852      9855      9858      9861
      9853      9852      9855      9856      9853      9852      9855      9857
      9853      9852      9855      9858      9854      9852      9855      9856
      9854      9852      9855      9857      9854      9852      9855      9858
      9855      9858      9861      9862      9855      9858      9861      9863
      9855      9858      9861      9864      9856      9855      9858      9859
      9856      9855      9858      9860      9856      9855      9858      9861
      9857      9855      9858      9859      9857      9855      9858      9860
      9857      9855      9858      9861      9858      9861      9864      9865
      9858      9861      9864      9866      9858      9861      9864      9867
      9859      9858      9861      9862      9859      9858      9861      9863
      9859      9858      9861      9864      9860      9858      9861      9862
      9860      9858      9861      9863      9860      9858      9861      9864
      9861      9864      9867      9868      9861      9864      9867      9869
      9861      9864      9867      9870      9862      9861      9864      9865
      9862      9861      9864      9866      9862      9861      9864      9867
      9863      9861      9864      9865      9863      9861      9864      9866
      9863      9861      9864      9867      9864      9867      9870      9871
      9864      9867      9870      9872      9864      9867      9870      9873
      9865      9864      9867      9868      9865      9864      9867      9869
      9865      9864      9867      9870      9866      9864      9867      9868
      9866      9864      9867      9869      9866      9864      9867      9870
      9868      9867      9870      9871      9868      9867      9870      9872
      9868      9867      9870      9873      9869      9867      9870      9871
      9869      9867      9870      9872      9869      9867      9870      9873
      9874      9877      9880      9881      9874      9877      9880      9882
      9874      9877      9880      9883      9875      9874      9877      9878
      9875      9874      9877      9879      9875      9874      9877      9880
      9876      9874      9877      9878      9876      9874      9877      9879
      9876      9874      9877      9880      9877      9880      9883      9884
      9877      9880      9883      9885      9877      9880      9883      9886
      9878      9877      9880      9881      9878      9877      9880      9882
      9878      9877      9880      9883      9879      9877      9880      9881
      9879      9877      9880      9882      9879      9877      9880      9883
      9880      9883      9886      9887      9880      9883      9886      9888
      9880      9883      9886      9889      9881      9880      9883      9884
      9881      9880      9883      9885      9881      9880      9883      9886
      9882      9880      9883      9884      9882      9880      9883      9885
      9882      9880      9883      9886      9883      9886      9889      9890
      9883      9886      9889      9891      9883      9886      9889      9892
      9884      9883      9886      9887      9884      9883      9886      9888
      9884      9883      9886      9889      9885      9883      9886      9887
      9885      9883      9886      9888      9885      9883      9886      9889
      9886      9889      9892      9893      9886      9889      9892      9894
      9886      9889      9892      9895      9887      9886      9889      9890
      9887      9886      9889      9891      9887      9886      9889      9892
      9888      9886      9889      9890      9888      9886      9889      9891
      9888      9886      9889      9892      9889      9892      9895      9896
      9889      9892      9895      9897      9889      9892      9895      9898
      9890      9889      9892      9893      9890      9889      9892      9894
      9890      9889      9892      9895      9891      9889      9892      9893
      9891      9889      9892      9894      9891      9889      9892      9895
      9892      9895      9898      9899      9892      9895      9898      9900
      9892      9895      9898      9901      9893      9892      9895      9896
      9893      9892      9895      9897      9893      9892      9895      9898
      9894      9892      9895      9896      9894      9892      9895      9897
      9894      9892      9895      9898      9895      9898      9901      9902
      9895      9898      9901      9903      9895      9898      9901      9904
      9896      9895      9898      9899      9896      9895      9898      9900
      9896      9895      9898      9901      9897      9895      9898      9899
      9897      9895      9898      9900      9897      9895      9898      9901
      9898      9901      9904      9905      9898      9901      9904      9906
      9898      9901      9904      9907      9899      9898      9901      9902
      9899      9898      9901      9903      9899      9898      9901      9904
      9900      9898      9901      9902      9900      9898      9901      9903
      9900      9898      9901      9904      9901      9904      9907      9908
      9901      9904      9907      9909      9901      9904      9907      9910
      9902      9901      9904      9905      9902      9901      9904      9906
      9902      9901      9904      9907      9903      9901      9904      9905
      9903      9901      9904      9906      9903      9901      9904      9907
      9904      9907      9910      9911      9904      9907      9910      9912
      9904      9907      9910      9913      9905      9904      9907      9908
      9905      9904      9907      9909      9905      9904      9907      9910
      9906      9904      9907      9908      9906      9904      9907      9909
      9906      9904      9907      9910      9907      9910      9913      9914
      9907      9910      9913      9915      9907      9910      9913      9916
      9908      9907      9910      9911      9908      9907      9910      9912
      9908      9907      9910      9913      9909      9907      9910      9911
      9909      9907      9910      9912      9909      9907      9910      9913
      9911      9910      9913      9914      9911      9910      9913      9915
      9911      9910      9913      9916      9912      9910      9913      9914
      9912      9910      9913      9915      9912      9910      9913      9916

       148 !NIMPHI: impropers
        31        30        33        32        40        39        42        41
       165       164       167       166       174       173       176       175
       299       298       301       300       308       307       310       309
       433       432       435       434       442       441       444       443
       567       566       569       568       576       575       578       577
       701       700       703       702       710       709       712       711
       835       834       837       836       844       843       846       845
       969       968       971       970       978       977       980       979
      1103      1102      1105      1104      1112      1111      1114      1113
      1237      1236      1239      1238      1246      1245      1248      1247
      1371      1370      1373      1372      1380      1379      1382      1381
      1505      1504      1507      1506      1514      1513      1516      1515
      1639      1638      1641      1640      1648      1647      1650      1649
      1773      1772      1775      1774      1782      1781      1784      1783
      1907      1906      1909      1908      1916      1915      1918      1917
      2041      2040      2043      2042      2050      2049      2052      2051
      2175      2174      2177      2176      2184      2183      2186      2185
      2309      2308      2311      2310      2318      2317      2320      2319
      2443      2442      2445      2444      2452      2451      2454      2453
      2577      2576      2579      2578      2586      2585      2588      2587
      2711      2710      2713      2712      2720      2719      2722      2721
      2845      2844      2847      2846      2854      2853      2856      2855
      2979      2978      2981      2980      2988      2987      2990      2989
      3113      3112      3115      3114      3122      3121      3124      3123
      3247      3246      3249      3248      3256      3255      3258      3257
      3381      3380      3383      3382      3390      3389      3392      3391
      3515      3514      3517      3516      3524      3523      3526      3525
      3649      3648      3651      3650      3658      3657      3660      3659
      3783      3782      3785      3784      3792      3791      3794      3793
      3917      3916      3919      3918      3926      3925      3928      3927
      4051      4050      4053      4052      4060      4059      4062      4061
      4185      4184      4187      4186      4194      4193      4196      4195
      4319      4318      4321      4320      4328      4327      4330      4329
      4453      4452      4455      4454      4462      4461      4464      4463
      4587      4586      4589      4588      4596      4595      4598      4597
      4721      4720      4723      4722      4730      4729      4732      4731
      4855      4854      4857      4856      4864      4863      4866      4865
      4989      4988      4991      4990      4998      4997      5000      4999
      5123      5122      5125      5124      5132      5131      5134      5133
      5257      5256      5259      5258      5266      5265      5268      5267
      5391      5390      5393      5392      5400      5399      5402      5401
      5525      5524      5527      5526      5534      5533      5536      5535
      5659      5658      5661      5660      5668      5667      5670      5669
      5793      5792      5795      5794      5802      5801      5804      5803
      5927      5926      5929      5928      5936      5935      5938      5937
      6061      6060      6063      6062      6070      6069      6072      6071
      6195      6194      6197      6196      6204      6203      6206      6205
      6329      6328      6331      6330      6338      6337      6340      6339
      6463      6462      6465      6464      6472      6471      6474      6473
      6597      6596      6599      6598      6606      6605      6608      6607
      6731      6730      6733      6732      6740      6739      6742      6741
      6865      6864      6867      6866      6874      6873      6876      6875
      6999      6998      7001      7000      7008      7007      7010      7009
      7133      7132      7135      7134      7142      7141      7144      7143
      7267      7266      7269      7268      7276      7275      7278      7277
      7401      7400      7403      7402      7410      7409      7412      7411
      7535      7534      7537      7536      7544      7543      7546      7545
      7669      7668      7671      7670      7678      7677      7680      7679
      7803      7802      7805      7804      7812      7811      7814      7813
      7937      7936      7939      7938      7946      7945      7948      7947
      8071      8070      8073      8072      8080      8079      8082      8081
      8205      8204      8207      8206      8214      8213      8216      8215
      8339      8338      8341      8340      8348      8347      8350      8349
      8473      8472      8475      8474      8482      8481      8484      8483
      8607      8606      8609      8608      8616      8615      8618      8617
      8741      8740      8743      8742      8750      8749      8752      8751
      8875      8874      8877      8876      8884      8883      8886      8885
      9009      9008      9011      9010      9018      9017      9020      9019
      9143      9142      9145      9144      9152      9151      9154      9153
      9277      9276      9279      9278      9286      9285      9288      9287
      9411      9410      9413      9412      9420      9419      9422      9421
      9545      9544      9547      9546      9554      9553      9556      9555
      9679      9678      9681      9680      9688      9687      9690      9689
      9813      9812      9815      9814      9822      9821      9824      9823

         0 !NDON: donors


         0 !NACC: acceptors


         0 !NNB

         0         0         0         0         0         0         0         0
         0         0         0         0         0         0         0         0
         0         0         0         0         0         0         0         0
         0         0         0         0         0         0         0         0
         0         0         0         0         0         0         0         0
         0         0         0         0         0         0         0         0
         0         0         0         0         0         0         0         0
         0         0         0         0         0         0         0         0
         0         0         0         0         0         0         0         0
         0         0         0         0         0         0         0         0
         0         0         0         0         0         0         0         0
         0         0         0         0         0         0         0         0
         0         0         0         0         0         0         0         0
         0         0         0         0         0         0         0         0
         0         0         0         0         0         0         0         0
         0         0         0         0         0         0         0         0
         0         0         0         0         0         0         0         0
         0         0         0         0         0         0         0         0
         0         0         0         0         0         0         0         0
         0         0         0         0         0         0         0         0
         0         0         0         0         0         0         0         0
         0         0         0         0         0         0         0         0
         0         0         0         0         0         0         0         0
         0         0         0         0         0         0         0         0
         0         0         0         0         0         0         0         0
         0         0         0         0         0         0         0         0
         0         0         0         0         0         0         0         0
         0         0         0         0         0         0         0         0
         0         0         0         0         0         0         0         0
         0         0         0         0         0         0         0         0
         0         0         0         0         0         0         0         0
         0         0         0         0         0         0         0         0
         0         0         0         0         0         0         0         0
         0         0         0         0         0         0         0         0
         0         0         0         0         0         0         0         0
         0         0         0         0         0         0         0         0
         0         0         0         0         0         0         0         0
         0         0         0         0         0         0         0         0
         0         0         0         0         0         0         0         0
         0         0         0         0         0         0         0         0
         0         0         0         0         0         0         0         0
         0         0         0         0         0         0         0         0
         0         0         0         0         0         0         0         0
         0         0         0         0         0         0         0         0
         0         0         0         0         0         0         0         0
         0         0         0         0         0         0         0         0
         0         0         0         0         0         0         0         0
         0         0         0         0         0         0         0         0
         0         0         0         0         0         0         0         0
         0         0         0         0         0         0         0         0
         0         0         0         0         0         0         0         0
         0         0         0         0         0         0         0         0
         0         0         0         0         0         0         0         0
         0         0         0         0         0         0         0         0
         0         0         0         0         0         0         0         0
         0         0         0         0         0         0         0         0
         0         0         0         0         0         0         0         0
         0         0         0         0         0         0         0         0
         0         0         0         0         0         0         0         0
         0         0         0         0         0         0         0         0
         0         0         0         0         0         0         0         0
         0         0         0         0         0         0         0         0
         0         0         0         0         0         0         0         0
         0         0         0         0         0         0         0         0
         0         0         0         0         0         0         0         0
         0         0         0         0         0         0         0         0
         0         0         0         0         0         0         0         0
         0         0         0         0         0         0         0         0
         0         0         0         0         0         0         0         0
         0         0         0         0         0         0         0         0
         0         0         0         0         0         0         0         0
         0         0         0         0         0         0         0         0
         0         0         0         0         0         0         0         0
         0         0         0         0         0         0         0         0
         0         0         0         0         0         0         0         0
         0         0         0         0         0         0         0         0
         0         0         0         0         0         0         0         0
         0         0         0         0         0         0         0         0
         0         0         0         0         0         0         0         0
         0         0         0         0         0         0         0         0
         0         0         0         0         0         0         0         0
         0         0         0         0         0         0         0         0
         0         0         0         0         0         0         0         0
         0         0         0         0         0         0         0         0
         0         0         0         0         0         0         0         0
         0         0         0         0         0         0         0         0
         0         0         0         0         0         0         0         0
         0         0         0         0         0         0         0         0
         0         0         0         0         0         0         0         0
         0         0         0         0         0         0         0         0
         0         0         0         0         0         0         0         0
         0         0         0         0         0         0         0         0
         0         0         0         0         0         0         0         0
         0         0         0         0         0         0         0         0
         0         0         0         0         0         0         0         0
         0         0         0         0         0         0         0         0
         0         0         0         0         0         0         0         0
         0         0         0         0         0         0         0         0
         0         0         0         0         0         0         0         0
         0         0         0         0         0         0         0         0
         0         0         0         0         0         0         0         0
         0         0         0         0         0         0         0         0
         0         0         0         0         0         0         0         0
         0         0         0         0         0         0         0         0
         0         0         0         0         0         0         0         0
         0         0         0         0         0         0         0         0
         0         0         0         0         0         0         0         0
         0         0         0         0         0         0         0         0
         0         0         0         0         0         0         0         0
         0         0         0         0         0         0         0         0
         0         0         0         0         0         0         0         0
         0         0         0         0         0         0         0         0
         0         0         0         0         0         0         0         0
         0         0         0         0         0         0         0         0
         0         0         0         0         0         0         0         0
         0         0         0         0         0         0         0         0
         0         0         0         0         0         0         0         0
         0         0         0         0         0         0         0         0
         0         0         0         0         0         0         0         0
         0         0         0         0         0         0         0         0
         0         0         0         0         0         0         0         0
         0         0         0         0         0         0         0         0
         0         0         0         0         0         0         0         0
         0         0         0         0         0         0         0         0
         0         0         0         0         0         0         0         0
         0         0         0         0         0         0         0         0
         0         0         0         0         0         0         0         0
         0         0         0         0         0         0         0         0
         0         0         0         0         0         0         0         0
         0         0         0         0         0         0         0         0
         0         0         0         0         0         0         0         0
         0         0         0         0         0         0         0         0
         0         0         0         0         0         0         0         0
         0         0         0         0         0         0         0         0
         0         0         0         0         0         0         0         0
         0         0         0         0         0         0         0         0
         0         0         0         0         0         0         0         0
         0         0         0         0         0         0         0         0
         0         0         0         0         0         0         0         0
         0         0         0         0         0         0         0         0
         0         0         0         0         0         0         0         0
         0         0         0         0         0         0         0         0
         0         0         0         0         0         0         0         0
         0         0         0         0         0         0         0         0
         0         0         0         0         0         0         0         0
         0         0         0         0         0         0         0         0
         0         0         0         0         0         0         0         0
         0         0         0         0         0         0         0         0
         0         0         0         0         0         0         0         0
         0         0         0         0         0         0         0         0
         0         0         0         0         0         0         0         0
         0         0         0         0         0         0         0         0
         0         0         0         0         0         0         0         0
         0         0         0         0         0         0         0         0
         0         0         0         0         0         0         0         0
         0         0         0         0         0         0         0         0
         0         0         0         0         0         0         0         0
         0         0         0         0         0         0         0         0
         0         0         0         0         0         0         0         0
         0         0         0         0         0         0         0         0
         0         0         0         0         0         0         0         0
         0         0         0         0         0         0         0         0
         0         0         0         0         0         0         0         0
         0         0         0         0         0         0         0         0
         0         0         0         0         0         0         0         0
         0         0         0         0         0         0         0         0
         0         0         0         0         0         0         0         0
         0         0         0         0         0         0         0         0
         0         0         0         0         0         0         0         0
         0         0         0         0         0         0         0         0
         0         0         0         0         0         0         0         0
         0         0         0         0         0         0         0         0
         0         0         0         0         0         0         0         0
         0         0         0         0         0         0         0         0
         0         0         0         0         0         0         0         0
         0         0         0         0         0         0         0         0
         0         0         0         0         0         0         0         0
         0         0         0         0         0         0         0         0
         0         0         0         0         0         0         0         0
         0         0         0         0         0         0         0         0
         0         0         0         0         0         0         0         0
         0         0         0         0         0         0         0         0
         0         0         0         0         0         0         0         0
         0         0         0         0         0         0         0         0
         0         0         0         0         0         0         0         0
         0         0         0         0         0         0         0         0
         0         0         0         0         0         0         0         0
         0         0         0         0         0         0         0         0
         0         0         0         0         0         0         0         0
         0         0         0         0         0         0         0         0
         0         0         0         0         0         0         0         0
         0         0         0         0         0         0         0         0
         0         0         0         0         0         0         0         0
         0         0         0         0         0         0         0         0
         0         0         0         0         0         0         0         0
         0         0         0         0         0         0         0         0
         0         0         0         0         0         0         0         0
         0         0         0         0         0         0         0         0
         0         0         0         0         0         0         0         0
         0         0         0         0         0         0         0         0
         0         0         0         0         0         0         0         0
         0         0         0         0         0         0         0         0
         0         0         0         0         0         0         0         0
         0         0         0         0         0         0         0         0
         0         0         0         0         0         0         0         0
         0         0         0         0         0         0         0         0
         0         0         0         0         0         0         0         0
         0         0         0         0         0         0         0         0
         0         0         0         0         0         0         0         0
         0         0         0         0         0         0         0         0
         0         0         0         0         0         0         0         0
         0         0         0         0         0         0         0         0
         0         0         0         0         0         0         0         0
         0         0         0         0         0         0         0         0
         0         0         0         0         0         0         0         0
         0         0         0         0         0         0         0         0
         0         0         0         0         0         0         0         0
         0         0         0         0         0         0         0         0
         0         0         0         0         0         0         0         0
         0         0         0         0         0         0         0         0
         0         0         0         0         0         0         0         0
         0         0         0         0         0         0         0         0
         0         0         0         0         0         0         0         0
         0         0         0         0         0         0         0         0
         0         0         0         0         0         0         0         0
         0         0         0         0         0         0         0         0
         0         0         0         0         0         0         0         0
         0         0         0         0         0         0         0         0
         0         0         0         0         0         0         0         0
         0         0         0         0         0         0         0         0
         0         0         0         0         0         0         0         0
         0         0         0         0         0         0         0         0
         0         0         0         0         0         0         0         0
         0         0         0         0         0         0         0         0
         0         0         0         0         0         0         0         0
         0         0         0         0         0         0         0         0
         0         0         0         0         0         0         0         0
         0         0         0         0         0         0         0         0
         0         0         0         0         0         0         0         0
         0         0         0         0         0         0         0         0
         0         0         0         0         0         0         0         0
         0         0         0         0         0         0         0         0
         0         0         0         0         0         0         0         0
         0         0         0         0         0         0         0         0
         0         0         0         0         0         0         0         0
         0         0         0         0         0         0         0         0
         0         0         0         0         0         0         0         0
         0         0         0         0         0         0         0         0
         0         0         0         0         0         0         0         0
         0         0         0         0         0         0         0         0
         0         0         0         0         0         0         0         0
         0         0         0         0         0         0         0         0
         0         0         0         0         0         0         0         0
         0         0         0         0         0         0         0         0
         0         0         0         0         0         0         0         0
         0         0         0         0         0         0         0         0
         0         0         0         0         0         0         0         0
         0         0         0         0         0         0         0         0
         0         0         0         0         0         0         0         0
         0         0         0         0         0         0         0         0
         0         0         0         0         0         0         0         0
         0         0         0         0         0         0         0         0
         0         0         0         0         0         0         0         0
         0         0         0         0         0         0         0         0
         0         0         0         0         0         0         0         0
         0         0         0         0         0         0         0         0
         0         0         0         0         0         0         0         0
         0         0         0         0         0         0         0         0
         0         0         0         0         0         0         0         0
         0         0         0         0         0         0         0         0
         0         0         0         0         0         0         0         0
         0         0         0         0         0         0         0         0
         0         0         0         0         0         0         0         0
         0         0         0         0         0         0         0         0
         0         0         0         0         0         0         0         0
         0         0         0         0         0         0         0         0
         0         0         0         0         0         0         0         0
         0         0         0         0         0         0         0         0
         0         0         0         0         0         0         0         0
         0         0         0         0         0         0         0         0
         0         0         0         0         0         0         0         0
         0         0         0         0         0         0         0         0
         0         0         0         0         0         0         0         0
         0         0         0         0         0         0         0         0
         0         0         0         0         0         0         0         0
         0         0         0         0         0         0         0         0
         0         0         0         0         0         0         0         0
         0         0         0         0         0         0         0         0
         0         0         0         0         0         0         0         0
         0         0         0         0         0         0         0         0
         0         0         0         0         0         0         0         0
         0         0         0         0         0         0         0         0
         0         0         0         0         0         0         0         0
         0         0         0         0         0         0         0         0
         0         0         0         0         0         0         0         0
         0         0         0         0         0         0         0         0
         0         0         0         0         0         0         0         0
         0         0         0         0         0         0         0         0
         0         0         0         0         0         0         0         0
         0         0         0         0         0         0         0         0
         0         0         0         0         0         0         0         0
         0         0         0         0         0         0         0         0
         0         0         0         0         0         0         0         0
         0         0         0         0         0         0         0         0
         0         0         0         0         0         0         0         0
         0         0         0         0         0         0         0         0
         0         0         0         0         0         0         0         0
         0         0         0         0         0         0         0         0
         0         0         0         0         0         0         0         0
         0         0         0         0         0         0         0         0
         0         0         0         0         0         0         0         0
         0         0         0         0         0         0         0         0
         0         0         0         0         0         0         0         0
         0         0         0         0         0         0         0         0
         0         0         0         0         0         0         0         0
         0         0         0         0         0         0         0         0
         0         0         0         0         0         0         0         0
         0         0         0         0         0         0         0         0
         0         0         0         0         0         0         0         0
         0         0         0         0         0         0         0         0
         0         0         0         0         0         0         0         0
         0         0         0         0         0         0         0         0
         0         0         0         0         0         0         0         0
         0         0         0         0         0         0         0         0
         0         0         0         0         0         0         0         0
         0         0         0         0         0         0         0         0
         0         0         0         0         0         0         0         0
         0         0         0         0         0         0         0         0
         0         0         0         0         0         0         0         0
         0         0         0         0         0         0         0         0
         0         0         0         0         0         0         0         0
         0         0         0         0         0         0         0         0
         0         0         0         0         0         0         0         0
         0         0         0         0         0         0         0         0
         0         0         0         0         0         0         0         0
         0         0         0         0         0         0         0         0
         0         0         0         0         0         0         0         0
         0         0         0         0         0         0         0         0
         0         0         0         0         0         0         0         0
         0         0         0         0         0         0         0         0
         0         0         0         0         0         0         0         0
         0         0         0         0         0         0         0         0
         0         0         0         0         0         0         0         0
         0         0         0         0         0         0         0         0
         0         0         0         0         0         0         0         0
         0         0         0         0         0         0         0         0
         0         0         0         0         0         0         0         0
         0         0         0         0         0         0         0         0
         0         0         0         0         0         0         0         0
         0         0         0         0         0         0         0         0
         0         0         0         0         0         0         0         0
         0         0         0         0         0         0         0         0
         0         0         0         0         0         0         0         0
         0         0         0         0         0         0         0         0
         0         0         0         0         0         0         0         0
         0         0         0         0         0         0         0         0
         0         0         0         0         0         0         0         0
         0         0         0         0         0         0         0         0
         0         0         0         0         0         0         0         0
         0         0         0         0         0         0         0         0
         0         0         0         0         0         0         0         0
         0         0         0         0         0         0         0         0
         0         0         0         0         0         0         0         0
         0         0         0         0         0         0         0         0
         0         0         0         0         0         0         0         0
         0         0         0         0         0         0         0         0
         0         0         0         0         0         0         0         0
         0         0         0         0         0         0         0         0
         0         0         0         0         0         0         0         0
         0         0         0         0         0         0         0         0
         0         0         0         0         0         0         0         0
         0         0         0         0         0         0         0         0
         0         0         0         0         0         0         0         0
         0         0         0         0         0         0         0         0
         0         0         0         0         0         0         0         0
         0         0         0         0         0         0         0         0
         0         0         0         0         0         0         0         0
         0         0         0         0         0         0         0         0
         0         0         0         0         0         0         0         0
         0         0         0         0         0         0         0         0
         0         0         0         0         0         0         0         0
         0         0         0         0         0         0         0         0
         0         0         0         0         0         0         0         0
         0         0         0         0         0         0         0         0
         0         0         0         0         0         0         0         0
         0         0         0         0         0         0         0         0
         0         0         0         0         0         0         0         0
         0         0         0         0         0         0         0         0
         0         0         0         0         0         0         0         0
         0         0         0         0         0         0         0         0
         0         0         0         0         0         0         0         0
         0         0         0         0         0         0         0         0
         0         0         0         0         0         0         0         0
         0         0         0         0         0         0         0         0
         0         0         0         0         0         0         0         0
         0         0         0         0         0         0         0         0
         0         0         0         0         0         0         0         0
         0         0         0         0         0         0         0         0
         0         0         0         0         0         0         0         0
         0         0         0         0         0         0         0         0
         0         0         0         0         0         0         0         0
         0         0         0         0         0         0         0         0
         0         0         0         0         0         0         0         0
         0         0         0         0         0         0         0         0
         0         0         0         0         0         0         0         0
         0         0         0         0         0         0         0         0
         0         0         0         0         0         0         0         0
         0         0         0         0         0         0         0         0
         0         0         0         0         0         0         0         0
         0         0         0         0         0         0         0         0
         0         0         0         0         0         0         0         0
         0         0         0         0         0         0         0         0
         0         0         0         0         0         0         0         0
         0         0         0         0         0         0         0         0
         0         0         0         0         0         0         0         0
         0         0         0         0         0         0         0         0
         0         0         0         0         0         0         0         0
         0         0         0         0         0         0         0         0
         0         0         0         0         0         0         0         0
         0         0         0         0         0         0         0         0
         0         0         0         0         0         0         0         0
         0         0         0         0         0         0         0         0
         0         0         0         0         0         0         0         0
         0         0         0         0         0         0         0         0
         0         0         0         0         0         0         0         0
         0         0         0         0         0         0         0         0
         0         0         0         0         0         0         0         0
         0         0         0         0         0         0         0         0
         0         0         0         0         0         0         0         0
         0         0         0         0         0         0         0         0
         0         0         0         0         0         0         0         0
         0         0         0         0         0         0         0         0
         0         0         0         0         0         0         0         0
         0         0         0         0         0         0         0         0
         0         0         0         0         0         0         0         0
         0         0         0         0         0         0         0         0
         0         0         0         0         0         0         0         0
         0         0         0         0         0         0         0         0
         0         0         0         0         0         0         0         0
         0         0         0         0         0         0         0         0
         0         0         0         0         0         0         0         0
         0         0         0         0         0         0         0         0
         0         0         0         0         0         0         0         0
         0         0         0         0         0         0         0         0
         0         0         0         0         0         0         0         0
         0         0         0         0         0         0         0         0
         0         0         0         0         0         0         0         0
         0         0         0         0         0         0         0         0
         0         0         0         0         0         0         0         0
         0         0         0         0         0         0         0         0
         0         0         0         0         0         0         0         0
         0         0         0         0         0         0         0         0
         0         0         0         0         0         0         0         0
         0         0         0         0         0         0         0         0
         0         0         0         0         0         0         0         0
         0         0         0         0         0         0         0         0
         0         0         0         0         0         0         0         0
         0         0         0         0         0         0         0         0
         0         0         0         0         0         0         0         0
         0         0         0         0         0         0         0         0
         0         0         0         0         0         0         0         0
         0         0         0         0         0         0         0         0
         0         0         0         0         0         0         0         0
         0         0         0         0         0         0         0         0
         0         0         0         0         0         0         0         0
         0         0         0         0         0         0         0         0
         0         0         0         0         0         0         0         0
         0         0         0         0         0         0         0         0
         0         0         0         0         0         0         0         0
         0         0         0         0         0         0         0         0
         0         0         0         0         0         0         0         0
         0         0         0         0         0         0         0         0
         0         0         0         0         0         0         0         0
         0         0         0         0         0         0         0         0
         0         0         0         0         0         0         0         0
         0         0         0         0         0         0         0         0
         0         0         0         0         0         0         0         0
         0         0         0         0         0         0         0         0
         0         0         0         0         0         0         0         0
         0         0         0         0         0         0         0         0
         0         0         0         0         0         0         0         0
         0         0         0         0         0         0         0         0
         0         0         0         0         0         0         0         0
         0         0         0         0         0         0         0         0
         0         0         0         0         0         0         0         0
         0         0         0         0         0         0         0         0
         0         0         0         0         0         0         0         0
         0         0         0         0         0         0         0         0
         0         0         0         0         0         0         0         0
         0         0         0         0         0         0         0         0
         0         0         0         0         0         0         0         0
         0         0         0         0         0         0         0         0
         0         0         0         0         0         0         0         0
         0         0         0         0         0         0         0         0
         0         0         0         0         0         0         0         0
         0         0         0         0         0         0         0         0
         0         0         0         0         0         0         0         0
         0         0         0         0         0         0         0         0
         0         0         0         0         0         0         0         0
         0         0         0         0         0         0         0         0
         0         0         0         0         0         0         0         0
         0         0         0         0         0         0         0         0
         0         0         0         0         0         0         0         0
         0         0         0         0         0         0         0         0
         0         0         0         0         0         0         0         0
         0         0         0         0         0         0         0         0
         0         0         0         0         0         0         0         0
         0         0         0         0         0         0         0         0
         0         0         0         0         0         0         0         0
         0         0         0         0         0         0         0         0
         0         0         0         0         0         0         0         0
         0         0         0         0         0         0         0         0
         0         0         0         0         0         0         0         0
         0         0         0         0         0         0         0         0
         0         0         0         0         0         0         0         0
         0         0         0         0         0         0         0         0
         0         0         0         0         0         0         0         0
         0         0         0         0         0         0         0         0
         0         0         0         0         0         0         0         0
         0         0         0         0         0         0         0         0
         0         0         0         0         0         0         0         0
         0         0         0         0         0         0         0         0
         0         0         0         0         0         0         0         0
         0         0         0         0         0         0         0         0
         0         0         0         0         0         0         0         0
         0         0         0         0         0         0         0         0
         0         0         0         0         0         0         0         0
         0         0         0         0         0         0         0         0
         0         0         0         0         0         0         0         0
         0         0         0         0         0         0         0         0
         0         0         0         0         0         0         0         0
         0         0         0         0         0         0         0         0
         0         0         0         0         0         0         0         0
         0         0         0         0         0         0         0         0
         0         0         0         0         0         0         0         0
         0         0         0         0         0         0         0         0
         0         0         0         0         0         0         0         0
         0         0         0         0         0         0         0         0
         0         0         0         0         0         0         0         0
         0         0         0         0         0         0         0         0
         0         0         0         0         0         0         0         0
         0         0         0         0         0         0         0         0
         0         0         0         0         0         0         0         0
         0         0         0         0         0         0         0         0
         0         0         0         0         0         0         0         0
         0         0         0         0         0         0         0         0
         0         0         0         0         0         0         0         0
         0         0         0         0         0         0         0         0
         0         0         0         0         0         0         0         0
         0         0         0         0         0         0         0         0
         0         0         0         0         0         0         0         0
         0         0         0         0         0         0         0         0
         0         0         0         0         0         0         0         0
         0         0         0         0         0         0         0         0
         0         0         0         0         0         0         0         0
         0         0         0         0         0         0         0         0
         0         0         0         0         0         0         0         0
         0         0         0         0         0         0         0         0
         0         0         0         0         0         0         0         0
         0         0         0         0         0         0         0         0
         0         0         0         0         0         0         0         0
         0         0         0         0         0         0         0         0
         0         0         0         0         0         0         0         0
         0         0         0         0         0         0         0         0
         0         0         0         0         0         0         0         0
         0         0         0         0         0         0         0         0
         0         0         0         0         0         0         0         0
         0         0         0         0         0         0         0         0
         0         0         0         0         0         0         0         0
         0         0         0         0         0         0         0         0
         0         0         0         0         0         0         0         0
         0         0         0         0         0         0         0         0
         0         0         0         0         0         0         0         0
         0         0         0         0         0         0         0         0
         0         0         0         0         0         0         0         0
         0         0         0         0         0         0         0         0
         0         0         0         0         0         0         0         0
         0         0         0         0         0         0         0         0
         0         0         0         0         0         0         0         0
         0         0         0         0         0         0         0         0
         0         0         0         0         0         0         0         0
         0         0         0         0         0         0         0         0
         0         0         0         0         0         0         0         0
         0         0         0         0         0         0         0         0
         0         0         0         0         0         0         0         0
         0         0         0         0         0         0         0         0
         0         0         0         0         0         0         0         0
         0         0         0         0         0         0         0         0
         0         0         0         0         0         0         0         0
         0         0         0         0         0         0         0         0
         0         0         0         0         0         0         0         0
         0         0         0         0         0         0         0         0
         0         0         0         0         0         0         0         0
         0         0         0         0         0         0         0         0
         0         0         0         0         0         0         0         0
         0         0         0         0         0         0         0         0
         0         0         0         0         0         0         0         0
         0         0         0         0         0         0         0         0
         0         0         0         0         0         0         0         0
         0         0         0         0         0         0         0         0
         0         0         0         0         0         0         0         0
         0         0         0         0         0         0         0         0
         0         0         0         0         0         0         0         0
         0         0         0         0         0         0         0         0
         0         0         0         0         0         0         0         0
         0         0         0         0         0         0         0         0
         0         0         0         0         0         0         0         0
         0         0         0         0         0         0         0         0
         0         0         0         0         0         0         0         0
         0         0         0         0         0         0         0         0
         0         0         0         0         0         0         0         0
         0         0         0         0         0         0         0         0
         0         0         0         0         0         0         0         0
         0         0         0         0         0         0         0         0
         0         0         0         0         0         0         0         0
         0         0         0         0         0         0         0         0
         0         0         0         0         0         0         0         0
         0         0         0         0         0         0         0         0
         0         0         0         0         0         0         0         0
         0         0         0         0         0         0         0         0
         0         0         0         0         0         0         0         0
         0         0         0         0         0         0         0         0
         0         0         0         0         0         0         0         0
         0         0         0         0         0         0         0         0
         0         0         0         0         0         0         0         0
         0         0         0         0         0         0         0         0
         0         0         0         0         0         0         0         0
         0         0         0         0         0         0         0         0
         0         0         0         0         0         0         0         0
         0         0         0         0         0         0         0         0
         0         0         0         0         0         0         0         0
         0         0         0         0         0         0         0         0
         0         0         0         0         0         0         0         0
         0         0         0         0         0         0         0         0
         0         0         0         0         0         0         0         0
         0         0         0         0         0         0         0         0
         0         0         0         0         0         0         0         0
         0         0         0         0         0         0         0         0
         0         0         0         0         0         0         0         0
         0         0         0         0         0         0         0         0
         0         0         0         0         0         0         0         0
         0         0         0         0         0         0         0         0
         0         0         0         0         0         0         0         0
         0         0         0         0         0         0         0         0
         0         0         0         0         0         0         0         0
         0         0         0         0         0         0         0         0
         0         0         0         0         0         0         0         0
         0         0         0         0         0         0         0         0
         0         0         0         0         0         0         0         0
         0         0         0         0         0         0         0         0
         0         0         0         0         0         0         0         0
         0         0         0         0         0         0         0         0
         0         0         0         0         0         0         0         0
         0         0         0         0         0         0         0         0
         0         0         0         0         0         0         0         0
         0         0         0         0         0         0         0         0
         0         0         0         0         0         0         0         0
         0         0         0         0         0         0         0         0
         0         0         0         0         0         0         0         0
         0         0         0         0         0         0         0         0
         0         0         0         0         0         0         0         0
         0         0         0         0         0         0         0         0
         0         0         0         0         0         0         0         0
         0         0         0         0         0         0         0         0
         0         0         0         0         0         0         0         0
         0         0         0         0         0         0         0         0
         0         0         0         0         0         0         0         0
         0         0         0         0         0         0         0         0
         0         0         0         0         0         0         0         0
         0         0         0         0         0         0         0         0
         0         0         0         0         0         0         0         0
         0         0         0         0         0         0         0         0
         0         0         0         0         0         0         0         0
         0         0         0         0         0         0         0         0
         0         0         0         0         0         0         0         0
         0         0         0         0         0         0         0         0
         0         0         0         0         0         0         0         0
         0         0         0         0         0         0         0         0
         0         0         0         0         0         0         0         0
         0         0         0         0         0         0         0         0
         0         0         0         0         0         0         0         0
         0         0         0         0         0         0         0         0
         0         0         0         0         0         0         0         0
         0         0         0         0         0         0         0         0
         0         0         0         0         0         0         0         0
         0         0         0         0         0         0         0         0
         0         0         0         0         0         0         0         0
         0         0         0         0         0         0         0         0
         0         0         0         0         0         0         0         0
         0         0         0         0         0         0         0         0
         0         0         0         0         0         0         0         0
         0         0         0         0         0         0         0         0
         0         0         0         0         0         0         0         0
         0         0         0         0         0         0         0         0
         0         0         0         0         0         0         0         0
         0         0         0         0         0         0         0         0
         0         0         0         0         0         0         0         0
         0         0         0         0         0         0         0         0
         0         0         0         0         0         0         0         0
         0         0         0         0         0         0         0         0
         0         0         0         0         0         0         0         0
         0         0         0         0         0         0         0         0
         0         0         0         0         0         0         0         0
         0         0         0         0         0         0         0         0
         0         0         0         0         0         0         0         0
         0         0         0         0         0         0         0         0
         0         0         0         0         0         0         0         0
         0         0         0         0         0         0         0         0
         0         0         0         0         0         0         0         0
         0         0         0         0         0         0         0         0
         0         0         0         0         0         0         0         0
         0         0         0         0         0         0         0         0
         0         0         0         0         0         0         0         0
         0         0         0         0         0         0         0         0
         0         0         0         0         0         0         0         0
         0         0         0         0         0         0         0         0
         0         0         0         0         0         0         0         0
         0         0         0         0         0         0         0         0
         0         0         0         0         0         0         0         0
         0         0         0         0         0         0         0         0
         0         0         0         0         0         0         0         0
         0         0         0         0         0         0         0         0
         0         0         0         0         0         0         0         0
         0         0         0         0         0         0         0         0
         0         0         0         0         0         0         0         0
         0         0         0         0         0         0         0         0
         0         0         0         0         0         0         0         0
         0         0         0         0         0         0         0         0
         0         0         0         0         0         0         0         0
         0         0         0         0         0         0         0         0
         0         0         0         0         0         0         0         0
         0         0         0         0         0         0         0         0
         0         0         0         0         0         0         0         0
         0         0         0         0         0         0         0         0
         0         0         0         0         0         0         0         0
         0         0         0         0         0         0         0         0
         0         0         0         0         0         0         0         0
         0         0         0         0         0         0         0         0
         0         0         0         0         0         0         0         0
         0         0         0         0         0         0         0         0
         0         0         0         0         0         0         0         0
         0         0         0         0         0         0         0         0
         0         0         0         0         0         0         0         0
         0         0         0         0         0         0         0         0
         0         0         0         0         0         0         0         0
         0         0         0         0         0         0         0         0
         0         0         0         0         0         0         0         0
         0         0         0         0         0         0         0         0
         0         0         0         0         0         0         0         0
         0         0         0         0         0         0         0         0
         0         0         0         0         0         0         0         0
         0         0         0         0         0         0         0         0
         0         0         0         0         0         0         0         0
         0         0         0         0         0         0         0         0
         0         0         0         0         0         0         0         0
         0         0         0         0         0         0         0         0
         0         0         0         0         0         0         0         0
         0         0         0         0         0         0         0         0
         0         0         0         0         0         0         0         0
         0         0         0         0         0         0         0         0
         0         0         0         0         0         0         0         0
         0         0         0         0         0         0         0         0
         0         0         0         0         0         0         0         0
         0         0         0         0         0         0         0         0
         0         0         0         0         0         0         0         0
         0         0         0         0         0         0         0         0
         0         0         0         0         0         0         0         0
         0         0         0         0         0         0         0         0
         0         0         0         0         0         0         0         0
         0         0         0         0         0         0         0         0
         0         0         0         0         0         0         0         0
         0         0         0         0         0         0         0         0
         0         0         0         0         0         0         0         0
         0         0         0         0         0         0         0         0
         0         0         0         0         0         0         0         0
         0         0         0         0         0         0         0         0
         0         0         0         0         0         0         0         0
         0         0         0         0         0         0         0         0
         0         0         0         0         0         0         0         0
         0         0         0         0         0         0         0         0
         0         0         0         0         0         0         0         0
         0         0         0         0         0         0         0         0
         0         0         0         0         0         0         0         0
         0         0         0         0         0         0         0         0
         0         0         0         0         0         0         0         0
         0         0         0         0         0         0         0         0
         0         0         0         0         0         0         0         0
         0         0         0         0         0         0         0         0
         0         0         0         0         0         0         0         0
         0         0         0         0         0         0         0         0
         0         0         0         0         0         0         0         0
         0         0         0         0         0         0         0         0
         0         0         0         0         0         0         0         0
         0         0         0         0         0         0         0         0
         0         0         0         0         0         0         0         0
         0         0         0         0         0         0         0         0
         0         0         0         0         0         0         0         0
         0         0         0         0         0         0         0         0
         0         0         0         0         0         0         0         0
         0         0         0         0         0         0         0         0
         0         0         0         0         0         0         0         0
         0         0         0         0         0         0         0         0
         0         0         0         0         0         0         0         0
         0         0         0         0         0         0         0         0
         0         0         0         0         0         0         0         0
         0         0         0         0         0         0         0         0
         0         0         0         0         0         0         0         0
         0         0         0         0         0         0         0         0
         0         0         0         0         0         0         0         0
         0         0         0         0         0         0         0         0
         0         0         0         0         0         0         0         0
         0         0         0         0         0         0         0         0
         0         0         0         0         0         0         0         0
         0         0         0         0         0         0         0         0
         0         0         0         0         0         0         0         0
         0         0         0         0         0         0         0         0
         0         0         0         0         0         0         0         0
         0         0         0         0         0         0         0         0
         0         0         0         0         0         0         0         0
         0         0         0         0         0         0         0         0
         0         0         0         0         0         0         0         0
         0         0         0         0         0         0         0         0
         0         0         0         0         0         0         0         0
         0         0         0         0         0         0         0         0
         0         0         0         0         0         0         0         0
         0         0         0         0         0         0         0         0
         0         0         0         0         0         0         0         0
         0         0         0         0         0         0         0         0
         0         0         0         0         0         0         0         0
         0         0         0         0         0         0         0         0
         0         0         0         0         0         0         0         0
         0         0         0         0         0         0         0         0
         0         0         0         0         0         0         0         0
         0         0         0         0         0         0         0         0
         0         0         0         0         0         0         0         0
         0         0         0         0         0         0         0         0
         0         0         0         0         0         0         0         0
         0         0         0         0         0         0         0         0
         0         0         0         0         0         0         0         0
         0         0         0         0         0         0         0         0
         0         0         0         0         0         0         0         0
         0         0         0         0         0         0         0         0
         0         0         0         0         0         0         0         0
         0         0         0         0         0         0         0         0
         0         0         0         0         0         0         0         0
         0         0         0         0         0         0         0         0
         0         0         0         0         0         0         0         0
         0         0         0         0         0         0         0         0
         0         0         0         0         0         0         0         0
         0         0         0         0         0         0         0         0
         0         0         0         0         0         0         0         0
         0         0         0         0         0         0         0         0
         0         0         0         0         0         0         0         0
         0         0         0         0         0         0         0         0
         0         0         0         0         0         0         0         0
         0         0         0         0         0         0         0         0
         0         0         0         0         0         0         0         0
         0         0         0         0         0         0         0         0
         0         0         0         0         0         0         0         0
         0         0         0         0         0         0         0         0
         0         0         0         0         0         0         0         0
         0         0         0         0         0         0         0         0
         0         0         0         0         0         0         0         0
         0         0         0         0         0         0         0         0
         0         0         0         0         0         0         0         0
         0         0         0         0         0         0         0         0
         0         0         0         0         0         0         0         0
         0         0         0         0         0         0         0         0
         0         0         0         0         0         0         0         0
         0         0         0         0         0         0         0         0
         0         0         0         0         0         0         0         0
         0         0         0         0         0         0         0         0
         0         0         0         0         0         0         0         0
         0         0         0         0         0         0         0         0
         0         0         0         0         0         0         0         0
         0         0         0         0         0         0         0         0
         0         0         0         0         0         0         0         0
         0         0         0         0         0         0         0         0
         0         0         0         0         0         0         0         0
         0         0         0         0         0         0         0         0
         0         0         0         0         0         0         0         0
         0         0         0         0         0         0         0         0
         0         0         0         0         0         0         0         0
         0         0         0         0         0         0         0         0
         0         0         0         0         0         0         0         0
         0         0         0         0         0         0         0         0
         0         0         0         0         0         0         0         0
         0         0         0         0         0         0         0         0
         0         0         0         0         0         0         0         0
         0         0         0         0         0         0         0         0
         0         0         0         0         0         0         0         0
         0         0         0         0         0         0         0         0
         0         0         0         0         0         0         0         0
         0         0         0         0         0         0         0         0
         0         0         0         0         0         0         0         0
         0         0         0         0         0         0         0         0
         0         0         0         0         0         0         0         0
         0         0         0         0         0         0         0         0
         0         0         0         0         0         0         0         0
         0         0         0         0         0         0         0         0
         0         0         0         0         0         0         0         0
         0         0         0         0         0         0         0         0
         0         0         0         0         0         0         0         0
         0         0         0         0         0         0         0         0
         0         0         0         0         0         0         0         0
         0         0         0         0         0         0         0         0
         0         0         0         0         0         0         0         0
         0         0         0         0         0         0         0         0
         0         0         0         0         0         0         0         0
         0         0         0         0         0         0         0         0
         0         0         0         0         0         0         0         0
         0         0         0         0         0         0         0         0
         0         0         0         0         0         0         0         0
         0         0         0         0         0         0         0         0
         0         0         0         0         0         0         0         0
         0         0         0         0         0         0         0         0
         0         0         0         0         0         0         0         0
         0         0         0         0         0         0         0         0
         0         0         0         0         0         0         0         0
         0         0         0         0         0         0         0         0
         0         0         0         0         0         0         0         0
         0         0         0         0         0         0         0         0
         0         0         0         0         0         0         0         0
         0         0         0         0         0         0         0         0
         0         0         0         0         0         0         0         0
         0         0         0         0         0         0         0         0
         0         0         0         0         0         0         0         0
         0         0         0         0         0         0         0         0
         0         0         0         0         0         0         0         0
         0         0         0         0         0         0         0         0
         0         0         0         0         0         0         0         0
         0         0         0         0         0         0         0         0
         0         0         0         0         0         0         0         0
         0         0         0         0         0         0         0         0
         0         0         0         0         0         0         0         0
         0         0         0         0         0         0         0         0
         0         0         0         0         0         0         0         0
         0         0         0         0         0         0         0         0
         0         0         0         0         0         0         0         0
         0         0         0         0         0         0         0         0
         0         0         0         0         0         0         0         0
         0         0         0         0         0         0         0         0
         0         0         0         0         0         0         0         0
         0         0         0         0         0         0         0         0
         0         0         0         0         0         0         0         0
         0         0         0         0         0         0         0         0
         0         0         0         0         0         0         0         0
         0         0         0         0         0         0         0         0
         0         0         0         0         0         0         0         0
         0         0         0         0         0         0         0         0
         0         0         0         0         0         0         0         0
         0         0         0         0         0         0         0         0
         0         0         0         0         0         0         0         0
         0         0         0         0         0         0         0         0
         0         0         0         0         0         0         0         0
         0         0         0         0         0         0         0         0
         0         0         0         0         0         0         0         0
         0         0         0         0         0         0         0         0
         0         0         0         0         0         0         0         0
         0         0         0         0         0         0         0         0
         0         0         0         0         0         0         0         0
         0         0         0         0         0         0         0         0
         0         0         0         0         0         0         0         0
         0         0         0         0         0         0         0         0
         0         0         0         0         0         0         0         0
         0         0         0         0         0         0         0         0
         0         0         0         0         0         0         0         0
         0         0         0         0         0         0         0         0
         0         0         0         0         0         0         0         0
         0         0         0         0         0         0         0         0
         0         0         0         0         0         0         0         0
         0         0         0         0         0         0         0         0
         0         0         0         0         0         0         0         0
         0         0         0         0         0         0         0         0
         0         0         0         0         0         0         0         0
         0         0         0         0         0         0         0         0
         0         0         0         0         0         0         0         0
         0         0         0         0         0         0         0         0
         0         0         0         0         0         0         0         0
         0         0         0         0         0         0         0         0
         0         0         0         0         0         0         0         0
         0         0         0         0         0         0         0         0
         0         0         0         0         0         0         0         0
         0         0         0         0         0         0         0         0
         0         0         0         0         0         0         0         0
         0         0         0         0         0         0         0         0
         0         0         0         0         0         0         0         0
         0         0         0         0         0         0         0         0
         0         0         0         0         0         0         0         0
         0         0         0         0         0         0         0         0
         0         0         0         0         0         0         0         0
         0         0         0         0         0         0         0         0
         0         0         0         0         0         0         0         0
         0         0         0         0         0         0         0         0
         0         0         0         0         0         0         0         0
         0         0         0         0         0         0         0         0
         0         0         0         0         0         0         0         0
         0         0         0         0         0         0         0         0
         0         0         0         0         0         0         0         0
         0         0         0         0         0         0         0         0
         0         0         0         0         0         0         0         0
         0         0         0         0         0         0         0         0
         0         0         0         0         0         0         0         0
         0         0         0         0         0         0         0         0
         0         0         0         0         0         0         0         0
         0         0         0         0         0         0         0         0
         0         0         0         0         0         0         0         0
         0         0         0         0         0         0         0         0
         0         0         0         0         0         0         0         0
         0         0         0         0         0         0         0         0
         0         0         0         0         0         0         0         0
         0         0         0         0         0         0         0         0
         0         0         0         0         0         0         0         0
         0         0         0         0         0         0         0         0
         0         0         0         0         0         0         0         0
         0         0         0         0         0         0         0         0
         0         0         0         0         0         0         0         0
         0         0         0         0         0         0         0         0
         0         0         0         0         0         0         0         0
         0         0         0         0         0         0         0         0
         0         0         0         0         0         0         0         0
         0         0         0         0         0         0         0         0
         0         0         0         0         0         0         0         0
         0         0         0         0         0         0         0         0
         0         0         0         0         0         0         0         0
         0         0         0         0         0         0         0         0
         0         0         0         0         0         0         0         0
         0         0         0         0         0         0         0         0
         0         0         0         0         0         0         0         0
         0         0         0         0         0         0         0         0
         0         0         0         0         0         0         0         0
         0         0         0         0         0         0         0         0
         0         0         0         0         0         0         0         0
         0         0         0         0         0         0         0         0
         0         0         0         0         0         0         0         0
         0         0         0         0         0         0         0         0
         0         0         0         0         0         0         0         0
         0         0         0         0         0         0         0         0
         0         0         0         0         0         0         0         0
         0         0         0         0         0         0         0         0
         0         0         0         0         0         0         0         0
         0         0         0         0         0         0         0         0
         0         0         0         0         0         0         0         0
         0         0         0         0         0         0         0         0
         0         0         0         0         0         0         0         0
         0         0         0         0         0         0         0         0
         0         0         0         0         0         0         0         0
         0         0         0         0         0         0         0         0
         0         0         0         0         0         0         0         0
         0         0         0         0         0         0         0         0
         0         0         0         0         0         0         0         0
         0         0         0         0         0         0         0         0
         0         0         0         0         0         0         0         0
         0         0         0         0         0         0         0         0
         0         0         0         0         0         0         0         0
         0         0         0         0         0         0         0         0
         0         0         0         0         0         0         0         0
         0         0         0         0         0         0         0         0
         0         0         0         0         0         0         0         0
         0         0         0         0         0         0         0         0
         0         0         0         0         0         0         0         0
         0         0         0         0         0         0         0         0
         0         0         0         0         0         0         0         0
         0         0         0         0         0         0         0         0
         0         0         0         0         0         0         0         0
         0         0         0         0         0         0         0         0
         0         0         0         0         0         0         0         0
         0         0         0         0         0         0         0         0
         0         0         0         0         0         0         0         0
         0         0         0         0         0         0         0         0
         0         0         0         0         0         0         0         0
         0         0         0         0         0         0         0         0
         0         0         0         0         0         0         0         0
         0         0         0         0         0         0         0         0
         0         0         0         0         0         0         0         0
         0         0         0         0         0         0         0         0
         0         0         0         0         0         0         0         0
         0         0         0         0         0         0         0         0
         0         0         0         0         0         0         0         0
         0         0         0         0         0         0         0         0
         0         0         0         0         0         0         0         0
         0         0         0         0         0         0         0         0
         0         0         0         0         0         0         0         0
         0         0         0         0         0         0         0         0
         0         0         0         0         0         0         0         0
         0         0         0         0         0         0         0         0
         0         0         0         0         0         0         0         0
         0         0         0         0         0         0         0         0
         0         0         0         0         0         0         0         0
         0         0         0         0         0         0         0         0
         0         0         0         0         0         0         0         0
         0         0         0         0         0         0         0         0
         0         0         0         0         0         0         0         0
         0         0         0         0         0         0         0         0
         0         0         0         0         0         0         0         0
         0         0         0         0         0         0         0         0
         0         0         0         0         0         0         0         0
         0         0         0         0         0         0         0         0
         0         0         0         0         0         0         0         0
         0         0         0         0         0         0         0         0
         0         0         0         0         0         0         0         0
         0         0         0         0         0         0         0         0
         0         0         0         0         0         0         0         0
         0         0         0         0         0         0         0         0
         0         0         0         0         0         0         0         0
         0         0         0         0         0         0         0         0
         0         0         0         0         0         0         0         0
         0         0         0         0         0         0         0         0
         0         0         0         0         0         0         0         0
         0         0         0         0         0         0         0         0
         0         0         0         0         0         0         0         0
         0         0         0         0         0         0         0         0
         0         0         0         0         0         0         0         0
         0         0         0         0         0         0         0         0
         0         0         0         0         0         0         0         0
         0         0         0         0         0         0         0         0
         0         0         0         0         0         0         0         0
         0         0         0         0         0         0         0         0
         0         0         0         0         0         0         0         0
         0         0         0         0         0         0         0         0
         0         0         0         0         0         0         0         0
         0         0         0         0         0         0         0         0
         0         0         0         0         0         0         0         0
         0         0         0         0         0         0         0         0
         0         0         0         0         0         0         0         0
         0         0         0         0         0         0         0         0
         0         0         0         0         0         0         0         0
         0         0         0         0         0         0         0         0
         0         0         0         0         0         0         0         0
         0         0         0         0         0         0         0         0
         0         0         0         0         0         0         0         0
         0         0         0         0         0         0         0         0
         0         0         0         0         0         0         0         0
         0         0         0         0         0         0         0         0
         0         0         0         0         0         0         0         0
         0         0         0         0         0         0         0         0
         0         0         0         0         0         0         0         0
         0         0         0         0         0         0         0         0
         0         0         0         0         0         0         0         0
         0         0         0         0         0         0         0         0
         0         0         0         0         0         0         0         0
         0         0         0         0         0         0         0         0
         0         0         0         0         0         0         0         0
         0         0         0         0         0         0         0         0
         0         0         0         0         0         0         0         0
         0         0         0         0         0         0         0         0
         0         0         0         0         0         0         0         0
         0         0         0         0         0         0         0         0
         0         0         0         0         0         0         0         0
         0         0         0         0         0         0         0         0
         0         0         0         0         0         0         0         0
         0         0         0         0         0         0         0         0
         0         0         0         0         0         0         0         0
         0         0         0         0         0         0         0         0
         0         0         0         0         0         0         0         0
         0         0         0         0         0         0         0         0
         0         0         0         0         0         0         0         0
         0         0         0         0         0         0         0         0
         0         0         0         0         0         0         0         0
         0         0         0         0         0         0         0         0
         0         0         0         0         0         0         0         0
         0         0         0         0         0         0         0         0
         0         0         0         0         0         0         0         0
         0         0         0         0         0         0         0         0
         0         0         0         0         0         0         0         0
         0         0         0         0         0         0         0         0
         0         0         0         0         0         0         0         0
         0         0         0         0         0         0         0         0
         0         0         0         0         0         0         0         0
         0         0         0         0         0         0         0         0
         0         0         0         0         0         0         0         0
         0         0         0         0         0         0         0         0
         0         0         0         0         0         0         0         0
         0         0         0         0         0         0         0         0
         0         0         0         0         0         0         0         0
         0         0         0         0         0         0         0         0
         0         0         0         0         0         0         0         0
         0         0         0         0         0         0         0         0
         0         0         0         0         0         0         0         0
         0         0         0         0         0         0         0         0
         0         0         0         0         0         0         0         0
         0         0         0         0         0         0         0         0
         0         0         0         0         0         0         0         0
         0         0         0         0         0         0         0         0
         0         0         0         0         0         0         0         0
         0         0         0         0         0         0         0         0
         0         0         0         0         0         0         0         0
         0         0         0         0         0         0         0         0
         0         0         0         0         0         0         0         0
         0         0         0         0         0         0         0         0
         0         0         0         0         0         0         0         0
         0         0         0         0         0         0         0         0
         0         0         0         0         0         0         0         0
         0         0         0         0         0         0         0         0
         0         0         0         0         0         0         0         0
         0         0         0         0         0         0         0         0
         0         0         0         0         0         0         0         0
         0         0         0         0         0         0         0         0
         0         0         0         0         0         0         0         0
         0         0         0         0         0         0         0         0
         0         0         0         0         0         0         0         0
         0         0         0         0         0         0         0         0
         0         0         0         0         0         0         0         0
         0         0         0         0         0         0         0         0
         0         0         0         0         0         0         0         0
         0         0         0         0         0         0         0         0
         0         0         0         0         0         0         0         0
         0         0         0         0         0         0         0         0
         0         0         0         0         0         0         0         0
         0         0         0         0         0         0         0         0
         0         0         0         0         0         0         0         0
         0         0         0         0         0         0         0         0
         0         0         0         0         0         0         0         0
         0         0         0         0         0         0         0         0
         0         0         0         0         0         0         0         0
         0         0         0         0         0         0         0         0
         0         0         0         0         0         0         0         0
         0         0         0         0         0         0         0         0
         0         0         0         0         0         0         0         0
         0         0         0         0         0         0         0         0
         0         0         0         0         0         0         0         0
         0         0         0         0         0         0         0         0
         0         0         0         0         0         0         0         0
         0         0         0         0         0         0         0         0
         0         0         0         0         0         0         0         0
         0         0         0         0         0         0         0         0
         0         0         0         0         0         0         0         0
         0         0         0         0         0         0         0         0
         0         0         0         0         0         0         0         0
         0         0         0         0         0         0         0         0
         0         0         0         0         0         0         0         0
         0         0         0         0         0         0         0         0
         0         0         0         0         0         0         0         0
         0         0         0         0         0         0         0         0
         0         0         0         0         0         0         0         0
         0         0         0         0         0         0         0         0
         0         0         0         0         0         0         0         0
         0         0         0         0         0         0         0         0
         0         0         0         0         0         0         0         0
         0         0         0         0         0         0         0         0
         0         0         0         0         0         0         0         0
         0         0         0         0         0         0         0         0
         0         0         0         0         0         0         0         0
         0         0         0         0         0         0         0         0
         0         0         0         0         0         0         0         0
         0         0         0         0         0         0         0         0
         0         0         0         0         0         0         0         0
         0         0         0         0         0         0         0         0
         0         0         0         0         0         0         0         0
         0         0         0         0         0         0         0         0
         0         0         0         0         0         0         0         0
         0         0         0         0         0         0         0         0
         0         0         0         0         0         0         0         0
         0         0         0         0         0         0         0         0
         0         0         0         0         0         0         0         0
         0         0         0         0         0         0         0         0
         0         0         0         0         0         0         0         0
         0         0         0         0         0         0         0         0
         0         0         0         0         0         0         0         0
         0         0         0         0         0         0         0         0
         0         0         0         0         0         0         0         0
         0         0         0         0         0         0         0         0
         0         0         0         0         0         0         0         0
         0         0         0         0         0         0         0         0
         0         0         0         0         0         0         0         0
         0         0         0         0         0         0         0         0
         0         0         0         0         0         0         0         0
         0         0         0         0         0         0         0         0
         0         0         0         0         0         0         0         0
         0         0         0         0         0         0         0         0
         0         0         0         0         0         0         0         0
         0         0         0         0         0         0         0         0
         0         0         0         0         0         0         0         0
         0         0         0         0         0         0         0         0
         0         0         0         0         0         0         0         0
         0         0         0         0         0         0         0         0
         0         0         0         0         0         0         0         0
         0         0         0         0         0         0         0         0
         0         0         0         0         0         0         0         0
         0         0         0         0         0         0         0         0
         0         0         0         0         0         0         0         0
         0         0         0         0         0         0         0         0
         0         0         0         0         0         0         0         0
         0         0         0         0         0         0         0         0
         0         0         0         0         0         0         0         0
         0         0         0         0         0         0         0         0
         0         0         0         0         0         0         0         0
         0         0         0         0         0         0         0         0
         0         0         0         0         0         0         0         0
         0         0         0         0         0         0         0         0
         0         0         0         0         0         0         0         0
         0         0         0         0         0         0         0         0
         0         0         0         0         0         0         0         0
         0         0         0         0         0         0         0         0
         0         0         0         0         0         0         0         0
         0         0         0         0         0         0         0         0
         0         0         0         0         0         0         0         0
         0         0         0         0         0         0         0         0
         0         0         0         0         0         0         0         0
         0         0         0         0         0         0         0         0
         0         0         0         0         0         0         0         0
         0         0         0         0         0         0         0         0
         0         0         0         0         0         0         0         0
         0         0         0         0         0         0         0         0
         0         0         0         0         0         0         0         0
         0         0         0         0         0         0         0         0
         0         0         0         0         0         0         0         0
         0         0         0         0         0         0         0         0
         0         0         0         0         0         0         0         0
         0         0         0         0         0         0         0         0
         0         0         0         0         0         0         0         0
         0         0         0         0         0         0         0         0
         0         0         0         0         0         0         0         0
         0         0         0         0         0         0         0         0
         0         0         0         0         0         0         0         0
         0         0         0         0         0         0         0         0
         0         0         0         0         0         0         0         0
         0         0         0         0         0         0         0         0
         0         0         0         0         0         0         0         0
         0         0         0         0         0         0         0         0
         0         0         0         0         0         0         0         0
         0         0         0         0         0         0         0         0
         0         0         0         0         0         0         0         0
         0         0         0         0         0         0         0         0
         0         0         0         0         0         0         0         0
         0         0         0         0         0         0         0         0
         0         0         0         0         0         0         0         0
         0         0         0         0         0         0         0         0
         0         0         0         0         0         0         0         0
         0         0         0         0         0         0         0         0
         0         0         0         0         0         0         0         0
         0         0         0         0         0         0         0         0
         0         0         0         0         0         0         0         0
         0         0         0         0         0         0         0         0
         0         0         0         0         0         0         0         0
         0         0         0         0         0         0         0         0
         0         0         0         0         0         0         0         0
         0         0         0         0         0         0         0         0
         0         0         0         0         0         0         0         0
         0         0         0         0         0         0         0         0
         0         0         0         0         0         0         0         0
         0         0         0         0         0         0         0         0
         0         0         0         0         0         0         0         0
         0         0         0         0         0         0         0         0
         0         0         0         0         0         0         0         0
         0         0         0         0         0         0         0         0
         0         0         0         0         0         0         0         0
         0         0         0         0         0         0         0         0
         0         0         0         0         0         0         0         0
         0         0         0         0         0         0         0         0
         0         0         0         0         0         0         0         0
         0         0         0         0         0         0         0         0
         0         0         0         0         0         0         0         0
         0         0         0         0         0         0         0         0
         0         0         0         0         0         0         0         0
         0         0         0         0         0         0         0         0
         0         0         0         0         0         0         0         0
         0         0         0         0         0         0         0         0
         0         0         0         0         0         0         0         0
         0         0         0         0         0         0         0         0
         0         0         0         0         0         0         0         0
         0         0         0         0         0         0         0         0
         0         0         0         0         0         0         0         0
         0         0         0         0         0         0         0         0
         0         0         0         0         0         0         0         0
         0         0         0         0         0         0         0         0
         0         0         0         0         0         0         0         0
         0         0         0         0         0         0         0         0
         0         0         0         0         0         0         0         0
         0         0         0         0         0         0         0         0
         0         0         0         0         0         0         0         0
         0         0         0         0         0         0         0         0
         0         0         0         0         0         0         0         0
         0         0         0         0         0         0         0         0
         0         0         0         0         0         0         0         0
         0         0         0         0         0         0         0         0
         0         0         0         0         0         0         0         0
         0         0         0         0         0         0         0         0
         0         0         0         0         0         0         0         0
         0         0         0         0         0         0         0         0
         0         0         0         0         0         0         0         0
         0         0         0         0         0         0         0         0
         0         0         0         0         0         0         0         0
         0         0         0         0         0         0         0         0
         0         0         0         0         0         0         0         0
         0         0         0         0         0         0         0         0
         0         0         0         0         0         0         0         0
         0         0         0         0         0         0         0         0
         0         0         0         0         0         0         0         0
         0         0         0         0         0         0         0         0
         0         0         0         0         0         0         0         0
         0         0         0         0         0         0         0         0
         0         0         0         0         0         0         0         0
         0         0         0         0         0         0         0         0
         0         0         0         0         0         0         0         0
         0         0         0         0         0         0         0         0
         0         0         0         0         0         0         0         0
         0         0         0         0         0         0         0         0
         0         0         0         0         0         0         0         0
         0         0         0         0         0         0         0         0
         0         0         0         0         0         0         0         0
         0         0         0         0         0         0         0         0
         0         0         0         0         0         0         0         0
         0         0         0         0         0         0         0         0
         0         0         0         0         0         0         0         0
         0         0         0         0         0         0         0         0
         0         0         0         0         0         0         0         0
         0         0         0         0         0         0         0         0
         0         0         0         0         0         0         0         0
         0         0         0         0         0         0         0         0
         0         0         0         0         0         0         0         0
         0         0         0         0         0         0         0         0
         0         0         0         0         0         0         0         0
         0         0         0         0         0         0         0         0
         0         0         0         0         0         0         0         0
         0         0         0         0         0         0         0         0
         0         0         0         0         0         0         0         0
         0         0         0         0         0         0         0         0
         0         0         0         0         0         0         0         0
         0         0         0         0         0         0         0         0
         0         0         0         0         0         0         0         0
         0         0         0         0         0         0         0         0
         0         0         0         0         0         0         0         0
         0         0         0         0         0         0         0         0
         0         0         0         0         0         0         0         0
         0         0         0         0         0         0         0         0
         0         0         0         0         0         0         0         0
         0         0         0         0         0         0         0         0
         0         0         0         0         0         0         0         0
         0         0         0         0         0         0         0         0
         0         0         0         0         0         0         0         0
         0         0         0         0         0         0         0         0
         0         0         0         0         0         0         0         0
         0         0         0         0         0         0         0         0
         0         0         0         0         0         0         0         0
         0         0         0         0         0         0         0         0
         0         0         0         0         0         0         0         0
         0         0         0         0         0         0         0         0
         0         0         0         0         0         0         0         0
         0         0         0         0         0         0         0         0
         0         0         0         0         0         0         0         0
         0         0         0         0         0         0         0         0
         0         0         0         0         0         0         0         0
         0         0         0         0         0         0         0         0
         0         0         0         0         0         0         0         0
         0         0         0         0         0         0         0         0
         0         0         0         0         0         0         0         0
         0         0         0         0         0         0         0         0
         0         0         0         0         0         0         0         0
         0         0         0         0         0         0         0         0
         0         0         0         0         0         0         0         0
         0         0         0         0         0         0         0         0
         0         0         0         0         0         0         0         0
         0         0         0         0         0         0         0         0
         0         0         0         0         0         0         0         0
         0         0         0         0         0         0         0         0
         0         0         0         0         0         0         0         0
         0         0         0         0         0         0         0         0
         0         0         0         0         0         0         0         0
         0         0         0         0         0         0         0         0
         0         0         0         0         0         0         0         0
         0         0         0         0         0         0         0         0
         0         0         0         0         0         0         0         0
         0         0         0         0         0         0         0         0
         0         0         0         0         0         0         0         0
         0         0         0         0         0         0         0         0
         0         0         0         0         0         0         0         0
         0         0         0         0         0         0         0         0
         0         0         0         0         0         0         0         0
         0         0         0         0         0         0         0         0
         0         0         0         0         0         0         0         0
         0         0         0         0         0         0         0         0
         0         0         0         0         0         0         0         0
         0         0         0         0         0         0         0         0
         0         0         0         0         0         0         0         0
         0         0         0         0         0         0         0         0
         0         0         0         0         0         0         0         0
         0         0         0         0         0         0         0         0
         0         0         0         0         0         0         0         0
         0         0         0         0         0         0         0         0
         0         0         0         0         0         0         0         0
         0         0         0         0         0         0         0         0
         0         0         0         0         0         0         0         0
         0         0         0         0         0         0         0         0
         0         0         0         0         0         0         0         0
         0         0         0         0         0         0         0         0
         0         0         0         0         0         0         0         0
         0         0         0         0         0         0         0         0
         0         0         0         0         0         0         0         0
         0         0         0         0         0         0         0         0
         0         0         0         0         0         0         0         0
         0         0         0         0         0         0         0         0
         0         0         0         0         0         0         0         0
         0         0         0         0         0         0         0         0
         0         0         0         0         0         0         0         0
         0         0         0         0         0         0         0         0
         0         0         0         0         0         0         0         0
         0         0         0         0         0         0         0         0
         0         0         0         0         0         0         0         0
         0         0         0         0         0         0         0         0
         0         0         0         0         0         0         0         0
         0         0         0         0         0         0         0         0
         0         0         0         0         0         0         0         0
         0         0         0         0         0         0         0         0
         0         0         0         0         0         0         0         0
         0         0         0         0         0         0         0         0
         0         0         0         0         0         0         0         0
         0         0         0         0         0         0         0         0
         0         0         0         0         0         0         0         0
         0         0         0         0         0         0         0         0
         0         0         0         0         0         0         0         0
         0         0         0         0         0         0         0         0
         0         0         0         0         0         0         0         0
         0         0         0         0         0         0         0         0
         0         0         0         0         0         0         0         0
         0         0         0         0         0         0         0         0
         0         0         0         0         0         0         0         0
         0         0         0         0         0         0         0         0
         0         0         0         0         0         0         0         0
         0         0         0         0         0         0         0         0
         0         0         0         0         0         0         0         0
         0         0         0         0         0         0         0         0
         0         0         0         0         0         0         0         0
         0         0         0         0         0         0         0         0
         0         0         0         0         0         0         0         0
         0         0         0         0         0         0         0         0
         0         0         0         0         0         0         0         0
         0         0         0         0         0         0         0         0
         0         0         0         0         0         0         0         0
         0         0         0         0         0         0         0         0
         0         0         0         0         0         0         0         0
         0         0         0         0         0         0         0         0
         0         0         0         0         0         0         0         0
         0         0         0         0         0         0         0         0
         0         0         0         0         0         0         0         0
         0         0         0         0         0         0         0         0
         0         0         0         0         0         0         0         0
         0         0         0         0         0         0         0         0
         0         0         0         0         0         0         0         0
         0         0         0         0         0         0         0         0
         0         0         0         0         0         0         0         0
         0         0         0         0         0         0         0         0
         0         0         0         0         0         0         0         0
         0         0         0         0         0         0         0         0
         0         0         0         0         0         0         0         0
         0         0         0         0         0         0         0         0
         0         0         0         0         0         0         0         0
         0         0         0         0         0         0         0         0
         0         0         0         0         0         0         0         0
         0         0         0         0         0         0         0         0
         0         0         0         0         0         0         0         0
         0         0         0         0         0         0         0         0
         0         0         0         0         0         0         0         0
         0         0         0         0         0         0         0         0
         0         0         0         0         0         0         0         0
         0         0         0         0         0         0         0         0
         0         0         0         0         0         0         0         0
         0         0         0         0         0         0         0         0
         0         0         0         0         0         0         0         0
         0         0         0         0         0         0         0         0
         0         0         0         0         0         0         0         0
         0         0         0         0         0         0         0         0
         0         0         0         0         0         0         0         0
         0         0         0         0         0         0         0         0
         0         0         0         0         0         0         0         0
         0         0         0         0         0         0         0         0
         0         0         0         0         0         0         0         0
         0         0         0         0         0         0         0         0
         0         0         0         0         0         0         0         0
         0         0         0         0         0         0         0         0
         0         0         0         0         0         0         0         0
         0         0         0         0         0         0         0         0
         0         0         0         0         0         0         0         0
         0         0         0         0         0         0         0         0
         0         0         0         0         0         0         0         0
         0         0         0         0         0         0         0         0
         0         0         0         0         0         0         0         0
         0         0         0         0         0         0         0         0
         0         0         0         0         0         0         0         0
         0         0         0         0         0         0         0         0
         0         0         0         0         0         0         0         0
         0         0         0         0         0         0         0         0
         0         0         0         0         0         0         0         0
         0         0         0         0         0         0         0         0
         0         0         0         0         0         0         0         0
         0         0         0         0         0         0         0         0
         0         0         0         0         0         0         0         0
         0         0         0         0         0         0         0         0
         0         0         0         0         0         0         0         0
         0         0         0         0         0         0         0         0
         0         0         0         0         0         0         0         0
         0         0         0         0         0         0         0         0
         0         0         0         0         0         0         0         0
         0         0         0         0         0         0         0         0
         0         0         0         0         0         0         0         0
         0         0         0         0         0         0         0         0
         0         0         0         0         0         0         0         0
         0         0         0         0         0         0         0         0
         0         0         0         0         0         0         0         0
         0         0         0         0         0         0         0         0
         0         0         0         0         0         0         0         0
         0         0         0         0         0         0         0         0
         0         0         0         0         0         0         0         0
         0         0         0         0         0         0         0         0
         0         0         0         0         0         0         0         0
         0         0         0         0         0         0         0         0
         0         0         0         0         0         0         0         0
         0         0         0         0         0         0         0         0
         0         0         0         0         0         0         0         0
         0         0         0         0         0         0         0         0
         0         0         0         0         0         0         0         0
         0         0         0         0         0         0         0         0
         0         0         0         0         0         0         0         0
         0         0         0         0         0         0         0         0
         0         0         0         0         0         0         0         0
         0         0         0         0         0         0         0         0
         0         0         0         0         0         0         0         0
         0         0         0         0         0         0         0         0
         0         0         0         0         0         0         0         0
         0         0         0         0         0         0         0         0
         0         0         0         0         0         0         0         0
         0         0         0         0         0         0         0         0
         0         0         0         0         0         0         0         0
         0         0         0         0         0         0         0         0
         0         0         0         0         0         0         0         0
         0         0         0         0         0         0         0         0
         0         0         0         0         0         0         0         0
         0         0         0         0         0         0         0         0
         0         0         0         0         0         0         0         0
         0         0         0         0         0         0         0         0
         0         0         0         0         0         0         0         0
         0         0         0         0         0         0         0         0
         0         0         0         0         0         0         0         0
         0         0         0         0         0         0         0         0
         0         0         0         0         0         0         0         0
         0         0         0         0         0         0         0         0
         0         0         0         0         0         0         0         0
         0         0         0         0         0         0         0         0
         0         0         0         0         0         0         0         0
         0         0         0         0         0         0         0         0
         0         0         0         0         0         0         0         0
         0         0         0         0         0         0         0         0
         0         0         0         0         0         0         0         0
         0         0         0         0         0         0         0         0
         0         0         0         0         0         0         0         0
         0         0         0         0         0         0         0         0
         0         0         0         0         0         0         0         0
         0         0         0         0         0         0         0         0
         0         0         0         0         0         0         0         0
         0         0         0         0         0         0         0         0
         0         0         0         0         0         0         0         0
         0         0         0         0         0         0         0         0
         0         0         0         0         0         0         0         0
         0         0         0         0         0         0         0         0
         0         0         0         0         0         0         0         0
         0         0         0         0         0         0         0         0
         0         0         0         0         0         0         0         0
         0         0         0         0         0         0         0         0
         0         0         0         0         0         0         0         0
         0         0         0         0         0         0         0         0
         0         0         0         0         0         0         0         0
         0         0         0         0         0         0         0         0
         0         0         0         0         0         0         0         0
         0         0         0         0         0         0         0         0
         0         0         0         0         0         0         0         0
         0         0         0         0         0         0         0         0
         0         0         0         0         0         0         0         0
         0         0         0         0         0         0         0         0
         0         0         0         0         0         0         0         0
         0         0         0         0         0         0         0         0
         0         0         0         0         0         0         0         0
         0         0         0         0         0         0         0         0
         0         0         0         0         0         0         0         0
         0         0         0         0         0         0         0         0
         0         0         0         0         0         0         0         0
         0         0         0         0         0         0         0         0
         0         0         0         0         0         0         0         0
         0         0         0         0         0         0         0         0
         0         0         0         0         0         0         0         0
         0         0         0         0         0         0         0         0
         0         0         0         0         0         0         0         0
         0         0         0         0         0         0         0         0
         0         0         0         0         0         0         0         0
         0         0         0         0         0         0         0         0
         0         0         0         0         0         0         0         0
         0         0         0         0         0         0         0         0
         0         0         0         0         0         0         0         0
         0         0         0         0         0         0         0         0
         0         0         0         0         0         0         0         0
         0         0         0         0         0         0         0         0
         0         0         0         0         0         0         0         0
         0         0         0         0         0         0         0         0
         0         0         0         0         0         0         0         0
         0         0         0         0         0         0         0         0
         0         0         0         0         0         0         0         0
         0         0         0         0         0         0         0         0
         0         0         0         0         0         0         0         0
         0         0         0         0         0         0         0         0
         0         0         0         0         0         0         0         0
         0         0         0         0         0         0         0         0
         0         0         0         0         0         0         0         0
         0         0         0         0         0         0         0         0
         0         0         0         0         0         0         0         0
         0         0         0         0         0         0         0         0
         0         0         0         0         0         0         0         0
         0         0         0         0         0         0         0         0
         0         0         0         0         0         0         0         0
         0         0         0         0         0         0         0         0
         0         0         0         0         0         0         0         0
         0         0         0         0         0         0         0         0
         0         0         0         0         0         0         0         0
         0         0         0         0         0         0         0         0
         0         0         0         0         0         0         0         0
         0         0         0         0         0         0         0         0
         0         0         0         0         0         0         0         0
         0         0         0         0         0         0         0         0
         0         0         0         0         0         0         0         0
         0         0         0         0         0         0         0         0
         0         0         0         0         0         0         0         0
         0         0         0         0         0         0         0         0
         0         0         0         0         0         0         0         0
         0         0         0         0         0         0         0         0
         0         0         0         0         0         0         0         0
         0         0         0         0         0         0         0         0
         0         0         0         0         0         0         0         0
         0         0         0         0         0         0         0         0
         0         0         0         0         0         0         0         0
         0         0         0         0         0         0         0         0
         0         0         0         0         0         0         0         0
         0         0         0         0         0         0         0         0
         0         0         0         0         0         0         0         0
         0         0         0         0         0         0         0         0
         0         0         0         0         0         0         0         0
         0         0         0         0         0         0         0         0
         0         0         0         0         0         0         0         0
         0         0         0         0         0         0         0         0
         0         0         0         0         0         0         0         0
         0         0         0         0         0         0         0         0
         0         0         0         0         0         0         0         0
         0         0         0         0         0         0         0         0
         0         0         0         0         0         0         0         0
         0         0         0         0         0         0         0         0
         0         0         0         0         0         0         0         0
         0         0         0         0         0         0         0         0
         0         0         0         0         0         0         0         0
         0         0         0         0         0         0         0         0
         0         0         0         0         0         0         0         0
         0         0         0         0         0         0         0         0
         0         0         0         0         0         0         0         0
         0         0         0         0         0         0         0         0
         0         0         0         0         0         0         0         0
         0         0         0         0         0         0         0         0
         0         0         0         0         0         0         0         0
         0         0         0         0         0         0         0         0
         0         0         0         0         0         0         0         0
         0         0         0         0         0         0         0         0
         0         0         0         0         0         0         0         0
         0         0         0         0         0         0         0         0
         0         0         0         0         0         0         0         0
         0         0         0         0         0         0         0         0
         0         0         0         0         0         0         0         0
         0         0         0         0         0         0         0         0
         0         0         0         0         0         0         0         0
         0         0         0         0         0         0         0         0
         0         0         0         0         0         0         0         0
         0         0         0         0         0         0         0         0
         0         0         0         0         0         0         0         0
         0         0         0         0         0         0         0         0
         0         0         0         0         0         0         0         0
         0         0         0         0         0         0         0         0
         0         0         0         0         0         0         0         0
         0         0         0         0         0         0         0         0
         0         0         0         0         0         0         0         0
         0         0         0         0         0         0         0         0
         0         0         0         0         0         0         0         0
         0         0         0         0         0         0         0         0
         0         0         0         0         0         0         0         0
         0         0         0         0         0         0         0         0
         0         0         0         0         0         0         0         0
         0         0         0         0         0         0         0         0
         0         0         0         0         0         0         0         0
         0         0         0         0         0         0         0         0
         0         0         0         0         0         0         0         0
         0         0         0         0         0         0         0         0
         0         0         0         0         0         0         0         0
         0         0         0         0         0         0         0         0
         0         0         0         0         0         0         0         0
         0         0         0         0         0         0         0         0
         0         0         0         0         0         0         0         0
         0         0         0         0         0         0         0         0
         0         0         0         0         0         0         0         0
         0         0         0         0         0         0         0         0
         0         0         0         0         0         0         0         0
         0         0         0         0         0         0         0         0
         0         0         0         0         0         0         0         0
         0         0         0         0         0         0         0         0
         0         0         0         0         0         0         0         0
         0         0         0         0         0         0         0         0
         0         0         0         0         0         0         0         0
         0         0         0         0         0         0         0         0
         0         0         0         0         0         0         0         0
         0         0         0         0         0         0         0         0
         0         0         0         0         0         0         0         0
         0         0         0         0         0         0         0         0
         0         0         0         0         0         0         0         0
         0         0         0         0         0         0         0         0
         0         0         0         0         0         0         0         0
         0         0         0         0         0         0         0         0
         0         0         0         0         0         0         0         0
         0         0         0         0         0         0         0         0
         0         0         0         0         0         0         0         0
         0         0         0         0         0         0         0         0
         0         0         0         0         0         0         0         0
         0         0         0         0         0         0         0         0
         0         0         0         0         0         0         0         0
         0         0         0         0         0         0         0         0
         0         0         0         0         0         0         0         0
         0         0         0         0         0         0         0         0
         0         0         0         0         0         0         0         0
         0         0         0         0         0         0         0         0
         0         0         0         0         0         0         0         0
         0         0         0         0         0         0         0         0
         0         0         0         0         0         0         0         0
         0         0         0         0         0         0         0         0
         0         0         0         0         0         0         0         0
         0         0         0         0         0         0         0         0
         0         0         0         0         0         0         0         0
         0         0         0         0         0         0         0         0
         0         0         0         0         0         0         0         0
         0         0         0         0         0         0         0         0
         0         0         0         0         0         0         0         0
         0         0         0         0         0         0         0         0
         0         0         0         0         0         0         0         0
         0         0         0         0         0         0         0         0
         0         0         0         0         0         0         0         0
         0         0         0         0         0         0         0         0
         0         0         0         0         0         0         0         0
         0         0         0         0         0         0         0         0
         0         0         0         0         0         0         0         0
         0         0         0         0         0         0         0         0
         0         0         0         0         0         0         0         0
         0         0         0         0         0         0         0         0
         0         0         0         0         0         0         0         0
         0         0         0         0         0         0         0         0
         0         0         0         0         0         0         0         0
         0         0         0         0         0         0         0         0
         0         0         0         0         0         0         0         0
         0         0         0         0         0         0         0         0
         0         0         0         0         0         0         0         0
         0         0         0         0         0         0         0         0
         0         0         0         0         0         0         0         0
         0         0         0         0         0         0         0         0
         0         0         0         0         0         0         0         0
         0         0         0         0         0         0         0         0
         0         0         0         0         0         0         0         0
         0         0         0         0         0         0         0         0
         0         0         0         0         0         0         0         0
         0         0         0         0         0         0         0         0
         0         0         0         0         0         0         0         0
         0         0         0         0         0         0         0         0
         0         0         0         0         0         0         0         0
         0         0         0         0         0         0         0         0
         0         0         0         0         0         0         0         0
         0         0         0         0         0         0         0         0
         0         0         0         0         0         0         0         0
         0         0         0         0         0         0         0         0
         0         0         0         0         0         0         0         0
         0         0         0         0         0         0         0         0
         0         0         0         0         0         0         0         0
         0         0         0         0         0         0         0         0
         0         0         0         0         0         0         0         0
         0         0         0         0         0         0         0         0
         0         0         0         0         0         0         0         0
         0         0         0         0         0         0         0         0
         0         0         0         0         0         0         0         0
         0         0         0         0         0         0         0         0
         0         0         0         0         0         0         0         0
         0         0         0         0         0         0         0         0
         0         0         0         0         0         0         0         0
         0         0         0         0         0         0         0         0
         0         0         0         0         0         0         0         0
         0         0         0         0         0         0         0         0
         0         0         0         0         0         0         0         0
         0         0         0         0         0         0         0         0
         0         0         0         0         0         0         0         0
         0         0         0         0         0         0         0         0
         0         0         0         0         0         0         0         0
         0         0         0         0         0         0         0         0
         0         0         0         0         0         0         0         0
         0         0         0         0         0         0         0         0
         0         0         0         0         0         0         0         0
         0         0         0         0         0         0         0         0
         0         0         0         0         0         0         0         0
         0         0         0         0         0         0         0         0
         0         0         0         0         0         0         0         0
         0         0         0         0         0         0         0         0
         0         0         0         0         0         0         0         0
         0         0         0         0         0         0         0         0
         0         0         0         0         0         0         0         0
         0         0         0         0         0         0         0         0
         0         0         0         0         0         0         0         0
         0         0         0         0         0         0         0         0
         0         0         0         0         0         0         0         0
         0         0         0         0         0         0         0         0
         0         0         0         0         0         0         0         0
         0         0         0         0         0         0         0         0
         0         0         0         0         0         0         0         0
         0         0         0         0         0         0         0         0
         0         0         0         0         0         0         0         0
         0         0         0         0         0         0         0         0
         0         0         0         0         0         0         0         0
         0         0         0         0         0         0         0         0
         0         0         0         0         0         0         0         0
         0         0         0         0         0         0         0         0
         0         0         0         0         0         0         0         0
         0         0         0         0         0         0         0         0
         0         0         0         0         0         0         0         0
         0         0         0         0         0         0         0         0
         0         0         0         0         0         0         0         0
         0         0         0         0         0         0         0         0
         0         0         0         0         0         0         0         0
         0         0         0         0         0         0         0         0
         0         0         0         0         0         0         0         0
         0         0         0         0         0         0         0         0
         0         0         0         0         0         0         0         0
         0         0         0         0         0         0         0         0
         0         0         0         0         0         0         0         0
         0         0         0         0         0         0         0         0
         0         0         0         0         0         0         0         0
         0         0         0         0         0         0         0         0
         0         0         0         0         0         0         0         0
         0         0         0         0         0         0         0         0
         0         0         0         0         0         0         0         0
         0         0         0         0         0         0         0         0
         0         0         0         0         0         0         0         0
         0         0         0         0         0         0         0         0
         0         0         0         0         0         0         0         0
         0         0         0         0         0         0         0         0
         0         0         0         0         0         0         0         0
         0         0         0         0         0         0         0         0
         0         0         0         0         0         0         0         0
         0         0         0         0         0         0         0         0
         0         0         0         0         0         0         0         0
         0         0         0         0         0         0         0         0
         0         0         0         0         0         0         0         0
         0         0         0         0         0         0         0         0
         0         0         0         0         0         0         0         0
         0         0         0         0         0         0         0         0
         0         0         0         0         0         0         0         0
         0         0         0         0         0         0         0         0
         0         0         0         0         0         0         0         0
         0         0         0         0         0         0         0         0
         0         0         0         0         0         0         0         0
         0         0         0         0         0         0         0         0
         0         0         0         0         0         0         0         0
         0         0         0         0         0         0         0         0
         0         0         0         0         0         0         0         0
         0         0         0         0         0         0         0         0
         0         0         0         0         0         0         0         0
         0         0         0         0         0         0         0         0
         0         0         0         0         0         0         0         0
         0         0         0         0         0         0         0         0
         0         0         0         0         0         0         0         0
         0         0         0         0         0         0         0         0
         0         0         0         0         0         0         0         0
         0         0         0         0         0         0         0         0
         0         0         0         0         0         0         0         0
         0         0         0         0         0         0         0         0
         0         0         0         0         0         0         0         0
         0         0         0         0         0         0         0         0
         0         0         0         0         0         0         0         0
         0         0         0         0         0         0         0         0
         0         0         0         0         0         0         0         0
         0         0         0         0         0         0         0         0
         0         0         0         0         0         0         0         0
         0         0         0         0         0         0         0         0
         0         0         0         0         0         0         0         0
         0         0         0         0         0         0         0         0
         0         0         0         0         0         0         0         0
         0         0         0         0         0         0         0         0
         0         0         0         0         0         0         0         0
         0         0         0         0         0         0         0         0
         0         0         0         0         0         0         0         0
         0         0         0         0         0         0         0         0
         0         0         0         0         0         0         0         0
         0         0         0         0         0         0         0         0
         0         0         0         0         0         0         0         0
         0         0         0         0         0         0         0         0
         0         0         0         0         0         0         0         0
         0         0         0         0         0         0         0         0
         0         0         0         0         0         0         0         0
         0         0         0         0         0         0         0         0
         0         0         0         0         0         0         0         0
         0         0         0         0         0         0         0         0
         0         0         0         0         0         0         0         0
         0         0         0         0         0         0         0         0
         0         0         0         0         0         0         0         0
         0         0         0         0         0         0         0         0
         0         0         0         0         0         0         0         0
         0         0         0         0         0         0         0         0
         0         0         0         0         0         0         0         0
         0         0         0         0         0         0         0         0
         0         0         0         0         0         0         0         0
         0         0         0         0         0         0         0         0
         0         0         0         0         0         0         0         0
         0         0         0         0         0         0         0         0
         0         0         0         0         0         0         0         0
         0         0         0         0         0         0         0         0
         0         0         0         0         0         0         0         0
         0         0         0         0         0         0         0         0
         0         0         0         0         0         0         0         0
         0         0         0         0         0         0         0         0
         0         0         0         0         0         0         0         0
         0         0         0         0         0         0         0         0
         0         0         0         0         0         0         0         0
         0         0         0         0         0         0         0         0
         0         0         0         0         0         0         0         0
         0         0         0         0         0         0         0         0
         0         0         0         0         0         0         0         0
         0         0         0         0         0         0         0         0
         0         0         0         0         0         0         0         0
         0         0         0         0         0         0         0         0
         0         0         0         0         0         0         0         0
         0         0         0         0         0         0         0         0
         0         0         0         0         0         0         0         0
         0         0         0         0         0         0         0         0
         0         0         0         0         0         0         0         0
         0         0         0         0         0         0         0         0
         0         0         0         0         0         0         0         0
         0         0         0         0         0         0         0         0
         0         0         0         0         0         0         0         0
         0         0         0         0         0         0         0         0
         0         0         0         0         0         0         0         0
         0         0         0         0         0         0         0         0
         0         0         0         0         0         0         0         0
         0         0         0         0         0         0         0         0
         0         0         0         0         0         0         0         0
         0         0         0         0         0         0         0         0
         0         0         0         0         0         0         0         0
         0         0         0         0         0         0         0         0
         0         0         0         0         0         0         0         0
         0         0         0         0         0         0         0         0
         0         0         0         0         0         0         0         0
         0         0         0         0         0         0         0         0
         0         0         0         0         0         0         0         0
         0         0         0         0         0         0         0         0
         0         0         0         0         0         0         0         0
         0         0         0         0         0         0         0         0
         0         0         0         0         0         0         0         0
         0         0         0         0         0         0         0         0
         0         0         0         0         0         0         0         0
         0         0         0         0         0         0         0         0
         0         0         0         0         0         0         0         0
         0         0         0         0         0         0         0         0
         0         0         0         0         0         0         0         0
         0         0         0         0         0         0         0         0
         0         0         0         0         0         0         0         0
         0         0         0         0         0         0         0         0
         0         0         0         0         0         0         0         0
         0         0         0         0         0         0         0         0
         0         0         0         0         0         0         0         0
         0         0         0         0         0         0         0         0
         0         0         0         0         0         0         0         0
         0         0         0         0         0         0         0         0
         0         0         0         0         0         0         0         0
         0         0         0         0         0         0         0         0
         0         0         0         0         0         0         0         0
         0         0         0         0         0         0         0         0
         0         0         0         0         0         0         0         0
         0         0         0         0         0         0         0         0
         0         0         0         0         0         0         0         0
         0         0         0         0         0         0         0         0
         0         0         0         0         0         0         0         0
         0         0         0         0         0         0         0         0
         0         0         0         0         0         0         0         0
         0         0         0         0         0         0         0         0
         0         0         0         0         0         0         0         0
         0         0         0         0         0         0         0         0
         0         0         0         0         0         0         0         0
         0         0         0         0         0         0         0         0
         0         0         0         0         0         0         0         0
         0         0         0         0         0         0         0         0
         0         0         0         0         0         0         0         0
         0         0         0         0         0         0         0         0
         0         0         0         0         0         0         0         0
         0         0         0         0         0         0         0         0
         0         0         0         0         0         0         0         0
         0         0         0         0         0         0         0         0
         0         0         0         0         0         0         0         0
         0         0         0         0         0         0         0         0
         0         0         0         0         0         0         0         0
         0         0         0         0         0         0         0         0
         0         0         0         0         0         0         0         0
         0         0         0         0         0         0         0         0
         0         0         0         0         0         0         0         0
         0         0         0         0         0         0         0         0
         0         0         0         0         0         0         0         0
         0         0         0         0         0         0         0         0
         0         0         0         0         0         0         0         0
         0         0         0         0         0         0         0         0
         0         0         0         0         0         0         0         0
         0         0         0         0         0         0         0         0
         0         0         0         0         0         0         0         0
         0         0         0         0         0         0         0         0
         0         0         0         0         0         0         0         0
         0         0         0         0         0         0         0         0
         0         0         0         0         0         0         0         0
         0         0         0         0         0         0         0         0
         0         0         0         0         0         0         0         0
         0         0         0         0         0         0         0         0
         0         0         0         0         0         0         0         0
         0         0         0         0         0         0         0         0
         0         0         0         0         0         0         0         0
         0         0         0         0         0         0         0         0
         0         0         0         0         0         0         0         0
         0         0         0         0         0         0         0         0
         0         0         0         0         0         0         0         0
         0         0         0         0         0         0         0         0
         0         0         0         0         0         0         0         0
         0         0         0         0         0         0         0         0
         0         0         0         0         0         0         0         0
         0         0         0         0         0         0         0         0
         0         0         0         0         0         0         0         0
         0         0         0         0         0         0         0         0
         0         0         0         0         0         0         0         0
         0         0         0         0         0         0         0         0
         0         0         0         0         0         0         0         0
         0         0         0         0         0         0         0         0
         0         0         0         0         0         0         0         0
         0         0         0         0         0         0         0         0
         0         0         0         0         0         0         0         0
         0         0         0         0         0         0         0         0
         0         0         0         0         0         0         0         0
         0         0         0         0         0         0         0         0
         0         0         0         0         0         0         0         0
         0         0         0         0         0         0         0         0
         0         0         0         0         0         0         0         0
         0         0         0         0         0         0         0         0
         0         0         0         0         0         0         0         0
         0         0         0         0         0         0         0         0
         0         0         0         0         0         0         0         0
         0         0         0         0         0         0         0         0
         0         0         0         0         0         0         0         0
         0         0         0         0         0         0         0         0
         0         0         0         0         0         0         0         0
         0         0         0         0         0         0         0         0
         0         0         0         0         0         0         0         0
         0         0         0         0         0         0         0         0
         0         0         0         0         0         0         0         0
         0         0         0         0         0         0         0         0
         0         0         0         0         0         0         0         0
         0         0         0         0         0         0         0         0
         0         0         0         0         0         0         0         0
         0         0         0         0         0         0         0         0
         0         0         0         0         0         0         0         0
         0         0         0         0         0         0         0         0
         0         0         0         0         0         0         0         0
         0         0         0         0         0         0         0         0
         0         0         0         0         0         0         0         0
         0         0         0         0         0         0         0         0
         0         0         0         0         0         0         0         0
         0         0         0         0         0         0         0         0
         0         0         0         0         0         0         0         0
         0         0         0         0         0         0         0         0
         0         0         0         0         0         0         0         0
         0         0         0         0         0         0         0         0
         0         0         0         0         0         0         0         0
         0         0         0         0         0         0         0         0
         0         0         0         0         0         0         0         0
         0         0         0         0         0         0         0         0
         0         0         0         0         0         0         0         0
         0         0         0         0         0         0         0         0
         0         0         0         0         0         0         0         0
         0         0         0         0         0         0         0         0
         0         0         0         0         0         0         0         0
         0         0         0         0         0         0         0         0
         0         0         0         0         0         0         0         0
         0         0         0         0         0         0         0         0
         0         0         0         0         0         0         0         0
         0         0         0         0         0         0         0         0
         0         0         0         0         0         0         0         0
         0         0         0         0         0         0         0         0
         0         0         0         0         0         0         0         0
         0         0         0         0         0         0         0         0
         0         0         0         0         0         0         0         0
         0         0         0         0         0         0         0         0
         0         0         0         0         0         0         0         0
         0         0         0         0         0         0         0         0
         0         0         0         0         0         0         0         0
         0         0         0         0         0         0         0         0
         0         0         0         0         0         0         0         0
         0         0         0         0         0         0         0         0
         0         0         0         0         0         0         0         0
         0         0         0         0         0         0         0         0
         0         0         0         0         0         0         0         0
         0         0         0         0         0         0         0         0
         0         0         0         0         0         0         0         0
         0         0         0         0         0         0         0         0
         0         0         0         0         0         0         0         0
         0         0         0         0         0         0         0         0
         0         0         0         0         0         0         0         0
         0         0         0         0         0         0         0         0
         0         0         0         0         0         0         0         0
         0         0         0         0         0         0         0         0
         0         0         0         0         0         0         0         0
         0         0         0         0         0         0         0         0
         0         0         0         0         0         0         0         0
         0         0         0         0         0         0         0         0
         0         0         0         0         0         0         0         0
         0         0         0         0         0         0         0         0
         0         0         0         0         0         0         0         0
         0         0         0         0         0         0         0         0
         0         0         0         0         0         0         0         0
         0         0         0         0         0         0         0         0
         0         0         0         0         0         0         0         0
         0         0         0         0         0         0         0         0
         0         0         0         0         0         0         0         0
         0         0         0         0         0         0         0         0
         0         0         0         0         0         0         0         0
         0         0         0         0         0         0         0         0
         0         0         0         0         0         0         0         0
         0         0         0         0         0         0         0         0
         0         0         0         0         0         0         0         0
         0         0         0         0         0         0         0         0
         0         0         0         0         0         0         0         0
         0         0         0         0         0         0         0         0
         0         0         0         0         0         0         0         0
         0         0         0         0         0         0         0         0
         0         0         0         0         0         0         0         0
         0         0         0         0         0         0         0         0
         0         0         0         0         0         0         0         0
         0         0         0         0         0         0         0         0
         0         0         0         0         0         0         0         0
         0         0         0         0         0         0         0         0
         0         0         0         0         0         0         0         0
         0         0         0         0         0         0         0         0
         0         0         0         0         0         0         0         0
         0         0         0         0         0         0         0         0
         0         0         0         0         0         0         0         0
         0         0         0         0         0         0         0         0
         0         0         0         0         0         0         0         0
         0         0         0         0         0         0         0         0
         0         0         0         0         0         0         0         0
         0         0         0         0         0         0         0         0
         0         0         0         0         0         0         0         0
         0         0         0         0         0         0         0         0
         0         0         0         0         0         0         0         0
         0         0         0         0         0         0         0         0
         0         0         0         0         0         0         0         0
         0         0         0         0         0         0         0         0
         0         0         0         0         0         0         0         0
         0         0         0         0         0         0         0         0
         0         0         0         0         0         0         0         0
         0         0         0         0         0         0         0         0
         0         0         0         0         0         0         0         0
         0         0         0         0         0         0         0         0
         0         0         0         0         0         0         0         0
         0         0         0         0         0         0         0         0
         0         0         0         0         0         0         0         0
         0         0         0         0         0         0         0         0
         0         0         0         0         0         0         0         0
         0         0         0         0         0         0         0         0
         0         0         0         0         0         0         0         0
         0         0         0         0         0         0         0         0
         0         0         0         0         0         0         0         0
         0         0         0         0         0         0         0         0
         0         0         0         0         0         0         0         0
         0         0         0         0         0         0         0         0
         0         0         0         0         0         0         0         0
         0         0         0         0         0         0         0         0
         0         0         0         0         0         0         0         0
         0         0         0         0         0         0         0         0
         0         0         0         0         0         0         0         0
         0         0         0         0         0         0         0         0
         0         0         0         0         0         0         0         0
         0         0         0         0         0         0         0         0
         0         0         0         0         0         0         0         0
         0         0         0         0         0         0         0         0
         0         0         0         0         0         0         0         0
         0         0         0         0         0         0         0         0
         0         0         0         0         0         0         0         0
         0         0         0         0         0         0         0         0
         0         0         0         0         0         0         0         0
         0         0         0         0         0         0         0         0
         0         0         0         0         0         0         0         0
         0         0         0         0         0         0         0         0
         0         0         0         0         0         0         0         0
         0         0         0         0         0         0         0         0
         0         0         0         0         0         0         0         0
         0         0         0         0         0         0         0         0
         0         0         0         0         0         0         0         0
         0         0         0         0         0         0         0         0
         0         0         0         0         0         0         0         0
         0         0         0         0         0         0         0         0
         0         0         0         0         0         0         0         0
         0         0         0         0         0         0         0         0
         0         0         0         0         0         0         0         0
         0         0         0         0         0         0         0         0
         0         0         0         0         0         0         0         0
         0         0         0         0         0         0         0         0
         0         0         0         0         0         0         0         0
         0         0         0         0         0         0         0         0
         0         0         0         0         0         0         0         0
         0         0         0         0         0         0         0         0
         0         0         0         0         0         0         0         0
         0         0         0         0         0         0         0         0
         0         0         0         0         0         0         0         0
         0         0         0         0         0         0         0         0
         0         0         0         0         0         0         0         0
         0         0         0         0         0         0         0         0
         0         0         0         0         0         0         0         0
         0         0         0         0         0         0         0         0
         0         0         0         0         0         0         0         0
         0         0         0         0         0         0         0         0
         0         0         0         0         0         0         0         0
         0         0         0         0         0         0         0         0
         0         0         0         0         0         0         0         0
         0         0         0         0         0         0         0         0
         0         0         0         0         0         0         0         0
         0         0         0         0         0         0         0         0
         0         0         0         0         0         0         0         0
         0         0         0         0         0         0         0         0
         0         0         0         0         0         0         0         0
         0         0         0         0         0         0         0         0
         0         0         0         0         0         0         0         0
         0         0         0         0         0         0         0         0
         0         0         0         0         0         0         0         0
         0         0         0         0         0         0         0         0
         0         0         0         0         0         0         0         0
         0         0         0         0         0         0         0         0
         0         0         0         0         0         0         0         0
         0         0         0         0         0         0         0         0
         0         0         0         0         0         0         0         0
         0         0         0         0         0         0         0         0
         0         0         0         0         0         0         0         0
         0         0         0         0         0         0         0         0
         0         0         0         0         0         0         0         0
         0         0         0         0         0         0         0         0
         0         0         0         0         0         0         0         0
         0         0         0         0         0         0         0         0
         0         0         0         0         0         0         0         0
         0         0         0         0         0         0         0         0
         0         0         0         0         0         0         0         0
         0         0         0         0         0         0         0         0
         0         0         0         0         0         0         0         0
         0         0         0         0         0         0         0         0
         0         0         0         0         0         0         0         0
         0         0         0         0         0         0         0         0
         0         0         0         0         0         0         0         0
         0         0         0         0         0         0         0         0
         0         0         0         0         0         0         0         0
         0         0         0         0         0         0         0         0
         0         0         0         0         0         0         0         0
         0         0         0         0         0         0         0         0
         0         0         0         0         0         0         0         0
         0         0         0         0         0         0         0         0
         0         0         0         0         0         0         0         0
         0         0         0         0         0         0         0         0
         0         0         0         0         0         0         0         0
         0         0         0         0         0         0         0         0
         0         0         0         0         0         0         0         0
         0         0         0         0         0         0         0         0
         0         0         0         0         0         0         0         0
         0         0         0         0         0         0         0         0
         0         0         0         0         0         0         0         0
         0         0         0         0         0         0         0         0
         0         0         0         0         0         0         0         0
         0         0         0         0         0         0         0         0
         0         0         0         0         0         0         0         0
         0         0         0         0         0         0         0         0
         0         0         0         0         0         0         0         0
         0         0         0         0         0         0         0         0
         0         0         0         0         0         0         0         0
         0         0         0         0         0         0         0         0
         0         0         0         0         0         0         0         0
         0         0         0         0         0         0         0         0
         0         0         0         0         0         0         0         0
         0         0         0         0         0         0         0         0
         0         0         0         0         0         0         0         0
         0         0         0         0         0         0         0         0
         0         0         0         0         0         0         0         0
         0         0         0         0         0         0         0         0
         0         0         0         0         0         0         0         0
         0         0         0         0         0         0         0         0
         0         0         0         0         0         0         0         0
         0         0         0         0         0         0         0         0
         0         0         0         0         0         0         0         0
         0         0         0         0         0         0         0         0
         0         0         0         0         0         0         0         0
         0         0         0         0         0         0         0         0
         0         0         0         0         0         0         0         0
         0         0         0         0         0         0         0         0
         0         0         0         0         0         0         0         0
         0         0         0         0         0         0         0         0
         0         0         0         0         0         0         0         0
         0         0         0         0         0         0         0         0
         0         0         0         0         0         0         0         0
         0         0         0         0         0         0         0         0
         0         0         0         0         0         0         0         0
         0         0         0         0         0         0         0         0
         0         0         0         0         0         0         0         0
         0         0         0         0         0         0         0         0
         0         0         0         0         0         0         0         0
         0         0         0         0         0         0         0         0
         0         0         0         0         0         0         0         0
         0         0         0         0         0         0         0         0
         0         0         0         0         0         0         0         0
         0         0         0         0         0         0         0         0
         0         0         0         0         0         0         0         0
         0         0         0         0         0         0         0         0
         0         0         0         0         0         0         0         0
         0         0         0         0         0         0         0         0
         0         0         0         0         0         0         0         0
         0         0         0         0         0         0         0         0
         0         0         0         0         0         0         0         0
         0         0         0         0         0         0         0         0
         0         0         0         0         0         0         0         0
         0         0         0         0         0         0         0         0
         0         0         0         0         0         0         0         0
         0         0         0         0         0         0         0         0
         0         0         0         0         0         0         0         0
         0         0         0         0         0         0         0         0
         0         0         0         0         0         0         0         0
         0         0         0         0         0         0         0         0
         0         0         0         0         0         0         0         0
         0         0         0         0         0         0         0         0
         0         0         0         0         0         0         0         0
         0         0         0         0         0         0         0         0
         0         0         0         0         0         0         0         0
         0         0         0         0         0         0         0         0
         0         0         0         0         0         0         0         0
         0         0         0         0         0         0         0         0
         0         0         0         0         0         0         0         0
         0         0         0         0         0         0         0         0
         0         0         0         0         0         0         0         0
         0         0         0         0         0         0         0         0
         0         0         0         0         0         0         0         0
         0         0         0         0         0         0         0         0
         0         0         0         0         0         0         0         0
         0         0         0         0         0         0         0         0
         0         0         0         0         0         0         0         0
         0         0         0         0         0         0         0         0
         0         0         0         0         0         0         0         0
         0         0         0         0         0         0         0         0
         0         0         0         0         0         0         0         0
         0         0         0         0         0         0         0         0
         0         0         0         0         0         0         0         0
         0         0         0         0         0         0         0         0
         0         0         0         0         0         0         0         0
         0         0         0         0         0         0         0         0
         0         0         0         0         0         0         0         0
         0         0         0         0         0         0         0         0
         0         0         0         0         0         0         0         0
         0         0         0         0         0         0         0         0
         0         0         0         0         0         0         0         0
         0         0         0         0         0         0         0         0
         0         0         0         0         0         0         0         0
         0         0         0         0         0         0         0         0
         0         0         0         0         0         0         0         0
         0         0         0         0         0         0         0         0
         0         0         0         0         0         0         0         0
         0         0         0         0         0         0         0         0
         0         0         0         0         0         0         0         0
         0         0         0         0         0         0         0         0
         0         0         0         0         0         0         0         0
         0         0         0         0         0         0         0         0
         0         0         0         0         0         0         0         0
         0         0         0         0         0         0         0         0
         0         0         0         0         0         0         0         0
         0         0         0         0         0         0         0         0
         0         0         0         0         0         0         0         0
         0         0         0         0         0         0         0         0
         0         0         0         0         0         0         0         0
         0         0         0         0         0         0         0         0
         0         0         0         0         0         0         0         0
         0         0         0         0         0         0         0         0
         0         0         0         0         0         0         0         0
         0         0         0         0         0         0         0         0
         0         0         0         0         0         0         0         0
         0         0         0         0         0         0         0         0
         0         0         0         0         0         0         0         0
         0         0         0         0         0         0         0         0
         0         0         0         0         0         0         0         0
         0         0         0         0         0         0         0         0
         0         0         0         0         0         0         0         0
         0         0         0         0         0         0         0         0
         0         0         0         0         0         0         0         0
         0         0         0         0         0         0         0         0
         0         0         0         0         0         0         0         0
         0         0         0         0         0         0         0         0
         0         0         0         0         0         0         0         0
         0         0         0         0         0         0         0         0
         0         0         0         0         0         0         0         0
         0         0         0         0         0         0         0         0
         0         0         0         0         0         0         0         0
         0         0         0         0         0         0         0         0
         0         0         0         0         0         0         0         0
         0         0         0         0         0         0         0         0
         0         0         0         0         0         0         0         0
         0         0         0         0         0         0         0         0
         0         0         0         0         0         0         0         0
         0         0         0         0         0         0         0         0
         0         0         0         0         0         0         0         0
         0         0         0         0         0         0         0         0
         0         0         0         0         0         0         0         0
         0         0         0         0         0         0         0         0
         0         0         0         0         0         0         0         0
         0         0         0         0         0         0         0         0
         0         0         0         0         0         0         0         0
         0         0         0         0         0         0         0         0
         0         0         0         0         0         0         0         0
         0         0         0         0         0         0         0         0
         0         0         0         0         0         0         0         0
         0         0         0         0         0         0         0         0
         0         0         0         0         0         0         0         0
         0         0         0         0         0         0         0         0
         0         0         0         0         0         0         0         0
         0         0         0         0         0         0         0         0
         0         0         0         0         0         0         0         0
         0         0         0         0         0         0         0         0
         0         0         0         0         0         0         0         0
         0         0         0         0         0         0         0         0
         0         0         0         0         0         0         0         0
         0         0         0         0         0         0         0         0
         0         0         0         0         0         0         0         0
         0         0         0         0         0         0         0         0
         0         0         0         0         0         0         0         0
         0         0         0         0         0         0         0         0
         0         0         0         0         0         0         0         0
         0         0         0         0         0         0         0         0
         0         0         0         0         0         0         0         0
         0         0         0         0         0         0         0         0
         0         0         0         0         0         0         0         0
         0         0         0         0         0         0         0         0
         0         0         0         0         0         0         0         0
         0         0         0         0         0         0         0         0
         0         0         0         0         0         0         0         0
         0         0         0         0         0         0         0         0
         0         0         0         0         0         0         0         0
         0         0         0         0         0         0         0         0
         0         0         0         0         0         0         0         0
         0         0         0         0         0         0         0         0
         0         0         0         0         0         0         0         0
         0         0         0         0         0         0         0         0
         0         0         0         0         0         0         0         0
         0         0         0         0         0         0         0         0
         0         0         0         0         0         0         0         0
         0         0         0         0         0         0         0         0
         0         0         0         0         0         0         0         0
         0         0         0         0         0         0         0         0
         0         0         0         0         0         0         0         0
         0         0         0         0         0         0         0         0
         0         0         0         0         0         0         0         0
         0         0         0         0         0         0         0         0
         0         0         0         0         0         0         0         0
         0         0         0         0         0         0         0         0
         0         0         0         0         0         0         0         0
         0         0         0         0         0         0         0         0
         0         0         0         0         0         0         0         0
         0         0         0         0         0         0         0         0
         0         0         0         0         0         0         0         0
         0         0         0         0         0         0         0         0
         0         0         0         0         0         0         0         0
         0         0         0         0         0         0         0         0
         0         0         0         0         0         0         0         0
         0         0         0         0         0         0         0         0
         0         0         0         0         0         0         0         0
         0         0         0         0         0         0         0         0
         0         0         0         0         0         0         0         0
         0         0         0         0         0         0         0         0
         0         0         0         0         0         0         0         0
         0         0         0         0         0         0         0         0
         0         0         0         0         0         0         0         0
         0         0         0         0         0         0         0         0
         0         0         0         0         0         0         0         0
         0         0         0         0         0         0         0         0
         0         0         0         0         0         0         0         0
         0         0         0         0         0         0         0         0
         0         0         0         0         0         0         0         0
         0         0         0         0         0         0         0         0
         0         0         0         0         0         0         0         0
         0         0         0         0         0         0         0         0
         0         0         0         0         0         0         0         0
         0         0         0         0         0         0         0         0
         0         0         0         0         0         0         0         0
         0         0         0         0         0         0         0         0
         0         0         0         0         0         0         0         0
         0         0         0         0         0         0         0         0
         0         0         0         0         0         0         0         0
         0         0         0         0         0         0         0         0
         0         0         0         0         0         0         0         0
         0         0         0         0         0         0         0         0
         0         0         0         0         0         0         0         0
         0         0         0         0         0         0         0         0
         0         0         0         0         0         0         0         0
         0         0         0         0         0         0         0         0
         0         0         0         0         0         0         0         0
         0         0         0         0         0         0         0         0
         0         0         0         0         0         0         0         0
         0         0         0         0         0         0         0         0
         0         0         0         0         0         0         0         0
         0         0         0         0         0         0         0         0
         0         0         0         0         0         0         0         0
         0         0         0         0         0         0         0         0
         0         0         0         0         0         0         0         0
         0         0         0         0         0         0         0         0
         0         0         0         0         0         0         0         0
         0         0         0         0         0         0         0         0
         0         0         0         0         0         0         0         0
         0         0         0         0         0         0         0         0
         0         0         0         0         0         0         0         0
         0         0         0         0         0         0         0         0
         0         0         0         0         0         0         0         0
         0         0         0         0         0         0         0         0
         0         0         0         0         0         0         0         0
         0         0         0         0         0         0         0         0
         0         0         0         0         0         0         0         0
         0         0         0         0         0         0         0         0
         0         0         0         0         0         0         0         0
         0         0         0         0         0         0         0         0
         0         0         0         0         0         0         0         0
         0         0         0         0         0         0         0         0
         0         0         0         0         0         0         0         0
         0         0         0         0         0         0         0         0
         0         0         0         0         0         0         0         0
         0         0         0         0         0         0         0         0
         0         0         0         0         0         0         0         0
         0         0         0         0         0         0         0         0
         0         0         0         0         0         0         0         0
         0         0         0         0         0         0         0         0
         0         0         0         0         0         0         0         0
         0         0         0         0         0         0         0         0
         0         0         0         0         0         0         0         0
         0         0         0         0         0         0         0         0
         0         0         0         0         0         0         0         0
         0         0         0         0         0         0         0         0
         0         0         0         0         0         0         0         0
         0         0         0         0         0         0         0         0
         0         0         0         0         0         0         0         0
         0         0         0         0         0         0         0         0
         0         0         0         0         0         0         0         0
         0         0         0         0         0         0         0         0
         0         0         0         0         0         0         0         0
         0         0         0         0         0         0         0         0
         0         0         0         0         0         0         0         0
         0         0         0         0         0         0         0         0
         0         0         0         0         0         0         0         0
         0         0         0         0         0         0         0         0
         0         0         0         0         0         0         0         0
         0         0         0         0         0         0         0         0
         0         0         0         0         0         0         0         0
         0         0         0         0         0         0         0         0
         0         0         0         0         0         0         0         0
         0         0         0         0         0         0         0         0
         0         0         0         0         0         0         0         0
         0         0         0         0         0         0         0         0
         0         0         0         0         0         0         0         0
         0         0         0         0         0         0         0         0
         0         0         0         0         0         0         0         0
         0         0         0         0         0         0         0         0
         0         0         0         0         0         0         0         0
         0         0         0         0         0         0         0         0
         0         0         0         0         0         0         0         0
         0         0         0         0         0         0         0         0
         0         0         0         0         0         0         0         0
         0         0         0         0         0         0         0         0
         0         0         0         0         0         0         0         0
         0         0         0         0         0         0         0         0
         0         0         0         0         0         0         0         0
         0         0         0         0         0         0         0         0
         0         0         0         0         0         0         0         0
         0         0         0         0         0         0         0         0
         0         0         0         0         0         0         0         0
         0         0         0         0         0         0         0         0
         0         0         0         0         0         0         0         0
         0         0         0         0         0         0         0         0
         0         0         0         0         0         0         0         0
         0         0         0         0         0         0         0         0
         0         0         0         0         0         0         0         0
         0         0         0         0         0         0         0         0
         0         0         0         0         0         0         0         0
         0         0         0         0         0         0         0         0
         0         0         0         0         0         0         0         0
         0         0         0         0         0         0         0         0
         0         0         0         0         0         0         0         0
         0         0         0         0         0         0         0         0
         0         0         0         0         0         0         0         0
         0         0         0         0         0         0         0         0
         0         0         0         0         0         0         0         0
         0         0         0         0         0         0         0         0
         0         0         0         0         0         0         0         0
         0         0         0         0         0         0         0         0
         0         0         0         0         0         0         0         0
         0         0         0         0         0         0         0         0
         0         0         0         0         0         0         0         0
         0         0         0         0         0         0         0         0
         0         0         0         0         0         0         0         0
         0         0         0         0         0         0         0         0
         0         0         0         0         0         0         0         0
         0         0         0         0         0         0         0         0
         0         0         0         0         0         0         0         0
         0         0         0         0         0         0         0         0
         0         0         0         0         0         0         0         0
         0         0         0         0         0         0         0         0
         0         0         0         0         0         0         0         0
         0         0         0         0         0         0         0         0
         0         0         0         0         0         0         0         0
         0         0         0         0         0         0         0         0
         0         0         0         0         0         0         0         0
         0         0         0         0         0         0         0         0
         0         0         0         0         0         0         0         0
         0         0         0         0         0         0         0         0
         0         0         0         0         0         0         0         0
         0         0         0         0         0         0         0         0
         0         0         0         0         0         0         0         0
         0         0         0         0         0         0         0         0
         0         0         0         0         0         0         0         0
         0         0         0         0         0         0         0         0
         0         0         0         0         0         0         0         0
         0         0         0         0         0         0         0         0
         0         0         0         0         0         0         0         0
         0         0         0         0         0         0         0         0
         0         0         0         0         0         0         0         0
         0         0         0         0         0         0         0         0
         0         0         0         0         0         0         0         0
         0         0         0         0         0         0         0         0
         0         0         0         0         0         0         0         0
         0         0         0         0         0         0         0         0
         0         0         0         0         0         0         0         0
         0         0         0         0         0         0         0         0
         0         0         0         0         0         0         0         0
         0         0         0         0         0         0         0         0
         0         0         0         0         0         0         0         0
         0         0         0         0         0         0         0         0
         0         0         0         0         0         0         0         0
         0         0         0         0         0         0         0         0
         0         0         0         0         0         0         0         0
         0         0         0         0         0         0         0         0
         0         0         0         0         0         0         0         0
         0         0         0         0         0         0         0         0
         0         0         0         0         0         0         0         0
         0         0         0         0         0         0         0         0
         0         0         0         0         0         0         0         0
         0         0         0         0         0         0         0         0
         0         0         0         0         0         0         0         0
         0         0         0         0         0         0         0         0
         0         0         0         0         0         0         0         0
         0         0         0         0         0         0         0         0
         0         0         0         0         0         0         0         0
         0         0         0         0         0         0         0         0
         0         0         0         0         0         0         0         0
         0         0         0         0         0         0         0         0
         0         0         0         0         0         0         0         0
         0         0         0         0         0         0         0         0
         0         0         0         0         0         0         0         0
         0         0         0         0         0         0         0         0
         0         0         0         0         0         0         0         0
         0         0         0         0         0         0         0         0
         0         0         0         0         0         0         0         0
         0         0         0         0         0         0         0         0
         0         0         0         0         0         0         0         0
         0         0         0         0         0         0         0         0
         0         0         0         0         0         0         0         0
         0         0         0         0         0         0         0         0
         0         0         0         0         0         0         0         0
         0         0         0         0         0         0         0         0
         0         0         0         0         0         0         0         0
         0         0         0         0         0         0         0         0
         0         0         0         0         0         0         0         0
         0         0         0         0         0         0         0         0
         0         0         0         0         0         0         0         0
         0         0         0         0         0         0         0         0
         0         0         0         0         0         0         0         0
         0         0         0         0         0         0         0         0
         0         0         0         0         0         0         0         0
         0         0         0         0         0         0         0         0
         0         0         0         0         0         0         0         0
         0         0         0         0         0         0         0         0
         0         0         0         0         0         0         0         0
         0         0         0         0         0         0         0         0
         0         0         0         0         0         0         0         0
         0         0         0         0         0         0         0         0
         0         0         0         0         0         0         0         0
         0         0         0         0         0         0         0         0
         0         0         0         0         0         0         0         0
         0         0         0         0         0         0         0         0
         0         0         0         0         0         0         0         0
         0         0         0         0         0         0         0         0
         0         0         0         0         0         0         0         0
         0         0         0         0         0         0         0         0
         0         0         0         0         0         0         0         0
         0         0         0         0         0         0         0         0
         0         0         0         0         0         0         0         0
         0         0         0         0         0         0         0         0
         0         0         0         0         0         0         0         0
         0         0         0         0         0         0         0         0
         0         0         0         0         0         0         0         0
         0         0         0         0         0         0         0         0
         0         0         0         0         0         0         0         0
         0         0         0         0         0         0         0         0
         0         0         0         0         0         0         0         0
         0         0         0         0         0         0         0         0
         0         0         0         0         0         0         0         0
         0         0         0         0         0         0         0         0
         0         0         0         0         0         0         0         0
         0         0         0         0         0         0         0         0
         0         0         0         0         0         0         0         0
         0         0         0         0         0         0         0         0
         0         0         0         0         0         0         0         0
         0         0         0         0         0         0         0         0
         0         0         0         0         0         0         0         0
         0         0         0         0         0         0         0         0
         0         0         0         0         0         0         0         0
         0         0         0         0         0         0         0         0
         0         0         0         0         0         0         0         0
         0         0         0         0         0         0         0         0
         0         0         0         0         0         0         0         0
         0         0         0         0         0         0         0         0
         0         0         0         0         0         0         0         0
         0         0         0         0         0         0         0         0
         0         0         0         0         0         0         0         0
         0         0         0         0         0         0         0         0
         0         0         0         0         0         0         0         0
         0         0         0         0         0         0         0         0
         0         0         0         0         0         0         0         0
         0         0         0         0         0         0         0         0
         0         0         0         0         0         0         0         0
         0         0         0         0         0         0         0         0
         0         0         0         0         0         0         0         0
         0         0         0         0         0         0         0         0
         0         0         0         0         0         0         0         0
         0         0         0         0         0         0         0         0
         0         0         0         0         0         0         0         0
         0         0         0         0         0         0         0         0
         0         0         0         0         0         0         0         0
         0         0         0         0         0         0         0         0
         0         0         0         0         0         0         0         0
         0         0         0         0         0         0         0         0
         0         0         0         0         0         0         0         0
         0         0         0         0         0         0         0         0
         0         0         0         0         0         0         0         0
         0         0         0         0         0         0         0         0
         0         0         0         0         0         0         0         0
         0         0         0         0         0         0         0         0
         0         0         0         0         0         0         0         0
         0         0         0         0         0         0         0         0
         0         0         0         0         0         0         0         0
         0         0         0         0         0         0         0         0
         0         0         0         0         0         0         0         0
         0         0         0         0         0         0         0         0
         0         0         0         0         0         0         0         0
         0         0         0         0         0         0         0         0
         0         0         0         0         0         0         0         0
         0         0         0         0         0         0         0         0
         0         0         0         0         0         0         0         0
         0         0         0         0         0         0         0         0
         0         0         0         0         0         0         0         0
         0         0         0         0         0         0         0         0
         0         0         0         0         0         0         0         0
         0         0         0         0         0         0         0         0
         0         0         0         0         0         0         0         0
         0         0         0         0         0         0         0         0
         0         0         0         0         0         0         0         0
         0         0         0         0         0         0         0         0
         0         0         0         0         0         0         0         0
         0         0         0         0         0         0         0         0
         0         0         0         0         0         0         0         0
         0         0         0         0         0         0         0         0
         0         0         0         0         0         0         0         0
         0         0         0         0         0         0         0         0
         0         0         0         0         0         0         0         0
         0         0         0         0         0         0         0         0
         0         0         0         0         0         0         0         0
         0         0         0         0         0         0         0         0
         0         0         0         0         0         0         0         0
         0         0         0         0         0         0         0         0
         0         0         0         0         0         0         0         0
         0         0         0         0         0         0         0         0
         0         0         0         0         0         0         0         0
         0         0         0         0         0         0         0         0
         0         0         0         0         0         0         0         0
         0         0         0         0         0         0         0         0
         0         0         0         0         0         0         0         0
         0         0         0         0         0         0         0         0
         0         0         0         0         0         0         0         0
         0         0         0         0         0         0         0         0
         0         0         0         0         0         0         0         0
         0         0         0         0         0         0         0         0
         0         0         0         0         0         0         0         0
         0         0         0         0         0         0         0         0
         0         0         0         0         0         0         0         0
         0         0         0         0         0         0         0         0
         0         0         0         0         0         0         0         0
         0         0         0         0         0         0         0         0
         0         0         0         0         0         0         0         0
         0         0         0         0         0         0         0         0
         0         0         0         0         0         0         0         0
         0         0         0         0         0         0         0         0
         0         0         0         0         0         0         0         0
         0         0         0         0         0         0         0         0
         0         0         0         0         0         0         0         0
         0         0         0         0         0         0         0         0
         0         0         0         0         0         0         0         0
         0         0         0         0         0         0         0         0
         0         0         0         0         0         0         0         0
         0         0         0         0         0         0         0         0
         0         0         0         0         0         0         0         0
         0         0         0         0         0         0         0         0
         0         0         0         0         0         0         0         0
         0         0         0         0         0         0         0         0
         0         0         0         0         0         0         0         0
         0         0         0         0         0         0         0         0
         0         0         0         0         0         0         0         0
         0         0         0         0         0         0         0         0
         0         0         0         0         0         0         0         0
         0         0         0         0         0         0         0         0
         0         0         0         0         0         0         0         0
         0         0         0         0         0         0         0         0
         0         0         0         0         0         0         0         0
         0         0         0         0         0         0         0         0
         0         0         0         0         0         0         0         0
         0         0         0         0         0         0         0         0
         0         0         0         0         0         0         0         0
         0         0         0         0         0         0         0         0
         0         0         0         0         0         0         0         0
         0         0         0         0         0         0         0         0
         0         0         0         0         0         0         0         0
         0         0         0         0         0         0         0         0
         0         0         0         0         0         0         0         0
         0         0         0         0         0         0         0         0
         0         0         0         0         0         0         0         0
         0         0         0         0         0         0         0         0
         0         0         0         0         0         0         0         0
         0         0         0         0         0         0         0         0
         0         0         0         0         0         0         0         0
         0         0         0         0         0         0         0         0
         0         0         0         0         0         0         0         0
         0         0         0         0         0         0         0         0
         0         0         0         0         0         0         0         0
         0         0         0         0         0         0         0         0
         0         0         0         0         0         0         0         0
         0         0         0         0         0         0         0         0
         0         0         0         0         0         0         0         0
         0         0         0         0         0         0         0         0
         0         0         0         0         0         0         0         0
         0         0         0         0         0         0         0         0
         0         0         0         0         0         0         0         0
         0         0         0         0         0         0         0         0
         0         0         0         0         0         0         0         0
         0         0         0         0         0         0         0         0
         0         0         0         0         0         0         0         0
         0         0         0         0         0         0         0         0
         0         0         0         0         0         0         0         0
         0         0         0         0         0         0         0         0
         0         0         0         0         0         0         0         0
         0         0         0         0         0         0         0         0
         0         0         0         0         0         0         0         0
         0         0         0         0         0         0         0         0
         0         0         0         0         0         0         0         0
         0         0         0         0         0         0         0         0
         0         0         0         0         0         0         0         0
         0         0         0         0         0         0         0         0
         0         0         0         0         0         0         0         0
         0         0         0         0         0         0         0         0
         0         0         0         0         0         0         0         0
         0         0         0         0         0         0         0         0
         0         0         0         0         0         0         0         0
         0         0         0         0         0         0         0         0
         0         0         0         0         0         0         0         0
         0         0         0         0         0         0         0         0
         0         0         0         0         0         0         0         0
         0         0         0         0         0         0         0         0
         0         0         0         0         0         0         0         0
         0         0         0         0         0         0         0         0
         0         0         0         0         0         0         0         0
         0         0         0         0         0         0         0         0
         0         0         0         0         0         0         0         0
         0         0         0         0         0         0         0         0
         0         0         0         0         0         0         0         0
         0         0         0         0         0         0         0         0
         0         0         0         0         0         0         0         0
         0         0         0         0         0         0         0         0
         0         0         0         0         0         0         0         0
         0         0         0         0         0         0         0         0
         0         0         0         0         0         0         0         0
         0         0         0         0         0         0         0         0
         0         0         0         0         0         0         0         0
         0         0         0         0         0         0         0         0
         0         0         0         0         0         0         0         0
         0         0         0         0         0         0         0         0
         0         0         0         0         0         0         0         0
         0         0         0         0         0         0         0         0
         0         0         0         0         0         0         0         0
         0         0         0         0         0         0         0         0
         0         0         0         0         0         0         0         0
         0         0         0         0         0         0         0         0
         0         0         0         0         0         0         0         0
         0         0         0         0         0         0         0         0
         0         0         0         0         0         0         0         0
         0         0         0         0         0         0         0         0
         0         0         0         0         0         0         0         0
         0         0         0         0         0         0         0         0
         0         0         0         0         0         0         0         0
         0         0         0         0         0         0         0         0
         0         0         0         0         0         0         0         0
         0         0         0         0         0         0         0         0
         0         0         0         0         0         0         0         0
         0         0         0         0         0         0         0         0
         0         0         0         0         0         0         0         0
         0         0         0         0         0         0         0         0
         0         0         0         0         0         0         0         0
         0         0         0         0         0         0         0         0
         0         0         0         0         0         0         0         0
         0         0         0         0         0         0         0         0
         0         0         0         0         0         0         0         0
         0         0         0         0         0         0         0         0
         0         0         0         0         0         0         0         0
         0         0         0         0         0         0         0         0
         0         0         0         0         0         0         0         0
         0         0         0         0         0         0         0         0
         0         0         0         0         0         0         0         0
         0         0         0         0         0         0         0         0
         0         0         0         0         0         0         0         0
         0         0         0         0         0         0         0         0
         0         0         0         0         0         0         0         0
         0         0         0         0         0         0         0         0
         0         0         0         0         0         0         0         0
         0         0         0         0         0         0         0         0
         0         0         0         0         0         0         0         0
         0         0         0         0         0         0         0         0
         0         0         0         0         0         0         0         0
         0         0         0         0         0         0         0         0
         0         0         0         0         0         0         0         0
         0         0         0         0         0         0         0         0
         0         0         0         0         0         0         0         0
         0         0         0         0         0         0         0         0
         0         0         0         0         0         0         0         0
         0         0         0         0         0         0         0         0
         0         0         0         0         0         0         0         0
         0         0         0         0         0         0         0         0
         0         0         0         0         0         0         0         0
         0         0         0         0         0         0         0         0
         0         0         0         0         0         0         0         0
         0         0         0         0         0         0         0         0
         0         0         0         0         0         0         0         0
         0         0         0         0         0         0         0         0
         0         0         0         0         0         0         0         0
         0         0         0         0         0         0         0         0
         0         0         0         0         0         0         0         0
         0         0         0         0         0         0         0         0
         0         0         0         0         0         0         0         0
         0         0         0         0         0         0         0         0
         0         0         0         0         0         0         0         0
         0         0         0         0         0         0         0         0
         0         0         0         0         0         0         0         0
         0         0         0         0         0         0         0         0
         0         0         0         0         0         0         0         0
         0         0         0         0         0         0         0         0
         0         0         0         0         0         0         0         0
         0         0         0         0         0         0         0         0
         0         0         0         0         0         0         0         0
         0         0         0         0         0         0         0         0
         0         0         0         0         0         0         0         0
         0         0         0         0         0         0         0         0
         0         0         0         0         0         0         0         0
         0         0         0         0         0         0         0         0
         0         0         0         0         0         0         0         0
         0         0         0         0         0         0         0         0
         0         0         0         0         0         0         0         0
         0         0         0         0         0         0         0         0
         0         0         0         0         0         0         0         0
         0         0         0         0         0         0         0         0
         0         0         0         0         0         0         0         0
         0         0         0         0         0         0         0         0
         0         0         0         0         0         0         0         0
         0         0         0         0         0         0         0         0
         0         0         0         0         0         0         0         0
         0         0         0         0         0         0         0         0
         0         0         0         0         0         0         0         0
         0         0         0         0         0         0         0         0
         0         0         0         0         0         0         0         0
         0         0         0         0         0         0         0         0
         0         0         0         0         0         0         0         0
         0         0         0         0         0         0         0         0
         0         0         0         0         0         0         0         0
         0         0         0         0         0         0         0         0
         0         0         0         0         0         0         0         0
         0         0         0         0         0         0         0         0
         0         0         0         0         0         0         0         0
         0         0         0         0         0         0         0         0
         0         0         0         0         0         0         0         0
         0         0         0         0         0         0         0         0
         0         0         0         0         0         0         0         0
         0         0         0         0         0         0         0         0
         0         0         0         0         0         0         0         0
         0         0         0         0         0         0         0         0
         0         0         0         0         0         0         0         0
         0         0         0         0         0         0         0         0
         0         0         0         0         0         0         0         0
         0         0         0         0         0         0         0         0
         0         0         0         0         0         0         0         0
         0         0         0         0         0         0         0         0
         0         0         0         0         0         0         0         0
         0         0         0         0         0         0         0         0
         0         0         0         0         0         0         0         0
         0         0         0         0         0         0         0         0
         0         0         0         0         0         0         0         0
         0         0         0         0         0         0         0         0
         0         0         0         0         0         0         0         0
         0         0         0         0         0         0         0         0
         0         0         0         0         0         0         0         0
         0         0         0         0         0         0         0         0
         0         0         0         0         0         0         0         0
         0         0         0         0         0         0         0         0
         0         0         0         0         0         0         0         0
         0         0         0         0         0         0         0         0
         0         0         0         0         0         0         0         0
         0         0         0         0         0         0         0         0
         0         0         0         0         0         0         0         0
         0         0         0         0         0         0         0         0
         0         0         0         0         0         0         0         0
         0         0         0         0         0         0         0         0
         0         0         0         0         0         0         0         0
         0         0         0         0         0         0         0         0
         0         0         0         0         0         0         0         0
         0         0         0         0         0         0         0         0
         0         0         0         0         0         0         0         0
         0         0         0         0         0         0         0         0
         0         0         0         0         0         0         0         0
         0         0         0         0         0         0         0         0
         0         0         0         0         0         0         0         0
         0         0         0         0         0         0         0         0
         0         0         0         0         0         0         0         0
         0         0         0         0         0         0         0         0
         0         0         0         0         0         0         0         0
         0         0         0         0         0         0         0         0
         0         0         0         0         0         0         0         0
         0         0         0         0         0         0         0         0
         0         0         0         0         0         0         0         0
         0         0         0         0         0         0         0         0
         0         0         0         0         0         0         0         0
         0         0         0         0         0         0         0         0
         0         0         0         0         0         0         0         0
         0         0         0         0         0         0         0         0
         0         0         0         0         0         0         0         0
         0         0         0         0         0         0         0         0
         0         0         0         0         0         0         0         0
         0         0         0         0         0         0         0         0
         0         0         0         0         0         0         0         0
         0         0         0         0         0         0         0         0
         0         0         0         0         0         0         0         0
         0         0         0         0         0         0         0         0
         0         0         0         0         0         0         0         0
         0         0         0         0         0         0         0         0
         0         0         0         0         0         0         0         0
         0         0         0         0         0         0         0         0
         0         0         0         0         0         0         0         0
         0         0         0         0         0         0         0         0
         0         0         0         0         0         0         0         0
         0         0         0         0         0         0         0         0
         0         0         0         0         0         0         0         0
         0         0         0         0         0         0         0         0
         0         0         0         0         0         0         0         0
         0         0         0         0         0         0         0         0
         0         0         0         0         0         0         0         0
         0         0         0         0         0         0         0         0
         0         0         0         0         0         0         0         0
         0         0         0         0         0         0         0         0
         0         0         0         0         0         0         0         0
         0         0         0         0         0         0         0         0
         0         0         0         0         0         0         0         0
         0         0         0         0         0         0         0         0
         0         0         0         0         0         0         0         0
         0         0         0         0         0         0         0         0
         0         0         0         0         0         0         0         0
         0         0         0         0         0         0         0         0
         0         0         0         0         0         0         0         0
         0         0         0         0         0         0         0         0
         0         0         0         0         0         0         0         0
         0         0         0         0         0         0         0         0
         0         0         0         0         0         0         0         0
         0         0         0         0         0         0         0         0
         0         0         0         0         0         0         0         0
         0         0         0         0         0         0         0         0
         0         0         0         0         0         0         0         0
         0         0         0         0         0         0         0         0
         0         0         0         0         0         0         0         0
         0         0         0         0         0         0         0         0
         0         0         0         0         0         0         0         0
         0         0         0         0         0         0         0         0
         0         0         0         0         0         0         0         0
         0         0         0         0         0         0         0         0
         0         0         0         0         0         0         0         0
         0         0         0         0         0         0         0         0
         0         0         0         0         0         0         0         0
         0         0         0         0         0         0         0         0
         0         0         0         0         0         0         0         0
         0         0         0         0         0         0         0         0
         0         0         0         0         0         0         0         0
         0         0         0         0         0         0         0         0
         0         0         0         0         0         0         0         0
         0         0         0         0         0         0         0         0
         0         0         0         0         0         0         0         0
         0         0         0         0         0         0         0         0
         0         0         0         0         0         0         0         0
         0         0         0         0         0         0         0         0
         0         0         0         0         0         0         0         0
         0         0         0         0         0         0         0         0
         0         0         0         0         0         0         0         0
         0         0         0         0         0         0         0         0
         0         0         0         0         0         0         0         0
         0         0         0         0         0         0         0         0
         0         0         0         0         0         0         0         0
         0         0         0         0         0         0         0         0
         0         0         0         0         0         0         0         0
         0         0         0         0         0         0         0         0
         0         0         0         0         0         0         0         0
         0         0         0         0         0         0         0         0
         0         0         0         0         0         0         0         0
         0         0         0         0         0         0         0         0
         0         0         0         0         0         0         0         0
         0         0         0         0         0         0         0         0
         0         0         0         0         0         0         0         0
         0         0         0         0         0         0         0         0
         0         0         0         0         0         0         0         0
         0         0         0         0         0         0         0         0
         0         0         0         0         0         0         0         0
         0         0         0         0         0         0         0         0
         0         0         0         0         0         0         0         0
         0         0         0         0         0         0         0         0
         0         0         0         0         0         0         0         0
         0         0         0         0         0         0         0         0
         0         0         0         0         0         0         0         0
         0         0         0         0         0         0         0         0
         0         0         0         0         0         0         0         0
         0         0         0         0         0         0         0         0
         0         0         0         0         0         0         0         0
         0         0         0         0         0         0         0         0
         0         0         0         0         0         0         0         0
         0         0         0         0         0         0         0         0
         0         0         0         0         0         0         0         0
         0         0         0         0         0         0         0         0
         0         0         0         0         0         0         0         0
         0         0         0         0         0         0         0         0
         0         0         0         0         0         0         0         0
         0         0         0         0         0         0         0         0
         0         0         0         0         0         0         0         0
         0         0         0         0         0         0         0         0
         0         0         0         0         0         0         0         0
         0         0         0         0         0         0         0         0
         0         0         0         0         0         0         0         0
         0         0         0         0         0         0         0         0
         0         0         0         0         0         0         0         0
         0         0         0         0         0         0         0         0
         0         0         0         0         0         0         0         0
         0         0         0         0         0         0         0         0
         0         0         0         0         0         0         0         0
         0         0         0         0         0         0         0         0
         0         0         0         0         0         0         0         0
         0         0         0         0         0         0         0         0
         0         0         0         0         0         0         0         0
         0         0         0         0         0         0         0         0
         0         0         0         0         0         0         0         0
         0         0         0         0         0         0         0         0
         0         0         0         0         0         0         0         0
         0         0         0         0         0         0         0         0
         0         0         0         0         0         0         0         0
         0         0         0         0         0         0         0         0
         0         0         0         0         0         0         0         0
         0         0         0         0         0         0         0         0
         0         0         0         0         0         0         0         0
         0         0         0         0         0         0         0         0
         0         0         0         0         0         0         0         0
         0         0         0         0         0         0         0         0
         0         0         0         0         0         0         0         0
         0         0         0         0         0         0         0         0
         0         0         0         0         0         0         0         0
         0         0         0         0         0         0         0         0
         0         0         0         0         0         0         0         0
         0         0         0         0         0         0         0         0
         0         0         0         0         0         0         0         0
         0         0         0         0         0         0         0         0
         0         0         0         0         0         0         0         0
         0         0         0         0         0         0         0         0
         0         0         0         0         0         0         0         0
         0         0         0         0         0         0         0         0
         0         0         0         0         0         0         0         0
         0         0         0         0         0         0         0         0
         0         0         0         0         0         0         0         0
         0         0         0         0         0         0         0         0
         0         0         0         0         0         0         0         0
         0         0         0         0         0         0         0         0
         0         0         0         0         0         0         0         0
         0         0         0         0         0         0         0         0
         0         0         0         0         0         0         0         0
         0         0         0         0         0         0         0         0
         0         0         0         0         0         0         0         0
         0         0         0         0         0         0         0         0
         0         0         0         0         0         0         0         0
         0         0         0         0         0         0         0         0
         0         0         0         0         0         0         0         0
         0         0         0         0         0         0         0         0
         0         0         0         0         0         0         0         0
         0         0         0         0         0         0         0         0
         0         0         0         0         0         0         0         0
         0         0         0         0         0         0         0         0
         0         0         0         0         0         0         0         0
         0         0         0         0         0         0         0         0
         0         0         0         0         0         0         0         0
         0         0         0         0         0         0         0         0
         0         0         0         0         0         0         0         0
         0         0         0         0         0         0         0         0
         0         0         0         0         0         0         0         0
         0         0         0         0         0         0         0         0
         0         0         0         0         0         0         0         0
         0         0         0         0         0         0         0         0
         0         0         0         0         0         0         0         0
         0         0         0         0         0         0         0         0
         0         0         0         0         0         0         0         0
         0         0         0         0         0         0         0         0
         0         0         0         0         0         0         0         0
         0         0         0         0         0         0         0         0
         0         0         0         0         0         0         0         0
         0         0         0         0         0         0         0         0
         0         0         0         0         0         0         0         0
         0         0         0         0         0         0         0         0
         0         0         0         0         0         0         0         0
         0         0         0         0         0         0         0         0
         0         0         0         0         0         0         0         0
         0         0         0         0         0         0         0         0
         0         0         0         0         0         0         0         0
         0         0         0         0         0         0         0         0
         0         0         0         0         0         0         0         0
         0         0         0         0         0         0         0         0
         0         0         0         0         0         0         0         0
         0         0         0         0         0         0         0         0
         0         0         0         0         0         0         0         0
         0         0         0         0         0         0         0         0
         0         0         0         0         0         0         0         0
         0         0         0         0         0         0         0         0
         0         0         0         0         0         0         0         0
         0         0         0         0         0         0         0         0
         0         0         0         0         0         0         0         0
         0         0         0         0         0         0         0         0
         0         0         0         0         0         0         0         0
         0         0         0         0         0         0         0         0
         0         0         0         0         0         0         0         0
         0         0         0         0         0         0         0         0
         0         0         0         0         0         0         0         0
         0         0         0         0         0         0         0         0
         0         0         0         0         0         0         0         0
         0         0         0         0         0         0         0         0
         0         0         0         0         0         0         0         0
         0         0         0         0         0         0         0         0
         0         0         0         0         0         0         0         0
         0         0         0         0         0         0         0         0
         0         0         0         0         0         0         0         0
         0         0         0         0         0         0         0         0
         0         0         0         0         0         0         0         0
         0         0         0         0         0         0         0         0
         0         0         0         0         0         0         0         0
         0         0         0         0         0         0         0         0
         0         0         0         0         0         0         0         0
         0         0         0         0         0         0         0         0
         0         0         0         0         0         0         0         0
         0         0         0         0         0         0         0         0
         0         0         0         0         0         0         0         0
         0         0         0         0         0         0         0         0
         0         0         0         0         0         0         0         0
         0         0         0         0         0         0         0         0
         0         0         0         0         0         0         0         0
         0         0         0         0         0         0         0         0
         0         0         0         0         0         0         0         0
         0         0         0         0         0         0         0         0
         0         0         0         0         0         0         0         0
         0         0         0         0         0         0         0         0
         0         0         0         0         0         0         0         0
         0         0         0         0         0         0         0         0
         0         0         0         0         0         0         0         0
         0         0         0         0         0         0         0         0
         0         0         0         0         0         0         0         0
         0         0         0         0         0         0         0         0
         0         0         0         0         0         0         0         0
         0         0         0         0         0         0         0         0
         0         0         0         0         0         0         0         0
         0         0         0         0         0         0         0         0
         0         0         0         0         0         0         0         0
         0         0         0         0         0         0         0         0
         0         0         0         0         0         0         0         0
         0         0         0         0         0         0         0         0
         0         0         0         0         0         0         0         0
         0         0         0         0         0         0         0         0
         0         0         0         0         0         0         0         0
         0         0         0         0         0         0         0         0
         0         0         0         0         0         0         0         0
         0         0         0         0         0         0         0         0
         0         0         0         0         0         0         0         0
         0         0         0         0         0         0         0         0
         0         0         0         0         0         0         0         0
         0         0         0         0         0         0         0         0
         0         0         0         0         0         0         0         0
         0         0         0         0         0         0         0         0
         0         0         0         0         0         0         0         0
         0         0         0         0         0         0         0         0
         0         0         0         0         0         0         0         0
         0         0         0         0         0         0         0         0
         0         0         0         0         0         0         0         0
         0         0         0         0         0         0         0         0
         0         0         0         0         0         0         0         0
         0         0         0         0         0         0         0         0
         0         0         0         0         0         0         0         0
         0         0         0         0         0         0         0         0
         0         0         0         0         0         0         0         0
         0         0         0         0         0         0         0         0
         0         0         0         0         0         0         0         0
         0         0         0         0         0         0         0         0
         0         0         0         0         0         0         0         0
         0         0         0         0         0         0         0         0
         0         0         0         0         0         0         0         0
         0         0         0         0         0         0         0         0
         0         0         0         0         0         0         0         0
         0         0         0         0         0         0         0         0
         0         0         0         0         0         0         0         0
         0         0         0         0         0         0         0         0
         0         0         0         0         0         0         0         0
         0         0         0         0         0         0         0         0
         0         0         0         0         0         0         0         0
         0         0         0         0         0         0         0         0
         0         0         0         0         0         0         0         0
         0         0         0         0         0         0         0         0
         0         0         0         0         0         0         0         0
         0         0         0         0         0         0         0         0
         0         0         0         0         0         0         0         0
         0         0         0         0         0         0         0         0
         0         0         0         0         0         0         0         0
         0         0         0         0         0         0         0         0
         0         0         0         0         0         0         0         0
         0         0         0         0         0         0         0         0
         0         0         0         0         0         0         0         0
         0         0         0         0         0         0         0         0
         0         0         0         0         0         0         0         0
         0         0         0         0         0         0         0         0
         0         0         0         0         0         0         0         0
         0         0         0         0         0         0         0         0
         0         0         0         0         0         0         0         0
         0         0         0         0         0         0         0         0
         0         0         0         0         0         0         0         0
         0         0         0         0         0         0         0         0
         0         0         0         0         0         0         0         0
         0         0         0         0         0         0         0         0
         0         0         0         0         0         0         0         0
         0         0         0         0         0         0         0         0
         0         0         0         0         0         0         0         0
         0         0         0         0         0         0         0         0
         0         0         0         0         0         0         0         0
         0         0         0         0         0         0         0         0
         0         0         0         0         0         0         0         0
         0         0         0         0         0         0         0         0
         0         0         0         0         0         0         0         0
         0         0         0         0         0         0         0         0
         0         0         0         0         0         0         0         0
         0         0         0         0         0         0         0         0
         0         0         0         0         0         0         0         0
         0         0         0         0         0         0         0         0
         0         0         0         0         0         0         0         0
         0         0         0         0         0         0         0         0
         0         0         0         0         0         0         0         0
         0         0         0         0         0         0         0         0
         0         0         0         0         0         0         0         0
         0         0         0         0         0         0         0         0
         0         0         0         0         0         0         0         0
         0         0         0         0         0         0         0         0
         0         0         0         0         0         0         0         0
         0         0         0         0         0         0         0         0
         0         0         0         0         0         0         0         0
         0         0         0         0         0         0         0         0
         0         0         0         0         0         0         0         0
         0         0         0         0         0         0         0         0
         0         0         0         0         0         0         0         0
         0         0         0         0         0         0         0         0
         0         0         0         0         0         0         0         0
         0         0         0         0         0         0         0         0
         0         0         0         0         0         0         0         0
         0         0         0         0         0         0         0         0
         0         0         0         0         0         0         0         0
         0         0         0         0         0         0         0         0
         0         0         0         0         0         0         0         0
         0         0         0         0         0         0         0         0
         0         0         0         0         0         0         0         0
         0         0         0         0         0         0         0         0
         0         0         0         0         0         0         0         0
         0         0         0         0         0         0         0         0
         0         0         0         0         0         0         0         0
         0         0         0         0         0         0         0         0
         0         0         0         0         0         0         0         0
         0         0         0         0         0         0         0         0
         0         0         0         0         0         0         0         0
         0         0         0         0         0         0         0         0
         0         0         0         0         0         0         0         0
         0         0         0         0         0         0         0         0
         0         0         0         0         0         0         0         0
         0         0         0         0         0         0         0         0
         0         0         0         0         0         0         0         0
         0         0         0         0         0         0         0         0
         0         0         0         0         0         0         0         0
         0         0         0         0         0         0         0         0
         0         0         0         0         0         0         0         0
         0         0         0         0         0         0         0         0
         0         0         0         0         0         0         0         0
         0         0         0         0         0         0         0         0
         0         0         0         0         0         0         0         0
         0         0         0         0         0         0         0         0
         0         0         0         0         0         0         0         0
         0         0         0         0         0         0         0         0
         0         0         0         0         0         0         0         0
         0         0         0         0         0         0         0         0
         0         0         0         0         0         0         0         0
         0         0         0         0         0         0         0         0
         0         0         0         0         0         0         0         0
         0         0         0         0         0         0         0         0
         0         0         0         0         0         0         0         0
         0         0         0         0         0         0         0         0
         0         0         0         0         0         0         0         0
         0         0         0         0         0         0         0         0
         0         0         0         0         0         0         0         0
         0         0         0         0         0         0         0         0
         0         0         0         0         0         0         0         0
         0         0         0         0         0         0         0         0
         0         0         0         0         0         0         0         0
         0         0         0         0         0         0         0         0
         0         0         0         0         0         0         0         0
         0         0         0         0         0         0         0         0
         0         0         0         0         0         0         0         0
         0         0         0         0         0         0         0         0
         0         0         0         0         0         0         0         0
         0         0         0         0         0         0         0         0
         0         0         0         0         0         0         0         0
         0         0         0         0         0         0         0         0
         0         0         0         0         0         0         0         0
         0         0         0         0         0         0         0         0
         0         0         0         0         0         0         0         0
         0         0         0         0         0         0         0         0
         0         0         0         0         0         0         0         0
         0         0         0         0         0         0         0         0
         0         0         0         0         0         0         0         0
         0         0         0         0         0         0         0         0
         0         0         0         0         0         0         0         0
         0         0         0         0         0         0         0         0
         0         0         0         0         0         0         0         0
         0         0         0         0         0         0         0         0
         0         0         0         0         0         0         0         0
         0         0         0         0         0         0         0         0
         0         0         0         0         0         0         0         0
         0         0         0         0         0         0         0         0
         0         0         0         0         0         0         0         0
         0         0         0         0         0         0         0         0
         0         0         0         0         0         0         0         0
         0         0         0         0         0         0         0         0
         0         0         0         0         0         0         0         0
         0         0         0         0         0         0         0         0
         0         0         0         0         0         0         0         0
         0         0         0         0         0         0         0         0
         0         0         0         0         0         0         0         0
         0         0         0         0         0         0         0         0
         0         0         0         0         0         0         0         0
         0         0         0         0         0         0         0         0
         0         0         0         0         0         0         0         0
         0         0         0         0         0         0         0         0
         0         0         0         0         0         0         0         0
         0         0         0         0         0         0         0         0
         0         0         0         0         0         0         0         0
         0         0         0         0         0         0         0         0
         0         0         0         0         0         0         0         0
         0         0         0         0         0         0         0         0
         0         0         0         0         0         0         0         0
         0         0         0         0         0         0         0         0
         0         0         0         0         0         0         0         0
         0         0         0         0         0         0         0         0
         0         0         0         0         0         0         0         0
         0         0         0         0         0         0         0         0
         0         0         0         0         0         0         0         0
         0         0         0         0         0         0         0         0
         0         0         0         0         0         0         0         0
         0         0         0         0         0         0         0         0
         0         0         0         0         0         0         0         0
         0         0         0         0         0         0         0         0
         0         0         0         0         0         0         0         0
         0         0         0         0         0         0         0         0
         0         0         0         0         0         0         0         0
         0         0         0         0         0         0         0         0
         0         0         0         0         0         0         0         0
         0         0         0         0         0         0         0         0
         0         0         0         0         0         0         0         0
         0         0         0         0         0         0         0         0
         0         0         0         0         0         0         0         0
         0         0         0         0         0         0         0         0
         0         0         0         0         0         0         0         0
         0         0         0         0         0         0         0         0
         0         0         0         0         0         0         0         0
         0         0         0         0         0         0         0         0
         0         0         0         0         0         0         0         0
         0         0         0         0         0         0         0         0
         0         0         0         0         0         0         0         0
         0         0         0         0         0         0         0         0
         0         0         0         0         0         0         0         0
         0         0         0         0         0         0         0         0
         0         0         0         0         0         0         0         0
         0         0         0         0         0         0         0         0
         0         0         0         0         0         0         0         0
         0         0         0         0         0         0         0         0
         0         0         0         0         0         0         0         0
         0         0         0         0         0         0         0         0
         0         0         0         0         0         0         0         0
         0         0         0         0         0         0         0         0
         0         0         0         0         0         0         0         0
         0         0         0         0         0         0         0         0
         0         0         0         0         0         0         0         0
         0         0         0         0         0         0         0         0
         0         0         0         0         0         0         0         0
         0         0         0         0         0         0         0         0
         0         0         0         0         0         0         0         0
         0         0         0         0         0         0         0         0
         0         0         0         0         0         0         0         0
         0         0         0         0         0         0         0         0
         0         0         0         0         0         0         0         0
         0         0         0         0         0         0         0         0
         0         0         0         0         0         0         0         0
         0         0         0         0         0         0         0         0
         0         0         0         0         0         0         0         0
         0         0         0         0         0         0         0         0
         0         0         0         0         0         0         0         0
         0         0         0         0         0         0         0         0
         0         0         0         0         0         0         0         0
         0         0         0         0         0         0         0         0
         0         0         0         0         0         0         0         0
         0         0         0         0         0         0         0         0
         0         0         0         0         0         0         0         0
         0         0         0         0         0         0         0         0
         0         0         0         0         0         0         0         0
         0         0         0         0         0         0         0         0
         0         0         0         0         0         0         0         0
         0         0         0         0         0         0         0         0
         0         0         0         0         0         0         0         0
         0         0         0         0         0         0         0         0
         0         0         0         0         0         0         0         0
         0         0         0         0         0         0         0         0
         0         0         0         0         0         0         0         0
         0         0         0         0         0         0         0         0
         0         0         0         0         0         0         0         0
         0         0         0         0         0         0         0         0
         0         0         0         0         0         0         0         0
         0         0         0         0         0         0         0         0
         0         0         0         0         0         0         0         0
         0         0         0         0         0         0         0         0
         0         0         0         0         0         0         0         0
         0         0         0         0         0         0         0         0
         0         0         0         0         0         0         0         0
         0         0         0         0         0         0         0         0
         0         0         0         0         0         0         0         0
         0         0         0         0         0         0         0         0
         0         0         0         0         0         0         0         0
         0         0         0         0         0         0         0         0
         0         0         0         0         0         0         0         0
         0         0         0         0         0         0         0         0
         0         0         0         0         0         0         0         0
         0         0         0         0         0         0         0         0
         0         0         0         0         0         0         0         0
         0         0         0         0         0         0         0         0
         0         0         0         0         0         0         0         0
         0         0         0         0         0         0         0         0
         0         0         0         0         0         0         0         0
         0         0         0         0         0         0         0         0
         0         0         0         0         0         0         0         0
         0         0         0         0         0         0         0         0
         0         0         0         0         0         0         0         0
         0         0         0         0         0         0         0         0
         0         0         0         0         0         0         0         0
         0         0         0         0         0         0         0         0
         0         0         0         0         0         0         0         0
         0         0         0         0         0         0         0         0
         0         0         0         0         0         0         0         0
         0         0         0         0         0         0         0         0
         0         0         0         0         0         0         0         0
         0         0         0         0         0         0         0         0
         0         0         0         0         0         0         0         0
         0         0         0         0         0         0         0         0
         0         0         0         0         0         0         0         0
         0         0         0         0         0         0         0         0
         0         0         0         0         0         0         0         0
         0         0         0         0         0         0         0         0
         0         0         0         0         0         0         0         0
         0         0         0         0         0         0         0         0
         0         0         0         0         0         0         0         0
         0         0         0         0         0         0         0         0
         0         0         0         0         0         0         0         0
         0         0         0         0         0         0         0         0
         0         0         0         0         0         0         0         0
         0         0         0         0         0         0         0         0
         0         0         0         0         0         0         0         0
         0         0         0         0         0         0         0         0
         0         0         0         0         0         0         0         0
         0         0         0         0         0         0         0         0
         0         0         0         0         0         0         0         0
         0         0         0         0         0         0         0         0
         0         0         0         0         0         0         0         0
         0         0         0         0         0         0         0         0
         0         0         0         0         0         0         0         0
         0         0         0         0         0         0         0         0
         0         0         0         0         0         0         0         0
         0         0         0         0         0         0         0         0
         0         0         0         0         0         0         0         0
         0         0         0         0         0         0         0         0
         0         0         0         0         0         0         0         0
         0         0         0         0         0         0         0         0
         0         0         0         0         0         0         0         0
         0         0         0         0         0         0         0         0
         0         0         0         0         0         0         0         0
         0         0         0         0         0         0         0         0
         0         0         0         0         0         0         0         0
         0         0         0         0         0         0         0         0
         0         0         0         0         0         0         0         0
         0         0         0         0         0         0         0         0
         0         0         0         0         0         0         0         0
         0         0         0         0         0         0         0         0
         0         0         0         0         0         0         0         0
         0         0         0         0         0         0         0         0
         0         0         0         0         0         0         0         0
         0         0         0         0         0         0         0         0
         0         0         0         0         0         0         0         0
         0         0         0         0         0         0         0         0
         0         0         0         0         0         0         0         0
         0         0         0         0         0         0         0         0
         0         0         0         0         0         0         0         0
         0         0         0         0         0         0         0         0
         0         0         0         0         0         0         0         0
         0         0         0         0         0         0         0         0
         0         0         0         0         0         0         0         0
         0         0         0         0         0         0         0         0
         0         0         0         0         0         0         0         0
         0         0         0         0         0         0         0         0
         0         0         0         0         0         0         0         0
         0         0         0         0         0         0         0         0
         0         0         0         0         0         0         0         0
         0         0         0         0         0         0         0         0
         0         0         0         0         0         0         0         0
         0         0         0         0         0         0         0         0
         0         0         0         0         0         0         0         0
         0         0         0         0         0         0         0         0
         0         0         0         0         0         0         0         0
         0         0         0         0         0         0         0         0
         0         0         0         0         0         0         0         0
         0         0         0         0         0         0         0         0
         0         0         0         0         0         0         0         0
         0         0         0         0         0         0         0         0
         0         0         0         0         0         0         0         0
         0         0         0         0         0         0         0         0
         0         0         0         0         0         0         0         0
         0         0         0         0         0         0         0         0
         0         0         0         0         0         0         0         0
         0         0         0         0         0         0         0         0
         0         0         0         0         0         0         0         0
         0         0         0         0         0         0         0         0
         0         0         0         0         0         0         0         0
         0         0         0         0         0         0         0         0
         0         0         0         0         0         0         0         0
         0         0         0         0         0         0         0         0
         0         0         0         0         0         0         0         0
         0         0         0         0         0         0         0         0
         0         0         0         0         0         0         0         0
         0         0         0         0         0         0         0         0
         0         0         0         0         0         0         0         0
         0         0         0         0         0         0         0         0
         0         0         0         0         0         0         0         0
         0         0         0         0         0         0         0         0
         0         0         0         0         0         0         0         0
         0         0         0         0         0         0         0         0
         0         0         0         0         0         0         0         0
         0         0         0         0         0         0         0         0
         0         0         0         0         0         0         0         0
         0         0         0         0         0         0         0         0
         0         0         0         0         0         0         0         0
         0         0         0         0         0         0         0         0
         0         0         0         0         0         0         0         0
         0         0         0         0         0         0         0         0
         0         0         0         0         0         0         0         0
         0         0         0         0         0         0         0         0
         0         0         0         0         0         0         0         0
         0         0         0         0         0         0         0         0
         0         0         0         0         0         0         0         0
         0         0         0         0         0         0         0         0
         0         0         0         0         0         0         0         0
         0         0         0         0         0         0         0         0
         0         0         0         0         0         0         0         0
         0         0         0         0         0         0         0         0
         0         0         0         0         0         0         0         0
         0         0         0         0         0         0         0         0
         0         0         0         0         0         0         0         0
         0         0         0         0         0         0         0         0
         0         0         0         0         0         0         0         0
         0         0         0         0         0         0         0         0
         0         0         0         0         0         0         0         0
         0         0         0         0         0         0         0         0
         0         0         0         0         0         0         0         0
         0         0         0         0         0         0         0         0
         0         0         0         0         0         0         0         0
         0         0         0         0         0         0         0         0
         0         0         0         0         0         0         0         0
         0         0         0         0         0         0         0         0
         0         0         0         0         0         0         0         0
         0         0         0         0         0         0         0         0
         0         0         0         0         0         0         0         0
         0         0         0         0         0         0         0         0
         0         0         0         0         0         0         0         0
         0         0         0         0         0         0         0         0
         0         0         0         0         0         0         0         0
         0         0         0         0         0         0         0         0
         0         0         0         0         0         0         0         0
         0         0         0         0         0         0         0         0
         0         0         0         0         0         0         0         0
         0         0         0         0         0         0         0         0
         0         0         0         0         0         0         0         0
         0         0         0         0         0         0         0         0
         0         0         0         0         0         0         0         0
         0         0         0         0         0         0         0         0
         0         0         0         0         0         0         0         0
         0         0         0         0         0         0         0         0
         0         0         0         0         0         0         0         0
         0         0         0         0         0         0         0         0
         0         0         0         0         0         0         0         0
         0         0         0         0         0         0         0         0
         0         0         0         0         0         0         0         0
         0         0         0         0         0         0         0         0
         0         0         0         0         0         0         0         0
         0         0         0         0         0         0         0         0
         0         0         0         0         0         0         0         0
         0         0         0         0         0         0         0         0
         0         0         0         0         0         0         0         0
         0         0         0         0         0         0         0         0
         0         0         0         0         0         0         0         0
         0         0         0         0         0         0         0         0
         0         0         0         0         0         0         0         0
         0         0         0         0         0         0         0         0
         0         0         0         0         0         0         0         0
         0         0         0         0         0         0         0         0
         0         0         0         0         0         0         0         0
         0         0         0         0         0         0         0         0
         0         0         0         0         0         0         0         0
         0         0         0         0         0         0         0         0
         0         0         0         0         0         0         0         0
         0         0         0         0         0         0         0         0
         0         0         0         0         0         0         0         0
         0         0         0         0         0         0         0         0
         0         0         0         0         0         0         0         0
         0         0         0         0         0         0         0         0
         0         0         0         0         0         0         0         0
         0         0         0         0         0         0         0         0
         0         0         0         0         0         0         0         0
         0         0         0         0         0         0         0         0
         0         0         0         0         0         0         0         0
         0         0         0         0         0         0         0         0
         0         0         0         0         0         0         0         0
         0         0         0         0         0         0         0         0
         0         0         0         0         0         0         0         0
         0         0         0         0         0         0         0         0
         0         0         0         0         0         0         0         0
         0         0         0         0         0         0         0         0
         0         0         0         0         0         0         0         0
         0         0         0         0         0         0         0         0
         0         0         0         0         0         0         0         0
         0         0         0         0         0         0         0         0
         0         0         0         0         0         0         0         0
         0         0         0         0         0         0         0         0
         0         0         0         0         0         0         0         0
         0         0         0         0         0         0         0         0
         0         0         0         0         0         0         0         0
         0         0         0         0         0         0         0         0
         0         0         0         0         0         0         0         0
         0         0         0         0         0         0         0         0
         0         0         0         0         0         0         0         0
         0         0         0         0         0         0         0         0
         0         0         0         0         0         0         0         0
         0         0         0         0         0         0         0         0
         0         0         0         0         0         0         0         0
         0         0         0         0         0         0         0         0
         0         0         0         0         0         0         0         0
         0         0         0         0         0         0         0         0
         0         0         0         0         0         0         0         0
         0         0         0         0         0         0         0         0
         0         0         0         0         0         0         0         0
         0         0         0         0         0         0         0         0
         0         0         0         0         0         0         0         0
         0         0         0         0         0         0         0         0
         0         0         0         0         0         0         0         0
         0         0         0         0         0         0         0         0
         0         0         0         0         0         0         0         0
         0         0         0         0         0         0         0         0
         0         0         0         0         0         0         0         0
         0         0         0         0         0         0         0         0
         0         0         0         0         0         0         0         0
         0         0         0         0         0         0         0         0
         0         0         0         0         0         0         0         0
         0         0         0         0         0         0         0         0
         0         0         0         0         0         0         0         0
         0         0         0         0         0         0         0         0
         0         0         0         0         0         0         0         0
         0         0         0         0         0         0         0         0
         0         0         0         0         0         0         0         0
         0         0         0         0         0         0         0         0
         0         0         0         0         0         0         0         0
         0         0         0         0         0         0         0         0
         0         0         0         0         0         0         0         0
         0         0         0         0         0         0         0         0
         0         0         0         0         0         0         0         0
         0         0         0         0         0         0         0         0
         0         0         0         0         0         0         0         0
         0         0         0         0         0         0         0         0
         0         0         0         0         0         0         0         0
         0         0         0         0         0         0         0         0
         0         0         0         0         0         0         0         0
         0         0         0         0         0         0         0         0
         0         0         0         0         0         0         0         0
         0         0         0         0         0         0         0         0
         0         0         0         0         0         0         0         0
         0         0         0         0         0         0         0         0
         0         0         0         0         0         0         0         0
         0         0         0         0         0         0         0         0
         0         0         0         0         0         0         0         0
         0         0         0         0         0         0         0         0
         0         0         0         0         0         0         0         0
         0         0         0         0         0         0         0         0
         0         0         0         0         0         0         0         0
         0         0         0         0         0         0         0         0
         0         0         0         0         0         0         0         0
         0         0         0         0         0         0         0         0
         0         0         0         0         0         0         0         0
         0         0         0         0         0         0         0         0
         0         0         0         0         0         0         0         0
         0         0         0         0         0         0         0         0
         0         0         0         0         0         0         0         0
         0         0         0         0         0         0         0         0
         0         0         0         0         0         0         0         0
         0         0         0         0         0         0         0         0
         0         0         0         0         0         0         0         0
         0         0         0         0         0         0         0         0
         0         0         0         0         0         0         0         0
         0         0         0         0         0         0         0         0
         0         0         0         0         0         0         0         0
         0         0         0         0         0         0         0         0
         0         0         0         0         0         0         0         0
         0         0         0         0         0         0         0         0
         0         0         0         0         0         0         0         0
         0         0         0         0         0         0         0         0
         0         0         0         0         0         0         0         0
         0         0         0         0         0         0         0         0
         0         0         0         0         0         0         0         0
         0         0         0         0         0         0         0         0
         0         0         0         0         0         0         0         0
         0         0         0         0         0         0         0         0
         0         0         0         0         0         0         0         0
         0         0         0         0         0         0         0         0
         0         0         0         0         0         0         0         0
         0         0         0         0         0         0         0         0
         0         0         0         0         0         0         0         0
         0         0         0         0         0         0         0         0
         0         0         0         0         0         0         0         0
         0         0         0         0         0         0         0         0
         0         0         0         0         0         0         0         0
         0         0         0         0         0         0         0         0
         0         0         0         0         0         0         0         0
         0         0         0         0         0         0         0         0
         0         0         0         0         0         0         0         0
         0         0         0         0         0         0         0         0
         0         0         0         0         0         0         0         0
         0         0         0         0         0         0         0         0
         0         0         0         0         0         0         0         0
         0         0         0         0         0         0         0         0
         0         0         0         0         0         0         0         0
         0         0         0         0         0         0         0         0
         0         0         0         0         0         0         0         0
         0         0         0         0         0         0         0         0
         0         0         0         0         0         0         0         0
         0         0         0         0         0         0         0         0
         0         0         0         0         0         0         0         0
         0         0         0         0         0         0         0         0
         0         0         0         0         0         0         0         0
         0         0         0         0         0         0         0         0
         0         0         0         0         0         0         0         0
         0         0         0         0         0         0         0         0
         0         0         0         0         0         0         0         0
         0         0         0         0         0         0         0         0
         0         0         0         0         0         0         0         0
         0         0         0         0         0         0         0         0
         0         0         0         0         0         0         0         0
         0         0         0         0         0         0         0         0
         0         0         0         0         0         0         0         0
         0         0         0         0         0         0         0         0
         0         0         0         0         0         0         0         0
         0         0         0         0         0         0         0         0
         0         0         0         0         0         0         0         0
         0         0         0         0         0         0         0         0
         0         0         0         0         0         0         0         0
         0         0         0         0         0         0         0         0
         0         0         0         0         0         0         0         0
         0         0         0         0         0         0         0         0
         0         0         0         0         0         0         0         0
         0         0         0         0         0         0         0         0
         0         0         0         0         0         0         0         0
         0         0         0         0         0         0         0         0
         0         0         0         0         0         0         0         0
         0         0         0         0         0         0         0         0
         0         0         0         0         0         0         0         0
         0         0         0         0         0         0         0         0
         0         0         0         0         0         0         0         0
         0         0         0         0         0         0         0         0
         0         0         0         0         0         0         0         0
         0         0         0         0         0         0         0         0
         0         0         0         0         0         0         0         0
         0         0         0         0         0         0         0         0
         0         0         0         0         0         0         0         0
         0         0         0         0         0         0         0         0
         0         0         0         0         0         0         0         0
         0         0         0         0         0         0         0         0
         0         0         0         0         0         0         0         0
         0         0         0         0         0         0         0         0
         0         0         0         0         0         0         0         0
         0         0         0         0         0         0         0         0
         0         0         0         0         0         0         0         0
         0         0         0         0         0         0         0         0
         0         0         0         0         0         0         0         0
         0         0         0         0         0         0         0         0
         0         0         0         0         0         0         0         0
         0         0         0         0         0         0         0         0
         0         0         0         0         0         0         0         0
         0         0         0         0         0         0         0         0
         0         0         0         0         0         0         0         0
         0         0         0         0         0         0         0         0
         0         0         0         0         0         0         0         0
         0         0         0         0         0         0         0         0
         0         0         0         0         0         0         0         0
         0         0         0         0         0         0         0         0
         0         0         0         0         0         0         0         0
         0         0         0         0         0         0         0         0
         0         0         0         0         0         0         0         0
         0         0         0         0         0         0         0         0
         0         0         0         0         0         0         0         0
         0         0         0         0         0         0         0         0
         0         0         0         0         0         0         0         0
         0         0         0         0         0         0         0         0
         0         0         0         0         0         0         0         0
         0         0         0         0         0         0         0         0
         0         0         0         0         0         0         0         0
         0         0         0         0         0         0         0         0
         0         0         0         0         0         0         0         0
         0         0         0         0         0         0         0         0
         0         0         0         0         0         0         0         0
         0         0         0         0         0         0         0         0
         0         0         0         0         0         0         0         0
         0         0         0         0         0         0         0         0
         0         0         0         0         0         0         0         0
         0         0         0         0         0         0         0         0
         0         0         0         0         0         0         0         0
         0         0         0         0         0         0         0         0
         0         0         0         0         0         0         0         0
         0         0         0         0         0         0         0         0
         0         0         0         0         0         0         0         0
         0         0         0         0         0         0         0         0
         0         0         0         0         0         0         0         0
         0         0         0         0         0         0         0         0
         0         0         0         0         0         0         0         0
         0         0         0         0         0         0         0         0
         0         0         0         0         0         0         0         0
         0         0         0         0         0         0         0         0
         0         0         0         0         0         0         0         0
         0         0         0         0         0         0         0         0
         0         0         0         0         0         0         0         0
         0         0         0         0         0         0         0         0
         0         0         0         0         0         0         0         0
         0         0         0         0         0         0         0         0
         0         0         0         0         0         0         0         0
         0         0         0         0         0         0         0         0
         0         0         0         0         0         0         0         0
         0         0         0         0         0         0         0         0
         0         0         0         0         0         0         0         0
         0         0         0         0         0         0         0         0
         0         0         0         0         0         0         0         0
         0         0         0         0         0         0         0         0
         0         0         0         0         0         0         0         0
         0         0         0         0         0         0         0         0
         0         0         0         0         0         0         0         0
         0         0         0         0         0         0         0         0
         0         0         0         0         0         0         0         0
         0         0         0         0         0         0         0         0
         0         0         0         0         0         0         0         0
         0         0         0         0         0         0         0         0
         0         0         0         0         0         0         0         0
         0         0         0         0         0         0         0         0
         0         0         0         0         0         0         0         0
         0         0         0         0         0         0         0         0
         0         0         0         0         0         0         0         0
         0         0         0         0         0         0         0         0
         0         0         0         0         0         0         0         0
         0         0         0         0         0         0         0         0
         0         0         0         0         0         0         0         0
         0         0         0         0         0         0         0         0
         0         0         0         0         0         0         0         0
         0         0         0         0         0         0         0         0
         0         0         0         0         0         0         0         0
         0         0         0         0         0         0         0         0
         0         0         0         0         0         0         0         0
         0         0         0         0         0         0         0         0
         0         0         0         0         0         0         0         0
         0         0         0         0         0         0         0         0
         0         0         0         0         0         0         0         0
         0         0         0         0         0         0         0         0
         0         0         0         0         0         0         0         0
         0         0         0         0         0         0         0         0
         0         0         0         0         0         0         0         0
         0         0         0         0         0         0         0         0
         0         0         0         0         0         0         0         0
         0         0         0         0         0         0         0         0
         0         0         0         0         0         0         0         0
         0         0         0         0         0         0         0         0
         0         0         0         0         0         0         0         0
         0         0         0         0         0         0         0         0
         0         0         0         0         0         0         0         0
         0         0         0         0         0         0         0         0
         0         0         0         0         0         0         0         0
         0         0         0         0         0         0         0         0
         0         0         0         0         0         0         0         0
         0         0         0         0         0         0         0         0
         0         0         0         0         0         0         0         0
         0         0         0         0         0         0         0         0
         0         0         0         0         0         0         0         0
         0         0         0         0         0         0         0         0
         0         0         0         0         0         0         0         0
         0         0         0         0         0         0         0         0
         0         0         0         0         0         0         0         0
         0         0         0         0         0         0         0         0
         0         0         0         0         0         0         0         0
         0         0         0         0         0         0         0         0
         0         0         0         0         0         0         0         0
         0         0         0         0         0         0         0         0
         0         0         0         0         0         0         0         0
         0         0         0         0         0         0         0         0
         0         0         0         0         0         0         0         0
         0         0         0         0         0         0         0         0
         0         0         0         0         0         0         0         0
         0         0         0         0         0         0         0         0
         0         0         0         0         0         0         0         0
         0         0         0         0         0         0         0         0
         0         0         0         0         0         0         0         0
         0         0         0         0         0         0         0         0
         0         0         0         0         0         0         0         0
         0         0         0         0         0         0         0         0
         0         0         0         0         0         0         0         0
         0         0         0         0         0         0         0         0
         0         0         0         0         0         0         0         0
         0         0         0         0         0         0         0         0
         0         0         0         0         0         0         0         0
         0         0         0         0         0         0         0         0
         0         0         0         0         0         0         0         0
         0         0         0         0         0         0         0         0
         0         0         0         0         0         0         0         0
         0         0         0         0         0         0         0         0
         0         0         0         0         0         0         0         0
         0         0         0         0         0         0         0         0
         0         0         0         0         0         0         0         0
         0         0         0         0         0         0         0         0
         0         0         0         0         0         0         0         0
         0         0         0         0         0         0         0         0
         0         0         0         0         0         0         0         0
         0         0         0         0         0         0         0         0
         0         0         0         0         0         0         0         0
         0         0         0         0         0         0         0         0
         0         0         0         0         0         0         0         0
         0         0         0         0         0         0         0         0
         0         0         0         0         0         0         0         0
         0         0         0         0         0         0         0         0
         0         0         0         0         0         0         0         0
         0         0         0         0         0         0         0         0
         0         0         0         0         0         0         0         0
         0         0         0         0         0         0         0         0
         0         0         0         0         0         0         0         0
         0         0         0         0         0         0         0         0
         0         0         0         0         0         0         0         0
         0         0         0         0         0         0         0         0
         0         0         0         0         0         0         0         0
         0         0         0         0         0         0         0         0
         0         0         0         0         0         0         0         0
         0         0         0         0         0         0         0         0
         0         0         0         0         0         0         0         0
         0         0         0         0         0         0         0         0
         0         0         0         0         0         0         0         0
         0         0         0         0         0         0         0         0
         0         0         0         0         0         0         0         0
         0         0         0         0         0         0         0         0
         0         0         0         0         0         0         0         0
         0         0         0         0         0         0         0         0
         0         0         0         0         0         0         0         0
         0         0         0         0         0         0         0         0
         0         0         0         0         0         0         0         0
         0         0         0         0         0         0         0         0
         0         0         0         0         0         0         0         0
         0         0         0         0         0         0         0         0
         0         0         0         0         0         0         0         0
         0         0         0         0         0         0         0         0
         0         0         0         0         0         0         0         0
         0         0         0         0         0         0         0         0
         0         0         0         0         0         0         0         0
         0         0         0         0         0         0         0         0
         0         0         0         0         0         0         0         0
         0         0         0         0         0         0         0         0
         0         0         0         0         0         0         0         0
         0         0         0         0         0         0         0         0
         0         0         0         0         0         0         0         0
         0         0         0         0         0         0         0         0
         0         0         0         0         0         0         0         0
         0         0         0         0         0         0         0         0
         0         0         0         0         0         0         0         0
         0         0         0         0         0         0         0         0
         0         0         0         0         0         0         0         0
         0         0         0         0         0         0         0         0
         0         0         0         0         0         0         0         0
         0         0         0         0         0         0         0         0
         0         0         0         0         0         0         0         0
         0         0         0         0         0         0         0         0
         0         0         0         0         0         0         0         0
         0         0         0         0         0         0         0         0
         0         0         0         0         0         0         0         0
         0         0         0         0         0         0         0         0
         0         0         0         0         0         0         0         0
         0         0         0         0         0         0         0         0
         0         0         0         0         0         0         0         0
         0         0         0         0         0         0         0         0
         0         0         0         0         0         0         0         0
         0         0         0         0         0         0         0         0
         0         0         0         0         0         0         0         0
         0         0         0         0         0         0         0         0
         0         0         0         0         0         0         0         0
         0         0         0         0         0         0         0         0
         0         0         0         0         0         0         0         0
         0         0         0         0         0         0         0         0
         0         0         0         0         0         0         0         0
         0         0         0         0         0         0         0         0
         0         0         0         0         0         0         0         0
         0         0         0         0         0         0         0         0
         0         0         0         0         0         0         0         0
         0         0         0         0         0         0         0         0
         0         0         0         0         0         0         0         0
         0         0         0         0         0         0         0         0
         0         0         0         0         0         0         0         0
         0         0         0         0         0         0         0         0
         0         0         0         0         0         0         0         0
         0         0         0         0         0         0         0         0
         0         0         0         0         0         0         0         0
         0         0         0         0         0         0         0         0
         0         0         0         0         0         0         0         0
         0         0         0         0         0         0         0         0
         0         0         0         0         0         0         0         0
         0         0         0         0         0         0         0         0
         0         0         0         0         0         0         0         0
         0         0         0         0         0         0         0         0
         0         0         0         0         0         0         0         0
         0         0         0         0         0         0         0         0
         0         0         0         0         0         0         0         0
         0         0         0         0         0         0         0         0
         0         0         0         0         0         0         0         0
         0         0         0         0         0         0         0         0
         0         0         0         0         0         0         0         0
         0         0         0         0         0         0         0         0
         0         0         0         0         0         0         0         0
         0         0         0         0         0         0         0         0
         0         0         0         0         0         0         0         0
         0         0         0         0         0         0         0         0
         0         0         0         0         0         0         0         0
         0         0         0         0         0         0         0         0
         0         0         0         0         0         0         0         0
         0         0         0         0         0         0         0         0
         0         0         0         0         0         0         0         0
         0         0         0         0         0         0         0         0
         0         0         0         0         0         0         0         0
         0         0         0         0         0         0         0         0
         0         0         0         0         0         0         0         0
         0         0         0         0         0         0         0         0
         0         0         0         0         0         0         0         0
         0         0         0         0         0         0         0         0
         0         0         0         0         0         0         0         0
         0         0         0         0         0         0         0         0
         0         0         0         0         0         0         0         0
         0         0         0         0         0         0         0         0
         0         0         0         0         0         0         0         0
         0         0         0         0         0         0         0         0
         0         0         0         0         0         0         0         0
         0         0         0         0         0         0         0         0
         0         0         0         0         0         0         0         0
         0         0         0         0         0         0         0         0
         0         0         0         0         0         0         0         0
         0         0         0         0         0         0         0         0
         0         0         0         0         0         0         0         0
         0         0         0         0         0         0         0         0
         0         0         0         0         0         0         0         0
         0         0         0         0         0         0         0         0
         0         0         0         0         0         0         0         0
         0         0         0         0         0         0         0         0
         0         0         0         0         0         0         0         0
         0         0         0         0         0         0         0         0
         0         0         0         0         0         0         0         0
         0         0         0         0         0         0         0         0
         0         0         0         0         0         0         0         0
         0         0         0         0         0         0         0         0
         0         0         0         0         0         0         0         0
         0         0         0         0         0         0         0         0
         0         0         0         0         0         0         0         0
         0         0         0         0         0         0         0         0
         0         0         0         0         0         0         0         0
         0         0         0         0         0         0         0         0
         0         0         0         0         0         0         0         0
         0         0         0         0         0         0         0         0
         0         0         0         0         0         0         0         0
         0         0         0         0         0         0         0         0
         0         0         0         0         0         0         0         0
         0         0         0         0         0         0         0         0
         0         0         0         0         0         0         0         0
         0         0         0         0         0         0         0         0
         0         0         0         0         0         0         0         0
         0         0         0         0         0         0         0         0
         0         0         0         0         0         0         0         0
         0         0         0         0         0         0         0         0
         0         0         0         0         0         0         0         0
         0         0         0         0         0         0         0         0
         0         0         0         0         0         0         0         0
         0         0         0         0         0         0         0         0
         0         0         0         0         0         0         0         0
         0         0         0         0         0         0         0         0
         0         0         0         0         0         0         0         0
         0         0         0         0         0         0         0         0
         0         0         0         0         0         0         0         0
         0         0         0         0         0         0         0         0
         0         0         0         0         0         0         0         0
         0         0         0         0         0         0         0         0
         0         0         0         0         0         0         0         0
         0         0         0         0         0         0         0         0
         0         0         0         0         0         0         0         0
         0         0         0         0         0         0         0         0
         0         0         0         0         0         0         0         0
         0         0         0         0         0         0         0         0
         0         0         0         0         0         0         0         0
         0         0         0         0         0         0         0         0
         0         0         0         0         0         0         0         0
         0         0         0         0         0         0         0         0
         0         0         0         0         0         0         0         0
         0         0         0         0         0         0         0         0
         0         0         0         0         0         0         0         0
         0         0         0         0         0         0         0         0
         0         0         0         0         0         0         0         0
         0         0         0         0         0         0         0         0
         0         0         0         0         0         0         0         0
         0         0         0         0         0         0         0         0
         0         0         0         0         0         0         0         0
         0         0         0         0         0         0         0         0
         0         0         0         0         0         0         0         0
         0         0         0         0         0         0         0         0
         0         0         0         0         0         0         0         0
         0         0         0         0         0         0         0         0
         0         0         0         0         0         0         0         0
         0         0         0         0         0         0         0         0
         0         0         0         0         0         0         0         0
         0         0         0         0         0         0         0         0
         0         0         0         0         0         0         0         0
         0         0         0         0         0         0         0         0
         0         0         0         0         0         0         0         0
         0         0         0         0         0         0         0         0
         0         0         0         0         0         0         0         0
         0         0         0         0         0         0         0         0
         0         0         0         0         0         0         0         0
         0         0         0         0         0         0         0         0
         0         0         0         0         0         0         0         0
         0         0         0         0         0         0         0         0
         0         0         0         0         0         0         0         0
         0         0         0         0         0         0         0         0
         0         0         0         0         0         0         0         0
         0         0         0         0         0         0         0         0
         0         0         0         0         0         0         0         0
         0         0         0         0         0         0         0         0
         0         0         0         0         0         0         0         0
         0         0         0         0         0         0         0         0
         0         0         0         0         0         0         0         0
         0         0         0         0         0         0         0         0
         0         0         0         0         0         0         0         0
         0         0         0         0         0         0         0         0
         0         0         0         0         0         0         0         0
         0         0         0         0         0         0         0         0
         0         0         0         0         0         0         0         0
         0         0         0         0         0         0         0         0
         0         0         0         0         0         0         0         0
         0         0         0         0         0         0         0         0
         0         0         0         0         0         0         0         0
         0         0         0         0         0         0         0         0
         0         0         0         0         0         0         0         0
         0         0         0         0         0         0         0         0
         0         0         0         0         0         0         0         0
         0         0         0         0         0         0         0         0
         0         0         0         0         0         0         0         0
         0         0         0         0         0         0         0         0
         0         0         0         0         0         0         0         0
         0         0         0         0         0         0         0         0
         0         0         0         0         0         0         0         0
         0         0         0         0         0         0         0         0
         0         0         0         0         0         0         0         0
         0         0         0         0         0         0         0         0
         0         0         0         0         0         0         0         0
         0         0         0         0         0         0         0         0
         0         0         0         0         0         0         0         0
         0         0         0         0         0         0         0         0
         0         0         0         0         0         0         0         0
         0         0         0         0         0         0         0         0
         0         0         0         0         0         0         0         0
         0         0         0         0         0         0         0         0
         0         0         0         0         0         0         0         0
         0         0         0         0         0         0         0         0
         0         0         0         0         0         0         0         0
         0         0         0         0         0         0         0         0
         0         0         0         0         0         0         0         0
         0         0         0         0         0         0         0         0
         0         0         0         0         0         0         0         0
         0         0         0         0         0         0         0         0
         0         0         0         0         0         0         0         0
         0         0         0         0         0         0         0         0
         0         0         0         0         0         0         0         0
         0         0         0         0         0         0         0         0
         0         0         0         0         0         0         0         0
         0         0         0         0         0         0         0         0
         0         0         0         0         0         0         0         0
         0         0         0         0         0         0         0         0
         0         0         0         0         0         0         0         0
         0         0         0         0         0         0         0         0
         0         0         0         0         0         0         0         0
         0         0         0         0         0         0         0         0
         0         0         0         0         0         0         0         0
         0         0         0         0         0         0         0         0
         0         0         0         0         0         0         0         0
         0         0         0         0         0         0         0         0
         0         0         0         0         0         0         0         0
         0         0         0         0         0         0         0         0
         0         0         0         0         0         0         0         0
         0         0         0         0         0         0         0         0
         0         0         0         0         0         0         0         0
         0         0         0         0         0         0         0         0
         0         0         0         0         0         0         0         0
         0         0         0         0         0         0         0         0
         0         0         0         0         0         0         0         0
         0         0         0         0         0         0         0         0
         0         0         0         0         0         0         0         0
         0         0         0         0         0         0         0         0
         0         0         0         0         0         0         0         0
         0         0         0         0         0         0         0         0
         0         0         0         0         0         0         0         0
         0         0         0         0         0         0         0         0
         0         0         0         0         0         0         0         0
         0         0         0         0         0         0         0         0
         0         0         0         0         0         0         0         0
         0         0         0         0         0         0         0         0
         0         0         0         0         0         0         0         0
         0         0         0         0         0         0         0         0
         0         0         0         0         0         0         0         0
         0         0         0         0         0         0         0         0
         0         0         0         0         0         0         0         0
         0         0         0         0         0         0         0         0
         0         0         0         0         0         0         0         0
         0         0         0         0         0         0         0         0
         0         0         0         0         0         0         0         0
         0         0         0         0         0         0         0         0
         0         0         0         0         0         0         0         0
         0         0         0         0         0         0         0         0
         0         0         0         0         0         0         0         0
         0         0         0         0         0         0         0         0
         0         0         0         0         0         0         0         0
         0         0         0         0         0         0         0         0
         0         0         0         0         0         0         0         0
         0         0         0         0         0         0         0         0
         0         0         0         0         0         0         0         0
         0         0         0         0         0         0         0         0
         0         0         0         0         0         0         0         0
         0         0         0         0         0         0         0         0
         0         0         0         0         0         0         0         0
         0         0         0         0         0         0         0         0
         0         0         0         0         0         0         0         0
         0         0         0         0         0         0         0         0
         0         0         0         0         0         0         0         0
         0         0         0         0         0         0         0         0
         0         0         0         0         0         0         0         0
         0         0         0         0         0         0         0         0
         0         0         0         0         0         0         0         0
         0         0         0         0         0         0         0         0
         0         0         0         0         0         0         0         0
         0         0         0         0         0         0         0         0
         0         0         0         0         0         0         0         0
         0         0         0         0         0         0         0         0
         0         0         0         0         0         0         0         0
         0         0         0         0         0         0         0         0
         0         0         0         0         0         0         0         0
         0         0         0         0         0         0         0         0
         0         0         0         0         0         0         0         0
         0         0         0         0         0         0         0         0
         0         0         0         0         0         0         0         0
         0         0         0         0         0         0         0         0
         0         0         0         0         0         0         0         0
         0         0         0         0         0         0         0         0
         0         0         0         0         0         0         0         0
         0         0         0         0         0         0         0         0
         0         0         0         0         0         0         0         0
         0         0         0         0         0         0         0         0
         0         0         0         0         0         0         0         0
         0         0         0         0         0         0         0         0
         0         0         0         0         0         0         0         0
         0         0         0         0         0         0         0         0
         0         0         0         0         0         0         0         0
         0         0         0         0         0         0         0         0
         0         0         0         0         0         0         0         0
         0         0         0         0         0         0         0         0
         0         0         0         0         0         0         0         0
         0         0         0         0         0         0         0         0
         0         0         0         0         0         0         0         0
         0         0         0         0         0         0         0         0
         0         0         0         0         0         0         0         0
         0         0         0         0         0         0         0         0
         0         0         0         0         0         0         0         0
         0         0         0         0         0         0         0         0
         0         0         0         0         0         0         0         0
         0         0         0         0         0         0         0         0
         0         0         0         0         0         0         0         0
         0         0         0         0         0         0         0         0
         0         0         0         0         0         0         0         0
         0         0         0         0         0         0         0         0
         0         0         0         0         0         0         0         0
         0         0         0         0         0         0         0         0
         0         0         0         0         0         0         0         0
         0         0         0         0         0         0         0         0
         0         0         0         0         0         0         0         0
         0         0         0         0         0         0         0         0
         0         0         0         0         0         0         0         0
         0         0         0         0         0         0         0         0
         0         0         0         0         0         0         0         0
         0         0         0         0         0         0         0         0
         0         0         0         0         0         0         0         0
         0         0         0         0         0         0         0         0
         0         0         0         0         0         0         0         0
         0         0         0         0         0         0         0         0
         0         0         0         0         0         0         0         0
         0         0         0         0         0         0         0         0
         0         0         0         0         0         0         0         0
         0         0         0         0         0         0         0         0
         0         0         0         0         0         0         0         0
         0         0         0         0         0         0         0         0
         0         0         0         0         0         0         0         0
         0         0         0         0         0         0         0         0
         0         0         0         0         0         0         0         0
         0         0         0         0         0         0         0         0
         0         0         0         0         0         0         0         0
         0         0         0         0         0         0         0         0
         0         0         0         0         0         0         0         0
         0         0         0         0         0         0         0         0
         0         0         0         0         0         0         0         0
         0         0         0         0         0         0         0         0
         0         0         0         0         0         0         0         0
         0         0         0         0         0         0         0         0
         0         0         0         0         0         0         0         0
         0         0         0         0         0         0         0         0
         0         0         0         0         0         0         0         0
         0         0         0         0         0         0         0         0
         0         0         0         0         0         0         0         0
         0         0         0         0         0         0         0         0
         0         0         0         0         0         0         0         0
         0         0         0         0         0         0         0         0
         0         0         0         0         0         0         0         0
         0         0         0         0         0         0         0         0
         0         0         0         0         0         0         0         0
         0         0         0         0         0         0         0         0
         0         0         0         0         0         0         0         0
         0         0         0         0         0         0         0         0
         0         0         0         0         0         0         0         0
         0         0         0         0         0         0         0         0
         0         0         0         0         0         0         0         0
         0         0         0         0         0         0         0         0
         0         0         0         0         0         0         0         0
         0         0         0         0         0         0         0         0
         0         0         0         0         0         0         0         0
         0         0         0         0         0         0         0         0
         0         0         0         0         0         0         0         0
         0         0         0         0         0         0         0         0
         0         0         0         0         0         0         0         0
         0         0         0         0         0         0         0         0
         0         0         0         0         0         0         0         0
         0         0         0         0         0         0         0         0
         0         0         0         0         0         0         0         0
         0         0         0         0         0         0         0         0
         0         0         0         0         0         0         0         0
         0         0         0         0         0         0         0         0
         0         0         0         0         0         0         0         0
         0         0         0         0         0         0         0         0
         0         0         0         0         0         0         0         0
         0         0         0         0         0         0         0         0
         0         0         0         0         0         0         0         0
         0         0         0         0         0         0         0         0
         0         0         0         0         0         0         0         0
         0         0         0         0         0         0         0         0
         0         0         0         0         0         0         0         0
         0         0         0         0         0         0         0         0
         0         0         0         0         0         0         0         0
         0         0         0         0         0         0         0         0
         0         0         0         0         0         0         0         0
         0         0         0         0         0         0         0         0
         0         0         0         0         0         0         0         0
         0         0         0         0         0         0         0         0
         0         0         0         0         0         0         0         0
         0         0         0         0         0         0         0         0
         0         0         0         0         0         0         0         0
         0         0         0         0         0         0         0         0
         0         0         0         0         0         0         0         0
         0         0         0         0         0         0         0         0
         0         0         0         0         0         0         0         0
         0         0         0         0         0         0         0         0
         0         0         0         0         0         0         0         0
         0         0         0         0         0         0         0         0
         0         0         0         0         0         0         0         0
         0         0         0         0         0         0         0         0
         0         0         0         0         0         0         0         0
         0         0         0         0         0         0         0         0
         0         0         0         0         0         0         0         0
         0         0         0         0         0         0         0         0
         0         0         0         0         0         0         0         0
         0         0         0         0         0         0         0         0
         0         0         0         0         0         0         0         0
         0         0         0         0         0         0         0         0
         0         0         0         0         0         0         0         0
         0         0         0         0         0         0         0         0
         0         0         0         0         0         0         0         0
         0         0         0         0         0         0         0         0
         0         0         0         0         0         0         0         0
         0         0         0         0         0         0         0         0
         0         0         0         0         0         0         0         0
         0         0         0         0         0         0         0         0
         0         0         0         0         0         0         0         0
         0         0         0         0         0         0         0         0
         0         0         0         0         0         0         0         0
         0         0         0         0         0         0         0         0
         0         0         0         0         0         0         0         0
         0         0         0         0         0         0         0         0
         0         0         0         0         0         0         0         0
         0         0         0         0         0         0         0         0
         0         0         0         0         0         0         0         0
         0         0         0         0         0         0         0         0
         0         0         0         0         0         0         0         0
         0         0         0         0         0         0         0         0
         0         0         0         0         0         0         0         0
         0         0         0         0         0         0         0         0
         0         0         0         0         0         0         0         0
         0         0         0         0         0         0         0         0
         0         0         0         0         0         0         0         0
         0         0         0         0         0         0         0         0
         0         0         0         0         0         0         0         0
         0         0         0         0         0         0         0         0
         0         0         0         0         0         0         0         0
         0         0         0         0         0         0         0         0
         0         0         0         0         0         0         0         0
         0         0         0         0         0         0         0         0
         0         0         0         0         0         0         0         0
         0         0         0         0         0         0         0         0
         0         0         0         0         0         0         0         0
         0         0         0         0         0         0         0         0
         0         0         0         0         0         0         0         0
         0         0         0         0         0         0         0         0
         0         0         0         0         0         0         0         0
         0         0         0         0         0         0         0         0
         0         0         0         0         0         0         0         0
         0         0         0         0         0         0         0         0
         0         0         0         0         0         0         0         0
         0         0         0         0         0         0         0         0
         0         0         0         0         0         0         0         0
         0         0         0         0         0         0         0         0
         0         0         0         0         0         0         0         0
         0         0         0         0         0         0         0         0
         0         0         0         0         0         0         0         0
         0         0         0         0         0         0         0         0
         0         0         0         0         0         0         0         0
         0         0         0         0         0         0         0         0
         0         0         0         0         0         0         0         0
         0         0         0         0         0         0         0         0
         0         0         0         0         0         0         0         0
         0         0         0         0         0         0         0         0
         0         0         0         0         0         0         0         0
         0         0         0         0         0         0         0         0
         0         0         0         0         0         0         0         0
         0         0         0         0         0         0         0         0
         0         0         0         0         0         0         0         0
         0         0         0         0         0         0         0         0
         0         0         0         0         0         0         0         0
         0         0         0         0         0         0         0         0
         0         0         0         0         0         0         0         0
         0         0         0         0         0         0         0         0
         0         0         0         0         0         0         0         0
         0         0         0         0         0         0         0         0
         0         0         0         0         0         0         0         0
         0         0         0         0         0         0         0         0
         0         0         0         0         0         0         0         0
         0         0         0         0         0         0         0         0
         0         0         0         0         0         0         0         0
         0         0         0         0         0         0         0         0
         0         0         0         0         0         0         0         0
         0         0         0         0         0         0         0         0
         0         0         0         0         0         0         0         0
         0         0         0         0         0         0         0         0
         0         0         0         0         0         0         0         0
         0         0         0         0         0         0         0         0
         0         0         0         0         0         0         0         0
         0         0         0         0         0         0         0         0
         0         0         0         0         0         0         0         0
         0         0         0         0         0         0         0         0
         0         0         0         0         0         0         0         0
         0         0         0         0         0         0         0         0
         0         0         0         0         0         0         0         0
         0         0         0         0         0         0         0         0
         0         0         0         0         0         0         0         0
         0         0         0         0         0         0         0         0
         0         0         0         0         0         0         0         0
         0         0         0         0         0         0         0         0
         0         0         0         0         0         0         0         0
         0         0         0         0         0         0         0         0
         0         0         0         0         0         0         0         0
         0         0         0         0         0         0         0         0
         0         0         0         0         0         0         0         0
         0         0         0         0         0         0         0         0
         0         0         0         0         0         0         0         0
         0         0         0         0         0         0         0         0
         0         0         0         0         0         0         0         0
         0         0         0         0         0         0         0         0
         0         0         0         0         0         0         0         0
         0         0         0         0         0         0         0         0
         0         0         0         0         0         0         0         0
         0         0         0         0         0         0         0         0
         0         0         0         0         0         0         0         0
         0         0         0         0         0         0         0         0
         0         0         0         0         0         0         0         0
         0         0         0         0         0         0         0         0
         0         0         0         0         0         0         0         0
         0         0         0         0         0         0         0         0
         0         0         0         0         0         0         0         0
         0         0         0         0         0         0         0         0
         0         0         0         0         0         0         0         0
         0         0         0         0         0         0         0         0
         0         0         0         0         0         0         0         0
         0         0         0         0         0         0         0         0
         0         0         0         0         0         0         0         0
         0         0         0         0         0         0         0         0
         0         0         0         0         0         0         0         0
         0         0         0         0         0         0         0         0
         0         0         0         0         0         0         0         0
         0         0         0         0         0         0         0         0
         0         0         0         0         0         0         0         0
         0         0         0         0         0         0         0         0
         0         0         0         0         0         0         0         0
         0         0         0         0         0         0         0         0
         0         0         0         0         0         0         0         0
         0         0         0         0         0         0         0         0
         0         0         0         0         0         0         0         0
         0         0         0         0         0         0         0         0
         0         0         0         0         0         0         0         0
         0         0         0         0         0         0         0         0
         0         0         0         0         0         0         0         0
         0         0         0         0         0         0         0         0
         0         0         0         0         0         0         0         0
         0         0         0         0         0         0         0         0
         0         0         0         0         0         0         0         0
         0         0         0         0         0         0         0         0
         0         0         0         0         0         0         0         0
         0         0         0         0         0         0         0         0
         0         0         0         0         0         0         0         0
         0         0         0         0         0         0         0         0
         0         0         0         0         0         0         0         0
         0         0         0         0         0         0         0         0
         0         0         0         0         0         0         0         0
         0         0         0         0         0         0         0         0
         0         0         0         0         0         0         0         0
         0         0         0         0         0         0         0         0
         0         0         0         0         0         0         0         0
         0         0         0         0         0         0         0         0
         0         0         0         0         0         0         0         0
         0         0         0         0         0         0         0         0
         0         0         0         0         0         0         0         0
         0         0         0         0         0         0         0         0
         0         0         0         0         0         0         0         0
         0         0         0         0         0         0         0         0
         0         0         0         0         0         0         0         0
         0         0         0         0         0         0         0         0
         0         0         0         0         0         0         0         0
         0         0         0         0         0         0         0         0
         0         0         0         0         0         0         0         0
         0         0         0         0         0         0         0         0
         0         0         0         0         0         0         0         0
         0         0         0         0         0         0         0         0
         0         0         0         0         0         0         0         0
         0         0         0         0         0         0         0         0
         0         0         0         0         0         0         0         0
         0         0         0         0         0         0         0         0
         0         0         0         0         0         0         0         0
         0         0         0         0         0         0         0         0
         0         0         0         0         0         0         0         0
         0         0         0         0         0         0         0         0
         0         0         0         0         0         0         0         0
         0         0         0         0         0         0         0         0
         0         0         0         0         0         0         0         0
         0         0         0         0         0         0         0         0
         0         0         0         0         0         0         0         0
         0         0         0         0         0         0         0         0
         0         0         0         0         0         0         0         0
         0         0         0         0         0         0         0         0
         0         0         0         0         0         0         0         0
         0         0         0         0         0         0         0         0
         0         0         0         0         0         0         0         0
         0         0         0         0         0         0         0         0
         0         0         0         0         0         0         0         0
         0         0         0         0         0         0         0         0
         0         0         0         0         0         0         0         0
         0         0         0         0         0         0         0         0
         0         0         0         0         0         0         0         0
         0         0         0         0         0         0         0         0
         0         0         0         0         0         0         0         0
         0         0         0         0         0         0         0         0
         0         0         0         0         0         0         0         0
         0         0         0         0         0         0         0         0
         0         0         0         0         0         0         0         0
         0         0         0         0         0         0         0         0
         0         0         0         0         0         0         0         0
         0         0         0         0         0         0         0         0
         0         0         0         0         0         0         0         0
         0         0         0         0         0         0         0         0
         0         0         0         0         0         0         0         0
         0         0         0         0         0         0         0         0
         0         0         0         0         0         0         0         0
         0         0         0         0         0         0         0         0
         0         0         0         0         0         0         0         0
         0         0         0         0         0         0         0         0
         0         0         0         0         0         0         0         0
         0         0         0         0         0         0         0         0
         0         0         0         0         0         0         0         0
         0         0         0         0         0         0         0         0
         0         0         0         0         0         0         0         0
         0         0         0         0         0         0         0         0
         0         0         0         0         0         0         0         0
         0         0         0         0         0         0         0         0
         0         0         0         0         0         0         0         0
         0         0         0         0         0         0         0         0
         0         0         0         0         0         0         0         0
         0         0         0         0         0         0         0         0
         0         0         0         0         0         0         0         0
         0         0         0         0         0         0         0         0
         0         0         0         0         0         0         0         0
         0         0         0         0         0         0         0         0
         0         0         0         0         0         0         0         0
         0         0         0         0         0         0         0         0
         0         0         0         0         0         0         0         0
         0         0         0         0         0         0         0         0
         0         0         0         0         0         0         0         0
         0         0         0         0         0         0         0         0
         0         0         0         0         0         0         0         0
         0         0         0         0         0         0         0         0
         0         0         0         0         0         0         0         0
         0         0         0         0         0         0         0         0
         0         0         0         0         0         0         0         0
         0         0         0         0         0         0         0         0
         0         0         0         0         0         0         0         0
         0         0         0         0         0         0         0         0
         0         0         0         0         0         0         0         0
         0         0         0         0         0         0         0         0
         0         0         0         0         0         0         0         0
         0         0         0         0         0         0         0         0
         0         0         0         0         0         0         0         0
         0         0         0         0         0         0         0         0
         0         0         0         0         0         0         0         0
         0         0         0         0         0         0         0         0
         0         0         0         0         0         0         0         0
         0         0         0         0         0         0         0         0
         0         0         0         0         0         0         0         0
         0         0         0         0         0         0         0         0
         0         0         0         0         0         0         0         0
         0         0         0         0         0         0         0         0
         0         0         0         0         0         0         0         0
         0         0         0         0         0         0         0         0
         0         0         0         0         0         0         0         0
         0         0         0         0         0         0         0         0
         0         0         0         0         0         0         0         0
         0         0         0         0         0         0         0         0
         0         0         0         0         0         0         0         0
         0         0         0         0         0         0         0         0
         0         0         0         0         0         0         0         0
         0         0         0         0         0         0         0         0
         0         0         0         0         0         0         0         0
         0         0         0         0         0         0         0         0
         0         0         0         0         0         0         0         0
         0         0         0         0         0         0         0         0
         0         0         0         0         0         0         0         0
         0         0         0         0         0         0         0         0
         0         0         0         0         0         0         0         0
         0         0         0         0         0         0         0         0
         0         0         0         0         0         0         0         0
         0         0         0         0         0         0         0         0
         0         0         0         0         0         0         0         0
         0         0         0         0         0         0         0         0
         0         0         0         0         0         0         0         0
         0         0         0         0         0         0         0         0
         0         0         0         0         0         0         0         0
         0         0         0         0         0         0         0         0
         0         0         0         0         0         0         0         0
         0         0         0         0         0         0         0         0
         0         0         0         0         0         0         0         0
         0         0         0         0         0         0         0         0
         0         0         0         0         0         0         0         0
         0         0         0         0         0         0         0         0
         0         0         0         0         0         0         0         0
         0         0         0         0         0         0         0         0
         0         0         0         0         0         0         0         0
         0         0         0         0         0         0         0         0
         0         0         0         0         0         0         0         0
         0         0         0         0         0         0         0         0
         0         0         0         0         0         0         0         0
         0         0         0         0         0         0         0         0
         0         0         0         0         0         0         0         0
         0         0         0         0         0         0         0         0
         0         0         0         0         0         0         0         0
         0         0         0         0         0         0         0         0
         0         0         0         0         0         0         0         0
         0         0         0         0         0         0         0         0
         0         0         0         0         0         0         0         0
         0         0         0         0         0         0         0         0
         0         0         0         0         0         0         0         0
         0         0         0         0         0         0         0         0
         0         0         0         0         0         0         0         0
         0         0         0         0         0         0         0         0
         0         0         0         0         0         0         0         0
         0         0         0         0         0         0         0         0
         0         0         0         0         0         0         0         0
         0         0         0         0         0         0         0         0
         0         0         0         0         0         0         0         0
         0         0         0         0         0         0         0         0
         0         0         0         0         0         0         0         0
         0         0         0         0         0         0         0         0
         0         0         0         0         0         0         0         0
         0         0         0         0         0         0         0         0
         0         0         0         0         0         0         0         0
         0         0         0         0         0         0         0         0
         0         0         0         0         0         0         0         0
         0         0         0         0         0         0         0         0
         0         0         0         0         0         0         0         0
         0         0         0         0         0         0         0         0
         0         0         0         0         0         0         0         0
         0         0         0         0         0         0         0         0
         0         0         0         0         0         0         0         0
         0         0         0         0         0         0         0         0
         0         0         0         0         0         0         0         0
         0         0         0         0         0         0         0         0
         0         0         0         0         0         0         0         0
         0         0         0         0         0         0         0         0
         0         0         0         0         0         0         0         0
         0         0         0         0         0         0         0         0
         0         0         0         0         0         0         0         0
         0         0         0         0         0         0         0         0
         0         0         0         0         0         0         0         0
         0         0         0         0         0         0         0         0
         0         0         0         0         0         0         0         0
         0         0         0         0         0         0         0         0
         0         0         0         0         0         0         0         0
         0         0         0         0         0         0         0         0
         0         0         0         0         0         0         0         0
         0         0         0         0         0         0         0         0
         0         0         0         0         0         0         0         0
         0         0         0         0         0         0         0         0
         0         0         0         0         0         0         0         0
         0         0         0         0         0         0         0         0
         0         0         0         0         0         0         0         0
         0         0         0         0         0         0         0         0
         0         0         0         0         0         0         0         0
         0         0         0         0         0         0         0         0
         0         0         0         0         0         0         0         0
         0         0         0         0         0         0         0         0
         0         0         0         0         0         0         0         0
         0         0         0         0         0         0         0         0
         0         0         0         0         0         0         0         0
         0         0         0         0         0         0         0         0
         0         0         0         0         0         0         0         0
         0         0         0         0         0         0         0         0
         0         0         0         0         0         0         0         0
         0         0         0         0         0         0         0         0
         0         0         0         0         0         0         0         0
         0         0         0         0         0         0         0         0
         0         0         0         0         0         0         0         0
         0         0         0         0         0         0         0         0
         0         0         0         0         0         0         0         0
         0         0         0         0         0         0         0         0
         0         0         0         0         0         0         0         0
         0         0         0         0         0         0         0         0
         0         0         0         0         0         0         0         0
         0         0         0         0         0         0         0         0
         0         0         0         0         0         0         0         0
         0         0         0         0         0         0         0         0
         0         0         0         0         0         0         0         0
         0         0         0         0         0         0         0         0
         0         0         0         0         0         0         0         0
         0         0         0         0         0         0         0         0
         0         0         0         0         0         0         0         0
         0         0         0         0         0         0         0         0
         0         0         0         0         0         0         0         0
         0         0         0         0         0         0         0         0
         0         0         0         0         0         0         0         0
         0         0         0         0         0         0         0         0
         0         0         0         0         0         0         0         0
         0         0         0         0         0         0         0         0
         0         0         0         0         0         0         0         0
         0         0         0         0         0         0         0         0
         0         0         0         0         0         0         0         0
         0         0         0         0         0         0         0         0
         0         0         0         0         0         0         0         0
         0         0         0         0         0         0         0         0
         0         0         0         0         0         0         0         0
         0         0         0         0         0         0         0         0
         0         0         0         0         0         0         0         0
         0         0         0         0         0         0         0         0
         0         0         0         0         0         0         0         0
         0         0         0         0         0         0         0         0
         0         0         0         0         0         0         0         0
         0         0         0         0         0         0         0         0
         0         0         0         0         0         0         0         0
         0         0         0         0         0         0         0         0
         0         0         0         0         0         0         0         0
         0         0         0         0         0         0         0         0
         0         0         0         0         0         0         0         0
         0         0         0         0         0         0         0         0
         0         0         0         0         0         0         0         0
         0         0         0         0         0         0         0         0
         0         0         0         0         0         0         0         0
         0         0         0         0         0         0         0         0
         0         0         0         0         0         0         0         0
         0         0         0         0         0         0         0         0
         0         0         0         0         0         0         0         0
         0         0         0         0         0         0         0         0
         0         0         0         0         0         0         0         0
         0         0         0         0         0         0         0         0
         0         0         0         0         0         0         0         0
         0         0         0         0         0         0         0         0
         0         0         0         0         0         0         0         0
         0         0         0         0         0         0         0         0
         0         0         0         0         0         0         0         0
         0         0         0         0         0         0         0         0
         0         0         0         0         0         0         0         0
         0         0         0         0         0         0         0         0
         0         0         0         0         0         0         0         0
         0         0         0         0         0         0         0         0
         0         0         0         0         0         0         0         0
         0         0         0         0         0         0         0         0
         0         0         0         0         0         0         0         0
         0         0         0         0         0         0         0         0
         0         0         0         0         0         0         0         0
         0         0         0         0         0         0         0         0
         0         0         0         0         0         0         0         0
         0         0         0         0         0         0         0         0
         0         0         0         0         0         0         0         0
         0         0         0         0         0         0         0         0
         0         0         0         0         0         0         0         0
         0         0         0         0         0         0         0         0
         0         0         0         0         0         0         0         0
         0         0         0         0         0         0         0         0
         0         0         0         0         0         0         0         0
         0         0         0         0         0         0         0         0
         0         0         0         0         0         0         0         0
         0         0         0         0         0         0         0         0
         0         0         0         0         0         0         0         0
         0         0         0         0         0         0         0         0
         0         0         0         0         0         0         0         0
         0         0         0         0         0         0         0         0
         0         0         0         0         0         0         0         0
         0         0         0         0         0         0         0         0
         0         0         0         0         0         0         0         0
         0         0         0         0         0         0         0         0
         0         0         0         0         0         0         0         0
         0         0         0         0         0         0         0         0
         0         0         0         0         0         0         0         0
         0         0         0         0         0         0         0         0
         0         0         0         0         0         0         0         0
         0         0         0         0         0         0         0         0
         0         0         0         0         0         0         0         0
         0         0         0         0         0         0         0         0
         0         0         0         0         0         0         0         0
         0         0         0         0         0         0         0         0
         0         0         0         0         0         0         0         0
         0         0         0         0         0         0         0         0
         0         0         0         0         0         0         0         0
         0         0         0         0         0         0         0         0
         0         0         0         0         0         0         0         0
         0         0         0         0         0         0         0         0
         0         0         0         0         0         0         0         0
         0         0         0         0         0         0         0         0
         0         0         0         0         0         0         0         0
         0         0         0         0         0         0         0         0
         0         0         0         0         0         0         0         0
         0         0         0         0         0         0         0         0
         0         0         0         0         0         0         0         0
         0         0         0         0         0         0         0         0
         0         0         0         0         0         0         0         0
         0         0         0         0         0         0         0         0
         0         0         0         0         0         0         0         0
         0         0         0         0         0         0         0         0
         0         0         0         0         0         0         0         0
         0         0         0         0         0         0         0         0
         0         0         0         0         0         0         0         0
         0         0         0         0         0         0         0         0
         0         0         0         0         0         0         0         0
         0         0         0         0         0         0         0         0
         0         0         0         0         0         0         0         0
         0         0         0         0         0         0         0         0
         0         0         0         0         0         0         0         0
         0         0         0         0         0         0         0         0
         0         0         0         0         0         0         0         0
         0         0         0         0         0         0         0         0
         0         0         0         0         0         0         0         0
         0         0         0         0         0         0         0         0
         0         0         0         0         0         0         0         0
         0         0         0         0         0         0         0         0
         0         0         0         0         0         0         0         0
         0         0         0         0         0         0         0         0
         0         0         0         0         0         0         0         0
         0         0         0         0         0         0         0         0
         0         0         0         0         0         0         0         0
         0         0         0         0         0         0         0         0
         0         0         0         0         0         0         0         0
         0         0         0         0         0         0         0         0
         0         0         0         0         0         0         0         0
         0         0         0         0         0         0         0         0
         0         0         0         0         0         0         0         0
         0         0         0         0         0         0         0         0
         0         0         0         0         0         0         0         0
         0         0         0         0         0         0         0         0
         0         0         0         0         0         0         0         0
         0         0         0         0         0         0         0         0
         0         0         0         0         0         0         0         0
         0         0         0         0         0         0         0         0
         0         0         0         0         0         0         0         0
         0         0         0         0         0         0         0         0
         0         0         0         0         0         0         0         0
         0         0         0         0         0         0         0         0
         0         0         0         0         0         0         0         0
         0         0         0         0         0         0         0         0
         0         0         0         0         0         0         0         0
         0         0         0         0         0         0         0         0
         0         0         0         0         0         0         0         0
         0         0         0         0         0         0         0         0
         0         0         0         0         0         0         0         0
         0         0         0         0         0         0         0         0
         0         0         0         0         0         0         0         0
         0         0         0         0         0         0         0         0
         0         0         0         0         0         0         0         0
         0         0         0         0         0         0         0         0
         0         0         0         0         0         0         0         0
         0         0         0         0         0         0         0         0
         0         0         0         0         0         0         0         0
         0         0         0         0         0         0         0         0
         0         0         0         0         0         0         0         0
         0         0         0         0         0         0         0         0
         0         0         0         0         0         0         0         0
         0         0         0         0         0         0         0         0
         0         0         0         0         0         0         0         0
         0         0         0         0         0         0         0         0
         0         0         0         0         0         0         0         0
         0         0         0         0         0         0         0         0
         0         0         0         0         0         0         0         0
         0         0         0         0         0         0         0         0
         0         0         0         0         0         0         0         0
         0         0         0         0         0         0         0         0
         0         0         0         0         0         0         0         0
         0         0         0         0         0         0         0         0
         0         0         0         0         0         0         0         0
         0         0         0         0         0         0         0         0
         0         0         0         0         0         0         0         0
         0         0         0         0         0         0         0         0
         0         0         0         0         0         0         0         0
         0         0         0         0         0         0         0         0
         0         0         0         0         0         0         0         0
         0         0         0         0         0         0         0         0
         0         0         0         0         0         0         0         0
         0         0         0         0         0         0         0         0
         0         0         0         0         0         0         0         0
         0         0         0         0         0         0         0         0
         0         0         0         0         0         0         0         0
         0         0         0         0         0         0         0         0
         0         0         0         0         0         0         0         0
         0         0         0         0         0         0         0         0
         0         0         0         0         0         0         0         0
         0         0         0         0         0         0         0         0
         0         0         0         0         0         0         0         0
         0         0         0         0         0         0         0         0
         0         0         0         0         0         0         0         0
         0         0         0         0         0         0         0         0
         0         0         0         0         0         0         0         0
         0         0         0         0         0         0         0         0
         0         0         0         0         0         0         0         0
         0         0         0         0         0         0         0         0
         0         0         0         0         0         0         0         0
         0         0         0         0         0         0         0         0
         0         0         0         0         0         0         0         0
         0         0         0         0         0         0         0         0
         0         0         0         0         0         0         0         0
         0         0         0         0         0         0         0         0
         0         0         0         0         0         0         0         0
         0         0         0         0         0         0         0         0
         0         0         0         0         0         0         0         0
         0         0         0         0         0         0         0         0
         0         0         0         0         0         0         0         0
         0         0         0         0         0         0         0         0
         0         0         0         0         0         0         0         0
         0         0         0         0         0         0         0         0
         0         0         0         0         0         0         0         0
         0         0         0         0         0         0         0         0
         0         0         0         0         0         0         0         0
         0         0         0         0         0         0         0         0
         0         0         0         0         0         0         0         0
         0         0         0         0         0         0         0         0
         0         0         0         0         0         0         0         0
         0         0         0         0         0         0         0         0
         0         0         0         0         0         0         0         0
         0         0         0         0         0         0         0         0
         0         0         0         0         0         0         0         0
         0         0         0         0         0         0         0         0
         0         0         0         0         0         0         0         0
         0         0         0         0         0         0         0         0
         0         0         0         0         0         0         0         0
         0         0         0         0         0         0         0         0
         0         0         0         0         0         0         0         0
         0         0         0         0         0         0         0         0
         0         0         0         0         0         0         0         0
         0         0         0         0         0         0         0         0
         0         0         0         0         0         0         0         0
         0         0         0         0         0         0         0         0
         0         0         0         0         0         0         0         0
         0         0         0         0         0         0         0         0
         0         0         0         0         0         0         0         0
         0         0         0         0         0         0         0         0
         0         0         0         0         0         0         0         0
         0         0         0         0         0         0         0         0
         0         0         0         0         0         0         0         0
         0         0         0         0         0         0         0         0
         0         0         0         0         0         0         0         0
         0         0         0         0         0         0         0         0
         0         0         0         0         0         0         0         0
         0         0         0         0         0         0         0         0
         0         0         0         0         0         0         0         0
         0         0         0         0         0         0         0         0
         0         0         0         0         0         0         0         0
         0         0         0         0         0         0         0         0
         0         0         0         0         0         0         0         0
         0         0         0         0         0         0         0         0
         0         0         0         0         0         0         0         0
         0         0         0         0         0         0         0         0
         0         0         0         0         0         0         0         0
         0         0         0         0         0         0         0         0
         0         0         0         0         0         0         0         0
         0         0         0         0         0         0         0         0
         0         0         0         0         0         0         0         0
         0         0         0         0         0         0         0         0
         0         0         0         0         0         0         0         0
         0         0         0         0         0         0         0         0
         0         0         0         0         0         0         0         0
         0         0         0         0         0         0         0         0
         0         0         0         0         0         0         0         0
         0         0         0         0         0         0         0         0
         0         0         0         0         0         0         0         0
         0         0         0         0         0         0         0         0
         0         0         0         0         0         0         0         0
         0         0         0         0         0         0         0         0
         0         0         0         0         0         0         0         0
         0         0         0         0         0         0         0         0
         0         0         0         0         0         0         0         0
         0         0         0         0         0         0         0         0
         0         0         0         0         0         0         0         0
         0         0         0         0         0         0         0         0
         0         0         0         0         0         0         0         0
         0         0         0         0         0         0         0         0
         0         0         0         0         0         0         0         0
         0         0         0         0         0         0         0         0
         0         0         0         0         0         0         0         0
         0         0         0         0         0         0         0         0
         0         0         0         0         0         0         0         0
         0         0         0         0         0         0         0         0
         0         0         0         0         0         0         0         0
         0         0         0         0         0         0         0         0
         0         0         0         0         0         0         0         0
         0         0         0         0         0         0         0         0
         0         0         0         0         0         0         0         0
         0         0         0         0         0         0         0         0
         0         0         0         0         0         0         0         0
         0         0         0         0         0         0         0         0
         0         0         0         0         0         0         0         0
         0         0         0         0         0         0         0         0
         0         0         0         0         0         0         0         0
         0         0         0         0         0         0         0         0
         0         0         0         0         0         0         0         0
         0         0         0         0         0         0         0         0
         0         0         0         0         0         0         0         0
         0         0         0         0         0         0         0         0
         0         0         0         0         0         0         0         0
         0         0         0         0         0         0         0         0
         0         0         0         0         0         0         0         0
         0         0         0         0         0         0         0         0
         0         0         0         0         0         0         0         0
         0         0         0         0         0         0         0         0
         0         0         0         0         0         0         0         0
         0         0         0         0         0         0         0         0
         0         0         0         0         0         0         0         0
         0         0         0         0         0         0         0         0
         0         0         0         0         0         0         0         0
         0         0         0         0         0         0         0         0
         0         0         0         0         0         0         0         0
         0         0         0         0         0         0         0         0
         0         0         0         0         0         0         0         0
         0         0         0         0         0         0         0         0
         0         0         0         0         0         0         0         0
         0         0         0         0         0         0         0         0
         0         0         0         0         0         0         0         0
         0         0         0         0         0         0         0         0
         0         0         0         0         0         0         0         0
         0         0         0         0         0         0         0         0
         0         0         0         0         0         0         0         0
         0         0         0         0         0         0         0         0
         0         0         0         0         0         0         0         0
         0         0         0         0         0         0         0         0
         0         0         0         0         0         0         0         0
         0         0         0         0         0         0         0         0
         0         0         0         0         0         0         0         0
         0         0         0         0         0         0         0         0
         0         0         0         0         0         0         0         0
         0         0         0         0         0         0         0         0
         0         0         0         0         0         0         0         0
         0         0         0         0         0         0         0         0
         0         0         0         0         0         0         0         0
         0         0         0         0         0         0         0         0
         0         0         0         0         0         0         0         0
         0         0         0         0         0         0         0         0
         0         0         0         0         0         0         0         0
         0         0         0         0         0         0         0         0
         0         0         0         0         0         0         0         0
         0         0         0         0         0         0         0         0
         0         0         0         0         0         0         0         0
         0         0         0         0         0         0         0         0
         0         0         0         0         0         0         0         0
         0         0         0         0         0         0         0         0
         0         0         0         0         0         0         0         0
         0         0         0         0         0         0         0         0
         0         0         0         0         0         0         0         0
         0         0         0         0         0         0         0         0
         0         0         0         0         0         0         0         0
         0         0         0         0         0         0         0         0
         0         0         0         0         0         0         0         0
         0         0         0         0         0         0         0         0
         0         0         0         0         0         0         0         0
         0         0         0         0         0         0         0         0
         0         0         0         0         0         0         0         0
         0         0         0         0         0         0         0         0
         0         0         0         0         0         0         0         0
         0         0         0         0         0         0         0         0
         0         0         0         0         0         0         0         0
         0         0         0         0         0         0         0         0
         0         0         0         0         0         0         0         0
         0         0         0         0         0         0         0         0
         0         0         0         0         0         0         0         0
         0         0         0         0         0         0         0         0
         0         0         0         0         0         0         0         0
         0         0         0         0         0         0         0         0
         0         0         0         0         0         0         0         0
         0         0         0         0         0         0         0         0
         0         0         0         0         0         0         0         0
         0         0         0         0         0         0         0         0
         0         0         0         0         0         0         0         0
         0         0         0         0         0         0         0         0
         0         0         0         0         0         0         0         0
         0         0         0         0         0         0         0         0
         0         0         0         0         0         0         0         0
         0         0         0         0         0         0         0         0
         0         0         0         0         0         0         0         0
         0         0         0         0         0         0         0         0
         0         0         0         0         0         0         0         0
         0         0         0         0         0         0         0         0
         0         0         0         0         0         0         0         0
         0         0         0         0         0         0         0         0
         0         0         0         0         0         0         0         0
         0         0         0         0         0         0         0         0
         0         0         0         0         0         0         0         0
         0         0         0         0         0         0         0         0
         0         0         0         0         0         0         0         0
         0         0         0         0         0         0         0         0
         0         0         0         0         0         0         0         0
         0         0         0         0         0         0         0         0
         0         0         0         0         0         0         0         0
         0         0         0         0         0         0         0         0
         0         0         0         0         0         0         0         0
         0         0         0         0         0         0         0         0
         0         0         0         0         0         0         0         0
         0         0         0         0         0         0         0         0
         0         0         0         0         0         0         0         0
         0         0         0         0         0         0         0         0
         0         0         0         0         0         0         0         0
         0         0         0         0         0         0         0         0
         0         0         0         0         0         0         0         0
         0         0         0         0         0         0         0         0
         0         0         0         0         0         0         0         0
         0         0         0         0         0         0         0         0
         0         0         0         0         0         0         0         0
         0         0         0         0         0         0         0         0
         0         0         0         0         0         0         0         0
         0         0         0         0         0         0         0         0
         0         0         0         0         0         0         0         0
         0         0         0         0         0         0         0         0
         0         0         0         0         0         0         0         0
         0         0         0         0         0         0         0         0
         0         0         0         0         0         0         0         0
         0         0         0         0         0         0         0         0
         0         0         0         0         0         0         0         0
         0         0         0         0         0         0         0         0
         0         0         0         0         0         0         0         0
         0         0         0         0         0         0         0         0
         0         0         0         0         0         0         0         0
         0         0         0         0         0         0         0         0
         0         0         0         0         0         0         0         0
         0         0         0         0         0         0         0         0
         0         0         0         0         0         0         0         0
         0         0         0         0         0         0         0         0
         0         0         0         0         0         0         0         0
         0         0         0         0         0         0         0         0
         0         0         0         0         0         0         0         0
         0         0         0         0         0         0         0         0
         0         0         0         0         0         0         0         0
         0         0         0         0         0         0         0         0
         0         0         0         0         0         0         0         0
         0         0         0         0         0         0         0         0
         0         0         0         0         0         0         0         0
         0         0         0         0         0         0         0         0
         0         0         0         0         0         0         0         0
         0         0         0         0         0         0         0         0
         0         0         0         0         0         0         0         0
         0         0         0         0         0         0         0         0
         0         0         0         0         0         0         0         0
         0         0         0         0         0         0         0         0
         0         0         0         0         0         0         0         0
         0         0         0         0         0         0         0         0
         0         0         0         0         0         0         0         0
         0         0         0         0         0         0         0         0
         0         0         0         0         0         0         0         0
         0         0         0         0         0         0         0         0
         0         0         0         0         0         0         0         0
         0         0         0         0         0         0         0         0
         0         0         0         0         0         0         0         0
         0         0         0         0         0         0         0         0
         0         0         0         0         0         0         0         0
         0         0         0         0         0         0         0         0
         0         0         0         0         0         0         0         0
         0         0         0         0         0         0         0         0
         0         0         0         0         0         0         0         0
         0         0         0         0         0         0         0         0
         0         0         0         0         0         0         0         0
         0         0         0         0         0         0         0         0
         0         0         0         0         0         0         0         0
         0         0         0         0         0         0         0         0
         0         0         0         0         0         0         0         0
         0         0         0         0         0         0         0         0
         0         0         0         0         0         0         0         0
         0         0         0         0         0         0         0         0
         0         0         0         0         0         0         0         0
         0         0         0         0         0         0         0         0
         0         0         0         0         0         0         0         0
         0         0         0         0         0         0         0         0
         0         0         0         0         0         0         0         0
         0         0         0         0         0         0         0         0
         0         0         0         0         0         0         0         0
         0         0         0         0         0         0         0         0
         0         0         0         0         0         0         0         0
         0         0         0         0         0         0         0         0
         0         0         0         0         0         0         0         0
         0         0         0         0         0         0         0         0
         0         0         0         0         0         0         0         0
         0         0         0         0         0         0         0         0
         0         0         0         0         0         0         0         0
         0         0         0         0         0         0         0         0
         0         0         0         0         0         0         0         0
         0         0         0         0         0         0         0         0
         0         0         0         0         0         0         0         0
         0         0         0         0         0         0         0         0
         0         0         0         0         0         0         0         0
         0         0         0         0         0         0         0         0
         0         0         0         0         0         0         0         0
         0         0         0         0         0         0         0         0
         0         0         0         0         0         0         0         0
         0         0         0         0         0         0         0         0
         0         0         0         0         0         0         0         0
         0         0         0         0         0         0         0         0
         0         0         0         0         0         0         0         0
         0         0         0         0         0         0         0         0
         0         0         0         0         0         0         0         0
         0         0         0         0         0         0         0         0
         0         0         0         0         0         0         0         0
         0         0         0         0         0         0         0         0
         0         0         0         0         0         0         0         0
         0         0         0         0         0         0         0         0
         0         0         0         0         0         0         0         0
         0         0         0         0         0         0         0         0
         0         0         0         0         0         0         0         0
         0         0         0         0         0         0         0         0
         0         0         0         0         0         0         0         0
         0         0         0         0         0         0         0         0
         0         0         0         0         0         0         0         0
         0         0         0         0         0         0         0         0
         0         0         0         0         0         0         0         0
         0         0         0         0         0         0         0         0
         0         0         0         0         0         0         0         0
         0         0         0         0         0         0         0         0
         0         0         0         0         0         0         0         0
         0         0         0         0         0         0         0         0
         0         0         0         0         0         0         0         0
         0         0         0         0         0         0         0         0
         0         0         0         0         0         0         0         0
         0         0         0         0         0         0         0         0
         0         0         0         0         0         0         0         0
         0         0         0         0         0         0         0         0
         0         0         0         0         0         0         0         0
         0         0         0         0         0         0         0         0
         0         0         0         0         0         0         0         0
         0         0         0         0         0         0         0         0
         0         0         0         0         0         0         0         0
         0         0         0         0         0         0         0         0
         0         0         0         0         0         0         0         0
         0         0         0         0         0         0         0         0
         0         0         0         0         0         0         0         0
         0         0         0         0         0         0         0         0
         0         0         0         0         0         0         0         0
         0         0         0         0         0         0         0         0
         0         0         0         0         0         0         0         0
         0         0         0         0         0         0         0         0
         0         0         0         0         0         0         0         0
         0         0         0         0         0         0         0         0
         0         0         0         0         0         0         0         0
         0         0         0         0         0         0         0         0
         0         0         0         0         0         0         0         0
         0         0         0         0         0         0         0         0
         0         0         0         0         0         0         0         0
         0         0         0         0         0         0         0         0
         0         0         0         0         0         0         0         0
         0         0         0         0         0         0         0         0
         0         0         0         0         0         0         0         0
         0         0         0         0         0         0         0         0
         0         0         0         0         0         0         0         0
         0         0         0         0         0         0         0         0
         0         0         0         0         0         0         0         0
         0         0         0         0         0         0         0         0
         0         0         0         0         0         0         0         0
         0         0         0         0         0         0         0         0
         0         0         0         0         0         0         0         0
         0         0         0         0         0         0         0         0
         0         0         0         0         0         0         0         0
         0         0         0         0         0         0         0         0
         0         0         0         0         0         0         0         0
         0         0         0         0         0         0         0         0
         0         0         0         0         0         0         0         0
         0         0         0         0         0         0         0         0
         0         0         0         0         0         0         0         0
         0         0         0         0         0         0         0         0
         0         0         0         0         0         0         0         0
         0         0         0         0         0         0         0         0
         0         0         0         0         0         0         0         0
         0         0         0         0         0         0         0         0
         0         0         0         0         0         0         0         0
         0         0         0         0         0         0         0         0
         0         0         0         0         0         0         0         0
         0         0         0         0         0         0         0         0
         0         0         0         0         0         0         0         0
         0         0         0         0         0         0         0         0
         0         0         0         0         0         0         0         0
         0         0         0         0         0         0         0         0
         0         0         0         0         0         0         0         0
         0         0         0         0         0         0         0         0
         0         0         0         0         0         0         0         0
         0         0         0         0         0         0         0         0
         0         0         0         0         0         0         0         0
         0         0         0         0         0         0         0         0
         0         0         0         0         0         0         0         0
         0         0         0         0         0         0         0         0
         0         0         0         0         0         0         0         0
         0         0         0         0         0         0         0         0
         0         0         0         0         0         0         0         0
         0         0         0         0         0         0         0         0
         0         0         0         0         0         0         0         0
         0         0         0         0         0         0         0         0
         0         0         0         0         0         0         0         0
         0         0         0         0         0         0         0         0
         0         0         0         0         0         0         0         0
         0         0         0         0         0         0         0         0
         0         0         0         0         0         0         0         0
         0         0         0         0         0         0         0         0
         0         0         0         0         0         0         0         0
         0         0         0         0         0         0         0         0
         0         0         0         0         0         0         0         0
         0         0         0         0         0         0         0         0
         0         0         0         0         0         0         0         0
         0         0         0         0         0         0         0         0
         0         0         0         0         0         0         0         0
         0         0         0         0         0         0         0         0
         0         0         0         0         0         0         0         0
         0         0         0         0         0         0         0         0
         0         0         0         0         0         0         0         0
         0         0         0         0         0         0         0         0
         0         0         0         0         0         0         0         0
         0         0         0         0         0         0         0         0
         0         0         0         0         0         0         0         0
         0         0         0         0         0         0         0         0
         0         0         0         0         0         0         0         0
         0         0         0         0         0         0         0         0
         0         0         0         0         0         0         0         0
         0         0         0         0         0         0         0         0
         0         0         0         0         0         0         0         0
         0         0         0         0         0         0         0         0
         0         0         0         0         0         0         0         0
         0         0         0         0         0         0         0         0
         0         0         0         0         0         0         0         0
         0         0         0         0         0         0         0         0
         0         0         0         0         0         0         0         0
         0         0         0         0         0         0         0         0
         0         0         0         0         0         0         0         0
         0         0         0         0         0         0         0         0
         0         0         0         0         0         0         0         0
         0         0         0         0         0         0         0         0
         0         0         0         0         0         0         0         0
         0         0         0         0         0         0         0         0
         0         0         0         0         0         0         0         0
         0         0         0         0         0         0         0         0
         0         0         0         0         0         0         0         0
         0         0         0         0         0         0         0         0
         0         0         0         0         0         0         0         0
         0         0         0         0         0         0         0         0
         0         0         0         0         0         0         0         0
         0         0         0         0         0         0         0         0
         0         0         0         0         0         0         0         0
         0         0         0         0         0         0         0         0
         0         0         0         0         0         0         0         0
         0         0         0         0         0         0         0         0
         0         0         0         0         0         0         0         0
         0         0         0         0         0         0         0         0
         0         0         0         0         0         0         0         0
         0         0         0         0         0         0         0         0
         0         0         0         0         0         0         0         0
         0         0         0         0         0         0         0         0
         0         0         0         0         0         0         0         0
         0         0         0         0         0         0         0         0
         0         0         0         0         0         0         0         0
         0         0         0         0         0         0         0         0
         0         0         0         0         0         0         0         0
         0         0         0         0         0         0         0         0
         0         0         0         0         0         0         0         0
         0         0         0         0         0         0         0         0
         0         0         0         0         0         0         0         0
         0         0         0         0         0         0         0         0
         0         0         0         0         0         0         0         0
         0         0         0         0         0         0         0         0
         0         0         0         0         0         0         0         0
         0         0         0         0         0         0         0         0
         0         0         0         0         0         0         0         0
         0         0         0         0         0         0         0         0
         0         0         0         0         0         0         0         0
         0         0         0         0         0         0         0         0
         0         0         0         0         0         0         0         0
         0         0         0         0         0         0         0         0
         0         0         0         0         0         0         0         0
         0         0         0         0         0         0         0         0
         0         0         0         0         0         0         0         0
         0         0         0         0         0         0         0         0
         0         0         0         0         0         0         0         0
         0         0         0         0         0         0         0         0
         0         0         0         0         0         0         0         0
         0         0         0         0         0         0         0         0
         0         0         0         0         0         0         0         0
         0         0         0         0         0         0         0         0
         0         0         0         0         0         0         0         0
         0         0         0         0         0         0         0         0
         0         0         0         0         0         0         0         0
         0         0         0         0         0         0         0         0
         0         0         0         0         0         0         0         0
         0         0         0         0         0         0         0         0
         0         0         0         0         0         0         0         0
         0         0         0         0         0         0         0         0
         0         0         0         0         0         0         0         0
         0         0         0         0         0         0         0         0
         0         0         0         0         0         0         0         0
         0         0         0         0         0         0         0         0
         0         0         0         0         0         0         0         0
         0         0         0         0         0         0         0         0
         0         0         0         0         0         0         0         0
         0         0         0         0         0         0         0         0
         0         0         0         0         0         0         0         0
         0         0         0         0         0         0         0         0
         0         0         0         0         0         0         0         0
         0         0         0         0         0         0         0         0
         0         0         0         0         0         0         0         0
         0         0         0         0         0         0         0         0
         0         0         0         0         0         0         0         0
         0         0         0         0         0         0         0         0
         0         0         0         0         0         0         0         0
         0         0         0         0         0         0         0         0
         0         0         0         0         0         0         0         0
         0         0         0         0         0         0         0         0
         0         0         0         0         0         0         0         0
         0         0         0         0         0         0         0         0
         0         0         0         0         0         0         0         0
         0         0         0         0         0         0         0         0
         0         0         0         0         0         0         0         0
         0         0         0         0         0         0         0         0
         0         0         0         0         0         0         0         0
         0         0         0         0         0         0         0         0
         0         0         0         0         0         0         0         0
         0         0         0         0         0         0         0         0
         0         0         0         0         0         0         0         0
         0         0         0         0         0         0         0         0
         0         0         0         0         0         0         0         0
         0         0         0         0         0         0         0         0
         0         0         0         0         0         0         0         0
         0         0         0         0         0         0         0         0
         0         0         0         0         0         0         0         0
         0         0         0         0         0         0         0         0
         0         0         0         0         0         0         0         0
         0         0         0         0         0         0         0         0
         0         0         0         0         0         0         0         0
         0         0         0         0         0         0         0         0
         0         0         0         0         0         0         0         0
         0         0         0         0         0         0         0         0
         0         0         0         0         0         0         0         0
         0         0         0         0         0         0         0         0
         0         0         0         0         0         0         0         0
         0         0         0         0         0         0         0         0
         0         0         0         0         0         0         0         0
         0         0         0         0         0         0         0         0
         0         0         0         0         0         0         0         0
         0         0         0         0         0         0         0         0
         0         0         0         0         0         0         0         0
         0         0         0         0         0         0         0         0
         0         0         0         0         0         0         0         0
         0         0         0         0         0         0         0         0
         0         0         0         0         0         0         0         0
         0         0         0         0         0         0         0         0
         0         0         0         0         0         0         0         0
         0         0         0         0         0         0         0         0
         0         0         0         0         0         0         0         0
         0         0         0         0         0         0         0         0
         0         0         0         0         0         0         0         0
         0         0         0         0         0         0         0         0
         0         0         0         0         0         0         0         0
         0         0         0         0         0         0         0         0
         0         0         0         0         0         0         0         0
         0         0         0         0         0         0         0         0
         0         0         0         0         0         0         0         0
         0         0         0         0         0         0         0         0
         0         0         0         0         0         0         0         0
         0         0         0         0         0         0         0         0
         0         0         0         0         0         0         0         0
         0         0         0         0         0         0         0         0
         0         0         0         0         0         0         0         0
         0         0         0         0         0         0         0         0
         0         0         0         0         0         0         0         0
         0         0         0         0         0         0         0         0
         0         0         0         0         0         0         0         0
         0         0         0         0         0         0         0         0
         0         0         0         0         0         0         0         0
         0         0         0         0         0         0         0         0
         0         0         0         0         0         0         0         0
         0         0         0         0         0         0         0         0
         0         0         0         0         0         0         0         0
         0         0         0         0         0         0         0         0
         0         0         0         0         0         0         0         0
         0         0         0         0         0         0         0         0
         0         0         0         0         0         0         0         0
         0         0         0         0         0         0         0         0
         0         0         0         0         0         0         0         0
         0         0         0         0         0         0         0         0
         0         0         0         0         0         0         0         0
         0         0         0         0         0         0         0         0
         0         0         0         0         0         0         0         0
         0         0         0         0         0         0         0         0
         0         0         0         0         0         0         0         0
         0         0         0         0         0         0         0         0
         0         0         0         0         0         0         0         0
         0         0         0         0         0         0         0         0
         0         0         0         0         0         0         0         0
         0         0         0         0         0         0         0         0
         0         0         0         0         0         0         0         0
         0         0         0         0         0         0         0         0
         0         0         0         0         0         0         0         0
         0         0         0         0         0         0         0         0
         0         0         0         0         0         0         0         0
         0         0         0         0         0         0         0         0
         0         0         0         0         0         0         0         0
         0         0         0         0         0         0         0         0
         0         0         0         0         0         0         0         0
         0         0         0         0         0         0         0         0
         0         0         0         0         0         0         0         0
         0         0         0         0         0         0         0         0
         0         0         0         0         0         0         0         0
         0         0         0         0         0         0         0         0
         0         0         0         0         0         0         0         0
         0         0         0         0         0         0         0         0
         0         0         0         0         0         0         0         0
         0         0         0         0         0         0         0         0
         0         0         0         0         0         0         0         0
         0         0         0         0         0         0         0         0
         0         0         0         0         0         0         0         0
         0         0         0         0         0         0         0         0
         0         0         0         0         0         0         0         0
         0         0         0         0         0         0         0         0
         0         0         0         0         0         0         0         0
         0         0         0         0         0         0         0         0
         0         0         0         0         0         0         0         0
         0         0         0         0         0         0         0         0
         0         0         0         0         0         0         0         0
         0         0         0         0         0         0         0         0
         0         0         0         0         0         0         0         0
         0         0         0         0         0         0         0         0
         0         0         0         0         0         0         0         0
         0         0         0         0         0         0         0         0
         0         0         0         0         0         0         0         0
         0         0         0         0         0         0         0         0
         0         0         0         0         0         0         0         0
         0         0         0         0         0         0         0         0
         0         0         0         0         0         0         0         0
         0         0         0         0         0         0         0         0
         0         0         0         0         0         0         0         0
         0         0         0         0         0         0         0         0
         0         0         0         0         0         0         0         0
         0         0         0         0         0         0         0         0
         0         0         0         0         0         0         0         0
         0         0         0         0         0         0         0         0
         0         0         0         0         0         0         0         0
         0         0         0         0         0         0         0         0
         0         0         0         0         0         0         0         0
         0         0         0         0         0         0         0         0
         0         0         0         0         0         0         0         0
         0         0         0         0         0         0         0         0
         0         0         0         0         0         0         0         0
         0         0         0         0         0         0         0         0
         0         0         0         0         0         0         0         0
         0         0         0         0         0         0         0         0
         0         0         0         0         0         0         0         0
         0         0         0         0         0         0         0         0
         0         0         0         0         0         0         0         0
         0         0         0         0         0         0         0         0
         0         0         0         0         0         0         0         0
         0         0         0         0         0         0         0         0
         0         0         0         0         0         0         0         0
         0         0         0         0         0         0         0         0
         0         0         0         0         0         0         0         0
         0         0         0         0         0         0         0         0
         0         0         0         0         0         0         0         0
         0         0         0         0         0         0         0         0
         0         0         0         0         0         0         0         0
         0         0         0         0         0         0         0         0
         0         0         0         0         0         0         0         0
         0         0         0         0         0         0         0         0
         0         0         0         0         0         0         0         0
         0         0         0         0         0         0         0         0
         0         0         0         0         0         0         0         0
         0         0         0         0         0         0         0         0
         0         0         0         0         0         0         0         0
         0         0         0         0         0         0         0         0
         0         0         0         0         0         0         0         0
         0         0         0         0         0         0         0         0
         0         0         0         0         0         0         0         0
         0         0         0         0         0         0         0         0
         0         0         0         0         0         0         0         0
         0         0         0         0         0         0         0         0
         0         0         0         0         0         0         0         0
         0         0         0         0         0         0         0         0
         0         0         0         0         0         0         0         0
         0         0         0         0         0         0         0         0
         0         0         0         0         0         0         0         0
         0         0         0         0         0         0         0         0
         0         0         0         0         0         0         0         0
         0         0         0         0         0         0         0         0
         0         0         0         0         0         0         0         0
         0         0         0         0         0         0         0         0
         0         0         0         0         0         0         0         0
         0         0         0         0         0         0         0         0
         0         0         0         0         0         0         0         0
         0         0         0         0         0         0         0         0
         0         0         0         0         0         0         0         0
         0         0         0         0         0         0         0         0
         0         0         0         0         0         0         0         0
         0         0         0         0         0         0         0         0
         0         0         0         0         0         0         0         0
         0         0         0         0         0         0         0         0
         0         0         0         0         0         0         0         0
         0         0         0         0         0         0         0         0
         0         0         0         0         0         0         0         0
         0         0         0         0         0         0         0         0
         0         0         0         0         0         0         0         0
         0         0         0         0         0         0         0         0
         0         0         0         0         0         0         0         0
         0         0         0         0         0         0         0         0
         0         0         0         0         0         0         0         0
         0         0         0         0         0         0         0         0
         0         0         0         0         0         0         0         0
         0         0         0         0         0         0         0         0
         0         0         0         0         0         0         0         0
         0         0         0         0         0         0         0         0
         0         0         0         0         0         0         0         0
         0         0         0         0         0         0         0         0
         0         0         0         0         0         0         0         0
         0         0         0         0         0         0         0         0
         0         0         0         0         0         0         0         0
         0         0         0         0         0         0         0         0
         0         0         0         0         0         0         0         0
         0         0         0         0         0         0         0         0
         0         0         0         0         0         0         0         0
         0         0         0         0         0         0         0         0
         0         0         0         0         0         0         0         0
         0         0         0         0         0         0         0         0
         0         0         0         0         0         0         0         0
         0         0         0         0         0         0         0         0
         0         0         0         0         0         0         0         0
         0         0         0         0         0         0         0         0
         0         0         0         0         0         0         0         0
         0         0         0         0         0         0         0         0
         0         0         0         0         0         0         0         0
         0         0         0         0         0         0         0         0
         0         0         0         0         0         0         0         0
         0         0         0         0         0         0         0         0
         0         0         0         0         0         0         0         0
         0         0         0         0         0         0         0         0
         0         0         0         0         0         0         0         0
         0         0         0         0         0         0         0         0
         0         0         0         0         0         0         0         0
         0         0         0         0         0         0         0         0
         0         0         0         0         0         0         0         0
         0         0         0         0         0         0         0         0
         0         0         0         0         0         0         0         0
         0         0         0         0         0         0         0         0
         0         0         0         0         0         0         0         0
         0         0         0         0         0         0         0         0
         0         0         0         0         0         0         0         0
         0         0         0         0         0         0         0         0
         0         0         0         0         0         0         0         0
         0         0         0         0         0         0         0         0
         0         0         0         0         0         0         0         0
         0         0         0         0         0         0         0         0
         0         0         0         0         0         0         0         0
         0         0         0         0         0         0         0         0
         0         0         0         0         0         0         0         0
         0         0         0         0         0         0         0         0
         0         0         0         0         0         0         0         0
         0         0         0         0         0         0         0         0
         0         0         0         0         0         0         0         0
         0         0         0         0         0         0         0         0
         0         0         0         0         0         0         0         0
         0         0         0         0         0         0         0         0
         0         0         0         0         0         0         0         0
         0         0         0         0         0         0         0         0
         0         0         0         0         0         0         0         0
         0         0         0         0         0         0         0         0
         0         0         0         0         0         0         0         0
         0         0         0         0         0         0         0         0
         0         0         0         0         0         0         0         0
         0         0         0         0         0         0         0         0
         0         0         0         0         0         0         0         0
         0         0         0         0         0         0         0         0
         0         0         0         0         0         0         0         0
         0         0         0         0         0         0         0         0
         0         0         0         0         0         0         0         0
         0         0         0         0         0         0         0         0
         0         0         0         0         0         0         0         0
         0         0         0         0         0         0         0         0
         0         0         0         0         0         0         0         0
         0         0         0         0         0         0         0         0
         0         0         0         0         0         0         0         0
         0         0         0         0         0         0         0         0
         0         0         0         0         0         0         0         0
         0         0         0         0         0         0         0         0
         0         0         0         0         0         0         0         0
         0         0         0         0         0         0         0         0
         0         0         0         0         0         0         0         0
         0         0         0         0         0         0         0         0
         0         0         0         0         0         0         0         0
         0         0         0         0         0         0         0         0
         0         0         0         0         0         0         0         0
         0         0         0         0         0         0         0         0
         0         0         0         0         0         0         0         0
         0         0         0         0         0         0         0         0
         0         0         0         0         0         0         0         0
         0         0         0         0         0         0         0         0
         0         0         0         0         0         0         0         0
         0         0         0         0         0         0         0         0
         0         0         0         0         0         0         0         0
         0         0         0         0         0         0         0         0
         0         0         0         0         0         0         0         0
         0         0         0         0         0         0         0         0
         0         0         0         0         0         0         0         0
         0         0         0         0         0         0         0         0
         0         0         0         0         0         0         0         0
         0         0         0         0         0         0         0         0
         0         0         0         0         0         0         0         0
         0         0         0         0         0         0         0         0
         0         0         0         0         0         0         0         0
         0         0         0         0         0         0         0         0
         0         0         0         0         0         0         0         0
         0         0         0         0         0         0         0         0
         0         0         0         0         0         0         0         0
         0         0         0         0         0         0         0         0
         0         0         0         0         0         0         0         0
         0         0         0         0         0         0         0         0
         0         0         0         0         0         0         0         0
         0         0         0         0         0         0         0         0
         0         0         0         0         0         0         0         0
         0         0         0         0         0         0         0         0
         0         0         0         0         0         0         0         0
         0         0         0         0         0         0         0         0
         0         0         0         0         0         0         0         0
         0         0         0         0         0         0         0         0
         0         0         0         0         0         0         0         0
         0         0         0         0         0         0         0         0
         0         0         0         0         0         0         0         0
         0         0         0         0         0         0         0         0
         0         0         0         0         0         0         0         0
         0         0         0         0         0         0         0         0
         0         0         0         0         0         0         0         0
         0         0         0         0         0         0         0         0
         0         0         0         0         0         0         0         0
         0         0         0         0         0         0         0         0
         0         0         0         0         0         0         0         0
         0         0         0         0         0         0         0         0
         0         0         0         0         0         0         0         0
         0         0         0         0         0         0         0         0
         0         0         0         0         0         0         0         0
         0         0         0         0         0         0         0         0
         0         0         0         0         0         0         0         0
         0         0         0         0         0         0         0         0
         0         0         0         0         0         0         0         0
         0         0         0         0         0         0         0         0
         0         0         0         0         0         0         0         0
         0         0         0         0         0         0         0         0
         0         0         0         0         0         0         0         0
         0         0         0         0         0         0         0         0
         0         0         0         0         0         0         0         0
         0         0         0         0         0         0         0         0
         0         0         0         0         0         0         0         0
         0         0         0         0         0         0         0         0
         0         0         0         0         0         0         0         0
         0         0         0         0         0         0         0         0
         0         0         0         0         0         0         0         0
         0         0         0         0         0         0         0         0
         0         0         0         0         0         0         0         0
         0         0         0         0         0         0         0         0
         0         0         0         0         0         0         0         0
         0         0         0         0         0         0         0         0
         0         0         0         0         0         0         0         0
         0         0         0         0         0         0         0         0
         0         0         0         0         0         0         0         0
         0         0         0         0         0         0         0         0
         0         0         0         0         0         0         0         0
         0         0         0         0         0         0         0         0
         0         0         0         0         0         0         0         0
         0         0         0         0         0         0         0         0
         0         0         0         0         0         0         0         0
         0         0         0         0         0         0         0         0
         0         0         0         0         0         0         0         0
         0         0         0         0         0         0         0         0
         0         0         0         0         0         0         0         0
         0         0         0         0         0         0         0         0
         0         0         0         0         0         0         0         0
         0         0         0         0         0         0         0         0
         0         0         0         0         0         0         0         0
         0         0         0         0         0         0         0         0
         0         0         0         0         0         0         0         0
         0         0         0         0         0         0         0         0
         0         0         0         0         0         0         0         0
         0         0         0         0         0         0         0         0
         0         0         0         0         0         0         0         0
         0         0         0         0         0         0         0         0
         0         0         0         0         0         0         0         0
         0         0         0         0         0         0         0         0
         0         0         0         0         0         0         0         0
         0         0         0         0         0         0         0         0
         0         0         0         0         0         0         0         0
         0         0         0         0         0         0         0         0
         0         0         0         0         0         0         0         0
         0         0         0         0         0         0         0         0
         0         0         0         0         0         0         0         0
         0         0         0         0         0         0         0         0
         0         0         0         0         0         0         0         0
         0         0         0         0         0         0         0         0
         0         0         0         0         0         0         0         0
         0         0         0         0         0         0         0         0
         0         0         0         0         0         0         0         0
         0         0         0         0         0         0         0         0
         0         0         0         0         0         0         0         0
         0         0         0         0         0         0         0         0
         0         0         0         0         0         0         0         0
         0         0         0         0         0         0         0         0
         0         0         0         0         0         0         0         0
         0         0         0         0         0         0         0         0
         0         0         0         0         0         0         0         0
         0         0         0         0         0         0         0         0
         0         0         0         0         0         0         0         0
         0         0         0         0         0         0         0         0
         0         0         0         0         0         0         0         0
         0         0         0         0         0         0         0         0
         0         0         0         0         0         0         0         0
         0         0         0         0         0         0         0         0
         0         0         0         0         0         0         0         0
         0         0         0         0         0         0         0         0
         0         0         0         0         0         0         0         0
         0         0         0         0         0         0         0         0
         0         0         0         0         0         0         0         0
         0         0         0         0         0         0         0         0
         0         0         0         0         0         0         0         0
         0         0         0         0         0         0         0         0
         0         0         0         0         0         0         0         0
         0         0         0         0         0         0         0         0
         0         0         0         0         0         0         0         0
         0         0         0         0         0         0         0         0
         0         0         0         0         0         0         0         0
         0         0         0         0         0         0         0         0
         0         0         0         0         0         0         0         0
         0         0         0         0         0         0         0         0
         0         0         0         0         0         0         0         0
         0         0         0         0         0         0         0         0
         0         0         0         0         0         0         0         0
         0         0         0         0         0         0         0         0
         0         0         0         0         0         0         0         0
         0         0         0         0         0         0         0         0
         0         0         0         0         0         0         0         0
         0         0         0         0         0         0         0         0
         0         0         0         0         0         0         0         0
         0         0         0         0         0         0         0         0
         0         0         0         0         0         0         0         0
         0         0         0         0         0         0         0         0
         0         0         0         0         0         0         0         0
         0         0         0         0         0         0         0         0
         0         0         0         0         0         0         0         0
         0         0         0         0         0         0         0         0
         0         0         0         0         0         0         0         0
         0         0         0         0         0         0         0         0
         0         0         0         0         0         0         0         0
         0         0         0         0         0         0         0         0
         0         0         0         0         0         0         0         0
         0         0         0         0         0         0         0         0
         0         0         0         0         0         0         0         0
         0         0         0         0         0         0         0         0
         0         0         0         0         0         0         0         0
         0         0         0         0         0         0         0         0
         0         0         0         0         0         0         0         0
         0         0         0         0         0         0         0         0
         0         0         0         0         0         0         0         0
         0         0         0         0         0         0         0         0
         0         0         0         0         0         0         0         0
         0         0         0         0         0         0         0         0
         0         0         0         0         0         0         0         0
         0         0         0         0         0         0         0         0
         0         0         0         0         0         0         0         0
         0         0         0         0         0         0         0         0
         0         0         0         0         0         0         0         0
         0         0         0         0         0         0         0         0
         0         0         0         0         0         0         0         0
         0         0         0         0         0         0         0         0
         0         0         0         0         0         0         0         0
         0         0         0         0         0         0         0         0
         0         0         0         0         0         0         0         0
         0         0         0         0         0         0         0         0
         0         0         0         0         0         0         0         0
         0         0         0         0         0         0         0         0
         0         0         0         0         0         0         0         0
         0         0         0         0         0         0         0         0
         0         0         0         0         0         0         0         0
         0         0         0         0         0         0         0         0
         0         0         0         0         0         0         0         0
         0         0         0         0         0         0         0         0
         0         0         0         0         0         0         0         0
         0         0         0         0         0         0         0         0
         0         0         0         0         0         0         0         0
         0         0         0         0         0         0         0         0
         0         0         0         0         0         0         0         0
         0         0         0         0         0         0         0         0
         0         0         0         0         0         0         0         0
         0         0         0         0         0         0         0         0
         0         0         0         0         0         0         0         0
         0         0         0         0         0         0         0         0
         0         0         0         0         0         0         0         0
         0         0         0         0         0         0         0         0
         0         0         0         0         0         0         0         0
         0         0         0         0         0         0         0         0
         0         0         0         0         0         0         0         0
         0         0         0         0         0         0         0         0
         0         0         0         0         0         0         0         0
         0         0         0         0         0         0         0         0
         0         0         0         0         0         0         0         0
         0         0         0         0         0         0         0         0
         0         0         0         0         0         0         0         0
         0         0         0         0         0         0         0         0
         0         0         0         0         0         0         0         0
         0         0         0         0         0         0         0         0
         0         0         0         0         0         0         0         0
         0         0         0         0         0         0         0         0
         0         0         0         0         0         0         0         0
         0         0         0         0         0         0         0         0
         0         0         0         0         0         0         0         0
         0         0         0         0         0         0         0         0
         0         0         0         0         0         0         0         0
         0         0         0         0         0         0         0         0
         0         0         0         0         0         0         0         0
         0         0         0         0         0         0         0         0
         0         0         0         0         0         0         0         0
         0         0         0         0         0         0         0         0
         0         0         0         0         0         0         0         0
         0         0         0         0         0         0         0         0
         0         0         0         0         0         0         0         0
         0         0         0         0         0         0         0         0
         0         0         0         0         0         0         0         0
         0         0         0         0         0         0         0         0
         0         0         0         0         0         0         0         0
         0         0         0         0         0         0         0         0
         0         0         0         0         0         0         0         0
         0         0         0         0         0         0         0         0
         0         0         0         0         0         0         0         0
         0         0         0         0         0         0         0         0
         0         0         0         0         0         0         0         0
         0         0         0         0         0         0         0         0
         0         0         0         0         0         0         0         0
         0         0         0         0         0         0         0         0
         0         0         0         0         0         0         0         0
         0         0         0         0         0         0         0         0
         0         0         0         0         0         0         0         0
         0         0         0         0         0         0         0         0
         0         0         0         0         0         0         0         0
         0         0         0         0         0         0         0         0
         0         0         0         0         0         0         0         0
         0         0         0         0         0         0         0         0
         0         0         0         0         0         0         0         0
         0         0         0         0         0         0         0         0
         0         0         0         0         0         0         0         0
         0         0         0         0         0         0         0         0
         0         0         0         0         0         0         0         0
         0         0         0         0         0         0         0         0
         0         0         0         0         0         0         0         0
         0         0         0         0         0         0         0         0
         0         0         0         0         0         0         0         0
         0         0         0         0         0         0         0         0
         0         0         0         0         0         0         0         0
         0         0         0         0         0         0         0         0
         0         0         0         0         0         0         0         0
         0         0         0         0         0         0         0         0
         0         0         0         0         0         0         0         0
         0         0         0         0         0         0         0         0
         0         0         0         0         0         0         0         0
         0         0         0         0         0         0         0         0
         0         0         0         0         0         0         0         0
         0         0         0         0         0         0         0         0
         0         0         0         0         0         0         0         0
         0         0         0         0         0         0         0         0
         0         0         0         0         0         0         0         0
         0         0         0         0         0         0         0         0
         0         0         0         0         0         0         0         0
         0         0         0         0         0         0         0         0
         0         0         0         0         0         0         0         0
         0         0         0         0         0         0         0         0
         0         0         0         0         0         0         0         0
         0         0         0         0         0         0         0         0
         0         0         0         0         0         0         0         0
         0         0         0         0         0         0         0         0
         0         0         0         0         0         0         0         0
         0         0         0         0         0         0         0         0
         0         0         0         0         0         0         0         0
         0         0         0         0         0         0         0         0
         0         0         0         0         0         0         0         0
         0         0         0         0         0         0         0         0
         0         0         0         0         0         0         0         0
         0         0         0         0         0         0         0         0
         0         0         0         0         0         0         0         0
         0         0         0         0         0         0         0         0
         0         0         0         0         0         0         0         0
         0         0         0         0         0         0         0         0
         0         0         0         0         0         0         0         0
         0         0         0         0         0         0         0         0
         0         0         0         0         0         0         0         0
         0         0         0         0         0         0         0         0
         0         0         0         0         0         0         0         0
         0         0         0         0         0         0         0         0
         0         0         0         0         0         0         0         0
         0         0         0         0         0         0         0         0
         0         0         0         0         0         0         0         0
         0         0         0         0         0         0         0         0
         0         0         0         0         0         0         0         0
         0         0         0         0         0         0         0         0
         0         0         0         0         0         0         0         0
         0         0         0         0         0         0         0         0
         0         0         0         0         0         0         0         0
         0         0         0         0         0         0         0         0
         0         0         0         0         0         0         0         0
         0         0         0         0         0         0         0         0
         0         0         0         0         0         0         0         0
         0         0         0         0         0         0         0         0
         0         0         0         0         0         0         0         0
         0         0         0         0         0         0         0         0
         0         0         0         0         0         0         0         0
         0         0         0         0         0         0         0         0
         0         0         0         0         0         0         0         0
         0         0         0         0         0         0         0         0
         0         0         0         0         0         0         0         0
         0         0         0         0         0         0         0         0
         0         0         0         0         0         0         0         0
         0         0         0         0         0         0         0         0
         0         0         0         0         0         0         0         0
         0         0         0         0         0         0         0         0
         0         0         0         0         0         0         0         0
         0         0         0         0         0         0         0         0
         0         0         0         0         0         0         0         0
         0         0         0         0         0         0         0         0
         0         0         0         0         0         0         0         0
         0         0         0         0         0         0         0         0
         0         0         0         0         0         0         0         0
         0         0         0         0         0         0         0         0
         0         0         0         0         0         0         0         0
         0         0         0         0         0         0         0         0
         0         0         0         0         0         0         0         0
         0         0         0         0         0         0         0         0
         0         0         0         0         0         0         0         0
         0         0         0         0         0         0         0         0
         0         0         0         0         0         0         0         0
         0         0         0         0         0         0         0         0
         0         0         0         0         0         0         0         0
         0         0         0         0         0         0         0         0
         0         0         0         0         0         0         0         0
         0         0         0         0         0         0         0         0
         0         0         0         0         0         0         0         0
         0         0         0         0         0         0         0         0
         0         0         0         0         0         0         0         0
         0         0         0         0         0         0         0         0
         0         0         0         0         0         0         0         0
         0         0         0         0         0         0         0         0
         0         0         0         0         0         0         0         0
         0         0         0         0         0         0         0         0
         0         0         0         0         0         0         0         0
         0         0         0         0         0         0         0         0
         0         0         0         0         0         0         0         0
         0         0         0         0         0         0         0         0
         0         0         0         0         0         0         0         0
         0         0         0         0         0         0         0         0
         0         0         0         0         0         0         0         0
         0         0         0         0         0         0         0         0
         0         0         0         0         0         0         0         0
         0         0         0         0         0         0         0         0
         0         0         0         0         0         0         0         0
         0         0         0         0         0         0         0         0
         0         0         0         0         0         0         0         0
         0         0         0         0         0         0         0         0
         0         0         0         0         0         0         0         0
         0         0         0         0         0         0         0         0
         0         0         0         0         0         0         0         0
         0         0         0         0         0         0         0         0
         0         0         0         0         0         0         0         0
         0         0         0         0         0         0         0         0
         0         0         0         0         0         0         0         0
         0         0         0         0         0         0         0         0
         0         0         0         0         0         0         0         0
         0         0         0         0         0         0         0         0
         0         0         0         0         0         0         0         0
         0         0         0         0         0         0         0         0
         0         0         0         0         0         0         0         0
         0         0         0         0         0         0         0         0
         0         0         0         0         0         0         0         0
         0         0         0         0         0         0         0         0
         0         0         0         0         0         0         0         0
         0         0         0         0         0         0         0         0
         0         0         0         0         0         0         0         0
         0         0         0         0         0         0         0         0
         0         0         0         0         0         0         0         0
         0         0         0         0         0         0         0         0
         0         0         0         0         0         0         0         0
         0         0         0         0         0         0         0         0
         0         0         0         0         0         0         0         0
         0         0         0         0         0         0         0         0
         0         0         0         0         0         0         0         0
         0         0         0         0         0         0         0         0
         0         0         0         0         0         0         0         0
         0         0         0         0         0         0         0         0
         0         0         0         0         0         0         0         0
         0         0         0         0         0         0         0         0
         0         0         0         0         0         0         0         0
         0         0         0         0         0         0         0         0
         0         0         0         0         0         0         0         0
         0         0         0         0         0         0         0         0
         0         0         0         0         0         0         0         0
         0         0         0         0         0         0         0         0
         0         0         0         0         0         0         0         0
         0         0         0         0         0         0         0         0
         0         0         0         0         0         0         0         0
         0         0         0         0         0         0         0         0
         0         0         0         0         0         0         0         0
         0         0         0         0         0         0         0         0
         0         0         0         0         0         0         0         0
         0         0         0         0         0         0         0         0
         0         0         0         0         0         0         0         0
         0         0         0         0         0         0         0         0
         0         0         0         0         0         0         0         0
         0         0         0         0         0         0         0         0
         0         0         0         0         0         0         0         0
         0         0         0         0         0         0         0         0
         0         0         0         0         0         0         0         0
         0         0         0         0         0         0         0         0
         0         0         0         0         0         0         0         0
         0         0         0         0         0         0         0         0
         0         0         0         0         0         0         0         0
         0         0         0         0         0         0         0         0
         0         0         0         0         0         0         0         0
         0         0         0         0         0         0         0         0
         0         0         0         0         0         0         0         0
         0         0         0         0         0         0         0         0
         0         0         0         0         0         0         0         0
         0         0         0         0         0         0         0         0
         0         0         0         0         0         0         0         0
         0         0         0         0         0         0         0         0
         0         0         0         0         0         0         0         0
         0         0         0         0         0         0         0         0
         0         0         0         0         0         0         0         0
         0         0         0         0         0         0         0         0
         0         0         0         0         0         0         0         0
         0         0         0         0         0         0         0         0
         0         0         0         0         0         0         0         0
         0         0         0         0         0         0         0         0
         0         0         0         0         0         0         0         0
         0         0         0         0         0         0         0         0
         0         0         0         0         0         0         0         0
         0         0         0         0         0         0         0         0
         0         0         0         0         0         0         0         0
         0         0         0         0         0         0         0         0
         0         0         0         0         0         0         0         0
         0         0         0         0         0         0         0         0
         0         0         0         0         0         0         0         0
         0         0         0         0         0         0         0         0
         0         0         0         0         0         0         0         0
         0         0         0         0         0         0         0         0
         0         0         0         0         0         0         0         0
         0         0         0         0         0         0         0         0
         0         0         0         0         0         0         0         0
         0         0         0         0         0         0         0         0
         0         0         0         0         0         0         0         0
         0         0         0         0         0         0         0         0
         0         0         0         0         0         0         0         0
         0         0         0         0         0         0         0         0
         0         0         0         0         0         0         0         0
         0         0         0         0         0         0         0         0
         0         0         0         0         0         0         0         0
         0         0         0         0         0         0         0         0
         0         0         0         0         0         0         0         0
         0         0         0         0         0         0         0         0
         0         0         0         0         0         0         0         0
         0         0         0         0         0         0         0         0
         0         0         0         0         0         0         0         0
         0         0         0         0         0         0         0         0
         0         0         0         0         0         0         0         0
         0         0         0         0         0         0         0         0
         0         0         0         0         0         0         0         0
         0         0         0         0         0         0         0         0
         0         0         0         0         0         0         0         0
         0         0         0         0         0         0         0         0
         0         0         0         0         0         0         0         0
         0         0         0         0         0         0         0         0
         0         0         0         0         0         0         0         0
         0         0         0         0         0         0         0         0
         0         0         0         0         0         0         0         0
         0         0         0         0         0         0         0         0
         0         0         0         0         0         0         0         0
         0         0         0         0         0         0         0         0
         0         0         0         0         0         0         0         0
         0         0         0         0         0         0         0         0
         0         0         0         0         0         0         0         0
         0         0         0         0         0         0         0         0
         0         0         0         0         0         0         0         0
         0         0         0         0         0         0         0         0
         0         0         0         0         0         0         0         0
         0         0         0         0         0         0         0         0
         0         0         0         0         0         0         0         0
         0         0         0         0         0         0         0         0
         0         0         0         0         0         0         0         0
         0         0         0         0         0         0         0         0
         0         0         0         0         0         0         0         0
         0         0         0         0         0         0         0         0
         0         0         0         0         0         0         0         0
         0         0         0         0         0         0         0         0
         0         0         0         0         0         0         0         0
         0         0         0         0         0         0         0         0
         0         0         0         0         0         0         0         0
         0         0         0         0         0         0         0         0
         0         0         0         0         0         0         0         0
         0         0         0         0         0         0         0         0
         0         0         0         0         0         0         0         0
         0         0         0         0         0         0         0         0
         0         0         0         0         0         0         0         0
         0         0         0         0         0         0         0         0
         0         0         0         0         0         0         0         0
         0         0         0         0         0         0         0         0
         0         0         0         0         0         0         0         0
         0         0         0         0         0         0         0         0
         0         0         0         0         0         0         0         0
         0         0         0         0         0         0         0         0
         0         0         0         0         0         0         0         0
         0         0         0         0         0         0         0         0
         0         0         0         0         0         0         0         0
         0         0         0         0         0         0         0         0
         0         0         0         0         0         0         0         0
         0         0         0         0         0         0         0         0
         0         0         0         0         0         0         0         0
         0         0         0         0         0         0         0         0
         0         0         0         0         0         0         0         0
         0         0         0         0         0         0         0         0
         0         0         0         0         0         0         0         0
         0         0         0         0         0         0         0         0
         0         0         0         0         0         0         0         0
         0         0         0         0         0         0         0         0
         0         0         0         0         0         0         0         0
         0         0         0         0         0         0         0         0
         0         0         0         0         0         0         0         0
         0         0         0         0         0         0         0         0
         0         0         0         0         0         0         0         0
         0         0         0         0         0         0         0         0
         0         0         0         0         0         0         0         0
         0         0         0         0         0         0         0         0
         0         0         0         0         0         0         0         0
         0         0         0         0         0         0         0         0
         0         0         0         0         0         0         0         0
         0         0         0         0         0         0         0         0
         0         0         0         0         0         0         0         0
         0         0         0         0         0         0         0         0
         0         0         0         0         0         0         0         0
         0         0         0         0         0         0         0         0
         0         0         0         0         0         0         0         0
         0         0         0         0         0         0         0         0
         0         0         0         0         0         0         0         0
         0         0         0         0         0         0         0         0
         0         0         0         0         0         0         0         0
         0         0         0         0         0         0         0         0
         0         0         0         0         0         0         0         0
         0         0         0         0         0         0         0         0
         0         0         0         0         0         0         0         0
         0         0         0         0         0         0         0         0
         0         0         0         0         0         0         0         0
         0         0         0         0         0         0         0         0
         0         0         0         0         0         0         0         0
         0         0         0         0         0         0         0         0
         0         0         0         0         0         0         0         0
         0         0         0         0         0         0         0         0
         0         0         0         0         0         0         0         0
         0         0         0         0         0         0         0         0
         0         0         0         0         0         0         0         0
         0         0         0         0         0         0         0         0
         0         0         0         0         0         0         0         0
         0         0         0         0         0         0         0         0
         0         0         0         0         0         0         0         0
         0         0         0         0         0         0         0         0
         0         0         0         0         0         0         0         0
         0         0         0         0         0         0         0         0
         0         0         0         0         0         0         0         0
         0         0         0         0         0         0         0         0
         0         0         0         0         0         0         0         0
         0         0         0         0         0         0         0         0
         0         0         0         0         0         0         0         0
         0         0         0         0         0         0         0         0
         0         0         0         0         0         0         0         0
         0         0         0         0         0         0         0         0
         0         0         0         0         0         0         0         0
         0         0         0         0         0         0         0         0
         0         0         0         0         0         0         0         0
         0         0         0         0         0         0         0         0
         0         0         0         0         0         0         0         0
         0         0         0         0         0         0         0         0
         0         0         0         0         0         0         0         0
         0         0         0         0         0         0         0         0
         0         0         0         0         0         0         0         0
         0         0         0         0         0         0         0         0
         0         0         0         0         0         0         0         0
         0         0         0         0         0         0         0         0
         0         0         0         0         0         0         0         0
         0         0         0         0         0         0         0         0
         0         0         0         0         0         0         0         0
         0         0         0         0         0         0         0         0
         0         0         0         0         0         0         0         0
         0         0         0         0         0         0         0         0
         0         0         0         0         0         0         0         0
         0         0         0         0         0         0         0         0
         0         0         0         0         0         0         0         0
         0         0         0         0         0         0         0         0
         0         0         0         0         0         0         0         0
         0         0         0         0         0         0         0         0
         0         0         0         0         0         0         0         0
         0         0         0         0         0         0         0         0
         0         0         0         0         0         0         0         0
         0         0         0         0         0         0         0         0
         0         0         0         0         0         0         0         0
         0         0         0         0         0         0         0         0
         0         0         0         0         0         0         0         0
         0         0         0         0         0         0         0         0
         0         0         0         0         0         0         0         0
         0         0         0         0         0         0         0         0
         0         0         0         0         0         0         0         0
         0         0         0         0         0         0         0         0
         0         0         0         0         0         0         0         0
         0         0         0         0         0         0         0         0
         0         0         0         0         0         0         0         0
         0         0         0         0         0         0         0         0
         0         0         0         0         0         0         0         0
         0         0         0         0         0         0         0         0
         0         0         0         0         0         0         0         0
         0         0         0         0         0         0         0         0
         0         0         0         0         0         0         0         0
         0         0         0         0         0         0         0         0
         0         0         0         0         0         0         0         0
         0         0         0         0         0         0         0         0
         0         0         0         0         0         0         0         0
         0         0         0         0         0         0         0         0
         0         0         0         0         0         0         0         0
         0         0         0         0         0         0         0         0
         0         0         0         0         0         0         0         0
         0         0         0         0         0         0         0         0
         0         0         0         0         0         0         0         0
         0         0         0         0         0         0         0         0
         0         0         0         0         0         0         0         0
         0         0         0         0         0         0         0         0
         0         0         0         0         0         0         0         0
         0         0         0         0         0         0         0         0
         0         0         0         0         0         0         0         0
         0         0         0         0         0         0         0         0
         0         0         0         0         0         0         0         0
         0         0         0         0         0         0         0         0
         0         0         0         0         0         0         0         0
         0         0         0         0         0         0         0         0
         0         0         0         0         0         0         0         0
         0         0         0         0         0         0         0         0
         0         0         0         0         0         0         0         0
         0         0         0         0         0         0         0         0
         0         0         0         0         0         0         0         0
         0         0         0         0         0         0         0         0
         0         0         0         0         0         0         0         0
         0         0         0         0         0         0         0         0
         0         0         0         0         0         0         0         0
         0         0         0         0         0         0         0         0
         0         0         0         0         0         0         0         0
         0         0         0         0         0         0         0         0
         0         0         0         0         0         0         0         0
         0         0         0         0         0         0         0         0
         0         0         0         0         0         0         0         0
         0         0         0         0         0         0         0         0
         0         0         0         0         0         0         0         0
         0         0         0         0         0         0         0         0
         0         0         0         0         0         0         0         0
         0         0         0         0         0         0         0         0
         0         0         0         0         0         0         0         0
         0         0         0         0         0         0         0         0
         0         0         0         0         0         0         0         0
         0         0         0         0         0         0         0         0
         0         0         0         0         0         0         0         0
         0         0         0         0         0         0         0         0
         0         0         0         0         0         0         0         0
         0         0         0         0         0         0         0         0
         0         0         0         0         0         0         0         0
         0         0         0         0         0         0         0         0
         0         0         0         0         0         0         0         0
         0         0         0         0         0         0         0         0
         0         0         0         0         0         0         0         0
         0         0         0         0         0         0         0         0
         0         0         0         0         0         0         0         0
         0         0         0         0         0         0         0         0
         0         0         0         0         0         0         0         0
         0         0         0         0         0         0         0         0
         0         0         0         0         0         0         0         0
         0         0         0         0         0         0         0         0
         0         0         0         0         0         0         0         0
         0         0         0         0         0         0         0         0
         0         0         0         0         0         0         0         0
         0         0         0         0         0         0         0         0
         0         0         0         0         0         0         0         0
         0         0         0         0         0         0         0         0
         0         0         0         0         0         0         0         0
         0         0         0         0         0         0         0         0
         0         0         0         0         0         0         0         0
         0         0         0         0         0         0         0         0
         0         0         0         0         0         0         0         0
         0         0         0         0         0         0         0         0
         0         0         0         0         0         0         0         0
         0         0         0         0         0         0         0         0
         0         0         0         0         0         0         0         0
         0         0         0         0         0         0         0         0
         0         0         0         0         0         0         0         0
         0         0         0         0         0         0         0         0
         0         0         0         0         0         0         0         0
         0         0         0         0         0         0         0         0
         0         0         0         0         0         0         0         0
         0         0         0         0         0         0         0         0
         0         0         0         0         0         0         0         0
         0         0         0         0         0         0         0         0
         0         0         0         0         0         0         0         0
         0         0         0         0         0         0         0         0
         0         0         0         0         0         0         0         0
         0         0         0         0         0         0         0         0
         0         0         0         0         0         0         0         0
         0         0         0         0         0         0         0         0
         0         0         0         0         0         0         0         0
         0         0         0         0         0         0         0         0
         0         0         0         0         0         0         0         0
         0         0         0         0         0         0         0         0
         0         0         0         0         0         0         0         0
         0         0         0         0         0         0         0         0
         0         0         0         0         0         0         0         0
         0         0         0         0         0         0         0         0
         0         0         0         0         0         0         0         0
         0         0         0         0         0         0         0         0
         0         0         0         0         0         0         0         0
         0         0         0         0         0         0         0         0
         0         0         0         0         0         0         0         0
         0         0         0         0         0         0         0         0
         0         0         0         0         0         0         0         0
         0         0         0         0         0         0         0         0
         0         0         0         0         0         0         0         0
         0         0         0         0         0         0         0         0
         0         0         0         0         0         0         0         0
         0         0         0         0         0         0         0         0
         0         0         0         0         0         0         0         0
         0         0         0         0         0         0         0         0
         0         0         0         0         0         0         0         0
         0         0         0         0         0         0         0         0
         0         0         0         0         0         0         0         0
         0         0         0         0         0         0         0         0
         0         0         0         0         0         0         0         0
         0         0         0         0         0         0         0         0
         0         0         0         0         0         0         0         0
         0         0         0         0         0         0         0         0
         0         0         0         0         0         0         0         0
         0         0         0         0         0         0         0         0
         0         0         0         0         0         0         0         0
         0         0         0         0         0         0         0         0
         0         0         0         0         0         0         0         0
         0         0         0         0         0         0         0         0
         0         0         0         0         0         0         0         0
         0         0         0         0         0         0         0         0
         0         0         0         0         0         0         0         0
         0         0         0         0         0         0         0         0
         0         0         0         0         0         0         0         0
         0         0         0         0         0         0         0         0
         0         0         0         0         0         0         0         0
         0         0         0         0         0         0         0         0
         0         0         0         0         0         0         0         0
         0         0         0         0         0         0         0         0
         0         0         0         0         0         0         0         0
         0         0         0         0         0         0         0         0
         0         0         0         0         0         0         0         0
         0         0         0         0         0         0         0         0
         0         0         0         0         0         0         0         0
         0         0         0         0         0         0         0         0
         0         0         0         0         0         0         0         0
         0         0         0         0         0         0         0         0
         0         0         0         0         0         0         0         0
         0         0         0         0         0         0         0         0
         0         0         0         0         0         0         0         0
         0         0         0         0         0         0         0         0
         0         0         0         0         0         0         0         0
         0         0         0         0         0         0         0         0
         0         0         0         0         0         0         0         0
         0         0         0         0         0         0         0         0
         0         0         0         0         0         0         0         0
         0         0         0         0         0         0         0         0
         0         0         0         0         0         0         0         0
         0         0         0         0         0         0         0         0
         0         0         0         0         0         0         0         0
         0         0         0         0         0         0         0         0
         0         0         0         0         0         0         0         0
         0         0         0         0         0         0         0         0
         0         0         0         0         0         0         0         0
         0         0         0         0         0         0         0         0
         0         0         0         0         0         0         0         0
         0         0         0         0         0         0         0         0
         0         0         0         0         0         0         0         0
         0         0         0         0         0         0         0         0
         0         0         0         0         0         0         0         0
         0         0         0         0         0         0         0         0
         0         0         0         0         0         0         0         0
         0         0         0         0         0         0         0         0
         0         0         0         0         0         0         0         0
         0         0         0         0         0         0         0         0
         0         0         0         0         0         0         0         0
         0         0         0         0         0         0         0         0
         0         0         0         0         0         0         0         0
         0         0         0         0         0         0         0         0
         0         0         0         0         0         0         0         0
         0         0         0         0         0         0         0         0
         0         0         0         0         0         0         0         0
         0         0         0         0         0         0         0         0
         0         0         0         0         0         0         0         0
         0         0         0         0         0         0         0         0
         0         0         0         0         0         0         0         0
         0         0         0         0         0         0         0         0
         0         0         0         0         0         0         0         0
         0         0         0         0         0         0         0         0
         0         0         0         0         0         0         0         0
         0         0         0         0         0         0         0         0
         0         0         0         0         0         0         0         0
         0         0         0         0         0         0         0         0
         0         0         0         0         0         0         0         0
         0         0         0         0         0         0         0         0
         0         0         0         0         0         0         0         0
         0         0         0         0         0         0         0         0
         0         0         0         0         0         0         0         0
         0         0         0         0         0         0         0         0
         0         0         0         0         0         0         0         0
         0         0         0         0         0         0         0         0
         0         0         0         0         0         0         0         0
         0         0         0         0         0         0         0         0
         0         0         0         0         0         0         0         0
         0         0         0         0         0         0         0         0
         0         0         0         0         0         0         0         0
         0         0         0         0         0         0         0         0
         0         0         0         0         0         0         0         0
         0         0         0         0         0         0         0         0
         0         0         0         0         0         0         0         0
         0         0         0         0         0         0         0         0
         0         0         0         0         0         0         0         0
         0         0         0         0         0         0         0         0
         0         0         0         0         0         0         0         0
         0         0         0         0         0         0         0         0
         0         0         0         0         0         0         0         0
         0         0         0         0         0         0         0         0
         0         0         0         0         0         0         0         0
         0         0         0         0         0         0         0         0
         0         0         0         0         0         0         0         0
         0         0         0         0         0         0         0         0
         0         0         0         0         0         0         0         0
         0         0         0         0         0         0         0         0
         0         0         0         0         0         0         0         0
         0         0         0         0         0         0         0         0
         0         0         0         0         0         0         0         0
         0         0         0         0         0         0         0         0
         0         0         0         0         0         0         0         0
         0         0         0         0         0         0         0         0
         0         0         0         0         0         0         0         0
         0         0         0         0         0         0         0         0
         0         0         0         0         0         0         0         0
         0         0         0         0         0         0         0         0
         0         0         0         0         0         0         0         0
         0         0         0         0         0         0         0         0
         0         0         0         0         0         0         0         0
         0         0         0         0         0         0         0         0
         0         0         0         0         0         0         0         0
         0         0         0         0         0         0         0         0
         0         0         0         0         0         0         0         0
         0         0         0         0         0         0         0         0
         0         0         0         0         0         0         0         0
         0         0         0         0         0         0         0         0
         0         0         0         0         0         0         0         0
         0         0         0         0         0         0         0         0
         0         0         0         0         0         0         0         0
         0         0         0         0         0         0         0         0
         0         0         0         0         0         0         0         0
         0         0         0         0         0         0         0         0
         0         0         0         0         0         0         0         0
         0         0         0         0         0         0         0         0
         0         0         0         0         0         0         0         0
         0         0         0         0         0         0         0         0
         0         0         0         0         0         0         0         0
         0         0         0         0         0         0         0         0
         0         0         0         0         0         0         0         0
         0         0         0         0         0         0         0         0
         0         0         0         0         0         0         0         0
         0         0         0         0         0         0         0         0
         0         0         0         0         0         0         0         0
         0         0         0         0         0         0         0         0
         0         0         0         0         0         0         0         0
         0         0         0         0         0         0         0         0
         0         0         0         0         0         0         0         0
         0         0         0         0         0         0         0         0
         0         0         0         0         0         0         0         0
         0         0         0         0         0         0         0         0
         0         0         0         0         0         0         0         0
         0         0         0         0         0         0         0         0
         0         0         0         0         0         0         0         0
         0         0         0         0         0         0         0         0
         0         0         0         0         0         0         0         0
         0         0         0         0         0         0         0         0
         0         0         0         0         0         0         0         0
         0         0         0         0         0         0         0         0
         0         0         0         0         0         0         0         0
         0         0         0         0         0         0         0         0
         0         0         0         0         0         0         0         0
         0         0         0         0         0         0         0         0
         0         0         0         0         0         0         0         0
         0         0         0         0         0         0         0         0
         0         0         0         0         0         0         0         0
         0         0         0         0         0         0         0         0
         0         0         0         0         0         0         0         0
         0         0         0         0         0         0         0         0
         0         0         0         0         0         0         0         0
         0         0         0         0         0         0         0         0
         0         0         0         0         0         0         0         0
         0         0         0         0         0         0         0         0
         0         0         0         0         0         0         0         0
         0         0         0         0         0         0         0         0
         0         0         0         0         0         0         0         0
         0         0         0         0         0         0         0         0
         0         0         0         0         0         0         0         0
         0         0         0         0         0         0         0         0
         0         0         0         0         0         0         0         0
         0         0         0         0         0         0         0         0
         0         0         0         0         0         0         0         0
         0         0         0         0         0         0         0         0
         0         0         0         0         0         0         0         0
         0         0         0         0         0         0         0         0
         0         0         0         0         0         0         0         0
         0         0         0         0         0         0         0         0
         0         0         0         0         0         0         0         0
         0         0         0         0         0         0         0         0
         0         0         0         0         0         0         0         0
         0         0         0         0         0         0         0         0
         0         0         0         0         0         0         0         0
         0         0         0         0         0         0         0         0
         0         0         0         0         0         0         0         0
         0         0         0         0         0         0         0         0
         0         0         0         0         0         0         0         0
         0         0         0         0         0         0         0         0
         0         0         0         0         0         0         0         0
         0         0         0         0         0         0         0         0
         0         0         0         0         0         0         0         0
         0         0         0         0         0         0         0         0
         0         0         0         0         0         0         0         0
         0         0         0         0         0         0         0         0
         0         0         0         0         0         0         0         0
         0         0         0         0         0         0         0         0
         0         0         0         0         0         0         0         0
         0         0         0         0         0         0         0         0
         0         0         0         0         0         0         0         0
         0         0         0         0         0         0         0         0
         0         0         0         0         0         0         0         0
         0         0         0         0         0         0         0         0
         0         0         0         0         0         0         0         0
         0         0         0         0         0         0         0         0
         0         0         0         0         0         0         0         0
         0         0         0         0         0         0         0         0
         0         0         0         0         0         0         0         0
         0         0         0         0         0         0         0         0
         0         0         0         0         0         0         0         0
         0         0         0         0         0         0         0         0
         0         0         0         0         0         0         0         0
         0         0         0         0         0         0         0         0
         0         0         0         0         0         0         0         0
         0         0         0         0         0         0         0         0
         0         0         0         0         0         0         0         0
         0         0         0         0         0         0         0         0
         0         0         0         0         0         0         0         0
         0         0         0         0         0         0         0         0
         0         0         0         0         0         0         0         0
         0         0         0         0         0         0         0         0
         0         0         0         0         0         0         0         0
         0         0         0         0         0         0         0         0
         0         0         0         0         0         0         0         0
         0         0         0         0         0         0         0         0
         0         0         0         0         0         0         0         0
         0         0         0         0         0         0         0         0
         0         0         0         0         0         0         0         0
         0         0         0         0         0         0         0         0
         0         0         0         0         0         0         0         0
         0         0         0         0         0         0         0         0
         0         0         0         0         0         0         0         0
         0         0         0         0         0         0         0         0
         0         0         0         0         0         0         0         0
         0         0         0         0         0         0         0         0
         0         0         0         0         0         0         0         0
         0         0         0         0         0         0         0         0
         0         0         0         0         0         0         0         0
         0         0         0         0         0         0         0         0
         0         0         0         0         0         0         0         0
         0         0         0         0         0         0         0         0
         0         0         0         0         0         0         0         0
         0         0         0         0         0         0         0         0
         0         0         0         0         0         0         0         0
         0         0         0         0         0         0         0         0
         0         0         0         0         0         0         0         0
         0         0         0         0         0         0         0         0
         0         0         0         0         0         0         0         0
         0         0         0         0         0         0         0         0
         0         0         0         0         0         0         0         0
         0         0         0         0         0         0         0         0
         0         0         0         0         0         0         0         0
         0         0         0         0         0         0         0         0
         0         0         0         0         0         0         0         0
         0         0         0         0         0         0         0         0
         0         0         0         0         0         0         0         0
         0         0         0         0         0         0         0         0
         0         0         0         0         0         0         0         0
         0         0         0         0         0         0         0         0
         0         0         0         0         0         0         0         0
         0         0         0         0         0         0         0         0
         0         0         0         0         0         0         0         0
         0         0         0         0         0         0         0         0
         0         0         0         0         0         0         0         0
         0         0         0         0         0         0         0         0
         0         0         0         0         0         0         0         0
         0         0         0         0         0         0         0         0
         0         0         0         0         0         0         0         0
         0         0         0         0         0         0         0         0
         0         0         0         0         0         0         0         0
         0         0         0         0         0         0         0         0
         0         0         0         0         0         0         0         0
         0         0         0         0         0         0         0         0
         0         0         0         0         0         0         0         0
         0         0         0         0         0         0         0         0
         0         0         0         0         0         0         0         0
         0         0         0         0         0         0         0         0
         0         0         0         0         0         0         0         0
         0         0         0         0         0         0         0         0
         0         0         0         0         0         0         0         0
         0         0         0         0         0         0         0         0
         0         0         0         0         0         0         0         0
         0         0         0         0         0         0         0         0
         0         0         0         0         0         0         0         0
         0         0         0         0         0         0         0         0
         0         0         0         0         0         0         0         0
         0         0         0         0         0         0         0         0
         0         0         0         0         0         0         0         0
         0         0         0         0         0         0         0         0
         0         0         0         0         0         0         0         0
         0         0         0         0         0         0         0         0
         0         0         0         0         0         0         0         0
         0         0         0         0         0         0         0         0
         0         0         0         0         0         0         0         0
         0         0         0         0         0         0         0         0
         0         0         0         0         0         0         0         0
         0         0         0         0         0         0         0         0
         0         0         0         0         0         0         0         0
         0         0         0         0         0         0         0         0
         0         0         0         0         0         0         0         0
         0         0         0         0         0         0         0         0
         0         0         0         0         0         0         0         0
         0         0         0         0         0         0         0         0
         0         0         0         0         0         0         0         0
         0         0         0         0         0         0         0         0
         0         0         0         0         0         0         0         0
         0         0         0         0         0         0         0         0
         0         0         0         0         0         0         0         0
         0         0         0         0         0         0         0         0
         0         0         0         0         0         0         0         0
         0         0         0         0         0         0         0         0
         0         0         0         0         0         0         0         0
         0         0         0         0         0         0         0         0
         0         0         0         0         0         0         0         0
         0         0         0         0         0         0         0         0
         0         0         0         0         0         0         0         0
         0         0         0         0         0         0         0         0
         0         0         0         0         0         0         0         0
         0         0         0         0         0         0         0         0
         0         0         0         0         0         0         0         0
         0         0         0         0         0         0         0         0
         0         0         0         0         0         0         0         0
         0         0         0         0         0         0         0         0
         0         0         0         0         0         0         0         0
         0         0         0         0         0         0         0         0
         0         0         0         0         0         0         0         0
         0         0         0         0         0         0         0         0
         0         0         0         0         0         0         0         0
         0         0         0         0         0         0         0         0
         0         0         0         0         0         0         0         0
         0         0         0         0         0         0         0         0
         0         0         0         0         0         0         0         0
         0         0         0         0         0         0         0         0
         0         0         0         0         0         0         0         0
         0         0         0         0         0         0         0         0
         0         0         0         0         0         0         0         0
         0         0         0         0         0         0         0         0
         0         0         0         0         0         0         0         0
         0         0         0         0         0         0         0         0
         0         0         0         0         0         0         0         0
         0         0         0         0         0         0         0         0
         0         0         0         0         0         0         0         0
         0         0         0         0         0         0         0         0
         0         0         0         0         0         0         0         0
         0         0         0         0         0         0         0         0
         0         0         0         0         0         0         0         0
         0         0         0         0         0         0         0         0
         0         0         0         0         0         0         0         0
         0         0         0         0         0         0         0         0
         0         0         0         0         0         0         0         0
         0         0         0         0         0         0         0         0
         0         0         0         0         0         0         0         0
         0         0         0         0         0         0         0         0
         0         0         0         0         0         0         0         0
         0         0         0         0         0         0         0         0
         0         0         0         0         0         0         0         0
         0         0         0         0         0         0         0         0
         0         0         0         0         0         0         0         0
         0         0         0         0         0         0         0         0
         0         0         0         0         0         0         0         0
         0         0         0         0         0         0         0         0
         0         0         0         0         0         0         0         0
         0         0         0         0         0         0         0         0
         0         0         0         0         0         0         0         0
         0         0         0         0         0         0         0         0
         0         0         0         0         0         0         0         0
         0         0         0         0         0         0         0         0
         0         0         0         0         0         0         0         0
         0         0         0         0         0         0         0         0
         0         0         0         0         0         0         0         0
         0         0         0         0         0         0         0         0
         0         0         0         0         0         0         0         0
         0         0         0         0         0         0         0         0
         0         0         0         0         0         0         0         0
         0         0         0         0         0         0         0         0
         0         0         0         0         0         0         0         0
         0         0         0         0         0         0         0         0
         0         0         0         0         0         0         0         0
         0         0         0         0         0         0         0         0
         0         0         0         0         0         0         0         0
         0         0         0         0         0         0         0         0
         0         0         0         0         0         0         0         0
         0         0         0         0         0         0         0         0
         0         0         0         0         0         0         0         0
         0         0         0         0         0         0         0         0
         0         0         0         0         0         0         0         0
         0         0         0         0         0         0         0         0
         0         0         0         0         0         0         0         0
         0         0         0         0         0         0         0         0
         0         0         0         0         0         0         0         0
         0         0         0         0         0         0         0         0
         0         0         0         0         0         0         0         0
         0         0         0         0         0         0         0         0
         0         0         0         0         0         0         0         0
         0         0         0         0         0         0         0         0
         0         0         0         0         0         0         0         0
         0         0         0         0         0         0         0         0
         0         0         0         0         0         0         0         0
         0         0         0         0         0         0         0         0
         0         0         0         0         0         0         0         0
         0         0         0         0         0         0         0         0
         0         0         0         0         0         0         0         0
         0         0         0         0         0         0         0         0
         0         0         0         0         0         0         0         0
         0         0         0         0         0         0         0         0
         0         0         0         0         0         0         0         0
         0         0         0         0         0         0         0         0
         0         0         0         0         0         0         0         0
         0         0         0         0         0         0         0         0
         0         0         0         0         0         0         0         0
         0         0         0         0         0         0         0         0
         0         0         0         0         0         0         0         0
         0         0         0         0         0         0         0         0
         0         0         0         0         0         0         0         0
         0         0         0         0         0         0         0         0
         0         0         0         0         0         0         0         0
         0         0         0         0         0         0         0         0
         0         0         0         0         0         0         0         0
         0         0         0         0         0         0         0         0
         0         0         0         0         0         0         0         0
         0         0         0         0         0         0         0         0
         0         0         0         0         0         0         0         0
         0         0         0         0         0         0         0         0
         0         0         0         0         0         0         0         0
         0         0         0         0         0         0         0         0
         0         0         0         0         0         0         0         0
         0         0         0         0         0         0         0         0
         0         0         0         0         0         0         0         0
         0         0         0         0         0         0         0         0
         0         0         0         0         0         0         0         0
         0         0         0         0         0         0         0         0
         0         0         0         0         0         0         0         0
         0         0         0         0         0         0         0         0
         0         0         0         0         0         0         0         0
         0         0         0         0         0         0         0         0
         0         0         0         0         0         0         0         0
         0         0         0         0         0         0         0         0
         0         0         0         0         0         0         0         0
         0         0         0         0         0         0         0         0
         0         0         0         0         0         0         0         0
         0         0         0         0         0         0         0         0
         0         0         0         0         0         0         0         0
         0         0         0         0         0         0         0         0
         0         0         0         0         0         0         0         0
         0         0         0         0         0         0         0         0
         0         0         0         0         0         0         0         0
         0         0         0         0         0         0         0         0
         0         0         0         0         0         0         0         0
         0         0         0         0         0         0         0         0
         0         0         0         0         0         0         0         0
         0         0         0         0         0         0         0         0
         0         0         0         0         0         0         0         0
         0         0         0         0         0         0         0         0
         0         0         0         0         0         0         0         0
         0         0         0         0         0         0         0         0
         0         0         0         0         0         0         0         0
         0         0         0         0         0         0         0         0
         0         0         0         0         0         0         0         0
         0         0         0         0         0         0         0         0
         0         0         0         0         0         0         0         0
         0         0         0         0         0         0         0         0
         0         0         0         0         0         0         0         0
         0         0         0         0         0         0         0         0
         0         0         0         0         0         0         0         0
         0         0         0         0         0         0         0         0
         0         0         0         0         0         0         0         0
         0         0         0         0         0         0         0         0
         0         0         0         0         0         0         0         0
         0         0         0         0         0         0         0         0
         0         0         0         0         0         0         0         0
         0         0         0         0         0         0         0         0
         0         0         0         0         0         0         0         0
         0         0         0         0         0         0         0         0
         0         0         0         0         0         0         0         0
         0         0         0         0         0         0         0         0
         0         0         0         0         0         0         0         0
         0         0         0         0         0         0         0         0
         0         0         0         0         0         0         0         0
         0         0         0         0         0         0         0         0
         0         0         0         0         0         0         0         0
         0         0         0         0         0         0         0         0
         0         0         0         0         0         0         0         0
         0         0         0         0         0         0         0         0
         0         0         0         0         0         0         0         0
         0         0         0         0         0         0         0         0
         0         0         0         0         0         0         0         0
         0         0         0         0         0         0         0         0
         0         0         0         0         0         0         0         0
         0         0         0         0         0         0         0         0
         0         0         0         0         0         0         0         0
         0         0         0         0         0         0         0         0
         0         0         0         0         0         0         0         0
         0         0         0         0         0         0         0         0
         0         0         0         0         0         0         0         0
         0         0         0         0         0         0         0         0
         0         0         0         0         0         0         0         0
         0         0         0         0         0         0         0         0
         0         0         0         0         0         0         0         0
         0         0         0         0         0         0         0         0
         0         0         0         0         0         0         0         0
         0         0         0         0         0         0         0         0
         0         0         0         0         0         0         0         0
         0         0         0         0         0         0         0         0
         0         0         0         0         0         0         0         0
         0         0         0         0         0         0         0         0
         0         0         0         0         0         0         0         0
         0         0         0         0         0         0         0         0
         0         0         0         0         0         0         0         0
         0         0         0         0         0         0         0         0
         0         0         0         0         0         0         0         0
         0         0         0         0         0         0         0         0
         0         0         0         0         0         0         0         0
         0         0         0         0         0         0         0         0
         0         0         0         0         0         0         0         0
         0         0         0         0         0         0         0         0
         0         0         0         0         0         0         0         0
         0         0         0         0         0         0         0         0
         0         0         0         0         0         0         0         0
         0         0         0         0         0         0         0         0
         0         0         0         0         0         0         0         0
         0         0         0         0         0         0         0         0
         0         0         0         0         0         0         0         0
         0         0         0         0         0         0         0         0
         0         0         0         0         0         0         0         0
         0         0         0         0         0         0         0         0
         0         0         0         0         0         0         0         0
         0         0         0         0         0         0         0         0
         0         0         0         0         0         0         0         0
         0         0         0         0         0         0         0         0
         0         0         0         0         0         0         0         0
         0         0         0         0         0         0         0         0
         0         0         0         0         0         0         0         0
         0         0         0         0         0         0         0         0
         0         0         0         0         0         0         0         0
         0         0         0         0         0         0         0         0
         0         0         0         0         0         0         0         0
         0         0         0         0         0         0         0         0
         0         0         0         0         0         0         0         0
         0         0         0         0         0         0         0         0
         0         0         0         0         0         0         0         0
         0         0         0         0         0         0         0         0
         0         0         0         0         0         0         0         0
         0         0         0         0         0         0         0         0
         0         0         0         0         0         0         0         0
         0         0         0         0         0         0         0         0
         0         0         0         0         0         0         0         0
         0         0         0         0         0         0         0         0
         0         0         0         0         0         0         0         0
         0         0         0         0         0         0         0         0
         0         0         0         0         0         0         0         0
         0         0         0         0         0         0         0         0
         0         0         0         0         0         0         0         0
         0         0         0         0         0         0         0         0
         0         0         0         0         0         0         0         0
         0         0         0         0         0         0         0         0
         0         0         0         0         0         0         0         0
         0         0         0         0         0         0         0         0
         0         0         0         0         0         0         0         0
         0         0         0         0         0         0         0         0
         0         0         0         0         0         0         0         0
         0         0         0         0         0         0         0         0
         0         0         0         0         0         0         0         0
         0         0         0         0         0         0         0         0
         0         0         0         0         0         0         0         0
         0         0         0         0         0         0         0         0
         0         0         0         0         0         0         0         0
         0         0         0         0         0         0         0         0
         0         0         0         0         0         0         0         0
         0         0         0         0         0         0         0         0
         0         0         0         0         0         0         0         0
         0         0         0         0         0         0         0         0
         0         0         0         0         0         0         0         0
         0         0         0         0         0         0         0         0
         0         0         0         0         0         0         0         0
         0         0         0         0         0         0         0         0
         0         0         0         0         0         0         0         0
         0         0         0         0         0         0         0         0
         0         0         0         0         0         0         0         0
         0         0         0         0         0         0         0         0
         0         0         0         0         0         0         0         0
         0         0         0         0         0         0         0         0
         0         0         0         0         0         0         0         0
         0         0         0         0         0         0         0         0
         0         0         0         0         0         0         0         0
         0         0         0         0         0         0         0         0
         0         0         0         0         0         0         0         0
         0         0         0         0         0         0         0         0
         0         0         0         0         0         0         0         0
         0         0         0         0         0         0         0         0
         0         0         0         0         0         0         0         0
         0         0         0         0         0         0         0         0
         0         0         0         0         0         0         0         0
         0         0         0         0         0         0         0         0
         0         0         0         0         0         0         0         0
         0         0         0         0         0         0         0         0
         0         0         0         0         0         0         0         0
         0         0         0         0         0         0         0         0
         0         0         0         0         0         0         0         0
         0         0         0         0         0         0         0         0
         0         0         0         0         0         0         0         0
         0         0         0         0         0         0         0         0
         0         0         0         0         0         0         0         0
         0         0         0         0         0         0         0         0
         0         0         0         0         0         0         0         0
         0         0         0         0         0         0         0         0
         0         0         0         0         0         0         0         0
         0         0         0         0         0         0         0         0
         0         0         0         0         0         0         0         0
         0         0         0         0         0         0         0         0
         0         0         0         0         0         0         0         0
         0         0         0         0         0         0         0         0
         0         0         0         0         0         0         0         0
         0         0         0         0         0         0         0         0
         0         0         0         0         0         0         0         0
         0         0         0         0         0         0         0         0
         0         0         0         0         0         0         0         0
         0         0         0         0         0         0         0         0
         0         0         0         0         0         0         0         0
         0         0         0         0         0         0         0         0
         0         0         0         0         0         0         0         0
         0         0         0         0         0         0         0         0
         0         0         0         0         0         0         0         0
         0         0         0         0         0         0         0         0
         0         0         0         0         0         0         0         0
         0         0         0         0         0         0         0         0
         0         0         0         0         0         0         0         0
         0         0         0         0         0         0         0         0
         0         0         0         0         0         0         0         0
         0         0         0         0         0         0         0         0
         0         0         0         0         0         0         0         0
         0         0         0         0         0         0         0         0
         0         0         0         0         0         0         0         0
         0         0         0         0         0         0         0         0
         0         0         0         0         0         0         0         0
         0         0         0         0         0         0         0         0
         0         0         0         0         0         0         0         0
         0         0         0         0         0         0         0         0
         0         0         0         0         0         0         0         0
         0         0         0         0         0         0         0         0
         0         0         0         0         0         0         0         0
         0         0         0         0         0         0         0         0
         0         0         0         0         0         0         0         0
         0         0         0         0         0         0         0         0
         0         0         0         0         0         0         0         0
         0         0         0         0         0         0         0         0
         0         0         0         0         0         0         0         0
         0         0         0         0         0         0         0         0
         0         0         0         0         0         0         0         0
         0         0         0         0         0         0         0         0
         0         0         0         0         0         0         0         0
         0         0         0         0         0         0         0         0
         0         0         0         0         0         0         0         0
         0         0         0         0         0         0         0         0
         0         0         0         0         0         0         0         0
         0         0         0         0         0         0         0         0
         0         0         0         0         0         0         0         0
         0         0         0         0         0         0         0         0
         0         0         0         0         0         0         0         0
         0         0         0         0         0         0         0         0
         0         0         0         0         0         0         0         0
         0         0         0         0         0         0         0         0
         0         0         0         0         0         0         0         0
         0         0         0         0         0         0         0         0
         0         0         0         0         0         0         0         0
         0         0         0         0         0         0         0         0
         0         0         0         0         0         0         0         0
         0         0         0         0         0         0         0         0
         0         0         0         0         0         0         0         0
         0         0         0         0         0         0         0         0
         0         0         0         0         0         0         0         0
         0         0         0         0         0         0         0         0
         0         0         0         0         0         0         0         0
         0         0         0         0         0         0         0         0
         0         0         0         0         0         0         0         0
         0         0         0         0         0         0         0         0
         0         0         0         0         0         0         0         0
         0         0         0         0         0         0         0         0
         0         0         0         0         0         0         0         0
         0         0         0         0         0         0         0         0
         0         0         0         0         0         0         0         0
         0         0         0         0         0         0         0         0
         0         0         0         0         0         0         0         0
         0         0         0         0         0         0         0         0
         0         0         0         0         0         0         0         0
         0         0         0         0         0         0         0         0
         0         0         0         0         0         0         0         0
         0         0         0         0         0         0         0         0
         0         0         0         0         0         0         0         0
         0         0         0         0         0         0         0         0
         0         0         0         0         0         0         0         0
         0         0         0         0         0         0         0         0
         0         0         0         0         0         0         0         0
         0         0         0         0         0         0         0         0
         0         0         0         0         0         0         0         0
         0         0         0         0         0         0         0         0
         0         0         0         0         0         0         0         0
         0         0         0         0         0         0         0         0
         0         0         0         0         0         0         0         0
         0         0         0         0         0         0         0         0
         0         0         0         0         0         0         0         0
         0         0         0         0         0         0         0         0
         0         0         0         0         0         0         0         0
         0         0         0         0         0         0         0         0
         0         0         0         0         0         0         0         0
         0         0         0         0         0         0         0         0
         0         0         0         0         0         0         0         0
         0         0         0         0         0         0         0         0
         0         0         0         0         0         0         0         0
         0         0         0         0         0         0         0         0
         0         0         0         0         0         0         0         0
         0         0         0         0         0         0         0         0
         0         0         0         0         0         0         0         0
         0         0         0         0         0         0         0         0
         0         0         0         0         0         0         0         0
         0         0         0         0         0         0         0         0
         0         0         0         0         0         0         0         0
         0         0         0         0         0         0         0         0
         0         0         0         0         0         0         0         0
         0         0         0         0         0         0         0         0
         0         0         0         0         0         0         0         0
         0         0         0         0         0         0         0         0
         0         0         0         0         0         0         0         0
         0         0         0         0         0         0         0         0
         0         0         0         0         0         0         0         0
         0         0         0         0         0         0         0         0
         0         0         0         0         0         0         0         0
         0         0         0         0         0         0         0         0
         0         0         0         0         0         0         0         0
         0         0         0         0         0         0         0         0
         0         0         0         0         0         0         0         0
         0         0         0         0         0         0         0         0
         0         0         0         0         0         0         0         0
         0         0         0         0         0         0         0         0
         0         0         0         0         0         0         0         0
         0         0         0         0         0         0         0         0
         0         0         0         0         0         0         0         0
         0         0         0         0         0         0         0         0
         0         0         0         0         0         0         0         0
         0         0         0         0         0         0         0         0
         0         0         0         0         0         0         0         0
         0         0         0         0         0         0         0         0
         0         0         0         0         0         0         0         0
         0         0         0         0         0         0         0         0
         0         0         0         0         0         0         0         0
         0         0         0         0         0         0         0         0
         0         0         0         0         0         0         0         0
         0         0         0         0         0         0         0         0
         0         0         0         0         0         0         0         0
         0         0         0         0         0         0         0         0
         0         0         0         0         0         0         0         0
         0         0         0         0         0         0         0         0
         0         0         0         0         0         0         0         0
         0         0         0         0         0         0         0         0
         0         0         0         0         0         0         0         0
         0         0         0         0         0         0         0         0
         0         0         0         0         0         0         0         0
         0         0         0         0         0         0         0         0
         0         0         0         0         0         0         0         0
         0         0         0         0         0         0         0         0
         0         0         0         0         0         0         0         0
         0         0         0         0         0         0         0         0
         0         0         0         0         0         0         0         0
         0         0         0         0         0         0         0         0
         0         0         0         0         0         0         0         0
         0         0         0         0         0         0         0         0
         0         0         0         0         0         0         0         0
         0         0         0         0         0         0         0         0
         0         0         0         0         0         0         0         0
         0         0         0         0         0         0         0         0
         0         0         0         0         0         0         0         0
         0         0         0         0         0         0         0         0
         0         0         0         0         0         0         0         0
         0         0         0         0         0         0         0         0
         0         0         0         0         0         0         0         0
         0         0         0         0         0         0         0         0
         0         0         0         0         0         0         0         0
         0         0         0         0         0         0         0         0
         0         0         0         0         0         0         0         0
         0         0         0         0         0         0         0         0
         0         0         0         0         0         0         0         0
         0         0         0         0         0         0         0         0
         0         0         0         0         0         0         0         0
         0         0         0         0         0         0         0         0
         0         0         0         0         0         0         0         0
         0         0         0         0         0         0         0         0
         0         0         0         0         0         0         0         0
         0         0         0         0         0         0         0         0
         0         0         0         0         0         0         0         0
         0         0         0         0         0         0         0         0
         0         0         0         0         0         0         0         0
         0         0         0         0         0         0         0         0
         0         0         0         0         0         0         0         0
         0         0         0         0         0         0         0         0
         0         0         0         0         0         0         0         0
         0         0         0         0         0         0         0         0
         0         0         0         0         0         0         0         0
         0         0         0         0         0         0         0         0
         0         0         0         0         0         0         0         0
         0         0         0         0         0         0         0         0
         0         0         0         0         0         0         0         0
         0         0         0         0         0         0         0         0
         0         0         0         0         0         0         0         0
         0         0         0         0         0         0         0         0
         0         0         0         0         0         0         0         0
         0         0         0         0         0         0         0         0
         0         0         0         0         0         0         0         0
         0         0         0         0         0         0         0         0
         0         0         0         0         0         0         0         0
         0         0         0         0         0         0         0         0
         0         0         0         0         0         0         0         0
         0         0         0         0         0         0         0         0
         0         0         0         0         0         0         0         0
         0         0         0         0         0         0         0         0
         0         0         0         0         0         0         0         0
         0         0         0         0         0         0         0         0
         0         0         0         0         0         0         0         0
         0         0         0         0         0         0         0         0
         0         0         0         0         0         0         0         0
         0         0         0         0         0         0         0         0
         0         0         0         0         0         0         0         0
         0         0         0         0         0         0         0         0
         0         0         0         0         0         0         0         0
         0         0         0         0         0         0         0         0
         0         0         0         0         0         0         0         0
         0         0         0         0         0         0         0         0
         0         0         0         0         0         0         0         0
         0         0         0         0         0         0         0         0
         0         0         0         0         0         0         0         0
         0         0         0         0         0         0         0         0
         0         0         0         0         0         0         0         0
         0         0         0         0         0         0         0         0
         0         0         0         0         0         0         0         0
         0         0         0         0         0         0         0         0
         0         0         0         0         0         0         0         0
         0         0         0         0         0         0         0         0
         0         0         0         0         0         0         0         0
         0         0         0         0         0         0         0         0
         0         0         0         0         0         0         0         0
         0         0         0         0         0         0         0         0
         0         0         0         0         0         0         0         0
         0         0         0         0         0         0         0         0
         0         0         0         0         0         0         0         0
         0         0         0         0         0         0         0         0
         0         0         0         0         0         0         0         0
         0         0         0         0         0         0         0         0
         0         0         0         0         0         0         0         0
         0         0         0         0         0         0         0         0
         0         0         0         0         0         0         0         0
         0         0         0         0         0         0         0         0
         0         0         0         0         0         0         0         0
         0         0         0         0         0         0         0         0
         0         0         0         0         0         0         0         0
         0         0         0         0         0         0         0         0
         0         0         0         0         0         0         0         0
         0         0         0         0         0         0         0         0
         0         0         0         0         0         0         0         0
         0         0         0         0         0         0         0         0
         0         0         0         0         0         0         0         0
         0         0         0         0         0         0         0         0
         0         0         0         0         0         0         0         0
         0         0         0         0         0         0         0         0
         0         0         0         0         0         0         0         0
         0         0         0         0         0         0         0         0
         0         0         0         0         0         0         0         0
         0         0         0         0         0         0         0         0
         0         0         0         0         0         0         0         0
         0         0         0         0         0         0         0         0
         0         0         0         0         0         0         0         0
         0         0         0         0         0         0         0         0
         0         0         0         0         0         0         0         0
         0         0         0         0         0         0         0         0
         0         0         0         0         0         0         0         0
         0         0         0         0         0         0         0         0
         0         0         0         0         0         0         0         0
         0         0         0         0         0         0         0         0
         0         0         0         0         0         0         0         0
         0         0         0         0         0         0         0         0
         0         0         0         0         0         0         0         0
         0         0         0         0         0         0         0         0
         0         0         0         0         0         0         0         0
         0         0         0         0         0         0         0         0
         0         0         0         0         0         0         0         0
         0         0         0         0         0         0         0         0
         0         0         0         0         0         0         0         0
         0         0         0         0         0         0         0         0
         0         0         0         0         0         0         0         0
         0         0         0         0         0         0         0         0
         0         0         0         0         0         0         0         0
         0         0         0         0         0         0         0         0
         0         0         0         0         0         0         0         0
         0         0         0         0         0         0         0         0
         0         0         0         0         0         0         0         0
         0         0         0         0         0         0         0         0
         0         0         0         0         0         0         0         0
         0         0         0         0         0         0         0         0
         0         0         0         0         0         0         0         0
         0         0         0         0         0         0         0         0
         0         0         0         0         0         0         0         0
         0         0         0         0         0         0         0         0
         0         0         0         0         0         0         0         0
         0         0         0         0         0         0         0         0
         0         0         0         0         0         0         0         0
         0         0         0         0         0         0         0         0
         0         0         0         0         0         0         0         0
         0         0         0         0         0         0         0         0
         0         0         0         0         0         0         0         0
         0         0         0         0         0         0         0         0
         0         0         0         0         0         0         0         0
         0         0         0         0         0         0         0         0
         0         0         0         0         0         0         0         0
         0         0         0         0         0         0         0         0
         0         0         0         0         0         0         0         0
         0         0         0         0         0         0         0         0
         0         0         0         0         0         0         0         0
         0         0         0         0         0         0         0         0
         0         0         0         0         0         0         0         0
         0         0         0         0         0         0         0         0
         0         0         0         0         0         0         0         0
         0         0         0         0         0         0         0         0
         0         0         0         0         0         0         0         0
         0         0         0         0         0         0         0         0
         0         0         0         0         0         0         0         0
         0         0         0         0         0         0         0         0
         0         0         0         0         0         0         0         0
         0         0         0         0         0         0         0         0
         0         0         0         0         0         0         0         0
         0         0         0         0         0         0         0         0
         0         0         0         0         0         0         0         0
         0         0         0         0         0         0         0         0
         0         0         0         0         0         0         0         0
         0         0         0         0         0         0         0         0
         0         0         0         0         0         0         0         0
         0         0         0         0         0         0         0         0
         0         0         0         0         0         0         0         0
         0         0         0         0         0         0         0         0
         0         0         0         0         0         0         0         0
         0         0         0         0         0         0         0         0
         0         0         0         0         0         0         0         0
         0         0         0         0         0         0         0         0
         0         0         0         0         0         0         0         0
         0         0         0         0         0         0         0         0
         0         0         0         0         0         0         0         0
         0         0         0         0         0         0         0         0
         0         0         0         0         0         0         0         0
         0         0         0         0         0         0         0         0
         0         0         0         0         0         0         0         0
         0         0         0         0         0         0         0         0
         0         0         0         0         0         0         0         0
         0         0         0         0         0         0         0         0
         0         0         0         0         0         0         0         0
         0         0         0         0         0         0         0         0
         0         0         0         0         0         0         0         0
         0         0         0         0         0         0         0         0
         0         0         0         0         0         0         0         0
         0         0         0         0         0         0         0         0
         0         0         0         0         0         0         0         0
         0         0         0         0         0         0         0         0
         0         0         0         0         0         0         0         0
         0         0         0         0         0         0         0         0
         0         0         0         0         0         0         0         0
         0         0         0         0         0         0         0         0
         0         0         0         0         0         0         0         0
         0         0         0         0         0         0         0         0
         0         0         0         0         0         0         0         0
         0         0         0         0         0         0         0         0
         0         0         0         0         0         0         0         0
         0         0         0         0         0         0         0         0
         0         0         0         0         0         0         0         0
         0         0         0         0         0         0         0         0
         0         0         0         0         0         0         0         0
         0         0         0         0         0         0         0         0
         0         0         0         0         0         0         0         0
         0         0         0         0         0         0         0         0
         0         0         0         0         0         0         0         0
         0         0         0         0         0         0         0         0
         0         0         0         0         0         0         0         0
         0         0         0         0         0         0         0         0
         0         0         0         0         0         0         0         0
         0         0         0         0         0         0         0         0
         0         0         0         0         0         0         0         0
         0         0         0         0         0         0         0         0
         0         0         0         0         0         0         0         0
         0         0         0         0         0         0         0         0
         0         0         0         0         0         0         0         0
         0         0         0         0         0         0         0         0
         0         0         0         0         0         0         0         0
         0         0         0         0         0         0         0         0
         0         0         0         0         0         0         0         0
         0         0         0         0         0         0         0         0
         0         0         0         0         0         0         0         0
         0         0         0         0         0         0         0         0
         0         0         0         0         0         0         0         0
         0         0         0         0         0         0         0         0
         0         0         0         0         0         0         0         0
         0         0         0         0         0         0         0         0
         0         0         0         0         0         0         0         0
         0         0         0         0         0         0         0         0
         0         0         0         0         0         0         0         0
         0         0         0         0         0         0         0         0
         0         0         0         0         0         0         0         0
         0         0         0         0         0         0         0         0
         0         0         0         0         0         0         0         0
         0         0         0         0         0         0         0         0
         0         0         0         0         0         0         0         0
         0         0         0         0         0         0         0         0
         0         0         0         0         0         0         0         0
         0         0         0         0         0         0         0         0
         0         0         0         0         0         0         0         0
         0         0         0         0         0         0         0         0
         0         0         0         0         0         0         0         0
         0         0         0         0         0         0         0         0
         0         0         0         0         0         0         0         0
         0         0         0         0         0         0         0         0
         0         0         0         0         0         0         0         0
         0         0         0         0         0         0         0         0
         0         0         0         0         0         0         0         0
         0         0         0         0         0         0         0         0
         0         0         0         0         0         0         0         0
         0         0         0         0         0         0         0         0
         0         0         0         0         0         0         0         0
         0         0         0         0         0         0         0         0
         0         0         0         0         0         0         0         0
         0         0         0         0         0         0         0         0
         0         0         0         0         0         0         0         0
         0         0         0         0         0         0         0         0
         0         0         0         0         0         0         0         0
         0         0         0         0         0         0         0         0
         0         0         0         0         0         0         0         0
         0         0         0         0         0         0         0         0
         0         0         0         0         0         0         0         0
         0         0         0         0         0         0         0         0
         0         0         0         0         0         0         0         0
         0         0         0         0         0         0         0         0
         0         0         0         0         0         0         0         0
         0         0         0         0         0         0         0         0
         0         0         0         0         0         0         0         0
         0         0         0         0         0         0         0         0
         0         0         0         0         0         0         0         0
         0         0         0         0         0         0         0         0
         0         0         0         0         0         0         0         0
         0         0         0         0         0         0         0         0
         0         0         0         0         0         0         0         0
         0         0         0         0         0         0         0         0
         0         0         0         0         0         0         0         0
         0         0         0         0         0         0         0         0
         0         0         0         0         0         0         0         0
         0         0         0         0         0         0         0         0
         0         0         0         0         0         0         0         0
         0         0         0         0         0         0         0         0
         0         0         0         0         0         0         0         0
         0         0         0         0         0         0         0         0
         0         0         0         0         0         0         0         0
         0         0         0         0         0         0         0         0
         0         0         0         0         0         0         0         0
         0         0         0         0         0         0         0         0
         0         0         0         0         0         0         0         0
         0         0         0         0         0         0         0         0
         0         0         0         0         0         0         0         0
         0         0         0         0         0         0         0         0
         0         0         0         0         0         0         0         0
         0         0         0         0         0         0         0         0
         0         0         0         0         0         0         0         0
         0         0         0         0         0         0         0         0
         0         0         0         0         0         0         0         0
         0         0         0         0         0         0         0         0
         0         0         0         0         0         0         0         0
         0         0         0         0         0         0         0         0
         0         0         0         0         0         0         0         0
         0         0         0         0         0         0         0         0
         0         0         0         0         0         0         0         0
         0         0         0         0         0         0         0         0
         0         0         0         0         0         0         0         0
         0         0         0         0         0         0         0         0
         0         0         0         0         0         0         0         0
         0         0         0         0         0         0         0         0
         0         0         0         0         0         0         0         0
         0         0         0         0         0         0         0         0
         0         0         0         0         0         0         0         0
         0         0         0         0         0         0         0         0
         0         0         0         0         0         0         0         0
         0         0         0         0         0         0         0         0
         0         0         0         0         0         0         0         0
         0         0         0         0         0         0         0         0
         0         0         0         0         0         0         0         0
         0         0         0         0         0         0         0         0
         0         0         0         0         0         0         0         0
         0         0         0         0         0         0         0         0
         0         0         0         0         0         0         0         0
         0         0         0         0         0         0         0         0
         0         0         0         0         0         0         0         0
         0         0         0         0         0         0         0         0
         0         0         0         0         0         0         0         0
         0         0         0         0         0         0         0         0
         0         0         0         0         0         0         0         0
         0         0         0         0         0         0         0         0
         0         0         0         0         0         0         0         0
         0         0         0         0         0         0         0         0
         0         0         0         0         0         0         0         0
         0         0         0         0         0         0         0         0
         0         0         0         0         0         0         0         0
         0         0         0         0         0         0         0         0
         0         0         0         0         0         0         0         0
         0         0         0         0         0         0         0         0
         0         0         0         0         0         0         0         0
         0         0         0         0         0         0         0         0
         0         0         0         0         0         0         0         0
         0         0         0         0         0         0         0         0
         0         0         0         0         0         0         0         0
         0         0         0         0         0         0         0         0
         0         0         0         0         0         0         0         0
         0         0         0         0         0         0         0         0
         0         0         0         0         0         0         0         0
         0         0         0         0         0         0         0         0
         0         0         0         0         0         0         0         0
         0         0         0         0         0         0         0         0
         0         0         0         0         0         0         0         0
         0         0         0         0         0         0         0         0
         0         0         0         0         0         0         0         0
         0         0         0         0         0         0         0         0
         0         0         0         0         0         0         0         0
         0         0         0         0         0         0         0         0
         0         0         0         0         0         0         0         0
         0         0         0         0         0         0         0         0
         0         0         0         0         0         0         0         0
         0         0         0         0         0         0         0         0
         0         0         0         0         0         0         0         0
         0         0         0         0         0         0         0         0
         0         0         0         0         0         0         0         0
         0         0         0         0         0         0         0         0
         0         0         0         0         0         0         0         0
         0         0         0         0         0         0         0         0
         0         0         0         0         0         0         0         0
         0         0         0         0         0         0         0         0
         0         0         0         0         0         0         0         0
         0         0         0         0         0         0         0         0
         0         0         0         0         0         0         0         0
         0         0         0         0         0         0         0         0
         0         0         0         0         0         0         0         0
         0         0         0         0         0         0         0         0
         0         0         0         0         0         0         0         0
         0         0         0         0         0         0         0         0
         0         0         0         0         0         0         0         0
         0         0         0         0         0         0         0         0
         0         0         0         0         0         0         0         0
         0         0         0         0         0         0         0         0
         0         0         0         0         0         0         0         0
         0         0         0         0         0         0         0         0
         0         0         0         0         0         0         0         0
         0         0         0         0         0         0         0         0
         0         0         0         0         0         0         0         0
         0         0         0         0         0         0         0         0
         0         0         0         0         0         0         0         0
         0         0         0         0         0         0         0         0
         0         0         0         0         0         0         0         0
         0         0         0         0         0         0         0         0
         0         0         0         0         0         0         0         0
         0         0         0         0         0         0         0         0
         0         0         0         0         0         0         0         0
         0         0         0         0         0         0         0         0
         0         0         0         0         0         0         0         0
         0         0         0         0         0         0         0         0
         0         0         0         0         0         0         0         0
         0         0         0         0         0         0         0         0
         0         0         0         0         0         0         0         0
         0         0         0         0         0         0         0         0
         0         0         0         0         0         0         0         0
         0         0         0         0         0         0         0         0
         0         0         0         0         0         0         0         0
         0         0         0         0         0         0         0         0
         0         0         0         0         0         0         0         0
         0         0         0         0         0         0         0         0
         0         0         0         0         0         0         0         0
         0         0         0         0         0         0         0         0
         0         0         0         0         0         0         0         0
         0         0         0         0         0         0         0         0
         0         0         0         0         0         0         0         0
         0         0         0         0         0         0         0         0
         0         0         0         0         0         0         0         0
         0         0         0         0         0         0         0         0
         0         0         0         0         0         0         0         0
         0         0         0         0         0         0         0         0
         0         0         0         0         0         0         0         0
         0         0         0         0         0         0         0         0
         0         0         0         0         0         0         0         0
         0         0         0         0         0         0         0         0
         0         0         0         0         0         0         0         0
         0         0         0         0         0         0         0         0
         0         0         0         0         0         0         0         0
         0         0         0         0         0         0         0         0
         0         0         0         0         0         0         0         0
         0         0         0         0         0         0         0         0
         0         0         0         0         0         0         0         0
         0         0         0         0         0         0         0         0
         0         0         0         0         0         0         0         0
         0         0         0         0         0         0         0         0
         0         0         0         0         0         0         0         0
         0         0         0         0         0         0         0         0
         0         0         0         0         0         0         0         0
         0         0         0         0         0         0         0         0
         0         0         0         0         0         0         0         0
         0         0         0         0         0         0         0         0
         0         0         0         0         0         0         0         0
         0         0         0         0         0         0         0         0
         0         0         0         0         0         0         0         0
         0         0         0         0         0         0         0         0
         0         0         0         0         0         0         0         0
         0         0         0         0         0         0         0         0
         0         0         0         0         0         0         0         0
         0         0         0         0         0         0         0         0
         0         0         0         0         0         0         0         0
         0         0         0         0         0         0         0         0
         0         0         0         0         0         0         0         0
         0         0         0         0         0         0         0         0
         0         0         0         0         0         0         0         0
         0         0         0         0         0         0         0         0
         0         0         0         0         0         0         0         0
         0         0         0         0         0         0         0         0
         0         0         0         0         0         0         0         0
         0         0         0         0         0         0         0         0
         0         0         0         0         0         0         0         0
         0         0         0         0         0         0         0         0
         0         0         0         0         0         0         0         0
         0         0         0         0         0         0         0         0
         0         0         0         0         0         0         0         0
         0         0         0         0         0         0         0         0
         0         0         0         0         0         0         0         0
         0         0         0         0         0         0         0         0
         0         0         0         0         0         0         0         0
         0         0         0         0         0         0         0         0
         0         0         0         0         0         0         0         0
         0         0         0         0         0         0         0         0
         0         0         0         0         0         0         0         0
         0         0         0         0         0         0         0         0
         0         0         0         0         0         0         0         0
         0         0         0         0         0         0         0         0
         0         0         0         0         0         0         0         0
         0         0         0         0         0         0         0         0
         0         0         0         0         0         0         0         0
         0         0         0         0         0         0         0         0
         0         0         0         0         0         0         0         0
         0         0         0         0         0         0         0         0
         0         0         0         0         0         0         0         0
         0         0         0         0         0         0         0         0
         0         0         0         0         0         0         0         0
         0         0         0         0         0         0         0         0
         0         0         0         0         0         0         0         0
         0         0         0         0         0         0         0         0
         0         0         0         0         0         0         0         0
         0         0         0         0         0         0         0         0
         0         0         0         0         0         0         0         0
         0         0         0         0         0         0         0         0
         0         0         0         0         0         0         0         0
         0         0         0         0         0         0         0         0
         0         0         0         0         0         0         0         0
         0         0         0         0         0         0         0         0
         0         0         0         0         0         0         0         0
         0         0         0         0         0         0         0         0
         0         0         0         0         0         0         0         0
         0         0         0         0         0         0         0         0
         0         0         0         0         0         0         0         0
         0         0         0         0         0         0         0         0
         0         0         0         0         0         0         0         0
         0         0         0         0         0         0         0         0
         0         0         0         0         0         0         0         0
         0         0         0         0         0         0         0         0
         0         0         0         0         0         0         0         0
         0         0         0         0         0         0         0         0
         0         0         0         0         0         0         0         0
         0         0         0         0         0         0         0         0
         0         0         0         0         0         0         0         0
         0         0         0         0         0         0         0         0
         0         0         0         0         0         0         0         0
         0         0         0         0         0         0         0         0
         0         0         0         0         0         0         0         0
         0         0         0         0         0         0         0         0
         0         0         0         0         0         0         0         0
         0         0         0         0         0         0         0         0
         0         0         0         0         0         0         0         0
         0         0         0         0         0         0         0         0
         0         0         0         0         0         0         0         0
         0         0         0         0         0         0         0         0
         0         0         0         0         0         0         0         0
         0         0         0         0         0         0         0         0
         0         0         0         0         0         0         0         0
         0         0         0         0         0         0         0         0
         0         0         0         0         0         0         0         0
         0         0         0         0         0         0         0         0
         0         0         0         0         0         0         0         0
         0         0         0         0         0         0         0         0
         0         0         0         0         0         0         0         0
         0         0         0         0         0         0         0         0
         0         0         0         0         0         0         0         0
         0         0         0         0         0         0         0         0
         0         0         0         0         0         0         0         0
         0         0         0         0         0         0         0         0
         0         0         0         0         0         0         0         0
         0         0         0         0         0         0         0         0
         0         0         0         0         0         0         0         0
         0         0         0         0         0         0         0         0
         0         0         0         0         0         0         0         0
         0         0         0         0         0         0         0         0
         0         0         0         0         0         0         0         0
         0         0         0         0         0         0         0         0
         0         0         0         0         0         0         0         0
         0         0         0         0         0         0         0         0
         0         0         0         0         0         0         0         0
         0         0         0         0         0         0         0         0
         0         0         0         0         0         0         0         0
         0         0         0         0         0         0         0         0
         0         0         0         0         0         0         0         0
         0         0         0         0         0         0         0         0
         0         0         0         0         0         0         0         0
         0         0         0         0         0         0         0         0
         0         0         0         0         0         0         0         0
         0         0         0         0         0         0         0         0
         0         0         0         0         0         0         0         0
         0         0         0         0         0         0         0         0
         0         0         0         0         0         0         0         0
         0         0         0         0         0         0         0         0
         0         0         0         0         0         0         0         0
         0         0         0         0         0         0         0         0
         0         0         0         0         0         0         0         0
         0         0         0         0         0         0         0         0
         0         0         0         0         0         0         0         0
         0         0         0         0         0         0         0         0
         0         0         0         0         0         0         0         0
         0         0         0         0         0         0         0         0
         0         0         0         0         0         0         0         0
         0         0         0         0         0         0         0         0
         0         0         0         0         0         0         0         0
         0         0         0         0         0         0         0         0
         0         0         0         0         0         0         0         0
         0         0         0         0         0         0         0         0
         0         0         0         0         0         0         0         0
         0         0         0         0         0         0         0         0
         0         0         0         0         0         0         0         0
         0         0         0         0         0         0         0         0
         0         0         0         0         0         0         0         0
         0         0         0         0         0         0         0         0
         0         0         0         0         0         0         0         0
         0         0         0         0         0         0         0         0
         0         0         0         0         0         0         0         0
         0         0         0         0         0         0         0         0
         0         0         0         0         0         0         0         0
         0         0         0         0         0         0         0         0
         0         0         0         0         0         0         0         0
         0         0         0         0         0         0         0         0
         0         0         0         0         0         0         0         0
         0         0         0         0         0         0         0         0
         0         0         0         0         0         0         0         0
         0         0         0         0         0         0         0         0
         0         0         0         0         0         0         0         0
         0         0         0         0         0         0         0         0
         0         0         0         0         0         0         0         0
         0         0         0         0         0         0         0         0
         0         0         0         0         0         0         0         0
         0         0         0         0         0         0         0         0
         0         0         0         0         0         0         0         0
         0         0         0         0         0         0         0         0
         0         0         0         0         0         0         0         0
         0         0         0         0         0         0         0         0
         0         0         0         0         0         0         0         0
         0         0         0         0         0         0         0         0
         0         0         0         0         0         0         0         0
         0         0         0         0         0         0         0         0
         0         0         0         0         0         0         0         0
         0         0         0         0         0         0         0         0
         0         0         0         0         0         0         0         0
         0         0         0         0         0         0         0         0
         0         0         0         0         0         0         0         0
         0         0         0         0         0         0         0         0
         0         0         0         0         0         0         0         0
         0         0         0         0         0         0         0         0
         0         0         0         0         0         0         0         0
         0         0         0         0         0         0         0         0
         0         0         0         0         0         0         0         0
         0         0         0         0         0         0         0         0
         0         0         0         0         0         0         0         0
         0         0         0         0         0         0         0         0
         0         0         0         0         0         0         0         0
         0         0         0         0         0         0         0         0
         0         0         0         0         0         0         0         0
         0         0         0         0         0         0         0         0
         0         0         0         0         0         0         0         0
         0         0         0         0         0         0         0         0
         0         0         0         0         0         0         0         0
         0         0         0         0         0         0         0         0
         0         0         0         0         0         0         0         0
         0         0         0         0         0         0         0         0
         0         0         0         0         0         0         0         0
         0         0         0         0         0         0         0         0
         0         0         0         0         0         0         0         0
         0         0         0         0         0         0         0         0
         0         0         0         0         0         0         0         0
         0         0         0         0         0         0         0         0
         0         0         0         0         0         0         0         0
         0         0         0         0         0         0         0         0
         0         0         0         0         0         0         0         0
         0         0         0         0         0         0         0         0
         0         0         0         0         0         0         0         0
         0         0         0         0         0         0         0         0
         0         0         0         0         0         0         0         0
         0         0         0         0         0         0         0         0
         0         0         0         0         0         0         0         0
         0         0         0         0         0         0         0         0
         0         0         0         0         0         0         0         0
         0         0         0         0         0         0         0         0
         0         0         0         0         0         0         0         0
         0         0         0         0         0         0         0         0
         0         0         0         0         0         0         0         0
         0         0         0         0         0         0         0         0
         0         0         0         0         0         0         0         0
         0         0         0         0         0         0         0         0
         0         0         0         0         0         0         0         0
         0         0         0         0         0         0         0         0
         0         0         0         0         0         0         0         0
         0         0         0         0         0         0         0         0
         0         0         0         0         0         0         0         0
         0         0         0         0         0         0         0         0
         0         0         0         0         0         0         0         0
         0         0         0         0         0         0         0         0
         0         0         0         0         0         0         0         0
         0         0         0         0         0         0         0         0
         0         0         0         0         0         0         0         0
         0         0         0         0         0         0         0         0
         0         0         0         0         0         0         0         0
         0         0         0         0         0         0         0         0
         0         0         0         0         0         0         0         0
         0         0         0         0         0         0         0         0
         0         0         0         0         0         0         0         0
         0         0         0         0         0         0         0         0
         0         0         0         0         0         0         0         0
         0         0         0         0         0         0         0         0
         0         0         0         0         0         0         0         0
         0         0         0         0         0         0         0         0
         0         0         0         0         0         0         0         0
         0         0         0         0         0         0         0         0
         0         0         0         0         0         0         0         0
         0         0         0         0         0         0         0         0
         0         0         0         0         0         0         0         0
         0         0         0         0         0         0         0         0
         0         0         0         0         0         0         0         0
         0         0         0         0         0         0         0         0
         0         0         0         0         0         0         0         0
         0         0         0         0         0         0         0         0
         0         0         0         0         0         0         0         0
         0         0         0         0         0         0         0         0
         0         0         0         0         0         0         0         0
         0         0         0         0         0         0         0         0
         0         0         0         0         0         0         0         0
         0         0         0         0         0         0         0         0
         0         0         0         0         0         0         0         0
         0         0         0         0         0         0         0         0
         0         0         0         0         0         0         0         0
         0         0         0         0         0         0         0         0
         0         0         0         0         0         0         0         0
         0         0         0         0         0         0         0         0
         0         0         0         0         0         0         0         0
         0         0         0         0         0         0         0         0
         0         0         0         0         0         0         0         0
         0         0         0         0         0         0         0         0
         0         0         0         0         0         0         0         0
         0         0         0         0         0         0         0         0
         0         0         0         0         0         0         0         0
         0         0         0         0         0         0         0         0
         0         0         0         0         0         0         0         0
         0         0         0         0         0         0         0         0
         0         0         0         0         0         0         0         0
         0         0         0         0         0         0         0         0
         0         0         0         0         0         0         0         0
         0         0         0         0         0         0         0         0
         0         0         0         0         0         0         0         0
         0         0         0         0         0         0         0         0
         0         0         0         0         0         0         0         0
         0         0         0         0         0         0         0         0
         0         0         0         0         0         0         0         0
         0         0         0         0         0         0         0         0
         0         0         0         0         0         0         0         0
         0         0         0         0         0         0         0         0
         0         0         0         0         0         0         0         0
         0         0         0         0         0         0         0         0
         0         0         0         0         0         0         0         0
         0         0         0         0         0         0         0         0
         0         0         0         0         0         0         0         0
         0         0         0         0         0         0         0         0
         0         0         0         0         0         0         0         0
         0         0         0         0         0         0         0         0
         0         0         0         0         0         0         0         0
         0         0         0         0         0         0         0         0
         0         0         0         0         0         0         0         0
         0         0         0         0         0         0         0         0
         0         0         0         0         0         0         0         0
         0         0         0         0         0         0         0         0
         0         0         0         0         0         0         0         0
         0         0         0         0         0         0         0         0
         0         0         0         0         0         0         0         0
         0         0         0         0         0         0         0         0
         0         0         0         0         0         0         0         0
         0         0         0         0         0         0         0         0
         0         0         0         0         0         0         0         0
         0         0         0         0         0         0         0         0
         0         0         0         0         0         0         0         0
         0         0         0         0         0         0         0         0
         0         0         0         0         0         0         0         0
         0         0         0         0         0         0         0         0
         0         0         0         0         0         0         0         0
         0         0         0         0         0         0         0         0
         0         0         0         0         0         0         0         0
         0         0         0         0         0         0         0         0
         0         0         0         0         0         0         0         0
         0         0         0         0         0         0         0         0
         0         0         0         0         0         0         0         0
         0         0         0         0         0         0         0         0
         0         0         0         0         0         0         0         0
         0         0         0         0         0         0         0         0
         0         0         0         0         0         0         0         0
         0         0         0         0         0         0         0         0
         0         0         0         0         0         0         0         0
         0         0         0         0         0         0         0         0
         0         0         0         0         0         0         0         0
         0         0         0         0         0         0         0         0
         0         0         0         0         0         0         0         0
         0         0         0         0         0         0         0         0
         0         0         0         0         0         0         0         0
         0         0         0         0         0         0         0         0
         0         0         0         0         0         0         0         0
         0         0         0         0         0         0         0         0
         0         0         0         0         0         0         0         0
         0         0         0         0         0         0         0         0
         0         0         0         0         0         0         0         0
         0         0         0         0         0         0         0         0
         0         0         0         0         0         0         0         0
         0         0         0         0         0         0         0         0
         0         0         0         0         0         0         0         0
         0         0         0         0         0         0         0         0
         0         0         0         0         0         0         0         0
         0         0         0         0         0         0         0         0
         0         0         0         0         0         0         0         0
         0         0         0         0         0         0         0         0
         0         0         0         0         0         0         0         0
         0         0         0         0         0         0         0         0
         0         0         0         0         0         0         0         0
         0         0         0         0         0         0         0         0
         0         0         0         0         0         0         0         0
         0         0         0         0         0         0         0         0
         0         0         0         0         0         0         0         0
         0         0         0         0         0         0         0         0
         0         0         0         0         0         0         0         0
         0         0         0         0         0         0         0         0
         0         0         0         0         0         0         0         0
         0         0         0         0         0         0         0         0
         0         0         0         0         0         0         0         0
         0         0         0         0         0         0         0         0
         0         0         0         0         0         0         0         0
         0         0         0         0         0         0         0         0
         0         0         0         0         0         0         0         0
         0         0         0         0         0         0         0         0
         0         0         0         0         0         0         0         0
         0         0         0         0         0         0         0         0
         0         0         0         0         0         0         0         0
         0         0         0         0         0         0         0         0
         0         0         0         0         0         0         0         0
         0         0         0         0         0         0         0         0
         0         0         0         0         0         0         0         0
         0         0         0         0         0         0         0         0
         0         0         0         0         0         0         0         0
         0         0         0         0         0         0         0         0
         0         0         0         0         0         0         0         0
         0         0         0         0         0         0         0         0
         0         0         0         0         0         0         0         0
         0         0         0         0         0         0         0         0
         0         0         0         0         0         0         0         0
         0         0         0         0         0         0         0         0
         0         0         0         0         0         0         0         0
         0         0         0         0         0         0         0         0
         0         0         0         0         0         0         0         0
         0         0         0         0         0         0         0         0
         0         0         0         0         0         0         0         0
         0         0         0         0         0         0         0         0
         0         0         0         0         0         0         0         0
         0         0         0         0         0         0         0         0
         0         0         0         0         0         0         0         0
         0         0         0         0         0         0         0         0
         0         0         0         0         0         0         0         0
         0         0         0         0         0         0         0         0
         0         0         0         0         0         0         0         0
         0         0         0         0         0         0         0         0
         0         0         0         0         0         0         0         0
         0         0         0         0         0         0         0         0
         0         0         0         0         0         0         0         0
         0         0         0         0         0         0         0         0
         0         0         0         0         0         0         0         0
         0         0         0         0         0         0         0         0
         0         0         0         0         0         0         0         0
         0         0         0         0         0         0         0         0
         0         0         0         0         0         0         0         0
         0         0         0         0         0         0         0         0
         0         0         0         0         0         0         0         0
         0         0         0         0         0         0         0         0
         0         0         0         0         0         0         0         0
         0         0         0         0         0         0         0         0
         0         0         0         0         0         0         0         0
         0         0         0         0         0         0         0         0
         0         0         0         0         0         0         0         0
         0         0         0         0         0         0         0         0
         0         0         0         0         0         0         0         0
         0         0         0         0         0         0         0         0
         0         0         0         0         0         0         0         0
         0         0         0         0         0         0         0         0
         0         0         0         0         0         0         0         0
         0         0         0         0         0         0         0         0
         0         0         0         0         0         0         0         0
         0         0         0         0         0         0         0         0
         0         0         0         0         0         0         0         0
         0         0         0         0         0         0         0         0
         0         0         0         0         0         0         0         0
         0         0         0         0         0         0         0         0
         0         0         0         0         0         0         0         0
         0         0         0         0         0         0         0         0
         0         0         0         0         0         0         0         0
         0         0         0         0         0         0         0         0
         0         0         0         0         0         0         0         0
         0         0         0         0         0         0         0         0
         0         0         0         0         0         0         0         0
         0         0         0         0         0         0         0         0
         0         0         0         0         0         0         0         0
         0         0         0         0         0         0         0         0
         0         0         0         0         0         0         0         0
         0         0         0         0         0         0         0         0
         0         0         0         0         0         0         0         0
         0         0         0         0         0         0         0         0
         0         0         0         0         0         0         0         0
         0         0         0         0         0         0         0         0
         0         0         0         0         0         0         0         0
         0         0         0         0         0         0         0         0
         0         0         0         0         0         0         0         0
         0         0         0         0         0         0         0         0
         0         0         0         0         0         0         0         0
         0         0         0         0         0         0         0         0
         0         0         0         0         0         0         0         0
         0         0         0         0         0         0         0         0
         0         0         0         0         0         0         0         0
         0         0         0         0         0         0         0         0
         0         0         0         0         0         0         0         0
         0         0         0         0         0         0         0         0
         0         0         0         0         0         0         0         0
         0         0         0         0         0         0         0         0
         0         0         0         0         0         0         0         0
         0         0         0         0         0         0         0         0
         0         0         0         0         0         0         0         0
         0         0         0         0         0         0         0         0
         0         0         0         0         0         0         0         0
         0         0         0         0         0         0         0         0
         0         0         0         0         0         0         0         0
         0         0         0         0         0         0         0         0
         0         0         0         0         0         0         0         0
         0         0         0         0         0         0         0         0
         0         0         0         0         0         0         0         0
         0         0         0         0         0         0         0         0
         0         0         0         0         0         0         0         0
         0         0         0         0         0         0         0         0
         0         0         0         0         0         0         0         0
         0         0         0         0         0         0         0         0
         0         0         0         0         0         0         0         0
         0         0         0         0         0         0         0         0
         0         0         0         0         0         0         0         0
         0         0         0         0         0         0         0         0
         0         0         0         0         0         0         0         0
         0         0         0         0         0         0         0         0
         0         0         0         0         0         0         0         0
         0         0         0         0         0         0         0         0
         0         0         0         0         0         0         0         0
         0         0         0         0         0         0         0         0
         0         0         0         0         0         0         0         0
         0         0         0         0         0         0         0         0
         0         0         0         0         0         0         0         0
         0         0         0         0         0         0         0         0
         0         0         0         0         0         0         0         0
         0         0         0         0         0         0         0         0
         0         0         0         0         0         0         0         0
         0         0         0         0         0         0         0         0
         0         0         0         0         0         0         0         0
         0         0         0         0         0         0         0         0
         0         0         0         0         0         0         0         0
         0         0         0         0         0         0         0         0
         0         0         0         0         0         0         0         0
         0         0         0         0         0         0         0         0
         0         0         0         0         0         0         0         0
         0         0         0         0         0         0         0         0
         0         0         0         0         0         0         0         0
         0         0         0         0         0         0         0         0
         0         0         0         0         0         0         0         0
         0         0         0         0         0         0         0         0
         0         0         0         0         0         0         0         0
         0         0         0         0         0         0         0         0
         0         0         0         0         0         0         0         0
         0         0         0         0         0         0         0         0
         0         0         0         0         0         0         0         0
         0         0         0         0         0         0         0         0
         0         0         0         0         0         0         0         0
         0         0         0         0         0         0         0         0
         0         0         0         0         0         0         0         0
         0         0         0         0         0         0         0         0
         0         0         0         0         0         0         0         0
         0         0         0         0         0         0         0         0
         0         0         0         0         0         0         0         0
         0         0         0         0         0         0         0         0
         0         0         0         0         0         0         0         0
         0         0         0         0         0         0         0         0
         0         0         0         0         0         0         0         0
         0         0         0         0         0         0         0         0
         0         0         0         0         0         0         0         0
         0         0         0         0         0         0         0         0
         0         0         0         0         0         0         0         0
         0         0         0         0         0         0         0         0
         0         0         0         0         0         0         0         0
         0         0         0         0         0         0         0         0
         0         0         0         0         0         0         0         0
         0         0         0         0         0         0         0         0
         0         0         0         0         0         0         0         0
         0         0         0         0         0         0         0         0
         0         0         0         0         0         0         0         0
         0         0         0         0         0         0         0         0
         0         0         0         0         0         0         0         0
         0         0         0         0         0         0         0         0
         0         0         0         0         0         0         0         0
         0         0         0         0         0         0         0         0
         0         0         0         0         0         0         0         0
         0         0         0         0         0         0         0         0
         0         0         0         0         0         0         0         0
         0         0         0         0         0         0         0         0
         0         0         0         0         0         0         0         0
         0         0         0         0         0         0         0         0
         0         0         0         0         0         0         0         0
         0         0         0         0         0         0         0         0
         0         0         0         0         0         0         0         0
         0         0         0         0         0         0         0         0
         0         0         0         0         0         0         0         0
         0         0         0         0         0         0         0         0
         0         0         0         0         0         0         0         0
         0         0         0         0         0         0         0         0
         0         0         0         0         0         0         0         0
         0         0         0         0         0         0         0         0
         0         0         0         0         0         0         0         0
         0         0         0         0         0         0         0         0
         0         0         0         0         0         0         0         0
         0         0         0         0         0         0         0         0
         0         0         0         0         0         0         0         0
         0         0         0         0         0         0         0         0
         0         0         0         0         0         0         0         0
         0         0         0         0         0         0         0         0
         0         0         0         0         0         0         0         0
         0         0         0         0         0         0         0         0
         0         0         0         0         0         0         0         0
         0         0         0         0         0         0         0         0
         0         0         0         0         0         0         0         0
         0         0         0         0         0         0         0         0
         0         0         0         0         0         0         0         0
         0         0         0         0         0         0         0         0
         0         0         0         0         0         0         0         0
         0         0         0         0         0         0         0         0
         0         0         0         0         0         0         0         0
         0         0         0         0         0         0         0         0
         0         0         0         0         0         0         0         0
         0         0         0         0         0         0         0         0
         0         0         0         0         0         0         0         0
         0         0         0         0         0         0         0         0
         0         0         0         0         0         0         0         0
         0         0         0         0         0         0         0         0
         0         0         0         0         0         0         0         0
         0         0         0         0         0         0         0         0
         0         0         0         0         0         0         0         0
         0         0         0         0         0         0         0         0
         0         0         0         0         0         0         0         0
         0         0         0         0         0         0         0         0
         0         0         0         0         0         0         0         0
         0         0         0         0         0         0         0         0
         0         0         0         0         0         0         0         0
         0         0         0         0         0         0         0         0
         0         0         0         0         0         0         0         0
         0         0         0         0         0         0         0         0
         0         0         0         0         0         0         0         0
         0         0         0         0         0         0         0         0
         0         0         0         0         0         0         0         0
         0         0         0         0         0         0         0         0
         0         0         0         0         0         0         0         0
         0         0         0         0         0         0         0         0
         0         0         0         0         0         0         0         0
         0         0         0         0         0         0         0         0
         0         0         0         0         0         0         0         0
         0         0         0         0         0         0         0         0
         0         0         0         0         0         0         0         0
         0         0         0         0         0         0         0         0
         0         0         0         0         0         0         0         0
         0         0         0         0         0         0         0         0
         0         0         0         0         0         0         0         0
         0         0         0         0         0         0         0         0
         0         0         0         0         0         0         0         0
         0         0         0         0         0         0         0         0
         0         0         0         0         0         0         0         0
         0         0         0         0         0         0         0         0
         0         0         0         0         0         0         0         0
         0         0         0         0         0         0         0         0
         0         0         0         0         0         0         0         0
         0         0         0         0         0         0         0         0
         0         0         0         0         0         0         0         0
         0         0         0         0         0         0         0         0
         0         0         0         0         0         0         0         0
         0         0         0         0         0         0         0         0
         0         0         0         0         0         0         0         0
         0         0         0         0         0         0         0         0
         0         0         0         0         0         0         0         0
         0         0         0         0         0         0         0         0
         0         0         0         0         0         0         0         0
         0         0         0         0         0         0         0         0
         0         0         0         0         0         0         0         0
         0         0         0         0         0         0         0         0
         0         0         0         0         0         0         0         0
         0         0         0         0         0         0         0         0
         0         0         0         0         0         0         0         0
         0         0         0         0         0         0         0         0
         0         0         0         0         0         0         0         0
         0         0         0         0         0         0         0         0
         0         0         0         0         0         0         0         0
         0         0         0         0         0         0         0         0
         0         0         0         0         0         0         0         0
         0         0         0         0         0         0         0         0
         0         0         0         0         0         0         0         0
         0         0         0         0         0         0         0         0
         0         0         0         0         0         0         0         0
         0         0         0         0         0         0         0         0
         0         0         0         0         0         0         0         0
         0         0         0         0         0         0         0         0
         0         0         0         0         0         0         0         0
         0         0         0         0         0         0         0         0
         0         0         0         0         0         0         0         0
         0         0         0         0         0         0         0         0
         0         0         0         0         0         0         0         0
         0         0         0         0         0         0         0         0
         0         0         0         0         0         0         0         0
         0         0         0         0         0         0         0         0
         0         0         0         0         0         0         0         0
         0         0         0         0         0         0         0         0
         0         0         0         0         0         0         0         0
         0         0         0         0         0         0         0         0
         0         0         0         0         0         0         0         0
         0         0         0         0         0         0         0         0
         0         0         0         0         0         0         0         0
         0         0         0         0         0         0         0         0
         0         0         0         0         0         0         0         0
         0         0         0         0         0         0         0         0
         0         0         0         0         0         0         0         0
         0         0         0         0         0         0         0         0
         0         0         0         0         0         0         0         0
         0         0         0         0         0         0         0         0
         0         0         0         0         0         0         0         0
         0         0         0         0         0         0         0         0
         0         0         0         0         0         0         0         0
         0         0         0         0         0         0         0         0
         0         0         0         0         0         0         0         0
         0         0         0         0         0         0         0         0
         0         0         0         0         0         0         0         0
         0         0         0         0         0         0         0         0
         0         0         0         0         0         0         0         0
         0         0         0         0         0         0         0         0
         0         0         0         0         0         0         0         0
         0         0         0         0         0         0         0         0
         0         0         0         0         0         0         0         0
         0         0         0         0         0         0         0         0
         0         0         0         0         0         0         0         0
         0         0         0         0         0         0         0         0
         0         0         0         0         0         0         0         0
         0         0         0         0         0         0         0         0
         0         0         0         0         0         0         0         0
         0         0         0         0         0         0         0         0
         0         0         0         0         0         0         0         0
         0         0         0         0         0         0         0         0
         0         0         0         0         0         0         0         0
         0         0         0         0         0         0         0         0
         0         0         0         0         0         0         0         0
         0         0         0         0         0         0         0         0
         0         0         0         0         0         0         0         0
         0         0         0         0         0         0         0         0
         0         0         0         0         0         0         0         0
         0         0         0         0         0         0         0         0
         0         0         0         0         0         0         0         0
         0         0         0         0         0         0         0         0
         0         0         0         0         0         0         0         0
         0         0         0         0         0         0         0         0
         0         0         0         0         0         0         0         0
         0         0         0         0         0         0         0         0
         0         0         0         0         0         0         0         0
         0         0         0         0         0         0         0         0
         0         0         0         0         0         0         0         0
         0         0         0         0         0         0         0         0
         0         0         0         0         0         0         0         0
         0         0         0         0         0         0         0         0
         0         0         0         0         0         0         0         0
         0         0         0         0         0         0         0         0
         0         0         0         0         0         0         0         0
         0         0         0         0         0         0         0         0
         0         0         0         0         0         0         0         0
         0         0         0         0         0         0         0         0
         0         0         0         0         0         0         0         0
         0         0         0         0         0         0         0         0
         0         0         0         0         0         0         0         0
         0         0         0         0         0         0         0         0
         0         0         0         0         0         0         0         0
         0         0         0         0         0         0         0         0
         0         0         0         0         0         0         0         0
         0         0         0         0         0         0         0         0
         0         0         0         0         0         0         0         0
         0         0         0         0         0         0         0         0
         0         0         0         0         0         0         0         0
         0         0         0         0         0         0         0         0
         0         0         0         0         0         0         0         0
         0         0         0         0         0         0         0         0
         0         0         0         0         0         0         0         0
         0         0         0         0         0         0         0         0
         0         0         0         0         0         0         0         0
         0         0         0         0         0         0         0         0
         0         0         0         0         0         0         0         0
         0         0         0         0         0         0         0         0
         0         0         0         0         0         0         0         0
         0         0         0         0         0         0         0         0
         0         0         0         0         0         0         0         0
         0         0         0         0         0         0         0         0
         0         0         0         0         0         0         0         0
         0         0         0         0         0         0         0         0
         0         0         0         0         0         0         0         0
         0         0         0         0         0         0         0         0
         0         0         0         0         0         0         0         0
         0         0         0         0         0         0         0         0
         0         0         0         0         0         0         0         0
         0         0         0         0         0         0         0         0
         0         0         0         0         0         0         0         0
         0         0         0         0         0         0         0         0
         0         0         0         0         0         0         0         0
         0         0         0         0         0         0         0         0
         0         0         0         0         0         0         0         0
         0         0         0         0         0         0         0         0
         0         0         0         0         0         0         0         0
         0         0         0         0         0         0         0         0
         0         0         0         0         0         0         0         0
         0         0         0         0         0         0         0         0
         0         0         0         0         0         0         0         0
         0         0         0         0         0         0         0         0
         0         0         0         0         0         0         0         0
         0         0         0         0         0         0         0         0
         0         0         0         0         0         0         0         0
         0         0         0         0         0         0         0         0
         0         0         0         0         0         0         0         0
         0         0         0         0         0         0         0         0
         0         0         0         0         0         0         0         0
         0         0         0         0         0         0         0         0
         0         0         0         0         0         0         0         0
         0         0         0         0         0         0         0         0
         0         0         0         0         0         0         0         0
         0         0         0         0         0         0         0         0
         0         0         0         0         0         0         0         0
         0         0         0         0         0         0         0         0
         0         0         0         0         0         0         0         0
         0         0         0         0         0         0         0         0
         0         0         0         0         0         0         0         0
         0         0         0         0         0         0         0         0
         0         0         0         0         0         0         0         0
         0         0         0         0         0         0         0         0
         0         0         0         0         0         0         0         0
         0         0         0         0         0         0         0         0
         0         0         0         0         0         0         0         0
         0         0         0         0         0         0         0         0
         0         0         0         0         0         0         0         0
         0         0         0         0         0         0         0         0
         0         0         0         0         0         0         0         0
         0         0         0         0         0         0         0         0
         0         0         0         0         0         0         0         0
         0         0         0         0         0         0         0         0
         0         0         0         0         0         0         0         0
         0         0         0         0         0         0         0         0
         0         0         0         0         0         0         0         0
         0         0         0         0         0         0         0         0
         0         0         0         0         0         0         0         0
         0         0         0         0         0         0         0         0
         0         0         0         0         0         0         0         0
         0         0         0         0         0         0         0         0
         0         0         0         0         0         0         0         0
         0         0         0         0         0         0         0         0
         0         0         0         0         0         0         0         0
         0         0         0         0         0         0         0         0
         0         0         0         0         0         0         0         0
         0         0         0         0         0         0         0         0
         0         0         0         0         0         0         0         0
         0         0         0         0         0         0         0         0
         0         0         0         0         0         0         0         0
         0         0         0         0         0         0         0         0
         0         0         0         0         0         0         0         0
         0         0         0         0         0         0         0         0
         0         0         0         0         0         0         0         0
         0         0         0         0         0         0         0         0
         0         0         0         0         0         0         0         0
         0         0         0         0         0         0         0         0
         0         0         0         0         0         0         0         0
         0         0         0         0         0         0         0         0
         0         0         0         0         0         0         0         0
         0         0         0         0         0         0         0         0
         0         0         0         0         0         0         0         0
         0         0         0         0         0         0         0         0
         0         0         0         0         0         0         0         0
         0         0         0         0         0         0         0         0
         0         0         0         0         0         0         0         0
         0         0         0         0         0         0         0         0
         0         0         0         0         0         0         0         0
         0         0         0         0         0         0         0         0
         0         0         0         0         0         0         0         0
         0         0         0         0         0         0         0         0
         0         0         0         0         0         0         0         0
         0         0         0         0         0         0         0         0
         0         0         0         0         0         0         0         0
         0         0         0         0         0         0         0         0
         0         0         0         0         0         0         0         0
         0         0         0         0         0         0         0         0
         0         0         0         0         0         0         0         0
         0         0         0         0         0         0         0         0
         0         0         0         0         0         0         0         0
         0         0         0         0         0         0         0         0
         0         0         0         0         0         0         0         0
         0         0         0         0         0         0         0         0
         0         0         0         0         0         0         0         0
         0         0         0         0         0         0         0         0
         0         0         0         0         0         0         0         0
         0         0         0         0         0         0         0         0
         0         0         0         0         0         0         0         0
         0         0         0         0         0         0         0         0
         0         0         0         0         0         0         0         0
         0         0         0         0         0         0         0         0
         0         0         0         0         0         0         0         0
         0         0         0         0         0         0         0         0
         0         0         0         0         0         0         0         0
         0         0         0         0         0         0         0         0
         0         0         0         0         0         0         0         0
         0         0         0         0         0         0         0         0
         0         0         0         0         0         0         0         0
         0         0         0         0         0         0         0         0
         0         0         0         0         0         0         0         0
         0         0         0         0         0         0         0         0
         0         0         0         0         0         0         0         0
         0         0         0         0         0         0         0         0
         0         0         0         0         0         0         0         0
         0         0         0         0         0         0         0         0
         0         0         0         0         0         0         0         0
         0         0         0         0         0         0         0         0
         0         0         0         0         0         0         0         0
         0         0         0         0         0         0         0         0
         0         0         0         0         0         0         0         0
         0         0         0         0         0         0         0         0
         0         0         0         0         0         0         0         0
         0         0         0         0         0         0         0         0
         0         0         0         0         0         0         0         0
         0         0         0         0         0         0         0         0
         0         0         0         0         0         0         0         0
         0         0         0         0         0         0         0         0
         0         0         0         0         0         0         0         0
         0         0         0         0         0         0         0         0
         0         0         0         0         0         0         0         0
         0         0         0         0         0         0         0         0
         0         0         0         0         0         0         0         0
         0         0         0         0         0         0         0         0
         0         0         0         0         0         0         0         0
         0         0         0         0         0         0         0         0
         0         0         0         0         0         0         0         0
         0         0         0         0         0         0         0         0
         0         0         0         0         0         0         0         0
         0         0         0         0         0         0         0         0
         0         0         0         0         0         0         0         0
         0         0         0         0         0         0         0         0
         0         0         0         0         0         0         0         0
         0         0         0         0         0         0         0         0
         0         0         0         0         0         0         0         0
         0         0         0         0         0         0         0         0
         0         0         0         0         0         0         0         0
         0         0         0         0         0         0         0         0
         0         0         0         0         0         0         0         0
         0         0         0         0         0         0         0         0
         0         0         0         0         0         0         0         0
         0         0         0         0         0         0         0         0
         0         0         0         0         0         0         0         0
         0         0         0         0         0         0         0         0
         0         0         0         0         0         0         0         0
         0         0         0         0         0         0         0         0
         0         0         0         0         0         0         0         0
         0         0         0         0         0         0         0         0
         0         0         0         0         0         0         0         0
         0         0         0         0         0         0         0         0
         0         0         0         0         0         0         0         0
         0         0         0         0         0         0         0         0
         0         0         0         0         0         0         0         0
         0         0         0         0         0         0         0         0
         0         0         0         0         0         0         0         0
         0         0         0         0         0         0         0         0
         0         0         0         0         0         0         0         0
         0         0         0         0         0         0         0         0
         0         0         0         0         0         0         0         0
         0         0         0         0         0         0         0         0
         0         0         0         0         0         0         0         0
         0         0         0         0         0         0         0         0
         0         0         0         0         0         0         0         0
         0         0         0         0         0         0         0         0
         0         0         0         0         0         0         0         0
         0         0         0         0         0         0         0         0
         0         0         0         0         0         0         0         0
         0         0         0         0         0         0         0         0
         0         0         0         0         0         0         0         0
         0         0         0         0         0         0         0         0
         0         0         0         0         0         0         0         0
         0         0         0         0         0         0         0         0
         0         0         0         0         0         0         0         0
         0         0         0         0         0         0         0         0
         0         0         0         0         0         0         0         0
         0         0         0         0         0         0         0         0
         0         0         0         0         0         0         0         0
         0         0         0         0         0         0         0         0
         0         0         0         0         0         0         0         0
         0         0         0         0         0         0         0         0
         0         0         0         0         0         0         0         0
         0         0         0         0         0         0         0         0
         0         0         0         0         0         0         0         0
         0         0         0         0         0         0         0         0
         0         0         0         0         0         0         0         0
         0         0         0         0         0         0         0         0
         0         0         0         0         0         0         0         0
         0         0         0         0         0         0         0         0
         0         0         0         0         0         0         0         0
         0         0         0         0         0         0         0         0
         0         0         0         0         0         0         0         0
         0         0         0         0         0         0         0         0
         0         0         0         0         0         0         0         0
         0         0         0         0         0         0         0         0
         0         0         0         0         0         0         0         0
         0         0         0         0         0         0         0         0
         0         0         0         0         0         0         0         0
         0         0         0         0         0         0         0         0
         0         0         0         0         0         0         0         0
         0         0         0         0         0         0         0         0
         0         0         0         0         0         0         0         0
         0         0         0         0         0         0         0         0
         0         0         0         0         0         0         0         0
         0         0         0         0         0         0         0         0
         0         0         0         0         0         0         0         0
         0         0         0         0         0         0         0         0
         0         0         0         0         0         0         0         0
         0         0         0         0         0         0         0         0
         0         0         0         0         0         0         0         0
         0         0         0         0         0         0         0         0
         0         0         0         0         0         0         0         0
         0         0         0         0         0         0         0         0
         0         0         0         0         0         0         0         0
         0         0         0         0         0         0         0         0
         0         0         0         0         0         0         0         0
         0         0         0         0         0         0         0         0
         0         0         0         0         0         0         0         0
         0         0         0         0         0         0         0         0
         0         0         0         0         0         0         0         0
         0         0         0         0         0         0         0         0
         0         0         0         0         0         0         0         0
         0         0         0         0         0         0         0         0
         0         0         0         0         0         0         0         0
         0         0         0         0         0         0         0         0
         0         0         0         0         0         0         0         0
         0         0         0         0         0         0         0         0
         0         0         0         0         0         0         0         0
         0         0         0         0         0         0         0         0
         0         0         0         0         0         0         0         0
         0         0         0         0         0         0         0         0
         0         0         0         0         0         0         0         0
         0         0         0         0         0         0         0         0
         0         0         0         0         0         0         0         0
         0         0         0         0         0         0         0         0
         0         0         0         0         0         0         0         0
         0         0         0         0         0         0         0         0
         0         0         0         0         0         0         0         0
         0         0         0         0         0         0         0         0
         0         0         0         0         0         0         0         0
         0         0         0         0         0         0         0         0
         0         0         0         0         0         0         0         0
         0         0         0         0         0         0         0         0
         0         0         0         0         0         0         0         0
         0         0         0         0         0         0         0         0
         0         0         0         0         0         0         0         0
         0         0         0         0         0         0         0         0
         0         0         0         0         0         0         0         0
         0         0         0         0         0         0         0         0
         0         0         0         0         0         0         0         0
         0         0         0         0         0         0         0         0
         0         0         0         0         0         0         0         0
         0         0         0         0         0         0         0         0
         0         0         0         0         0         0         0         0
         0         0         0         0         0         0         0         0
         0         0         0         0         0         0         0         0
         0         0         0         0         0         0         0         0
         0         0         0         0         0         0         0         0
         0         0         0         0         0         0         0         0
         0         0         0         0         0         0         0         0
         0         0         0         0         0         0         0         0
         0         0         0         0         0         0         0         0
         0         0         0         0         0         0         0         0
         0         0         0         0         0         0         0         0
         0         0         0         0         0         0         0         0
         0         0         0         0         0         0         0         0
         0         0         0         0         0         0         0         0
         0         0         0         0         0         0         0         0
         0         0         0         0         0         0         0         0
         0         0         0         0         0         0         0         0
         0         0         0         0         0         0         0         0
         0         0         0         0         0         0         0         0
         0         0         0         0         0         0         0         0
         0         0         0         0         0         0         0         0
         0         0         0         0         0         0         0         0
         0         0         0         0         0         0         0         0
         0         0         0         0         0         0         0         0
         0         0         0         0         0         0         0         0
         0         0         0         0         0         0         0         0
         0         0         0         0         0         0         0         0
         0         0         0         0         0         0         0         0
         0         0         0         0         0         0         0         0
         0         0         0         0         0         0         0         0
         0         0         0         0         0         0         0         0
         0         0         0         0         0         0         0         0
         0         0         0         0         0         0         0         0
         0         0         0         0         0         0         0         0
         0         0         0         0         0         0         0         0
         0         0         0         0         0         0         0         0
         0         0         0         0         0         0         0         0
         0         0         0         0         0         0         0         0
         0         0         0         0         0         0         0         0
         0         0         0         0         0         0         0         0
         0         0         0         0         0         0         0         0
         0         0         0         0         0         0         0         0
         0         0         0         0         0         0         0         0
         0         0         0         0         0         0         0         0
         0         0         0         0         0         0         0         0
         0         0         0         0         0         0         0         0
         0         0         0         0         0         0         0         0
         0         0         0         0         0         0         0         0
         0         0         0         0         0         0         0         0
         0         0         0         0         0         0         0         0
         0         0         0         0         0         0         0         0
         0         0         0         0         0         0         0         0
         0         0         0         0         0         0         0         0
         0         0         0         0         0         0         0         0
         0         0         0         0         0         0         0         0
         0         0         0         0         0         0         0         0
         0         0         0         0         0         0         0         0
         0         0         0         0         0         0         0         0
         0         0         0         0         0         0         0         0
         0         0         0         0         0         0         0         0
         0         0         0         0         0         0         0         0
         0         0         0         0         0         0         0         0
         0         0         0         0         0         0         0         0
         0         0         0         0         0         0         0         0
         0         0         0         0         0         0         0         0
         0         0         0         0         0         0         0         0
         0         0         0         0         0         0         0         0
         0         0         0         0         0         0         0         0
         0         0         0         0         0         0         0         0
         0         0         0         0         0         0         0         0
         0         0         0         0         0         0         0         0
         0         0         0         0         0         0         0         0
         0         0         0         0         0         0         0         0
         0         0         0         0         0         0         0         0
         0         0         0         0         0         0         0         0
         0         0         0         0         0         0         0         0
         0         0         0         0         0         0         0         0
         0         0         0         0         0         0         0         0
         0         0         0         0         0         0         0         0
         0         0         0         0         0         0         0         0
         0         0         0         0         0         0         0         0
         0         0         0         0         0         0         0         0
         0         0         0         0         0         0         0         0
         0         0         0         0         0         0         0         0
         0         0         0         0         0         0         0         0
         0         0         0         0         0         0         0         0
         0         0         0         0         0         0         0         0
         0         0         0         0         0         0         0         0
         0         0         0         0         0         0         0         0
         0         0         0         0         0         0         0         0
         0         0         0         0         0         0         0         0
         0         0         0         0         0         0         0         0
         0         0         0         0         0         0         0         0
         0         0         0         0         0         0         0         0
         0         0         0         0         0         0         0         0
         0         0         0         0         0         0         0         0
         0         0         0         0         0         0         0         0
         0         0         0         0         0         0         0         0
         0         0         0         0         0         0         0         0
         0         0         0         0         0         0         0         0
         0         0         0         0         0         0         0         0
         0         0         0         0         0         0         0         0
         0         0         0         0         0         0         0         0
         0         0         0         0         0         0         0         0
         0         0         0         0         0         0         0         0
         0         0         0         0         0         0         0         0
         0         0         0         0         0         0         0         0
         0         0         0         0         0         0         0         0
         0         0         0         0         0         0         0         0
         0         0         0         0         0         0         0         0
         0         0         0         0         0         0         0         0
         0         0         0         0         0         0         0         0
         0         0         0         0         0         0         0         0
         0         0         0         0         0         0         0         0
         0         0         0         0         0         0         0         0
         0         0         0         0         0         0         0         0
         0         0         0         0         0         0         0         0
         0         0         0         0         0         0         0         0
         0         0         0         0         0         0         0         0
         0         0         0         0         0         0         0         0
         0         0         0         0         0         0         0         0
         0         0         0         0         0         0         0         0
         0         0         0         0         0         0         0         0
         0         0         0         0         0         0         0         0
         0         0         0         0         0         0         0         0
         0         0         0         0         0         0         0         0
         0         0         0         0         0         0         0         0
         0         0         0         0         0         0         0         0
         0         0         0         0         0         0         0         0
         0         0         0         0         0         0         0         0
         0         0         0         0         0         0         0         0
         0         0         0         0         0         0         0         0
         0         0         0         0         0         0         0         0
         0         0         0         0         0         0         0         0
         0         0         0         0         0         0         0         0
         0         0         0         0         0         0         0         0
         0         0         0         0         0         0         0         0
         0         0         0         0         0         0         0         0
         0         0         0         0         0         0         0         0
         0         0         0         0         0         0         0         0
         0         0         0         0         0         0         0         0
         0         0         0         0         0         0         0         0
         0         0         0         0         0         0         0         0
         0         0         0         0         0         0         0         0
         0         0         0         0         0         0         0         0
         0         0         0         0         0         0         0         0
         0         0         0         0         0         0         0         0
         0         0         0         0         0         0         0         0
         0         0         0         0         0         0         0         0
         0         0         0         0         0         0         0         0
         0         0         0         0         0         0         0         0
         0         0         0         0         0         0         0         0
         0         0         0         0         0         0         0         0
         0         0         0         0         0         0         0         0
         0         0         0         0         0         0         0         0
         0         0         0         0         0         0         0         0
         0         0         0         0         0         0         0         0
         0         0         0         0         0         0         0         0
         0         0         0         0         0         0         0         0
         0         0         0         0         0         0         0         0
         0         0         0         0         0         0         0         0
         0         0         0         0         0         0         0         0
         0         0         0         0         0         0         0         0
         0         0         0         0         0         0         0         0
         0         0         0         0         0         0         0         0
         0         0         0         0         0         0         0         0
         0         0         0         0         0         0         0         0
         0         0         0         0         0         0         0         0
         0         0         0         0         0         0         0         0
         0         0         0         0         0         0         0         0
         0         0         0         0         0         0         0         0
         0         0         0         0         0         0         0         0
         0         0         0         0         0         0         0         0
         0         0         0         0         0         0         0         0
         0         0         0         0         0         0         0         0
         0         0         0         0         0         0         0         0
         0         0         0         0         0         0         0         0
         0         0         0         0         0         0         0         0
         0         0         0         0         0         0         0         0
         0         0         0         0         0         0         0         0
         0         0         0         0         0         0         0         0
         0         0         0         0         0         0         0         0
         0         0         0         0         0         0         0         0
         0         0         0         0         0         0         0         0
         0         0         0         0         0         0         0         0
         0         0         0         0         0         0         0         0
         0         0         0         0         0         0         0         0
         0         0         0         0         0         0         0         0
         0         0         0         0         0         0         0         0
         0         0         0         0         0         0         0         0
         0         0         0         0         0         0         0         0
         0         0         0         0         0         0         0         0
         0         0         0         0         0         0         0         0
         0         0         0         0         0         0         0         0
         0         0         0         0         0         0         0         0
         0         0         0         0         0         0         0         0
         0         0         0         0         0         0         0         0
         0         0         0         0         0         0         0         0
         0         0         0         0         0         0         0         0
         0         0         0         0         0         0         0         0
         0         0         0         0         0         0         0         0
         0         0         0         0         0         0         0         0
         0         0         0         0         0         0         0         0
         0         0         0         0         0         0         0         0
         0         0         0         0         0         0         0         0
         0         0         0         0         0         0         0         0
         0         0         0         0         0         0         0         0
         0         0         0         0         0         0         0         0
         0         0         0         0         0         0         0         0
         0         0         0         0         0         0         0         0
         0         0         0         0         0         0         0         0
         0         0         0         0         0         0         0         0
         0         0         0         0         0         0         0         0
         0         0         0         0         0         0         0         0
         0         0         0         0         0         0         0         0
         0         0         0         0         0         0         0         0
         0         0         0         0         0         0         0         0
         0         0         0         0         0         0         0         0
         0         0         0         0         0         0         0         0
         0         0         0         0         0         0         0         0
         0         0         0         0         0         0         0         0
         0         0         0         0         0         0         0         0
         0         0         0         0         0         0         0         0
         0         0         0         0         0         0         0         0
         0         0         0         0         0         0         0         0
         0         0         0         0         0         0         0         0
         0         0         0         0         0         0         0         0
         0         0         0         0         0         0         0         0
         0         0         0         0         0         0         0         0
         0         0         0         0         0         0         0         0
         0         0         0         0         0         0         0         0
         0         0         0         0         0         0         0         0
         0         0         0         0         0         0         0         0
         0         0         0         0         0         0         0         0
         0         0         0         0         0         0         0         0
         0         0         0         0         0         0         0         0
         0         0         0         0         0         0         0         0
         0         0         0         0         0         0         0         0
         0         0         0         0         0         0         0         0
         0         0         0         0         0         0         0         0
         0         0         0         0         0         0         0         0
         0         0         0         0         0         0         0         0
         0         0         0         0         0         0         0         0
         0         0         0         0         0         0         0         0
         0         0         0         0         0         0         0         0
         0         0         0         0         0         0         0         0
         0         0         0         0         0         0         0         0
         0         0         0         0         0         0         0         0
         0         0         0         0         0         0         0         0
         0         0         0         0         0         0         0         0
         0         0         0         0         0         0         0         0
         0         0         0         0         0         0         0         0
         0         0         0         0         0         0         0         0
         0         0         0         0         0         0         0         0
         0         0         0         0         0         0         0         0
         0         0         0         0         0         0         0         0
         0         0         0         0         0         0         0         0
         0         0         0         0         0         0         0         0
         0         0         0         0         0         0         0         0
         0         0         0         0         0         0         0         0
         0         0         0         0         0         0         0         0
         0         0         0         0         0         0         0         0
         0         0         0         0         0         0         0         0
         0         0         0         0         0         0         0         0
         0         0         0         0         0         0         0         0
         0         0         0         0         0         0         0         0
         0         0         0         0         0         0         0         0
         0         0         0         0         0         0         0         0
         0         0         0         0         0         0         0         0
         0         0         0         0         0         0         0         0
         0         0         0         0         0         0         0         0
         0         0         0         0         0         0         0         0
         0         0         0         0         0         0         0         0
         0         0         0         0         0         0         0         0
         0         0         0         0         0         0         0         0
         0         0         0         0         0         0         0         0
         0         0         0         0         0         0         0         0
         0         0         0         0         0         0         0         0
         0         0         0         0         0         0         0         0
         0         0         0         0         0         0         0         0
         0         0         0         0         0         0         0         0
         0         0         0         0         0         0         0         0
         0         0         0         0         0         0         0         0
         0         0         0         0         0         0         0         0
         0         0         0         0         0         0         0         0
         0         0         0         0         0         0         0         0
         0         0         0         0         0         0         0         0
         0         0         0         0         0         0         0         0
         0         0         0         0         0         0         0         0
         0         0         0         0         0         0         0         0
         0         0         0         0         0         0         0         0
         0         0         0         0         0         0         0         0
         0         0         0         0         0         0         0         0
         0         0         0         0         0         0         0         0
         0         0         0         0         0         0         0         0
         0         0         0         0         0         0         0         0
         0         0         0         0         0         0         0         0
         0         0         0         0         0         0         0         0
         0         0         0         0         0         0         0         0
         0         0         0         0         0         0         0         0
         0         0         0         0         0         0         0         0
         0         0         0         0         0         0         0         0
         0         0         0         0         0         0         0         0
         0         0         0         0         0         0         0         0
         0         0         0         0         0         0         0         0
         0         0         0         0         0         0         0         0
         0         0         0         0         0         0         0         0
         0         0         0         0         0         0         0         0
         0         0         0         0         0         0         0         0
         0         0         0         0         0         0         0         0
         0         0         0         0         0         0         0         0
         0         0         0         0         0         0         0         0
         0         0         0         0         0         0         0         0
         0         0         0         0         0         0         0         0
         0         0         0         0         0         0         0         0
         0         0         0         0         0         0         0         0
         0         0         0         0         0         0         0         0
         0         0         0         0         0         0         0         0
         0         0         0         0         0         0         0         0
         0         0         0         0         0         0         0         0
         0         0         0         0         0         0         0         0
         0         0         0         0         0         0         0         0
         0         0         0         0         0         0         0         0
         0         0         0         0         0         0         0         0
         0         0         0         0         0         0         0         0
         0         0         0         0         0         0         0         0
         0         0         0         0         0         0         0         0
         0         0         0         0         0         0         0         0
         0         0         0         0         0         0         0         0
         0         0         0         0         0         0         0         0
         0         0         0         0         0         0         0         0
         0         0         0         0         0         0         0         0
         0         0         0         0         0         0         0         0
         0         0         0         0         0         0         0         0
         0         0         0         0         0         0         0         0
         0         0         0         0         0         0         0         0
         0         0         0         0         0         0         0         0
         0         0         0         0         0         0         0         0
         0         0         0         0         0         0         0         0
         0         0         0         0         0         0         0         0
         0         0         0         0         0         0         0         0
         0         0         0         0         0         0         0         0
         0         0         0         0         0         0         0         0
         0         0         0         0         0         0         0         0
         0         0         0         0         0         0         0         0
         0         0         0         0         0         0         0         0
         0         0         0         0         0         0         0         0
         0         0         0         0         0         0         0         0
         0         0         0         0         0         0         0         0
         0         0         0         0         0         0         0         0
         0         0         0         0         0         0         0         0
         0         0         0         0         0         0         0         0
         0         0         0         0         0         0         0         0
         0         0         0         0         0         0         0         0
         0         0         0         0         0         0         0         0
         0         0         0         0         0         0         0         0
         0         0         0         0         0         0         0         0
         0         0         0         0         0         0         0         0
         0         0         0         0         0         0         0         0
         0         0         0         0         0         0         0         0
         0         0         0         0         0         0         0         0
         0         0         0         0         0         0         0         0
         0         0         0         0         0         0         0         0
         0         0         0         0         0         0         0         0
         0         0         0         0         0         0         0         0
         0         0         0         0         0         0         0         0
         0         0         0         0         0         0         0         0
         0         0         0         0         0         0         0         0
         0         0         0         0         0         0         0         0
         0         0         0         0         0         0         0         0
         0         0         0         0         0         0         0         0
         0         0         0         0         0         0         0         0
         0         0         0         0         0         0         0         0
         0         0         0         0         0         0         0         0
         0         0         0         0         0         0         0         0
         0         0         0         0         0         0         0         0
         0         0         0         0         0         0         0         0
         0         0         0         0         0         0         0         0
         0         0         0         0         0         0         0         0
         0         0         0         0         0         0         0         0
         0         0         0         0         0         0         0         0
         0         0         0         0         0         0         0         0
         0         0         0         0         0         0         0         0
         0         0         0         0         0         0         0         0
         0         0         0         0         0         0         0         0
         0         0         0         0         0         0         0         0
         0         0         0         0         0         0         0         0
         0         0         0         0         0         0         0         0
         0         0         0         0         0         0         0         0
         0         0         0         0         0         0         0         0
         0         0         0         0         0         0         0         0
         0         0         0         0         0         0         0         0
         0         0         0         0         0         0         0         0
         0         0         0         0         0         0         0         0
         0         0         0         0         0         0         0         0
         0         0         0         0         0         0         0         0
         0         0         0         0         0         0         0         0
         0         0         0         0         0         0         0         0
         0         0         0         0         0         0         0         0
         0         0         0         0         0         0         0         0
         0         0         0         0         0         0         0         0
         0         0         0         0         0         0         0         0
         0         0         0         0         0         0         0         0
         0         0         0         0         0         0         0         0
         0         0         0         0         0         0         0         0
         0         0         0         0         0         0         0         0
         0         0         0         0         0         0         0         0
         0         0         0         0         0         0         0         0
         0         0         0         0         0         0         0         0
         0         0         0         0         0         0         0         0
         0         0         0         0         0         0         0         0
         0         0         0         0         0         0         0         0
         0         0         0         0         0         0         0         0
         0         0         0         0         0         0         0         0
         0         0         0         0         0         0         0         0
         0         0         0         0         0         0         0         0
         0         0         0         0         0         0         0         0
         0         0         0         0         0         0         0         0
         0         0         0         0         0         0         0         0
         0         0         0         0         0         0         0         0
         0         0         0         0         0         0         0         0
         0         0         0         0         0         0         0         0
         0         0         0         0         0         0         0         0
         0         0         0         0         0         0         0         0
         0         0         0         0         0         0         0         0
         0         0         0         0         0         0         0         0
         0         0         0         0         0         0         0         0
         0         0         0         0         0         0         0         0
         0         0         0         0         0         0         0         0
         0         0         0         0         0         0         0         0
         0         0         0         0         0         0         0         0
         0         0         0         0         0         0         0         0
         0         0         0         0         0         0         0         0
         0         0         0         0         0         0         0         0
         0         0         0         0         0         0         0         0
         0         0         0         0         0         0         0         0
         0         0         0         0         0         0         0         0
         0         0         0         0         0         0         0         0
         0         0         0         0         0         0         0         0
         0         0         0         0         0         0         0         0
         0         0         0         0         0         0         0         0
         0         0         0         0         0         0         0         0
         0         0         0         0         0         0         0         0
         0         0         0         0         0         0         0         0
         0         0         0         0         0         0         0         0
         0         0         0         0         0         0         0         0
         0         0         0         0         0         0         0         0
         0         0         0         0         0         0         0         0
         0         0         0         0         0         0         0         0
         0         0         0         0         0         0         0         0
         0         0         0         0         0         0         0         0
         0         0         0         0         0         0         0         0
         0         0         0         0         0         0         0         0
         0         0         0         0         0         0         0         0
         0         0         0         0         0         0         0         0
         0         0         0         0         0         0         0         0
         0         0         0         0         0         0         0         0
         0         0         0         0         0         0         0         0
         0         0         0         0         0         0         0         0
         0         0         0         0         0         0         0         0
         0         0         0         0         0         0         0         0
         0         0         0         0         0         0         0         0
         0         0         0         0         0         0         0         0
         0         0         0         0         0         0         0         0
         0         0         0         0         0         0         0         0
         0         0         0         0         0         0         0         0
         0         0         0         0         0         0         0         0
         0         0         0         0         0         0         0         0
         0         0         0         0         0         0         0         0
         0         0         0         0         0         0         0         0
         0         0         0         0         0         0         0         0
         0         0         0         0         0         0         0         0
         0         0         0         0         0         0         0         0
         0         0         0         0         0         0         0         0
         0         0         0         0         0         0         0         0
         0         0         0         0         0         0         0         0
         0         0         0         0         0         0         0         0
         0         0         0         0         0         0         0         0
         0         0         0         0         0         0         0         0
         0         0         0         0         0         0         0         0
         0         0         0         0         0         0         0         0
         0         0         0         0         0         0         0         0
         0         0         0         0         0         0         0         0
         0         0         0         0         0         0         0         0
         0         0         0         0         0         0         0         0
         0         0         0         0         0         0         0         0
         0         0         0         0         0         0         0         0
         0         0         0         0         0         0         0         0
         0         0         0         0         0         0         0         0
         0         0         0         0         0         0         0         0
         0         0         0         0         0         0         0         0
         0         0         0         0         0         0         0         0
         0         0         0         0         0         0         0         0
         0         0         0         0         0         0         0         0
         0         0         0         0         0         0         0         0
         0         0         0         0         0         0         0         0
         0         0         0         0         0         0         0         0
         0         0         0         0         0         0         0         0
         0         0         0         0         0         0         0         0
         0         0         0         0         0         0         0         0
         0         0         0         0         0         0         0         0
         0         0         0         0         0         0         0         0
         0         0         0         0         0         0         0         0
         0         0         0         0         0         0         0         0
         0         0         0         0         0         0         0         0
         0         0         0         0         0         0         0         0
         0         0         0         0         0         0         0         0
         0         0         0         0         0         0         0         0
         0         0         0         0         0         0         0         0
         0         0         0         0         0         0         0         0
         0         0         0         0         0         0         0         0
         0         0         0         0         0         0         0         0
         0         0         0         0         0         0         0         0
         0         0         0         0         0         0         0         0
         0         0         0         0         0         0         0         0
         0         0         0         0         0         0         0         0
         0         0         0         0         0         0         0         0
         0         0         0         0         0         0         0         0
         0         0         0         0         0         0         0         0
         0         0         0         0         0         0         0         0
         0         0         0         0         0         0         0         0
         0         0         0         0         0         0         0         0
         0         0         0         0         0         0         0         0
         0         0         0         0         0         0         0         0
         0         0         0         0         0         0         0         0
         0         0         0         0         0         0         0         0
         0         0         0         0         0         0         0         0
         0         0         0         0         0         0         0         0
         0         0         0         0         0         0         0         0
         0         0         0         0         0         0         0         0
         0         0         0         0         0         0         0         0
         0         0         0         0         0         0         0         0
         0         0         0         0         0         0         0         0
         0         0         0         0         0         0         0         0
         0         0         0         0         0         0         0         0
         0         0         0         0         0         0         0         0
         0         0         0         0         0         0         0         0
         0         0         0         0         0         0         0         0
         0         0         0         0         0         0         0         0
         0         0         0         0         0         0         0         0
         0         0         0         0         0         0         0         0
         0         0         0         0         0         0         0         0
         0         0         0         0         0         0         0         0
         0         0         0         0         0         0         0         0
         0         0         0         0         0         0         0         0
         0         0         0         0         0         0         0         0
         0         0         0         0         0         0         0         0
         0         0         0         0         0         0         0         0
         0         0         0         0         0         0         0         0
         0         0         0         0         0         0         0         0
         0         0         0         0         0         0         0         0
         0         0         0         0         0         0         0         0
         0         0         0         0         0         0         0         0
         0         0         0         0         0         0         0         0
         0         0         0         0         0         0         0         0
         0         0         0         0         0         0         0         0
         0         0         0         0         0         0         0         0
         0         0         0         0         0         0         0         0
         0         0         0         0         0         0         0         0
         0         0         0         0         0         0         0         0
         0         0         0         0         0         0         0         0
         0         0         0         0         0         0         0         0
         0         0         0         0         0         0         0         0
         0         0         0         0         0         0         0         0
         0         0         0         0         0         0         0         0
         0         0         0         0         0         0         0         0
         0         0         0         0         0         0         0         0
         0         0         0         0         0         0         0         0
         0         0         0         0         0         0         0         0
         0         0         0         0         0         0         0         0
         0         0         0         0         0         0         0         0
         0         0         0         0         0         0         0         0
         0         0         0         0         0         0         0         0
         0         0         0         0         0         0         0         0
         0         0         0         0         0         0         0         0
         0         0         0         0         0         0         0         0
         0         0         0         0         0         0         0         0
         0         0         0         0         0         0         0         0
         0         0         0         0         0         0         0         0
         0         0         0         0         0         0         0         0
         0         0         0         0         0         0         0         0
         0         0         0         0         0         0         0         0
         0         0         0         0         0         0         0         0
         0         0         0         0         0         0         0         0
         0         0         0         0         0         0         0         0
         0         0         0         0         0         0         0         0
         0         0         0         0         0         0         0         0
         0         0         0         0         0         0         0         0
         0         0         0         0         0         0         0         0
         0         0         0         0         0         0         0         0
         0         0         0         0         0         0         0         0
         0         0         0         0         0         0         0         0
         0         0         0         0         0         0         0         0
         0         0         0         0         0         0         0         0
         0         0         0         0         0         0         0         0
         0         0         0         0         0         0         0         0
         0         0         0         0         0         0         0         0
         0         0         0         0         0         0         0         0
         0         0         0         0         0         0         0         0
         0         0         0         0         0         0         0         0
         0         0         0         0         0         0         0         0
         0         0         0         0         0         0         0         0
         0         0         0         0         0         0         0         0
         0         0         0         0         0         0         0         0
         0         0         0         0         0         0         0         0
         0         0         0         0         0         0         0         0
         0         0         0         0         0         0         0         0
         0         0         0         0         0         0         0         0
         0         0         0         0         0         0         0         0
         0         0         0         0         0         0         0         0
         0         0         0         0         0         0         0         0
         0         0         0         0         0         0         0         0
         0         0         0         0         0         0         0         0
         0         0         0         0         0         0         0         0
         0         0         0         0         0         0         0         0
         0         0         0         0         0         0         0         0
         0         0         0         0         0         0         0         0
         0         0         0         0         0         0         0         0
         0         0         0         0         0         0         0         0
         0         0         0         0         0         0         0         0
         0         0         0         0         0         0         0         0
         0         0         0         0         0         0         0         0
         0         0         0         0         0         0         0         0
         0         0         0         0         0         0         0         0
         0         0         0         0         0         0         0         0
         0         0         0         0         0         0         0         0
         0         0         0         0         0         0         0         0
         0         0         0         0         0         0         0         0
         0         0         0         0         0         0         0         0
         0         0         0         0         0         0         0         0
         0         0         0         0         0         0         0         0
         0         0         0         0         0         0         0         0
         0         0         0         0         0         0         0         0
         0         0         0         0         0         0         0         0
         0         0         0         0         0         0         0         0
         0         0         0         0         0         0         0         0
         0         0         0         0         0         0         0         0
         0         0         0         0         0         0         0         0
         0         0         0         0         0         0         0         0
         0         0         0         0         0         0         0         0
         0         0         0         0         0         0         0         0
         0         0         0         0         0         0         0         0
         0         0         0         0         0         0         0         0
         0         0         0         0         0         0         0         0
         0         0         0         0         0         0         0         0
         0         0         0         0         0         0         0         0
         0         0         0         0         0         0         0         0
         0         0         0         0         0         0         0         0
         0         0         0         0         0         0         0         0
         0         0         0         0         0         0         0         0
         0         0         0         0         0         0         0         0
         0         0         0         0         0         0         0         0
         0         0         0         0         0         0         0         0
         0         0         0         0         0         0         0         0
         0         0         0         0         0         0         0         0
         0         0         0         0         0         0         0         0
         0         0         0         0         0         0         0         0
         0         0         0         0         0         0         0         0
         0         0         0         0         0         0         0         0
         0         0         0         0         0         0         0         0
         0         0         0         0         0         0         0         0
         0         0         0         0         0         0         0         0
         0         0         0         0         0         0         0         0
         0         0         0         0         0         0         0         0
         0         0         0         0         0         0         0         0
         0         0         0         0         0         0         0         0
         0         0         0         0         0         0         0         0
         0         0         0         0         0         0         0         0
         0         0         0         0         0         0         0         0
         0         0         0         0         0         0         0         0
         0         0         0         0         0         0         0         0
         0         0         0         0         0         0         0         0
         0         0         0         0         0         0         0         0
         0         0         0         0         0         0         0         0
         0         0         0         0         0         0         0         0
         0         0         0         0         0         0         0         0
         0         0         0         0         0         0         0         0
         0         0         0         0         0         0         0         0
         0         0         0         0         0         0         0         0
         0         0         0         0         0         0         0         0
         0         0         0         0         0         0         0         0
         0         0         0         0         0         0         0         0
         0         0         0         0         0         0         0         0
         0         0         0         0         0         0         0         0
         0         0         0         0         0         0         0         0
         0         0         0         0         0         0         0         0
         0         0         0         0         0         0         0         0
         0         0         0         0         0         0         0         0
         0         0         0         0         0         0         0         0
         0         0         0         0         0         0         0         0
         0         0         0         0         0         0         0         0
         0         0         0         0         0         0         0         0
         0         0         0         0         0         0         0         0
         0         0         0         0         0         0         0         0
         0         0         0         0         0         0         0         0
         0         0         0         0         0         0         0         0
         0         0         0         0         0         0         0         0
         0         0         0         0         0         0         0         0
         0         0         0         0         0         0         0         0
         0         0         0         0         0         0         0         0
         0         0         0         0         0         0         0         0
         0         0         0         0         0         0         0         0
         0         0         0         0         0         0         0         0
         0         0         0         0         0         0         0         0
         0         0         0         0         0         0         0         0
         0         0         0         0         0         0         0         0
         0         0         0         0         0         0         0         0
         0         0         0         0         0         0         0         0
         0         0         0         0         0         0         0         0
         0         0         0         0         0         0         0         0
         0         0         0         0         0         0         0         0
         0         0         0         0         0         0         0         0
         0         0         0         0         0         0         0         0
         0         0         0         0         0         0         0         0
         0         0         0         0         0         0         0         0
         0         0         0         0         0         0         0         0
         0         0         0         0         0         0         0         0
         0         0         0         0         0         0         0         0
         0         0         0         0         0         0         0         0
         0         0         0         0         0         0         0         0
         0         0         0         0         0         0         0         0
         0         0         0         0         0         0         0         0
         0         0         0         0         0         0         0         0
         0         0         0         0         0         0         0         0
         0         0         0         0         0         0         0         0
         0         0         0         0         0         0         0         0
         0         0         0         0         0         0         0         0
         0         0         0         0         0         0         0         0
         0         0         0         0         0         0         0         0
         0         0         0         0         0         0         0         0
         0         0         0         0         0         0         0         0
         0         0         0         0         0         0         0         0
         0         0         0         0         0         0         0         0
         0         0         0         0         0         0         0         0
         0         0         0         0         0         0         0         0
         0         0         0         0         0         0         0         0
         0         0         0         0         0         0         0         0
         0         0         0         0         0         0         0         0
         0         0         0         0         0         0         0         0
         0         0         0         0         0         0         0         0
         0         0         0         0         0         0         0         0
         0         0         0         0         0         0         0         0
         0         0         0         0         0         0         0         0
         0         0         0         0         0         0         0         0
         0         0         0         0         0         0         0         0
         0         0         0         0         0         0         0         0
         0         0         0         0         0         0         0         0
         0         0         0         0         0         0         0         0
         0         0         0         0         0         0         0         0
         0         0         0         0         0         0         0         0
         0         0         0         0         0         0         0         0
         0         0         0         0         0         0         0         0
         0         0         0         0         0         0         0         0
         0         0         0         0         0         0         0         0
         0         0         0         0         0         0         0         0
         0         0         0         0         0         0         0         0
         0         0         0         0         0         0         0         0
         0         0         0         0         0         0         0         0
         0         0         0         0         0         0         0         0
         0         0         0         0         0         0         0         0
         0         0         0         0         0         0         0         0
         0         0         0         0         0         0         0         0
         0         0         0         0         0         0         0         0
         0         0         0         0         0         0         0         0
         0         0         0         0         0         0         0         0
         0         0         0         0         0         0         0         0
         0         0         0         0         0         0         0         0
         0         0         0         0         0         0         0         0
         0         0         0         0         0         0         0         0
         0         0         0         0         0         0         0         0
         0         0         0         0         0         0         0         0
         0         0         0         0         0         0         0         0
         0         0         0         0         0         0         0         0
         0         0         0         0         0         0         0         0
         0         0         0         0         0         0         0         0
         0         0         0         0         0         0         0         0
         0         0         0         0         0         0         0         0
         0         0         0         0         0         0         0         0
         0         0         0         0         0         0         0         0
         0         0         0         0         0         0         0         0
         0         0         0         0         0         0         0         0
         0         0         0         0         0         0         0         0
         0         0         0         0         0         0         0         0
         0         0         0         0         0         0         0         0
         0         0         0         0         0         0         0         0
         0         0         0         0         0         0         0         0
         0         0         0         0         0         0         0         0
         0         0         0         0         0         0         0         0
         0         0         0         0         0         0         0         0
         0         0         0         0         0         0         0         0
         0         0         0         0         0         0         0         0
         0         0         0         0         0         0         0         0
         0         0         0         0         0         0         0         0
         0         0         0         0         0         0         0         0
         0         0         0         0         0         0         0         0
         0         0         0         0         0         0         0         0
         0         0         0         0         0         0         0         0
         0         0         0         0         0         0         0         0
         0         0         0         0         0         0         0         0
         0         0         0         0         0         0         0         0
         0         0         0         0         0         0         0         0
         0         0         0         0         0         0         0         0
         0         0         0         0         0         0         0         0
         0         0         0         0         0         0         0         0
         0         0         0         0         0         0         0         0
         0         0         0         0         0         0         0         0
         0         0         0         0         0         0         0         0
         0         0         0         0         0         0         0         0
         0         0         0         0         0         0         0         0
         0         0         0         0         0         0         0         0
         0         0         0         0         0         0         0         0
         0         0         0         0         0         0         0         0
         0         0         0         0         0         0         0         0
         0         0         0         0         0         0         0         0
         0         0         0         0         0         0         0         0
         0         0         0         0         0         0         0         0
         0         0         0         0         0         0         0         0
         0         0         0         0         0         0         0         0
         0         0         0         0         0         0         0         0
         0         0         0         0         0         0         0         0
         0         0         0         0         0         0         0         0
         0         0         0         0         0         0         0         0
         0         0         0         0         0         0         0         0
         0         0         0         0         0         0         0         0
         0         0         0         0         0         0         0         0
         0         0         0         0         0         0         0         0
         0         0         0         0         0         0         0         0
         0         0         0         0         0         0         0         0
         0         0         0         0         0         0         0         0
         0         0         0         0         0         0         0         0
         0         0         0         0         0         0         0         0
         0         0         0         0         0         0         0         0
         0         0         0         0         0         0         0         0
         0         0         0         0         0         0         0         0
         0         0         0         0         0         0         0         0
         0         0         0         0         0         0         0         0
         0         0         0         0         0         0         0         0
         0         0         0         0         0         0         0         0
         0         0         0         0         0         0         0         0
         0         0         0         0         0         0         0         0
         0         0         0         0         0         0         0         0
         0         0         0         0         0         0         0         0
         0         0         0         0         0         0         0         0
         0         0         0         0         0         0         0         0
         0         0         0         0         0         0         0         0
         0         0         0         0         0         0         0         0
         0         0         0         0         0         0         0         0
         0         0         0         0         0         0         0         0
         0         0         0         0         0         0         0         0
         0         0         0         0         0         0         0         0
         0         0         0         0         0         0         0         0
         0         0         0         0         0         0         0         0
         0         0         0         0         0         0         0         0
         0         0         0         0         0         0         0         0
         0         0         0         0         0         0         0         0
         0         0         0         0         0         0         0         0
         0         0         0         0         0         0         0         0
         0         0         0         0         0         0         0         0
         0         0         0         0         0         0         0         0
         0         0         0         0         0         0         0         0
         0         0         0         0         0         0         0         0
         0         0         0         0         0         0         0         0
         0         0         0         0         0         0         0         0
         0         0         0         0         0         0         0         0
         0         0         0         0         0         0         0         0
         0         0         0         0         0         0         0         0
         0         0         0         0         0         0         0         0
         0         0         0         0         0         0         0         0
         0         0         0         0         0         0         0         0
         0         0         0         0         0         0         0         0
         0         0         0         0         0         0         0         0
         0         0         0         0         0         0         0         0
         0         0         0         0         0         0         0         0
         0         0         0         0         0         0         0         0
         0         0         0         0         0         0         0         0
         0         0         0         0         0         0         0         0
         0         0         0         0         0         0         0         0
         0         0         0         0         0         0         0         0
         0         0         0         0         0         0         0         0
         0         0         0         0         0         0         0         0
         0         0         0         0         0         0         0         0
         0         0         0         0         0         0         0         0
         0         0         0         0         0         0         0         0
         0         0         0         0         0         0         0         0
         0         0         0         0         0         0         0         0
         0         0         0         0         0         0         0         0
         0         0         0         0         0         0         0         0
         0         0         0         0         0         0         0         0
         0         0         0         0         0         0         0         0
         0         0         0         0         0         0         0         0
         0         0         0         0         0         0         0         0
         0         0         0         0         0         0         0         0
         0         0         0         0         0         0         0         0
         0         0         0         0         0         0         0         0
         0         0         0         0         0         0         0         0
         0         0         0         0         0         0         0         0
         0         0         0         0         0         0         0         0
         0         0         0         0         0         0         0         0
         0         0         0         0         0         0         0         0
         0         0         0         0         0         0         0         0
         0         0         0         0         0         0         0         0
         0         0         0         0         0         0         0         0
         0         0         0         0         0         0         0         0
         0         0         0         0         0         0         0         0
         0         0         0         0         0         0         0         0
         0         0         0         0         0         0         0         0
         0         0         0         0         0         0         0         0
         0         0         0         0         0         0         0         0
         0         0         0         0         0         0         0         0
         0         0         0         0         0         0         0         0
         0         0         0         0         0         0         0         0
         0         0         0         0         0         0         0         0
         0         0         0         0         0         0         0         0
         0         0         0         0         0         0         0         0
         0         0         0         0         0         0         0         0
         0         0         0         0         0         0         0         0
         0         0         0         0         0         0         0         0
         0         0         0         0         0         0         0         0
         0         0         0         0         0         0         0         0
         0         0         0         0         0         0         0         0
         0         0         0         0         0         0         0         0
         0         0         0         0         0         0         0         0
         0         0         0         0         0         0         0         0
         0         0         0         0         0         0         0         0
         0         0         0         0         0         0         0         0
         0         0         0         0         0         0         0         0
         0         0         0         0         0         0         0         0
         0         0         0         0         0         0         0         0
         0         0         0         0         0         0         0         0
         0         0         0         0         0         0         0         0
         0         0         0         0         0         0         0         0
         0         0         0         0         0         0         0         0
         0         0         0         0         0         0         0         0
         0         0         0         0         0         0         0         0
         0         0         0         0         0         0         0         0
         0         0         0         0         0         0         0         0
         0         0         0         0         0         0         0         0
         0         0         0         0         0         0         0         0
         0         0         0         0         0         0         0         0
         0         0         0         0         0         0         0         0
         0         0         0         0         0         0         0         0
         0         0         0         0         0         0         0         0
         0         0         0         0         0         0         0         0
         0         0         0         0         0         0         0         0
         0         0         0         0         0         0         0         0
         0         0         0         0         0         0         0         0
         0         0         0         0         0         0         0         0
         0         0         0         0         0         0         0         0
         0         0         0         0         0         0         0         0
         0         0         0         0         0         0         0         0
         0         0         0         0         0         0         0         0
         0         0         0         0         0         0         0         0
         0         0         0         0         0         0         0         0
         0         0         0         0         0         0         0         0
         0         0         0         0         0         0         0         0
         0         0         0         0         0         0         0         0
         0         0         0         0         0         0         0         0
         0         0         0         0         0         0         0         0
         0         0         0         0         0         0         0         0
         0         0         0         0         0         0         0         0
         0         0         0         0         0         0         0         0
         0         0         0         0         0         0         0         0
         0         0         0         0         0         0         0         0
         0         0         0         0         0         0         0         0
         0         0         0         0         0         0         0         0
         0         0         0         0         0         0         0         0
         0         0         0         0         0         0         0         0
         0         0         0         0         0         0         0         0
         0         0         0         0         0         0         0         0
         0         0         0         0         0         0         0         0
         0         0         0         0         0         0         0         0
         0         0         0         0         0         0         0         0
         0         0         0         0         0         0         0         0
         0         0         0         0         0         0         0         0
         0         0         0         0         0         0         0         0
         0         0         0         0         0         0         0         0
         0         0         0         0         0         0         0         0
         0         0         0         0         0         0         0         0
         0         0         0         0         0         0         0         0
         0         0         0         0         0         0         0         0
         0         0         0         0         0         0         0         0
         0         0         0         0         0         0         0         0
         0         0         0         0         0         0         0         0
         0         0         0         0         0         0         0         0
         0         0         0         0         0         0         0         0
         0         0         0         0         0         0         0         0
         0         0         0         0         0         0         0         0
         0         0         0         0         0         0         0         0
         0         0         0         0         0         0         0         0
         0         0         0         0         0         0         0         0
         0         0         0         0         0         0         0         0
         0         0         0         0         0         0         0         0
         0         0         0         0         0         0         0         0
         0         0         0         0         0         0         0         0
         0         0         0         0         0         0         0         0
         0         0         0         0         0         0         0         0
         0         0         0         0         0         0         0         0
         0         0         0         0         0         0         0         0
         0         0         0         0         0         0         0         0
         0         0         0         0         0         0         0         0
         0         0         0         0         0         0         0         0
         0         0         0         0         0         0         0         0
         0         0         0         0         0         0         0         0
         0         0         0         0         0         0         0         0
         0         0         0         0         0         0         0         0
         0         0         0         0         0         0         0         0
         0         0         0         0         0         0         0         0
         0         0         0         0         0         0         0         0
         0         0         0         0         0         0         0         0
         0         0         0         0         0         0         0         0
         0         0         0         0         0         0         0         0
         0         0         0         0         0         0         0         0
         0         0         0         0         0         0         0         0
         0         0         0         0         0         0         0         0
         0         0         0         0         0         0         0         0
         0         0         0         0         0         0         0         0
         0         0         0         0         0         0         0         0
         0         0         0         0         0         0         0         0
         0         0         0         0         0         0         0         0
         0         0         0         0         0         0         0         0
         0         0         0         0         0         0         0         0
         0         0         0         0         0         0         0         0
         0         0         0         0         0         0         0         0
         0         0         0         0         0         0         0         0
         0         0         0         0         0         0         0         0
         0         0         0         0         0         0         0         0
         0         0         0         0         0         0         0         0
         0         0         0         0         0         0         0         0
         0         0         0         0         0         0         0         0
         0         0         0         0         0         0         0         0
         0         0         0         0         0         0         0         0
         0         0         0         0         0         0         0         0
         0         0         0         0         0         0         0         0
         0         0         0         0         0         0         0         0
         0         0         0         0         0         0         0         0
         0         0         0         0         0         0         0         0
         0         0         0         0         0         0         0         0
         0         0         0         0         0         0         0         0
         0         0         0         0         0         0         0         0
         0         0         0         0         0         0         0         0
         0         0         0         0         0         0         0         0
         0         0         0         0         0         0         0         0
         0         0         0         0         0         0         0         0
         0         0         0         0         0         0         0         0
         0         0         0         0         0         0         0         0
         0         0         0         0         0         0         0         0
         0         0         0         0         0         0         0         0
         0         0         0         0         0         0         0         0
         0         0         0         0         0         0         0         0
         0         0         0         0         0         0         0         0
         0         0         0         0         0         0         0         0
         0         0         0         0         0         0         0         0
         0         0         0         0         0         0         0         0
         0         0         0         0         0         0         0         0
         0         0         0         0         0         0         0         0
         0         0         0         0         0         0         0         0
         0         0         0         0         0         0         0         0
         0         0         0         0         0         0         0         0
         0         0         0         0         0         0         0         0
         0         0         0         0         0         0         0         0
         0         0         0         0         0         0         0         0
         0         0         0         0         0         0         0         0
         0         0         0         0         0         0         0         0
         0         0         0         0         0         0         0         0
         0         0         0         0         0         0         0         0
         0         0         0         0         0         0         0         0
         0         0         0         0         0         0         0         0
         0         0         0         0         0         0         0         0
         0         0         0         0         0         0         0         0
         0         0         0         0         0         0         0         0
         0         0         0         0         0         0         0         0
         0         0         0         0         0         0         0         0
         0         0         0         0         0         0         0         0
         0         0         0         0         0         0         0         0
         0         0         0         0         0         0         0         0
         0         0         0         0         0         0         0         0
         0         0         0         0         0         0         0         0
         0         0         0         0         0         0         0         0
         0         0         0         0         0         0         0         0
         0         0         0         0         0         0         0         0
         0         0         0         0         0         0         0         0
         0         0         0         0         0         0         0         0
         0         0         0         0         0         0         0         0
         0         0         0         0         0         0         0         0
         0         0         0         0         0         0         0         0
         0         0         0         0         0         0         0         0
         0         0         0         0         0         0         0         0
         0         0         0         0         0         0         0         0
         0         0         0         0         0         0         0         0
         0         0         0         0         0         0         0         0
         0         0         0         0         0         0         0         0
         0         0         0         0         0         0         0         0
         0         0         0         0         0         0         0         0
         0         0         0         0         0         0         0         0
         0         0         0         0         0         0         0         0
         0         0         0         0         0         0         0         0
         0         0         0         0         0         0         0         0
         0         0         0         0         0         0         0         0
         0         0         0         0         0         0         0         0
         0         0         0         0         0         0         0         0
         0         0         0         0         0         0         0         0
         0         0         0         0         0         0         0         0
         0         0         0         0         0         0         0         0
         0         0         0         0         0         0         0         0
         0         0         0         0         0         0         0         0
         0         0         0         0         0         0         0         0
         0         0         0         0         0         0         0         0
         0         0         0         0         0         0         0         0
         0         0         0         0         0         0         0         0
         0         0         0         0         0         0         0         0
         0         0         0         0         0         0         0         0
         0         0         0         0         0         0         0         0
         0         0         0         0         0         0         0         0
         0         0         0         0         0         0         0         0
         0         0         0         0         0         0         0         0
         0         0         0         0         0         0         0         0
         0         0         0         0         0         0         0         0
         0         0         0         0         0         0         0         0
         0         0         0         0         0         0         0         0
         0         0         0         0         0         0         0         0
         0         0         0         0         0         0         0         0
         0         0         0         0         0         0         0         0
         0         0         0         0         0         0         0         0
         0         0         0         0         0         0         0         0
         0         0         0         0         0         0         0         0
         0         0         0         0         0         0         0         0
         0         0         0         0         0         0         0         0
         0         0         0         0         0         0         0         0
         0         0         0         0         0         0         0         0
         0         0         0         0         0         0         0         0
         0         0         0         0         0         0         0         0
         0         0         0         0         0         0         0         0
         0         0         0         0         0         0         0         0
         0         0         0         0         0         0         0         0
         0         0         0         0         0         0         0         0
         0         0         0         0         0         0         0         0
         0         0         0         0         0         0         0         0
         0         0         0         0         0         0         0         0
         0         0         0         0         0         0         0         0
         0         0         0         0         0         0         0         0
         0         0         0         0         0         0         0         0
         0         0         0         0         0         0         0         0
         0         0         0         0         0         0         0         0
         0         0         0         0         0         0         0         0
         0         0         0         0         0         0         0         0
         0         0         0         0         0         0         0         0
         0         0         0         0         0         0         0         0
         0         0         0         0         0         0         0         0
         0         0         0         0         0         0         0         0
         0         0         0         0         0         0         0         0
         0         0         0         0         0         0         0         0
         0         0         0         0         0         0         0         0
         0         0         0         0         0         0         0         0
         0         0         0         0         0         0         0         0
         0         0         0         0         0         0         0         0
         0         0         0         0         0         0         0         0
         0         0         0         0         0         0         0         0
         0         0         0         0         0         0         0         0
         0         0         0         0         0         0         0         0
         0         0         0         0         0         0         0         0
         0         0         0         0         0         0         0         0
         0         0         0         0         0         0         0         0
         0         0         0         0         0         0         0         0
         0         0         0         0         0         0         0         0
         0         0         0         0         0         0         0         0
         0         0         0         0         0         0         0         0
         0         0         0         0         0         0         0         0
         0         0         0         0         0         0         0         0
         0         0         0         0         0         0         0         0
         0         0         0         0         0         0         0         0
         0         0         0         0         0         0         0         0
         0         0         0         0         0         0         0         0
         0         0         0         0         0         0         0         0
         0         0         0         0         0         0         0         0
         0         0         0         0         0         0         0         0
         0         0         0         0         0         0         0         0
         0         0         0         0         0         0         0         0
         0         0         0         0         0         0         0         0
         0         0         0         0         0         0         0         0
         0         0         0         0         0         0         0         0
         0         0         0         0         0         0         0         0
         0         0         0         0         0         0         0         0
         0         0         0         0         0         0         0         0
         0         0         0         0         0         0         0         0
         0         0         0         0         0         0         0         0
         0         0         0         0         0         0         0         0
         0         0         0         0         0         0         0         0
         0         0         0         0         0         0         0         0
         0         0         0         0         0         0         0         0
         0         0         0         0         0         0         0         0
         0         0         0         0         0         0         0         0
         0         0         0         0         0         0         0         0
         0         0         0         0         0         0         0         0
         0         0         0         0         0         0         0         0
         0         0         0         0         0         0         0         0
         0         0         0         0         0         0         0         0
         0         0         0         0         0         0         0         0
         0         0         0         0         0         0         0         0
         0         0         0         0         0         0         0         0
         0         0         0         0         0         0         0         0
         0         0         0         0         0         0         0         0
         0         0         0         0         0         0         0         0
         0         0         0         0         0         0         0         0
         0         0         0         0         0         0         0         0
         0         0         0         0         0         0         0         0
         0         0         0         0         0         0         0         0
         0         0         0         0         0         0         0         0
         0         0         0         0         0         0         0         0
         0         0         0         0         0         0         0         0
         0         0         0         0         0         0         0         0
         0         0         0         0         0         0         0         0
         0         0         0         0         0         0         0         0
         0         0         0         0         0         0         0         0
         0         0         0         0         0         0         0         0
         0         0         0         0         0         0         0         0
         0         0         0         0         0         0         0         0
         0         0         0         0         0         0         0         0
         0         0         0         0         0         0         0         0
         0         0         0         0         0         0         0         0
         0         0         0         0         0         0         0         0
         0         0         0         0         0         0         0         0
         0         0         0         0         0         0         0         0
         0         0         0         0         0         0         0         0
         0         0         0         0         0         0         0         0
         0         0         0         0         0         0         0         0
         0         0         0         0         0         0         0         0
         0         0         0         0         0         0         0         0
         0         0         0         0         0         0         0         0
         0         0         0         0         0         0         0         0
         0         0         0         0         0         0         0         0
         0         0         0         0         0         0         0         0
         0         0         0         0         0         0         0         0
         0         0         0         0         0         0         0         0
         0         0         0         0         0         0         0         0
         0         0         0         0         0         0         0         0
         0         0         0         0         0         0         0         0
         0         0         0         0         0         0         0         0
         0         0         0         0         0         0         0         0
         0         0         0         0         0         0         0         0
         0         0         0         0         0         0         0         0
         0         0         0         0         0         0         0         0
         0         0         0         0         0         0         0         0
         0         0         0         0         0         0         0         0
         0         0         0         0         0         0         0         0
         0         0         0         0         0         0         0         0
         0         0         0         0         0         0         0         0
         0         0         0         0         0         0         0         0
         0         0         0         0         0         0         0         0
         0         0         0         0         0         0         0         0
         0         0         0         0         0         0         0         0
         0         0         0         0         0         0         0         0
         0         0         0         0         0         0         0         0
         0         0         0         0         0         0         0         0
         0         0         0         0         0         0         0         0
         0         0         0         0         0         0         0         0
         0         0         0         0         0         0         0         0
         0         0         0         0         0         0         0         0
         0         0         0         0         0         0         0         0
         0         0         0         0         0         0         0         0
         0         0         0         0         0         0         0         0
         0         0         0         0         0         0         0         0
         0         0         0         0         0         0         0         0
         0         0         0         0         0         0         0         0
         0         0         0         0         0         0         0         0
         0         0         0         0         0         0         0         0
         0         0         0         0         0         0         0         0
         0         0         0         0         0         0         0         0
         0         0         0         0         0         0         0         0
         0         0         0         0         0         0         0         0
         0         0         0         0         0         0         0         0
         0         0         0         0         0         0         0         0
         0         0         0         0         0         0         0         0
         0         0         0         0         0         0         0         0
         0         0         0         0         0         0         0         0
         0         0         0         0         0         0         0         0
         0         0         0         0         0         0         0         0
         0         0         0         0         0         0         0         0
         0         0         0         0         0         0         0         0
         0         0         0         0         0         0         0         0
         0         0         0         0         0         0         0         0
         0         0         0         0         0         0         0         0
         0         0         0         0         0         0         0         0
         0         0         0         0         0         0         0         0
         0         0         0         0         0         0         0         0
         0         0         0         0         0         0         0         0
         0         0         0         0         0         0         0         0
         0         0         0         0         0         0         0         0
         0         0         0         0         0         0         0         0
         0         0         0         0         0         0         0         0
         0         0         0         0         0         0         0         0
         0         0         0         0         0         0         0         0
         0         0         0         0         0         0         0         0
         0         0         0         0         0         0         0         0
         0         0         0         0         0         0         0         0
         0         0         0         0         0         0         0         0
         0         0         0         0         0         0         0         0
         0         0         0         0         0         0         0         0
         0         0         0         0         0         0         0         0
         0         0         0         0         0         0         0         0
         0         0         0         0         0         0         0         0
         0         0         0         0         0         0         0         0
         0         0         0         0         0         0         0         0
         0         0         0         0         0         0         0         0
         0         0         0         0         0         0         0         0
         0         0         0         0         0         0         0         0
         0         0         0         0         0         0         0         0
         0         0         0         0         0         0         0         0
         0         0         0         0         0         0         0         0
         0         0         0         0         0         0         0         0
         0         0         0         0         0         0         0         0
         0         0         0         0         0         0         0         0
         0         0         0         0         0         0         0         0
         0         0         0         0         0         0         0         0
         0         0         0         0         0         0         0         0
         0         0         0         0         0         0         0         0
         0         0         0         0         0         0         0         0
         0         0         0         0         0         0         0         0
         0         0         0         0         0         0         0         0
         0         0         0         0         0         0         0         0
         0         0         0         0         0         0         0         0
         0         0         0         0         0         0         0         0
         0         0         0         0         0         0         0         0
         0         0         0         0         0         0         0         0
         0         0         0         0         0         0         0         0
         0         0         0         0         0         0         0         0
         0         0         0         0         0         0         0         0
         0         0         0         0         0         0         0         0
         0         0         0         0         0         0         0         0
         0         0         0         0         0         0         0         0
         0         0         0         0         0         0         0         0
         0         0         0         0         0         0         0         0
         0         0         0         0         0         0         0         0
         0         0         0         0         0         0         0         0
         0         0         0         0         0         0         0         0
         0         0         0         0         0         0         0         0
         0         0         0         0         0         0         0         0
         0         0         0         0         0         0         0         0
         0         0         0         0         0         0         0         0
         0         0         0         0         0         0         0         0
         0         0         0         0         0         0         0         0
         0         0         0         0         0         0         0         0
         0         0         0         0         0         0         0         0
         0         0         0         0         0         0         0         0
         0         0         0         0         0         0         0         0
         0         0         0         0         0         0         0         0
         0         0         0         0         0         0         0         0
         0         0         0         0         0         0         0         0
         0         0         0         0         0         0         0         0
         0         0         0         0         0         0         0         0
         0         0         0         0         0         0         0         0
         0         0         0         0         0         0         0         0
         0         0         0         0         0         0         0         0
         0         0         0         0         0         0         0         0
         0         0         0         0         0         0         0         0
         0         0         0         0         0         0         0         0
         0         0         0         0         0         0         0         0
         0         0         0         0         0         0         0         0
         0         0         0         0         0         0         0         0
         0         0         0         0         0         0         0         0
         0         0         0         0         0         0         0         0
         0         0         0         0         0         0         0         0
         0         0         0         0         0         0         0         0
         0         0         0         0         0         0         0         0
         0         0         0         0         0         0         0         0
         0         0         0         0         0         0         0         0
         0         0         0         0         0         0         0         0
         0         0         0         0         0         0         0         0
         0         0         0         0         0         0         0         0
         0         0         0         0         0         0         0         0
         0         0         0         0         0         0         0         0
         0         0         0         0         0         0         0         0
         0         0         0         0         0         0         0         0
         0         0         0         0         0         0         0         0
         0         0         0         0         0         0         0         0
         0         0         0         0         0         0         0         0
         0         0         0         0         0         0         0         0
         0         0         0         0         0         0         0         0
         0         0         0         0         0         0         0         0
         0         0         0         0         0         0         0         0
         0         0         0         0         0         0         0         0
         0         0         0         0         0         0         0         0
         0         0         0         0         0         0         0         0
         0         0         0         0         0         0         0         0
         0         0         0         0         0         0         0         0
         0         0         0         0         0         0         0         0
         0         0         0         0         0         0         0         0
         0         0         0         0         0         0         0         0
         0         0         0         0         0         0         0         0
         0         0         0         0         0         0         0         0
         0         0         0         0         0         0         0         0
         0         0         0         0         0         0         0         0
         0         0         0         0         0         0         0         0
         0         0         0         0         0         0         0         0
         0         0         0         0         0         0         0         0
         0         0         0         0         0         0         0         0
         0         0         0         0         0         0         0         0
         0         0         0         0         0         0         0         0
         0         0         0         0         0         0         0         0
         0         0         0         0         0         0         0         0
         0         0         0         0         0         0         0         0
         0         0         0         0         0         0         0         0
         0         0         0         0         0         0         0         0
         0         0         0         0         0         0         0         0
         0         0         0         0         0         0         0         0
         0         0         0         0         0         0         0         0
         0         0         0         0         0         0         0         0
         0         0         0         0         0         0         0         0
         0         0         0         0         0         0         0         0
         0         0         0         0         0         0         0         0
         0         0         0         0         0         0         0         0
         0         0         0         0         0         0         0         0
         0         0         0         0         0         0         0         0
         0         0         0         0         0         0         0         0
         0         0         0         0         0         0         0         0
         0         0         0         0         0         0         0         0
         0         0         0         0         0         0         0         0
         0         0         0         0         0         0         0         0
         0         0         0         0         0         0         0         0
         0         0         0         0         0         0         0         0
         0         0         0         0         0         0         0         0
         0         0         0         0         0         0         0         0
         0         0         0         0         0         0         0         0
         0         0         0         0         0         0         0         0
         0         0         0         0         0         0         0         0
         0         0         0         0         0         0         0         0
         0         0         0         0         0         0         0         0
         0         0         0         0         0         0         0         0
         0         0         0         0         0         0         0         0
         0         0         0         0         0         0         0         0
         0         0         0         0         0         0         0         0
         0         0         0         0         0         0         0         0
         0         0         0         0         0         0         0         0
         0         0         0         0         0         0         0         0
         0         0         0         0         0         0         0         0
         0         0         0         0         0         0         0         0
         0         0         0         0         0         0         0         0
         0         0         0         0         0         0         0         0
         0         0         0         0         0         0         0         0
         0         0         0         0         0         0         0         0
         0         0         0         0         0         0         0         0
         0         0         0         0         0         0         0         0
         0         0         0         0         0         0         0         0
         0         0         0         0         0         0         0         0
         0         0         0         0         0         0         0         0
         0         0         0         0         0         0         0         0
         0         0         0         0         0         0         0         0
         0         0         0         0         0         0         0         0
         0         0         0         0         0         0         0         0
         0         0         0         0         0         0         0         0
         0         0         0         0         0         0         0         0
         0         0         0         0         0         0         0         0
         0         0         0         0         0         0         0         0
         0         0         0         0         0         0         0         0
         0         0         0         0         0         0         0         0
         0         0         0         0         0         0         0         0
         0         0         0         0         0         0         0         0
         0         0         0         0         0         0         0         0
         0         0         0         0         0         0         0         0
         0         0         0         0         0         0         0         0
         0         0         0         0         0         0         0         0
         0         0         0         0         0         0         0         0
         0         0         0         0         0         0         0         0
         0         0         0         0         0         0         0         0
         0         0         0         0         0         0         0         0
         0         0         0         0         0         0         0         0
         0         0         0         0         0         0         0         0
         0         0         0         0         0         0         0         0
         0         0         0         0         0         0         0         0
         0         0         0         0         0         0         0         0
         0         0         0         0         0         0         0         0
         0         0         0         0         0         0         0         0
         0         0         0         0         0         0         0         0
         0         0         0         0         0         0         0         0
         0         0         0         0         0         0         0         0
         0         0         0         0         0         0         0         0
         0         0         0         0         0         0         0         0
         0         0         0         0         0         0         0         0
         0         0         0         0         0         0         0         0
         0         0         0         0         0         0         0         0
         0         0         0         0         0         0         0         0
         0         0         0         0         0         0         0         0
         0         0         0         0         0         0         0         0
         0         0         0         0         0         0         0         0
         0         0         0         0         0         0         0         0
         0         0         0         0         0         0         0         0
         0         0         0         0         0         0         0         0
         0         0         0         0         0         0         0         0
         0         0         0         0         0         0         0         0
         0         0         0         0         0         0         0         0
         0         0         0         0         0         0         0         0
         0         0         0         0         0         0         0         0
         0         0         0         0         0         0         0         0
         0         0         0         0         0         0         0         0
         0         0         0         0         0         0         0         0
         0         0         0         0         0         0         0         0
         0         0         0         0         0         0         0         0
         0         0         0         0         0         0         0         0
         0         0         0         0         0         0         0         0
         0         0         0         0         0         0         0         0
         0         0         0         0         0         0         0         0
         0         0         0         0         0         0         0         0
         0         0         0         0         0         0         0         0
         0         0         0         0         0         0         0         0
         0         0         0         0         0         0         0         0
         0         0         0         0         0         0         0         0
         0         0         0         0         0         0         0         0
         0         0         0         0         0         0         0         0
         0         0         0         0         0         0         0         0
         0         0         0         0         0         0         0         0
         0         0         0         0         0         0         0         0
         0         0         0         0         0         0         0         0
         0         0         0         0         0         0         0         0
         0         0         0         0         0         0         0         0
         0         0         0         0         0         0         0         0
         0         0         0         0         0         0         0         0
         0         0         0         0         0         0         0         0
         0         0         0         0         0         0         0         0
         0         0         0         0         0         0         0         0
         0         0         0         0         0         0         0         0
         0         0         0         0         0         0         0         0
         0         0         0         0         0         0         0         0
         0         0         0         0         0         0         0         0
         0         0         0         0         0         0         0         0
         0         0         0         0         0         0         0         0
         0         0         0         0         0         0         0         0
         0         0         0         0         0         0         0         0
         0         0         0         0         0         0         0         0
         0         0         0         0         0         0         0         0
         0         0         0         0         0         0         0         0
         0         0         0         0         0         0         0         0
         0         0         0         0         0         0         0         0
         0         0         0         0         0         0         0         0
         0         0         0         0         0         0         0         0
         0         0         0         0         0         0         0         0
         0         0         0         0         0         0         0         0
         0         0         0         0         0         0         0         0
         0         0         0         0         0         0         0         0
         0         0         0         0         0         0         0         0
         0         0         0         0         0         0         0         0
         0         0         0         0         0         0         0         0
         0         0         0         0         0         0         0         0
         0         0         0         0         0         0         0         0
         0         0         0         0         0         0         0         0
         0         0         0         0         0         0         0         0
         0         0         0         0         0         0         0         0
         0         0         0         0         0         0         0         0
         0         0         0         0         0         0         0         0
         0         0         0         0         0         0         0         0
         0         0         0         0         0         0         0         0
         0         0         0         0         0         0         0         0
         0         0         0         0         0         0         0         0
         0         0         0         0         0         0         0         0
         0         0         0         0         0         0         0         0
         0         0         0         0         0         0         0         0
         0         0         0         0         0         0         0         0
         0         0         0         0         0         0         0         0
         0         0         0         0         0         0         0         0
         0         0         0         0         0         0         0         0
         0         0         0         0         0         0         0         0
         0         0         0         0         0         0         0         0
         0         0         0         0         0         0         0         0
         0         0         0         0         0         0         0         0
         0         0         0         0         0         0         0         0
         0         0         0         0         0         0         0         0
         0         0         0         0         0         0         0         0
         0         0         0         0         0         0         0         0
         0         0         0         0         0         0         0         0
         0         0         0         0         0         0         0         0
         0         0         0         0         0         0         0         0
         0         0         0         0         0         0         0         0
         0         0         0         0         0         0         0         0
         0         0         0         0         0         0         0         0
         0         0         0         0         0         0         0         0
         0         0         0         0         0         0         0         0
         0         0         0         0         0         0         0         0
         0         0         0         0         0         0         0         0
         0         0         0         0         0         0         0         0
         0         0         0         0         0         0         0         0
         0         0         0         0         0         0         0         0
         0         0         0         0         0         0         0         0
         0         0         0         0         0         0         0         0
         0         0         0         0         0         0         0         0
         0         0         0         0         0         0         0         0
         0         0         0         0         0         0         0         0
         0         0         0         0         0         0         0         0
         0         0         0         0         0         0         0         0
         0         0         0         0         0         0         0         0
         0         0         0         0         0         0         0         0
         0         0         0         0         0         0         0         0
         0         0         0         0         0         0         0         0
         0         0         0         0         0         0         0         0
         0         0         0         0         0         0         0         0
         0         0         0         0         0         0         0         0
         0         0         0         0         0         0         0         0
         0         0         0         0         0         0         0         0
         0         0         0         0         0         0         0         0
         0         0         0         0         0         0         0         0
         0         0         0         0         0         0         0         0
         0         0         0         0         0         0         0         0
         0         0         0         0         0         0         0         0
         0         0         0         0         0         0         0         0
         0         0         0         0         0         0         0         0
         0         0         0         0         0         0         0         0
         0         0         0         0         0         0         0         0
         0         0         0         0         0         0         0         0
         0         0         0         0         0         0         0         0
         0         0         0         0         0         0         0         0
         0         0         0         0         0         0         0         0
         0         0         0         0         0         0         0         0
         0         0         0         0         0         0         0         0
         0         0         0         0         0         0         0         0
         0         0         0         0         0         0         0         0
         0         0         0         0         0         0         0         0
         0         0         0         0         0         0         0         0
         0         0         0         0         0         0         0         0
         0         0         0         0         0         0         0         0
         0         0         0         0         0         0         0         0
         0         0         0         0         0         0         0         0
         0         0         0         0         0         0         0         0
         0         0         0         0         0         0         0         0
         0         0         0         0         0         0         0         0
         0         0         0         0         0         0         0         0
         0         0         0         0         0         0         0         0
         0         0         0         0         0         0         0         0
         0         0         0         0         0         0         0         0
         0         0         0         0         0         0         0         0
         0         0         0         0         0         0         0         0
         0         0         0         0         0         0         0         0
         0         0         0         0         0         0         0         0
         0         0         0         0         0         0         0         0
         0         0         0         0         0         0         0         0
         0         0         0         0         0         0         0         0
         0         0         0         0         0         0         0         0
         0         0         0         0         0         0         0         0
         0         0         0         0         0         0         0         0
         0         0         0         0         0         0         0         0
         0         0         0         0         0         0         0         0
         0         0         0         0         0         0         0         0
         0         0         0         0         0         0         0         0
         0         0         0         0         0         0         0         0
         0         0         0         0         0         0         0         0
         0         0         0         0         0         0         0         0
         0         0         0         0         0         0         0         0
         0         0         0         0         0         0         0         0
         0         0         0         0         0         0         0         0
         0         0         0         0         0         0         0         0
         0         0         0         0         0         0         0         0
         0         0         0         0         0         0         0         0
         0         0         0         0         0         0         0         0
         0         0         0         0         0         0         0         0
         0         0         0         0         0         0         0         0
         0         0         0         0         0         0         0         0
         0         0         0         0         0         0         0         0
         0         0         0         0         0         0         0         0
         0         0         0         0         0         0         0         0
         0         0         0         0         0         0         0         0
         0         0         0         0         0         0         0         0
         0         0         0         0         0         0         0         0
         0         0         0         0         0         0         0         0
         0         0         0         0         0         0         0         0
         0         0         0         0         0         0         0         0
         0         0         0         0         0         0         0         0
         0         0         0         0         0         0         0         0
         0         0         0         0         0         0         0         0
         0         0         0         0         0         0         0         0
         0         0         0         0         0         0         0         0
         0         0         0         0         0         0         0         0
         0         0         0         0         0         0         0         0
         0         0         0         0         0         0         0         0
         0         0         0         0         0         0         0         0
         0         0         0         0         0         0         0         0
         0         0         0         0         0         0         0         0
         0         0         0         0         0         0         0         0
         0         0         0         0         0         0         0         0
         0         0         0         0         0         0         0         0
         0         0         0         0         0         0         0         0
         0         0         0         0         0         0         0         0
         0         0         0         0         0         0         0         0
         0         0         0         0         0         0         0         0
         0         0         0         0         0         0         0         0
         0         0         0         0         0         0         0         0
         0         0         0         0         0         0         0         0
         0         0         0         0         0         0         0         0
         0         0         0         0         0         0         0         0
         0         0         0         0         0         0         0         0
         0         0         0         0         0         0         0         0
         0         0         0         0         0         0         0         0
         0         0         0         0         0         0         0         0
         0         0         0         0         0         0         0         0
         0         0         0         0         0         0         0         0
         0         0         0         0         0         0         0         0
         0         0         0         0         0         0         0         0
         0         0         0         0         0         0         0         0
         0         0         0         0         0         0         0         0
         0         0         0         0         0         0         0         0
         0         0         0         0         0         0         0         0
         0         0         0         0         0         0         0         0
         0         0         0         0         0         0         0         0
         0         0         0         0         0         0         0         0
         0         0         0         0         0         0         0         0
         0         0         0         0         0         0         0         0
         0         0         0         0         0         0         0         0
         0         0         0         0         0         0         0         0
         0         0         0         0         0         0         0         0
         0         0         0         0         0         0         0         0
         0         0         0         0         0         0         0         0
         0         0         0         0         0         0         0         0
         0         0         0         0         0         0         0         0
         0         0         0         0         0         0         0         0
         0         0         0         0         0         0         0         0
         0         0         0         0         0         0         0         0
         0         0         0         0         0         0         0         0
         0         0         0         0         0         0         0         0
         0         0         0         0         0         0         0         0
         0         0         0         0         0         0         0         0
         0         0         0         0         0         0         0         0
         0         0         0         0         0         0         0         0
         0         0         0         0         0         0         0         0
         0         0         0         0         0         0         0         0
         0         0         0         0         0         0         0         0
         0         0         0         0         0         0         0         0
         0         0         0         0         0         0         0         0
         0         0         0         0         0         0         0         0
         0         0         0         0         0         0         0         0
         0         0         0         0         0         0         0         0
         0         0         0         0         0         0         0         0
         0         0         0         0         0         0         0         0
         0         0         0         0         0         0         0         0
         0         0         0         0         0         0         0         0
         0         0         0         0         0         0         0         0
         0         0         0         0         0         0         0         0
         0         0         0         0         0         0         0         0
         0         0         0         0         0         0         0         0
         0         0         0         0         0         0         0         0
         0         0         0         0         0         0         0         0
         0         0         0         0         0         0         0         0
         0         0         0         0         0         0         0         0
         0         0         0         0         0         0         0         0
         0         0         0         0         0         0         0         0
         0         0         0         0         0         0         0         0
         0         0         0         0         0         0         0         0
         0         0         0         0         0         0         0         0
         0         0         0         0         0         0         0         0
         0         0         0         0         0         0         0         0
         0         0         0         0         0         0         0         0
         0         0         0         0         0         0         0         0
         0         0         0         0         0         0         0         0
         0         0         0         0         0         0         0         0
         0         0         0         0         0         0         0         0
         0         0         0         0         0         0         0         0
         0         0         0         0         0         0         0         0
         0         0         0         0         0         0         0         0
         0         0         0         0         0         0         0         0
         0         0         0         0         0         0         0         0
         0         0         0         0         0         0         0         0
         0         0         0         0         0         0         0         0
         0         0         0         0         0         0         0         0
         0         0         0         0         0         0         0         0
         0         0         0         0         0         0         0         0
         0         0         0         0         0         0         0         0
         0         0         0         0         0         0         0         0
         0         0         0         0         0         0         0         0
         0         0         0         0         0         0         0         0
         0         0         0         0         0         0         0         0
         0         0         0         0         0         0         0         0
         0         0         0         0         0         0         0         0
         0         0         0         0         0         0         0         0
         0         0         0         0         0         0         0         0
         0         0         0         0         0         0         0         0
         0         0         0         0         0         0         0         0
         0         0         0         0         0         0         0         0
         0         0         0         0         0         0         0         0
         0         0         0         0         0         0         0         0
         0         0         0         0         0         0         0         0
         0         0         0         0         0         0         0         0
         0         0         0         0         0         0         0         0
         0         0         0         0         0         0         0         0
         0         0         0         0         0         0         0         0
         0         0         0         0         0         0         0         0
         0         0         0         0         0         0         0         0
         0         0         0         0         0         0         0         0
         0         0         0         0         0         0         0         0
         0         0         0         0         0         0         0         0
         0         0         0         0         0         0         0         0
         0         0         0         0         0         0         0         0
         0         0         0         0         0         0         0         0
         0         0         0         0         0         0         0         0
         0         0         0         0         0         0         0         0
         0         0         0         0         0         0         0         0
         0         0         0         0         0         0         0         0
         0         0         0         0         0         0         0         0
         0         0         0         0         0         0         0         0
         0         0         0         0         0         0         0         0
         0         0         0         0         0         0         0         0
         0         0         0         0         0         0         0         0
         0         0         0         0         0         0         0         0
         0         0         0         0         0         0         0         0
         0         0         0         0         0         0         0         0
         0         0         0         0         0         0         0         0
         0         0         0         0         0         0         0         0
         0         0         0         0         0         0         0         0
         0         0         0         0         0         0         0         0
         0         0         0         0         0         0         0         0
         0         0         0         0         0         0         0         0
         0         0         0         0         0         0         0         0
         0         0         0         0         0         0         0         0
         0         0         0         0         0         0         0         0
         0         0         0         0         0         0         0         0
         0         0         0         0         0         0         0         0
         0         0         0         0         0         0         0         0
         0         0         0         0         0         0         0         0
         0         0         0         0         0         0         0         0
         0         0         0         0         0         0         0         0
         0         0         0         0         0         0         0         0
         0         0         0         0         0         0         0         0
         0         0         0         0         0         0         0         0
         0         0         0         0         0         0         0         0
         0         0         0         0         0         0         0         0
         0         0         0         0         0         0         0         0
         0         0         0         0         0         0         0         0
         0         0         0         0         0         0         0         0
         0         0         0         0         0         0         0         0
         0         0         0         0         0         0         0         0
         0         0         0         0         0         0         0         0
         0         0         0         0         0         0         0         0
         0         0         0         0         0         0         0         0
         0         0         0         0         0         0         0         0
         0         0         0         0         0         0         0         0
         0         0         0         0         0         0         0         0
         0         0         0         0         0         0         0         0
         0         0         0         0         0         0         0         0
         0         0         0         0         0         0         0         0
         0         0         0         0         0         0         0         0
         0         0         0         0         0         0         0         0
         0         0         0         0         0         0         0         0
         0         0         0         0         0         0         0         0
         0         0         0         0         0         0         0         0
         0         0         0         0         0         0         0         0
         0         0         0         0         0         0         0         0
         0         0         0         0         0         0         0         0
         0         0         0         0         0         0         0         0
         0         0         0         0         0         0         0         0
         0         0         0         0         0         0         0         0
         0         0         0         0         0         0         0         0
         0         0         0         0         0         0         0         0
         0         0         0         0         0         0         0         0
         0         0         0         0         0         0         0         0
         0         0         0         0         0         0         0         0
         0         0         0         0         0         0         0         0
         0         0         0         0         0         0         0         0
         0         0         0         0         0         0         0         0
         0         0         0         0         0         0         0         0
         0         0         0         0         0         0         0         0
         0         0         0         0         0         0         0         0
         0         0         0         0         0         0         0         0
         0         0         0         0         0         0         0         0
         0         0         0         0         0         0         0         0
         0         0         0         0         0         0         0         0
         0         0         0         0         0         0         0         0
         0         0         0         0         0         0         0         0
         0         0         0         0         0         0         0         0
         0         0         0         0         0         0         0         0
         0         0         0         0         0         0         0         0
         0         0         0         0         0         0         0         0
         0         0         0         0         0         0         0         0
         0         0         0         0         0         0         0         0
         0         0         0         0         0         0         0         0
         0         0         0         0         0         0         0         0
         0         0         0         0         0         0         0         0
         0         0         0         0         0         0         0         0
         0         0         0         0         0         0         0         0
         0         0         0         0         0         0         0         0
         0         0         0         0         0         0         0         0
         0         0         0         0         0         0         0         0
         0         0         0         0         0         0         0         0
         0         0         0         0         0         0         0         0
         0         0         0         0         0         0         0         0
         0         0         0         0         0         0         0         0
         0         0         0         0         0         0         0         0
         0         0         0         0         0         0         0         0
         0         0         0         0         0         0         0         0
         0         0         0         0         0         0         0         0
         0         0         0         0         0         0         0         0
         0         0         0         0         0         0         0         0
         0         0         0         0         0         0         0         0
         0         0         0         0         0         0         0         0
         0         0         0         0         0         0         0         0
         0         0         0         0         0         0         0         0
         0         0         0         0         0         0         0         0
         0         0         0         0         0         0         0         0
         0         0         0         0         0         0         0         0
         0         0         0         0         0         0         0         0
         0         0         0         0         0         0         0         0
         0         0         0         0         0         0         0         0
         0         0         0         0         0         0         0         0
         0         0         0         0         0         0         0         0
         0         0         0         0         0         0         0         0
         0         0         0         0         0         0         0         0
         0         0         0         0         0         0         0         0
         0         0         0         0         0         0         0         0
         0         0         0         0         0         0         0         0
         0         0         0         0         0         0         0         0
         0         0         0         0         0         0         0         0
         0         0         0         0         0         0         0         0
         0         0         0         0         0         0         0         0
         0         0         0         0         0         0         0         0
         0         0         0         0         0         0         0         0
         0         0         0         0         0         0         0         0
         0         0         0         0         0         0         0         0
         0         0         0         0         0         0         0         0
         0         0         0         0         0         0         0         0
         0         0         0         0         0         0         0         0
         0         0         0         0         0         0         0         0
         0         0         0         0         0         0         0         0
         0         0         0         0         0         0         0         0
         0         0         0         0         0         0         0         0
         0         0         0         0         0         0         0         0
         0         0         0         0         0         0         0         0
         0         0         0         0         0         0         0         0
         0         0         0         0         0         0         0         0
         0         0         0         0         0         0         0         0
         0         0         0         0         0         0         0         0
         0         0         0         0         0         0         0         0
         0         0         0         0         0         0         0         0
         0         0         0         0         0         0         0         0
         0         0         0         0         0         0         0         0
         0         0         0         0         0         0         0         0
         0         0         0         0         0         0         0         0
         0         0         0         0         0         0         0         0
         0         0         0         0         0         0         0         0
         0         0         0         0         0         0         0         0
         0         0         0         0         0         0         0         0
         0         0         0         0         0         0         0         0
         0         0         0         0         0         0         0         0
         0         0         0         0         0         0         0         0
         0         0         0         0         0         0         0         0
         0         0         0         0         0         0         0         0
         0         0         0         0         0         0         0         0
         0         0         0         0         0         0         0         0
         0         0         0         0         0         0         0         0
         0         0         0         0         0         0         0         0
         0         0         0         0         0         0         0         0
         0         0         0         0         0         0         0         0
         0         0         0         0         0         0         0         0
         0         0         0         0         0         0         0         0
         0         0         0         0         0         0         0         0
         0         0         0         0         0         0         0         0
         0         0         0         0         0         0         0         0
         0         0         0         0         0         0         0         0
         0         0         0         0         0         0         0         0
         0         0         0         0         0         0         0         0
         0         0         0         0         0         0         0         0
         0         0         0         0         0         0         0         0
         0         0         0         0         0         0         0         0
         0         0         0         0         0         0         0         0
         0         0         0         0         0         0         0         0
         0         0         0         0         0         0         0         0
         0         0         0         0         0         0         0         0
         0         0         0         0         0         0         0         0
         0         0         0         0         0         0         0         0
         0         0         0         0         0         0         0         0
         0         0         0         0         0         0         0         0
         0         0         0         0         0         0         0         0
         0         0         0         0         0         0         0         0
         0         0         0         0         0         0         0         0
         0         0         0         0         0         0         0         0
         0         0         0         0         0         0         0         0
         0         0         0         0         0         0         0         0
         0         0         0         0         0         0         0         0
         0         0         0         0         0         0         0         0
         0         0         0         0         0         0         0         0
         0         0         0         0         0         0         0         0
         0         0         0         0         0         0         0         0
         0         0         0         0         0         0         0         0
         0         0         0         0         0         0         0         0
         0         0         0         0         0         0         0         0
         0         0         0         0         0         0         0         0
         0         0         0         0         0         0         0         0
         0         0         0         0         0         0         0         0
         0         0         0         0         0         0         0         0
         0         0         0         0         0         0         0         0
         0         0         0         0         0         0         0         0
         0         0         0         0         0         0         0         0
         0         0         0         0         0         0         0         0
         0         0         0         0         0         0         0         0
         0         0         0         0         0         0         0         0
         0         0         0         0         0         0         0         0
         0         0         0         0         0         0         0         0
         0         0         0         0         0         0         0         0
         0         0         0         0         0         0         0         0
         0         0         0         0         0         0         0         0
         0         0         0         0         0         0         0         0
         0         0         0         0         0         0         0         0
         0         0         0         0         0         0         0         0
         0         0         0         0         0         0         0         0
         0         0         0         0         0         0         0         0
         0         0         0         0         0         0         0         0
         0         0         0         0         0         0         0         0
         0         0         0         0         0         0         0         0
         0         0         0         0         0         0         0         0
         0         0         0         0         0         0         0         0
         0         0         0         0         0         0         0         0
         0         0         0         0         0         0         0         0
         0         0         0         0         0         0         0         0
         0         0         0         0         0         0         0         0
         0         0         0         0         0         0         0         0
         0         0         0         0         0         0         0         0
         0         0         0         0         0         0         0         0
         0         0         0         0         0         0         0         0
         0         0         0         0         0         0         0         0
         0         0         0         0         0         0         0         0
         0         0         0         0         0         0         0         0
         0         0         0         0         0         0         0         0
         0         0         0         0         0         0         0         0
         0         0         0         0         0         0         0         0
         0         0         0         0         0         0         0         0
         0         0         0         0         0         0         0         0
         0         0         0         0         0         0         0         0
         0         0         0         0         0         0         0         0
         0         0         0         0         0         0         0         0
         0         0         0         0         0         0         0         0
         0         0         0         0         0         0         0         0
         0         0         0         0         0         0         0         0
         0         0         0         0         0         0         0         0
         0         0         0         0         0         0         0         0
         0         0         0         0         0         0         0         0
         0         0         0         0         0         0         0         0
         0         0         0         0         0         0         0         0
         0         0         0         0         0         0         0         0
         0         0         0         0         0         0         0         0
         0         0         0         0         0         0         0         0
         0         0         0         0         0         0         0         0
         0         0         0         0         0         0         0         0
         0         0         0         0         0         0         0         0
         0         0         0         0         0         0         0         0
         0         0         0         0         0         0         0         0
         0         0         0         0         0         0         0         0
         0         0         0         0         0         0         0         0
         0         0         0         0         0         0         0         0
         0         0         0         0         0         0         0         0
         0         0         0         0         0         0         0         0
         0         0         0         0         0         0         0         0
         0         0         0         0         0         0         0         0
         0         0         0         0         0         0         0         0
         0         0         0         0         0         0         0         0
         0         0         0         0         0         0         0         0
         0         0         0         0         0         0         0         0
         0         0         0         0         0         0         0         0
         0         0         0         0         0         0         0         0
         0         0         0         0         0         0         0         0
         0         0         0         0         0         0         0         0
         0         0         0         0         0         0         0         0
         0         0         0         0         0         0         0         0
         0         0         0         0         0         0         0         0
         0         0         0         0         0         0         0         0
         0         0         0         0         0         0         0         0
         0         0         0         0         0         0         0         0
         0         0         0         0         0         0         0         0
         0         0         0         0         0         0         0         0
         0         0         0         0         0         0         0         0
         0         0         0         0         0         0         0         0
         0         0         0         0         0         0         0         0
         0         0         0         0         0         0         0         0
         0         0         0         0         0         0         0         0
         0         0         0         0         0         0         0         0
         0         0         0         0         0         0         0         0
         0         0         0         0         0         0         0         0
         0         0         0         0         0         0         0         0
         0         0         0         0         0         0         0         0
         0         0         0         0         0         0         0         0
         0         0         0         0         0         0         0         0
         0         0         0         0         0         0         0         0
         0         0         0         0         0         0         0         0
         0         0         0         0         0         0         0         0
         0         0         0         0         0         0         0         0
         0         0         0         0         0         0         0         0
         0         0         0         0         0         0         0         0
         0         0         0         0         0         0         0         0
         0         0         0         0         0         0         0         0
         0         0         0         0         0         0         0         0
         0         0         0         0         0         0         0         0
         0         0         0         0         0         0         0         0
         0         0         0         0         0         0         0         0
         0         0         0         0         0         0         0         0
         0         0         0         0         0         0         0         0
         0         0         0         0         0         0         0         0
         0         0         0         0         0         0         0         0
         0         0         0         0         0         0         0         0
         0         0         0         0         0         0         0         0
         0         0         0         0         0         0         0         0
         0         0         0         0         0         0         0         0
         0         0         0         0         0         0         0         0
         0         0         0         0         0         0         0         0
         0         0         0         0         0         0         0         0
         0         0         0         0         0         0         0         0
         0         0         0         0         0         0         0         0
         0         0         0         0         0         0         0         0
         0         0         0         0         0         0         0         0
         0         0         0         0         0         0         0         0
         0         0         0         0         0         0         0         0
         0         0         0         0         0         0         0         0
         0         0         0         0         0         0         0         0
         0         0         0         0         0         0         0         0
         0         0         0         0         0         0         0         0
         0         0         0         0         0         0         0         0
         0         0         0         0         0         0         0         0
         0         0         0         0         0         0         0         0
         0         0         0         0         0         0         0         0
         0         0         0         0         0         0         0         0
         0         0         0         0         0         0         0         0
         0         0         0         0         0         0         0         0
         0         0         0         0         0         0         0         0
         0         0         0         0         0         0         0         0
         0         0         0         0         0         0         0         0
         0         0         0         0         0         0         0         0
         0         0         0         0         0         0         0         0
         0         0         0         0         0         0         0         0
         0         0         0         0         0         0         0         0
         0         0         0         0         0         0         0         0
         0         0         0         0         0         0         0         0
         0         0         0         0         0         0         0         0
         0         0         0         0         0         0         0         0
         0         0         0         0         0         0         0         0
         0         0         0         0         0         0         0         0
         0         0         0         0         0         0         0         0
         0         0         0         0         0         0         0         0
         0         0         0         0         0         0         0         0
         0         0         0         0         0         0         0         0
         0         0         0         0         0         0         0         0
         0         0         0         0         0         0         0         0
         0         0         0         0         0         0         0         0
         0         0         0         0         0         0         0         0
         0         0         0         0         0         0         0         0
         0         0         0         0         0         0         0         0
         0         0         0         0         0         0         0         0
         0         0         0         0         0         0         0         0
         0         0         0         0         0         0         0         0
         0         0         0         0         0         0         0         0
         0         0         0         0         0         0         0         0
         0         0         0         0         0         0         0         0
         0         0         0         0         0         0         0         0
         0         0         0         0         0         0         0         0
         0         0         0         0         0         0         0         0
         0         0         0         0         0         0         0         0
         0         0         0         0         0         0         0         0
         0         0         0         0         0         0         0         0
         0         0         0         0         0         0         0         0
         0         0         0         0         0         0         0         0
         0         0         0         0         0         0         0         0
         0         0         0         0         0         0         0         0
         0         0         0         0         0         0         0         0
         0         0         0         0         0         0         0         0
         0         0         0         0         0         0         0         0
         0         0         0         0         0         0         0         0
         0         0         0         0         0         0         0         0
         0         0         0         0         0         0         0         0
         0         0         0         0         0         0         0         0
         0         0         0         0         0         0         0         0
         0         0         0         0         0         0         0         0
         0         0         0         0         0         0         0         0
         0         0         0         0         0         0         0         0
         0         0         0         0         0         0         0         0
         0         0         0         0         0         0         0         0
         0         0         0         0         0         0         0         0
         0         0         0         0         0         0         0         0
         0         0         0         0         0         0         0         0
         0         0         0         0         0         0         0         0
         0         0         0         0         0         0         0         0
         0         0         0         0         0         0         0         0
         0         0         0         0         0         0         0         0
         0         0         0         0         0         0         0         0
         0         0         0         0         0         0         0         0
         0         0         0         0         0         0         0         0
         0         0         0         0         0         0         0         0
         0         0         0         0         0         0         0         0
         0         0         0         0         0         0         0         0
         0         0         0         0         0         0         0         0
         0         0         0         0         0         0         0         0
         0         0         0         0         0         0         0         0
         0         0         0         0         0         0         0         0
         0         0         0         0         0         0         0         0
         0         0         0         0         0         0         0         0
         0         0         0         0         0         0         0         0
         0         0         0         0         0         0         0         0
         0         0         0         0         0         0         0         0
         0         0         0         0         0         0         0         0
         0         0         0         0         0         0         0         0
         0         0         0         0         0         0         0         0
         0         0         0         0         0         0         0         0
         0         0         0         0         0         0         0         0
         0         0         0         0         0         0         0         0
         0         0         0         0         0         0         0         0
         0         0         0         0         0         0         0         0
         0         0         0         0         0         0         0         0
         0         0         0         0         0         0         0         0
         0         0         0         0         0         0         0         0
         0         0         0         0         0         0         0         0
         0         0         0         0         0         0         0         0
         0         0         0         0         0         0         0         0
         0         0         0         0         0         0         0         0
         0         0         0         0         0         0         0         0
         0         0         0         0         0         0         0         0
         0         0         0         0         0         0         0         0
         0         0         0         0         0         0         0         0
         0         0         0         0         0         0         0         0
         0         0         0         0         0         0         0         0
         0         0         0         0         0         0         0         0
         0         0         0         0         0         0         0         0
         0         0         0         0         0         0         0         0
         0         0         0         0         0         0         0         0
         0         0         0         0         0         0         0         0
         0         0         0         0         0         0         0         0
         0         0         0         0         0         0         0         0
         0         0         0         0         0         0         0         0
         0         0         0         0         0         0         0         0
         0         0         0         0         0         0         0         0
         0         0         0         0         0         0         0         0
         0         0         0         0         0         0         0         0
         0         0         0         0         0         0         0         0
         0         0         0         0         0         0         0         0
         0         0         0         0         0         0         0         0
         0         0         0         0         0         0         0         0
         0         0         0         0         0         0         0         0
         0         0         0         0         0         0         0         0
         0         0         0         0         0         0         0         0
         0         0         0         0         0         0         0         0
         0         0         0         0         0         0         0         0
         0         0         0         0         0         0         0         0
         0         0         0         0         0         0         0         0
         0         0         0         0         0         0         0         0
         0         0         0         0         0         0         0         0
         0         0         0         0         0         0         0         0
         0         0         0         0         0         0         0         0
         0         0         0         0         0         0         0         0
         0         0         0         0         0         0         0         0
         0         0         0         0         0         0         0         0
         0         0         0         0         0         0         0         0
         0         0         0         0         0         0         0         0
         0         0         0         0         0         0         0         0
         0         0         0         0         0         0         0         0
         0         0         0         0         0         0         0         0
         0         0         0         0         0         0         0         0
         0         0         0         0         0         0         0         0
         0         0         0         0         0         0         0         0
         0         0         0         0         0         0         0         0
         0         0         0         0         0         0         0         0
         0         0         0         0         0         0         0         0
         0         0         0         0         0         0         0         0
         0         0         0         0         0         0         0         0
         0         0         0         0         0         0         0         0
         0         0         0         0         0         0         0         0
         0         0         0         0         0         0         0         0
         0         0         0         0         0         0         0         0
         0         0         0         0         0         0         0         0
         0         0         0         0         0         0         0         0
         0         0         0         0         0         0         0         0
         0         0         0         0         0         0         0         0
         0         0         0         0         0         0         0         0
         0         0         0         0         0         0         0         0
         0         0         0         0         0         0         0         0
         0         0         0         0         0         0         0         0
         0         0         0         0         0         0         0         0
         0         0         0         0         0         0         0         0
         0         0         0         0         0         0         0         0
         0         0         0         0         0         0         0         0
         0         0         0         0         0         0         0         0
         0         0         0         0         0         0         0         0
         0         0         0         0         0         0         0         0
         0         0         0         0         0         0         0         0
         0         0         0         0         0         0         0         0
         0         0         0         0         0         0         0         0
         0         0         0         0         0         0         0         0
         0         0         0         0         0         0         0         0
         0         0         0         0         0         0         0         0
         0         0         0         0         0         0         0         0
         0         0         0         0         0         0         0         0
         0         0         0         0         0         0         0         0
         0         0         0         0         0         0         0         0
         0         0         0         0         0         0         0         0
         0         0         0         0         0         0         0         0
         0         0         0         0         0         0         0         0
         0         0         0         0         0         0         0         0
         0         0         0         0         0         0         0         0
         0         0         0         0         0         0         0         0
         0         0         0         0         0         0         0         0
         0         0         0         0         0         0         0         0
         0         0         0         0         0         0         0         0
         0         0         0         0         0         0         0         0
         0         0         0         0         0         0         0         0
         0         0         0         0         0         0         0         0
         0         0         0         0         0         0         0         0
         0         0         0         0         0         0         0         0
         0         0         0         0         0         0         0         0
         0         0         0         0         0         0         0         0
         0         0         0         0         0         0         0         0
         0         0         0         0         0         0         0         0
         0         0         0         0         0         0         0         0
         0         0         0         0         0         0         0         0
         0         0         0         0         0         0         0         0
         0         0         0         0         0         0         0         0
         0         0         0         0         0         0         0         0
         0         0         0         0         0         0         0         0
         0         0         0         0         0         0         0         0
         0         0         0         0         0         0         0         0
         0         0         0         0         0         0         0         0
         0         0         0         0         0         0         0         0
         0         0         0         0         0         0         0         0
         0         0         0         0         0         0         0         0
         0         0         0         0         0         0         0         0
         0         0         0         0         0         0         0         0
         0         0         0         0         0         0         0         0
         0         0         0         0         0         0         0         0
         0         0         0         0         0         0         0         0
         0         0         0         0         0         0         0         0
         0         0         0         0         0         0         0         0
         0         0         0         0         0         0         0         0
         0         0         0         0         0         0         0         0
         0         0         0         0         0         0         0         0
         0         0         0         0         0         0         0         0
         0         0         0         0         0         0         0         0
         0         0         0         0         0         0         0         0
         0         0         0         0         0         0         0         0
         0         0         0         0         0         0         0         0
         0         0         0         0         0         0         0         0
         0         0         0         0         0         0         0         0
         0         0         0         0         0         0         0         0
         0         0         0         0         0         0         0         0
         0         0         0         0         0         0         0         0
         0         0         0         0         0         0         0         0
         0         0         0         0         0         0         0         0
         0         0         0         0         0         0         0         0
         0         0         0         0         0         0         0         0
         0         0         0         0         0         0         0         0
         0         0         0         0         0         0         0         0
         0         0         0         0         0         0         0         0
         0         0         0         0         0         0         0         0
         0         0         0         0         0         0         0         0
         0         0         0         0         0         0         0         0
         0         0         0         0         0         0         0         0
         0         0         0         0         0         0         0         0
         0         0         0         0         0         0         0         0
         0         0         0         0         0         0         0         0
         0         0         0         0         0         0         0         0
         0         0         0         0         0         0         0         0
         0         0         0         0         0         0         0         0
         0         0         0         0         0         0         0         0
         0         0         0         0         0         0         0         0
         0         0         0         0         0         0         0         0
         0         0         0         0         0         0         0         0
         0         0         0         0         0         0         0         0
         0         0         0         0         0         0         0         0
         0         0         0         0         0         0         0         0
         0         0         0         0         0         0         0         0
         0         0         0         0         0         0         0         0
         0         0         0         0         0         0         0         0
         0         0         0         0         0         0         0         0
         0         0         0         0         0         0         0         0
         0         0         0         0         0         0         0         0
         0         0         0         0         0         0         0         0
         0         0         0         0         0         0         0         0
         0         0         0         0         0         0         0         0
         0         0         0         0         0         0         0         0
         0         0         0         0         0         0         0         0
         0         0         0         0         0         0         0         0
         0         0         0         0         0         0         0         0
         0         0         0         0         0         0         0         0
         0         0         0         0         0         0         0         0
         0         0         0         0         0         0         0         0
         0         0         0         0         0         0         0         0
         0         0         0         0         0         0         0         0
         0         0         0         0         0         0         0         0
         0         0         0         0         0         0         0         0
         0         0         0         0         0         0         0         0
         0         0         0         0         0         0         0         0
         0         0         0         0         0         0         0         0
         0         0         0         0         0         0         0         0
         0         0         0         0         0         0         0         0
         0         0         0         0         0         0         0         0
         0         0         0         0         0         0         0         0
         0         0         0         0         0         0         0         0
         0         0         0         0         0         0         0         0
         0         0         0         0         0         0         0         0
         0         0         0         0         0         0         0         0
         0         0         0         0         0         0         0         0
         0         0         0         0         0         0         0         0
         0         0         0         0         0         0         0         0
         0         0         0         0         0         0         0         0
         0         0         0         0         0         0         0         0
         0         0         0         0         0         0         0         0
         0         0         0         0         0         0         0         0
         0         0         0         0         0         0         0         0
         0         0         0         0         0         0         0         0
         0         0         0         0         0         0         0         0
         0         0         0         0         0         0         0         0
         0         0         0         0         0         0         0         0
         0         0         0         0         0         0         0         0
         0         0         0         0         0         0         0         0
         0         0         0         0         0         0         0         0
         0         0         0         0         0         0         0         0
         0         0         0         0         0         0         0         0
         0         0         0         0         0         0         0         0
         0         0         0         0         0         0         0         0
         0         0         0         0         0         0         0         0
         0         0         0         0         0         0         0         0
         0         0         0         0         0         0         0         0
         0         0         0         0         0         0         0         0
         0         0         0         0         0         0         0         0
         0         0         0         0         0         0         0         0
         0         0         0         0         0         0         0         0
         0         0         0         0         0         0         0         0
         0         0         0         0         0         0         0         0
         0         0         0         0         0         0         0         0
         0         0         0         0         0         0         0         0
         0         0         0         0         0         0         0         0
         0         0         0         0         0         0         0         0
         0         0         0         0         0         0         0         0
         0         0         0         0         0         0         0         0
         0         0         0         0         0         0         0         0
         0         0         0         0         0         0         0         0
         0         0         0         0         0         0         0         0
         0         0         0         0         0         0         0         0
         0         0         0         0         0         0         0         0
         0         0         0         0         0         0         0         0
         0         0         0         0         0         0         0         0
         0         0         0         0         0         0         0         0
         0         0         0         0         0         0         0         0
         0         0         0         0         0         0         0         0
         0         0         0         0         0         0         0         0
         0         0         0         0         0         0         0         0
         0         0         0         0         0         0         0         0
         0         0         0         0         0         0         0         0
         0         0         0         0         0         0         0         0
         0         0         0         0         0         0         0         0
         0         0         0         0         0         0         0         0
         0         0         0         0         0         0         0         0
         0         0         0         0         0         0         0         0
         0         0         0         0         0         0         0         0
         0         0         0         0         0         0         0         0
         0         0         0         0         0         0         0         0
         0         0         0         0         0         0         0         0
         0         0         0         0         0         0         0         0
         0         0         0         0         0         0         0         0
         0         0         0         0         0         0         0         0
         0         0         0         0         0         0         0         0
         0         0         0         0         0         0         0         0
         0         0         0         0         0         0         0         0
         0         0         0         0         0         0         0         0
         0         0         0         0         0         0         0         0
         0         0         0         0         0         0         0         0
         0         0         0         0         0         0         0         0
         0         0         0         0         0         0         0         0
         0         0         0         0         0         0         0         0
         0         0         0         0         0         0         0         0
         0         0         0         0         0         0         0         0
         0         0         0         0         0         0         0         0
         0         0         0         0         0         0         0         0
         0         0         0         0         0         0         0         0
         0         0         0         0         0         0         0         0
         0         0         0         0         0         0         0         0
         0         0         0         0         0         0         0         0
         0         0         0         0         0         0         0         0
         0         0         0         0         0         0         0         0
         0         0         0         0         0         0         0         0
         0         0         0         0         0         0         0         0
         0         0         0         0         0         0         0         0
         0         0         0         0         0         0         0         0
         0         0         0         0         0         0         0         0
         0         0         0         0         0         0         0         0
         0         0         0         0         0         0         0         0
         0         0         0         0         0         0         0         0
         0         0         0         0         0         0         0         0
         0         0         0         0         0         0         0         0
         0         0         0         0         0         0         0         0
         0         0         0         0         0         0         0         0
         0         0         0         0         0         0         0         0
         0         0         0         0         0         0         0         0
         0         0         0         0         0         0         0         0
         0         0         0         0         0         0         0         0
         0         0         0         0         0         0         0         0
         0         0         0         0         0         0         0         0
         0         0         0         0         0         0         0         0
         0         0         0         0         0         0         0         0
         0         0         0         0         0         0         0         0
         0         0         0         0         0         0         0         0
         0         0         0         0         0         0         0         0
         0         0         0         0         0         0         0         0
         0         0         0         0         0         0         0         0
         0         0         0         0         0         0         0         0
         0         0         0         0         0         0         0         0
         0         0         0         0         0         0         0         0
         0         0         0         0         0         0         0         0
         0         0         0         0         0         0         0         0
         0         0         0         0         0         0         0         0
         0         0         0         0         0         0         0         0
         0         0         0         0         0         0         0         0
         0         0         0         0         0         0         0         0
         0         0         0         0         0         0         0         0
         0         0         0         0         0         0         0         0
         0         0         0         0         0         0         0         0
         0         0         0         0         0         0         0         0
         0         0         0         0         0         0         0         0
         0         0         0         0         0         0         0         0
         0         0         0         0         0         0         0         0
         0         0         0         0         0         0         0         0
         0         0         0         0         0         0         0         0
         0         0         0         0         0         0         0         0
         0         0         0         0         0         0         0         0
         0         0         0         0         0         0         0         0
         0         0         0         0         0         0         0         0
         0         0         0         0         0         0         0         0
         0         0         0         0         0         0         0         0
         0         0         0         0         0         0         0         0
         0         0         0         0         0         0         0         0
         0         0         0         0         0         0         0         0
         0         0         0         0         0         0         0         0
         0         0         0         0         0         0         0         0
         0         0         0         0         0         0         0         0
         0         0         0         0         0         0         0         0
         0         0         0         0         0         0         0         0
         0         0         0         0         0         0         0         0
         0         0         0         0         0         0         0         0
         0         0         0         0         0         0         0         0
         0         0         0         0         0         0         0         0
         0         0         0         0         0         0         0         0
         0         0         0         0         0         0         0         0
         0         0         0         0         0         0         0         0
         0         0         0         0         0         0         0         0
         0         0         0         0         0         0         0         0
         0         0         0         0         0         0         0         0
         0         0         0         0         0         0         0         0
         0         0         0         0         0         0         0         0
         0         0         0         0         0         0         0         0
         0         0         0         0         0         0         0         0
         0         0         0         0         0         0         0         0
         0         0         0         0         0         0         0         0
         0         0         0         0         0         0         0         0
         0         0         0         0         0         0         0         0
         0         0         0         0         0         0         0         0
         0         0         0         0         0         0         0         0
         0         0         0         0         0         0         0         0
         0         0         0         0         0         0         0         0
         0         0         0         0         0         0         0         0
         0         0         0         0         0         0         0         0
         0         0         0         0         0         0         0         0
         0         0         0         0         0         0         0         0
         0         0         0         0         0         0         0         0
         0         0         0         0         0         0         0         0
         0         0         0         0         0         0         0         0
         0         0         0         0         0         0         0         0
         0         0         0         0         0         0         0         0
         0         0         0         0         0         0         0         0
         0         0         0         0         0         0         0         0
         0         0         0         0         0         0         0         0
         0         0         0         0         0         0         0         0
         0         0         0         0         0         0         0         0
         0         0         0         0         0         0         0         0
         0         0         0         0         0         0         0         0
         0         0         0         0         0         0         0         0
         0         0         0         0         0         0         0         0
         0         0         0         0         0         0         0         0
         0         0         0         0         0         0         0         0
         0         0         0         0         0         0         0         0
         0         0         0         0         0         0         0         0
         0         0         0         0         0         0         0         0
         0         0         0         0         0         0         0         0
         0         0         0         0         0         0         0         0
         0         0         0         0         0         0         0         0
         0         0         0         0         0         0         0         0
         0         0         0         0         0         0         0         0
         0         0         0         0         0         0         0         0
         0         0         0         0         0         0         0         0
         0         0         0         0         0         0         0         0
         0         0         0         0         0         0         0         0
         0         0         0         0         0         0         0         0
         0         0         0         0         0         0         0         0
         0         0         0         0         0         0         0         0
         0         0         0         0         0         0         0         0
         0         0         0         0         0         0         0         0
         0         0         0         0         0         0         0         0
         0         0         0         0         0         0         0         0
         0         0         0         0         0         0         0         0
         0         0         0         0         0         0         0         0
         0         0         0         0         0         0         0         0
         0         0         0         0         0         0         0         0
         0         0         0         0         0         0         0         0
         0         0         0         0         0         0         0         0
         0         0         0         0         0         0         0         0
         0         0         0         0         0         0         0         0
         0         0         0         0         0         0         0         0
         0         0         0         0         0         0         0         0
         0         0         0         0         0         0         0         0
         0         0         0         0         0         0         0         0
         0         0         0         0         0         0         0         0
         0         0         0         0         0         0         0         0
         0         0         0         0         0         0         0         0
         0         0         0         0         0         0         0         0
         0         0         0         0         0         0         0         0
         0         0         0         0         0         0         0         0
         0         0         0         0         0         0         0         0
         0         0         0         0         0         0         0         0
         0         0         0         0         0         0         0         0
         0         0         0         0         0         0         0         0
         0         0         0         0         0         0         0         0
         0         0         0         0         0         0         0         0
         0         0         0         0         0         0         0         0
         0         0         0         0         0         0         0         0
         0         0         0         0         0         0         0         0
         0         0         0         0         0         0         0         0
         0         0         0         0         0         0         0         0
         0         0         0         0         0         0         0         0
         0         0         0         0         0         0         0         0
         0         0         0         0         0         0         0         0
         0         0         0         0         0         0         0         0
         0         0         0         0         0         0         0         0
         0         0         0         0         0         0         0         0
         0         0         0         0         0         0         0         0
         0         0         0         0         0         0         0         0
         0         0         0         0         0         0         0         0
         0         0         0         0         0         0         0         0
         0         0         0         0         0         0         0         0
         0         0         0         0         0         0         0         0
         0         0         0         0         0         0         0         0
         0         0         0         0         0         0         0         0
         0         0         0         0         0         0         0         0
         0         0         0         0         0         0         0         0
         0         0         0         0         0         0         0         0
         0         0         0         0         0         0         0         0
         0         0         0         0         0         0         0         0
         0         0         0         0         0         0         0         0
         0         0         0         0         0         0         0         0
         0         0         0         0         0         0         0         0
         0         0         0         0         0         0         0         0
         0         0         0         0         0         0         0         0
         0         0         0         0         0         0         0         0
         0         0         0         0         0         0         0         0
         0         0         0         0         0         0         0         0
         0         0         0         0         0         0         0         0
         0         0         0         0         0         0         0         0
         0         0         0         0         0         0         0         0
         0         0         0         0         0         0         0         0
         0         0         0         0         0         0         0         0
         0         0         0         0         0         0         0         0
         0         0         0         0         0         0         0         0
         0         0         0         0         0         0         0         0
         0         0         0         0         0         0         0         0
         0         0         0         0         0         0         0         0
         0         0         0         0         0         0         0         0
         0         0         0         0         0         0         0         0
         0         0         0         0         0         0         0         0
         0         0         0         0         0         0         0         0
         0         0         0         0         0         0         0         0
         0         0         0         0         0         0         0         0
         0         0         0         0         0         0         0         0
         0         0         0         0         0         0         0         0
         0         0         0         0         0         0         0         0
         0         0         0         0         0         0         0         0
         0         0         0         0         0         0         0         0
         0         0         0         0         0         0         0         0
         0         0         0         0         0         0         0         0
         0         0         0         0         0         0         0         0
         0         0         0         0         0         0         0         0
         0         0         0         0         0         0         0         0
         0         0         0         0         0         0         0         0
         0         0         0         0         0         0         0         0
         0         0         0         0         0         0         0         0
         0         0         0         0         0         0         0         0
         0         0         0         0         0         0         0         0
         0         0         0         0         0         0         0         0
         0         0         0         0         0         0         0         0
         0         0         0         0         0         0         0         0
         0         0         0         0         0         0         0         0
         0         0         0         0         0         0         0         0
         0         0         0         0         0         0         0         0
         0         0         0         0         0         0         0         0
         0         0         0         0         0         0         0         0
         0         0         0         0         0         0         0         0
         0         0         0         0         0         0         0         0
         0         0         0         0         0         0         0         0
         0         0         0         0         0         0         0         0
         0         0         0         0         0         0         0         0
         0         0         0         0         0         0         0         0
         0         0         0         0         0         0         0         0
         0         0         0         0         0         0         0         0
         0         0         0         0         0         0         0         0
         0         0         0         0         0         0         0         0
         0         0         0         0         0         0         0         0
         0         0         0         0         0         0         0         0
         0         0         0         0         0         0         0         0
         0         0         0         0         0         0         0         0
         0         0         0         0         0         0         0         0
         0         0         0         0         0         0         0         0
         0         0         0         0         0         0         0         0
         0         0         0         0         0         0         0         0
         0         0         0         0         0         0         0         0
         0         0         0         0         0         0         0         0
         0         0         0         0         0         0         0         0
         0         0         0         0         0         0         0         0
         0         0         0         0         0         0         0         0
         0         0         0         0         0         0         0         0
         0         0         0         0         0         0         0         0
         0         0         0         0         0         0         0         0
         0         0         0         0         0         0         0         0
         0         0         0         0         0         0         0         0
         0         0         0         0         0         0         0         0
         0         0         0         0         0         0         0         0
         0         0         0         0         0         0         0         0
         0         0         0         0         0         0         0         0
         0         0         0         0         0         0         0         0
         0         0         0         0         0         0         0         0
         0         0         0         0         0         0         0         0
         0         0         0         0         0         0         0         0
         0         0         0         0         0         0         0         0
         0         0         0         0         0         0         0         0
         0         0         0         0         0         0         0         0
         0         0         0         0         0         0         0         0
         0         0         0         0         0         0         0         0
         0         0         0         0         0         0         0         0
         0         0         0         0         0         0         0         0
         0         0         0         0         0         0         0         0
         0         0         0         0         0         0         0         0
         0         0         0         0         0         0         0         0
         0         0         0         0         0         0         0         0
         0         0         0         0         0         0         0         0
         0         0         0         0         0         0         0         0
         0         0         0         0         0         0         0         0
         0         0         0         0         0         0         0         0
         0         0         0         0         0         0         0         0
         0         0         0         0         0         0         0         0
         0         0         0         0         0         0         0         0
         0         0         0         0         0         0         0         0
         0         0         0         0         0         0         0         0
         0         0         0         0         0         0         0         0
         0         0         0         0         0         0         0         0
         0         0         0         0         0         0         0         0
         0         0         0         0         0         0         0         0
         0         0         0         0         0         0         0         0
         0         0         0         0         0         0         0         0
         0         0         0         0         0         0         0         0
         0         0         0         0         0         0         0         0
         0         0         0         0         0         0         0         0
         0         0         0         0         0         0         0         0
         0         0         0         0         0         0         0         0
         0         0         0         0         0         0         0         0
         0         0         0         0         0         0         0         0
         0         0         0         0         0         0         0         0
         0         0         0         0         0         0         0         0
         0         0         0         0         0         0         0         0
         0         0         0         0         0         0         0         0
         0         0         0         0         0         0         0         0
         0         0         0         0         0         0         0         0
         0         0         0         0         0         0         0         0
         0         0         0         0         0         0         0         0
         0         0         0         0         0         0         0         0
         0         0         0         0         0         0         0         0
         0         0         0         0         0         0         0         0
         0         0         0         0         0         0         0         0
         0         0         0         0         0         0         0         0
         0         0         0         0         0         0         0         0
         0         0         0         0         0         0         0         0
         0         0         0         0         0         0         0         0
         0         0         0         0         0         0         0         0
         0         0         0         0         0         0         0         0
         0         0         0         0         0         0         0         0
         0         0         0         0         0         0         0         0
         0         0         0         0         0         0         0         0
         0         0         0         0         0         0         0         0
         0         0         0         0         0         0         0         0
         0         0         0         0         0         0         0         0
         0         0         0         0         0         0         0         0
         0         0         0         0         0         0         0         0
         0         0         0         0         0         0         0         0
         0         0         0         0         0         0         0         0
         0         0         0         0         0         0         0         0
         0         0         0         0         0         0         0         0
         0         0         0         0         0         0         0         0
         0         0         0         0         0         0         0         0
         0         0         0         0         0         0         0         0
         0         0         0         0         0         0         0         0
         0         0         0         0         0         0         0         0
         0         0         0         0         0         0         0         0
         0         0         0         0         0         0         0         0
         0         0         0         0         0         0         0         0
         0         0         0         0         0         0         0         0
         0         0         0         0         0         0         0         0
         0         0         0         0         0         0         0         0
         0         0         0         0         0         0         0         0
         0         0         0         0         0         0         0         0
         0         0         0         0         0         0         0         0
         0         0         0         0         0         0         0         0
         0         0         0         0         0         0         0         0
         0         0         0         0         0         0         0         0
         0         0         0         0         0         0         0         0
         0         0         0         0         0         0         0         0
         0         0         0         0         0         0         0         0
         0         0         0         0         0         0         0         0
         0         0         0         0         0         0         0         0
         0         0         0         0         0         0         0         0
         0         0         0         0         0         0         0         0
         0         0         0         0         0         0         0         0
         0         0         0         0         0         0         0         0
         0         0         0         0         0         0         0         0
         0         0         0         0         0         0         0         0
         0         0         0         0         0         0         0         0
         0         0         0         0         0         0         0         0
         0         0         0         0         0         0         0         0
         0         0         0         0         0         0         0         0
         0         0         0         0         0         0         0         0
         0         0         0         0         0         0         0         0
         0         0         0         0         0         0         0         0
         0         0         0         0         0         0         0         0
         0         0         0         0         0         0         0         0
         0         0         0         0         0         0         0         0
         0         0         0         0         0         0         0         0
         0         0         0         0         0         0         0         0
         0         0         0         0         0         0         0         0
         0         0         0         0         0         0         0         0
         0         0         0         0         0         0         0         0
         0         0         0         0         0         0         0         0
         0         0         0         0         0         0         0         0
         0         0         0         0         0         0         0         0
         0         0         0         0         0         0         0         0
         0         0         0         0         0         0         0         0
         0         0         0         0         0         0         0         0
         0         0         0         0         0         0         0         0
         0         0         0         0         0         0         0         0
         0         0         0         0         0         0         0         0
         0         0         0         0         0         0         0         0
         0         0         0         0         0         0         0         0
         0         0         0         0         0         0         0         0
         0         0         0         0         0         0         0         0
         0         0         0         0         0         0         0         0
         0         0         0         0         0         0         0         0
         0         0         0         0         0         0         0         0
         0         0         0         0         0         0         0         0
         0         0         0         0         0         0         0         0
         0         0         0         0         0         0         0         0
         0         0         0         0         0         0         0         0
         0         0         0         0         0         0         0         0
         0         0         0         0         0         0         0         0
         0         0         0         0         0         0         0         0
         0         0         0         0         0         0         0         0
         0         0         0         0         0         0         0         0
         0         0         0         0         0         0         0         0
         0         0         0         0         0         0         0         0
         0         0         0         0         0         0         0         0
         0         0         0         0         0         0         0         0
         0         0         0         0         0         0         0         0
         0         0         0         0         0         0         0         0
         0         0         0         0         0         0         0         0
         0         0         0         0         0         0         0         0
         0         0         0         0         0         0         0         0
         0         0         0         0         0         0         0         0
         0         0         0         0         0         0         0         0
         0         0         0         0         0         0         0         0
         0         0         0         0         0         0         0         0
         0         0         0         0         0         0         0         0
         0         0         0         0         0         0         0         0
         0         0         0         0         0         0         0         0
         0         0         0         0         0         0         0         0
         0         0         0         0         0         0         0         0
         0         0         0         0         0         0         0         0
         0         0         0         0         0         0         0         0
         0         0         0         0         0         0         0         0
         0         0         0         0         0         0         0         0
         0         0         0         0         0         0         0         0
         0         0         0         0         0         0         0         0
         0         0         0         0         0         0         0         0
         0         0         0         0         0         0         0         0
         0         0         0         0         0         0         0         0
         0         0         0         0         0         0         0         0
         0         0         0         0         0         0         0         0
         0         0         0         0         0         0         0         0
         0         0         0         0         0         0         0         0
         0         0         0         0         0         0         0         0
         0         0         0         0         0         0         0         0
         0         0         0         0         0         0         0         0
         0         0         0         0         0         0         0         0
         0         0         0         0         0         0         0         0
         0         0         0         0         0         0         0         0
         0         0         0         0         0         0         0         0
         0         0         0         0         0         0         0         0
         0         0         0         0         0         0         0         0
         0         0         0         0         0         0         0         0
         0         0         0         0         0         0         0         0
         0         0         0         0         0         0         0         0
         0         0         0         0         0         0         0         0
         0         0         0         0         0         0         0         0
         0         0         0         0         0         0         0         0
         0         0         0         0         0         0         0         0
         0         0         0         0         0         0         0         0
         0         0         0         0         0         0         0         0
         0         0         0         0         0         0         0         0
         0         0         0         0         0         0         0         0
         0         0         0         0         0         0         0         0
         0         0         0         0         0         0         0         0
         0         0         0         0         0         0         0         0
         0         0         0         0         0         0         0         0
         0         0         0         0         0         0         0         0
         0         0         0         0         0         0         0         0
         0         0         0         0         0         0         0         0
         0         0         0         0         0         0         0         0
         0         0         0         0         0         0         0         0
         0         0         0         0         0         0         0         0
         0         0         0         0         0         0         0         0
         0         0         0         0         0         0         0         0
         0         0         0         0         0         0         0         0
         0         0         0         0         0         0         0         0
         0         0         0         0         0         0         0         0
         0         0         0         0         0         0         0         0
         0         0         0         0         0         0         0         0
         0         0         0         0         0         0         0         0
         0         0         0         0         0         0         0         0
         0         0         0         0         0         0         0         0
         0         0         0         0         0         0         0         0
         0         0         0         0         0         0         0         0
         0         0         0         0         0         0         0         0
         0         0         0         0         0         0         0         0
         0         0         0         0         0         0         0         0
         0         0         0         0         0         0         0         0
         0         0         0         0         0         0         0         0
         0         0         0         0         0         0         0         0
         0         0         0         0         0         0         0         0
         0         0         0         0         0         0         0         0
         0         0         0         0         0         0         0         0
         0         0         0         0         0         0         0         0
         0         0         0         0         0         0         0         0
         0         0         0         0         0         0         0         0
         0         0         0         0         0         0         0         0
         0         0         0         0         0         0         0         0
         0         0         0         0         0         0         0         0
         0         0         0         0         0         0         0         0
         0         0         0         0         0         0         0         0
         0         0         0         0         0         0         0         0
         0         0         0         0         0         0         0         0
         0         0         0         0         0         0         0         0
         0         0         0         0         0         0         0         0
         0         0         0         0         0         0         0         0
         0         0         0         0         0         0         0         0
         0         0         0         0         0         0         0         0
         0         0         0         0         0         0         0         0
         0         0         0         0         0         0         0         0
         0         0         0         0         0         0         0         0
         0         0         0         0         0         0         0         0
         0         0         0         0         0         0         0         0
         0         0         0         0         0         0         0         0
         0         0         0         0         0         0         0         0
         0         0         0         0         0         0         0         0
         0         0         0         0         0         0         0         0
         0         0         0         0         0         0         0         0
         0         0         0         0         0         0         0         0
         0         0         0         0         0         0         0         0
         0         0         0         0         0         0         0         0
         0         0         0         0         0         0         0         0
         0         0         0         0         0         0         0         0
         0         0         0         0         0         0         0         0
         0         0         0         0         0         0         0         0
         0         0         0         0         0         0         0         0
         0         0         0         0         0         0         0         0
         0         0         0         0         0         0         0         0
         0         0         0         0         0         0         0         0
         0         0         0         0         0         0         0         0
         0         0         0         0         0         0         0         0
         0         0         0         0         0         0         0         0
         0         0         0         0         0         0         0         0
         0         0         0         0         0         0         0         0
         0         0         0         0         0         0         0         0
         0         0         0         0         0         0         0         0
         0         0         0         0         0         0         0         0
         0         0         0         0         0         0         0         0
         0         0         0         0         0         0         0         0
         0         0         0         0         0         0         0         0
         0         0         0         0         0         0         0         0
         0         0         0         0         0         0         0         0
         0         0         0         0         0         0         0         0
         0         0         0         0         0         0         0         0
         0         0         0         0         0         0         0         0
         0         0         0         0         0         0         0         0
         0         0         0         0         0         0         0         0
         0         0         0         0         0         0         0         0
         0         0         0         0         0         0         0         0
         0         0         0         0         0         0         0         0
         0         0         0         0         0         0         0         0
         0         0         0         0         0         0         0         0
         0         0         0         0         0         0         0         0
         0         0         0         0         0         0         0         0
         0         0         0         0         0         0         0         0
         0         0         0         0         0         0         0         0
         0         0         0         0         0         0         0         0
         0         0         0         0         0         0         0         0
         0         0         0         0         0         0         0         0
         0         0         0         0         0         0         0         0
         0         0         0         0         0         0         0         0
         0         0         0         0         0         0         0         0
         0         0         0         0         0         0         0         0
         0         0         0         0         0         0         0         0
         0         0         0         0         0         0         0         0
         0         0         0         0         0         0         0         0
         0         0         0         0         0         0         0         0
         0         0         0         0         0         0         0         0
         0         0         0         0         0         0         0         0
         0         0         0         0         0         0         0         0
         0         0         0         0         0         0         0         0
         0         0         0         0         0         0         0         0
         0         0         0         0         0         0         0         0
         0         0         0         0         0         0         0         0
         0         0         0         0         0         0         0         0
         0         0         0         0         0         0         0         0
         0         0         0         0         0         0         0         0
         0         0         0         0         0         0         0         0
         0         0         0         0         0         0         0         0
         0         0         0         0         0         0         0         0
         0         0         0         0         0         0         0         0
         0         0         0         0         0         0         0         0
         0         0         0         0         0         0         0         0
         0         0         0         0         0         0         0         0
         0         0         0         0         0         0         0         0
         0         0         0         0         0         0         0         0
         0         0         0         0         0         0         0         0
         0         0         0         0         0         0         0         0
         0         0         0         0         0         0         0         0
         0         0         0         0         0         0         0         0
         0         0         0         0         0         0         0         0
         0         0         0         0         0         0         0         0
         0         0         0         0         0         0         0         0
         0         0         0         0         0         0         0         0
         0         0         0         0         0         0         0         0
         0         0         0         0         0         0         0         0
         0         0         0         0         0         0         0         0
         0         0         0         0         0         0         0         0
         0         0         0         0         0         0         0         0
         0         0         0         0         0         0         0         0
         0         0         0         0         0         0         0         0
         0         0         0         0         0         0         0         0
         0         0         0         0         0         0         0         0
         0         0         0         0         0         0         0         0
         0         0         0         0         0         0         0         0
         0         0         0         0         0         0         0         0
         0         0         0         0         0         0         0         0
         0         0         0         0         0         0         0         0
         0         0         0         0         0         0         0         0
         0         0         0         0         0         0         0         0
         0         0         0         0         0         0         0         0
         0         0         0         0         0         0         0         0
         0         0         0         0         0         0         0         0
         0         0         0         0         0         0         0         0
         0         0         0         0         0         0         0         0
         0         0         0         0         0         0         0         0
         0         0         0         0         0         0         0         0
         0         0         0         0         0         0         0         0
         0         0         0         0         0         0         0         0
         0         0         0         0         0         0         0         0
         0         0         0         0         0         0         0         0
         0         0         0         0         0         0         0         0
         0         0         0         0         0         0         0         0
         0         0         0         0         0         0         0         0
         0         0         0         0         0         0         0         0
         0         0         0         0         0         0         0         0
         0         0         0         0         0         0         0         0
         0         0         0         0         0         0         0         0
         0         0         0         0         0         0         0         0
         0         0         0         0         0         0         0         0
         0         0         0         0         0         0         0         0
         0         0         0         0         0         0         0         0
         0         0         0         0         0         0         0         0
         0         0         0         0         0         0         0         0
         0         0         0         0         0         0         0         0
         0         0         0         0         0         0         0         0
         0         0         0         0         0         0         0         0
         0         0         0         0         0         0         0         0
         0         0         0         0         0         0         0         0
         0         0         0         0         0         0         0         0
         0         0         0         0         0         0         0         0
         0         0         0         0         0         0         0         0
         0         0         0         0         0         0         0         0
         0         0         0         0         0         0         0         0
         0         0         0         0         0         0         0         0
         0         0         0         0         0         0         0         0
         0         0         0         0         0         0         0         0
         0         0         0         0         0         0         0         0
         0         0         0         0         0         0         0         0
         0         0         0         0         0         0         0         0
         0         0         0         0         0         0         0         0
         0         0         0         0         0         0         0         0
         0         0         0         0         0         0         0         0
         0         0         0         0         0         0         0         0
         0         0         0         0         0         0         0         0
         0         0         0         0         0         0         0         0
         0         0         0         0         0         0         0         0
         0         0         0         0         0         0         0         0
         0         0         0         0         0         0         0         0
         0         0         0         0         0         0         0         0
         0         0         0         0         0         0         0         0
         0         0         0         0         0         0         0         0
         0         0         0         0         0         0         0         0
         0         0         0         0         0         0         0         0
         0         0         0         0         0         0         0         0
         0         0         0         0         0         0         0         0
         0         0         0         0         0         0         0         0
         0         0         0         0         0         0         0         0
         0         0         0         0         0         0         0         0
         0         0         0         0         0         0         0         0
         0         0         0         0         0         0         0         0
         0         0         0         0         0         0         0         0
         0         0         0         0         0         0         0         0
         0         0         0         0         0         0         0         0
         0         0         0         0         0         0         0         0
         0         0         0         0         0         0         0         0
         0         0         0         0         0         0         0         0
         0         0         0         0         0         0         0         0
         0         0         0         0         0         0         0         0
         0         0         0         0         0         0         0         0
         0         0         0         0         0         0         0         0
         0         0         0         0         0         0         0         0
         0         0         0         0         0         0         0         0
         0         0         0         0         0         0         0         0
         0         0         0         0         0         0         0         0
         0         0         0         0         0         0         0         0
         0         0         0         0         0         0         0         0
         0         0         0         0         0         0         0         0
         0         0         0         0         0         0         0         0
         0         0         0         0         0         0         0         0
         0         0         0         0         0         0         0         0
         0         0         0         0         0         0         0         0
         0         0         0         0         0         0         0         0
         0         0         0         0         0         0         0         0
         0         0         0         0         0         0         0         0
         0         0         0         0         0         0         0         0
         0         0         0         0         0         0         0         0
         0         0         0         0         0         0         0         0
         0         0         0         0         0         0         0         0
         0         0         0         0         0         0         0         0
         0         0         0         0         0         0         0         0
         0         0         0         0         0         0         0         0
         0         0         0         0         0         0         0         0
         0         0         0         0         0         0         0         0
         0         0         0         0         0         0         0         0
         0         0         0         0         0         0         0         0
         0         0         0         0         0         0         0         0
         0         0         0         0         0         0         0         0
         0         0         0         0         0         0         0         0
         0         0         0         0         0         0         0         0
         0         0         0         0         0         0         0         0
         0         0         0         0         0         0         0         0
         0         0         0         0         0         0         0         0
         0         0         0         0         0         0         0         0
         0         0         0         0         0         0         0         0
         0         0         0         0         0         0         0         0
         0         0         0         0         0         0         0         0
         0         0         0         0         0         0         0         0
         0         0         0         0         0         0         0         0
         0         0         0         0         0         0         0         0
         0         0         0         0         0         0         0         0
         0         0         0         0         0         0         0         0
         0         0         0         0         0         0         0         0
         0         0         0         0         0         0         0         0
         0         0         0         0         0         0         0         0
         0         0         0         0         0         0         0         0
         0         0         0         0         0         0         0         0
         0         0         0         0         0         0         0         0
         0         0         0         0         0         0         0         0
         0         0         0         0         0         0         0         0
         0         0         0         0         0         0         0         0
         0         0         0         0         0         0         0         0
         0         0         0         0         0         0         0         0
         0         0         0         0         0         0         0         0
         0         0         0         0         0         0         0         0
         0         0         0         0         0         0         0         0
         0         0         0         0         0         0         0         0
         0         0         0         0         0         0         0         0
         0         0         0         0         0         0         0         0
         0         0         0         0         0         0         0         0
         0         0         0         0         0         0         0         0
         0         0         0         0         0         0         0         0
         0         0         0         0         0         0         0         0
         0         0         0         0         0         0         0         0
         0         0         0         0         0         0         0         0
         0         0         0         0         0         0         0         0
         0         0         0         0         0         0         0         0
         0         0         0         0         0         0         0         0
         0         0         0         0         0         0         0         0
         0         0         0         0         0         0         0         0
         0         0         0         0         0         0         0         0
         0         0         0         0         0         0         0         0
         0         0         0         0         0         0         0         0
         0         0         0         0         0         0         0         0
         0         0         0         0         0         0         0         0
         0         0         0         0         0         0         0         0
         0         0         0         0         0         0         0         0
         0         0         0         0         0         0         0         0
         0         0         0         0         0         0         0         0
         0         0         0         0         0         0         0         0
         0         0         0         0         0         0         0         0
         0         0         0         0         0         0         0         0
         0         0         0         0         0         0         0         0
         0         0         0         0         0         0         0         0
         0         0         0         0         0         0         0         0
         0         0         0         0         0         0         0         0
         0         0         0         0         0         0         0         0
         0         0         0         0         0         0         0         0
         0         0         0         0         0         0         0         0
         0         0         0         0         0         0         0         0
         0         0         0         0         0         0         0         0
         0         0         0         0         0         0         0         0
         0         0         0         0         0         0         0         0
         0         0         0         0         0         0         0         0
         0         0         0         0         0         0         0         0
         0         0         0         0         0         0         0         0
         0         0         0         0         0         0         0         0
         0         0         0         0         0         0         0         0
         0         0         0         0         0         0         0         0
         0         0         0         0         0         0         0         0
         0         0         0         0         0         0         0         0
         0         0         0         0         0         0         0         0
         0         0         0         0         0         0         0         0
         0         0         0         0         0         0         0         0
         0         0         0         0         0         0         0         0
         0         0         0         0         0         0         0         0
         0         0         0         0         0         0         0         0
         0         0         0         0         0         0         0         0
         0         0         0         0         0         0         0         0
         0         0         0         0         0         0         0         0
         0         0         0         0         0         0         0         0
         0         0         0         0         0         0         0         0
         0         0         0         0         0         0         0         0
         0         0         0         0         0         0         0         0
         0         0         0         0         0         0         0         0
         0         0         0         0         0         0         0         0
         0         0         0         0         0         0         0         0
         0         0         0         0         0         0         0         0
         0         0         0         0         0         0         0         0
         0         0         0         0         0         0         0         0
         0         0         0         0         0         0         0         0
         0         0         0         0         0         0         0         0
         0         0         0         0         0         0         0         0
         0         0         0         0         0         0         0         0
         0         0         0         0         0         0         0         0
         0         0         0         0         0         0         0         0
         0         0         0         0         0         0         0         0
         0         0         0         0         0         0         0         0
         0         0         0         0         0         0         0         0
         0         0         0         0         0         0         0         0
         0         0         0         0         0         0         0         0
         0         0         0         0         0         0         0         0
         0         0         0         0         0         0         0         0
         0         0         0         0         0         0         0         0
         0         0         0         0         0         0         0         0
         0         0         0         0         0         0         0         0
         0         0         0         0         0         0         0         0
         0         0         0         0         0         0         0         0
         0         0         0         0         0         0         0         0
         0         0         0         0         0         0         0         0
         0         0         0         0         0         0         0         0
         0         0         0         0         0         0         0         0
         0         0         0         0         0         0         0         0
         0         0         0         0         0         0         0         0
         0         0         0         0         0         0         0         0
         0         0         0         0         0         0         0         0
         0         0         0         0         0         0         0         0
         0         0         0         0         0         0         0         0
         0         0         0         0         0         0         0         0
         0         0         0         0         0         0         0         0
         0         0         0         0         0         0         0         0
         0         0         0         0         0         0         0         0
         0         0         0         0         0         0         0         0
         0         0         0         0         0         0         0         0
         0         0         0         0         0         0         0         0
         0         0         0         0         0         0         0         0
         0         0         0         0         0         0         0         0
         0         0         0         0         0         0         0         0
         0         0         0         0         0         0         0         0
         0         0         0         0         0         0         0         0
         0         0         0         0         0         0         0         0
         0         0         0         0         0         0         0         0
         0         0         0         0         0         0         0         0
         0         0         0         0         0         0         0         0
         0         0         0         0         0         0         0         0
         0         0         0         0         0         0         0         0
         0         0         0         0         0         0         0         0
         0         0         0         0         0         0         0         0
         0         0         0         0         0         0         0         0
         0         0         0         0         0         0         0         0
         0         0         0         0         0         0         0         0
         0         0         0         0         0         0         0         0
         0         0         0         0         0         0         0         0
         0         0         0         0         0         0         0         0
         0         0         0         0         0         0         0         0
         0         0         0         0         0         0         0         0
         0         0         0         0         0         0         0         0
         0         0         0         0         0         0         0         0
         0         0         0         0         0         0         0         0
         0         0         0         0         0         0         0         0
         0         0         0         0         0         0         0         0
         0         0         0         0         0         0         0         0
         0         0         0         0         0         0         0         0
         0         0         0         0         0         0         0         0
         0         0         0         0         0         0         0         0
         0         0         0         0         0         0         0         0
         0         0         0         0         0         0         0         0
         0         0         0         0         0         0         0         0
         0         0         0         0         0         0         0         0
         0         0         0         0         0         0         0         0
         0         0         0         0         0         0         0         0
         0         0         0         0         0         0         0         0
         0         0         0         0         0         0         0         0
         0         0         0         0         0         0         0         0
         0         0         0         0         0         0         0         0
         0         0         0         0         0         0         0         0
         0         0         0         0         0         0         0         0
         0         0         0         0         0         0         0         0
         0         0         0         0         0         0         0         0
         0         0         0         0         0         0         0         0
         0         0         0         0         0         0         0         0
         0         0         0         0         0         0         0         0
         0         0         0         0         0         0         0         0
         0         0         0         0         0         0         0         0
         0         0         0         0         0         0         0         0
         0         0         0         0         0         0         0         0
         0         0         0         0         0         0         0         0
         0         0         0         0         0         0         0         0
         0         0         0         0         0         0         0         0
         0         0         0         0         0         0         0         0
         0         0         0         0         0         0         0         0
         0         0         0         0         0         0         0         0
         0         0         0         0         0         0         0         0
         0         0         0         0         0         0         0         0
         0         0         0         0         0         0         0         0
         0         0         0         0         0         0         0         0
         0         0         0         0         0         0         0         0
         0         0         0         0         0         0         0         0
         0         0         0         0         0         0         0         0
         0         0         0         0         0         0         0         0
         0         0         0         0         0         0         0         0
         0         0         0         0         0         0         0         0
         0         0         0         0         0         0         0         0
         0         0         0         0         0         0         0         0
         0         0         0         0         0         0         0         0
         0         0         0         0         0         0         0         0
         0         0         0         0         0         0         0         0
         0         0         0         0         0         0         0         0
         0         0         0         0         0         0         0         0
         0         0         0         0         0         0         0         0
         0         0         0         0         0         0         0         0
         0         0         0         0         0         0         0         0
         0         0         0         0         0         0         0         0
         0         0         0         0         0         0         0         0
         0         0         0         0         0         0         0         0
         0         0         0         0         0         0         0         0
         0         0         0         0         0         0         0         0
         0         0         0         0         0         0         0         0
         0         0         0         0         0         0         0         0
         0         0         0         0         0         0         0         0
         0         0         0         0         0         0         0         0
         0         0         0         0         0         0         0         0
         0         0         0         0         0         0         0         0
         0         0         0         0         0         0         0         0
         0         0         0         0         0         0         0         0
         0         0         0         0         0         0         0         0
         0         0         0         0         0         0         0         0
         0         0         0         0         0         0         0         0
         0         0         0         0         0         0         0         0
         0         0         0         0         0         0         0         0
         0         0         0         0         0         0         0         0
         0         0         0         0         0         0         0         0
         0         0         0         0         0         0         0         0
         0         0         0         0         0         0         0         0
         0         0         0         0         0         0         0         0
         0         0         0         0         0         0         0         0
         0         0         0         0         0         0         0         0
         0         0         0         0         0         0         0         0
         0         0         0         0         0         0         0         0
         0         0         0         0         0         0         0         0
         0         0         0         0         0         0         0         0
         0         0         0         0         0         0         0         0
         0         0         0         0         0         0         0         0
         0         0         0         0         0         0         0         0
         0         0         0         0         0         0         0         0
         0         0         0         0         0         0         0         0
         0         0         0         0         0         0         0         0
         0         0         0         0         0         0         0         0
         0         0         0         0         0         0         0         0
         0         0         0         0         0         0         0         0
         0         0         0         0         0         0         0         0
         0         0         0         0         0         0         0         0
         0         0         0         0         0         0         0         0
         0         0         0         0         0         0         0         0
         0         0         0         0         0         0         0         0
         0         0         0         0         0         0         0         0
         0         0         0         0         0         0         0         0
         0         0         0         0         0         0         0         0
         0         0         0         0         0         0         0         0
         0         0         0         0         0         0         0         0
         0         0         0         0         0         0         0         0
         0         0         0         0         0         0         0         0
         0         0         0         0         0         0         0         0
         0         0         0         0         0         0         0         0
         0         0         0         0         0         0         0         0
         0         0         0         0         0         0         0         0
         0         0         0         0         0         0         0         0
         0         0         0         0         0         0         0         0
         0         0         0         0         0         0         0         0
         0         0         0         0         0         0         0         0
         0         0         0         0         0         0         0         0
         0         0         0         0         0         0         0         0
         0         0         0         0         0         0         0         0
         0         0         0         0         0         0         0         0
         0         0         0         0         0         0         0         0
         0         0         0         0         0         0         0         0
         0         0         0         0         0         0         0         0
         0         0         0         0         0         0         0         0
         0         0         0         0         0         0         0         0
         0         0         0         0         0         0         0         0
         0         0         0         0         0         0         0         0
         0         0         0         0         0         0         0         0
         0         0         0         0         0         0         0         0
         0         0         0         0         0         0         0         0
         0         0         0         0         0         0         0         0
         0         0         0         0         0         0         0         0
         0         0         0         0         0         0         0         0
         0         0         0         0         0         0         0         0
         0         0         0         0         0         0         0         0
         0         0         0         0         0         0         0         0
         0         0         0         0         0         0         0         0
         0         0         0         0         0         0         0         0
         0         0         0         0         0         0         0         0
         0         0         0         0         0         0         0         0
         0         0         0         0         0         0         0         0
         0         0         0         0         0         0         0         0
         0         0         0         0         0         0         0         0
         0         0         0         0         0         0         0         0
         0         0         0         0         0         0         0         0
         0         0         0         0         0         0         0         0
         0         0         0         0         0         0         0         0
         0         0         0         0         0         0         0         0
         0         0         0         0         0         0         0         0
         0         0         0         0         0         0         0         0
         0         0         0         0         0         0         0         0
         0         0         0         0         0         0         0         0
         0         0         0         0         0         0         0         0
         0         0         0         0         0         0         0         0
         0         0         0         0         0         0         0         0
         0         0         0         0         0         0         0         0
         0         0         0         0         0         0         0         0
         0         0         0         0         0         0         0         0
         0         0         0         0         0         0         0         0
         0         0         0         0         0         0         0         0
         0         0         0         0         0         0         0         0
         0         0         0         0         0         0         0         0
         0         0         0         0         0         0         0         0
         0         0         0         0         0         0         0         0
         0         0         0         0         0         0         0         0
         0         0         0         0         0         0         0         0
         0         0         0         0         0         0         0         0
         0         0         0         0         0         0         0         0
         0         0         0         0         0         0         0         0
         0         0         0         0         0         0         0         0
         0         0         0         0         0         0         0         0
         0         0         0         0         0         0         0         0
         0         0         0         0         0         0         0         0
         0         0         0         0         0         0         0         0
         0         0         0         0         0         0         0         0
         0         0         0         0         0         0         0         0
         0         0         0         0         0         0         0         0
         0         0         0         0         0         0         0         0
         0         0         0         0         0         0         0         0
         0         0         0         0         0         0         0         0
         0         0         0         0         0         0         0         0
         0         0         0         0         0         0         0         0
         0         0         0         0         0         0         0         0
         0         0         0         0         0         0         0         0
         0         0         0         0         0         0         0         0
         0         0         0         0         0         0         0         0
         0         0         0         0         0         0         0         0
         0         0         0         0         0         0         0         0
         0         0         0         0         0         0         0         0
         0         0         0         0         0         0         0         0
         0         0         0         0         0         0         0         0
         0         0         0         0         0         0         0         0
         0         0         0         0         0         0         0         0
         0         0         0         0         0         0         0         0
         0         0         0         0         0         0         0         0
         0         0         0         0         0         0         0         0
         0         0         0         0         0         0         0         0
         0         0         0         0         0         0         0         0
         0         0         0         0         0         0         0         0
         0         0         0         0         0         0         0         0
         0         0         0         0         0         0         0         0
         0         0         0         0         0         0         0         0
         0         0         0         0         0         0         0         0
         0         0         0         0         0         0         0         0
         0         0         0         0         0         0         0         0
         0         0         0         0         0         0         0         0
         0         0         0         0         0         0         0         0
         0         0         0         0         0         0         0         0
         0         0         0         0         0         0         0         0
         0         0         0         0         0         0         0         0
         0         0         0         0         0         0         0         0
         0         0         0         0         0         0         0         0
         0         0         0         0         0         0         0         0
         0         0         0         0         0         0         0         0
         0         0         0         0         0         0         0         0
         0         0         0         0         0         0         0         0
         0         0         0         0         0         0         0         0
         0         0         0         0         0         0         0         0
         0         0         0         0         0         0         0         0
         0         0         0         0         0         0         0         0
         0         0         0         0         0         0         0         0
         0         0         0         0         0         0         0         0
         0         0         0         0         0         0         0         0
         0         0         0         0         0         0         0         0
         0         0         0         0         0         0         0         0
         0         0         0         0         0         0         0         0
         0         0         0         0         0         0         0         0
         0         0         0         0         0         0         0         0
         0         0         0         0         0         0         0         0
         0         0         0         0         0         0         0         0
         0         0         0         0         0         0         0         0
         0         0         0         0         0         0         0         0
         0         0         0         0         0         0         0         0
         0         0         0         0         0         0         0         0
         0         0         0         0         0         0         0         0
         0         0         0         0         0         0         0         0
         0         0         0         0         0         0         0         0
         0         0         0         0         0         0         0         0
         0         0         0         0         0         0         0         0
         0         0         0         0         0         0         0         0
         0         0         0         0         0         0         0         0
         0         0         0         0         0         0         0         0
         0         0         0         0         0         0         0         0
         0         0         0         0         0         0         0         0
         0         0         0         0         0         0         0         0
         0         0         0         0         0         0         0         0
         0         0         0         0         0         0         0         0
         0         0         0         0         0         0         0         0
         0         0         0         0         0         0         0         0
         0         0         0         0         0         0         0         0
         0         0         0         0         0         0         0         0
         0         0         0         0         0         0         0         0
         0         0         0         0         0         0         0         0
         0         0         0         0         0         0         0         0
         0         0         0         0         0         0         0         0
         0         0         0         0         0         0         0         0
         0         0         0         0         0         0         0         0
         0         0         0         0         0         0         0         0
         0         0         0         0         0         0         0         0
         0         0         0         0         0         0         0         0
         0         0         0         0         0         0         0         0
         0         0         0         0         0         0         0         0
         0         0         0         0         0         0         0         0
         0         0         0         0         0         0         0         0
         0         0         0         0         0         0         0         0
         0         0         0         0         0         0         0         0
         0         0         0         0         0         0         0         0
         0         0         0         0         0         0         0         0
         0         0         0         0         0         0         0         0
         0         0         0         0         0         0         0         0
         0         0         0         0         0         0         0         0
         0         0         0         0         0         0         0         0
         0         0         0         0         0         0         0         0
         0         0         0         0         0         0         0         0
         0         0         0         0         0         0         0         0
         0         0         0         0         0         0         0         0
         0         0         0         0         0         0         0         0
         0         0         0         0         0         0         0         0
         0         0         0         0         0         0         0         0
         0         0         0         0         0         0         0         0
         0         0         0         0         0         0         0         0
         0         0         0         0         0         0         0         0
         0         0         0         0         0         0         0         0
         0         0         0         0         0         0         0         0
         0         0         0         0         0         0         0         0
         0         0         0         0         0         0         0         0
         0         0         0         0         0         0         0         0
         0         0         0         0         0         0         0         0
         0         0         0         0         0         0         0         0
         0         0         0         0         0         0         0         0
         0         0         0         0         0         0         0         0
         0         0         0         0         0         0         0         0
         0         0         0         0         0         0         0         0
         0         0         0         0         0         0         0         0
         0         0         0         0         0         0         0         0
         0         0         0         0         0         0         0         0
         0         0         0         0         0         0         0         0
         0         0         0         0         0         0         0         0
         0         0         0         0         0         0         0         0
         0         0         0         0         0         0         0         0
         0         0         0         0         0         0         0         0
         0         0         0         0         0         0         0         0
         0         0         0         0         0         0         0         0
         0         0         0         0         0         0         0         0
         0         0         0         0         0         0         0         0
         0         0         0         0         0         0         0         0
         0         0         0         0         0         0         0         0
         0         0         0         0         0         0         0         0
         0         0         0         0         0         0         0         0
         0         0         0         0         0         0         0         0
         0         0         0         0         0         0         0         0
         0         0         0         0         0         0         0         0
         0         0         0         0         0         0         0         0
         0         0         0         0         0         0         0         0
         0         0         0         0         0         0         0         0
         0         0         0         0         0         0         0         0
         0         0         0         0         0         0         0         0
         0         0         0         0         0         0         0         0
         0         0         0         0         0         0         0         0
         0         0         0         0         0         0         0         0
         0         0         0         0         0         0         0         0
         0         0         0         0         0         0         0         0
         0         0         0         0         0         0         0         0
         0         0         0         0         0         0         0         0
         0         0         0         0         0         0         0         0
         0         0         0         0         0         0         0         0
         0         0         0         0         0         0         0         0
         0         0         0         0         0         0         0         0
         0         0         0         0         0         0         0         0
         0         0         0         0         0         0         0         0
         0         0         0         0         0         0         0         0
         0         0         0         0         0         0         0         0
         0         0         0         0         0         0         0         0
         0         0         0         0         0         0         0         0
         0         0         0         0         0         0         0         0
         0         0         0         0         0         0         0         0
         0         0         0         0         0         0         0         0
         0         0         0         0         0         0         0         0
         0         0         0         0         0         0         0         0
         0         0         0         0         0         0         0         0
         0         0         0         0         0         0         0         0
         0         0         0         0         0         0         0         0
         0         0         0         0         0         0         0         0
         0         0         0         0         0         0         0         0
         0         0         0         0         0         0         0         0
         0         0         0         0         0         0         0         0
         0         0         0         0         0         0         0         0
         0         0         0         0         0         0         0         0
         0         0         0         0         0         0         0         0
         0         0         0         0         0         0         0         0
         0         0         0         0         0         0         0         0
         0         0         0         0         0         0         0         0
         0         0         0         0         0         0         0         0
         0         0         0         0         0         0         0         0
         0         0         0         0         0         0         0         0
         0         0         0         0         0         0         0         0
         0         0         0         0         0         0         0         0
         0         0         0         0         0         0         0         0
         0         0         0         0         0         0         0         0
         0         0         0         0         0         0         0         0
         0         0         0         0         0         0         0         0
         0         0         0         0         0         0         0         0
         0         0         0         0         0         0         0         0
         0         0         0         0         0         0         0         0
         0         0         0         0         0         0         0         0
         0         0         0         0         0         0         0         0
         0         0         0         0         0         0         0         0
         0         0         0         0         0         0         0         0
         0         0         0         0         0         0         0         0
         0         0         0         0         0         0         0         0
         0         0         0         0         0         0         0         0
         0         0         0         0         0         0         0         0
         0         0         0         0         0         0         0         0
         0         0         0         0         0         0         0         0
         0         0         0         0         0         0         0         0
         0         0         0         0         0         0         0         0
         0         0         0         0         0         0         0         0
         0         0         0         0         0         0         0         0
         0         0         0         0         0         0         0         0
         0         0         0         0         0         0         0         0
         0         0         0         0         0         0         0         0
         0         0         0         0         0         0         0         0
         0         0         0         0         0         0         0         0
         0         0         0         0         0         0         0         0
         0         0         0         0         0         0         0         0
         0         0         0         0         0         0         0         0
         0         0         0         0         0         0         0         0
         0         0         0         0         0         0         0         0
         0         0         0         0         0         0         0         0
         0         0         0         0         0         0         0         0
         0         0         0         0         0         0         0         0
         0         0         0         0         0         0         0         0
         0         0         0         0         0         0         0         0
         0         0         0         0         0         0         0         0
         0         0         0         0         0         0         0         0
         0         0         0         0         0         0         0         0
         0         0         0         0         0         0         0         0
         0         0         0         0         0         0         0         0
         0         0         0         0         0         0         0         0
         0         0         0         0         0         0         0         0
         0         0         0         0         0         0         0         0
         0         0         0         0         0         0         0         0
         0         0         0         0         0         0         0         0
         0         0         0         0         0         0         0         0
         0         0         0         0         0         0         0         0
         0         0         0         0         0         0         0         0
         0         0         0         0         0         0         0         0
         0         0         0         0         0         0         0         0
         0         0         0         0         0         0         0         0
         0         0         0         0         0         0         0         0
         0         0         0         0         0         0         0         0
         0         0         0         0         0         0         0         0
         0         0         0         0         0         0         0         0
         0         0         0         0         0         0         0         0
         0         0         0         0         0         0         0         0
         0         0         0         0         0         0         0         0
         0         0         0         0         0         0         0         0
         0         0         0         0         0         0         0         0
         0         0         0         0         0         0         0         0
         0         0         0         0         0         0         0         0
         0         0         0         0         0         0         0         0
         0         0         0         0         0         0         0         0
         0         0         0         0         0         0         0         0
         0         0         0         0         0         0         0         0
         0         0         0         0         0         0         0         0
         0         0         0         0         0         0         0         0
         0         0         0         0         0         0         0         0
         0         0         0         0         0         0         0         0
         0         0         0         0         0         0         0         0
         0         0         0         0         0         0         0         0
         0         0         0         0         0         0         0         0
         0         0         0         0         0         0         0         0
         0         0         0         0         0         0         0         0
         0         0         0         0         0         0         0         0
         0         0         0         0         0         0         0         0
         0         0         0         0         0         0         0         0
         0         0         0         0         0         0         0         0
         0         0         0         0         0         0         0         0
         0         0         0         0         0         0         0         0
         0         0         0         0         0         0         0         0
         0         0         0         0         0         0         0         0
         0         0         0         0         0         0         0         0
         0         0         0         0         0         0         0         0
         0         0         0         0         0         0         0         0
         0         0         0         0         0         0         0         0
         0         0         0         0         0         0         0         0
         0         0         0         0         0         0         0         0
         0         0         0         0         0         0         0         0
         0         0         0         0         0         0         0         0
         0         0         0         0         0         0         0         0
         0         0         0         0         0         0         0         0
         0         0         0         0         0         0         0         0
         0         0         0         0         0         0         0         0
         0         0         0         0         0         0         0         0
         0         0         0         0         0         0         0         0
         0         0         0         0         0         0         0         0
         0         0         0         0         0         0         0         0
         0         0         0         0         0         0         0         0
         0         0         0         0         0         0         0         0
         0         0         0         0         0         0         0         0
         0         0         0         0         0         0         0         0
         0         0         0         0         0         0         0         0
         0         0         0         0         0         0         0         0
         0         0         0         0         0         0         0         0
         0         0         0         0         0         0         0         0
         0         0         0         0         0         0         0         0
         0         0         0         0         0         0         0         0
         0         0         0         0         0         0         0         0
         0         0         0         0         0         0         0         0
         0         0         0         0         0         0         0         0
         0         0         0         0         0         0         0         0
         0         0         0         0         0         0         0         0
         0         0         0         0         0         0         0         0
         0         0         0         0         0         0         0         0
         0         0         0         0         0         0         0         0
         0         0         0         0         0         0         0         0
         0         0         0         0         0         0         0         0
         0         0         0         0         0         0         0         0
         0         0         0         0         0         0         0         0
         0         0         0         0         0         0         0         0
         0         0         0         0         0         0         0         0
         0         0         0         0         0         0         0         0
         0         0         0         0         0         0         0         0
         0         0         0         0         0         0         0         0
         0         0         0         0         0         0         0         0
         0         0         0         0         0         0         0         0
         0         0         0         0         0         0         0         0
         0         0         0         0         0         0         0         0
         0         0         0         0         0         0         0         0
         0         0         0         0         0         0         0         0
         0         0         0         0         0         0         0         0
         0         0         0         0         0         0         0         0
         0         0         0         0         0         0         0         0
         0         0         0         0         0         0         0         0
         0         0         0         0         0         0         0         0
         0         0         0         0         0         0         0         0
         0         0         0         0         0         0         0         0
         0         0         0         0         0         0         0         0
         0         0         0         0         0         0         0         0
         0         0         0         0         0         0         0         0
         0         0         0         0         0         0         0         0
         0         0         0         0         0         0         0         0
         0         0         0         0         0         0         0         0
         0         0         0         0         0         0         0         0
         0         0         0         0         0         0         0         0
         0         0         0         0         0         0         0         0
         0         0         0         0         0         0         0         0
         0         0         0         0         0         0         0         0
         0         0         0         0         0         0         0         0
         0         0         0         0         0         0         0         0
         0         0         0         0         0         0         0         0
         0         0         0         0         0         0         0         0
         0         0         0         0         0         0         0         0
         0         0         0         0         0         0         0         0
         0         0         0         0         0         0         0         0
         0         0         0         0         0         0         0         0
         0         0         0         0         0         0         0         0
         0         0         0         0         0         0         0         0
         0         0         0         0         0         0         0         0
         0         0         0         0         0         0         0         0
         0         0         0         0         0         0         0         0
         0         0         0         0         0         0         0         0
         0         0         0         0         0         0         0         0
         0         0         0         0         0         0         0         0
         0         0         0         0         0         0         0         0
         0         0         0         0         0         0         0         0
         0         0         0         0         0         0         0         0
         0         0         0         0         0         0         0         0
         0         0         0         0         0         0         0         0
         0         0         0         0         0         0         0         0
         0         0         0         0         0         0         0         0
         0         0         0         0         0         0         0         0
         0         0         0         0         0         0         0         0
         0         0         0         0         0         0         0         0
         0         0         0         0         0         0         0         0
         0         0         0         0         0         0         0         0
         0         0         0         0         0         0         0         0
         0         0         0         0         0         0         0         0
         0         0         0         0         0         0         0         0
         0         0         0         0         0         0         0         0
         0         0         0         0         0         0         0         0
         0         0         0         0         0         0         0         0
         0         0         0         0         0         0         0         0
         0         0         0         0         0         0         0         0
         0         0         0         0         0         0         0         0
         0         0         0         0         0         0         0         0
         0         0         0         0         0         0         0         0
         0         0         0         0         0         0         0         0
         0         0         0         0         0         0         0         0
         0         0         0         0         0         0         0         0
         0         0         0         0         0         0         0         0
         0         0         0         0         0         0         0         0
         0         0         0         0         0         0         0         0
         0         0         0         0         0         0         0         0
         0         0         0         0         0         0         0         0
         0         0         0         0         0         0         0         0
         0         0         0         0         0         0         0         0
         0         0         0         0         0         0         0         0
         0         0         0         0         0         0         0         0
         0         0         0         0         0         0         0         0
         0         0         0         0         0         0         0         0
         0         0         0         0         0         0         0         0
         0         0         0         0         0         0         0         0
         0         0         0         0         0         0         0         0
         0         0         0         0         0         0         0         0
         0         0         0         0         0         0         0         0
         0         0         0         0         0         0         0         0
         0         0         0         0         0         0         0         0
         0         0         0         0         0         0         0         0
         0         0         0         0         0         0         0         0
         0         0         0         0         0         0         0         0
         0         0         0         0         0         0         0         0
         0         0         0         0         0         0         0         0
         0         0         0         0         0         0         0         0
         0         0         0         0         0         0         0         0
         0         0         0         0         0         0         0         0
         0         0         0         0         0         0         0         0
         0         0         0         0         0         0         0         0
         0         0         0         0         0         0         0         0
         0         0         0         0         0         0         0         0
         0         0         0         0         0         0         0         0
         0         0         0         0         0         0         0         0
         0         0         0         0         0         0         0         0
         0         0         0         0         0         0         0         0
         0         0         0         0         0         0         0         0
         0         0         0         0         0         0         0         0
         0         0         0         0         0         0         0         0
         0         0         0         0         0         0         0         0
         0         0         0         0         0         0         0         0
         0         0         0         0         0         0         0         0
         0         0         0         0         0         0         0         0
         0         0         0         0         0         0         0         0
         0         0         0         0         0         0         0         0
         0         0         0         0         0         0         0         0
         0         0         0         0         0         0         0         0
         0         0         0         0         0         0         0         0
         0         0         0         0         0         0         0         0
         0         0         0         0         0         0         0         0
         0         0         0         0         0         0         0         0
         0         0         0         0         0         0         0         0
         0         0         0         0         0         0         0         0
         0         0         0         0         0         0         0         0
         0         0         0         0         0         0         0         0
         0         0         0         0         0         0         0         0
         0         0         0         0         0         0         0         0
         0         0         0         0         0         0         0         0
         0         0         0         0         0         0         0         0
         0         0         0         0         0         0         0         0
         0         0         0         0         0         0         0         0
         0         0         0         0         0         0         0         0
         0         0         0         0         0         0         0         0
         0         0         0         0         0         0         0         0
         0         0         0         0         0         0         0         0
         0         0         0         0         0         0         0         0
         0         0         0         0         0         0         0         0
         0         0         0         0         0         0         0         0
         0         0         0         0         0         0         0         0
         0         0         0         0         0         0         0         0
         0         0         0         0         0         0         0         0
         0         0         0         0         0         0         0         0
         0         0         0         0         0         0         0         0
         0         0         0         0         0         0         0         0
         0         0         0         0         0         0         0         0
         0         0         0         0         0         0         0         0
         0         0         0         0         0         0         0         0
         0         0         0         0         0         0         0         0
         0         0         0         0         0         0         0         0
         0         0         0         0         0         0         0         0
         0         0         0         0         0         0         0         0
         0         0         0         0         0         0         0         0
         0         0         0         0         0         0         0         0
         0         0         0         0         0         0         0         0
         0         0         0         0         0         0         0         0
         0         0         0         0         0         0         0         0
         0         0         0         0         0         0         0         0
         0         0         0         0         0         0         0         0
         0         0         0         0         0         0         0         0
         0         0         0         0         0         0         0         0
         0         0         0         0         0         0         0         0
         0         0         0         0         0         0         0         0
         0         0         0         0         0         0         0         0
         0         0         0         0         0         0         0         0
         0         0         0         0         0         0         0         0
         0         0         0         0         0         0         0         0
         0         0         0         0         0         0         0         0
         0         0         0         0         0         0         0         0
         0         0         0         0         0         0         0         0
         0         0         0         0         0         0         0         0
         0         0         0         0         0         0         0         0
         0         0         0         0         0         0         0         0
         0         0         0         0         0         0         0         0
         0         0         0         0         0         0         0         0
         0         0         0         0         0         0         0         0
         0         0         0         0         0         0         0         0
         0         0         0         0         0         0         0         0
         0         0         0         0         0         0         0         0
         0         0         0         0         0         0         0         0
         0         0         0         0         0         0         0         0
         0         0         0         0         0         0         0         0
         0         0         0         0         0         0         0         0
         0         0         0         0         0         0         0         0
         0         0         0         0         0         0         0         0
         0         0         0         0         0         0         0         0
         0         0         0         0         0         0         0         0
         0         0         0         0         0         0         0         0
         0         0         0         0         0         0         0         0
         0         0         0         0         0         0         0         0
         0         0         0         0         0         0         0         0
         0         0         0         0         0         0         0         0
         0         0         0         0         0         0         0         0
         0         0         0         0         0         0         0         0
         0         0         0         0         0         0         0         0
         0         0         0         0         0         0         0         0
         0         0         0         0         0         0         0         0
         0         0         0         0         0         0         0         0
         0         0         0         0         0         0         0         0
         0         0         0         0         0         0         0         0
         0         0         0         0         0         0         0         0
         0         0         0         0         0         0         0         0
         0         0         0         0         0         0         0         0
         0         0         0         0         0         0         0         0
         0         0         0         0         0         0         0         0
         0         0         0         0         0         0         0         0
         0         0         0         0         0         0         0         0
         0         0         0         0         0         0         0         0
         0         0         0         0         0         0         0         0
         0         0         0         0         0         0         0         0
         0         0         0         0         0         0         0         0
         0         0         0         0         0         0         0         0
         0         0         0         0         0         0         0         0
         0         0         0         0         0         0         0         0
         0         0         0         0         0         0         0         0
         0         0         0         0         0         0         0         0
         0         0         0         0         0         0         0         0
         0         0         0         0         0         0         0         0
         0         0         0         0         0         0         0         0
         0         0         0         0         0         0         0         0
         0         0         0         0         0         0         0         0
         0         0         0         0         0         0         0         0
         0         0         0         0         0         0         0         0
         0         0         0         0         0         0         0         0
         0         0         0         0         0         0         0         0
         0         0         0         0         0         0         0         0
         0         0         0         0         0         0         0         0
         0         0         0         0         0         0         0         0
         0         0         0         0         0         0         0         0
         0         0         0         0         0         0         0         0
         0         0         0         0         0         0         0         0
         0         0         0         0         0         0         0         0
         0         0         0         0         0         0         0         0
         0         0         0         0         0         0         0         0
         0         0         0         0         0         0         0         0
         0         0         0         0         0         0         0         0
         0         0         0         0         0         0         0         0
         0         0         0         0         0         0         0         0
         0         0         0         0         0         0         0         0
         0         0         0         0         0         0         0         0
         0         0         0         0         0         0         0         0
         0         0         0         0         0         0         0         0
         0         0         0         0         0         0         0         0
         0         0         0         0         0         0         0         0
         0         0         0         0         0         0         0         0
         0         0         0         0         0         0         0         0
         0         0         0         0         0         0         0         0
         0         0         0         0         0         0         0         0
         0         0         0         0         0         0         0         0
         0         0         0         0         0         0         0         0
         0         0         0         0         0         0         0         0
         0         0         0         0         0         0         0         0
         0         0         0         0         0         0         0         0
         0         0         0         0         0         0         0         0
         0         0         0         0         0         0         0         0
         0         0         0         0         0         0         0         0
         0         0         0         0         0         0         0         0
         0         0         0         0         0         0         0         0
         0         0         0         0         0         0         0         0
         0         0         0         0         0         0         0         0
         0         0         0         0         0         0         0         0
         0         0         0         0         0         0         0         0
         0         0         0         0         0         0         0         0
         0         0         0         0         0         0         0         0
         0         0         0         0         0         0         0         0
         0         0         0         0         0         0         0         0
         0         0         0         0         0         0         0         0
         0         0         0         0         0         0         0         0
         0         0         0         0         0         0         0         0
         0         0         0         0         0         0         0         0
         0         0         0         0         0         0         0         0
         0         0         0         0         0         0         0         0
         0         0         0         0         0         0         0         0
         0         0         0         0         0         0         0         0
         0         0         0         0         0         0         0         0
         0         0         0         0         0         0         0         0
         0         0         0         0         0         0         0         0
         0         0         0         0         0         0         0         0
         0         0         0         0         0         0         0         0
         0         0         0         0         0         0         0         0
         0         0         0         0         0         0         0         0
         0         0         0         0         0         0         0         0
         0         0         0         0         0         0         0         0
         0         0         0         0         0         0         0         0
         0         0         0         0         0         0         0         0
         0         0         0         0         0         0         0         0
         0         0         0         0         0         0         0         0
         0         0         0         0         0         0         0         0
         0         0         0         0         0         0         0         0
         0         0         0         0         0         0         0         0
         0         0         0         0         0         0         0         0
         0         0         0         0         0         0         0         0
         0         0         0         0         0         0         0         0
         0         0         0         0         0         0         0         0
         0         0         0         0         0         0         0         0
         0         0         0         0         0         0         0         0
         0         0         0         0         0         0         0         0
         0         0         0         0         0         0         0         0
         0         0         0         0         0         0         0         0
         0         0         0         0         0         0         0         0
         0         0         0         0         0         0         0         0
         0         0         0         0         0         0         0         0
         0         0         0         0         0         0         0         0
         0         0         0         0         0         0         0         0
         0         0         0         0         0         0         0         0
         0         0         0         0         0         0         0         0
         0         0         0         0         0         0         0         0
         0         0         0         0         0         0         0         0
         0         0         0         0         0         0         0         0
         0         0         0         0         0         0         0         0
         0         0         0         0         0         0         0         0
         0         0         0         0         0         0         0         0
         0         0         0         0         0         0         0         0
         0         0         0         0         0         0         0         0
         0         0         0         0         0         0         0         0
         0         0         0         0         0         0         0         0
         0         0         0         0         0         0         0         0
         0         0         0         0         0         0         0         0
         0         0         0         0         0         0         0         0
         0         0         0         0         0         0         0         0
         0         0         0         0         0         0         0         0
         0         0         0         0         0         0         0         0
         0         0         0         0         0         0         0         0
         0         0         0         0         0         0         0         0
         0         0         0         0         0         0         0         0
         0         0         0         0         0         0         0         0
         0         0         0         0         0         0         0         0
         0         0         0         0         0         0         0         0
         0         0         0         0         0         0         0         0
         0         0         0         0         0         0         0         0
         0         0         0         0         0         0         0         0
         0         0         0         0         0         0         0         0
         0         0         0         0         0         0         0         0
         0         0         0         0         0         0         0         0
         0         0         0         0         0         0         0         0
         0         0         0         0         0         0         0         0
         0         0         0         0         0         0         0         0
         0         0         0         0         0         0         0         0
         0         0         0         0         0         0         0         0
         0         0         0         0         0         0         0         0
         0         0         0         0         0         0         0         0
         0         0         0         0         0         0         0         0
         0         0         0         0         0         0         0         0
         0         0         0         0         0         0         0         0
         0         0         0         0         0         0         0         0
         0         0         0         0         0         0         0         0
         0         0         0         0         0         0         0         0
         0         0         0         0         0         0         0         0
         0         0         0         0         0         0         0         0
         0         0         0         0         0         0         0         0
         0         0         0         0         0         0         0         0
         0         0         0         0         0         0         0         0
         0         0         0         0         0         0         0         0
         0         0         0         0         0         0         0         0
         0         0         0         0         0         0         0         0
         0         0         0         0         0         0         0         0
         0         0         0         0         0         0         0         0
         0         0         0         0         0         0         0         0
         0         0         0         0         0         0         0         0
         0         0         0         0         0         0         0         0
         0         0         0         0         0         0         0         0
         0         0         0         0         0         0         0         0
         0         0         0         0         0         0         0         0
         0         0         0         0         0         0         0         0
         0         0         0         0         0         0         0         0
         0         0         0         0         0         0         0         0
         0         0         0         0         0         0         0         0
         0         0         0         0         0         0         0         0
         0         0         0         0         0         0         0         0
         0         0         0         0         0         0         0         0
         0         0         0         0         0         0         0         0
         0         0         0         0         0         0         0         0
         0         0         0         0         0         0         0         0
         0         0         0         0         0         0         0         0
         0         0         0         0         0         0         0         0
         0         0         0         0         0         0         0         0
         0         0         0         0         0         0         0         0
         0         0         0         0         0         0         0         0
         0         0         0         0         0         0         0         0
         0         0         0         0         0         0         0         0
         0         0         0         0         0         0         0         0
         0         0         0         0         0         0         0         0
         0         0         0         0         0         0         0         0
         0         0         0         0         0         0         0         0
         0         0         0         0         0         0         0         0
         0         0         0         0         0         0         0         0
         0         0         0         0         0         0         0         0
         0         0         0         0         0         0         0         0
         0         0         0         0         0         0         0         0
         0         0         0         0         0         0         0         0
         0         0         0         0         0         0         0         0
         0         0         0         0         0         0         0         0
         0         0         0         0         0         0         0         0
         0         0         0         0         0         0         0         0
         0         0         0         0         0         0         0         0
         0         0         0         0         0         0         0         0
         0         0         0         0         0         0         0         0
         0         0         0         0         0         0         0         0
         0         0         0         0         0         0         0         0
         0         0         0         0         0         0         0         0
         0         0         0         0         0         0         0         0
         0         0         0         0         0         0         0         0
         0         0         0         0         0         0         0         0
         0         0         0         0         0         0         0         0
         0         0         0         0         0         0         0         0
         0         0         0         0         0         0         0         0
         0         0         0         0         0         0         0         0
         0         0         0         0         0         0         0         0
         0         0         0         0         0         0         0         0
         0         0         0         0         0         0         0         0
         0         0         0         0         0         0         0         0
         0         0         0         0         0         0         0         0
         0         0         0         0         0         0         0         0
         0         0         0         0         0         0         0         0
         0         0         0         0         0         0         0         0
         0         0         0         0         0         0         0         0
         0         0         0         0         0         0         0         0
         0         0         0         0         0         0         0         0
         0         0         0         0         0         0         0         0
         0         0         0         0         0         0         0         0
         0         0         0         0         0         0         0         0
         0         0         0         0         0         0         0         0
         0         0         0         0         0         0         0         0
         0         0         0         0         0         0         0         0
         0         0         0         0         0         0         0         0
         0         0         0         0         0         0         0         0
         0         0         0         0         0         0         0         0
         0         0         0         0         0         0         0         0
         0         0         0         0         0         0         0         0
         0         0         0         0         0         0         0         0
         0         0         0         0         0         0         0         0
         0         0         0         0         0         0         0         0
         0         0         0         0         0         0         0         0
         0         0         0         0         0         0         0         0
         0         0         0         0         0         0         0         0
         0         0         0         0         0         0         0         0
         0         0         0         0         0         0         0         0
         0         0         0         0         0         0         0         0
         0         0         0         0         0         0         0         0
         0         0         0         0         0         0         0         0
         0         0         0         0         0         0         0         0
         0         0         0         0         0         0         0         0
         0         0         0         0         0         0         0         0
         0         0         0         0         0         0         0         0
         0         0         0         0         0         0         0         0
         0         0         0         0         0         0         0         0
         0         0         0         0         0         0         0         0
         0         0         0         0         0         0         0         0
         0         0         0         0         0         0         0         0
         0         0         0         0         0         0         0         0
         0         0         0         0         0         0         0         0
         0         0         0         0         0         0         0         0
         0         0         0         0         0         0         0         0
         0         0         0         0         0         0         0         0
         0         0         0         0         0         0         0         0
         0         0         0         0         0         0         0         0
         0         0         0         0         0         0         0         0
         0         0         0         0         0         0         0         0
         0         0         0         0         0         0         0         0
         0         0         0         0         0         0         0         0
         0         0         0         0         0         0         0         0
         0         0         0         0         0         0         0         0
         0         0         0         0         0         0         0         0
         0         0         0         0         0         0         0         0
         0         0         0         0         0         0         0         0
         0         0         0         0         0         0         0         0
         0         0         0         0         0         0         0         0
         0         0         0         0         0         0         0         0
         0         0         0         0         0         0         0         0
         0         0         0         0         0         0         0         0
         0         0         0         0         0         0         0         0
         0         0         0         0         0         0         0         0
         0         0         0         0         0         0         0         0
         0         0         0         0         0         0         0         0
         0         0         0         0         0         0         0         0
         0         0         0         0         0         0         0         0
         0         0         0         0         0         0         0         0
         0         0         0         0         0         0         0         0
         0         0         0         0         0         0         0         0
         0         0         0         0         0         0         0         0
         0         0         0         0         0         0         0         0
         0         0         0         0         0         0         0         0
         0         0         0         0         0         0         0         0
         0         0         0         0         0         0         0         0
         0         0         0         0         0         0         0         0
         0         0         0         0         0         0         0         0
         0         0         0         0         0         0         0         0
         0         0         0         0         0         0         0         0
         0         0         0         0         0         0         0         0
         0         0         0         0         0         0         0         0
         0         0         0         0         0         0         0         0
         0         0         0         0         0         0         0         0
         0         0         0         0         0         0         0         0
         0         0         0         0         0         0         0         0
         0         0         0         0         0         0         0         0
         0         0         0         0         0         0         0         0
         0         0         0         0         0         0         0         0
         0         0         0         0         0         0         0         0
         0         0         0         0         0         0         0         0
         0         0         0         0         0         0         0         0
         0         0         0         0         0         0         0         0
         0         0         0         0         0         0         0         0
         0         0         0         0         0         0         0         0
         0         0         0         0         0         0         0         0
         0         0         0         0         0         0         0         0
         0         0         0         0         0         0         0         0
         0         0         0         0         0         0         0         0
         0         0         0         0         0         0         0         0
         0         0         0         0         0         0         0         0
         0         0         0         0         0         0         0         0
         0         0         0         0         0         0         0         0
         0         0         0         0         0         0         0         0
         0         0         0         0         0         0         0         0
         0         0         0         0         0         0         0         0
         0         0         0         0         0         0         0         0
         0         0         0         0         0         0         0         0
         0         0         0         0         0         0         0         0
         0         0         0         0         0         0         0         0
         0         0         0         0         0         0         0         0
         0         0         0         0         0         0         0         0
         0         0         0         0         0         0         0         0
         0         0         0         0         0         0         0         0
         0         0         0         0         0         0         0         0
         0         0         0         0         0         0         0         0
         0         0         0         0         0         0         0         0
         0         0         0         0         0         0         0         0
         0         0         0         0         0         0         0         0
         0         0         0         0         0         0         0         0
         0         0         0         0         0         0         0         0
         0         0         0         0         0         0         0         0
         0         0         0         0         0         0         0         0
         0         0         0         0         0         0         0         0
         0         0         0         0         0         0         0         0
         0         0         0         0         0         0         0         0
         0         0         0         0         0         0         0         0
         0         0         0         0         0         0         0         0
         0         0         0         0         0         0         0         0
         0         0         0         0         0         0         0         0
         0         0         0         0         0         0         0         0
         0         0         0         0         0         0         0         0
         0         0         0         0         0         0         0         0
         0         0         0         0         0         0         0         0
         0         0         0         0         0         0         0         0
         0         0         0         0         0         0         0         0
         0         0         0         0         0         0         0         0
         0         0         0         0         0         0         0         0
         0         0         0         0         0         0         0         0
         0         0         0         0         0         0         0         0
         0         0         0         0         0         0         0         0
         0         0         0         0         0         0         0         0
         0         0         0         0         0         0         0         0
         0         0         0         0         0         0         0         0
         0         0         0         0         0         0         0         0
         0         0         0         0         0         0         0         0
         0         0         0         0         0         0         0         0
         0         0         0         0         0         0         0         0
         0         0         0         0         0         0         0         0
         0         0         0         0         0         0         0         0
         0         0         0         0         0         0         0         0
         0         0         0         0         0         0         0         0
         0         0         0         0         0         0         0         0
         0         0         0         0         0         0         0         0
         0         0         0         0         0         0         0         0
         0         0         0         0         0         0         0         0
         0         0         0         0         0         0         0         0
         0         0         0         0         0         0         0         0
         0         0         0         0         0         0         0         0
         0         0         0         0         0         0         0         0
         0         0         0         0         0         0         0         0
         0         0         0         0         0         0         0         0
         0         0         0         0         0         0         0         0
         0         0         0         0         0         0         0         0
         0         0         0         0         0         0         0         0
         0         0

         0         0 !NGRP NST2


         0         0 !NUMLP NUMLPH

         0 !NCRTERM: cross-terms

